Protein in INSANE! Membrane UpperLeaflet>POPC=1.0 LowerLeaflet>POPC=1.0
244992
    1AU     AUC    1   3.200  34.045   7.498
    1AU     AUC    2   3.459  34.062   7.315
    1AU     AUC    3   3.459  34.036   7.664
    1AU     AUC    4   2.920  34.037   7.333
    1AU     AUC    5   2.954  34.078   7.685
    1AU     AUC    6   3.030  34.319   7.499
    1AU     AUC    7   3.378  34.325   7.478
    1AU     AUC    8   3.019  33.782   7.505
    1AU     AUC    9   3.365  33.756   7.496
    1AU     AUC   10   3.209  33.872   7.772
    1AU     AUC   11   3.201  34.231   7.758
    1AU     AUC   12   3.185  33.880   7.229
    1AU     AUC   13   3.203  34.195   7.223
    1AU     AUC   14   3.770  34.068   7.142
    1AU     AUC   15   3.802  34.022   7.498
    1AU     AUC   16   3.758  34.009   7.852
    1AU     AUC   17   2.607  34.019   7.166
    1AU     AUC   18   2.595  34.074   7.528
    1AU     AUC   19   2.656  34.103   7.883
    1AU     AUC   20   2.866  34.626   7.485
    1AU     AUC   21   3.228  34.668   7.442
    1AU     AUC   22   3.562  34.614   7.470
    1AU     AUC   23   2.814  33.493   7.518
    1AU     AUC   24   3.176  33.442   7.485
    1AU     AUC   25   3.534  33.451   7.481
    1AU     AUC   26   3.191  33.693   8.072
    1AU     AUC   27   3.216  34.050   8.103
    1AU     AUC   28   3.238  34.402   8.053
    1AU     AUC   29   3.214  33.696   6.950
    1AU     AUC   30   3.189  34.033   6.886
    1AU     AUC   31   3.168  34.361   6.916
    1AU     AUC   32   3.482  33.817   7.990
    1AU     AUC   33   3.519  34.202   7.980
    1AU     AUC   34   3.520  33.912   6.983
    1AU     AUC   35   3.496  34.227   7.012
    1AU     AUC   36   2.906  33.914   8.016
    1AU     AUC   37   2.936  34.283   8.000
    1AU     AUC   38   2.888  33.840   7.040
    1AU     AUC   39   2.859  34.166   6.994
    1AU     AUC   40   3.720  34.337   7.326
    1AU     AUC   41   3.678  34.305   7.676
    1AU     AUC   42   2.712  34.330   7.322
    1AU     AUC   43   2.736  34.394   7.689
    1AU     AUC   44   3.674  33.749   7.328
    1AU     AUC   45   3.643  33.683   7.685
    1AU     AUC   46   2.684  33.724   7.354
    1AU     AUC   47   2.744  33.789   7.706
    1AU     AUC   48   3.054  34.570   7.764
    1AU     AUC   49   3.402  34.527   7.760
    1AU     AUC   50   3.000  33.579   7.796
    1AU     AUC   51   3.334  33.518   7.772
    1AU     AUC   52   3.010  34.480   7.181
    1AU     AUC   53   3.383  34.528   7.190
    1AU     AUC   54   3.009  33.563   7.212
    1AU     AUC   55   3.406  33.594   7.202
    1AU    AUSL   56   3.766  33.943   8.225
    1AU    AUSL   57   3.492  33.525   8.172
    1AU     AUL   58   3.798  33.551   8.315
    1AU       S   59   3.824  33.122   8.148
    1AU     LIG   60   3.701  32.835   8.416
    1AU     LIG   61   3.775  32.487   8.680
    1AU     LIG   62   4.021  32.270   8.963
    1AU     LIG   63   4.188  32.094   9.339
    1AU     LIG   64   4.306  31.692   9.549
    1AU       S   65   4.022  33.946   8.418
    1AU     LIG   66   3.967  34.087   8.860
    1AU     LIG   67   3.893  33.835   9.269
    1AU     LIG   68   4.114  33.746   9.688
    1AU     LIG   69   4.504  33.809   9.946
    1AU     LIG   70   4.808  33.935  10.280
    1AU    AUSL   71   3.370  33.860   8.417
    1AU    AUSL   72   3.098  34.228   8.444
    1AU     AUL   73   3.315  34.142   8.724
    1AU       S   74   3.619  33.798   8.656
    1AU     LIG   75   3.315  33.671   8.958
    1AU     LIG   76   3.447  33.537   9.392
    1AU     LIG   77   3.734  33.394   9.748
    1AU     LIG   78   3.926  33.338  10.178
    1AU     LIG   79   3.801  33.222  10.621
    1AU       S   80   2.895  33.973   8.679
    1AU     LIG   81   2.900  33.902   9.159
    1AU     LIG   82   2.587  33.936   9.507
    1AU     LIG   83   2.410  33.957   9.945
    1AU     LIG   84   2.227  34.206  10.304
    1AU     LIG   85   2.233  34.485  10.696
    1AU    AUSL   86   3.417  34.234   8.157
    1AU    AUSL   87   3.868  34.343   8.086
    1AU     AUL   88   3.673  34.248   8.429
    1AU       S   89   3.325  34.605   8.579
    1AU     LIG   90   3.648  34.494   8.890
    1AU     LIG   91   3.925  34.570   9.278
    1AU     LIG   92   3.876  34.628   9.770
    1AU     LIG   93   3.848  34.706  10.253
    1AU     LIG   94   3.780  34.881  10.703
    1AU       S   95   4.034  34.496   8.262
    1AU     LIG   96   4.389  34.349   8.439
    1AU     LIG   97   4.669  34.569   8.731
    1AU     LIG   98   4.889  34.837   9.042
    1AU     LIG   99   5.101  35.121   9.347
    1AU     LIG  100   5.482  35.312   9.546
    1AU    AUSL  101   3.715  34.202   6.726
    1AU    AUSL  102   3.474  34.506   6.956
    1AU     AUL  103   3.601  34.568   6.601
    1AU       S  104   3.674  34.229   6.297
    1AU     LIG  105   4.093  34.060   6.153
    1AU     LIG  106   4.243  33.749   5.862
    1AU     LIG  107   4.227  33.696   5.409
    1AU     LIG  108   4.376  33.713   4.976
    1AU     LIG  109   4.810  33.694   4.781
    1AU       S  110   3.942  34.750   6.857
    1AU     LIG  111   4.090  34.913   6.454
    1AU     LIG  112   4.313  35.091   6.071
    1AU     LIG  113   4.559  35.200   5.690
    1AU     LIG  114   4.845  35.508   5.484
    1AU     LIG  115   4.956  35.854   5.177
    1AU    AUSL  116   3.497  33.844   6.586
    1AU    AUSL  117   3.877  33.839   6.912
    1AU     AUL  118   3.900  33.957   6.613
    1AU       S  119   4.076  33.531   6.692
    1AU     LIG  120   4.214  33.170   6.403
    1AU     LIG  121   4.444  32.754   6.317
    1AU     LIG  122   4.773  32.515   6.057
    1AU     LIG  123   5.232  32.564   5.892
    1AU     LIG  124   5.580  32.424   5.613
    1AU       S  125   3.596  34.031   6.264
    1AU     LIG  126   3.766  33.657   6.085
    1AU     LIG  127   3.853  33.440   5.667
    1AU     LIG  128   3.829  33.459   5.179
    1AU     LIG  129   3.908  33.555   4.704
    1AU     LIG  130   3.925  33.378   4.243
    1AU    AUSL  131   3.282  34.228   6.674
    1AU    AUSL  132   3.082  33.825   6.736
    1AU     AUL  133   3.221  33.844   6.444
    1AU       S  134   2.793  33.850   6.281
    1AU     LIG  135   2.891  33.687   5.881
    1AU     LIG  136   2.639  33.452   5.571
    1AU     LIG  137   2.450  33.441   5.149
    1AU     LIG  138   2.235  33.218   4.786
    1AU     LIG  139   2.234  33.090   4.323
    1AU       S  140   3.344  34.278   6.325
    1AU     LIG  141   3.391  34.105   5.835
    1AU     LIG  142   3.735  33.924   5.522
    1AU     LIG  143   3.915  33.951   5.073
    1AU     LIG  144   4.056  34.216   4.715
    1AU     LIG  145   4.075  34.557   4.378
    1AU    AUSL  146   2.688  34.174   8.282
    1AU    AUSL  147   2.968  34.534   8.165
    1AU     AUL  148   2.851  34.461   8.486
    1AU       S  149   2.709  34.088   8.737
    1AU     LIG  150   2.417  33.830   8.988
    1AU     LIG  151   2.163  33.675   9.365
    1AU     LIG  152   1.994  33.690   9.804
    1AU     LIG  153   1.664  33.780  10.130
    1AU     LIG  154   1.292  33.620  10.398
    1AU       S  155   2.593  34.779   8.251
    1AU     LIG  156   2.528  35.037   8.628
    1AU     LIG  157   2.381  35.341   8.962
    1AU     LIG  158   2.176  35.419   9.381
    1AU     LIG  159   2.074  35.521   9.840
    1AU     LIG  160   2.009  35.739  10.268
    1AU    AUSL  161   3.004  33.878   8.182
    1AU    AUSL  162   2.549  33.790   8.112
    1AU     AUL  163   2.553  33.900   8.349
    1AU       S  164   2.390  33.456   8.278
    1AU     LIG  165   1.963  33.397   8.190
    1AU     LIG  166   1.750  33.004   8.312
    1AU     LIG  167   1.527  32.621   8.465
    1AU     LIG  168   1.288  32.331   8.744
    1AU     LIG  169   1.102  32.254   9.162
    1AU       S  170   2.938  33.796   8.588
    1AU     LIG  171   2.791  33.490   8.860
    1AU     LIG  172   2.637  33.457   9.296
    1AU     LIG  173   2.478  33.478   9.733
    1AU     LIG  174   2.277  33.354  10.130
    1AU     LIG  175   2.317  33.102  10.532
    1AU    AUSL  176   2.641  33.867   6.767
    1AU    AUSL  177   2.864  33.519   6.948
    1AU     AUL  178   2.886  33.539   6.624
    1AU       S  179   2.610  33.793   6.341
    1AU     LIG  180   2.380  33.749   5.933
    1AU     LIG  181   2.159  33.670   5.519
    1AU     LIG  182   1.936  33.488   5.143
    1AU     LIG  183   1.583  33.478   4.836
    1AU     LIG  184   1.323  33.775   4.580
    1AU       S  185   2.497  33.357   6.798
    1AU     LIG  186   2.447  32.895   6.744
    1AU     LIG  187   2.078  32.652   6.576
    1AU     LIG  188   1.763  32.517   6.236
    1AU     LIG  189   1.639  32.413   5.784
    1AU     LIG  190   1.636  32.328   5.310
    1AU    AUSL  191   2.863  34.200   6.589
    1AU    AUSL  192   2.522  34.275   6.908
    1AU     AUL  193   2.441  34.088   6.648
    1AU       S  194   2.512  34.540   6.633
    1AU     LIG  195   2.256  34.841   6.371
    1AU     LIG  196   1.999  35.060   6.031
    1AU     LIG  197   1.747  35.073   5.620
    1AU     LIG  198   1.344  35.152   5.372
    1AU     LIG  199   1.112  35.320   4.990
    1AU       S  200   2.830  34.131   6.359
    1AU     LIG  201   2.694  34.167   5.904
    1AU     LIG  202   2.595  33.957   5.483
    1AU     LIG  203   2.467  33.953   5.011
    1AU     LIG  204   2.432  34.151   4.551
    1AU     LIG  205   2.346  34.334   4.098
    1AU    AUSL  206   4.012  34.533   7.498
    1AU    AUSL  207   3.869  34.340   7.105
    1AU     AUL  208   4.245  34.622   7.253
    1AU       S  209   3.968  34.538   6.910
    1AU     LIG  210   4.152  34.406   6.531
    1AU     LIG  211   4.443  34.600   6.218
    1AU     LIG  212   4.785  34.862   6.023
    1AU     LIG  213   5.076  35.127   5.753
    1AU     LIG  214   5.338  35.308   5.396
    1AU       S  215   4.397  34.389   7.642
    1AU     LIG  216   4.851  34.493   7.587
    1AU     LIG  217   5.309  34.636   7.583
    1AU     LIG  218   5.770  34.806   7.590
    1AU     LIG  219   5.969  35.170   7.847
    1AU     LIG  220   6.025  35.658   7.818
    1AU    AUSL  221   4.171  34.125   7.328
    1AU    AUSL  222   4.132  33.790   7.681
    1AU     AUL  223   4.473  33.849   7.560
    1AU       S  224   4.281  34.184   7.349
    1AU     LIG  225   4.725  34.157   7.197
    1AU     LIG  226   5.163  34.376   7.153
    1AU     LIG  227   5.617  34.590   7.132
    1AU     LIG  228   6.097  34.692   7.011
    1AU     LIG  229   6.462  34.622   6.687
    1AU       S  230   4.354  33.398   7.649
    1AU     LIG  231   4.770  33.322   7.718
    1AU     LIG  232   5.004  32.976   7.828
    1AU     LIG  233   5.458  32.947   7.863
    1AU     LIG  234   5.878  33.037   8.053
    1AU     LIG  235   6.335  32.960   8.163
    1AU    AUSL  236   3.910  34.159   7.703
    1AU    AUSL  237   3.665  34.566   7.759
    1AU     AUL  238   4.003  34.598   7.804
    1AU       S  239   4.002  34.795   8.220
    1AU     LIG  240   4.410  34.880   8.407
    1AU     LIG  241   4.633  35.166   8.711
    1AU     LIG  242   4.780  35.639   8.668
    1AU     LIG  243   5.038  36.045   8.644
    1AU     LIG  244   5.033  36.449   8.860
    1AU       S  245   4.260  34.215   7.803
    1AU     LIG  246   4.693  34.227   8.018
    1AU     LIG  247   5.165  34.302   7.986
    1AU     LIG  248   5.635  34.430   7.936
    1AU     LIG  249   6.055  34.648   7.996
    1AU     LIG  250   6.448  34.927   8.026
    1AU    AUSL  251   2.541  34.618   7.524
    1AU    AUSL  252   2.634  34.382   7.908
    1AU     AUL  253   2.318  34.718   7.767
    1AU       S  254   2.465  34.559   8.173
    1AU     LIG  255   2.367  34.526   8.634
    1AU     LIG  256   2.192  34.825   8.972
    1AU     LIG  257   1.864  35.016   9.262
    1AU     LIG  258   1.472  35.211   9.460
    1AU     LIG  259   1.087  35.508   9.487
    1AU       S  260   2.555  34.997   7.447
    1AU     LIG  261   2.095  35.112   7.440
    1AU     LIG  262   1.709  35.433   7.444
    1AU     LIG  263   1.258  35.609   7.408
    1AU     LIG  264   0.828  35.798   7.367
    1AU     LIG  265   0.377  35.953   7.462
    1AU    AUSL  266   2.489  34.230   7.329
    1AU    AUSL  267   2.601  34.672   7.101
    1AU     AUL  268   2.323  34.534   7.162
    1AU       S  269   2.098  34.111   6.997
    1AU     LIG  270   1.789  34.454   7.062
    1AU     LIG  271   1.336  34.621   6.964
    1AU     LIG  272   0.891  34.776   6.839
    1AU     LIG  273   0.420  34.867   6.828
    1AU     LIG  274   0.039  35.098   6.646
    1AU       S  275   2.420  34.928   6.881
    1AU     LIG  276   2.506  35.258   6.544
    1AU     LIG  277   2.249  35.504   6.217
    1AU     LIG  278   2.071  35.951   6.177
    1AU     LIG  279   1.810  36.353   6.077
    1AU     LIG  280   1.412  36.565   5.981
    1AU    AUSL  281   2.263  34.267   7.730
    1AU    AUSL  282   2.221  33.904   7.392
    1AU     AUL  283   2.106  34.239   7.455
    1AU       S  284   1.956  33.809   7.607
    1AU     LIG  285   1.619  33.667   7.326
    1AU     LIG  286   1.159  33.549   7.403
    1AU     LIG  287   0.711  33.435   7.284
    1AU     LIG  288   0.245  33.473   7.244
    1AU     LIG  289  44.811  33.416   7.141
    1AU       S  290   2.176  34.207   7.971
    1AU     LIG  291   1.719  34.313   7.865
    1AU     LIG  292   1.211  34.317   7.945
    1AU     LIG  293   0.811  34.545   8.127
    1AU     LIG  294   0.506  34.861   8.281
    1AU     LIG  295   0.089  35.006   8.218
    1AU    AUSL  296   3.887  33.455   7.526
    1AU    AUSL  297   3.738  33.727   7.859
    1AU     AUL  298   4.061  33.632   7.918
    1AU       S  299   4.059  33.308   7.516
    1AU     LIG  300   4.315  32.907   7.602
    1AU     LIG  301   4.739  32.723   7.456
    1AU     LIG  302   5.193  32.639   7.501
    1AU     LIG  303   5.486  32.412   7.836
    1AU     LIG  304   5.860  32.154   7.994
    1AU       S  305   3.984  33.191   7.992
    1AU     LIG  306   4.218  32.817   8.213
    1AU     LIG  307   4.288  32.525   8.584
    1AU     LIG  308   4.529  32.266   8.903
    1AU     LIG  309   4.915  32.277   9.177
    1AU     LIG  310   5.334  32.257   9.410
    1AU    AUSL  311   3.849  33.847   7.336
    1AU    AUSL  312   3.824  33.437   7.099
    1AU     AUL  313   4.099  33.671   7.168
    1AU       S  314   4.336  33.400   7.431
    1AU     LIG  315   4.642  33.180   7.236
    1AU     LIG  316   5.085  33.139   7.336
    1AU     LIG  317   5.477  33.011   7.172
    1AU     LIG  318   5.947  32.927   7.067
    1AU     LIG  319   6.313  33.214   6.814
    1AU       S  320   4.024  33.317   6.853
    1AU     LIG  321   4.074  32.843   6.795
    1AU     LIG  322   4.158  32.407   6.598
    1AU     LIG  323   4.502  32.154   6.351
    1AU     LIG  324   4.845  31.823   6.228
    1AU     LIG  325   5.166  31.548   5.990
    1AU    AUSL  326   2.403  33.533   7.569
    1AU    AUSL  327   2.565  33.759   7.175
    1AU     AUL  328   2.207  33.634   7.249
    1AU       S  329   2.377  33.488   6.852
    1AU     LIG  330   2.000  33.166   6.767
    1AU     LIG  331   1.620  32.899   6.570
    1AU     LIG  332   1.262  32.589   6.407
    1AU     LIG  333   0.819  32.435   6.243
    1AU     LIG  334   0.577  32.454   5.835
    1AU       S  335   1.987  33.524   7.660
    1AU     LIG  336   1.772  33.184   7.452
    1AU     LIG  337   1.316  33.053   7.415
    1AU     LIG  338   0.866  32.978   7.572
    1AU     LIG  339   0.472  32.770   7.776
    1AU     LIG  340   0.038  32.609   7.722
    1AU    AUSL  341   2.531  33.939   7.710
    1AU    AUSL  342   2.752  33.545   7.817
    1AU     AUL  343   2.343  33.708   7.890
    1AU       S  344   2.438  33.288   8.043
    1AU     LIG  345   2.105  32.990   7.910
    1AU     LIG  346   1.851  32.593   8.013
    1AU     LIG  347   1.694  32.194   8.224
    1AU     LIG  348   1.454  31.898   8.515
    1AU     LIG  349   1.155  31.750   8.840
    1AU       S  350   1.932  33.844   7.759
    1AU     LIG  351   1.456  33.891   7.751
    1AU     LIG  352   1.006  33.828   7.814
    1AU     LIG  353   0.794  33.431   7.794
    1AU     LIG  354   0.360  33.270   7.729
    1AU     LIG  355  44.945  33.223   7.972
    1AU    AUSL  356   3.247  34.718   7.891
    1AU    AUSL  357   2.798  34.778   7.837
    1AU     AUL  358   3.067  34.850   8.179
    1AU       S  359   2.683  34.965   7.939
    1AU     LIG  360   2.617  35.320   8.205
    1AU     LIG  361   2.278  35.500   8.476
    1AU     LIG  362   2.181  35.888   8.730
    1AU     LIG  363   2.058  36.342   8.813
    1AU     LIG  364   1.677  36.557   9.023
    1AU       S  365   3.286  35.204   7.969
    1AU     LIG  366   3.463  35.349   8.334
    1AU     LIG  367   3.570  35.745   8.558
    1AU     LIG  368   3.541  36.207   8.650
    1AU     LIG  369   3.411  36.589   8.861
    1AU     LIG  370   3.368  36.769   9.290
    1AU    AUSL  371   3.069  34.999   7.595
    1AU    AUSL  372   3.343  34.951   7.217
    1AU     AUL  373   3.062  35.207   7.351
    1AU       S  374   3.119  35.210   7.822
    1AU     LIG  375   3.121  35.665   8.072
    1AU     LIG  376   3.419  36.047   8.181
    1AU     LIG  377   3.310  36.508   8.288
    1AU     LIG  378   3.114  36.934   8.427
    1AU     LIG  379   2.749  37.190   8.612
    1AU       S  380   3.314  35.308   6.967
    1AU     LIG  381   3.525  35.743   7.009
    1AU     LIG  382   3.760  36.167   6.974
    1AU     LIG  383   3.843  36.557   6.725
    1AU     LIG  384   3.670  36.999   6.674
    1AU     LIG  385   3.879  37.446   6.670
    1AU    AUSL  386   3.517  34.943   7.619
    1AU    AUSL  387   3.546  34.642   8.186
    1AU     AUL  388   3.621  34.887   7.953
    1AU       S  389   3.780  34.722   8.390
    1AU     LIG  390   4.101  34.652   8.743
    1AU     LIG  391   4.366  34.819   9.075
    1AU     LIG  392   4.577  35.124   9.345
    1AU     LIG  393   4.624  35.566   9.493
    1AU     LIG  394   4.528  35.987   9.696
    1AU       S  395   3.464  35.246   7.673
    1AU     LIG  396   3.605  35.621   7.903
    1AU     LIG  397   3.863  35.996   7.921
    1AU     LIG  398   3.784  36.415   8.033
    1AU     LIG  399   3.878  36.701   8.349
    1AU     LIG  400   4.030  37.122   8.372
    1AU    AUSL  401   3.158  33.380   7.933
    1AU    AUSL  402   3.582  33.318   7.795
    1AU     AUL  403   3.370  33.228   8.166
    1AU       S  404   3.181  32.836   8.009
    1AU     LIG  405   3.000  32.587   8.328
    1AU     LIG  406   2.957  32.139   8.312
    1AU     LIG  407   3.007  31.681   8.402
    1AU     LIG  408   3.088  31.272   8.638
    1AU     LIG  409   3.124  30.966   9.004
    1AU       S  410   3.725  33.123   7.851
    1AU     LIG  411   3.817  32.662   7.940
    1AU     LIG  412   3.974  32.289   8.249
    1AU     LIG  413   4.216  32.002   8.554
    1AU     LIG  414   4.587  31.766   8.743
    1AU     LIG  415   4.839  31.394   8.938
    1AU    AUSL  416   2.837  33.155   7.677
    1AU    AUSL  417   2.876  33.479   8.245
    1AU     AUL  418   2.883  33.201   8.031
    1AU       S  419   2.943  32.776   7.851
    1AU     LIG  420   2.663  32.430   7.968
    1AU     LIG  421   2.543  31.981   7.955
    1AU     LIG  422   2.565  31.516   7.999
    1AU     LIG  423   2.376  31.183   8.238
    1AU     LIG  424   2.235  30.881   8.533
    1AU       S  425   2.608  33.376   8.379
    1AU     LIG  426   2.279  32.989   8.420
    1AU     LIG  427   2.043  32.582   8.491
    1AU     LIG  428   1.803  32.245   8.720
    1AU     LIG  429   1.590  32.073   9.083
    1AU     LIG  430   1.732  31.953   9.512
    1AU    AUSL  431   3.272  33.084   7.616
    1AU    AUSL  432   3.039  33.341   7.331
    1AU     AUL  433   2.939  32.990   7.439
    1AU       S  434   3.282  32.885   7.164
    1AU     LIG  435   2.850  32.660   7.078
    1AU     LIG  436   2.665  32.246   7.154
    1AU     LIG  437   2.605  31.809   7.006
    1AU     LIG  438   2.692  31.356   6.930
    1AU     LIG  439   2.405  31.019   6.826
    1AU       S  440   3.281  32.855   7.769
    1AU     LIG  441   3.159  32.338   7.843
    1AU     LIG  442   3.041  31.861   7.895
    1AU     LIG  443   3.075  31.380   7.982
    1AU     LIG  444   3.329  31.068   8.229
    1AU     LIG  445   3.693  30.772   8.344
    1AU    AUSL  446   3.157  34.777   6.849
    1AU    AUSL  447   3.701  34.719   7.265
    1AU     AUL  448   3.498  34.888   6.929
    1AU       S  449   3.136  35.064   6.675
    1AU     LIG  450   3.390  35.430   6.488
    1AU     LIG  451   3.511  35.889   6.484
    1AU     LIG  452   3.483  36.316   6.276
    1AU     LIG  453   3.373  36.638   5.943
    1AU     LIG  454   3.274  36.824   5.524
    1AU       S  455   3.898  34.896   7.146
    1AU     LIG  456   4.352  35.002   6.910
    1AU     LIG  457   4.601  35.056   6.492
    1AU     LIG  458   4.807  35.363   6.163
    1AU     LIG  459   5.119  35.752   6.135
    1AU     LIG  460   5.470  36.039   5.991
    1AU    AUSL  461   2.983  34.719   7.287
    1AU    AUSL  462   2.936  34.429   6.944
    1AU     AUL  463   2.857  34.876   7.026
    1AU       S  464   3.070  35.253   6.888
    1AU     LIG  465   3.076  35.728   6.765
    1AU     LIG  466   3.266  36.163   6.829
    1AU     LIG  467   3.339  36.591   6.682
    1AU     LIG  468   3.148  37.017   6.527
    1AU     LIG  469   2.840  37.380   6.603
    1AU       S  470   2.727  34.653   6.640
    1AU     LIG  471   2.761  34.896   6.272
    1AU     LIG  472   2.502  35.136   5.958
    1AU     LIG  473   2.203  35.350   5.632
    1AU     LIG  474   2.069  35.585   5.215
    1AU     LIG  475   1.962  35.930   4.888
    1AU    AUSL  476   3.227  33.285   6.925
    1AU    AUSL  477   2.619  33.316   7.259
    1AU     AUL  478   2.890  33.162   6.997
    1AU       S  479   2.439  33.267   7.081
    1AU     LIG  480   2.175  32.947   7.201
    1AU     LIG  481   1.812  32.723   7.020
    1AU     LIG  482   1.627  32.388   6.727
    1AU     LIG  483   1.313  32.069   6.538
    1AU     LIG  484   1.007  31.938   6.196
    1AU       S  485   3.282  32.891   6.935
    1AU     LIG  486   3.132  32.548   6.657
    1AU     LIG  487   2.897  32.163   6.690
    1AU     LIG  488   2.970  31.706   6.654
    1AU     LIG  489   3.117  31.350   6.396
    1AU     LIG  490   3.116  30.979   6.085
    1AU    AUSL  491   3.476  33.305   7.309
    1AU    AUSL  492   3.463  33.640   6.957
    1AU     AUL  493   3.566  33.258   6.934
    1AU       S  494   3.500  32.900   7.236
    1AU     LIG  495   3.294  32.395   7.123
    1AU     LIG  496   3.087  31.945   7.110
    1AU     LIG  497   3.191  31.479   7.068
    1AU     LIG  498   3.453  31.147   6.838
    1AU     LIG  499   3.689  30.768   6.637
    1AU       S  500   3.795  33.477   6.603
    1AU     LIG  501   3.703  33.054   6.501
    1AU     LIG  502   3.927  32.733   6.283
    1AU     LIG  503   4.172  32.436   6.010
    1AU     LIG  504   4.315  32.386   5.555
    1AU     LIG  505   4.288  32.309   5.076
    2AU     AUC  506  40.683  19.259   7.496
    2AU     AUC  507  40.975  19.259   7.327
    2AU     AUC  508  40.943  19.248   7.665
    2AU     AUC  509  40.407  19.250   7.335
    2AU     AUC  510  40.424  19.297   7.680
    2AU     AUC  511  40.516  19.535   7.495
    2AU     AUC  512  40.863  19.525   7.484
    2AU     AUC  513  40.493  18.992   7.498
    2AU     AUC  514  40.848  18.986   7.500
    2AU     AUC  515  40.689  19.084   7.763
    2AU     AUC  516  40.678  19.450   7.750
    2AU     AUC  517  40.680  19.096   7.228
    2AU     AUC  518  40.712  19.411   7.224
    2AU     AUC  519  41.310  19.256   7.177
    2AU     AUC  520  41.303  19.239   7.514
    2AU     AUC  521  41.239  19.224   7.866
    2AU     AUC  522  40.090  19.256   7.176
    2AU     AUC  523  40.075  19.296   7.537
    2AU     AUC  524  40.134  19.337   7.870
    2AU     AUC  525  40.359  19.857   7.466
    2AU     AUC  526  40.714  19.879   7.436
    2AU     AUC  527  41.040  19.817   7.470
    2AU     AUC  528  40.290  18.709   7.498
    2AU     AUC  529  40.620  18.650   7.465
    2AU     AUC  530  41.010  18.662   7.477
    2AU     AUC  531  40.674  18.905   8.060
    2AU     AUC  532  40.688  19.266   8.094
    2AU     AUC  533  40.713  19.626   8.041
    2AU     AUC  534  40.710  18.928   6.945
    2AU     AUC  535  40.701  19.240   6.887
    2AU     AUC  536  40.703  19.560   6.918
    2AU     AUC  537  40.959  19.022   7.986
    2AU     AUC  538  40.985  19.409   7.988
    2AU     AUC  539  41.028  19.083   7.016
    2AU     AUC  540  41.030  19.432   7.030
    2AU     AUC  541  40.390  19.144   8.017
    2AU     AUC  542  40.412  19.515   7.984
    2AU     AUC  543  40.378  19.080   7.043
    2AU     AUC  544  40.362  19.388   6.997
    2AU     AUC  545  41.225  19.539   7.328
    2AU     AUC  546  41.155  19.521   7.690
    2AU     AUC  547  40.191  19.562   7.338
    2AU     AUC  548  40.224  19.629   7.684
    2AU     AUC  549  41.185  18.943   7.343
    2AU     AUC  550  41.141  18.913   7.671
    2AU     AUC  551  40.147  18.967   7.369
    2AU     AUC  552  40.213  19.021   7.717
    2AU     AUC  553  40.544  19.801   7.747
    2AU     AUC  554  40.874  19.746   7.761
    2AU     AUC  555  40.485  18.796   7.788
    2AU     AUC  556  40.809  18.734   7.762
    2AU     AUC  557  40.510  19.688   7.182
    2AU     AUC  558  40.896  19.710   7.160
    2AU     AUC  559  40.468  18.780   7.208
    2AU     AUC  560  40.860  18.806   7.208
    2AU    AUSL  561  41.232  19.152   8.231
    2AU    AUSL  562  40.967  18.723   8.153
    2AU     AUL  563  41.273  18.750   8.330
    2AU       S  564  41.312  18.369   8.083
    2AU     LIG  565  41.203  18.234   8.477
    2AU     LIG  566  41.394  17.920   8.754
    2AU     LIG  567  41.653  17.665   9.047
    2AU     LIG  568  41.969  17.677   9.392
    2AU     LIG  569  42.246  17.494   9.726
    2AU       S  570  41.462  19.161   8.378
    2AU     LIG  571  41.342  19.145   8.837
    2AU     LIG  572  41.461  18.964   9.272
    2AU     LIG  573  41.752  18.891   9.662
    2AU     LIG  574  42.145  18.900   9.927
    2AU     LIG  575  42.448  18.944  10.282
    2AU    AUSL  576  40.822  19.057   8.402
    2AU    AUSL  577  40.564  19.452   8.433
    2AU     AUL  578  40.753  19.348   8.731
    2AU       S  579  40.957  18.975   8.569
    2AU     LIG  580  40.848  18.916   8.978
    2AU     LIG  581  41.021  18.670   9.313
    2AU     LIG  582  41.323  18.606   9.649
    2AU     LIG  583  41.483  18.616  10.083
    2AU     LIG  584  41.427  18.661  10.551
    2AU       S  585  40.337  19.181   8.636
    2AU     LIG  586  40.370  19.138   9.116
    2AU     LIG  587  40.087  19.085   9.491
    2AU     LIG  588  39.875  19.126   9.914
    2AU     LIG  589  39.716  19.400  10.280
    2AU     LIG  590  39.681  19.637  10.695
    2AU    AUSL  591  40.883  19.434   8.152
    2AU    AUSL  592  41.323  19.565   8.115
    2AU     AUL  593  41.118  19.456   8.444
    2AU       S  594  40.794  19.810   8.610
    2AU     LIG  595  41.171  19.733   8.882
    2AU     LIG  596  41.320  19.848   9.332
    2AU     LIG  597  41.303  19.963   9.818
    2AU     LIG  598  41.388  19.908  10.300
    2AU     LIG  599  41.516  19.937  10.763
    2AU       S  600  41.475  19.730   8.297
    2AU     LIG  601  41.916  19.759   8.241
    2AU     LIG  602  42.295  19.935   8.409
    2AU     LIG  603  42.510  20.145   8.754
    2AU     LIG  604  42.737  20.382   9.081
    2AU     LIG  605  43.033  20.716   9.229
    2AU    AUSL  606  41.215  19.298   6.882
    2AU    AUSL  607  41.110  19.736   6.824
    2AU     AUL  608  41.375  19.562   6.618
    2AU       S  609  41.059  19.444   6.327
    2AU     LIG  610  41.491  19.395   6.038
    2AU     LIG  611  41.661  19.091   5.727
    2AU     LIG  612  41.792  18.917   5.313
    2AU     LIG  613  42.139  18.929   4.986
    2AU     LIG  614  42.587  18.943   4.792
    2AU       S  615  41.455  19.984   6.836
    2AU     LIG  616  41.709  20.096   6.470
    2AU     LIG  617  41.977  20.194   6.107
    2AU     LIG  618  42.169  20.219   5.691
    2AU     LIG  619  42.360  20.358   5.294
    2AU     LIG  620  42.490  20.681   4.982
    2AU    AUSL  621  41.006  19.046   6.580
    2AU    AUSL  622  41.423  18.920   6.920
    2AU     AUL  623  41.389  19.090   6.648
    2AU       S  624  41.498  18.626   6.689
    2AU     LIG  625  41.632  18.247   6.395
    2AU     LIG  626  41.858  17.837   6.359
    2AU     LIG  627  42.148  17.575   6.110
    2AU     LIG  628  42.397  17.560   5.705
    2AU     LIG  629  42.615  17.596   5.275
    2AU       S  630  41.124  19.249   6.304
    2AU     LIG  631  41.209  18.945   5.964
    2AU     LIG  632  41.311  18.778   5.508
    2AU     LIG  633  41.391  18.688   5.044
    2AU     LIG  634  41.475  18.471   4.623
    2AU     LIG  635  41.494  18.473   4.144
    2AU    AUSL  636  40.817  19.420   6.748
    2AU    AUSL  637  40.585  19.034   6.703
    2AU     AUL  638  40.721  19.079   6.430
    2AU       S  639  40.263  19.092   6.298
    2AU     LIG  640  40.342  18.792   6.014
    2AU     LIG  641  40.099  18.684   5.639
    2AU     LIG  642  39.839  18.644   5.238
    2AU     LIG  643  39.790  18.361   4.844
    2AU     LIG  644  39.850  18.205   4.394
    2AU       S  645  40.899  19.527   6.437
    2AU     LIG  646  40.847  19.367   5.905
    2AU     LIG  647  41.191  19.277   5.564
    2AU     LIG  648  41.404  19.216   5.131
    2AU     LIG  649  41.410  19.324   4.648
    2AU     LIG  650  41.477  19.517   4.204
    2AU    AUSL  651  40.159  19.405   8.254
    2AU    AUSL  652  40.469  19.751   8.131
    2AU     AUL  653  40.327  19.687   8.458
    2AU       S  654  40.160  19.303   8.691
    2AU     LIG  655  39.933  18.947   8.885
    2AU     LIG  656  39.679  18.841   9.275
    2AU     LIG  657  39.466  18.886   9.702
    2AU     LIG  658  39.141  18.990  10.041
    2AU     LIG  659  38.946  19.018  10.474
    2AU       S  660  40.071  20.008   8.221
    2AU     LIG  661  40.025  20.213   8.620
    2AU     LIG  662  39.835  20.415   9.001
    2AU     LIG  663  39.735  20.576   9.424
    2AU     LIG  664  39.530  20.690   9.823
    2AU     LIG  665  39.419  21.069  10.068
    2AU    AUSL  666  40.467  19.110   8.160
    2AU    AUSL  667  40.036  18.980   8.148
    2AU     AUL  668  39.963  19.211   8.286
    2AU       S  669  39.940  18.753   8.394
    2AU     LIG  670  39.504  18.711   8.267
    2AU     LIG  671  39.212  18.373   8.414
    2AU     LIG  672  38.927  18.004   8.567
    2AU     LIG  673  38.701  17.595   8.731
    2AU     LIG  674  38.360  17.361   8.996
    2AU       S  675  40.352  19.046   8.547
    2AU     LIG  676  40.391  18.706   8.862
    2AU     LIG  677  40.152  18.624   9.254
    2AU     LIG  678  39.930  18.619   9.680
    2AU     LIG  679  39.866  18.417  10.106
    2AU     LIG  680  39.781  18.356  10.570
    2AU    AUSL  681  40.177  19.173   6.779
    2AU    AUSL  682  40.364  18.800   6.987
    2AU     AUL  683  40.355  18.798   6.635
    2AU       S  684  40.036  19.071   6.434
    2AU     LIG  685  39.833  18.801   6.126
    2AU     LIG  686  39.625  18.864   5.703
    2AU     LIG  687  39.443  19.003   5.288
    2AU     LIG  688  39.139  19.156   4.943
    2AU     LIG  689  38.706  19.202   4.715
    2AU       S  690  39.940  18.674   6.783
    2AU     LIG  691  39.792  18.308   6.545
    2AU     LIG  692  39.461  18.052   6.302
    2AU     LIG  693  39.346  17.583   6.342
    2AU     LIG  694  39.139  17.316   6.034
    2AU     LIG  695  38.963  17.509   5.641
    2AU    AUSL  696  40.440  19.458   6.548
    2AU    AUSL  697  39.949  19.521   6.921
    2AU     AUL  698  40.081  19.500   6.594
    2AU       S  699  39.683  19.702   6.758
    2AU     LIG  700  39.293  19.780   6.509
    2AU     LIG  701  39.127  19.916   6.073
    2AU     LIG  702  39.000  20.071   5.658
    2AU     LIG  703  38.904  20.356   5.309
    2AU     LIG  704  38.657  20.655   5.054
    2AU       S  705  40.339  19.313   6.247
    2AU     LIG  706  40.049  19.193   5.857
    2AU     LIG  707  39.953  19.129   5.401
    2AU     LIG  708  39.798  19.181   4.960
    2AU     LIG  709  39.729  19.450   4.569
    2AU     LIG  710  39.943  19.550   4.152
    2AU    AUSL  711  41.473  19.772   7.520
    2AU    AUSL  712  41.462  19.582   7.096
    2AU     AUL  713  41.752  19.905   7.349
    2AU       S  714  41.554  19.748   6.987
    2AU     LIG  715  41.949  19.742   6.777
    2AU     LIG  716  42.252  19.957   6.483
    2AU     LIG  717  42.495  20.073   6.083
    2AU     LIG  718  42.678  20.326   5.711
    2AU     LIG  719  42.870  20.444   5.280
    2AU       S  720  41.860  19.652   7.728
    2AU     LIG  721  42.248  19.857   7.547
    2AU     LIG  722  42.479  20.210   7.327
    2AU     LIG  723  42.885  20.458   7.288
    2AU     LIG  724  43.271  20.562   7.030
    2AU     LIG  725  43.649  20.822   7.141
    2AU    AUSL  726  41.679  19.364   7.401
    2AU    AUSL  727  41.617  19.032   7.717
    2AU     AUL  728  41.978  19.142   7.732
    2AU       S  729  41.820  19.456   7.450
    2AU     LIG  730  42.288  19.346   7.383
    2AU     LIG  731  42.726  19.231   7.190
    2AU     LIG  732  43.053  19.453   6.910
    2AU     LIG  733  43.458  19.690   6.878
    2AU     LIG  734  43.872  19.928   6.833
    2AU       S  735  41.880  18.742   7.535
    2AU     LIG  736  42.334  18.650   7.722
    2AU     LIG  737  42.761  18.423   7.828
    2AU     LIG  738  43.213  18.220   7.858
    2AU     LIG  739  43.611  17.987   8.054
    2AU     LIG  740  44.045  18.167   8.250
    2AU    AUSL  741  41.380  19.392   7.730
    2AU    AUSL  742  41.123  19.779   7.779
    2AU     AUL  743  41.449  19.839   7.830
    2AU       S  744  41.441  20.018   8.250
    2AU     LIG  745  41.834  20.255   8.305
    2AU     LIG  746  42.254  20.449   8.397
    2AU     LIG  747  42.501  20.692   8.725
    2AU     LIG  748  42.664  21.057   8.984
    2AU     LIG  749  42.677  21.509   8.844
    2AU       S  750  41.717  19.477   7.874
    2AU     LIG  751  42.255  19.492   7.939
    2AU     LIG  752  42.649  19.544   7.709
    2AU     LIG  753  43.053  19.640   7.910
    2AU     LIG  754  43.525  19.732   8.048
    2AU     LIG  755  43.980  19.767   7.873
    2AU    AUSL  756  40.034  19.854   7.509
    2AU    AUSL  757  40.110  19.635   7.897
    2AU     AUL  758  39.813  19.966   7.751
    2AU       S  759  39.951  19.798   8.153
    2AU     LIG  760  39.839  19.719   8.596
    2AU     LIG  761  39.630  19.941   8.968
    2AU     LIG  762  39.403  20.196   9.312
    2AU     LIG  763  39.146  20.354   9.689
    2AU     LIG  764  38.714  20.399   9.888
    2AU       S  765  40.034  20.232   7.428
    2AU     LIG  766  39.576  20.367   7.621
    2AU     LIG  767  39.112  20.499   7.766
    2AU     LIG  768  38.807  20.817   7.522
    2AU     LIG  769  38.378  21.061   7.547
    2AU     LIG  770  37.925  20.863   7.485
    2AU    AUSL  771  39.992  19.447   7.335
    2AU    AUSL  772  40.109  19.902   7.087
    2AU     AUL  773  39.810  19.789   7.207
    2AU       S  774  39.581  19.254   6.985
    2AU     LIG  775  39.263  19.654   7.045
    2AU     LIG  776  38.973  20.011   6.844
    2AU     LIG  777  38.515  20.163   6.772
    2AU     LIG  778  38.083  20.260   6.944
    2AU     LIG  779  37.623  20.308   6.818
    2AU       S  780  39.943  20.149   6.915
    2AU     LIG  781  39.725  20.437   6.606
    2AU     LIG  782  39.703  20.740   6.260
    2AU     LIG  783  39.536  21.189   6.270
    2AU     LIG  784  39.375  21.631   6.250
    2AU     LIG  785  38.966  21.864   6.180
    2AU    AUSL  786  39.751  19.514   7.705
    2AU    AUSL  787  39.707  19.137   7.422
    2AU     AUL  788  39.585  19.443   7.418
    2AU       S  789  39.524  19.068   7.711
    2AU     LIG  790  39.205  19.037   7.378
    2AU     LIG  791  38.886  18.718   7.324
    2AU     LIG  792  38.469  18.663   7.143
    2AU     LIG  793  38.014  18.604   7.126
    2AU     LIG  794  37.634  18.349   7.153
    2AU       S  795  39.577  19.568   7.905
    2AU     LIG  796  39.111  19.724   7.961
    2AU     LIG  797  38.721  19.970   8.173
    2AU     LIG  798  38.358  20.295   8.226
    2AU     LIG  799  37.861  20.325   8.227
    2AU     LIG  800  37.392  20.476   8.348
    2AU    AUSL  801  41.408  18.674   7.543
    2AU    AUSL  802  41.220  18.937   7.863
    2AU     AUL  803  41.552  18.835   7.932
    2AU       S  804  41.720  18.566   7.565
    2AU     LIG  805  42.085  18.303   7.410
    2AU     LIG  806  42.354  17.935   7.424
    2AU     LIG  807  42.555  17.529   7.494
    2AU     LIG  808  42.986  17.396   7.532
    2AU     LIG  809  43.430  17.344   7.616
    2AU       S  810  41.435  18.397   7.957
    2AU     LIG  811  41.662  18.084   8.280
    2AU     LIG  812  41.887  17.828   8.605
    2AU     LIG  813  42.145  17.574   8.910
    2AU     LIG  814  42.464  17.564   9.254
    2AU     LIG  815  42.861  17.718   9.470
    2AU    AUSL  816  41.390  19.058   7.323
    2AU    AUSL  817  41.264  18.565   7.144
    2AU     AUL  818  41.539  18.714   7.165
    2AU       S  819  41.891  18.935   7.323
    2AU     LIG  820  42.321  18.743   7.226
    2AU     LIG  821  42.627  18.379   7.330
    2AU     LIG  822  43.080  18.258   7.237
    2AU     LIG  823  43.467  18.124   7.019
    2AU     LIG  824  43.813  18.109   6.722
    2AU       S  825  41.456  18.394   6.830
    2AU     LIG  826  41.451  17.928   6.803
    2AU     LIG  827  41.589  17.497   6.645
    2AU     LIG  828  41.834  17.223   6.344
    2AU     LIG  829  42.191  17.054   6.094
    2AU     LIG  830  42.443  16.660   6.171
    2AU    AUSL  831  39.903  18.767   7.575
    2AU    AUSL  832  40.006  19.007   7.142
    2AU     AUL  833  39.661  18.839   7.303
    2AU       S  834  39.860  18.842   6.881
    2AU     LIG  835  39.440  18.635   6.734
    2AU     LIG  836  39.226  18.207   6.721
    2AU     LIG  837  38.839  17.948   6.687
    2AU     LIG  838  38.569  17.831   6.320
    2AU     LIG  839  38.269  17.747   5.976
    2AU       S  840  39.494  18.867   7.765
    2AU     LIG  841  39.349  18.505   7.616
    2AU     LIG  842  38.966  18.276   7.634
    2AU     LIG  843  38.522  18.281   7.484
    2AU     LIG  844  38.078  18.187   7.414
    2AU     LIG  845  37.709  17.957   7.502
    2AU    AUSL  846  39.994  19.162   7.763
    2AU    AUSL  847  40.250  18.773   7.831
    2AU     AUL  848  39.912  18.736   7.902
    2AU       S  849  39.962  18.510   8.291
    2AU     LIG  850  39.617  18.247   8.073
    2AU     LIG  851  39.216  17.985   8.084
    2AU     LIG  852  39.094  17.588   8.327
    2AU     LIG  853  38.978  17.188   8.543
    2AU     LIG  854  38.682  16.982   8.841
    2AU       S  855  39.605  19.089   7.898
    2AU     LIG  856  39.066  19.175   7.854
    2AU     LIG  857  38.620  19.060   7.613
    2AU     LIG  858  38.202  18.734   7.598
    2AU     LIG  859  37.728  18.530   7.637
    2AU     LIG  860  37.289  18.544   7.875
    2AU    AUSL  861  40.733  19.995   7.886
    2AU    AUSL  862  40.297  20.022   7.814
    2AU     AUL  863  40.540  20.077   8.178
    2AU       S  864  40.175  20.211   7.920
    2AU     LIG  865  39.949  20.511   8.176
    2AU     LIG  866  39.852  20.728   8.580
    2AU     LIG  867  39.637  21.089   8.805
    2AU     LIG  868  39.255  21.381   8.812
    2AU     LIG  869  38.763  21.391   8.771
    2AU       S  870  40.738  20.426   7.939
    2AU     LIG  871  40.974  20.477   8.318
    2AU     LIG  872  41.067  20.905   8.505
    2AU     LIG  873  40.861  21.310   8.673
    2AU     LIG  874  40.775  21.740   8.837
    2AU     LIG  875  40.686  22.029   9.176
    2AU    AUSL  876  40.566  20.223   7.538
    2AU    AUSL  877  40.860  20.148   7.172
    2AU     AUL  878  40.774  20.484   7.324
    2AU       S  879  40.580  20.449   7.755
    2AU     LIG  880  40.551  20.903   7.965
    2AU     LIG  881  40.782  21.280   8.173
    2AU     LIG  882  40.648  21.742   8.326
    2AU     LIG  883  40.561  22.235   8.315
    2AU     LIG  884  40.488  22.642   8.578
    2AU       S  885  40.624  20.351   6.913
    2AU     LIG  886  41.059  20.635   6.955
    2AU     LIG  887  41.428  20.985   6.914
    2AU     LIG  888  41.517  21.477   6.918
    2AU     LIG  889  41.320  21.915   6.828
    2AU     LIG  890  41.247  22.379   6.923
    2AU    AUSL  891  41.020  20.144   7.583
    2AU    AUSL  892  40.983  19.847   8.200
    2AU     AUL  893  41.080  20.110   7.963
    2AU       S  894  41.216  19.950   8.400
    2AU     LIG  895  41.533  20.091   8.731
    2AU     LIG  896  41.961  20.250   8.793
    2AU     LIG  897  42.218  20.461   9.074
    2AU     LIG  898  42.332  20.830   9.307
    2AU     LIG  899  42.156  21.160   9.595
    2AU       S  900  40.957  20.500   7.751
    2AU     LIG  901  41.065  20.871   7.990
    2AU     LIG  902  41.404  21.158   8.156
    2AU     LIG  903  41.599  21.619   8.176
    2AU     LIG  904  41.552  22.068   8.355
    2AU     LIG  905  41.555  22.556   8.413
    2AU    AUSL  906  40.635  18.567   7.916
    2AU    AUSL  907  41.046  18.550   7.745
    2AU     AUL  908  40.854  18.421   8.129
    2AU       S  909  40.607  18.058   7.983
    2AU     LIG  910  40.615  17.654   8.173
    2AU     LIG  911  40.348  17.281   8.209
    2AU     LIG  912  40.213  16.875   8.377
    2AU     LIG  913  40.508  16.599   8.603
    2AU     LIG  914  40.641  16.174   8.725
    2AU       S  915  41.196  18.319   7.802
    2AU     LIG  916  41.182  17.898   8.074
    2AU     LIG  917  41.465  17.606   8.353
    2AU     LIG  918  41.742  17.331   8.649
    2AU     LIG  919  42.121  17.072   8.759
    2AU     LIG  920  42.263  16.620   8.707
    2AU    AUSL  921  40.300  18.397   7.645
    2AU    AUSL  922  40.409  18.700   8.253
    2AU     AUL  923  40.310  18.428   8.003
    2AU       S  924  40.407  17.991   7.832
    2AU     LIG  925  40.416  17.507   7.720
    2AU     LIG  926  40.155  17.120   7.756
    2AU     LIG  927  39.936  16.746   7.958
    2AU     LIG  928  39.778  16.366   8.218
    2AU     LIG  929  39.867  15.931   8.413
    2AU       S  930  40.164  18.591   8.444
    2AU     LIG  931  39.723  18.347   8.667
    2AU     LIG  932  39.437  17.959   8.637
    2AU     LIG  933  39.194  17.651   8.880
    2AU     LIG  934  39.212  17.497   9.323
    2AU     LIG  935  39.409  17.458   9.755
    2AU    AUSL  936  40.736  18.290   7.591
    2AU    AUSL  937  40.479  18.431   7.245
    2AU     AUL  938  40.351  18.172   7.410
    2AU       S  939  40.713  18.134   7.127
    2AU     LIG  940  40.503  17.722   7.273
    2AU     LIG  941  40.260  17.308   7.149
    2AU     LIG  942  39.997  16.933   6.905
    2AU     LIG  943  40.003  16.435   6.733
    2AU     LIG  944  39.911  15.947   6.577
    2AU       S  945  40.729  18.106   7.726
    2AU     LIG  946  40.883  17.673   7.719
    2AU     LIG  947  40.788  17.220   7.927
    2AU     LIG  948  40.674  16.780   8.133
    2AU     LIG  949  40.816  16.315   8.257
    2AU     LIG  950  40.840  15.836   8.375
    2AU    AUSL  951  40.694  19.876   6.847
    2AU    AUSL  952  41.137  19.833   7.252
    2AU     AUL  953  41.001  20.058   6.873
    2AU       S  954  40.604  20.256   6.706
    2AU     LIG  955  41.014  20.411   6.508
    2AU     LIG  956  41.232  20.824   6.386
    2AU     LIG  957  41.202  21.141   6.005
    2AU     LIG  958  40.993  21.459   5.680
    2AU     LIG  959  40.850  21.896   5.509
    2AU       S  960  41.376  20.067   7.136
    2AU     LIG  961  41.858  20.229   6.945
    2AU     LIG  962  42.087  20.495   6.571
    2AU     LIG  963  42.425  20.881   6.479
    2AU     LIG  964  42.863  21.046   6.281
    2AU     LIG  965  42.938  21.444   6.003
    2AU    AUSL  966  40.498  19.915   7.251
    2AU    AUSL  967  40.391  19.586   6.952
    2AU     AUL  968  40.340  19.892   6.811
    2AU       S  969  40.410  20.281   7.072
    2AU     LIG  970  40.413  20.795   7.045
    2AU     LIG  971  40.497  21.251   6.858
    2AU     LIG  972  40.630  21.720   6.798
    2AU     LIG  973  40.636  22.158   6.567
    2AU     LIG  974  40.275  22.458   6.472
    2AU       S  975  39.897  19.927   6.673
    2AU     LIG  976  40.074  20.178   6.338
    2AU     LIG  977  39.935  20.394   5.934
    2AU     LIG  978  39.914  20.436   5.454
    2AU     LIG  979  39.680  20.527   5.050
    2AU     LIG  980  39.414  20.811   4.783
    2AU    AUSL  981  40.696  18.546   6.874
    2AU    AUSL  982  40.076  18.572   7.233
    2AU     AUL  983  40.328  18.414   6.939
    2AU       S  984  39.881  18.535   7.021
    2AU     LIG  985  39.481  18.345   7.149
    2AU     LIG  986  39.312  17.911   7.143
    2AU     LIG  987  39.188  17.565   6.841
    2AU     LIG  988  38.851  17.457   6.528
    2AU     LIG  989  38.597  17.307   6.160
    2AU       S  990  40.721  18.134   6.895
    2AU     LIG  991  40.453  17.741   6.772
    2AU     LIG  992  40.358  17.285   6.628
    2AU     LIG  993  40.303  16.829   6.507
    2AU     LIG  994  40.355  16.385   6.331
    2AU     LIG  995  40.315  16.217   5.881
    2AU    AUSL  996  40.876  18.578   7.303
    2AU    AUSL  997  40.977  18.862   6.962
    2AU     AUL  998  41.014  18.498   6.916
    2AU       S  999  40.951  18.146   7.205
    2AU     LIG 1000  40.951  17.689   7.019
    2AU     LIG 1001  40.754  17.242   6.960
    2AU     LIG 1002  40.742  16.761   6.796
    2AU     LIG 1003  40.824  16.286   6.637
    2AU     LIG 1004  40.890  15.788   6.630
    2AU       S 1005  41.257  18.633   6.561
    2AU     LIG 1006  41.121  18.189   6.506
    2AU     LIG 1007  41.340  17.809   6.304
    2AU     LIG 1008  41.614  17.538   6.008
    2AU     LIG 1009  41.920  17.336   5.706
    2AU     LIG 1010  42.168  17.322   5.296
    3AU     AUC 1011  22.807  44.779   7.495
    3AU     AUC 1012  23.102  44.776   7.332
    3AU     AUC 1013  23.060  44.761   7.668
    3AU     AUC 1014  22.536  44.775   7.328
    3AU     AUC 1015  22.541  44.817   7.673
    3AU     AUC 1016  22.645   0.056   7.494
    3AU     AUC 1017  22.992   0.042   7.490
    3AU     AUC 1018  22.613  44.513   7.489
    3AU     AUC 1019  22.967  44.502   7.498
    3AU     AUC 1020  22.802  44.598   7.759
    3AU     AUC 1021  22.799  44.966   7.753
    3AU     AUC 1022  22.808  44.620   7.225
    3AU     AUC 1023  22.842  44.935   7.227
    3AU     AUC 1024  23.439  44.769   7.186
    3AU     AUC 1025  23.422  44.746   7.523
    3AU     AUC 1026  23.350  44.727   7.873
    3AU     AUC 1027  22.221  44.790   7.161
    3AU     AUC 1028  22.199  44.824   7.522
    3AU     AUC 1029  22.250  44.859   7.856
    3AU     AUC 1030  22.497   0.383   7.465
    3AU     AUC 1031  22.851   0.399   7.445
    3AU     AUC 1032  23.175   0.330   7.485
    3AU     AUC 1033  22.408  44.233   7.480
    3AU     AUC 1034  22.738  44.169   7.451
    3AU     AUC 1035  23.126  44.171   7.475
    3AU     AUC 1036  22.778  44.417   8.051
    3AU     AUC 1037  22.797  44.776   8.093
    3AU     AUC 1038  22.830   0.137   8.046
    3AU     AUC 1039  22.839  44.456   6.938
    3AU     AUC 1040  22.834  44.769   6.886
    3AU     AUC 1041  22.843   0.089   6.924
    3AU     AUC 1042  23.065  44.529   7.985
    3AU     AUC 1043  23.099  44.916   7.994
    3AU     AUC 1044  23.157  44.605   7.018
    3AU     AUC 1045  23.166  44.953   7.039
    3AU     AUC 1046  22.499  44.659   8.005
    3AU     AUC 1047  22.529   0.033   7.979
    3AU     AUC 1048  22.509  44.612   7.035
    3AU     AUC 1049  22.498  44.923   6.992
    3AU     AUC 1050  23.357   0.052   7.340
    3AU     AUC 1051  23.277   0.028   7.701
    3AU     AUC 1052  22.324   0.093   7.329
    3AU     AUC 1053  22.352   0.154   7.675
    3AU     AUC 1054  23.306  44.455   7.347
    3AU     AUC 1055  23.252  44.417   7.675
    3AU     AUC 1056  22.269  44.497   7.354
    3AU     AUC 1057  22.327  44.543   7.701
    3AU     AUC 1058  22.673   0.320   7.750
    3AU     AUC 1059  23.002   0.257   7.771
    3AU     AUC 1060  22.596  44.314   7.775
    3AU     AUC 1061  22.917  44.244   7.754
    3AU     AUC 1062  22.648   0.216   7.184
    3AU     AUC 1063  23.034   0.230   7.172
    3AU     AUC 1064  22.593  44.306   7.197
    3AU     AUC 1065  22.983  44.328   7.204
    3AU    AUSL 1066  23.336  44.648   8.236
    3AU    AUSL 1067  23.061  44.229   8.150
    3AU     AUL 1068  23.357  44.252   8.316
    3AU       S 1069  23.394  43.827   8.122
    3AU     LIG 1070  23.151  43.568   8.405
    3AU     LIG 1071  23.288  43.203   8.666
    3AU     LIG 1072  23.460  43.064   9.067
    3AU     LIG 1073  23.800  42.852   9.274
    3AU     LIG 1074  23.889  42.721   9.711
    3AU       S 1075  23.586  44.643   8.436
    3AU     LIG 1076  23.561  44.784   8.890
    3AU     LIG 1077  23.618  44.576   9.317
    3AU     LIG 1078  23.908  44.336   9.623
    3AU     LIG 1079  24.312  44.318   9.894
    3AU     LIG 1080  24.677  44.398  10.202
    3AU    AUSL 1081  22.924  44.557   8.402
    3AU    AUSL 1082  22.666  44.961   8.432
    3AU     AUL 1083  22.856  44.806   8.708
    3AU       S 1084  23.210  44.504   8.673
    3AU     LIG 1085  23.122  44.527   9.105
    3AU     LIG 1086  23.244  44.240   9.450
    3AU     LIG 1087  23.506  44.023   9.769
    3AU     LIG 1088  23.538  43.851  10.207
    3AU     LIG 1089  23.562  43.725  10.662
    3AU       S 1090  22.414  44.713   8.635
    3AU     LIG 1091  22.510  44.619   9.079
    3AU     LIG 1092  22.274  44.513   9.473
    3AU     LIG 1093  22.041  44.636   9.881
    3AU     LIG 1094  22.011  44.933  10.282
    3AU     LIG 1095  22.025   0.225  10.680
    3AU    AUSL 1096  22.994  44.938   8.160
    3AU    AUSL 1097  23.439   0.061   8.131
    3AU     AUL 1098  23.235  44.947   8.450
    3AU       S 1099  22.923   0.284   8.632
    3AU     LIG 1100  23.288   0.226   8.905
    3AU     LIG 1101  23.513   0.340   9.317
    3AU     LIG 1102  23.518   0.311   9.810
    3AU     LIG 1103  23.503   0.478  10.267
    3AU     LIG 1104  23.607   0.620  10.719
    3AU       S 1105  23.591   0.221   8.314
    3AU     LIG 1106  24.016   0.288   8.275
    3AU     LIG 1107  24.285   0.444   8.613
    3AU     LIG 1108  24.530   0.601   8.979
    3AU     LIG 1109  24.764   0.763   9.358
    3AU     LIG 1110  24.960   0.940   9.762
    3AU    AUSL 1111  23.351  44.819   6.894
    3AU    AUSL 1112  23.254   0.257   6.839
    3AU     AUL 1113  23.548   0.074   6.650
    3AU       S 1114  23.211   0.008   6.359
    3AU     LIG 1115  23.574  44.967   6.001
    3AU     LIG 1116  23.767  44.649   5.718
    3AU     LIG 1117  23.923  44.365   5.378
    3AU     LIG 1118  24.206  44.161   5.054
    3AU     LIG 1119  24.602  44.192   4.791
    3AU       S 1120  23.586   0.528   6.829
    3AU     LIG 1121  23.671   0.880   6.553
    3AU     LIG 1122  23.897   0.907   6.168
    3AU     LIG 1123  24.268   1.082   5.962
    3AU     LIG 1124  24.344   1.307   5.550
    3AU     LIG 1125  24.242   1.533   5.148
    3AU    AUSL 1126  23.142  44.579   6.581
    3AU    AUSL 1127  23.555  44.438   6.925
    3AU     AUL 1128  23.518  44.601   6.653
    3AU       S 1129  23.639  44.139   6.692
    3AU     LIG 1130  23.788  43.757   6.397
    3AU     LIG 1131  24.117  43.588   6.094
    3AU     LIG 1132  24.482  43.342   5.902
    3AU     LIG 1133  24.789  43.295   5.552
    3AU     LIG 1134  24.932  43.282   5.107
    3AU       S 1135  23.264  44.818   6.336
    3AU     LIG 1136  23.376  44.468   6.062
    3AU     LIG 1137  23.451  44.255   5.620
    3AU     LIG 1138  23.546  44.075   5.181
    3AU     LIG 1139  23.505  43.952   4.725
    3AU     LIG 1140  23.569  43.954   4.259
    3AU    AUSL 1141  22.954  44.948   6.758
    3AU    AUSL 1142  22.717  44.566   6.693
    3AU     AUL 1143  22.865  44.616   6.426
    3AU       S 1144  22.407  44.633   6.291
    3AU     LIG 1145  22.452  44.290   6.052
    3AU     LIG 1146  22.235  44.163   5.666
    3AU     LIG 1147  22.006  44.089   5.253
    3AU     LIG 1148  21.909  43.800   4.874
    3AU     LIG 1149  21.896  43.740   4.399
    3AU       S 1150  23.042   0.065   6.458
    3AU     LIG 1151  22.932  44.871   5.978
    3AU     LIG 1152  23.254  44.745   5.639
    3AU     LIG 1153  23.484  44.624   5.234
    3AU     LIG 1154  23.504  44.747   4.758
    3AU     LIG 1155  23.584   0.049   4.385
    3AU    AUSL 1156  22.265  44.924   8.238
    3AU    AUSL 1157  22.588   0.267   8.131
    3AU     AUL 1158  22.439   0.201   8.455
    3AU       S 1159  22.240  44.828   8.682
    3AU     LIG 1160  21.989  44.704   9.058
    3AU     LIG 1161  21.775  44.439   9.399
    3AU     LIG 1162  21.612  44.333   9.829
    3AU     LIG 1163  21.271  44.469  10.111
    3AU     LIG 1164  20.901  44.642  10.342
    3AU       S 1165  22.194   0.526   8.216
    3AU     LIG 1166  22.152   0.711   8.632
    3AU     LIG 1167  21.991   0.927   9.037
    3AU     LIG 1168  21.734   1.107   9.388
    3AU     LIG 1169  21.563   1.176   9.821
    3AU     LIG 1170  21.607   1.490  10.177
    3AU    AUSL 1171  22.575  44.626   8.153
    3AU    AUSL 1172  22.145  44.500   8.129
    3AU     AUL 1173  22.069  44.722   8.266
    3AU       S 1174  22.037  44.258   8.374
    3AU     LIG 1175  21.636  43.975   8.481
    3AU     LIG 1176  21.396  43.583   8.528
    3AU     LIG 1177  21.005  43.565   8.766
    3AU     LIG 1178  20.562  43.595   8.853
    3AU     LIG 1179  20.220  43.558   9.108
    3AU       S 1180  22.440  44.559   8.540
    3AU     LIG 1181  22.188  44.280   8.860
    3AU     LIG 1182  22.071  44.046   9.251
    3AU     LIG 1183  22.057  44.108   9.719
    3AU     LIG 1184  21.985  44.096  10.189
    3AU     LIG 1185  21.832  43.815  10.566
    3AU    AUSL 1186  22.313  44.715   6.774
    3AU    AUSL 1187  22.496  44.332   6.977
    3AU     AUL 1188  22.479  44.336   6.628
    3AU       S 1189  22.169  44.618   6.428
    3AU     LIG 1190  21.948  44.328   6.164
    3AU     LIG 1191  21.758  44.337   5.729
    3AU     LIG 1192  21.594  44.407   5.288
    3AU     LIG 1193  21.244  44.328   4.973
    3AU     LIG 1194  20.883  44.439   4.673
    3AU       S 1195  22.062  44.189   6.766
    3AU     LIG 1196  21.827  43.799   6.604
    3AU     LIG 1197  21.900  43.392   6.353
    3AU     LIG 1198  21.772  42.972   6.179
    3AU     LIG 1199  21.598  42.758   5.802
    3AU     LIG 1200  21.324  42.602   5.441
    3AU    AUSL 1201  22.585  44.994   6.545
    3AU    AUSL 1202  22.089   0.071   6.908
    3AU     AUL 1203  22.227   0.045   6.586
    3AU       S 1204  21.827   0.247   6.749
    3AU     LIG 1205  21.579   0.540   6.480
    3AU     LIG 1206  21.491   0.637   6.027
    3AU     LIG 1207  21.052   0.721   5.858
    3AU     LIG 1208  20.728   0.914   5.576
    3AU     LIG 1209  20.406   1.228   5.412
    3AU       S 1210  22.476  44.844   6.243
    3AU     LIG 1211  22.176  44.690   5.860
    3AU     LIG 1212  22.078  44.590   5.413
    3AU     LIG 1213  22.001  44.576   4.955
    3AU     LIG 1214  22.079  44.825   4.543
    3AU     LIG 1215  21.991   0.196   4.258
    3AU    AUSL 1216  23.606   0.277   7.542
    3AU    AUSL 1217  23.601   0.101   7.110
    3AU     AUL 1218  23.885   0.364   7.327
    3AU       S 1219  23.686   0.423   6.930
    3AU     LIG 1220  24.003   0.485   6.552
    3AU     LIG 1221  24.307   0.597   6.195
    3AU     LIG 1222  24.616   0.706   5.846
    3AU     LIG 1223  24.961   0.798   5.535
    3AU     LIG 1224  25.226   0.988   5.180
    3AU       S 1225  23.983   0.156   7.739
    3AU     LIG 1226  24.390   0.375   7.606
    3AU     LIG 1227  24.838   0.528   7.477
    3AU     LIG 1228  25.220   0.799   7.366
    3AU     LIG 1229  25.614   1.049   7.486
    3AU     LIG 1230  25.952   1.355   7.263
    3AU    AUSL 1231  23.799  44.862   7.416
    3AU    AUSL 1232  23.727  44.528   7.729
    3AU     AUL 1233  24.092  44.628   7.760
    3AU       S 1234  23.926  44.933   7.478
    3AU     LIG 1235  24.398  44.888   7.455
    3AU     LIG 1236  24.845   0.032   7.320
    3AU     LIG 1237  25.285   0.230   7.264
    3AU     LIG 1238  25.690   0.158   7.022
    3AU     LIG 1239  26.096   0.403   6.987
    3AU       S 1240  23.982  44.230   7.563
    3AU     LIG 1241  24.440  44.156   7.619
    3AU     LIG 1242  24.674  43.788   7.814
    3AU     LIG 1243  25.134  43.742   7.935
    3AU     LIG 1244  25.565  43.821   8.095
    3AU     LIG 1245  25.964  43.709   8.280
    3AU    AUSL 1246  23.499  44.894   7.743
    3AU    AUSL 1247  23.251   0.286   7.796
    3AU     AUL 1248  23.571   0.336   7.857
    3AU       S 1249  23.560   0.531   8.271
    3AU     LIG 1250  23.945   0.783   8.417
    3AU     LIG 1251  24.332   0.966   8.650
    3AU     LIG 1252  24.376   1.418   8.814
    3AU     LIG 1253  24.707   1.786   8.767
    3AU     LIG 1254  24.911   2.164   8.982
    3AU       S 1255  23.836  44.972   7.893
    3AU     LIG 1256  24.362  44.992   7.986
    3AU     LIG 1257  24.806   0.105   7.821
    3AU     LIG 1258  25.301   0.079   7.763
    3AU     LIG 1259  25.750   0.163   7.952
    3AU     LIG 1260  26.017   0.530   8.186
    3AU    AUSL 1261  22.178   0.382   7.497
    3AU    AUSL 1262  22.236   0.159   7.883
    3AU     AUL 1263  21.948   0.502   7.727
    3AU       S 1264  22.084   0.330   8.131
    3AU     LIG 1265  21.932   0.235   8.548
    3AU     LIG 1266  21.723   0.516   8.861
    3AU     LIG 1267  21.448   0.830   9.072
    3AU     LIG 1268  21.187   0.997   9.441
    3AU     LIG 1269  20.744   0.973   9.656
    3AU       S 1270  22.201   0.775   7.429
    3AU     LIG 1271  21.862   1.015   7.680
    3AU     LIG 1272  21.472   1.324   7.696
    3AU     LIG 1273  21.009   1.501   7.777
    3AU     LIG 1274  20.580   1.754   7.799
    3AU     LIG 1275  20.244   1.823   7.466
    3AU    AUSL 1276  22.127  44.978   7.318
    3AU    AUSL 1277  22.257   0.448   7.078
    3AU     AUL 1278  21.958   0.342   7.195
    3AU       S 1279  21.743  44.774   6.943
    3AU     LIG 1280  21.344   0.012   6.999
    3AU     LIG 1281  20.920   0.243   6.948
    3AU     LIG 1282  20.623   0.621   6.906
    3AU     LIG 1283  20.154   0.661   6.804
    3AU     LIG 1284  19.725   0.570   6.636
    3AU       S 1285  22.098   0.701   6.905
    3AU     LIG 1286  21.799   0.994   6.657
    3AU     LIG 1287  21.820   1.283   6.260
    3AU     LIG 1288  21.530   1.621   6.076
    3AU     LIG 1289  21.090   1.846   6.136
    3AU     LIG 1290  20.970   2.287   6.237
    3AU    AUSL 1291  21.877   0.048   7.681
    3AU    AUSL 1292  21.829  44.676   7.394
    3AU     AUL 1293  21.725  44.985   7.374
    3AU       S 1294  21.620  44.609   7.657
    3AU     LIG 1295  21.270  44.456   7.329
    3AU     LIG 1296  20.801  44.313   7.198
    3AU     LIG 1297  20.303  44.297   7.272
    3AU     LIG 1298  19.810  44.228   7.187
    3AU     LIG 1299  19.343  44.121   7.126
    3AU       S 1300  21.748   0.076   7.877
    3AU     LIG 1301  21.311   0.055   8.005
    3AU     LIG 1302  20.973   0.370   8.002
    3AU     LIG 1303  20.515   0.403   8.033
    3AU     LIG 1304  20.110   0.636   8.199
    3AU     LIG 1305  19.660   0.774   8.322
    3AU    AUSL 1306  23.516  44.174   7.548
    3AU    AUSL 1307  23.324  44.440   7.864
    3AU     AUL 1308  23.660  44.338   7.938
    3AU       S 1309  23.811  44.049   7.577
    3AU     LIG 1310  24.162  43.740   7.674
    3AU     LIG 1311  24.424  43.350   7.608
    3AU     LIG 1312  24.707  42.959   7.528
    3AU     LIG 1313  25.017  42.783   7.187
    3AU     LIG 1314  25.516  42.781   7.214
    3AU       S 1315  23.531  43.909   7.987
    3AU     LIG 1316  23.835  43.959   8.363
    3AU     LIG 1317  24.100  43.634   8.650
    3AU     LIG 1318  24.371  43.263   8.825
    3AU     LIG 1319  24.759  43.096   9.088
    3AU     LIG 1320  24.999  43.174   9.488
    3AU    AUSL 1321  23.508  44.560   7.332
    3AU    AUSL 1322  23.385  44.083   7.139
    3AU     AUL 1323  23.657  44.218   7.172
    3AU       S 1324  24.010  44.416   7.352
    3AU     LIG 1325  24.202  43.979   7.198
    3AU     LIG 1326  24.615  43.740   7.291
    3AU     LIG 1327  25.088  43.698   7.168
    3AU     LIG 1328  25.488  43.625   6.941
    3AU     LIG 1329  25.967  43.638   6.783
    3AU       S 1330  23.581  43.913   6.821
    3AU     LIG 1331  23.634  43.476   6.834
    3AU     LIG 1332  23.936  43.154   6.869
    3AU     LIG 1333  24.062  42.826   6.629
    3AU     LIG 1334  24.463  42.720   6.378
    3AU     LIG 1335  24.898  42.557   6.274
    3AU    AUSL 1336  22.011  44.298   7.549
    3AU    AUSL 1337  22.135  44.536   7.126
    3AU     AUL 1338  21.783  44.379   7.264
    3AU       S 1339  22.011  44.363   6.858
    3AU     LIG 1340  21.554  44.242   6.813
    3AU     LIG 1341  21.286  43.870   6.629
    3AU     LIG 1342  21.008  43.760   6.242
    3AU     LIG 1343  20.661  43.590   5.929
    3AU     LIG 1344  20.214  43.434   5.808
    3AU       S 1345  21.601  44.374   7.709
    3AU     LIG 1346  21.445  43.991   7.526
    3AU     LIG 1347  21.041  43.841   7.332
    3AU     LIG 1348  20.571  43.834   7.406
    3AU     LIG 1349  20.281  43.462   7.415
    3AU     LIG 1350  19.855  43.368   7.613
    3AU    AUSL 1351  22.104  44.687   7.747
    3AU    AUSL 1352  22.356  44.292   7.810
    3AU     AUL 1353  22.014  44.267   7.882
    3AU       S 1354  22.066  44.041   8.274
    3AU     LIG 1355  21.770  43.778   8.007
    3AU     LIG 1356  21.366  43.514   8.003
    3AU     LIG 1357  21.052  43.221   8.217
    3AU     LIG 1358  20.931  42.788   8.431
    3AU     LIG 1359  20.488  42.726   8.666
    3AU       S 1360  21.694  44.606   7.855
    3AU     LIG 1361  21.153  44.579   7.837
    3AU     LIG 1362  20.703  44.470   7.672
    3AU     LIG 1363  20.293  44.240   7.783
    3AU     LIG 1364  19.819  44.227   7.814
    3AU     LIG 1365  19.383  44.181   7.998
    3AU    AUSL 1366  22.862   0.507   7.895
    3AU    AUSL 1367  22.428   0.548   7.814
    3AU     AUL 1368  22.661   0.593   8.177
    3AU       S 1369  22.291   0.759   7.936
    3AU     LIG 1370  21.937   0.950   8.201
    3AU     LIG 1371  21.710   1.005   8.617
    3AU     LIG 1372  21.550   1.323   8.929
    3AU     LIG 1373  21.203   1.636   8.950
    3AU     LIG 1374  21.051   2.064   8.830
    3AU       S 1375  22.862   0.947   7.950
    3AU     LIG 1376  23.116   1.032   8.303
    3AU     LIG 1377  23.298   1.403   8.555
    3AU     LIG 1378  23.373   1.759   8.868
    3AU     LIG 1379  23.286   2.202   9.002
    3AU     LIG 1380  22.949   2.561   9.029
    3AU    AUSL 1381  22.710   0.745   7.547
    3AU    AUSL 1382  23.006   0.668   7.191
    3AU     AUL 1383  22.955   1.004   7.329
    3AU       S 1384  22.712   0.951   7.733
    3AU     LIG 1385  22.580   1.379   7.879
    3AU     LIG 1386  22.703   1.765   8.141
    3AU     LIG 1387  22.686   2.218   8.305
    3AU     LIG 1388  22.704   2.712   8.366
    3AU     LIG 1389  22.610   2.976   8.733
    3AU       S 1390  22.761   0.891   6.931
    3AU     LIG 1391  23.053   1.348   6.968
    3AU     LIG 1392  23.467   1.640   7.020
    3AU     LIG 1393  23.582   2.068   6.877
    3AU     LIG 1394  23.801   2.486   6.784
    3AU     LIG 1395  23.854   2.973   6.675
    3AU    AUSL 1396  23.160   0.657   7.604
    3AU    AUSL 1397  23.100   0.349   8.215
    3AU     AUL 1398  23.200   0.618   7.987
    3AU       S 1399  23.343   0.440   8.423
    3AU     LIG 1400  23.720   0.452   8.748
    3AU     LIG 1401  24.012   0.714   8.973
    3AU     LIG 1402  24.291   0.994   9.208
    3AU     LIG 1403  24.452   1.018   9.672
    3AU     LIG 1404  24.487   1.293  10.054
    3AU       S 1405  23.083   1.010   7.774
    3AU     LIG 1406  23.080   1.429   7.957
    3AU     LIG 1407  23.338   1.801   7.943
    3AU     LIG 1408  23.489   2.209   8.115
    3AU     LIG 1409  23.771   2.585   8.224
    3AU     LIG 1410  23.737   3.083   8.315
    3AU    AUSL 1411  22.737  44.078   7.899
    3AU    AUSL 1412  23.158  44.047   7.753
    3AU     AUL 1413  22.946  43.933   8.121
    3AU       S 1414  22.696  43.581   7.966
    3AU     LIG 1415  22.587  43.208   8.200
    3AU     LIG 1416  22.474  42.839   8.384
    3AU     LIG 1417  22.760  42.568   8.568
    3AU     LIG 1418  22.725  42.136   8.711
    3AU     LIG 1419  22.660  41.905   9.128
    3AU       S 1420  23.313  43.803   7.815
    3AU     LIG 1421  23.412  43.322   8.047
    3AU     LIG 1422  23.644  42.958   8.357
    3AU     LIG 1423  24.105  42.766   8.587
    3AU     LIG 1424  24.518  42.764   8.774
    3AU     LIG 1425  24.899  42.516   8.853
    3AU    AUSL 1426  22.413  43.918   7.618
    3AU    AUSL 1427  22.512  44.216   8.234
    3AU     AUL 1428  22.397  43.948   7.971
    3AU       S 1429  22.534  43.526   7.811
    3AU     LIG 1430  22.181  43.454   8.005
    3AU     LIG 1431  22.141  42.998   7.999
    3AU     LIG 1432  22.078  42.588   8.166
    3AU     LIG 1433  22.029  42.094   8.170
    3AU     LIG 1434  21.944  41.697   8.441
    3AU       S 1435  22.321  44.104   8.414
    3AU     LIG 1436  22.090  43.747   8.654
    3AU     LIG 1437  21.744  43.719   8.923
    3AU     LIG 1438  21.708  43.459   9.264
    3AU     LIG 1439  21.741  43.126   9.562
    3AU     LIG 1440  21.449  42.958   9.882
    3AU    AUSL 1441  22.849  43.804   7.573
    3AU    AUSL 1442  22.602  43.950   7.223
    3AU     AUL 1443  22.472  43.691   7.386
    3AU       S 1444  22.833  43.659   7.101
    3AU     LIG 1445  22.499  43.291   7.085
    3AU     LIG 1446  22.083  42.992   7.053
    3AU     LIG 1447  21.835  42.597   6.881
    3AU     LIG 1448  21.829  42.158   6.673
    3AU     LIG 1449  21.870  41.683   6.695
    3AU       S 1450  22.847  43.612   7.711
    3AU     LIG 1451  22.952  43.158   7.842
    3AU     LIG 1452  22.790  42.726   7.990
    3AU     LIG 1453  22.911  42.249   7.984
    3AU     LIG 1454  23.241  41.912   8.029
    3AU     LIG 1455  23.455  41.571   8.278
    3AU    AUSL 1456  22.841   0.409   6.856
    3AU    AUSL 1457  23.278   0.349   7.268
    3AU     AUL 1458  23.144   0.588   6.902
    3AU       S 1459  22.761   0.794   6.725
    3AU     LIG 1460  23.148   1.021   6.595
    3AU     LIG 1461  23.085   1.449   6.411
    3AU     LIG 1462  23.204   1.657   6.002
    3AU     LIG 1463  23.034   1.993   5.707
    3AU     LIG 1464  22.650   2.294   5.690
    3AU       S 1465  23.517   0.615   7.178
    3AU     LIG 1466  23.965   0.835   6.974
    3AU     LIG 1467  24.239   0.953   6.575
    3AU     LIG 1468  24.451   1.357   6.419
    3AU     LIG 1469  24.727   1.668   6.177
    3AU     LIG 1470  24.896   2.103   6.122
    3AU    AUSL 1471  22.639   0.440   7.258
    3AU    AUSL 1472  22.532   0.121   6.949
    3AU     AUL 1473  22.493   0.430   6.813
    3AU       S 1474  22.566   0.814   7.085
    3AU     LIG 1475  22.562   1.304   7.169
    3AU     LIG 1476  22.652   1.755   7.001
    3AU     LIG 1477  22.704   2.199   6.800
    3AU     LIG 1478  22.676   2.687   6.679
    3AU     LIG 1479  22.623   3.014   6.321
    3AU       S 1480  22.062   0.481   6.652
    3AU     LIG 1481  21.982   0.749   6.246
    3AU     LIG 1482  21.850   0.972   5.840
    3AU     LIG 1483  21.967   1.090   5.389
    3AU     LIG 1484  21.848   1.393   5.050
    3AU     LIG 1485  21.488   1.632   4.855
    3AU    AUSL 1486  22.825  44.077   6.860
    3AU    AUSL 1487  22.203  44.102   7.218
    3AU     AUL 1488  22.455  43.946   6.919
    3AU       S 1489  22.007  44.048   7.023
    3AU     LIG 1490  21.584  43.806   7.068
    3AU     LIG 1491  21.229  43.486   6.999
    3AU     LIG 1492  21.065  43.160   6.714
    3AU     LIG 1493  20.929  42.761   6.514
    3AU     LIG 1494  20.748  42.564   6.146
    3AU       S 1495  22.854  43.670   6.877
    3AU     LIG 1496  22.936  43.246   6.764
    3AU     LIG 1497  22.677  42.937   6.519
    3AU     LIG 1498  22.598  42.511   6.317
    3AU     LIG 1499  22.673  42.098   6.078
    3AU     LIG 1500  22.967  41.914   5.767
    3AU    AUSL 1501  22.996  44.098   7.297
    3AU    AUSL 1502  23.106  44.388   6.959
    3AU     AUL 1503  23.143  44.030   6.907
    3AU       S 1504  23.062  43.673   7.185
    3AU     LIG 1505  22.979  43.221   7.317
    3AU     LIG 1506  23.071  42.761   7.232
    3AU     LIG 1507  22.944  42.362   6.954
    3AU     LIG 1508  23.247  41.971   6.836
    3AU     LIG 1509  23.392  41.535   6.633
    3AU       S 1510  23.390  44.148   6.551
    3AU     LIG 1511  23.273  43.654   6.503
    3AU     LIG 1512  23.289  43.226   6.223
    3AU     LIG 1513  23.546  42.880   5.942
    3AU     LIG 1514  23.884  42.840   5.562
    3AU     LIG 1515  23.937  42.895   5.078
    4AU     AUC 1516  15.339  14.177   7.497
    4AU     AUC 1517  15.638  14.173   7.333
    4AU     AUC 1518  15.595  14.162   7.670
    4AU     AUC 1519  15.065  14.171   7.329
    4AU     AUC 1520  15.073  14.217   7.674
    4AU     AUC 1521  15.174  14.453   7.493
    4AU     AUC 1522  15.523  14.440   7.489
    4AU     AUC 1523  15.144  13.911   7.494
    4AU     AUC 1524  15.501  13.903   7.504
    4AU     AUC 1525  15.335  14.002   7.763
    4AU     AUC 1526  15.330  14.368   7.750
    4AU     AUC 1527  15.344  14.016   7.229
    4AU     AUC 1528  15.376  14.329   7.229
    4AU     AUC 1529  15.977  14.167   7.188
    4AU     AUC 1530  15.958  14.149   7.523
    4AU     AUC 1531  15.886  14.132   7.876
    4AU     AUC 1532  14.755  14.181   7.160
    4AU     AUC 1533  14.728  14.220   7.521
    4AU     AUC 1534  14.782  14.260   7.855
    4AU     AUC 1535  15.021  14.778   7.460
    4AU     AUC 1536  15.378  14.796   7.440
    4AU     AUC 1537  15.702  14.730   7.480
    4AU     AUC 1538  14.940  13.633   7.486
    4AU     AUC 1539  15.272  13.570   7.459
    4AU     AUC 1540  15.661  13.576   7.484
    4AU     AUC 1541  15.310  13.826   8.058
    4AU     AUC 1542  15.329  14.182   8.094
    4AU     AUC 1543  15.360  14.541   8.043
    4AU     AUC 1544  15.379  13.848   6.944
    4AU     AUC 1545  15.373  14.157   6.888
    4AU     AUC 1546  15.379  14.476   6.922
    4AU     AUC 1547  15.602  13.931   7.990
    4AU     AUC 1548  15.632  14.318   7.994
    4AU     AUC 1549  15.696  13.995   7.024
    4AU     AUC 1550  15.703  14.345   7.039
    4AU     AUC 1551  15.029  14.065   8.008
    4AU     AUC 1552  15.061  14.437   7.978
    4AU     AUC 1553  15.048  14.003   7.033
    4AU     AUC 1554  15.034  14.309   6.990
    4AU     AUC 1555  15.888  14.453   7.338
    4AU     AUC 1556  15.809  14.432   7.700
    4AU     AUC 1557  14.853  14.485   7.326
    4AU     AUC 1558  14.879  14.552   7.673
    4AU     AUC 1559  15.843  13.854   7.352
    4AU     AUC 1560  15.790  13.825   7.679
    4AU     AUC 1561  14.803  13.893   7.354
    4AU     AUC 1562  14.860  13.943   7.704
    4AU     AUC 1563  15.202  14.720   7.745
    4AU     AUC 1564  15.530  14.658   7.767
    4AU     AUC 1565  15.126  13.721   7.780
    4AU     AUC 1566  15.455  13.653   7.763
    4AU     AUC 1567  15.179  14.607   7.182
    4AU     AUC 1568  15.565  14.626   7.168
    4AU     AUC 1569  15.129  13.702   7.202
    4AU     AUC 1570  15.518  13.723   7.213
    4AU    AUSL 1571  15.870  14.055   8.245
    4AU    AUSL 1572  15.604  13.636   8.161
    4AU     AUL 1573  15.913  13.659   8.320
    4AU       S 1574  15.916  13.242   8.122
    4AU     LIG 1575  15.889  12.987   8.472
    4AU     LIG 1576  15.946  12.651   8.756
    4AU     LIG 1577  16.275  12.441   8.978
    4AU     LIG 1578  16.600  12.292   9.252
    4AU     LIG 1579  16.706  12.243   9.699
    4AU       S 1580  16.109  14.055   8.460
    4AU     LIG 1581  16.016  14.129   8.909
    4AU     LIG 1582  16.164  14.036   9.346
    4AU     LIG 1583  16.420  13.804   9.676
    4AU     LIG 1584  16.767  13.751  10.000
    4AU     LIG 1585  17.175  13.836  10.225
    4AU    AUSL 1586  15.454  13.965   8.406
    4AU    AUSL 1587  15.204  14.373   8.431
    4AU     AUL 1588  15.385  14.232   8.719
    4AU       S 1589  15.673  13.881   8.640
    4AU     LIG 1590  15.506  13.842   9.042
    4AU     LIG 1591  15.755  13.711   9.414
    4AU     LIG 1592  15.991  13.535   9.784
    4AU     LIG 1593  16.079  13.314  10.203
    4AU     LIG 1594  15.977  13.116  10.636
    4AU       S 1595  14.953  14.113   8.633
    4AU     LIG 1596  15.030  14.095   9.107
    4AU     LIG 1597  14.751  14.065   9.488
    4AU     LIG 1598  14.526  14.064   9.902
    4AU     LIG 1599  14.382  14.357  10.251
    4AU     LIG 1600  14.335  14.687  10.594
    4AU    AUSL 1601  15.527  14.341   8.155
    4AU    AUSL 1602  15.969  14.466   8.129
    4AU     AUL 1603  15.759  14.354   8.450
    4AU       S 1604  15.456  14.701   8.633
    4AU     LIG 1605  15.838  14.611   8.889
    4AU     LIG 1606  16.096  14.719   9.280
    4AU     LIG 1607  16.056  14.887   9.743
    4AU     LIG 1608  15.996  15.026  10.206
    4AU     LIG 1609  15.937  15.009  10.683
    4AU       S 1610  16.121  14.615   8.302
    4AU     LIG 1611  16.505  14.483   8.455
    4AU     LIG 1612  16.776  14.655   8.802
    4AU     LIG 1613  17.039  14.992   9.030
    4AU     LIG 1614  17.278  15.366   9.219
    4AU     LIG 1615  17.654  15.629   9.349
    4AU    AUSL 1616  15.896  14.211   6.898
    4AU    AUSL 1617  15.790  14.645   6.829
    4AU     AUL 1618  16.105  14.452   6.649
    4AU       S 1619  15.752  14.405   6.373
    4AU     LIG 1620  16.100  14.392   6.008
    4AU     LIG 1621  16.288  14.072   5.731
    4AU     LIG 1622  16.436  13.813   5.375
    4AU     LIG 1623  16.800  13.693   5.095
    4AU     LIG 1624  17.138  13.828   4.793
    4AU       S 1625  16.111  14.903   6.817
    4AU     LIG 1626  16.291  15.052   6.444
    4AU     LIG 1627  16.524  15.294   6.124
    4AU     LIG 1628  16.750  15.545   5.797
    4AU     LIG 1629  16.862  15.724   5.374
    4AU     LIG 1630  16.747  16.017   5.017
    4AU    AUSL 1631  15.690  13.967   6.588
    4AU    AUSL 1632  16.087  13.823   6.931
    4AU     AUL 1633  16.064  13.982   6.659
    4AU       S 1634  16.160  13.510   6.698
    4AU     LIG 1635  16.291  13.100   6.428
    4AU     LIG 1636  16.521  12.699   6.334
    4AU     LIG 1637  16.782  12.431   6.041
    4AU     LIG 1638  17.056  12.487   5.661
    4AU     LIG 1639  17.493  12.627   5.555
    4AU       S 1640  15.811  14.211   6.347
    4AU     LIG 1641  15.893  13.881   6.054
    4AU     LIG 1642  15.964  13.694   5.603
    4AU     LIG 1643  16.024  13.600   5.133
    4AU     LIG 1644  16.020  13.479   4.664
    4AU     LIG 1645  16.043  13.516   4.182
    4AU    AUSL 1646  15.493  14.330   6.765
    4AU    AUSL 1647  15.263  13.946   6.689
    4AU     AUL 1648  15.418  13.998   6.432
    4AU       S 1649  14.974  14.003   6.272
    4AU     LIG 1650  14.815  13.674   5.994
    4AU     LIG 1651  14.735  13.499   5.573
    4AU     LIG 1652  14.565  13.391   5.162
    4AU     LIG 1653  14.507  13.191   4.749
    4AU     LIG 1654  14.257  13.264   4.379
    4AU       S 1655  15.583  14.450   6.454
    4AU     LIG 1656  15.480  14.259   5.986
    4AU     LIG 1657  15.782  14.177   5.642
    4AU     LIG 1658  16.014  14.118   5.241
    4AU     LIG 1659  15.994  14.290   4.786
    4AU     LIG 1660  16.061  14.533   4.375
    4AU    AUSL 1661  14.803  14.336   8.243
    4AU    AUSL 1662  15.116  14.673   8.126
    4AU     AUL 1663  14.977  14.616   8.456
    4AU       S 1664  14.792  14.237   8.679
    4AU     LIG 1665  14.548  13.973   8.948
    4AU     LIG 1666  14.307  13.856   9.334
    4AU     LIG 1667  14.106  13.781   9.741
    4AU     LIG 1668  13.705  13.865   9.958
    4AU     LIG 1669  13.429  13.919  10.328
    4AU       S 1670  14.721  14.933   8.207
    4AU     LIG 1671  14.703  15.059   8.636
    4AU     LIG 1672  14.693  15.463   8.902
    4AU     LIG 1673  14.577  15.639   9.341
    4AU     LIG 1674  14.413  15.731   9.797
    4AU     LIG 1675  14.142  15.849  10.180
    4AU    AUSL 1676  15.106  14.033   8.157
    4AU    AUSL 1677  14.673  13.917   8.135
    4AU     AUL 1678  14.599  14.147   8.269
    4AU       S 1679  14.565  13.691   8.388
    4AU     LIG 1680  14.119  13.632   8.242
    4AU     LIG 1681  13.831  13.282   8.405
    4AU     LIG 1682  13.579  12.916   8.597
    4AU     LIG 1683  13.318  12.558   8.792
    4AU     LIG 1684  12.957  12.393   9.040
    4AU       S 1685  14.979  13.973   8.535
    4AU     LIG 1686  14.968  13.658   8.866
    4AU     LIG 1687  14.760  13.603   9.262
    4AU     LIG 1688  14.592  13.587   9.698
    4AU     LIG 1689  14.524  13.382  10.125
    4AU     LIG 1690  14.495  13.241  10.579
    4AU    AUSL 1691  14.859  14.097   6.762
    4AU    AUSL 1692  15.037  13.727   6.982
    4AU     AUL 1693  15.027  13.719   6.628
    4AU       S 1694  14.734  14.001   6.407
    4AU     LIG 1695  14.377  13.851   6.206
    4AU     LIG 1696  14.303  13.683   5.783
    4AU     LIG 1697  14.152  13.674   5.335
    4AU     LIG 1698  13.773  13.724   5.039
    4AU     LIG 1699  13.558  14.039   4.748
    4AU       S 1700  14.607  13.595   6.763
    4AU     LIG 1701  14.318  13.283   6.573
    4AU     LIG 1702  14.096  12.878   6.487
    4AU     LIG 1703  13.903  12.568   6.179
    4AU     LIG 1704  13.684  12.296   5.850
    4AU     LIG 1705  13.745  12.013   5.466
    4AU    AUSL 1706  15.130  14.379   6.543
    4AU    AUSL 1707  14.625  14.440   6.902
    4AU     AUL 1708  14.770  14.424   6.579
    4AU       S 1709  14.375  14.635   6.722
    4AU     LIG 1710  14.098  14.876   6.453
    4AU     LIG 1711  14.021  14.968   6.002
    4AU     LIG 1712  13.698  14.940   5.658
    4AU     LIG 1713  13.352  15.133   5.387
    4AU     LIG 1714  13.211  15.518   5.136
    4AU       S 1715  15.037  14.235   6.246
    4AU     LIG 1716  14.686  14.162   5.894
    4AU     LIG 1717  14.572  13.990   5.464
    4AU     LIG 1718  14.531  14.109   5.005
    4AU     LIG 1719  14.565  14.441   4.643
    4AU     LIG 1720  14.590  14.689   4.227
    4AU    AUSL 1721  16.129  14.682   7.536
    4AU    AUSL 1722  16.134  14.505   7.111
    4AU     AUL 1723  16.415  14.788   7.355
    4AU       S 1724  16.211  14.782   6.959
    4AU     LIG 1725  16.588  14.730   6.714
    4AU     LIG 1726  16.748  14.837   6.284
    4AU     LIG 1727  16.980  15.105   5.974
    4AU     LIG 1728  17.165  15.306   5.591
    4AU     LIG 1729  17.559  15.373   5.359
    4AU       S 1730  16.525  14.551   7.748
    4AU     LIG 1731  16.990  14.567   7.591
    4AU     LIG 1732  17.454  14.748   7.524
    4AU     LIG 1733  17.758  15.135   7.423
    4AU     LIG 1734  18.089  15.492   7.565
    4AU     LIG 1735  18.446  15.767   7.704
    4AU    AUSL 1736  16.335  14.271   7.416
    4AU    AUSL 1737  16.267  13.938   7.730
    4AU     AUL 1738  16.644  14.052   7.743
    4AU       S 1739  16.452  14.344   7.466
    4AU     LIG 1740  16.853  14.221   7.248
    4AU     LIG 1741  17.321  14.355   7.187
    4AU     LIG 1742  17.777  14.510   7.063
    4AU     LIG 1743  18.152  14.815   6.916
    4AU     LIG 1744  18.497  15.175   6.871
    4AU       S 1745  16.513  13.661   7.544
    4AU     LIG 1746  16.924  13.618   7.720
    4AU     LIG 1747  17.200  13.264   7.704
    4AU     LIG 1748  17.642  13.164   7.652
    4AU     LIG 1749  18.004  13.346   7.884
    4AU     LIG 1750  18.219  13.149   8.229
    4AU    AUSL 1751  16.032  14.300   7.741
    4AU    AUSL 1752  15.779  14.688   7.794
    4AU     AUL 1753  16.110  14.742   7.845
    4AU       S 1754  16.087  14.912   8.271
    4AU     LIG 1755  16.511  14.964   8.277
    4AU     LIG 1756  16.728  15.132   8.625
    4AU     LIG 1757  16.916  15.465   8.848
    4AU     LIG 1758  17.273  15.739   8.857
    4AU     LIG 1759  17.478  16.052   9.090
    4AU       S 1760  16.367  14.373   7.898
    4AU     LIG 1761  16.858  14.370   8.064
    4AU     LIG 1762  17.329  14.426   7.948
    4AU     LIG 1763  17.754  14.627   7.981
    4AU     LIG 1764  18.197  14.710   8.169
    4AU     LIG 1765  18.547  14.966   8.135
    4AU    AUSL 1766  14.687  14.783   7.496
    4AU    AUSL 1767  14.766  14.556   7.878
    4AU     AUL 1768  14.466  14.889   7.751
    4AU       S 1769  14.611  14.740   8.155
    4AU     LIG 1770  14.433  14.576   8.538
    4AU     LIG 1771  14.060  14.561   8.849
    4AU     LIG 1772  13.793  14.843   9.108
    4AU     LIG 1773  13.512  15.080   9.408
    4AU     LIG 1774  13.224  15.189   9.773
    4AU       S 1775  14.682  15.139   7.415
    4AU     LIG 1776  14.171  15.072   7.393
    4AU     LIG 1777  13.694  15.226   7.504
    4AU     LIG 1778  13.301  15.526   7.589
    4AU     LIG 1779  12.979  15.877   7.684
    4AU     LIG 1780  12.678  16.149   7.511
    4AU    AUSL 1781  14.650  14.377   7.320
    4AU    AUSL 1782  14.782  14.820   7.075
    4AU     AUL 1783  14.474  14.710   7.179
    4AU       S 1784  14.236  14.206   6.965
    4AU     LIG 1785  13.909  14.593   6.909
    4AU     LIG 1786  13.446  14.680   6.747
    4AU     LIG 1787  13.034  14.962   6.770
    4AU     LIG 1788  12.667  15.279   6.825
    4AU     LIG 1789  12.196  15.254   6.569
    4AU       S 1790  14.631  15.068   6.901
    4AU     LIG 1791  14.372  15.309   6.605
    4AU     LIG 1792  14.181  15.438   6.200
    4AU     LIG 1793  14.020  15.834   5.977
    4AU     LIG 1794  13.845  16.273   5.957
    4AU     LIG 1795  13.389  16.468   5.821
    4AU    AUSL 1796  14.402  14.439   7.690
    4AU    AUSL 1797  14.362  14.066   7.391
    4AU     AUL 1798  14.239  14.383   7.408
    4AU       S 1799  14.136  13.977   7.642
    4AU     LIG 1800  13.842  13.844   7.256
    4AU     LIG 1801  13.402  13.736   7.089
    4AU     LIG 1802  12.942  13.550   7.132
    4AU     LIG 1803  12.456  13.554   7.168
    4AU     LIG 1804  12.023  13.334   7.141
    4AU       S 1805  14.284  14.444   7.919
    4AU     LIG 1806  13.910  14.760   7.945
    4AU     LIG 1807  13.494  14.996   8.109
    4AU     LIG 1808  12.993  15.036   8.116
    4AU     LIG 1809  12.543  15.245   8.216
    4AU     LIG 1810  12.072  15.135   8.240
    4AU    AUSL 1811  16.053  13.582   7.555
    4AU    AUSL 1812  15.865  13.849   7.871
    4AU     AUL 1813  16.203  13.748   7.941
    4AU       S 1814  16.349  13.473   7.578
    4AU     LIG 1815  16.660  13.170   7.630
    4AU     LIG 1816  16.952  12.947   7.379
    4AU     LIG 1817  17.360  12.767   7.439
    4AU     LIG 1818  17.793  12.589   7.455
    4AU     LIG 1819  18.196  12.631   7.673
    4AU       S 1820  16.073  13.315   7.983
    4AU     LIG 1821  16.328  12.969   8.198
    4AU     LIG 1822  16.417  12.831   8.632
    4AU     LIG 1823  16.757  12.633   8.902
    4AU     LIG 1824  17.068  12.514   9.245
    4AU     LIG 1825  17.503  12.457   9.432
    4AU    AUSL 1826  16.049  13.963   7.333
    4AU    AUSL 1827  15.918  13.472   7.153
    4AU     AUL 1828  16.189  13.615   7.169
    4AU       S 1829  16.539  13.827   7.344
    4AU     LIG 1830  16.877  13.465   7.240
    4AU     LIG 1831  17.325  13.276   7.217
    4AU     LIG 1832  17.718  13.010   7.165
    4AU     LIG 1833  18.164  13.040   7.087
    4AU     LIG 1834  18.588  12.992   6.915
    4AU       S 1835  16.110  13.272   6.852
    4AU     LIG 1836  16.053  12.784   6.827
    4AU     LIG 1837  16.287  12.381   6.657
    4AU     LIG 1838  16.607  12.099   6.402
    4AU     LIG 1839  16.869  11.691   6.305
    4AU     LIG 1840  17.249  11.475   6.491
    4AU    AUSL 1841  14.545  13.691   7.549
    4AU    AUSL 1842  14.672  13.937   7.119
    4AU     AUL 1843  14.328  13.782   7.250
    4AU       S 1844  14.540  13.770   6.842
    4AU     LIG 1845  14.082  13.672   6.825
    4AU     LIG 1846  13.791  13.312   6.724
    4AU     LIG 1847  13.594  12.965   6.453
    4AU     LIG 1848  13.400  12.645   6.156
    4AU     LIG 1849  13.143  12.490   5.791
    4AU       S 1850  14.128  13.715   7.672
    4AU     LIG 1851  13.872  13.380   7.457
    4AU     LIG 1852  13.494  13.210   7.212
    4AU     LIG 1853  13.028  13.035   7.284
    4AU     LIG 1854  12.709  12.668   7.383
    4AU     LIG 1855  12.312  12.465   7.185
    4AU    AUSL 1856  14.636  14.084   7.742
    4AU    AUSL 1857  14.879  13.696   7.821
    4AU     AUL 1858  14.529  13.701   7.897
    4AU       S 1859  14.581  13.445   8.268
    4AU     LIG 1860  14.239  13.139   8.125
    4AU     LIG 1861  13.874  12.805   8.175
    4AU     LIG 1862  13.623  12.433   8.386
    4AU     LIG 1863  13.515  12.082   8.715
    4AU     LIG 1864  13.306  11.656   8.743
    4AU       S 1865  14.168  13.985   7.820
    4AU     LIG 1866  13.652  13.798   7.727
    4AU     LIG 1867  13.200  13.719   7.568
    4AU     LIG 1868  12.744  13.563   7.622
    4AU     LIG 1869  12.430  13.422   7.958
    4AU     LIG 1870  11.986  13.263   8.037
    4AU    AUSL 1871  15.391  14.910   7.890
    4AU    AUSL 1872  14.954  14.944   7.803
    4AU     AUL 1873  15.187  14.997   8.171
    4AU       S 1874  14.827  15.159   7.915
    4AU     LIG 1875  14.756  15.453   8.306
    4AU     LIG 1876  14.373  15.663   8.537
    4AU     LIG 1877  14.245  16.142   8.659
    4AU     LIG 1878  13.873  16.470   8.744
    4AU     LIG 1879  13.430  16.468   8.880
    4AU       S 1880  15.403  15.337   7.940
    4AU     LIG 1881  15.302  15.523   8.307
    4AU     LIG 1882  15.527  15.875   8.527
    4AU     LIG 1883  15.650  16.194   8.854
    4AU     LIG 1884  15.758  16.574   9.123
    4AU     LIG 1885  15.823  17.016   9.301
    4AU    AUSL 1886  15.236  15.142   7.540
    4AU    AUSL 1887  15.529  15.067   7.183
    4AU     AUL 1888  15.457  15.409   7.329
    4AU       S 1889  15.262  15.362   7.761
    4AU     LIG 1890  15.394  15.832   7.887
    4AU     LIG 1891  15.490  16.235   8.136
    4AU     LIG 1892  15.270  16.624   8.283
    4AU     LIG 1893  15.256  17.114   8.246
    4AU     LIG 1894  15.221  17.567   8.389
    4AU       S 1895  15.257  15.235   6.957
    4AU     LIG 1896  15.647  15.548   6.893
    4AU     LIG 1897  15.815  16.021   6.833
    4AU     LIG 1898  16.011  16.459   6.649
    4AU     LIG 1899  16.293  16.869   6.539
    4AU     LIG 1900  16.329  17.325   6.428
    4AU    AUSL 1901  15.688  15.055   7.594
    4AU    AUSL 1902  15.626  14.752   8.212
    4AU     AUL 1903  15.737  15.013   7.982
    4AU       S 1904  15.878  14.841   8.422
    4AU     LIG 1905  16.267  14.854   8.740
    4AU     LIG 1906  16.520  15.011   9.094
    4AU     LIG 1907  16.764  15.333   9.328
    4AU     LIG 1908  16.795  15.684   9.642
    4AU     LIG 1909  16.636  15.957  10.003
    4AU       S 1910  15.626  15.400   7.760
    4AU     LIG 1911  15.794  15.633   8.135
    4AU     LIG 1912  15.965  16.071   8.235
    4AU     LIG 1913  16.163  16.501   8.068
    4AU     LIG 1914  16.230  16.985   8.067
    4AU     LIG 1915  16.225  17.266   8.457
    4AU    AUSL 1916  15.272  13.502   7.908
    4AU    AUSL 1917  15.692  13.460   7.760
    4AU     AUL 1918  15.469  13.346   8.135
    4AU       S 1919  15.217  12.993   7.979
    4AU     LIG 1920  15.450  12.813   8.272
    4AU     LIG 1921  15.473  12.392   8.377
    4AU     LIG 1922  15.335  11.980   8.545
    4AU     LIG 1923  15.261  11.531   8.649
    4AU     LIG 1924  15.346  11.128   8.856
    4AU       S 1925  15.835  13.239   7.828
    4AU     LIG 1926  15.885  12.767   7.992
    4AU     LIG 1927  16.124  12.485   8.305
    4AU     LIG 1928  16.516  12.343   8.543
    4AU     LIG 1929  16.707  11.993   8.807
    4AU     LIG 1930  16.965  11.572   8.801
    4AU    AUSL 1931  14.947  13.324   7.632
    4AU    AUSL 1932  15.034  13.623   8.243
    4AU     AUL 1933  14.931  13.363   7.988
    4AU       S 1934  15.046  12.926   7.843
    4AU     LIG 1935  15.030  12.515   8.105
    4AU     LIG 1936  14.960  12.051   8.204
    4AU     LIG 1937  14.956  11.569   8.231
    4AU     LIG 1938  14.694  11.153   8.299
    4AU     LIG 1939  14.492  10.814   8.562
    4AU       S 1940  14.789  13.519   8.428
    4AU     LIG 1941  14.352  13.278   8.647
    4AU     LIG 1942  14.100  12.880   8.630
    4AU     LIG 1943  13.843  12.533   8.837
    4AU     LIG 1944  13.609  12.329   9.184
    4AU     LIG 1945  13.717  12.271   9.644
    4AU    AUSL 1946  15.381  13.210   7.595
    4AU    AUSL 1947  15.135  13.346   7.237
    4AU     AUL 1948  15.018  13.083   7.406
    4AU       S 1949  15.386  13.055   7.126
    4AU     LIG 1950  15.161  12.643   7.079
    4AU     LIG 1951  14.948  12.242   6.947
    4AU     LIG 1952  14.671  11.876   6.855
    4AU     LIG 1953  14.552  11.437   6.735
    4AU     LIG 1954  14.790  11.065   6.546
    4AU       S 1955  15.377  13.020   7.747
    4AU     LIG 1956  15.453  12.545   7.829
    4AU     LIG 1957  15.418  12.079   7.981
    4AU     LIG 1958  15.492  11.650   8.199
    4AU     LIG 1959  15.544  11.202   8.243
    4AU     LIG 1960  15.700  10.912   8.559
    4AU    AUSL 1961  15.376  14.790   6.855
    4AU    AUSL 1962  15.800  14.747   7.257
    4AU     AUL 1963  15.667  14.979   6.885
    4AU       S 1964  15.274  15.202   6.738
    4AU     LIG 1965  15.309  15.619   6.520
    4AU     LIG 1966  15.539  16.020   6.402
    4AU     LIG 1967  15.740  16.393   6.165
    4AU     LIG 1968  15.792  16.752   5.829
    4AU     LIG 1969  15.643  17.089   5.517
    4AU       S 1970  16.036  14.995   7.164
    4AU     LIG 1971  16.477  15.196   6.983
    4AU     LIG 1972  16.752  15.248   6.599
    4AU     LIG 1973  16.967  15.534   6.282
    4AU     LIG 1974  17.180  15.952   6.169
    4AU     LIG 1975  17.306  16.306   5.883
    4AU    AUSL 1976  15.165  14.834   7.252
    4AU    AUSL 1977  15.066  14.505   6.946
    4AU     AUL 1978  15.029  14.814   6.805
    4AU       S 1979  15.075  15.202   7.088
    4AU     LIG 1980  15.163  15.709   7.009
    4AU     LIG 1981  15.277  16.136   6.865
    4AU     LIG 1982  15.058  16.574   6.819
    4AU     LIG 1983  14.766  16.976   6.778
    4AU     LIG 1984  14.794  17.443   6.626
    4AU       S 1985  14.597  14.853   6.645
    4AU     LIG 1986  14.530  15.023   6.201
    4AU     LIG 1987  14.436  15.252   5.784
    4AU     LIG 1988  14.509  15.489   5.362
    4AU     LIG 1989  14.384  15.797   5.014
    4AU     LIG 1990  14.073  16.029   4.739
    4AU    AUSL 1991  15.363  13.464   6.873
    4AU    AUSL 1992  14.739  13.502   7.214
    4AU     AUL 1993  14.997  13.336   6.928
    4AU       S 1994  14.553  13.461   7.000
    4AU     LIG 1995  14.169  13.206   7.065
    4AU     LIG 1996  13.855  12.854   6.945
    4AU     LIG 1997  13.701  12.502   6.647
    4AU     LIG 1998  13.542  12.165   6.334
    4AU     LIG 1999  13.553  11.736   6.107
    4AU       S 2000  15.400  13.063   6.902
    4AU     LIG 2001  15.505  12.695   6.682
    4AU     LIG 2002  15.275  12.328   6.558
    4AU     LIG 2003  15.123  11.894   6.545
    4AU     LIG 2004  15.286  11.540   6.264
    4AU     LIG 2005  15.485  11.145   6.104
    4AU    AUSL 2006  15.530  13.497   7.309
    4AU    AUSL 2007  15.641  13.779   6.967
    4AU     AUL 2008  15.681  13.427   6.916
    4AU       S 2009  15.614  13.080   7.215
    4AU     LIG 2010  15.669  12.606   7.156
    4AU     LIG 2011  15.460  12.198   7.019
    4AU     LIG 2012  15.525  11.768   6.837
    4AU     LIG 2013  15.500  11.303   6.665
    4AU     LIG 2014  15.670  10.876   6.515
    4AU       S 2015  15.927  13.535   6.558
    4AU     LIG 2016  15.782  13.092   6.507
    4AU     LIG 2017  15.968  12.666   6.339
    4AU     LIG 2018  16.238  12.347   6.092
    4AU     LIG 2019  16.475  12.117   5.746
    4AU     LIG 2020  16.690  12.003   5.326
    5AU     AUC 2021  41.173   5.252   7.506
    5AU     AUC 2022  41.436   5.259   7.335
    5AU     AUC 2023  41.430   5.242   7.674
    5AU     AUC 2024  40.898   5.250   7.341
    5AU     AUC 2025  40.927   5.295   7.692
    5AU     AUC 2026  41.009   5.529   7.503
    5AU     AUC 2027  41.354   5.524   7.487
    5AU     AUC 2028  40.988   4.995   7.516
    5AU     AUC 2029  41.334   4.962   7.512
    5AU     AUC 2030  41.176   5.085   7.783
    5AU     AUC 2031  41.175   5.444   7.764
    5AU     AUC 2032  41.163   5.081   7.238
    5AU     AUC 2033  41.190   5.402   7.226
    5AU     AUC 2034  41.761   5.254   7.177
    5AU     AUC 2035  41.776   5.220   7.513
    5AU     AUC 2036  41.728   5.215   7.865
    5AU     AUC 2037  40.583   5.242   7.170
    5AU     AUC 2038  40.570   5.297   7.532
    5AU     AUC 2039  40.628   5.328   7.888
    5AU     AUC 2040  40.852   5.843   7.484
    5AU     AUC 2041  41.209   5.874   7.440
    5AU     AUC 2042  41.538   5.810   7.469
    5AU     AUC 2043  40.776   4.711   7.527
    5AU     AUC 2044  41.135   4.653   7.500
    5AU     AUC 2045  41.499   4.653   7.502
    5AU     AUC 2046  41.153   4.909   8.085
    5AU     AUC 2047  41.187   5.267   8.111
    5AU     AUC 2048  41.217   5.620   8.054
    5AU     AUC 2049  41.190   4.900   6.961
    5AU     AUC 2050  41.159   5.233   6.893
    5AU     AUC 2051  41.167   5.567   6.908
    5AU     AUC 2052  41.448   5.026   8.005
    5AU     AUC 2053  41.492   5.412   7.989
    5AU     AUC 2054  41.491   5.085   7.016
    5AU     AUC 2055  41.478   5.438   7.026
    5AU     AUC 2056  40.873   5.136   8.024
    5AU     AUC 2057  40.912   5.502   8.004
    5AU     AUC 2058  40.862   5.052   7.050
    5AU     AUC 2059  40.838   5.382   7.001
    5AU     AUC 2060  41.702   5.527   7.321
    5AU     AUC 2061  41.653   5.509   7.683
    5AU     AUC 2062  40.692   5.552   7.331
    5AU     AUC 2063  40.715   5.615   7.692
    5AU     AUC 2064  41.655   4.939   7.351
    5AU     AUC 2065  41.609   4.888   7.704
    5AU     AUC 2066  40.657   4.942   7.359
    5AU     AUC 2067  40.711   5.010   7.713
    5AU     AUC 2068  41.036   5.787   7.763
    5AU     AUC 2069  41.380   5.737   7.762
    5AU     AUC 2070  40.959   4.797   7.808
    5AU     AUC 2071  41.292   4.729   7.789
    5AU     AUC 2072  41.002   5.683   7.181
    5AU     AUC 2073  41.376   5.715   7.165
    5AU     AUC 2074  40.978   4.775   7.219
    5AU     AUC 2075  41.376   4.793   7.219
    5AU    AUSL 2076  41.737   5.155   8.239
    5AU    AUSL 2077  41.452   4.731   8.192
    5AU     AUL 2078  41.764   4.754   8.342
    5AU       S 2079  41.771   4.331   8.160
    5AU     LIG 2080  41.683   4.131   8.494
    5AU     LIG 2081  41.899   3.809   8.716
    5AU     LIG 2082  42.150   3.498   8.955
    5AU     LIG 2083  42.397   3.385   9.332
    5AU     LIG 2084  42.523   3.504   9.776
    5AU       S 2085  41.979   5.158   8.387
    5AU     LIG 2086  41.899   5.261   8.827
    5AU     LIG 2087  42.007   5.098   9.242
    5AU     LIG 2088  42.289   4.864   9.539
    5AU     LIG 2089  42.653   4.847   9.840
    5AU     LIG 2090  42.899   4.940  10.235
    5AU    AUSL 2091  41.337   5.079   8.424
    5AU    AUSL 2092  41.073   5.451   8.448
    5AU     AUL 2093  41.278   5.377   8.738
    5AU       S 2094  41.515   5.003   8.626
    5AU     LIG 2095  41.442   4.956   9.046
    5AU     LIG 2096  41.673   4.721   9.377
    5AU     LIG 2097  41.933   4.517   9.713
    5AU     LIG 2098  41.972   4.253  10.108
    5AU     LIG 2099  41.895   4.162  10.563
    5AU       S 2100  40.867   5.189   8.688
    5AU     LIG 2101  40.801   5.068   9.165
    5AU     LIG 2102  40.514   5.024   9.558
    5AU     LIG 2103  40.341   5.075  10.004
    5AU     LIG 2104  40.276   5.387  10.370
    5AU     LIG 2105  40.221   5.719  10.719
    5AU    AUSL 2106  41.392   5.449   8.162
    5AU    AUSL 2107  41.843   5.551   8.092
    5AU     AUL 2108  41.640   5.465   8.439
    5AU       S 2109  41.302   5.831   8.580
    5AU     LIG 2110  41.630   5.706   8.894
    5AU     LIG 2111  41.919   5.769   9.271
    5AU     LIG 2112  41.900   5.849   9.762
    5AU     LIG 2113  41.820   5.979  10.236
    5AU     LIG 2114  41.894   6.134  10.692
    5AU       S 2115  42.000   5.703   8.259
    5AU     LIG 2116  42.390   5.595   8.352
    5AU     LIG 2117  42.645   5.762   8.706
    5AU     LIG 2118  42.876   5.977   9.054
    5AU     LIG 2119  43.135   6.279   9.298
    5AU     LIG 2120  43.526   6.337   9.563
    5AU    AUSL 2121  41.620   5.299   6.886
    5AU    AUSL 2122  41.537   5.735   6.857
    5AU     AUL 2123  41.722   5.631   6.618
    5AU       S 2124  41.575   5.371   6.286
    5AU     LIG 2125  42.039   5.346   6.210
    5AU     LIG 2126  42.210   5.099   5.863
    5AU     LIG 2127  42.288   4.966   5.432
    5AU     LIG 2128  42.588   4.949   5.078
    5AU     LIG 2129  43.023   4.858   4.893
    5AU       S 2130  41.957   5.974   6.844
    5AU     LIG 2131  42.199   6.055   6.442
    5AU     LIG 2132  42.458   6.253   6.097
    5AU     LIG 2133  42.580   6.454   5.669
    5AU     LIG 2134  42.624   6.807   5.342
    5AU     LIG 2135  42.634   7.104   4.969
    5AU    AUSL 2136  41.452   5.030   6.579
    5AU    AUSL 2137  41.922   4.999   6.937
    5AU     AUL 2138  41.826   5.163   6.651
    5AU       S 2139  42.038   4.741   6.716
    5AU     LIG 2140  42.124   4.415   6.361
    5AU     LIG 2141  42.353   4.011   6.260
    5AU     LIG 2142  42.667   3.745   6.034
    5AU     LIG 2143  43.086   3.782   5.775
    5AU     LIG 2144  43.499   3.992   5.609
    5AU       S 2145  41.580   5.162   6.250
    5AU     LIG 2146  41.837   4.835   6.117
    5AU     LIG 2147  41.931   4.679   5.683
    5AU     LIG 2148  41.917   4.662   5.204
    5AU     LIG 2149  41.893   4.436   4.772
    5AU     LIG 2150  41.979   4.371   4.303
    5AU    AUSL 2151  41.269   5.444   6.668
    5AU    AUSL 2152  41.057   5.043   6.761
    5AU     AUL 2153  41.171   5.086   6.437
    5AU       S 2154  40.732   5.048   6.302
    5AU     LIG 2155  40.750   4.794   5.931
    5AU     LIG 2156  40.533   4.562   5.599
    5AU     LIG 2157  40.394   4.590   5.152
    5AU     LIG 2158  40.424   4.511   4.678
    5AU     LIG 2159  40.326   4.341   4.228
    5AU       S 2160  41.333   5.516   6.360
    5AU     LIG 2161  41.324   5.352   5.869
    5AU     LIG 2162  41.711   5.159   5.633
    5AU     LIG 2163  41.891   5.192   5.183
    5AU     LIG 2164  41.937   5.395   4.745
    5AU     LIG 2165  41.862   5.625   4.327
    5AU    AUSL 2166  40.663   5.403   8.288
    5AU    AUSL 2167  40.956   5.750   8.158
    5AU     AUL 2168  40.832   5.689   8.485
    5AU       S 2169  40.693   5.319   8.743
    5AU     LIG 2170  40.376   5.012   8.863
    5AU     LIG 2171  40.107   4.917   9.246
    5AU     LIG 2172  40.005   4.820   9.698
    5AU     LIG 2173  39.767   4.799  10.104
    5AU     LIG 2174  39.441   5.014  10.379
    5AU       S 2175  40.571   5.996   8.243
    5AU     LIG 2176  40.510   6.166   8.663
    5AU     LIG 2177  40.280   6.470   8.950
    5AU     LIG 2178  40.176   6.727   9.332
    5AU     LIG 2179  40.016   6.873   9.752
    5AU     LIG 2180  40.111   7.024  10.202
    5AU    AUSL 2181  40.969   5.097   8.193
    5AU    AUSL 2182  40.510   5.026   8.116
    5AU     AUL 2183  40.523   5.128   8.360
    5AU       S 2184  40.334   4.697   8.285
    5AU     LIG 2185  39.913   4.604   8.164
    5AU     LIG 2186  39.637   4.241   8.234
    5AU     LIG 2187  39.396   3.923   8.502
    5AU     LIG 2188  39.203   3.661   8.847
    5AU     LIG 2189  39.054   3.450   9.250
    5AU       S 2190  40.909   5.018   8.598
    5AU     LIG 2191  40.766   4.676   8.834
    5AU     LIG 2192  40.528   4.616   9.228
    5AU     LIG 2193  40.424   4.527   9.682
    5AU     LIG 2194  40.234   4.562  10.109
    5AU     LIG 2195  40.230   4.369  10.539
    5AU    AUSL 2196  40.617   5.093   6.777
    5AU    AUSL 2197  40.825   4.728   6.945
    5AU     AUL 2198  40.880   4.752   6.629
    5AU       S 2199  40.546   4.972   6.394
    5AU     LIG 2200  40.276   4.748   6.144
    5AU     LIG 2201  40.083   4.779   5.738
    5AU     LIG 2202  39.955   4.831   5.304
    5AU     LIG 2203  39.573   4.737   5.051
    5AU     LIG 2204  39.190   4.789   4.783
    5AU       S 2205  40.474   4.605   6.796
    5AU     LIG 2206  40.357   4.205   6.627
    5AU     LIG 2207  39.995   3.958   6.496
    5AU     LIG 2208  39.730   3.896   6.107
    5AU     LIG 2209  39.608   3.632   5.725
    5AU     LIG 2210  39.605   3.468   5.269
    5AU    AUSL 2211  40.846   5.415   6.586
    5AU    AUSL 2212  40.494   5.504   6.909
    5AU     AUL 2213  40.421   5.326   6.652
    5AU       S 2214  40.507   5.774   6.636
    5AU     LIG 2215  40.276   6.081   6.360
    5AU     LIG 2216  40.030   6.136   5.939
    5AU     LIG 2217  39.761   6.185   5.535
    5AU     LIG 2218  39.365   6.378   5.345
    5AU     LIG 2219  38.968   6.559   5.144
    5AU       S 2220  40.760   5.323   6.316
    5AU     LIG 2221  40.457   5.218   5.924
    5AU     LIG 2222  40.432   5.051   5.476
    5AU     LIG 2223  40.341   5.096   5.012
    5AU     LIG 2224  40.324   5.386   4.623
    5AU     LIG 2225  40.367   5.630   4.205
    5AU    AUSL 2226  41.985   5.732   7.495
    5AU    AUSL 2227  41.915   5.559   7.067
    5AU     AUL 2228  42.242   5.860   7.301
    5AU       S 2229  42.030   5.668   6.952
    5AU     LIG 2230  42.344   5.597   6.625
    5AU     LIG 2231  42.646   5.776   6.288
    5AU     LIG 2232  42.946   6.088   6.078
    5AU     LIG 2233  43.289   6.279   5.822
    5AU     LIG 2234  43.432   6.367   5.376
    5AU       S 2235  42.378   5.579   7.656
    5AU     LIG 2236  42.795   5.775   7.544
    5AU     LIG 2237  43.150   6.041   7.749
    5AU     LIG 2238  43.618   6.154   7.870
    5AU     LIG 2239  43.991   6.477   7.906
    5AU     LIG 2240  44.249   6.880   7.760
    5AU    AUSL 2241  42.139   5.315   7.346
    5AU    AUSL 2242  42.094   4.991   7.709
    5AU     AUL 2243  42.399   5.027   7.555
    5AU       S 2244  42.306   5.416   7.366
    5AU     LIG 2245  42.654   5.563   7.099
    5AU     LIG 2246  43.149   5.486   7.141
    5AU     LIG 2247  43.567   5.697   6.958
    5AU     LIG 2248  44.040   5.875   6.978
    5AU     LIG 2249  44.458   6.237   6.972
    5AU       S 2250  42.327   4.583   7.707
    5AU     LIG 2251  42.766   4.534   7.789
    5AU     LIG 2252  43.087   4.206   7.810
    5AU     LIG 2253  43.490   4.013   7.949
    5AU     LIG 2254  43.938   3.952   8.044
    5AU     LIG 2255  44.365   3.988   8.203
    5AU    AUSL 2256  41.879   5.364   7.711
    5AU    AUSL 2257  41.643   5.771   7.762
    5AU     AUL 2258  41.985   5.799   7.802
    5AU       S 2259  41.982   6.004   8.215
    5AU     LIG 2260  42.379   6.117   8.423
    5AU     LIG 2261  42.702   6.311   8.702
    5AU     LIG 2262  43.023   6.602   8.897
    5AU     LIG 2263  43.349   6.968   8.847
    5AU     LIG 2264  43.535   7.416   8.829
    5AU       S 2265  42.249   5.417   7.815
    5AU     LIG 2266  42.761   5.383   7.899
    5AU     LIG 2267  43.207   5.521   7.712
    5AU     LIG 2268  43.663   5.630   7.842
    5AU     LIG 2269  44.079   5.888   7.906
    5AU     LIG 2270  44.267   6.155   8.230
    5AU    AUSL 2271  40.521   5.841   7.527
    5AU    AUSL 2272  40.610   5.608   7.912
    5AU     AUL 2273  40.303   5.949   7.765
    5AU       S 2274  40.448   5.784   8.166
    5AU     LIG 2275  40.320   5.681   8.593
    5AU     LIG 2276  40.122   5.953   8.946
    5AU     LIG 2277  39.874   6.268   9.223
    5AU     LIG 2278  39.491   6.361   9.508
    5AU     LIG 2279  39.097   6.349   9.792
    5AU       S 2280  40.547   6.222   7.447
    5AU     LIG 2281  40.088   6.346   7.460
    5AU     LIG 2282  39.695   6.656   7.444
    5AU     LIG 2283  39.240   6.819   7.372
    5AU     LIG 2284  38.808   6.931   7.220
    5AU     LIG 2285  38.486   7.188   7.044
    5AU    AUSL 2286  40.472   5.452   7.331
    5AU    AUSL 2287  40.603   5.894   7.108
    5AU     AUL 2288  40.308   5.762   7.165
    5AU       S 2289  40.071   5.336   6.994
    5AU     LIG 2290  39.680   5.569   7.013
    5AU     LIG 2291  39.337   5.794   6.752
    5AU     LIG 2292  39.012   6.129   6.828
    5AU     LIG 2293  38.552   6.190   6.812
    5AU     LIG 2294  38.118   6.309   6.726
    5AU       S 2295  40.422   6.154   6.897
    5AU     LIG 2296  40.635   6.429   6.584
    5AU     LIG 2297  40.505   6.761   6.271
    5AU     LIG 2298  40.277   7.184   6.243
    5AU     LIG 2299  39.942   7.548   6.302
    5AU     LIG 2300  39.592   7.867   6.223
    5AU    AUSL 2301  40.240   5.497   7.729
    5AU    AUSL 2302  40.196   5.131   7.388
    5AU     AUL 2303  40.088   5.463   7.452
    5AU       S 2304  39.923   5.029   7.589
    5AU     LIG 2305  39.529   5.035   7.373
    5AU     LIG 2306  39.146   4.936   7.552
    5AU     LIG 2307  38.762   4.724   7.435
    5AU     LIG 2308  38.312   4.635   7.358
    5AU     LIG 2309  38.025   4.679   6.994
    5AU       S 2310  40.144   5.433   7.970
    5AU     LIG 2311  39.702   5.596   8.069
    5AU     LIG 2312  39.198   5.565   8.181
    5AU     LIG 2313  38.840   5.849   8.404
    5AU     LIG 2314  38.432   6.053   8.551
    5AU     LIG 2315  37.968   6.063   8.516
    5AU    AUSL 2316  41.859   4.648   7.558
    5AU    AUSL 2317  41.698   4.931   7.879
    5AU     AUL 2318  42.022   4.833   7.943
    5AU       S 2319  42.038   4.486   7.557
    5AU     LIG 2320  42.353   4.094   7.648
    5AU     LIG 2321  42.780   3.909   7.527
    5AU     LIG 2322  43.240   3.771   7.554
    5AU     LIG 2323  43.558   3.494   7.802
    5AU     LIG 2324  44.004   3.466   7.924
    5AU       S 2325  41.926   4.398   8.026
    5AU     LIG 2326  42.169   4.049   8.262
    5AU     LIG 2327  42.400   3.783   8.584
    5AU     LIG 2328  42.662   3.591   8.934
    5AU     LIG 2329  42.873   3.597   9.374
    5AU     LIG 2330  43.192   3.574   9.735
    5AU    AUSL 2331  41.822   5.032   7.350
    5AU    AUSL 2332  41.796   4.614   7.131
    5AU     AUL 2333  42.081   4.836   7.209
    5AU       S 2334  42.310   4.563   7.480
    5AU     LIG 2335  42.686   4.365   7.302
    5AU     LIG 2336  43.101   4.135   7.181
    5AU     LIG 2337  43.530   3.992   7.018
    5AU     LIG 2338  43.922   3.990   6.752
    5AU     LIG 2339  44.399   3.997   6.695
    5AU       S 2340  41.993   4.501   6.863
    5AU     LIG 2341  42.079   4.043   6.727
    5AU     LIG 2342  42.195   3.604   6.541
    5AU     LIG 2343  42.466   3.301   6.314
    5AU     LIG 2344  42.601   2.832   6.350
    5AU     LIG 2345  42.827   2.512   6.070
    5AU    AUSL 2346  40.370   4.759   7.569
    5AU    AUSL 2347  40.544   4.978   7.182
    5AU     AUL 2348  40.188   4.865   7.233
    5AU       S 2349  40.344   4.717   6.833
    5AU     LIG 2350  39.989   4.574   6.566
    5AU     LIG 2351  39.622   4.290   6.541
    5AU     LIG 2352  39.333   3.949   6.426
    5AU     LIG 2353  38.945   3.913   6.164
    5AU     LIG 2354  38.691   3.816   5.798
    5AU       S 2355  39.974   4.740   7.635
    5AU     LIG 2356  39.798   4.318   7.745
    5AU     LIG 2357  39.434   4.006   7.823
    5AU     LIG 2358  38.999   4.058   7.690
    5AU     LIG 2359  38.548   3.987   7.759
    5AU     LIG 2360  38.293   3.603   7.614
    5AU    AUSL 2361  40.501   5.164   7.710
    5AU    AUSL 2362  40.710   4.769   7.829
    5AU     AUL 2363  40.304   4.943   7.890
    5AU       S 2364  40.395   4.530   8.056
    5AU     LIG 2365  40.253   4.145   7.926
    5AU     LIG 2366  39.900   3.850   7.971
    5AU     LIG 2367  39.571   3.575   8.167
    5AU     LIG 2368  39.280   3.325   8.448
    5AU     LIG 2369  39.176   3.130   8.857
    5AU       S 2370  39.897   5.071   7.745
    5AU     LIG 2371  39.541   4.755   7.849
    5AU     LIG 2372  39.289   4.477   7.674
    5AU     LIG 2373  38.921   4.591   7.902
    5AU     LIG 2374  38.479   4.654   7.864
    5AU     LIG 2375  38.153   4.368   7.825
    5AU    AUSL 2376  41.231   5.947   7.889
    5AU    AUSL 2377  40.785   6.001   7.834
    5AU     AUL 2378  41.045   6.072   8.175
    5AU       S 2379  40.661   6.210   7.945
    5AU     LIG 2380  40.496   6.505   8.275
    5AU     LIG 2381  40.409   6.832   8.603
    5AU     LIG 2382  40.060   6.976   8.893
    5AU     LIG 2383  39.658   7.244   9.011
    5AU     LIG 2384  39.448   7.669   8.861
    5AU       S 2385  41.272   6.417   7.955
    5AU     LIG 2386  41.405   6.555   8.348
    5AU     LIG 2387  41.372   6.933   8.608
    5AU     LIG 2388  41.481   7.357   8.742
    5AU     LIG 2389  41.483   7.751   8.998
    5AU     LIG 2390  41.424   7.886   9.446
    5AU    AUSL 2391  41.054   6.216   7.579
    5AU    AUSL 2392  41.353   6.156   7.189
    5AU     AUL 2393  41.094   6.420   7.325
    5AU       S 2394  41.113   6.435   7.801
    5AU     LIG 2395  41.233   6.914   8.010
    5AU     LIG 2396  41.168   7.294   8.299
    5AU     LIG 2397  41.196   7.713   8.531
    5AU     LIG 2398  40.958   8.132   8.470
    5AU     LIG 2399  40.869   8.491   8.742
    5AU       S 2400  41.320   6.471   6.914
    5AU     LIG 2401  41.542   6.862   7.071
    5AU     LIG 2402  41.588   7.295   6.848
    5AU     LIG 2403  41.861   7.679   6.836
    5AU     LIG 2404  42.110   8.071   6.833
    5AU     LIG 2405  42.271   8.515   6.813
    5AU    AUSL 2406  41.504   6.141   7.598
    5AU    AUSL 2407  41.523   5.856   8.187
    5AU     AUL 2408  41.608   6.099   7.943
    5AU       S 2409  41.757   5.935   8.387
    5AU     LIG 2410  42.090   5.832   8.732
    5AU     LIG 2411  42.359   6.071   9.012
    5AU     LIG 2412  42.623   6.403   9.220
    5AU     LIG 2413  42.639   6.702   9.589
    5AU     LIG 2414  42.599   6.916  10.014
    5AU       S 2415  41.456   6.461   7.665
    5AU     LIG 2416  41.703   6.720   7.959
    5AU     LIG 2417  41.664   7.118   8.222
    5AU     LIG 2418  41.635   7.582   8.283
    5AU     LIG 2419  41.953   7.938   8.300
    5AU     LIG 2420  42.272   8.316   8.212
    5AU    AUSL 2421  41.112   4.598   7.950
    5AU    AUSL 2422  41.533   4.527   7.810
    5AU     AUL 2423  41.319   4.439   8.182
    5AU       S 2424  41.124   4.050   8.023
    5AU     LIG 2425  41.046   3.715   8.299
    5AU     LIG 2426  40.919   3.271   8.297
    5AU     LIG 2427  40.809   2.811   8.264
    5AU     LIG 2428  40.817   2.405   8.515
    5AU     LIG 2429  40.665   2.146   8.885
    5AU       S 2430  41.674   4.319   7.871
    5AU     LIG 2431  41.709   3.855   8.043
    5AU     LIG 2432  42.022   3.549   8.284
    5AU     LIG 2433  42.330   3.259   8.531
    5AU     LIG 2434  42.552   3.067   8.910
    5AU     LIG 2435  42.843   2.712   9.089
    5AU    AUSL 2436  40.786   4.378   7.687
    5AU    AUSL 2437  40.826   4.703   8.257
    5AU     AUL 2438  40.833   4.418   8.039
    5AU       S 2439  40.898   3.986   7.863
    5AU     LIG 2440  40.709   3.576   7.919
    5AU     LIG 2441  40.496   3.165   8.007
    5AU     LIG 2442  40.268   2.856   8.278
    5AU     LIG 2443  40.329   2.415   8.365
    5AU     LIG 2444  40.510   1.985   8.379
    5AU       S 2445  40.554   4.606   8.376
    5AU     LIG 2446  40.208   4.237   8.435
    5AU     LIG 2447  39.913   3.868   8.481
    5AU     LIG 2448  39.688   3.514   8.689
    5AU     LIG 2449  39.560   3.399   9.116
    5AU     LIG 2450  39.465   3.507   9.572
    5AU    AUSL 2451  41.218   4.299   7.634
    5AU    AUSL 2452  40.995   4.555   7.339
    5AU     AUL 2453  40.885   4.208   7.452
    5AU       S 2454  41.236   4.106   7.185
    5AU     LIG 2455  40.854   3.803   7.184
    5AU     LIG 2456  40.679   3.367   7.118
    5AU     LIG 2457  40.423   3.029   6.890
    5AU     LIG 2458  40.274   2.603   6.708
    5AU     LIG 2459  40.479   2.272   6.455
    5AU       S 2460  41.231   4.086   7.779
    5AU     LIG 2461  41.236   3.580   7.831
    5AU     LIG 2462  41.265   3.082   7.951
    5AU     LIG 2463  41.504   2.632   8.007
    5AU     LIG 2464  41.816   2.343   8.240
    5AU     LIG 2465  41.951   1.915   8.398
    5AU    AUSL 2466  41.159   5.949   6.845
    5AU    AUSL 2467  41.643   5.849   7.261
    5AU     AUL 2468  41.499   6.052   6.876
    5AU       S 2469  41.116   6.214   6.649
    5AU     LIG 2470  41.229   6.558   6.383
    5AU     LIG 2471  41.324   6.991   6.282
    5AU     LIG 2472  41.350   7.428   6.316
    5AU     LIG 2473  41.419   7.782   6.018
    5AU     LIG 2474  41.317   7.913   5.569
    5AU       S 2475  41.882   6.051   7.116
    5AU     LIG 2476  42.435   6.040   6.898
    5AU     LIG 2477  42.796   6.180   6.581
    5AU     LIG 2478  43.130   6.481   6.381
    5AU     LIG 2479  43.323   6.932   6.353
    5AU     LIG 2480  43.330   7.423   6.301
    5AU    AUSL 2481  40.994   5.921   7.281
    5AU    AUSL 2482  40.914   5.624   6.953
    5AU     AUL 2483  40.860   6.082   7.030
    5AU       S 2484  41.085   6.434   6.857
    5AU     LIG 2485  41.150   6.920   6.757
    5AU     LIG 2486  41.058   7.381   6.756
    5AU     LIG 2487  41.330   7.749   6.723
    5AU     LIG 2488  41.220   8.202   6.583
    5AU     LIG 2489  40.994   8.462   6.255
    5AU       S 2490  40.716   5.870   6.644
    5AU     LIG 2491  40.775   6.074   6.241
    5AU     LIG 2492  40.508   6.342   5.946
    5AU     LIG 2493  40.226   6.457   5.558
    5AU     LIG 2494  40.073   6.770   5.219
    5AU     LIG 2495  40.130   7.219   5.031
    5AU    AUSL 2496  41.199   4.508   6.940
    5AU    AUSL 2497  40.576   4.533   7.258
    5AU     AUL 2498  40.849   4.375   7.006
    5AU       S 2499  40.380   4.472   7.056
    5AU     LIG 2500  39.940   4.258   6.969
    5AU     LIG 2501  39.587   3.920   6.892
    5AU     LIG 2502  39.220   3.628   6.795
    5AU     LIG 2503  39.110   3.455   6.360
    5AU     LIG 2504  38.835   3.085   6.207
    5AU       S 2505  41.240   4.095   6.970
    5AU     LIG 2506  41.116   3.655   6.778
    5AU     LIG 2507  40.850   3.261   6.642
    5AU     LIG 2508  40.620   2.881   6.436
    5AU     LIG 2509  40.465   2.612   6.082
    5AU     LIG 2510  40.668   2.379   5.740
    5AU    AUSL 2511  41.432   4.517   7.330
    5AU    AUSL 2512  41.464   4.848   6.964
    5AU     AUL 2513  41.533   4.459   6.947
    5AU       S 2514  41.474   4.132   7.277
    5AU     LIG 2515  41.333   3.627   7.264
    5AU     LIG 2516  41.194   3.195   7.047
    5AU     LIG 2517  41.295   2.703   6.941
    5AU     LIG 2518  41.318   2.217   6.828
    5AU     LIG 2519  41.287   1.747   6.714
    5AU       S 2520  41.765   4.676   6.620
    5AU     LIG 2521  41.657   4.244   6.506
    5AU     LIG 2522  41.857   3.885   6.268
    5AU     LIG 2523  42.135   3.601   5.980
    5AU     LIG 2524  42.117   3.465   5.493
    5AU     LIG 2525  42.321   3.232   5.104
    6AU     AUC 2526  14.066  42.994   7.496
    6AU     AUC 2527  14.328  43.009   7.319
    6AU     AUC 2528  14.324  42.983   7.663
    6AU     AUC 2529  13.787  42.991   7.333
    6AU     AUC 2530  13.820  43.030   7.683
    6AU     AUC 2531  13.898  43.271   7.497
    6AU     AUC 2532  14.247  43.273   7.479
    6AU     AUC 2533  13.882  42.733   7.503
    6AU     AUC 2534  14.229  42.706   7.496
    6AU     AUC 2535  14.072  42.822   7.769
    6AU     AUC 2536  14.067  43.181   7.754
    6AU     AUC 2537  14.055  42.826   7.226
    6AU     AUC 2538  14.073  43.145   7.222
    6AU     AUC 2539  14.646  43.005   7.163
    6AU     AUC 2540  14.669  42.966   7.503
    6AU     AUC 2541  14.622  42.954   7.853
    6AU     AUC 2542  13.471  42.978   7.166
    6AU     AUC 2543  13.462  43.029   7.528
    6AU     AUC 2544  13.522  43.056   7.881
    6AU     AUC 2545  13.735  43.582   7.484
    6AU     AUC 2546  14.100  43.617   7.434
    6AU     AUC 2547  14.433  43.557   7.463
    6AU     AUC 2548  13.675  42.446   7.510
    6AU     AUC 2549  14.036  42.394   7.477
    6AU     AUC 2550  14.399  42.398   7.479
    6AU     AUC 2551  14.052  42.641   8.066
    6AU     AUC 2552  14.081  43.001   8.099
    6AU     AUC 2553  14.106  43.355   8.048
    6AU     AUC 2554  14.081  42.651   6.941
    6AU     AUC 2555  14.047  42.984   6.884
    6AU     AUC 2556  14.037  43.310   6.914
    6AU     AUC 2557  14.344  42.765   7.990
    6AU     AUC 2558  14.385  43.153   7.977
    6AU     AUC 2559  14.385  42.844   6.996
    6AU     AUC 2560  14.358  43.177   7.025
    6AU     AUC 2561  13.770  42.864   8.011
    6AU     AUC 2562  13.805  43.236   7.997
    6AU     AUC 2563  13.750  42.794   7.039
    6AU     AUC 2564  13.720  43.124   6.999
    6AU     AUC 2565  14.593  43.281   7.323
    6AU     AUC 2566  14.546  43.252   7.676
    6AU     AUC 2567  13.577  43.288   7.329
    6AU     AUC 2568  13.605  43.349   7.691
    6AU     AUC 2569  14.550  42.690   7.337
    6AU     AUC 2570  14.505  42.627   7.689
    6AU     AUC 2571  13.551  42.678   7.348
    6AU     AUC 2572  13.607  42.740   7.702
    6AU     AUC 2573  13.924  43.524   7.760
    6AU     AUC 2574  14.270  43.477   7.754
    6AU     AUC 2575  13.859  42.529   7.790
    6AU     AUC 2576  14.192  42.465   7.767
    6AU     AUC 2577  13.881  43.430   7.181
    6AU     AUC 2578  14.256  43.474   7.182
    6AU     AUC 2579  13.874  42.520   7.202
    6AU     AUC 2580  14.274  42.547   7.199
    6AU    AUSL 2581  14.632  42.894   8.223
    6AU    AUSL 2582  14.348  42.465   8.169
    6AU     AUL 2583  14.655  42.490   8.340
    6AU       S 2584  14.680  42.083   8.134
    6AU     LIG 2585  14.572  41.929   8.494
    6AU     LIG 2586  14.785  41.651   8.776
    6AU     LIG 2587  15.012  41.297   8.972
    6AU     LIG 2588  15.253  40.992   9.239
    6AU     LIG 2589  15.159  40.785   9.660
    6AU       S 2590  14.861  42.895   8.350
    6AU     LIG 2591  14.731  42.925   8.798
    6AU     LIG 2592  14.794  42.747   9.217
    6AU     LIG 2593  15.037  42.675   9.611
    6AU     LIG 2594  15.398  42.749   9.900
    6AU     LIG 2595  15.651  42.742  10.297
    6AU    AUSL 2596  14.233  42.811   8.407
    6AU    AUSL 2597  13.968  43.178   8.440
    6AU     AUL 2598  14.182  43.118   8.741
    6AU       S 2599  14.342  42.735   8.561
    6AU     LIG 2600  14.258  42.649   8.975
    6AU     LIG 2601  14.422  42.409   9.348
    6AU     LIG 2602  14.613  42.213   9.736
    6AU     LIG 2603  14.596  42.077  10.197
    6AU     LIG 2604  14.744  42.238  10.622
    6AU       S 2605  13.782  42.918   8.659
    6AU     LIG 2606  13.782  42.811   9.134
    6AU     LIG 2607  13.487  42.858   9.496
    6AU     LIG 2608  13.284  42.915   9.914
    6AU     LIG 2609  13.315  43.219  10.289
    6AU     LIG 2610  13.308  43.426  10.718
    6AU    AUSL 2611  14.284  43.186   8.151
    6AU    AUSL 2612  14.734  43.295   8.084
    6AU     AUL 2613  14.530  43.203   8.428
    6AU       S 2614  14.190  43.565   8.573
    6AU     LIG 2615  14.550  43.451   8.869
    6AU     LIG 2616  14.775  43.608   9.269
    6AU     LIG 2617  14.711  43.679   9.757
    6AU     LIG 2618  14.650  43.754  10.236
    6AU     LIG 2619  14.579  43.689  10.709
    6AU       S 2620  14.897  43.453   8.271
    6AU     LIG 2621  15.337  43.492   8.239
    6AU     LIG 2622  15.576  43.676   8.604
    6AU     LIG 2623  15.743  43.846   8.990
    6AU     LIG 2624  16.026  44.076   9.280
    6AU     LIG 2625  16.202  44.176   9.714
    6AU    AUSL 2626  14.518  43.061   6.833
    6AU    AUSL 2627  14.359  43.457   6.944
    6AU     AUL 2628  14.561  43.420   6.634
    6AU       S 2629  14.465  43.151   6.279
    6AU     LIG 2630  14.890  43.030   6.065
    6AU     LIG 2631  14.989  42.783   5.682
    6AU     LIG 2632  15.303  42.720   5.324
    6AU     LIG 2633  15.744  42.671   5.106
    6AU     LIG 2634  16.031  42.564   4.736
    6AU       S 2635  14.847  43.718   6.863
    6AU     LIG 2636  14.951  43.958   6.470
    6AU     LIG 2637  15.256  44.165   6.173
    6AU     LIG 2638  15.543  44.115   5.796
    6AU     LIG 2639  15.724  44.364   5.434
    6AU     LIG 2640  15.637  44.790   5.233
    6AU    AUSL 2641  14.328  42.781   6.553
    6AU    AUSL 2642  14.821  42.771   6.928
    6AU     AUL 2643  14.722  42.932   6.625
    6AU       S 2644  14.948  42.512   6.700
    6AU     LIG 2645  15.037  42.087   6.416
    6AU     LIG 2646  15.242  41.672   6.260
    6AU     LIG 2647  15.478  41.382   5.956
    6AU     LIG 2648  15.827  41.316   5.628
    6AU     LIG 2649  16.209  41.350   5.331
    6AU       S 2650  14.447  42.949   6.245
    6AU     LIG 2651  14.608  42.576   6.051
    6AU     LIG 2652  14.648  42.393   5.608
    6AU     LIG 2653  14.834  42.284   5.189
    6AU     LIG 2654  14.762  42.198   4.726
    6AU     LIG 2655  14.792  42.191   4.246
    6AU    AUSL 2656  14.144  43.198   6.657
    6AU    AUSL 2657  13.941  42.792   6.754
    6AU     AUL 2658  14.049  42.833   6.429
    6AU       S 2659  13.616  42.821   6.284
    6AU     LIG 2660  13.752  42.642   5.904
    6AU     LIG 2661  13.515  42.416   5.577
    6AU     LIG 2662  13.284  42.375   5.176
    6AU     LIG 2663  13.032  42.198   4.808
    6AU     LIG 2664  13.029  41.953   4.387
    6AU       S 2665  14.189  43.273   6.371
    6AU     LIG 2666  14.071  43.056   5.950
    6AU     LIG 2667  14.431  42.875   5.660
    6AU     LIG 2668  14.688  42.792   5.249
    6AU     LIG 2669  14.789  42.996   4.823
    6AU     LIG 2670  14.842  43.311   4.460
    6AU    AUSL 2671  13.557  43.129   8.279
    6AU    AUSL 2672  13.842  43.486   8.160
    6AU     AUL 2673  13.726  43.411   8.484
    6AU       S 2674  13.595  43.035   8.734
    6AU     LIG 2675  13.270  42.947   9.024
    6AU     LIG 2676  13.050  42.650   9.306
    6AU     LIG 2677  12.831  42.470   9.666
    6AU     LIG 2678  12.547  42.501  10.009
    6AU     LIG 2679  12.292  42.715  10.327
    6AU       S 2680  13.459  43.711   8.242
    6AU     LIG 2681  13.554  43.890   8.622
    6AU     LIG 2682  13.385  44.133   8.969
    6AU     LIG 2683  13.201  44.068   9.404
    6AU     LIG 2684  12.986  44.272   9.761
    6AU     LIG 2685  12.715  44.600   9.947
    6AU    AUSL 2686  13.865  42.828   8.177
    6AU    AUSL 2687  13.411  42.747   8.108
    6AU     AUL 2688  13.418  42.860   8.348
    6AU       S 2689  13.252  42.420   8.278
    6AU     LIG 2690  12.831  42.446   8.167
    6AU     LIG 2691  12.493  42.135   8.179
    6AU     LIG 2692  12.266  41.825   8.450
    6AU     LIG 2693  12.030  41.497   8.704
    6AU     LIG 2694  11.626  41.372   8.916
    6AU       S 2695  13.803  42.740   8.584
    6AU     LIG 2696  13.488  42.519   8.831
    6AU     LIG 2697  13.485  42.387   9.277
    6AU     LIG 2698  13.335  42.413   9.726
    6AU     LIG 2699  13.166  42.271  10.152
    6AU     LIG 2700  13.133  41.962  10.534
    6AU    AUSL 2701  13.498  42.829   6.767
    6AU    AUSL 2702  13.714  42.468   6.927
    6AU     AUL 2703  13.746  42.510   6.615
    6AU       S 2704  13.445  42.751   6.348
    6AU     LIG 2705  13.241  42.696   5.940
    6AU     LIG 2706  13.085  42.725   5.515
    6AU     LIG 2707  12.860  42.663   5.129
    6AU     LIG 2708  12.446  42.578   4.952
    6AU     LIG 2709  12.216  42.713   4.585
    6AU       S 2710  13.356  42.310   6.782
    6AU     LIG 2711  13.036  41.958   6.720
    6AU     LIG 2712  12.698  41.757   6.461
    6AU     LIG 2713  12.501  41.425   6.166
    6AU     LIG 2714  12.569  41.226   5.723
    6AU     LIG 2715  12.745  41.098   5.279
    6AU    AUSL 2716  13.721  43.161   6.591
    6AU    AUSL 2717  13.380  43.236   6.913
    6AU     AUL 2718  13.293  43.046   6.661
    6AU       S 2719  13.373  43.495   6.653
    6AU     LIG 2720  13.059  43.591   6.354
    6AU     LIG 2721  12.853  43.855   6.033
    6AU     LIG 2722  12.683  43.943   5.605
    6AU     LIG 2723  12.376  44.113   5.297
    6AU     LIG 2724  12.188  44.242   4.895
    6AU       S 2725  13.656  43.110   6.349
    6AU     LIG 2726  13.547  43.128   5.893
    6AU     LIG 2727  13.556  42.918   5.469
    6AU     LIG 2728  13.352  42.877   5.027
    6AU     LIG 2729  13.328  43.039   4.553
    6AU     LIG 2730  13.241  43.248   4.111
    6AU    AUSL 2731  14.883  43.472   7.499
    6AU    AUSL 2732  14.773  43.305   7.081
    6AU     AUL 2733  15.119  43.602   7.279
    6AU       S 2734  14.893  43.410   6.941
    6AU     LIG 2735  15.118  43.451   6.519
    6AU     LIG 2736  15.464  43.673   6.243
    6AU     LIG 2737  15.876  43.753   5.995
    6AU     LIG 2738  16.031  43.964   5.598
    6AU     LIG 2739  16.251  44.258   5.306
    6AU       S 2740  15.265  43.325   7.642
    6AU     LIG 2741  15.458  43.704   7.736
    6AU     LIG 2742  15.881  43.914   7.671
    6AU     LIG 2743  16.273  44.186   7.727
    6AU     LIG 2744  16.683  44.424   7.810
    6AU     LIG 2745  17.105  44.615   7.862
    6AU    AUSL 2746  15.032  43.065   7.331
    6AU    AUSL 2747  14.993  42.732   7.692
    6AU     AUL 2748  15.314  42.788   7.545
    6AU       S 2749  15.179  43.153   7.334
    6AU     LIG 2750  15.623  43.232   7.221
    6AU     LIG 2751  16.133  43.210   7.233
    6AU     LIG 2752  16.546  43.145   6.967
    6AU     LIG 2753  16.964  43.372   7.007
    6AU     LIG 2754  17.287  43.672   6.808
    6AU       S 2755  15.222  42.340   7.682
    6AU     LIG 2756  15.640  42.410   7.807
    6AU     LIG 2757  15.970  42.106   7.724
    6AU     LIG 2758  16.395  41.987   7.862
    6AU     LIG 2759  16.822  41.970   8.041
    6AU     LIG 2760  17.147  42.269   8.134
    6AU    AUSL 2761  14.773  43.102   7.705
    6AU    AUSL 2762  14.535  43.517   7.755
    6AU     AUL 2763  14.875  43.542   7.804
    6AU       S 2764  14.869  43.745   8.213
    6AU     LIG 2765  15.203  43.979   8.372
    6AU     LIG 2766  15.414  44.205   8.712
    6AU     LIG 2767  15.705  44.528   8.892
    6AU     LIG 2768  15.944  44.918   9.046
    6AU     LIG 2769  16.312   0.167   9.236
    6AU       S 2770  15.129  43.158   7.801
    6AU     LIG 2771  15.555  43.077   7.963
    6AU     LIG 2772  15.996  43.034   7.976
    6AU     LIG 2773  16.403  43.256   7.957
    6AU     LIG 2774  16.846  43.418   7.973
    6AU     LIG 2775  17.260  43.608   7.864
    6AU    AUSL 2776  13.405  43.578   7.528
    6AU    AUSL 2777  13.506  43.336   7.904
    6AU     AUL 2778  13.188  43.672   7.769
    6AU       S 2779  13.332  43.511   8.174
    6AU     LIG 2780  13.251  43.436   8.636
    6AU     LIG 2781  13.101  43.682   9.021
    6AU     LIG 2782  12.741  43.879   9.272
    6AU     LIG 2783  12.535  44.050   9.665
    6AU     LIG 2784  12.257  44.294   9.954
    6AU       S 2785  13.424  43.957   7.454
    6AU     LIG 2786  12.968  44.110   7.514
    6AU     LIG 2787  12.527  44.367   7.551
    6AU     LIG 2788  12.138  44.584   7.775
    6AU     LIG 2789  11.672  44.577   7.759
    6AU     LIG 2790  11.275  44.792   7.659
    6AU    AUSL 2791  13.358  43.189   7.335
    6AU    AUSL 2792  13.473  43.632   7.106
    6AU     AUL 2793  13.190  43.498   7.168
    6AU       S 2794  12.946  43.091   7.003
    6AU     LIG 2795  12.585  43.355   7.127
    6AU     LIG 2796  12.170  43.585   6.984
    6AU     LIG 2797  11.747  43.802   6.838
    6AU     LIG 2798  11.377  43.840   6.546
    6AU     LIG 2799  10.916  43.953   6.491
    6AU       S 2800  13.296  43.890   6.894
    6AU     LIG 2801  13.322  44.023   6.444
    6AU     LIG 2802  13.067  44.308   6.169
    6AU     LIG 2803  12.723  44.641   6.189
    6AU     LIG 2804  12.443   0.019   6.182
    6AU     LIG 2805  12.173   0.358   6.087
    6AU    AUSL 2806  13.130  43.219   7.739
    6AU    AUSL 2807  13.087  42.862   7.382
    6AU     AUL 2808  12.986  43.196   7.463
    6AU       S 2809  12.812  42.765   7.589
    6AU     LIG 2810  12.373  42.772   7.435
    6AU     LIG 2811  11.951  42.648   7.581
    6AU     LIG 2812  11.559  42.401   7.386
    6AU     LIG 2813  11.146  42.309   7.216
    6AU     LIG 2814  10.990  41.966   6.959
    6AU       S 2815  13.042  43.152   7.986
    6AU     LIG 2816  12.575  43.106   8.155
    6AU     LIG 2817  12.139  43.365   8.239
    6AU     LIG 2818  11.768  43.652   8.417
    6AU     LIG 2819  11.387  43.967   8.417
    6AU     LIG 2820  11.064  44.347   8.403
    6AU    AUSL 2821  14.757  42.393   7.534
    6AU    AUSL 2822  14.597  42.669   7.863
    6AU     AUL 2823  14.913  42.570   7.932
    6AU       S 2824  14.932  42.235   7.532
    6AU     LIG 2825  15.251  41.851   7.590
    6AU     LIG 2826  15.699  41.788   7.435
    6AU     LIG 2827  16.159  41.671   7.506
    6AU     LIG 2828  16.501  41.353   7.509
    6AU     LIG 2829  16.778  41.183   7.835
    6AU       S 2830  14.828  42.131   8.003
    6AU     LIG 2831  15.068  41.837   8.317
    6AU     LIG 2832  15.295  41.606   8.661
    6AU     LIG 2833  15.538  41.344   8.978
    6AU     LIG 2834  15.845  41.193   9.317
    6AU     LIG 2835  16.136  41.354   9.674
    6AU    AUSL 2836  14.712  42.784   7.340
    6AU    AUSL 2837  14.696  42.376   7.104
    6AU     AUL 2838  14.979  42.597   7.196
    6AU       S 2839  15.215  42.326   7.460
    6AU     LIG 2840  15.676  42.321   7.312
    6AU     LIG 2841  16.076  42.086   7.200
    6AU     LIG 2842  16.390  41.759   7.054
    6AU     LIG 2843  16.820  41.604   7.009
    6AU     LIG 2844  17.240  41.823   6.991
    6AU       S 2845  14.893  42.277   6.851
    6AU     LIG 2846  14.781  41.830   6.813
    6AU     LIG 2847  14.974  41.428   6.635
    6AU     LIG 2848  15.197  41.134   6.328
    6AU     LIG 2849  15.346  40.713   6.140
    6AU     LIG 2850  15.624  40.403   5.911
    6AU    AUSL 2851  13.264  42.489   7.558
    6AU    AUSL 2852  13.436  42.715   7.174
    6AU     AUL 2853  13.077  42.597   7.235
    6AU       S 2854  13.233  42.448   6.836
    6AU     LIG 2855  12.749  42.373   6.801
    6AU     LIG 2856  12.368  42.156   6.576
    6AU     LIG 2857  12.232  41.855   6.227
    6AU     LIG 2858  11.884  41.627   6.009
    6AU     LIG 2859  11.727  41.391   5.644
    6AU       S 2860  12.846  42.490   7.638
    6AU     LIG 2861  12.512  42.207   7.609
    6AU     LIG 2862  12.241  41.883   7.773
    6AU     LIG 2863  11.774  41.849   7.761
    6AU     LIG 2864  11.446  41.526   7.817
    6AU     LIG 2865  11.130  41.312   7.569
    6AU    AUSL 2866  13.396  42.892   7.704
    6AU    AUSL 2867  13.608  42.495   7.815
    6AU     AUL 2868  13.203  42.660   7.880
    6AU       S 2869  13.293  42.246   8.046
    6AU     LIG 2870  12.918  42.013   7.906
    6AU     LIG 2871  12.623  41.656   8.031
    6AU     LIG 2872  12.372  41.347   8.303
    6AU     LIG 2873  12.192  41.006   8.596
    6AU     LIG 2874  12.226  40.567   8.774
    6AU       S 2875  12.797  42.806   7.749
    6AU     LIG 2876  12.423  42.607   7.918
    6AU     LIG 2877  12.072  42.332   7.952
    6AU     LIG 2878  11.628  42.359   7.884
    6AU     LIG 2879  11.191  42.303   7.742
    6AU     LIG 2880  10.851  41.950   7.756
    6AU    AUSL 2881  14.117  43.672   7.883
    6AU    AUSL 2882  13.671  43.735   7.835
    6AU     AUL 2883  13.935  43.804   8.176
    6AU       S 2884  13.543  43.926   7.952
    6AU     LIG 2885  13.332  44.200   8.265
    6AU     LIG 2886  13.293  44.530   8.577
    6AU     LIG 2887  13.152  44.973   8.592
    6AU     LIG 2888  12.749   0.091   8.728
    6AU     LIG 2889  12.429   0.166   9.010
    6AU       S 2890  14.157  44.156   7.963
    6AU     LIG 2891  14.216  44.298   8.364
    6AU     LIG 2892  14.137  44.727   8.517
    6AU     LIG 2893  14.022   0.121   8.775
    6AU     LIG 2894  14.211   0.401   9.110
    6AU     LIG 2895  14.137   0.663   9.504
    6AU    AUSL 2896  13.938  43.956   7.586
    6AU    AUSL 2897  14.224  43.886   7.193
    6AU     AUL 2898  14.004  44.158   7.341
    6AU       S 2899  13.983  44.151   7.810
    6AU     LIG 2900  13.986  44.623   7.766
    6AU     LIG 2901  13.913  44.964   8.088
    6AU     LIG 2902  13.862   0.412   8.264
    6AU     LIG 2903  13.940   0.816   8.511
    6AU     LIG 2904  13.736   1.244   8.548
    6AU       S 2905  14.130  44.182   6.899
    6AU     LIG 2906  14.472  44.319   7.122
    6AU     LIG 2907  14.722  44.689   7.004
    6AU     LIG 2908  14.801   0.142   6.874
    6AU     LIG 2909  14.765   0.643   6.857
    6AU     LIG 2910  14.841   1.064   6.608
    6AU    AUSL 2911  14.385  43.890   7.603
    6AU    AUSL 2912  14.412  43.595   8.181
    6AU     AUL 2913  14.493  43.838   7.940
    6AU       S 2914  14.639  43.681   8.377
    6AU     LIG 2915  14.913  43.780   8.736
    6AU     LIG 2916  15.216  43.890   9.061
    6AU     LIG 2917  15.512  44.206   9.246
    6AU     LIG 2918  15.741  44.393   9.592
    6AU     LIG 2919  15.732  44.564  10.031
    6AU       S 2920  14.340  44.210   7.687
    6AU     LIG 2921  14.470  44.560   7.975
    6AU     LIG 2922  14.760  44.821   8.244
    6AU     LIG 2923  14.855   0.302   8.362
    6AU     LIG 2924  14.878   0.806   8.414
    6AU     LIG 2925  14.705   1.265   8.384
    6AU    AUSL 2926  14.013  42.325   7.924
    6AU    AUSL 2927  14.435  42.265   7.786
    6AU     AUL 2928  14.222  42.171   8.158
    6AU       S 2929  14.033  41.786   7.987
    6AU     LIG 2930  13.844  41.532   8.298
    6AU     LIG 2931  13.643  41.133   8.385
    6AU     LIG 2932  13.640  40.677   8.421
    6AU     LIG 2933  13.796  40.361   8.717
    6AU     LIG 2934  13.945  40.343   9.168
    6AU       S 2935  14.578  42.057   7.848
    6AU     LIG 2936  14.622  41.604   8.070
    6AU     LIG 2937  14.920  41.345   8.380
    6AU     LIG 2938  15.283  41.086   8.595
    6AU     LIG 2939  15.632  40.845   8.840
    6AU     LIG 2940  16.030  40.565   8.762
    6AU    AUSL 2941  13.693  42.111   7.658
    6AU    AUSL 2942  13.737  42.429   8.239
    6AU     AUL 2943  13.734  42.145   8.013
    6AU       S 2944  13.803  41.719   7.824
    6AU     LIG 2945  13.608  41.295   7.891
    6AU     LIG 2946  13.424  40.859   7.987
    6AU     LIG 2947  13.361  40.381   8.023
    6AU     LIG 2948  13.461  39.922   8.104
    6AU     LIG 2949  13.303  39.505   8.286
    6AU       S 2950  13.471  42.329   8.363
    6AU     LIG 2951  13.120  41.963   8.420
    6AU     LIG 2952  12.759  41.692   8.521
    6AU     LIG 2953  12.530  41.390   8.793
    6AU     LIG 2954  12.546  41.112   9.170
    6AU     LIG 2955  12.781  40.964   9.563
    6AU    AUSL 2956  14.127  42.037   7.599
    6AU    AUSL 2957  13.898  42.297   7.312
    6AU     AUL 2958  13.799  41.945   7.418
    6AU       S 2959  14.149  41.864   7.140
    6AU     LIG 2960  13.757  41.580   7.102
    6AU     LIG 2961  13.568  41.168   7.020
    6AU     LIG 2962  13.527  40.702   6.965
    6AU     LIG 2963  13.545  40.222   6.885
    6AU     LIG 2964  13.586  39.758   6.776
    6AU       S 2965  14.139  41.822   7.746
    6AU     LIG 2966  14.124  41.319   7.829
    6AU     LIG 2967  13.941  40.894   8.017
    6AU     LIG 2968  13.881  40.397   8.062
    6AU     LIG 2969  14.009  39.919   8.039
    6AU     LIG 2970  14.332  39.567   8.169
    6AU    AUSL 2971  14.027  43.709   6.833
    6AU    AUSL 2972  14.581  43.661   7.260
    6AU     AUL 2973  14.388  43.802   6.881
    6AU       S 2974  14.017  43.981   6.647
    6AU     LIG 2975  14.481  44.258   6.582
    6AU     LIG 2976  14.516  44.734   6.529
    6AU     LIG 2977  14.421   0.085   6.237
    6AU     LIG 2978  14.280   0.444   5.968
    6AU     LIG 2979  14.043   0.839   6.013
    6AU       S 2980  14.745  43.828   7.160
    6AU     LIG 2981  14.920  44.208   6.912
    6AU     LIG 2982  15.328  44.277   6.694
    6AU     LIG 2983  15.597  44.613   6.484
    6AU     LIG 2984  15.995  44.899   6.409
    6AU     LIG 2985  16.237   0.176   6.103
    6AU    AUSL 2986  13.859  43.670   7.284
    6AU    AUSL 2987  13.799  43.374   6.953
    6AU     AUL 2988  13.736  43.825   7.023
    6AU       S 2989  13.928  44.207   6.881
    6AU     LIG 2990  14.152  44.677   6.897
    6AU     LIG 2991  14.277   0.141   6.788
    6AU     LIG 2992  14.244   0.628   6.802
    6AU     LIG 2993  14.000   1.028   6.739
    6AU     LIG 2994  13.590   1.237   6.825
    6AU       S 2995  13.584  43.612   6.640
    6AU     LIG 2996  13.548  43.623   6.181
    6AU     LIG 2997  13.340  43.942   5.894
    6AU     LIG 2998  13.131  44.191   5.533
    6AU     LIG 2999  12.991  44.498   5.179
    6AU     LIG 3000  12.849  44.837   4.879
    6AU    AUSL 3001  14.102  42.275   6.910
    6AU    AUSL 3002  13.477  42.270   7.246
    6AU     AUL 3003  13.759  42.122   6.977
    6AU       S 3004  13.302  42.217   7.073
    6AU     LIG 3005  12.892  42.111   7.221
    6AU     LIG 3006  12.556  41.889   6.973
    6AU     LIG 3007  12.271  41.616   6.697
    6AU     LIG 3008  12.004  41.341   6.409
    6AU     LIG 3009  11.618  41.118   6.189
    6AU       S 3010  14.161  41.855   6.932
    6AU     LIG 3011  14.100  41.391   6.783
    6AU     LIG 3012  13.859  40.988   6.631
    6AU     LIG 3013  13.670  40.574   6.487
    6AU     LIG 3014  13.630  40.124   6.386
    6AU     LIG 3015  13.662  39.858   6.030
    6AU    AUSL 3016  14.334  42.269   7.301
    6AU    AUSL 3017  14.366  42.616   6.944
    6AU     AUL 3018  14.432  42.232   6.907
    6AU       S 3019  14.393  41.899   7.237
    6AU     LIG 3020  14.211  41.409   7.305
    6AU     LIG 3021  14.041  40.975   7.114
    6AU     LIG 3022  14.002  40.527   6.879
    6AU     LIG 3023  14.050  40.063   6.695
    6AU     LIG 3024  14.425  39.764   6.536
    6AU       S 3025  14.679  42.454   6.595
    6AU     LIG 3026  14.522  42.062   6.435
    6AU     LIG 3027  14.721  41.671   6.258
    6AU     LIG 3028  14.948  41.380   5.940
    6AU     LIG 3029  15.178  41.144   5.585
    6AU     LIG 3030  15.296  40.965   5.149
    7AU     AUC 3031  18.491  26.701   7.504
    7AU     AUC 3032  18.785  26.696   7.336
    7AU     AUC 3033  18.751  26.692   7.673
    7AU     AUC 3034  18.213  26.692   7.344
    7AU     AUC 3035  18.232  26.744   7.686
    7AU     AUC 3036  18.325  26.978   7.499
    7AU     AUC 3037  18.674  26.966   7.489
    7AU     AUC 3038  18.294  26.432   7.513
    7AU     AUC 3039  18.653  26.428   7.514
    7AU     AUC 3040  18.493  26.535   7.774
    7AU     AUC 3041  18.486  26.897   7.755
    7AU     AUC 3042  18.488  26.534   7.241
    7AU     AUC 3043  18.521  26.848   7.233
    7AU     AUC 3044  19.120  26.688   7.185
    7AU     AUC 3045  19.111  26.678   7.521
    7AU     AUC 3046  19.046  26.669   7.875
    7AU     AUC 3047  17.898  26.699   7.181
    7AU     AUC 3048  17.882  26.745   7.541
    7AU     AUC 3049  17.942  26.789   7.877
    7AU     AUC 3050  18.171  27.302   7.464
    7AU     AUC 3051  18.526  27.321   7.437
    7AU     AUC 3052  18.850  27.257   7.470
    7AU     AUC 3053  18.089  26.153   7.517
    7AU     AUC 3054  18.423  26.091   7.477
    7AU     AUC 3055  18.815  26.103   7.498
    7AU     AUC 3056  18.475  26.362   8.073
    7AU     AUC 3057  18.494  26.716   8.102
    7AU     AUC 3058  18.523  27.076   8.043
    7AU     AUC 3059  18.517  26.359   6.959
    7AU     AUC 3060  18.510  26.671   6.898
    7AU     AUC 3061  18.517  26.991   6.924
    7AU     AUC 3062  18.767  26.468   7.998
    7AU     AUC 3063  18.793  26.855   7.994
    7AU     AUC 3064  18.836  26.512   7.029
    7AU     AUC 3065  18.842  26.862   7.038
    7AU     AUC 3066  18.191  26.590   8.021
    7AU     AUC 3067  18.223  26.964   7.987
    7AU     AUC 3068  18.188  26.517   7.054
    7AU     AUC 3069  18.173  26.825   7.004
    7AU     AUC 3070  19.035  26.976   7.332
    7AU     AUC 3071  18.963  26.963   7.695
    7AU     AUC 3072  18.001  27.007   7.340
    7AU     AUC 3073  18.034  27.080   7.685
    7AU     AUC 3074  18.992  26.378   7.356
    7AU     AUC 3075  18.948  26.357   7.684
    7AU     AUC 3076  17.951  26.412   7.378
    7AU     AUC 3077  18.018  26.463   7.725
    7AU     AUC 3078  18.357  27.250   7.746
    7AU     AUC 3079  18.684  27.192   7.763
    7AU     AUC 3080  18.277  26.251   7.798
    7AU     AUC 3081  18.616  26.187   7.777
    7AU     AUC 3082  18.323  27.126   7.185
    7AU     AUC 3083  18.709  27.145   7.162
    7AU     AUC 3084  18.274  26.219   7.227
    7AU     AUC 3085  18.664  26.242   7.226
    7AU    AUSL 3086  19.041  26.601   8.243
    7AU    AUSL 3087  18.782  26.170   8.176
    7AU     AUL 3088  19.094  26.198   8.334
    7AU       S 3089  19.096  25.789   8.122
    7AU     LIG 3090  18.978  25.565   8.442
    7AU     LIG 3091  19.131  25.166   8.580
    7AU     LIG 3092  19.394  24.954   8.914
    7AU     LIG 3093  19.657  24.770   9.245
    7AU     LIG 3094  19.678  24.819   9.716
    7AU       S 3095  19.279  26.612   8.393
    7AU     LIG 3096  19.180  26.656   8.844
    7AU     LIG 3097  19.303  26.469   9.260
    7AU     LIG 3098  19.620  26.342   9.599
    7AU     LIG 3099  20.016  26.395   9.878
    7AU     LIG 3100  20.329  26.579  10.196
    7AU    AUSL 3101  18.630  26.508   8.411
    7AU    AUSL 3102  18.375  26.909   8.438
    7AU     AUL 3103  18.562  26.787   8.732
    7AU       S 3104  18.809  26.422   8.609
    7AU     LIG 3105  18.659  26.351   9.011
    7AU     LIG 3106  18.901  26.143   9.354
    7AU     LIG 3107  19.141  25.968   9.721
    7AU     LIG 3108  19.171  25.909  10.187
    7AU     LIG 3109  19.007  25.825  10.621
    7AU       S 3110  18.134  26.654   8.653
    7AU     LIG 3111  18.102  26.586   9.137
    7AU     LIG 3112  17.802  26.558   9.501
    7AU     LIG 3113  17.685  26.601   9.953
    7AU     LIG 3114  17.777  26.907  10.324
    7AU     LIG 3115  17.895  27.251  10.643
    7AU    AUSL 3116  18.692  26.881   8.156
    7AU    AUSL 3117  19.131  27.013   8.119
    7AU     AUL 3118  18.927  26.902   8.447
    7AU       S 3119  18.621  27.252   8.625
    7AU     LIG 3120  19.006  27.154   8.872
    7AU     LIG 3121  19.219  27.254   9.280
    7AU     LIG 3122  19.190  27.329   9.760
    7AU     LIG 3123  19.156  27.325  10.241
    7AU     LIG 3124  19.351  27.353  10.671
    7AU       S 3125  19.277  27.171   8.290
    7AU     LIG 3126  19.689  27.179   8.345
    7AU     LIG 3127  19.931  27.333   8.697
    7AU     LIG 3128  20.245  27.571   8.948
    7AU     LIG 3129  20.593  27.721   9.206
    7AU     LIG 3130  20.675  27.888   9.633
    7AU    AUSL 3131  19.029  26.725   6.893
    7AU    AUSL 3132  18.925  27.160   6.821
    7AU     AUL 3133  19.202  26.970   6.626
    7AU       S 3134  18.859  26.888   6.348
    7AU     LIG 3135  19.226  26.905   6.004
    7AU     LIG 3136  19.308  26.590   5.664
    7AU     LIG 3137  19.534  26.462   5.268
    7AU     LIG 3138  19.929  26.440   4.989
    7AU     LIG 3139  20.280  26.292   4.690
    7AU       S 3140  19.261  27.406   6.823
    7AU     LIG 3141  19.449  27.557   6.436
    7AU     LIG 3142  19.636  27.600   6.011
    7AU     LIG 3143  19.901  27.614   5.618
    7AU     LIG 3144  20.035  27.902   5.281
    7AU     LIG 3145  20.069  28.287   5.022
    7AU    AUSL 3146  18.818  26.473   6.595
    7AU    AUSL 3147  19.225  26.340   6.932
    7AU     AUL 3148  19.194  26.499   6.656
    7AU       S 3149  19.288  26.030   6.704
    7AU     LIG 3150  19.394  25.616   6.428
    7AU     LIG 3151  19.595  25.183   6.354
    7AU     LIG 3152  19.907  24.895   6.105
    7AU     LIG 3153  20.227  24.879   5.734
    7AU     LIG 3154  20.410  25.094   5.336
    7AU       S 3155  18.936  26.689   6.318
    7AU     LIG 3156  18.850  26.339   6.052
    7AU     LIG 3157  18.839  26.131   5.628
    7AU     LIG 3158  18.947  26.154   5.168
    7AU     LIG 3159  19.037  26.065   4.707
    7AU     LIG 3160  19.194  25.936   4.258
    7AU    AUSL 3161  18.627  26.844   6.765
    7AU    AUSL 3162  18.394  26.459   6.712
    7AU     AUL 3163  18.543  26.498   6.448
    7AU       S 3164  18.097  26.512   6.300
    7AU     LIG 3165  18.320  26.293   5.984
    7AU     LIG 3166  18.162  26.117   5.587
    7AU     LIG 3167  17.915  26.132   5.176
    7AU     LIG 3168  17.594  25.987   4.850
    7AU     LIG 3169  17.372  25.708   4.519
    7AU       S 3170  18.711  26.950   6.452
    7AU     LIG 3171  18.564  26.768   5.980
    7AU     LIG 3172  18.787  26.636   5.599
    7AU     LIG 3173  19.046  26.670   5.202
    7AU     LIG 3174  19.121  26.909   4.793
    7AU     LIG 3175  19.292  27.221   4.466
    7AU    AUSL 3176  17.971  26.872   8.258
    7AU    AUSL 3177  18.283  27.203   8.126
    7AU     AUL 3178  18.150  27.154   8.460
    7AU       S 3179  17.969  26.792   8.705
    7AU     LIG 3180  17.704  26.431   8.821
    7AU     LIG 3181  17.494  26.273   9.204
    7AU     LIG 3182  17.328  26.336   9.643
    7AU     LIG 3183  16.959  26.376   9.934
    7AU     LIG 3184  16.588  26.341  10.234
    7AU       S 3185  17.882  27.457   8.219
    7AU     LIG 3186  17.726  27.599   8.631
    7AU     LIG 3187  17.533  27.768   9.030
    7AU     LIG 3188  17.329  28.027   9.372
    7AU     LIG 3189  17.311  28.312   9.761
    7AU     LIG 3190  17.145  28.638  10.066
    7AU    AUSL 3191  18.271  26.562   8.175
    7AU    AUSL 3192  17.835  26.457   8.154
    7AU     AUL 3193  17.779  26.665   8.307
    7AU       S 3194  17.708  26.188   8.361
    7AU     LIG 3195  17.265  26.039   8.199
    7AU     LIG 3196  17.075  25.612   8.255
    7AU     LIG 3197  16.856  25.329   8.551
    7AU     LIG 3198  16.582  25.133   8.876
    7AU     LIG 3199  16.152  25.137   9.087
    7AU       S 3200  18.160  26.504   8.555
    7AU     LIG 3201  18.156  26.167   8.858
    7AU     LIG 3202  17.974  26.101   9.291
    7AU     LIG 3203  17.773  26.090   9.725
    7AU     LIG 3204  17.610  25.932  10.145
    7AU     LIG 3205  17.640  25.860  10.615
    7AU    AUSL 3206  17.990  26.607   6.787
    7AU    AUSL 3207  18.174  26.235   7.006
    7AU     AUL 3208  18.157  26.227   6.654
    7AU       S 3209  17.856  26.500   6.427
    7AU     LIG 3210  17.756  26.309   6.004
    7AU     LIG 3211  17.688  26.382   5.564
    7AU     LIG 3212  17.387  26.309   5.214
    7AU     LIG 3213  16.931  26.334   5.064
    7AU     LIG 3214  16.593  26.444   4.750
    7AU       S 3215  17.747  26.089   6.813
    7AU     LIG 3216  17.514  25.719   6.645
    7AU     LIG 3217  17.291  25.310   6.548
    7AU     LIG 3218  17.098  24.984   6.257
    7AU     LIG 3219  16.872  24.818   5.894
    7AU     LIG 3220  16.615  24.684   5.531
    7AU    AUSL 3221  18.257  26.885   6.554
    7AU    AUSL 3222  17.763  26.958   6.924
    7AU     AUL 3223  17.899  26.926   6.598
    7AU       S 3224  17.512  27.140   6.748
    7AU     LIG 3225  17.173  27.339   6.550
    7AU     LIG 3226  17.109  27.543   6.155
    7AU     LIG 3227  17.009  27.724   5.732
    7AU     LIG 3228  16.707  27.827   5.375
    7AU     LIG 3229  16.460  27.935   4.981
    7AU       S 3230  18.166  26.736   6.271
    7AU     LIG 3231  18.055  26.694   5.816
    7AU     LIG 3232  18.144  26.580   5.378
    7AU     LIG 3233  18.023  26.591   4.932
    7AU     LIG 3234  17.956  26.892   4.572
    7AU     LIG 3235  17.774  27.243   4.305
    7AU    AUSL 3236  19.278  27.211   7.520
    7AU    AUSL 3237  19.274  27.016   7.101
    7AU     AUL 3238  19.557  27.338   7.354
    7AU       S 3239  19.365  27.203   6.980
    7AU     LIG 3240  19.689  27.163   6.680
    7AU     LIG 3241  19.949  27.408   6.389
    7AU     LIG 3242  20.139  27.699   6.081
    7AU     LIG 3243  20.328  27.920   5.716
    7AU     LIG 3244  20.488  28.150   5.336
    7AU       S 3245  19.672  27.087   7.736
    7AU     LIG 3246  20.070  27.329   7.676
    7AU     LIG 3247  20.526  27.483   7.650
    7AU     LIG 3248  20.762  27.893   7.638
    7AU     LIG 3249  21.039  28.219   7.823
    7AU     LIG 3250  21.495  28.335   7.783
    7AU    AUSL 3251  19.487  26.800   7.409
    7AU    AUSL 3252  19.424  26.473   7.727
    7AU     AUL 3253  19.784  26.579   7.738
    7AU       S 3254  19.620  26.891   7.458
    7AU     LIG 3255  20.101  26.868   7.462
    7AU     LIG 3256  20.563  27.039   7.370
    7AU     LIG 3257  20.869  27.245   7.067
    7AU     LIG 3258  21.348  27.226   7.003
    7AU     LIG 3259  21.764  27.368   6.846
    7AU       S 3260  19.688  26.161   7.569
    7AU     LIG 3261  20.141  25.979   7.674
    7AU     LIG 3262  20.588  25.784   7.754
    7AU     LIG 3263  21.007  25.847   7.995
    7AU     LIG 3264  21.441  25.720   7.963
    7AU     LIG 3265  21.853  25.784   8.216
    7AU    AUSL 3266  19.188  26.834   7.737
    7AU    AUSL 3267  18.931  27.223   7.783
    7AU     AUL 3268  19.260  27.282   7.828
    7AU       S 3269  19.255  27.468   8.247
    7AU     LIG 3270  19.664  27.696   8.351
    7AU     LIG 3271  20.083  27.792   8.522
    7AU     LIG 3272  20.246  28.117   8.807
    7AU     LIG 3273  20.333  28.593   8.863
    7AU     LIG 3274  20.742  28.833   8.923
    7AU       S 3275  19.523  26.916   7.885
    7AU     LIG 3276  20.009  26.913   8.034
    7AU     LIG 3277  20.426  26.991   7.865
    7AU     LIG 3278  20.863  27.087   7.831
    7AU     LIG 3279  21.301  27.105   7.965
    7AU     LIG 3280  21.732  27.216   8.051
    7AU    AUSL 3281  17.843  27.308   7.505
    7AU    AUSL 3282  17.927  27.085   7.889
    7AU     AUL 3283  17.618  27.417   7.748
    7AU       S 3284  17.782  27.272   8.149
    7AU     LIG 3285  17.583  27.114   8.515
    7AU     LIG 3286  17.291  27.346   8.817
    7AU     LIG 3287  17.067  27.574   9.187
    7AU     LIG 3288  16.704  27.639   9.505
    7AU     LIG 3289  16.358  27.743   9.835
    7AU       S 3290  17.847  27.674   7.418
    7AU     LIG 3291  17.342  27.657   7.338
    7AU     LIG 3292  16.867  27.862   7.366
    7AU     LIG 3293  16.462  28.132   7.534
    7AU     LIG 3294  16.166  28.457   7.763
    7AU     LIG 3295  15.759  28.538   8.030
    7AU    AUSL 3296  17.800  26.899   7.341
    7AU    AUSL 3297  17.926  27.343   7.082
    7AU     AUL 3298  17.627  27.242   7.195
    7AU       S 3299  17.391  26.700   6.987
    7AU     LIG 3300  17.104  27.082   7.012
    7AU     LIG 3301  16.760  27.364   6.896
    7AU     LIG 3302  16.295  27.470   6.869
    7AU     LIG 3303  15.837  27.636   6.801
    7AU     LIG 3304  15.399  27.828   6.740
    7AU       S 3305  17.758  27.593   6.890
    7AU     LIG 3306  17.411  27.808   6.586
    7AU     LIG 3307  17.172  28.162   6.313
    7AU     LIG 3308  16.998  28.630   6.224
    7AU     LIG 3309  16.725  28.965   5.991
    7AU     LIG 3310  16.280  29.155   6.101
    7AU    AUSL 3311  17.555  26.966   7.717
    7AU    AUSL 3312  17.510  26.592   7.419
    7AU     AUL 3313  17.401  26.913   7.426
    7AU       S 3314  17.249  26.518   7.642
    7AU     LIG 3315  16.988  26.320   7.262
    7AU     LIG 3316  16.596  26.090   7.278
    7AU     LIG 3317  16.152  25.947   7.379
    7AU     LIG 3318  15.691  25.966   7.289
    7AU     LIG 3319  15.401  25.638   7.131
    7AU       S 3320  17.469  26.935   7.987
    7AU     LIG 3321  17.119  27.137   8.264
    7AU     LIG 3322  16.643  27.232   8.140
    7AU     LIG 3323  16.251  27.511   8.235
    7AU     LIG 3324  15.776  27.488   8.123
    7AU     LIG 3325  15.336  27.678   8.190
    7AU    AUSL 3326  19.213  26.114   7.559
    7AU    AUSL 3327  19.026  26.384   7.876
    7AU     AUL 3328  19.363  26.284   7.940
    7AU       S 3329  19.507  25.997   7.581
    7AU     LIG 3330  19.793  25.630   7.538
    7AU     LIG 3331  20.217  25.418   7.643
    7AU     LIG 3332  20.517  25.041   7.774
    7AU     LIG 3333  20.940  24.925   7.582
    7AU     LIG 3334  21.327  24.862   7.342
    7AU       S 3335  19.242  25.850   7.994
    7AU     LIG 3336  19.496  25.560   8.303
    7AU     LIG 3337  19.658  25.301   8.651
    7AU     LIG 3338  19.941  25.017   8.889
    7AU     LIG 3339  20.343  24.925   9.080
    7AU     LIG 3340  20.810  24.881   9.123
    7AU    AUSL 3341  19.200  26.492   7.331
    7AU    AUSL 3342  19.064  25.993   7.165
    7AU     AUL 3343  19.340  26.140   7.175
    7AU       S 3344  19.689  26.356   7.341
    7AU     LIG 3345  19.969  25.988   7.189
    7AU     LIG 3346  20.401  25.765   7.251
    7AU     LIG 3347  20.831  25.689   7.028
    7AU     LIG 3348  21.315  25.644   6.954
    7AU     LIG 3349  21.781  25.570   6.919
    7AU       S 3350  19.248  25.799   6.860
    7AU     LIG 3351  19.121  25.337   6.899
    7AU     LIG 3352  19.295  24.911   6.747
    7AU     LIG 3353  19.616  24.677   6.488
    7AU     LIG 3354  19.865  24.356   6.246
    7AU     LIG 3355  20.187  24.019   6.144
    7AU    AUSL 3356  17.681  26.218   7.589
    7AU    AUSL 3357  17.816  26.451   7.151
    7AU     AUL 3358  17.474  26.299   7.289
    7AU       S 3359  17.686  26.268   6.882
    7AU     LIG 3360  17.238  26.115   6.856
    7AU     LIG 3361  16.990  25.727   6.711
    7AU     LIG 3362  16.781  25.347   6.486
    7AU     LIG 3363  16.525  25.120   6.149
    7AU     LIG 3364  16.264  24.810   5.902
    7AU       S 3365  17.234  26.255   7.697
    7AU     LIG 3366  17.028  25.882   7.531
    7AU     LIG 3367  16.628  25.626   7.505
    7AU     LIG 3368  16.225  25.522   7.721
    7AU     LIG 3369  15.920  25.157   7.730
    7AU     LIG 3370  15.651  24.920   7.426
    7AU    AUSL 3371  17.800  26.619   7.756
    7AU    AUSL 3372  18.022  26.217   7.848
    7AU     AUL 3373  17.628  26.343   7.920
    7AU       S 3374  17.740  25.969   8.155
    7AU     LIG 3375  17.530  25.575   8.015
    7AU     LIG 3376  17.306  25.142   8.031
    7AU     LIG 3377  16.955  24.909   8.266
    7AU     LIG 3378  16.538  24.674   8.384
    7AU     LIG 3379  16.290  24.323   8.597
    7AU       S 3380  17.236  26.557   7.803
    7AU     LIG 3381  16.746  26.441   7.695
    7AU     LIG 3382  16.304  26.449   7.512
    7AU     LIG 3383  15.919  26.260   7.726
    7AU     LIG 3384  15.637  25.851   7.793
    7AU     LIG 3385  15.332  25.536   8.017
    7AU    AUSL 3386  18.546  27.450   7.884
    7AU    AUSL 3387  18.108  27.475   7.810
    7AU     AUL 3388  18.345  27.532   8.169
    7AU       S 3389  17.971  27.683   7.924
    7AU     LIG 3390  17.610  27.873   8.201
    7AU     LIG 3391  17.423  28.066   8.612
    7AU     LIG 3392  17.227  28.457   8.850
    7AU     LIG 3393  17.025  28.904   8.851
    7AU     LIG 3394  16.893  29.237   8.553
    7AU       S 3395  18.547  27.871   7.926
    7AU     LIG 3396  18.707  28.038   8.292
    7AU     LIG 3397  18.889  28.428   8.473
    7AU     LIG 3398  18.995  28.876   8.570
    7AU     LIG 3399  18.842  29.130   8.938
    7AU     LIG 3400  18.655  29.468   9.196
    7AU    AUSL 3401  18.380  27.668   7.530
    7AU    AUSL 3402  18.673  27.586   7.167
    7AU     AUL 3403  18.601  27.928   7.316
    7AU       S 3404  18.387  27.901   7.740
    7AU     LIG 3405  18.498  28.369   7.918
    7AU     LIG 3406  18.724  28.737   8.105
    7AU     LIG 3407  18.620  29.157   8.220
    7AU     LIG 3408  18.480  29.592   8.255
    7AU     LIG 3409  18.128  29.858   8.411
    7AU       S 3410  18.417  27.760   6.933
    7AU     LIG 3411  18.859  28.033   6.913
    7AU     LIG 3412  19.087  28.487   6.925
    7AU     LIG 3413  19.065  28.912   6.729
    7AU     LIG 3414  19.093  29.380   6.734
    7AU     LIG 3415  19.341  29.788   6.727
    7AU    AUSL 3416  18.835  27.585   7.577
    7AU    AUSL 3417  18.788  27.295   8.203
    7AU     AUL 3418  18.892  27.556   7.964
    7AU       S 3419  19.037  27.393   8.406
    7AU     LIG 3420  19.411  27.455   8.730
    7AU     LIG 3421  19.744  27.776   8.902
    7AU     LIG 3422  20.040  27.942   9.248
    7AU     LIG 3423  20.145  28.022   9.708
    7AU     LIG 3424  19.992  28.192  10.132
    7AU       S 3425  18.759  27.944   7.752
    7AU     LIG 3426  19.017  28.284   7.960
    7AU     LIG 3427  19.237  28.645   8.149
    7AU     LIG 3428  19.169  29.090   8.121
    7AU     LIG 3429  19.020  29.465   8.345
    7AU     LIG 3430  19.099  29.897   8.505
    7AU    AUSL 3431  18.440  26.063   7.924
    7AU    AUSL 3432  18.857  25.993   7.771
    7AU     AUL 3433  18.647  25.888   8.150
    7AU       S 3434  18.445  25.496   8.019
    7AU     LIG 3435  18.684  25.187   8.251
    7AU     LIG 3436  18.611  24.797   8.467
    7AU     LIG 3437  18.412  24.407   8.600
    7AU     LIG 3438  18.424  24.101   8.931
    7AU     LIG 3439  18.731  23.810   9.121
    7AU       S 3440  19.007  25.763   7.835
    7AU     LIG 3441  19.146  25.306   8.023
    7AU     LIG 3442  19.497  25.029   8.246
    7AU     LIG 3443  19.688  24.709   8.572
    7AU     LIG 3444  20.010  24.475   8.888
    7AU     LIG 3445  20.284  24.055   8.957
    7AU    AUSL 3446  18.108  25.844   7.672
    7AU    AUSL 3447  18.193  26.153   8.262
    7AU     AUL 3448  18.161  25.870   8.024
    7AU       S 3449  18.242  25.433   7.871
    7AU     LIG 3450  17.879  25.180   7.975
    7AU     LIG 3451  17.698  24.777   7.923
    7AU     LIG 3452  17.714  24.343   8.055
    7AU     LIG 3453  17.700  23.864   8.150
    7AU     LIG 3454  17.630  23.411   8.388
    7AU       S 3455  17.937  26.050   8.414
    7AU     LIG 3456  17.572  25.706   8.529
    7AU     LIG 3457  17.379  25.273   8.517
    7AU     LIG 3458  17.139  24.949   8.755
    7AU     LIG 3459  16.946  24.880   9.169
    7AU     LIG 3460  16.970  24.801   9.635
    7AU    AUSL 3461  18.538  25.744   7.629
    7AU    AUSL 3462  18.284  25.860   7.269
    7AU     AUL 3463  18.159  25.611   7.450
    7AU       S 3464  18.525  25.572   7.168
    7AU     LIG 3465  18.258  25.177   7.219
    7AU     LIG 3466  18.013  24.757   7.172
    7AU     LIG 3467  18.017  24.318   6.975
    7AU     LIG 3468  17.928  23.874   6.817
    7AU     LIG 3469  17.641  23.634   6.521
    7AU       S 3470  18.543  25.574   7.760
    7AU     LIG 3471  18.728  25.161   7.743
    7AU     LIG 3472  18.610  24.759   7.942
    7AU     LIG 3473  18.521  24.319   7.907
    7AU     LIG 3474  18.801  23.926   8.028
    7AU     LIG 3475  18.900  23.625   8.378
    7AU    AUSL 3476  18.511  27.304   6.848
    7AU    AUSL 3477  18.946  27.268   7.247
    7AU     AUL 3478  18.810  27.488   6.865
    7AU       S 3479  18.416  27.706   6.715
    7AU     LIG 3480  18.563  28.104   6.512
    7AU     LIG 3481  18.902  28.429   6.449
    7AU     LIG 3482  18.970  28.830   6.235
    7AU     LIG 3483  19.041  29.061   5.853
    7AU     LIG 3484  18.855  29.340   5.527
    7AU       S 3485  19.184  27.506   7.132
    7AU     LIG 3486  19.604  27.745   6.900
    7AU     LIG 3487  19.858  27.922   6.486
    7AU     LIG 3488  20.221  28.183   6.250
    7AU     LIG 3489  20.547  28.539   6.363
    7AU     LIG 3490  20.969  28.783   6.314
    7AU    AUSL 3491  18.313  27.353   7.250
    7AU    AUSL 3492  18.204  27.020   6.955
    7AU     AUL 3493  18.162  27.329   6.810
    7AU       S 3494  18.222  27.729   7.070
    7AU     LIG 3495  18.376  28.247   6.977
    7AU     LIG 3496  18.603  28.660   6.799
    7AU     LIG 3497  18.603  29.156   6.780
    7AU     LIG 3498  18.318  29.520   6.634
    7AU     LIG 3499  17.944  29.830   6.758
    7AU       S 3500  17.723  27.359   6.661
    7AU     LIG 3501  17.687  27.536   6.255
    7AU     LIG 3502  17.480  27.854   5.981
    7AU     LIG 3503  17.408  28.002   5.538
    7AU     LIG 3504  17.354  28.192   5.107
    7AU     LIG 3505  17.251  28.589   4.881
    7AU    AUSL 3506  18.501  25.974   6.897
    7AU    AUSL 3507  17.890  26.022   7.266
    7AU     AUL 3508  18.141  25.846   6.965
    7AU       S 3509  17.700  25.961   7.064
    7AU     LIG 3510  17.317  25.682   7.127
    7AU     LIG 3511  17.037  25.299   6.999
    7AU     LIG 3512  16.915  24.901   6.738
    7AU     LIG 3513  16.679  24.692   6.379
    7AU     LIG 3514  16.589  24.405   6.010
    7AU       S 3515  18.540  25.555   6.946
    7AU     LIG 3516  18.558  25.115   6.779
    7AU     LIG 3517  18.293  24.716   6.716
    7AU     LIG 3518  18.241  24.311   6.498
    7AU     LIG 3519  18.499  24.077   6.182
    7AU     LIG 3520  18.906  23.892   6.108
    7AU    AUSL 3521  18.678  26.017   7.327
    7AU    AUSL 3522  18.780  26.292   6.978
    7AU     AUL 3523  18.814  25.929   6.939
    7AU       S 3524  18.766  25.596   7.254
    7AU     LIG 3525  18.772  25.130   7.235
    7AU     LIG 3526  18.514  24.735   7.166
    7AU     LIG 3527  18.566  24.323   6.954
    7AU     LIG 3528  18.872  23.966   6.932
    7AU     LIG 3529  18.910  23.652   6.598
    7AU       S 3530  19.050  26.047   6.576
    7AU     LIG 3531  18.884  25.612   6.539
    7AU     LIG 3532  19.062  25.192   6.387
    7AU     LIG 3533  19.274  24.824   6.141
    7AU     LIG 3534  19.577  24.585   5.848
    7AU     LIG 3535  19.793  24.557   5.427
    8AU     AUC 3536  16.423  34.686   7.509
    8AU     AUC 3537  16.694  34.685   7.341
    8AU     AUC 3538  16.685  34.671   7.675
    8AU     AUC 3539  16.142  34.688   7.346
    8AU     AUC 3540  16.178  34.729   7.697
    8AU     AUC 3541  16.261  34.964   7.510
    8AU     AUC 3542  16.606  34.955   7.494
    8AU     AUC 3543  16.233  34.431   7.517
    8AU     AUC 3544  16.582  34.398   7.509
    8AU     AUC 3545  16.429  34.515   7.782
    8AU     AUC 3546  16.427  34.875   7.768
    8AU     AUC 3547  16.404  34.517   7.243
    8AU     AUC 3548  16.439  34.835   7.232
    8AU     AUC 3549  17.015  34.678   7.176
    8AU     AUC 3550  17.034  34.655   7.511
    8AU     AUC 3551  16.986  34.642   7.865
    8AU     AUC 3552  15.826  34.684   7.179
    8AU     AUC 3553  15.818  34.738   7.541
    8AU     AUC 3554  15.881  34.765   7.895
    8AU     AUC 3555  16.107  35.282   7.493
    8AU     AUC 3556  16.463  35.307   7.448
    8AU     AUC 3557  16.791  35.242   7.481
    8AU     AUC 3558  16.013  34.147   7.532
    8AU     AUC 3559  16.371  34.087   7.500
    8AU     AUC 3560  16.742  34.089   7.489
    8AU     AUC 3561  16.408  34.336   8.083
    8AU     AUC 3562  16.439  34.693   8.111
    8AU     AUC 3563  16.467  35.047   8.062
    8AU     AUC 3564  16.421  34.332   6.965
    8AU     AUC 3565  16.402  34.668   6.901
    8AU     AUC 3566  16.415  35.001   6.918
    8AU     AUC 3567  16.705  34.452   7.998
    8AU     AUC 3568  16.742  34.838   7.994
    8AU     AUC 3569  16.730  34.510   7.017
    8AU     AUC 3570  16.727  34.866   7.036
    8AU     AUC 3571  16.124  34.568   8.026
    8AU     AUC 3572  16.166  34.936   8.011
    8AU     AUC 3573  16.100  34.490   7.056
    8AU     AUC 3574  16.084  34.819   7.009
    8AU     AUC 3575  16.956  34.959   7.332
    8AU     AUC 3576  16.906  34.940   7.692
    8AU     AUC 3577  15.943  34.991   7.340
    8AU     AUC 3578  15.970  35.055   7.701
    8AU     AUC 3579  16.904  34.372   7.339
    8AU     AUC 3580  16.872  34.331   7.679
    8AU     AUC 3581  15.894  34.383   7.365
    8AU     AUC 3582  15.958  34.447   7.719
    8AU     AUC 3583  16.291  35.220   7.772
    8AU     AUC 3584  16.633  35.165   7.770
    8AU     AUC 3585  16.207  34.229   7.808
    8AU     AUC 3586  16.546  34.165   7.782
    8AU     AUC 3587  16.252  35.121   7.190
    8AU     AUC 3588  16.627  35.147   7.177
    8AU     AUC 3589  16.211  34.211   7.225
    8AU     AUC 3590  16.608  34.223   7.218
    8AU    AUSL 3591  16.992  34.577   8.230
    8AU    AUSL 3592  16.721  34.153   8.177
    8AU     AUL 3593  17.034  34.175   8.334
    8AU       S 3594  17.055  33.781   8.105
    8AU     LIG 3595  16.956  33.584   8.446
    8AU     LIG 3596  17.094  33.192   8.616
    8AU     LIG 3597  17.343  32.995   8.952
    8AU     LIG 3598  17.619  32.956   9.314
    8AU     LIG 3599  17.897  32.982   9.695
    8AU       S 3600  17.232  34.583   8.348
    8AU     LIG 3601  17.138  34.617   8.797
    8AU     LIG 3602  17.333  34.510   9.206
    8AU     LIG 3603  17.740  34.499   9.462
    8AU     LIG 3604  18.013  34.468   9.853
    8AU     LIG 3605  18.199  34.400  10.287
    8AU    AUSL 3606  16.590  34.494   8.415
    8AU    AUSL 3607  16.328  34.872   8.452
    8AU     AUL 3608  16.540  34.788   8.747
    8AU       S 3609  16.736  34.410   8.587
    8AU     LIG 3610  16.584  34.273   8.974
    8AU     LIG 3611  16.780  34.075   9.374
    8AU     LIG 3612  16.961  33.834   9.770
    8AU     LIG 3613  17.155  33.775  10.221
    8AU     LIG 3614  17.086  33.753  10.701
    8AU       S 3615  16.127  34.615   8.674
    8AU     LIG 3616  16.167  34.526   9.140
    8AU     LIG 3617  15.877  34.548   9.498
    8AU     LIG 3618  15.702  34.609   9.923
    8AU     LIG 3619  15.608  34.917  10.272
    8AU     LIG 3620  15.505  35.273  10.573
    8AU    AUSL 3621  16.644  34.871   8.164
    8AU    AUSL 3622  17.090  34.984   8.107
    8AU     AUL 3623  16.894  34.882   8.444
    8AU       S 3624  16.557  35.245   8.601
    8AU     LIG 3625  16.895  35.120   8.906
    8AU     LIG 3626  17.077  35.232   9.341
    8AU     LIG 3627  17.056  35.328   9.831
    8AU     LIG 3628  17.050  35.405  10.319
    8AU     LIG 3629  17.176  35.495  10.790
    8AU       S 3630  17.252  35.131   8.267
    8AU     LIG 3631  17.613  34.946   8.433
    8AU     LIG 3632  17.988  35.124   8.652
    8AU     LIG 3633  18.199  35.369   8.998
    8AU     LIG 3634  18.431  35.609   9.317
    8AU     LIG 3635  18.775  35.731   9.618
    8AU    AUSL 3636  16.867  34.726   6.895
    8AU    AUSL 3637  16.786  35.160   6.872
    8AU     AUL 3638  16.958  35.067   6.625
    8AU       S 3639  16.821  34.798   6.293
    8AU     LIG 3640  17.225  34.800   6.059
    8AU     LIG 3641  17.460  34.491   5.809
    8AU     LIG 3642  17.595  34.357   5.400
    8AU     LIG 3643  17.820  34.348   5.007
    8AU     LIG 3644  18.235  34.223   4.811
    8AU       S 3645  17.204  35.387   6.872
    8AU     LIG 3646  17.391  35.391   6.467
    8AU     LIG 3647  17.618  35.499   6.082
    8AU     LIG 3648  17.770  35.710   5.698
    8AU     LIG 3649  17.795  36.058   5.377
    8AU     LIG 3650  17.852  36.373   5.025
    8AU    AUSL 3651  16.693  34.462   6.586
    8AU    AUSL 3652  17.133  34.389   6.901
    8AU     AUL 3653  17.072  34.599   6.654
    8AU       S 3654  17.257  34.158   6.650
    8AU     LIG 3655  17.681  33.920   6.610
    8AU     LIG 3656  17.869  33.505   6.486
    8AU     LIG 3657  18.195  33.357   6.164
    8AU     LIG 3658  18.455  33.381   5.770
    8AU     LIG 3659  18.408  33.243   5.314
    8AU       S 3660  16.821  34.581   6.257
    8AU     LIG 3661  16.975  34.345   5.932
    8AU     LIG 3662  17.117  34.199   5.517
    8AU     LIG 3663  17.241  34.129   5.072
    8AU     LIG 3664  17.232  33.850   4.683
    8AU     LIG 3665  17.403  33.795   4.251
    8AU    AUSL 3666  16.515  34.874   6.678
    8AU    AUSL 3667  16.294  34.475   6.764
    8AU     AUL 3668  16.413  34.511   6.450
    8AU       S 3669  15.981  34.503   6.302
    8AU     LIG 3670  16.102  34.333   5.916
    8AU     LIG 3671  15.894  34.042   5.624
    8AU     LIG 3672  15.650  33.979   5.232
    8AU     LIG 3673  15.428  34.044   4.820
    8AU     LIG 3674  15.272  33.835   4.412
    8AU       S 3675  16.586  34.933   6.347
    8AU     LIG 3676  16.682  34.828   5.834
    8AU     LIG 3677  17.055  34.714   5.561
    8AU     LIG 3678  17.254  34.662   5.139
    8AU     LIG 3679  17.245  34.871   4.701
    8AU     LIG 3680  17.312  35.027   4.253
    8AU    AUSL 3681  15.916  34.833   8.290
    8AU    AUSL 3682  16.209  35.188   8.175
    8AU     AUL 3683  16.087  35.113   8.495
    8AU       S 3684  15.948  34.740   8.746
    8AU     LIG 3685  15.683  34.447   8.964
    8AU     LIG 3686  15.431  34.334   9.348
    8AU     LIG 3687  15.254  34.389   9.784
    8AU     LIG 3688  14.959  34.407  10.155
    8AU     LIG 3689  14.577  34.409  10.444
    8AU       S 3690  15.836  35.436   8.261
    8AU     LIG 3691  15.748  35.596   8.668
    8AU     LIG 3692  15.586  35.815   9.043
    8AU     LIG 3693  15.612  36.167   9.339
    8AU     LIG 3694  15.392  36.323   9.717
    8AU     LIG 3695  15.302  36.662  10.030
    8AU    AUSL 3696  16.219  34.526   8.190
    8AU    AUSL 3697  15.761  34.455   8.121
    8AU     AUL 3698  15.772  34.559   8.362
    8AU       S 3699  15.588  34.123   8.276
    8AU     LIG 3700  15.155  34.080   8.165
    8AU     LIG 3701  14.877  33.705   8.216
    8AU     LIG 3702  14.631  33.350   8.448
    8AU     LIG 3703  14.469  33.083   8.816
    8AU     LIG 3704  14.294  32.849   9.171
    8AU       S 3705  16.160  34.443   8.595
    8AU     LIG 3706  16.060  34.110   8.850
    8AU     LIG 3707  15.890  34.079   9.289
    8AU     LIG 3708  15.701  34.100   9.736
    8AU     LIG 3709  15.575  33.865  10.148
    8AU     LIG 3710  15.477  33.687  10.593
    8AU    AUSL 3711  15.856  34.533   6.785
    8AU    AUSL 3712  16.057  34.167   6.955
    8AU     AUL 3713  16.092  34.195   6.638
    8AU       S 3714  15.807  34.447   6.366
    8AU     LIG 3715  15.593  34.324   5.993
    8AU     LIG 3716  15.387  34.168   5.633
    8AU     LIG 3717  15.227  34.287   5.236
    8AU     LIG 3718  14.863  34.245   4.965
    8AU     LIG 3719  14.498  34.303   4.681
    8AU       S 3720  15.689  34.024   6.802
    8AU     LIG 3721  15.366  33.668   6.722
    8AU     LIG 3722  15.101  33.396   6.444
    8AU     LIG 3723  15.004  33.362   5.972
    8AU     LIG 3724  14.947  33.224   5.519
    8AU     LIG 3725  14.885  32.854   5.227
    8AU    AUSL 3726  16.091  34.852   6.598
    8AU    AUSL 3727  15.743  34.945   6.920
    8AU     AUL 3728  15.654  34.746   6.673
    8AU       S 3729  15.751  35.190   6.669
    8AU     LIG 3730  15.373  35.341   6.518
    8AU     LIG 3731  15.244  35.559   6.122
    8AU     LIG 3732  15.094  35.696   5.689
    8AU     LIG 3733  14.712  35.737   5.388
    8AU     LIG 3734  14.516  35.913   4.997
    8AU       S 3735  16.022  34.793   6.361
    8AU     LIG 3736  15.837  34.789   5.920
    8AU     LIG 3737  15.753  34.528   5.530
    8AU     LIG 3738  15.686  34.470   5.067
    8AU     LIG 3739  15.640  34.681   4.645
    8AU     LIG 3740  15.601  34.988   4.279
    8AU    AUSL 3741  17.239  35.172   7.510
    8AU    AUSL 3742  17.163  34.975   7.086
    8AU     AUL 3743  17.507  35.264   7.281
    8AU       S 3744  17.268  35.074   6.955
    8AU     LIG 3745  17.697  35.145   6.794
    8AU     LIG 3746  17.931  35.185   6.386
    8AU     LIG 3747  18.127  35.457   6.047
    8AU     LIG 3748  18.278  35.808   5.763
    8AU     LIG 3749  18.612  36.023   5.520
    8AU       S 3750  17.627  35.047   7.689
    8AU     LIG 3751  18.003  35.283   7.486
    8AU     LIG 3752  18.477  35.435   7.478
    8AU     LIG 3753  18.914  35.554   7.619
    8AU     LIG 3754  19.141  35.924   7.851
    8AU     LIG 3755  19.299  36.391   7.798
    8AU    AUSL 3756  17.409  34.763   7.377
    8AU    AUSL 3757  17.353  34.432   7.695
    8AU     AUL 3758  17.729  34.543   7.704
    8AU       S 3759  17.536  34.824   7.412
    8AU     LIG 3760  17.925  34.883   7.174
    8AU     LIG 3761  18.375  35.092   7.122
    8AU     LIG 3762  18.860  35.232   7.173
    8AU     LIG 3763  19.353  35.149   7.136
    8AU     LIG 3764  19.712  35.494   7.150
    8AU       S 3765  17.577  34.163   7.499
    8AU     LIG 3766  17.772  34.067   7.894
    8AU     LIG 3767  18.173  33.866   8.008
    8AU     LIG 3768  18.599  33.714   7.892
    8AU     LIG 3769  19.063  33.855   7.966
    8AU     LIG 3770  19.452  33.757   8.243
    8AU    AUSL 3771  17.129  34.800   7.724
    8AU    AUSL 3772  16.893  35.199   7.775
    8AU     AUL 3773  17.217  35.253   7.812
    8AU       S 3774  17.226  35.434   8.234
    8AU     LIG 3775  17.677  35.458   8.378
    8AU     LIG 3776  18.033  35.673   8.609
    8AU     LIG 3777  18.208  36.056   8.838
    8AU     LIG 3778  18.401  36.509   8.833
    8AU     LIG 3779  18.563  36.962   8.899
    8AU       S 3780  17.465  34.873   7.854
    8AU     LIG 3781  17.950  34.860   8.046
    8AU     LIG 3782  18.460  34.731   8.043
    8AU     LIG 3783  18.885  34.979   8.049
    8AU     LIG 3784  19.254  35.319   8.004
    8AU     LIG 3785  19.606  35.622   8.072
    8AU    AUSL 3786  15.780  35.285   7.536
    8AU    AUSL 3787  15.869  35.047   7.919
    8AU     AUL 3788  15.561  35.392   7.776
    8AU       S 3789  15.710  35.225   8.176
    8AU     LIG 3790  15.583  35.102   8.595
    8AU     LIG 3791  15.390  35.330   8.966
    8AU     LIG 3792  15.085  35.520   9.286
    8AU     LIG 3793  14.729  35.595   9.607
    8AU     LIG 3794  14.436  35.790   9.925
    8AU       S 3795  15.806  35.662   7.456
    8AU     LIG 3796  15.342  35.640   7.338
    8AU     LIG 3797  14.923  35.906   7.337
    8AU     LIG 3798  14.505  36.075   7.491
    8AU     LIG 3799  14.130  36.312   7.664
    8AU     LIG 3800  13.737  36.528   7.707
    8AU    AUSL 3801  15.719  34.898   7.342
    8AU    AUSL 3802  15.855  35.336   7.116
    8AU     AUL 3803  15.564  35.212   7.175
    8AU       S 3804  15.308  34.811   7.016
    8AU     LIG 3805  15.038  35.207   7.082
    8AU     LIG 3806  14.588  35.417   6.986
    8AU     LIG 3807  14.200  35.651   6.767
    8AU     LIG 3808  13.730  35.708   6.703
    8AU     LIG 3809  13.315  35.834   6.530
    8AU       S 3810  15.675  35.598   6.885
    8AU     LIG 3811  15.567  35.818   6.453
    8AU     LIG 3812  15.315  36.084   6.117
    8AU     LIG 3813  15.014  36.445   5.984
    8AU     LIG 3814  14.777  36.853   6.085
    8AU     LIG 3815  14.701  37.329   6.049
    8AU    AUSL 3816  15.493  34.942   7.745
    8AU    AUSL 3817  15.438  34.582   7.402
    8AU     AUL 3818  15.340  34.924   7.472
    8AU       S 3819  15.164  34.494   7.608
    8AU     LIG 3820  14.865  34.294   7.303
    8AU     LIG 3821  14.428  34.167   7.388
    8AU     LIG 3822  14.019  34.060   7.181
    8AU     LIG 3823  13.563  34.003   7.160
    8AU     LIG 3824  13.165  34.046   6.976
    8AU       S 3825  15.401  34.886   7.982
    8AU     LIG 3826  14.956  35.057   7.854
    8AU     LIG 3827  14.538  35.361   7.942
    8AU     LIG 3828  14.062  35.514   8.082
    8AU     LIG 3829  13.624  35.749   8.178
    8AU     LIG 3830  13.120  35.667   8.269
    8AU    AUSL 3831  17.114  34.087   7.528
    8AU    AUSL 3832  16.962  34.357   7.866
    8AU     AUL 3833  17.287  34.237   7.914
    8AU       S 3834  17.413  33.971   7.522
    8AU     LIG 3835  17.802  33.705   7.540
    8AU     LIG 3836  18.183  33.492   7.647
    8AU     LIG 3837  18.525  33.278   7.451
    8AU     LIG 3838  18.833  32.919   7.483
    8AU     LIG 3839  19.184  32.593   7.495
    8AU       S 3840  17.186  33.796   7.938
    8AU     LIG 3841  17.425  33.470   8.201
    8AU     LIG 3842  17.587  33.332   8.604
    8AU     LIG 3843  17.862  33.102   8.885
    8AU     LIG 3844  18.128  32.924   9.220
    8AU     LIG 3845  18.440  33.049   9.549
    8AU    AUSL 3846  17.099  34.474   7.318
    8AU    AUSL 3847  17.009  34.012   7.109
    8AU     AUL 3848  17.245  34.156   7.132
    8AU       S 3849  17.608  34.332   7.302
    8AU     LIG 3850  17.835  33.971   7.104
    8AU     LIG 3851  18.167  33.627   7.145
    8AU     LIG 3852  18.639  33.703   7.164
    8AU     LIG 3853  19.125  33.799   7.170
    8AU     LIG 3854  19.552  33.801   6.959
    8AU       S 3855  17.182  33.907   6.741
    8AU     LIG 3856  17.375  33.511   6.730
    8AU     LIG 3857  17.509  33.092   6.623
    8AU     LIG 3858  17.666  32.811   6.312
    8AU     LIG 3859  17.873  32.410   6.240
    8AU     LIG 3860  18.021  32.131   5.892
    8AU    AUSL 3861  15.607  34.206   7.582
    8AU    AUSL 3862  15.778  34.422   7.190
    8AU     AUL 3863  15.417  34.310   7.260
    8AU       S 3864  15.572  34.169   6.857
    8AU     LIG 3865  15.092  34.088   6.814
    8AU     LIG 3866  14.784  33.783   6.577
    8AU     LIG 3867  14.604  33.427   6.297
    8AU     LIG 3868  14.194  33.226   6.168
    8AU     LIG 3869  13.965  32.926   5.874
    8AU       S 3870  15.191  34.204   7.666
    8AU     LIG 3871  14.853  33.874   7.623
    8AU     LIG 3872  14.519  33.623   7.836
    8AU     LIG 3873  14.049  33.543   7.859
    8AU     LIG 3874  13.573  33.398   7.839
    8AU     LIG 3875  13.228  33.192   7.577
    8AU    AUSL 3876  15.751  34.607   7.720
    8AU    AUSL 3877  15.960  34.205   7.826
    8AU     AUL 3878  15.550  34.387   7.896
    8AU       S 3879  15.647  33.961   8.035
    8AU     LIG 3880  15.301  33.710   7.845
    8AU     LIG 3881  14.973  33.362   7.846
    8AU     LIG 3882  14.764  33.010   8.081
    8AU     LIG 3883  14.420  32.842   8.369
    8AU     LIG 3884  14.162  32.628   8.714
    8AU       S 3885  15.141  34.535   7.763
    8AU     LIG 3886  14.664  34.636   7.672
    8AU     LIG 3887  14.198  34.500   7.681
    8AU     LIG 3888  14.001  34.067   7.710
    8AU     LIG 3889  13.556  33.993   7.833
    8AU     LIG 3890  13.129  33.981   8.067
    8AU    AUSL 3891  16.484  35.368   7.894
    8AU    AUSL 3892  16.042  35.441   7.848
    8AU     AUL 3893  16.311  35.511   8.178
    8AU       S 3894  15.920  35.646   7.958
    8AU     LIG 3895  15.780  35.961   8.288
    8AU     LIG 3896  15.578  36.175   8.670
    8AU     LIG 3897  15.348  36.453   8.997
    8AU     LIG 3898  15.010  36.752   9.102
    8AU     LIG 3899  14.706  37.070   8.916
    8AU       S 3900  16.536  35.875   7.968
    8AU     LIG 3901  16.675  36.306   8.199
    8AU     LIG 3902  16.805  36.727   8.424
    8AU     LIG 3903  16.888  36.928   8.851
    8AU     LIG 3904  16.799  37.086   9.273
    8AU     LIG 3905  16.399  37.170   9.501
    8AU    AUSL 3906  16.315  35.648   7.592
    8AU    AUSL 3907  16.607  35.588   7.206
    8AU     AUL 3908  16.307  35.849   7.337
    8AU       S 3909  16.381  35.842   7.800
    8AU     LIG 3910  16.421  36.317   7.749
    8AU     LIG 3911  16.458  36.741   7.981
    8AU     LIG 3912  16.351  37.118   8.231
    8AU     LIG 3913  16.206  37.565   8.109
    8AU     LIG 3914  16.075  37.987   8.272
    8AU       S 3915  16.625  35.910   6.996
    8AU     LIG 3916  16.868  36.318   6.985
    8AU     LIG 3917  16.910  36.773   7.023
    8AU     LIG 3918  17.045  37.126   6.793
    8AU     LIG 3919  17.303  37.514   6.749
    8AU     LIG 3920  17.218  37.978   6.788
    8AU    AUSL 3921  16.764  35.572   7.612
    8AU    AUSL 3922  16.766  35.280   8.202
    8AU     AUL 3923  16.842  35.529   7.967
    8AU       S 3924  17.002  35.360   8.403
    8AU     LIG 3925  17.343  35.291   8.735
    8AU     LIG 3926  17.699  35.483   8.949
    8AU     LIG 3927  17.938  35.802   9.217
    8AU     LIG 3928  17.893  36.123   9.588
    8AU     LIG 3929  17.811  36.311  10.030
    8AU       S 3930  16.724  35.877   7.653
    8AU     LIG 3931  16.949  36.266   7.773
    8AU     LIG 3932  16.970  36.713   7.928
    8AU     LIG 3933  17.059  37.098   8.162
    8AU     LIG 3934  17.166  37.531   8.310
    8AU     LIG 3935  16.970  37.887   8.568
    8AU    AUSL 3936  16.366  34.035   7.950
    8AU    AUSL 3937  16.783  33.969   7.780
    8AU     AUL 3938  16.594  33.858   8.154
    8AU       S 3939  16.368  33.477   8.020
    8AU     LIG 3940  16.287  33.146   8.285
    8AU     LIG 3941  16.245  32.709   8.247
    8AU     LIG 3942  16.332  32.269   8.267
    8AU     LIG 3943  16.337  31.880   8.506
    8AU     LIG 3944  16.392  31.759   8.962
    8AU       S 3945  16.929  33.746   7.820
    8AU     LIG 3946  16.953  33.294   8.009
    8AU     LIG 3947  17.285  32.961   8.193
    8AU     LIG 3948  17.583  32.819   8.542
    8AU     LIG 3949  17.922  32.596   8.813
    8AU     LIG 3950  18.225  32.228   8.864
    8AU    AUSL 3951  16.027  33.808   7.699
    8AU    AUSL 3952  16.076  34.132   8.255
    8AU     AUL 3953  16.090  33.852   8.046
    8AU       S 3954  16.139  33.416   7.863
    8AU     LIG 3955  15.978  32.971   7.866
    8AU     LIG 3956  15.821  32.541   7.992
    8AU     LIG 3957  15.811  32.093   8.095
    8AU     LIG 3958  15.551  31.752   8.305
    8AU     LIG 3959  15.386  31.293   8.312
    8AU       S 3960  15.796  34.029   8.377
    8AU     LIG 3961  15.418  33.662   8.371
    8AU     LIG 3962  15.135  33.269   8.358
    8AU     LIG 3963  14.900  32.908   8.594
    8AU     LIG 3964  14.802  32.742   9.044
    8AU     LIG 3965  14.654  32.603   9.458
    8AU    AUSL 3966  16.458  33.731   7.636
    8AU    AUSL 3967  16.223  33.987   7.346
    8AU     AUL 3968  16.117  33.641   7.454
    8AU       S 3969  16.476  33.537   7.196
    8AU     LIG 3970  16.120  33.205   7.207
    8AU     LIG 3971  15.895  32.795   7.112
    8AU     LIG 3972  15.851  32.339   7.002
    8AU     LIG 3973  15.879  31.909   6.789
    8AU     LIG 3974  15.643  31.679   6.410
    8AU       S 3975  16.475  33.510   7.768
    8AU     LIG 3976  16.480  33.001   7.827
    8AU     LIG 3977  16.288  32.522   7.774
    8AU     LIG 3978  16.267  32.019   7.841
    8AU     LIG 3979  16.438  31.609   8.044
    8AU     LIG 3980  16.873  31.429   8.173
    8AU    AUSL 3981  16.414  35.386   6.856
    8AU    AUSL 3982  16.897  35.278   7.272
    8AU     AUL 3983  16.753  35.481   6.886
    8AU       S 3984  16.400  35.706   6.676
    8AU     LIG 3985  16.709  36.054   6.522
    8AU     LIG 3986  16.785  36.520   6.503
    8AU     LIG 3987  16.754  36.978   6.378
    8AU     LIG 3988  16.563  37.263   6.044
    8AU     LIG 3989  16.490  37.229   5.570
    8AU       S 3990  17.122  35.474   7.151
    8AU     LIG 3991  17.597  35.643   6.957
    8AU     LIG 3992  17.834  35.671   6.537
    8AU     LIG 3993  18.031  35.944   6.195
    8AU     LIG 3994  18.322  36.313   6.060
    8AU     LIG 3995  18.440  36.769   6.158
    8AU    AUSL 3996  16.245  35.359   7.290
    8AU    AUSL 3997  16.165  35.063   6.961
    8AU     AUL 3998  16.115  35.517   7.020
    8AU       S 3999  16.377  35.866   6.880
    8AU     LIG 4000  16.374  36.324   6.813
    8AU     LIG 4001  16.452  36.767   6.802
    8AU     LIG 4002  16.487  37.192   6.762
    8AU     LIG 4003  16.342  37.526   6.512
    8AU     LIG 4004  16.318  37.933   6.319
    8AU       S 4005  15.958  35.308   6.640
    8AU     LIG 4006  15.791  35.417   6.209
    8AU     LIG 4007  15.663  35.757   5.905
    8AU     LIG 4008  15.488  36.036   5.567
    8AU     LIG 4009  15.506  36.377   5.237
    8AU     LIG 4010  15.398  36.632   4.857
    8AU    AUSL 4011  16.420  33.934   6.943
    8AU    AUSL 4012  15.804  33.976   7.268
    8AU     AUL 4013  16.075  33.813   7.011
    8AU       S 4014  15.620  33.927   7.083
    8AU     LIG 4015  15.193  33.790   7.212
    8AU     LIG 4016  14.926  33.469   6.967
    8AU     LIG 4017  14.686  33.152   6.721
    8AU     LIG 4018  14.252  32.992   6.620
    8AU     LIG 4019  14.110  32.668   6.298
    8AU       S 4020  16.469  33.537   7.004
    8AU     LIG 4021  16.461  33.092   6.841
    8AU     LIG 4022  16.260  32.673   6.745
    8AU     LIG 4023  16.128  32.288   6.526
    8AU     LIG 4024  16.127  31.878   6.332
    8AU     LIG 4025  16.135  31.651   5.929
    8AU    AUSL 4026  16.655  33.959   7.329
    8AU    AUSL 4027  16.684  34.274   6.968
    8AU     AUL 4028  16.749  33.899   6.925
    8AU       S 4029  16.727  33.589   7.280
    8AU     LIG 4030  16.604  33.082   7.339
    8AU     LIG 4031  16.365  32.654   7.249
    8AU     LIG 4032  16.337  32.217   6.988
    8AU     LIG 4033  16.564  31.844   6.894
    8AU     LIG 4034  16.674  31.395   6.901
    8AU       S 4035  16.969  34.084   6.568
    8AU     LIG 4036  16.914  33.593   6.472
    8AU     LIG 4037  17.124  33.189   6.278
    8AU     LIG 4038  17.293  32.873   5.942
    8AU     LIG 4039  17.571  32.844   5.550
    8AU     LIG 4040  17.828  32.728   5.157
    9AU     AUC 4041  30.655  40.449   7.499
    9AU     AUC 4042  30.950  40.445   7.330
    9AU     AUC 4043  30.915  40.439   7.668
    9AU     AUC 4044  30.380  40.439   7.339
    9AU     AUC 4045  30.393  40.490   7.681
    9AU     AUC 4046  30.490  40.725   7.496
    9AU     AUC 4047  30.838  40.714   7.485
    9AU     AUC 4048  30.459  40.180   7.507
    9AU     AUC 4049  30.819  40.176   7.506
    9AU     AUC 4050  30.659  40.280   7.767
    9AU     AUC 4051  30.651  40.644   7.751
    9AU     AUC 4052  30.654  40.284   7.234
    9AU     AUC 4053  30.686  40.598   7.227
    9AU     AUC 4054  31.285  40.440   7.180
    9AU     AUC 4055  31.277  40.428   7.517
    9AU     AUC 4056  31.212  40.416   7.870
    9AU     AUC 4057  30.062  40.447   7.177
    9AU     AUC 4058  30.046  40.491   7.537
    9AU     AUC 4059  30.107  40.535   7.869
    9AU     AUC 4060  30.337  41.050   7.462
    9AU     AUC 4061  30.691  41.069   7.435
    9AU     AUC 4062  31.015  41.005   7.468
    9AU     AUC 4063  30.258  39.901   7.508
    9AU     AUC 4064  30.590  39.840   7.467
    9AU     AUC 4065  30.980  39.853   7.486
    9AU     AUC 4066  30.642  40.107   8.064
    9AU     AUC 4067  30.659  40.463   8.096
    9AU     AUC 4068  30.689  40.823   8.040
    9AU     AUC 4069  30.682  40.112   6.951
    9AU     AUC 4070  30.674  40.423   6.892
    9AU     AUC 4071  30.680  40.742   6.921
    9AU     AUC 4072  30.931  40.215   7.991
    9AU     AUC 4073  30.959  40.601   7.989
    9AU     AUC 4074  31.002  40.266   7.022
    9AU     AUC 4075  31.006  40.613   7.032
    9AU     AUC 4076  30.357  40.339   8.016
    9AU     AUC 4077  30.388  40.714   7.983
    9AU     AUC 4078  30.352  40.268   7.049
    9AU     AUC 4079  30.337  40.576   6.999
    9AU     AUC 4080  31.198  40.726   7.329
    9AU     AUC 4081  31.128  40.710   7.691
    9AU     AUC 4082  30.165  40.755   7.337
    9AU     AUC 4083  30.200  40.826   7.680
    9AU     AUC 4084  31.158  40.130   7.349
    9AU     AUC 4085  31.114  40.106   7.677
    9AU     AUC 4086  30.117  40.160   7.376
    9AU     AUC 4087  30.181  40.213   7.721
    9AU     AUC 4088  30.523  40.997   7.744
    9AU     AUC 4089  30.850  40.938   7.759
    9AU     AUC 4090  30.448  39.997   7.792
    9AU     AUC 4091  30.781  39.932   7.767
    9AU     AUC 4092  30.487  40.875   7.182
    9AU     AUC 4093  30.873  40.896   7.159
    9AU     AUC 4094  30.440  39.968   7.217
    9AU     AUC 4095  30.831  39.993   7.215
    9AU    AUSL 4096  31.205  40.346   8.239
    9AU    AUSL 4097  30.942  39.916   8.164
    9AU     AUL 4098  31.250  39.943   8.335
    9AU       S 4099  31.265  39.547   8.105
    9AU     LIG 4100  31.153  39.383   8.476
    9AU     LIG 4101  31.374  39.078   8.743
    9AU     LIG 4102  31.634  38.786   9.003
    9AU     LIG 4103  31.937  38.780   9.356
    9AU     LIG 4104  32.122  38.635   9.756
    9AU       S 4105  31.437  40.355   8.384
    9AU     LIG 4106  31.304  40.389   8.834
    9AU     LIG 4107  31.404  40.237   9.269
    9AU     LIG 4108  31.657  40.142   9.666
    9AU     LIG 4109  32.004  40.081   9.986
    9AU     LIG 4110  32.387  39.997  10.263
    9AU    AUSL 4111  30.792  40.254   8.403
    9AU    AUSL 4112  30.541  40.654   8.433
    9AU     AUL 4113  30.725  40.541   8.731
    9AU       S 4114  30.938  40.166   8.581
    9AU     LIG 4115  30.809  40.108   8.989
    9AU     LIG 4116  30.994  39.934   9.372
    9AU     LIG 4117  31.240  39.835   9.761
    9AU     LIG 4118  31.259  39.630  10.194
    9AU     LIG 4119  31.331  39.434  10.628
    9AU       S 4120  30.304  40.388   8.640
    9AU     LIG 4121  30.350  40.349   9.121
    9AU     LIG 4122  30.071  40.301   9.504
    9AU     LIG 4123  29.777  40.310   9.882
    9AU     LIG 4124  29.695  40.612  10.257
    9AU     LIG 4125  29.676  40.982  10.570
    9AU    AUSL 4126  30.858  40.629   8.151
    9AU    AUSL 4127  31.300  40.756   8.114
    9AU     AUL 4128  31.091  40.650   8.443
    9AU       S 4129  30.782  41.004   8.615
    9AU     LIG 4130  31.165  40.910   8.869
    9AU     LIG 4131  31.330  41.036   9.295
    9AU     LIG 4132  31.262  41.153   9.764
    9AU     LIG 4133  31.203  41.161  10.246
    9AU     LIG 4134  31.323  41.106  10.704
    9AU       S 4135  31.450  40.911   8.284
    9AU     LIG 4136  31.885  40.871   8.334
    9AU     LIG 4137  32.127  41.066   8.670
    9AU     LIG 4138  32.491  41.287   8.846
    9AU     LIG 4139  32.770  41.537   9.141
    9AU     LIG 4140  33.033  41.490   9.543
    9AU    AUSL 4141  31.191  40.479   6.883
    9AU    AUSL 4142  31.089  40.914   6.820
    9AU     AUL 4143  31.356  40.740   6.616
    9AU       S 4144  31.020  40.640   6.336
    9AU     LIG 4145  31.472  40.617   6.096
    9AU     LIG 4146  31.612  40.345   5.752
    9AU     LIG 4147  31.740  40.163   5.342
    9AU     LIG 4148  31.927  40.099   4.905
    9AU     LIG 4149  32.287  40.085   4.571
    9AU       S 4150  31.428  41.162   6.841
    9AU     LIG 4151  31.658  41.380   6.490
    9AU     LIG 4152  31.938  41.581   6.145
    9AU     LIG 4153  32.171  41.818   5.805
    9AU     LIG 4154  32.105  42.063   5.383
    9AU     LIG 4155  32.013  42.284   4.955
    9AU    AUSL 4156  30.978  40.228   6.586
    9AU    AUSL 4157  31.394  40.098   6.928
    9AU     AUL 4158  31.362  40.267   6.649
    9AU       S 4159  31.460  39.805   6.697
    9AU     LIG 4160  31.592  39.473   6.364
    9AU     LIG 4161  31.851  39.091   6.243
    9AU     LIG 4162  32.128  38.804   5.964
    9AU     LIG 4163  32.564  38.730   5.756
    9AU     LIG 4164  32.975  38.858   5.517
    9AU       S 4165  31.088  40.450   6.324
    9AU     LIG 4166  31.217  40.125   6.051
    9AU     LIG 4167  31.322  39.943   5.610
    9AU     LIG 4168  31.330  39.936   5.129
    9AU     LIG 4169  31.440  39.847   4.668
    9AU     LIG 4170  31.530  39.696   4.210
    9AU    AUSL 4171  30.790  40.599   6.757
    9AU    AUSL 4172  30.555  40.214   6.705
    9AU     AUL 4173  30.699  40.249   6.441
    9AU       S 4174  30.251  40.270   6.294
    9AU     LIG 4175  30.378  40.037   5.955
    9AU     LIG 4176  30.125  39.813   5.638
    9AU     LIG 4177  29.909  39.776   5.224
    9AU     LIG 4178  29.757  39.668   4.788
    9AU     LIG 4179  29.638  39.483   4.361
    9AU       S 4180  30.869  40.702   6.448
    9AU     LIG 4181  30.749  40.464   5.969
    9AU     LIG 4182  31.092  40.406   5.625
    9AU     LIG 4183  31.332  40.460   5.205
    9AU     LIG 4184  31.447  40.707   4.794
    9AU     LIG 4185  31.467  40.999   4.407
    9AU    AUSL 4186  30.136  40.617   8.255
    9AU    AUSL 4187  30.447  40.951   8.127
    9AU     AUL 4188  30.313  40.893   8.462
    9AU       S 4189  30.135  40.514   8.695
    9AU     LIG 4190  29.893  40.187   8.922
    9AU     LIG 4191  29.639  40.080   9.325
    9AU     LIG 4192  29.388  39.934   9.711
    9AU     LIG 4193  29.141  39.860  10.116
    9AU     LIG 4194  28.728  39.953  10.341
    9AU       S 4195  30.056  41.198   8.215
    9AU     LIG 4196  30.002  41.374   8.625
    9AU     LIG 4197  29.850  41.582   9.031
    9AU     LIG 4198  29.687  41.730   9.444
    9AU     LIG 4199  29.695  41.979   9.852
    9AU     LIG 4200  29.479  42.300  10.120
    9AU    AUSL 4201  30.436  40.312   8.164
    9AU    AUSL 4202  30.003  40.199   8.158
    9AU     AUL 4203  29.934  40.430   8.289
    9AU       S 4204  29.905  39.969   8.405
    9AU     LIG 4205  29.459  39.931   8.264
    9AU     LIG 4206  29.166  39.568   8.328
    9AU     LIG 4207  28.904  39.246   8.579
    9AU     LIG 4208  28.714  39.007   8.942
    9AU     LIG 4209  28.641  38.921   9.399
    9AU       S 4210  30.320  40.253   8.548
    9AU     LIG 4211  30.334  39.917   8.863
    9AU     LIG 4212  30.111  39.846   9.267
    9AU     LIG 4213  29.903  39.834   9.702
    9AU     LIG 4214  29.673  39.813  10.122
    9AU     LIG 4215  29.428  39.596  10.475
    9AU    AUSL 4216  30.150  40.361   6.785
    9AU    AUSL 4217  30.341  39.988   7.000
    9AU     AUL 4218  30.312  39.986   6.650
    9AU       S 4219  30.017  40.259   6.415
    9AU     LIG 4220  29.856  40.045   6.034
    9AU     LIG 4221  29.651  40.042   5.610
    9AU     LIG 4222  29.464  40.022   5.175
    9AU     LIG 4223  29.158  39.907   4.839
    9AU     LIG 4224  28.781  39.997   4.569
    9AU       S 4225  29.905  39.832   6.806
    9AU     LIG 4226  29.627  39.451   6.727
    9AU     LIG 4227  29.347  39.179   6.482
    9AU     LIG 4228  29.148  38.926   6.143
    9AU     LIG 4229  28.972  38.631   5.818
    9AU     LIG 4230  29.044  38.465   5.372
    9AU    AUSL 4231  30.417  40.638   6.550
    9AU    AUSL 4232  29.925  40.714   6.920
    9AU     AUL 4233  30.056  40.680   6.597
    9AU       S 4234  29.662  40.888   6.758
    9AU     LIG 4235  29.410  41.145   6.474
    9AU     LIG 4236  29.401  41.413   6.095
    9AU     LIG 4237  29.285  41.762   5.799
    9AU     LIG 4238  28.912  41.791   5.504
    9AU     LIG 4239  28.700  41.730   5.081
    9AU       S 4240  30.331  40.503   6.263
    9AU     LIG 4241  30.107  40.456   5.840
    9AU     LIG 4242  30.061  40.270   5.407
    9AU     LIG 4243  29.893  40.241   4.966
    9AU     LIG 4244  29.858  40.474   4.544
    9AU     LIG 4245  29.839  40.623   4.081
    9AU    AUSL 4246  31.445  40.959   7.517
    9AU    AUSL 4247  31.436  40.762   7.100
    9AU     AUL 4248  31.709  41.102   7.349
    9AU       S 4249  31.534  40.908   6.993
    9AU     LIG 4250  31.848  40.928   6.668
    9AU     LIG 4251  32.141  41.184   6.410
    9AU     LIG 4252  32.429  41.234   6.049
    9AU     LIG 4253  32.710  41.481   5.778
    9AU     LIG 4254  33.132  41.533   5.571
    9AU       S 4255  31.857  40.856   7.725
    9AU     LIG 4256  32.177  41.172   7.505
    9AU     LIG 4257  32.571  41.487   7.525
    9AU     LIG 4258  32.993  41.606   7.673
    9AU     LIG 4259  33.362  41.723   7.416
    9AU     LIG 4260  33.337  41.966   7.009
    9AU    AUSL 4261  31.658  40.554   7.409
    9AU    AUSL 4262  31.590  40.222   7.724
    9AU     AUL 4263  31.947  40.328   7.733
    9AU       S 4264  31.817  40.664   7.461
    9AU     LIG 4265  32.306  40.675   7.394
    9AU     LIG 4266  32.766  40.506   7.216
    9AU     LIG 4267  33.252  40.470   7.039
    9AU     LIG 4268  33.519  40.776   6.752
    9AU     LIG 4269  33.989  40.849   6.712
    9AU       S 4270  31.845  39.923   7.549
    9AU     LIG 4271  32.235  39.771   7.737
    9AU     LIG 4272  32.510  39.404   7.703
    9AU     LIG 4273  32.941  39.284   7.720
    9AU     LIG 4274  33.347  39.187   7.923
    9AU     LIG 4275  33.810  39.322   7.921
    9AU    AUSL 4276  31.353  40.581   7.730
    9AU    AUSL 4277  31.098  40.969   7.779
    9AU     AUL 4278  31.429  41.025   7.823
    9AU       S 4279  31.422  41.212   8.241
    9AU     LIG 4280  31.857  41.377   8.294
    9AU     LIG 4281  32.268  41.527   8.433
    9AU     LIG 4282  32.431  41.795   8.772
    9AU     LIG 4283  32.603  42.208   8.824
    9AU     LIG 4284  32.707  42.630   8.924
    9AU       S 4285  31.710  40.676   7.883
    9AU     LIG 4286  32.269  40.644   7.914
    9AU     LIG 4287  32.757  40.629   7.755
    9AU     LIG 4288  33.236  40.646   7.888
    9AU     LIG 4289  33.408  41.054   8.128
    9AU     LIG 4290  33.829  41.270   8.128
    9AU    AUSL 4291  30.012  41.051   7.502
    9AU    AUSL 4292  30.092  40.831   7.887
    9AU     AUL 4293  29.787  41.167   7.744
    9AU       S 4294  29.944  41.015   8.147
    9AU     LIG 4295  29.795  40.899   8.554
    9AU     LIG 4296  29.578  41.173   8.873
    9AU     LIG 4297  29.335  41.410   9.208
    9AU     LIG 4298  28.948  41.443   9.502
    9AU     LIG 4299  28.550  41.511   9.765
    9AU       S 4300  30.018  41.427   7.420
    9AU     LIG 4301  29.533  41.562   7.453
    9AU     LIG 4302  29.063  41.794   7.453
    9AU     LIG 4303  28.553  41.938   7.433
    9AU     LIG 4304  28.062  42.065   7.463
    9AU     LIG 4305  27.773  42.462   7.502
    9AU    AUSL 4306  29.968  40.641   7.335
    9AU    AUSL 4307  30.091  41.097   7.080
    9AU     AUL 4308  29.790  40.990   7.202
    9AU       S 4309  29.571  40.431   6.973
    9AU     LIG 4310  29.201  40.731   6.988
    9AU     LIG 4311  28.826  40.951   6.765
    9AU     LIG 4312  28.424  41.171   6.626
    9AU     LIG 4313  27.970  41.184   6.807
    9AU     LIG 4314  27.511  41.342   6.834
    9AU       S 4315  29.930  41.337   6.901
    9AU     LIG 4316  29.637  41.587   6.631
    9AU     LIG 4317  29.586  41.861   6.250
    9AU     LIG 4318  29.583  42.182   5.911
    9AU     LIG 4319  29.385  42.600   5.938
    9AU     LIG 4320  28.946  42.756   5.856
    9AU    AUSL 4321  29.724  40.715   7.703
    9AU    AUSL 4322  29.676  40.336   7.417
    9AU     AUL 4323  29.561  40.645   7.410
    9AU       S 4324  29.450  40.253   7.667
    9AU     LIG 4325  29.109  40.016   7.320
    9AU     LIG 4326  28.638  39.864   7.205
    9AU     LIG 4327  28.151  39.869   7.199
    9AU     LIG 4328  27.690  39.886   7.132
    9AU     LIG 4329  27.236  39.923   7.030
    9AU       S 4330  29.617  40.725   7.925
    9AU     LIG 4331  29.155  40.775   7.979
    9AU     LIG 4332  28.798  40.942   8.284
    9AU     LIG 4333  28.407  40.913   8.560
    9AU     LIG 4334  27.933  40.979   8.456
    9AU     LIG 4335  27.465  41.009   8.383
    9AU    AUSL 4336  31.378  39.866   7.551
    9AU    AUSL 4337  31.191  40.131   7.870
    9AU     AUL 4338  31.525  40.028   7.938
    9AU       S 4339  31.687  39.751   7.576
    9AU     LIG 4340  31.985  39.390   7.500
    9AU     LIG 4341  32.312  39.068   7.370
    9AU     LIG 4342  32.779  39.014   7.299
    9AU     LIG 4343  33.203  38.905   7.478
    9AU     LIG 4344  33.573  38.650   7.331
    9AU       S 4345  31.404  39.593   7.978
    9AU     LIG 4346  31.631  39.268   8.289
    9AU     LIG 4347  31.873  38.984   8.589
    9AU     LIG 4348  32.146  38.720   8.884
    9AU     LIG 4349  32.451  38.805   9.239
    9AU     LIG 4350  32.824  39.034   9.427
    9AU    AUSL 4351  31.368  40.248   7.327
    9AU    AUSL 4352  31.232  39.747   7.156
    9AU     AUL 4353  31.508  39.893   7.173
    9AU       S 4354  31.859  40.116   7.330
    9AU     LIG 4355  32.184  39.778   7.218
    9AU     LIG 4356  32.545  39.490   7.191
    9AU     LIG 4357  33.009  39.479   7.234
    9AU     LIG 4358  33.449  39.562   7.095
    9AU     LIG 4359  33.878  39.397   6.994
    9AU       S 4360  31.427  39.577   6.831
    9AU     LIG 4361  31.510  39.126   6.747
    9AU     LIG 4362  31.672  38.717   6.552
    9AU     LIG 4363  31.990  38.447   6.317
    9AU     LIG 4364  32.423  38.229   6.217
    9AU     LIG 4365  32.814  37.945   6.174
    9AU    AUSL 4366  29.857  39.963   7.580
    9AU    AUSL 4367  29.982  40.196   7.147
    9AU     AUL 4368  29.633  40.045   7.284
    9AU       S 4369  29.852  40.012   6.880
    9AU     LIG 4370  29.385  39.887   6.853
    9AU     LIG 4371  29.073  39.606   6.602
    9AU     LIG 4372  28.826  39.293   6.321
    9AU     LIG 4373  28.643  39.005   5.970
    9AU     LIG 4374  28.315  38.749   5.736
    9AU       S 4375  29.421  40.004   7.711
    9AU     LIG 4376  29.193  39.614   7.657
    9AU     LIG 4377  28.849  39.438   7.393
    9AU     LIG 4378  28.367  39.403   7.340
    9AU     LIG 4379  28.065  39.043   7.467
    9AU     LIG 4380  27.884  38.596   7.487
    9AU    AUSL 4381  29.958  40.360   7.762
    9AU    AUSL 4382  30.194  39.963   7.847
    9AU     AUL 4383  29.829  40.014   7.923
    9AU       S 4384  29.920  39.720   8.256
    9AU     LIG 4385  29.590  39.514   7.999
    9AU     LIG 4386  29.260  39.165   8.025
    9AU     LIG 4387  29.031  38.830   8.291
    9AU     LIG 4388  28.789  38.522   8.587
    9AU     LIG 4389  28.418  38.266   8.762
    9AU       S 4390  29.460  40.287   7.836
    9AU     LIG 4391  29.000  40.436   7.598
    9AU     LIG 4392  28.555  40.242   7.540
    9AU     LIG 4393  28.246  39.875   7.680
    9AU     LIG 4394  27.818  39.782   7.841
    9AU     LIG 4395  27.423  39.695   8.051
    9AU    AUSL 4396  30.712  41.194   7.883
    9AU    AUSL 4397  30.276  41.220   7.806
    9AU     AUL 4398  30.518  41.279   8.168
    9AU       S 4399  30.146  41.421   7.918
    9AU     LIG 4400  29.772  41.593   8.167
    9AU     LIG 4401  29.648  41.761   8.588
    9AU     LIG 4402  29.636  42.173   8.822
    9AU     LIG 4403  29.383  42.575   8.884
    9AU     LIG 4404  28.943  42.540   8.963
    9AU       S 4405  30.722  41.626   7.931
    9AU     LIG 4406  31.004  41.685   8.292
    9AU     LIG 4407  31.106  42.028   8.611
    9AU     LIG 4408  31.078  42.324   8.997
    9AU     LIG 4409  31.026  42.749   9.191
    9AU     LIG 4410  30.870  43.180   9.300
    9AU    AUSL 4411  30.548  41.417   7.531
    9AU    AUSL 4412  30.837  41.335   7.166
    9AU     AUL 4413  30.769  41.678   7.313
    9AU       S 4414  30.560  41.643   7.738
    9AU     LIG 4415  30.657  42.133   7.848
    9AU     LIG 4416  30.674  42.621   7.962
    9AU     LIG 4417  30.766  43.054   8.170
    9AU     LIG 4418  30.547  43.397   8.430
    9AU     LIG 4419  30.402  43.849   8.365
    9AU       S 4420  30.570  41.502   6.941
    9AU     LIG 4421  30.999  41.760   6.896
    9AU     LIG 4422  31.102  42.225   6.965
    9AU     LIG 4423  31.140  42.692   6.804
    9AU     LIG 4424  31.345  43.133   6.713
    9AU     LIG 4425  31.550  43.584   6.662
    9AU    AUSL 4426  31.002  41.333   7.576
    9AU    AUSL 4427  30.959  41.042   8.199
    9AU     AUL 4428  31.060  41.301   7.959
    9AU       S 4429  31.205  41.138   8.400
    9AU     LIG 4430  31.599  41.184   8.707
    9AU     LIG 4431  31.932  41.519   8.824
    9AU     LIG 4432  32.079  41.815   9.157
    9AU     LIG 4433  31.944  41.977   9.579
    9AU     LIG 4434  32.003  42.244   9.954
    9AU       S 4435  30.933  41.689   7.745
    9AU     LIG 4436  31.154  42.042   7.942
    9AU     LIG 4437  31.062  42.395   8.233
    9AU     LIG 4438  31.301  42.800   8.301
    9AU     LIG 4439  31.312  43.273   8.346
    9AU     LIG 4440  31.337  43.674   8.607
    9AU    AUSL 4441  30.603  39.794   7.915
    9AU    AUSL 4442  31.019  39.743   7.758
    9AU     AUL 4443  30.811  39.629   8.138
    9AU       S 4444  30.583  39.254   8.003
    9AU     LIG 4445  30.589  38.910   8.276
    9AU     LIG 4446  30.323  38.568   8.399
    9AU     LIG 4447  30.360  38.136   8.505
    9AU     LIG 4448  30.462  37.853   8.873
    9AU     LIG 4449  30.470  37.425   9.049
    9AU       S 4450  31.166  39.518   7.822
    9AU     LIG 4451  31.170  39.069   8.055
    9AU     LIG 4452  31.463  38.773   8.338
    9AU     LIG 4453  31.764  38.462   8.599
    9AU     LIG 4454  32.087  38.084   8.634
    9AU     LIG 4455  32.553  38.092   8.628
    9AU    AUSL 4456  30.276  39.597   7.654
    9AU    AUSL 4457  30.374  39.902   8.259
    9AU     AUL 4458  30.294  39.626   8.013
    9AU       S 4459  30.386  39.188   7.864
    9AU     LIG 4460  30.276  38.716   7.897
    9AU     LIG 4461  30.182  38.243   8.018
    9AU     LIG 4462  29.930  37.915   8.250
    9AU     LIG 4463  29.904  37.469   8.263
    9AU     LIG 4464  29.803  37.155   8.542
    9AU       S 4465  30.116  39.796   8.437
    9AU     LIG 4466  29.659  39.541   8.606
    9AU     LIG 4467  29.405  39.145   8.539
    9AU     LIG 4468  29.167  38.815   8.789
    9AU     LIG 4469  28.938  38.560   9.124
    9AU     LIG 4470  28.936  38.543   9.602
    9AU    AUSL 4471  30.706  39.487   7.612
    9AU    AUSL 4472  30.452  39.604   7.250
    9AU     AUL 4473  30.329  39.356   7.436
    9AU       S 4474  30.678  39.323   7.138
    9AU     LIG 4475  30.325  38.958   7.109
    9AU     LIG 4476  30.077  38.523   6.973
    9AU     LIG 4477  29.687  38.216   6.864
    9AU     LIG 4478  29.634  37.738   6.752
    9AU     LIG 4479  29.833  37.354   6.614
    9AU       S 4480  30.707  39.300   7.753
    9AU     LIG 4481  30.774  38.822   7.804
    9AU     LIG 4482  30.677  38.407   8.050
    9AU     LIG 4483  30.713  37.927   8.162
    9AU     LIG 4484  30.823  37.442   8.161
    9AU     LIG 4485  31.030  37.041   8.364
    9AU    AUSL 4486  30.674  41.055   6.847
    9AU    AUSL 4487  31.111  41.018   7.245
    9AU     AUL 4488  30.970  41.238   6.857
    9AU       S 4489  30.575  41.463   6.721
    9AU     LIG 4490  30.704  41.858   6.503
    9AU     LIG 4491  30.962  42.252   6.470
    9AU     LIG 4492  30.836  42.693   6.378
    9AU     LIG 4493  30.785  43.025   6.051
    9AU     LIG 4494  30.591  43.322   5.725
    9AU       S 4495  31.332  41.248   7.135
    9AU     LIG 4496  31.758  41.500   6.995
    9AU     LIG 4497  32.078  41.661   6.649
    9AU     LIG 4498  32.420  41.689   6.292
    9AU     LIG 4499  32.636  41.972   5.969
    9AU     LIG 4500  32.715  42.443   6.055
    9AU    AUSL 4501  30.477  41.102   7.250
    9AU    AUSL 4502  30.367  40.772   6.953
    9AU     AUL 4503  30.328  41.079   6.807
    9AU       S 4504  30.386  41.478   7.074
    9AU     LIG 4505  30.527  41.988   6.979
    9AU     LIG 4506  30.647  42.445   6.832
    9AU     LIG 4507  30.587  42.924   6.793
    9AU     LIG 4508  30.343  43.317   6.673
    9AU     LIG 4509  30.480  43.753   6.645
    9AU       S 4510  29.894  41.117   6.653
    9AU     LIG 4511  29.895  41.376   6.243
    9AU     LIG 4512  29.803  41.648   5.837
    9AU     LIG 4513  29.751  41.962   5.463
    9AU     LIG 4514  29.756  42.268   5.081
    9AU     LIG 4515  29.417  42.352   4.737
    9AU    AUSL 4516  30.668  39.731   6.880
    9AU    AUSL 4517  30.058  39.766   7.254
    9AU     AUL 4518  30.310  39.599   6.946
    9AU       S 4519  29.881  39.716   7.075
    9AU     LIG 4520  29.490  39.557   7.229
    9AU     LIG 4521  29.179  39.299   6.998
    9AU     LIG 4522  28.934  38.994   6.720
    9AU     LIG 4523  28.751  38.708   6.378
    9AU     LIG 4524  28.581  38.387   6.065
    9AU       S 4525  30.703  39.307   6.908
    9AU     LIG 4526  30.679  38.840   6.765
    9AU     LIG 4527  30.463  38.407   6.625
    9AU     LIG 4528  30.384  38.064   6.279
    9AU     LIG 4529  30.321  37.728   5.949
    9AU     LIG 4530  30.303  37.327   5.695
    9AU    AUSL 4531  30.844  39.766   7.314
    9AU    AUSL 4532  30.949  40.046   6.969
    9AU     AUL 4533  30.985  39.679   6.930
    9AU       S 4534  30.915  39.336   7.228
    9AU     LIG 4535  30.802  38.866   7.285
    9AU     LIG 4536  30.575  38.466   7.135
    9AU     LIG 4537  30.543  37.998   6.996
    9AU     LIG 4538  30.768  37.584   6.851
    9AU     LIG 4539  30.748  37.251   6.529
    9AU       S 4540  31.219  39.812   6.568
    9AU     LIG 4541  31.100  39.362   6.514
    9AU     LIG 4542  31.326  39.006   6.280
    9AU     LIG 4543  31.599  38.699   6.023
    9AU     LIG 4544  31.789  38.619   5.594
    9AU     LIG 4545  32.011  38.462   5.189
   10AU     AUC 4546  22.139   8.396   7.498
   10AU     AUC 4547  22.431   8.392   7.329
   10AU     AUC 4548  22.400   8.389   7.666
   10AU     AUC 4549  21.858   8.387   7.336
   10AU     AUC 4550  21.888   8.439   7.683
   10AU     AUC 4551  21.972   8.673   7.497
   10AU     AUC 4552  22.320   8.662   7.482
   10AU     AUC 4553  21.945   8.128   7.502
   10AU     AUC 4554  22.300   8.122   7.507
   10AU     AUC 4555  22.141   8.230   7.769
   10AU     AUC 4556  22.137   8.591   7.753
   10AU     AUC 4557  22.134   8.227   7.233
   10AU     AUC 4558  22.165   8.543   7.228
   10AU     AUC 4559  22.766   8.388   7.177
   10AU     AUC 4560  22.757   8.377   7.511
   10AU     AUC 4561  22.699   8.370   7.864
   10AU     AUC 4562  21.544   8.394   7.173
   10AU     AUC 4563  21.531   8.444   7.531
   10AU     AUC 4564  21.591   8.479   7.881
   10AU     AUC 4565  21.813   8.993   7.466
   10AU     AUC 4566  22.167   9.015   7.432
   10AU     AUC 4567  22.494   8.957   7.462
   10AU     AUC 4568  21.733   7.845   7.507
   10AU     AUC 4569  22.069   7.783   7.476
   10AU     AUC 4570  22.462   7.800   7.492
   10AU     AUC 4571  22.122   8.053   8.069
   10AU     AUC 4572  22.149   8.408   8.098
   10AU     AUC 4573  22.175   8.770   8.040
   10AU     AUC 4574  22.164   8.049   6.952
   10AU     AUC 4575  22.156   8.364   6.892
   10AU     AUC 4576  22.159   8.685   6.920
   10AU     AUC 4577  22.421   8.169   7.992
   10AU     AUC 4578  22.448   8.555   7.987
   10AU     AUC 4579  22.483   8.207   7.023
   10AU     AUC 4580  22.488   8.561   7.031
   10AU     AUC 4581  21.837   8.277   8.011
   10AU     AUC 4582  21.877   8.647   7.989
   10AU     AUC 4583  21.837   8.207   7.043
   10AU     AUC 4584  21.817   8.514   6.997
   10AU     AUC 4585  22.680   8.678   7.321
   10AU     AUC 4586  22.612   8.664   7.684
   10AU     AUC 4587  21.646   8.698   7.338
   10AU     AUC 4588  21.683   8.774   7.690
   10AU     AUC 4589  22.637   8.074   7.348
   10AU     AUC 4590  22.597   8.056   7.677
   10AU     AUC 4591  21.599   8.104   7.357
   10AU     AUC 4592  21.666   8.155   7.708
   10AU     AUC 4593  22.003   8.941   7.746
   10AU     AUC 4594  22.332   8.887   7.756
   10AU     AUC 4595  21.920   7.943   7.789
   10AU     AUC 4596  22.263   7.885   7.773
   10AU     AUC 4597  21.965   8.819   7.182
   10AU     AUC 4598  22.350   8.842   7.158
   10AU     AUC 4599  21.923   7.912   7.219
   10AU     AUC 4600  22.311   7.935   7.220
   10AU    AUSL 4601  22.707   8.306   8.230
   10AU    AUSL 4602  22.433   7.863   8.169
   10AU     AUL 4603  22.751   7.898   8.326
   10AU       S 4604  22.751   7.495   8.105
   10AU     LIG 4605  22.643   7.319   8.460
   10AU     LIG 4606  22.822   6.955   8.659
   10AU     LIG 4607  23.069   6.606   8.842
   10AU     LIG 4608  23.269   6.423   9.234
   10AU     LIG 4609  23.305   6.526   9.702
   10AU       S 4610  22.939   8.313   8.366
   10AU     LIG 4611  22.857   8.294   8.825
   10AU     LIG 4612  22.961   8.110   9.251
   10AU     LIG 4613  23.251   8.077   9.633
   10AU     LIG 4614  23.568   8.210   9.975
   10AU     LIG 4615  23.834   8.279  10.369
   10AU    AUSL 4616  22.302   8.210   8.401
   10AU    AUSL 4617  22.034   8.594   8.435
   10AU     AUL 4618  22.243   8.500   8.732
   10AU       S 4619  22.456   8.125   8.586
   10AU     LIG 4620  22.324   8.048   9.002
   10AU     LIG 4621  22.528   7.832   9.377
   10AU     LIG 4622  22.718   7.568   9.735
   10AU     LIG 4623  22.815   7.428  10.183
   10AU     LIG 4624  22.712   7.583  10.628
   10AU       S 4625  21.824   8.343   8.662
   10AU     LIG 4626  21.833   8.236   9.125
   10AU     LIG 4627  21.579   8.256   9.524
   10AU     LIG 4628  21.490   8.264   9.987
   10AU     LIG 4629  21.525   8.511  10.384
   10AU     LIG 4630  21.496   8.933  10.599
   10AU    AUSL 4631  22.351   8.585   8.150
   10AU    AUSL 4632  22.790   8.718   8.105
   10AU     AUL 4633  22.596   8.610   8.437
   10AU       S 4634  22.264   8.960   8.605
   10AU     LIG 4635  22.589   9.114   8.917
   10AU     LIG 4636  22.719   9.058   9.388
   10AU     LIG 4637  22.683   9.095   9.886
   10AU     LIG 4638  22.721   9.092  10.376
   10AU     LIG 4639  22.873   9.038  10.827
   10AU       S 4640  22.941   8.880   8.269
   10AU     LIG 4641  23.366   8.880   8.300
   10AU     LIG 4642  23.599   9.136   8.619
   10AU     LIG 4643  23.793   9.426   8.929
   10AU     LIG 4644  23.980   9.541   9.349
   10AU     LIG 4645  24.332   9.491   9.679
   10AU    AUSL 4646  22.679   8.426   6.890
   10AU    AUSL 4647  22.565   8.858   6.814
   10AU     AUL 4648  22.874   8.673   6.630
   10AU       S 4649  22.520   8.601   6.361
   10AU     LIG 4650  22.872   8.575   5.996
   10AU     LIG 4651  23.033   8.264   5.685
   10AU     LIG 4652  23.282   8.185   5.291
   10AU     LIG 4653  23.676   8.191   5.007
   10AU     LIG 4654  23.982   8.186   4.631
   10AU       S 4655  22.889   9.138   6.774
   10AU     LIG 4656  23.082   9.377   6.430
   10AU     LIG 4657  23.296   9.631   6.088
   10AU     LIG 4658  23.569   9.830   5.750
   10AU     LIG 4659  23.665   9.813   5.278
   10AU     LIG 4660  23.543  10.063   4.886
   10AU    AUSL 4661  22.468   8.173   6.592
   10AU    AUSL 4662  22.868   8.037   6.924
   10AU     AUL 4663  22.846   8.200   6.651
   10AU       S 4664  22.927   7.732   6.697
   10AU     LIG 4665  23.057   7.343   6.405
   10AU     LIG 4666  23.328   6.947   6.386
   10AU     LIG 4667  23.744   6.737   6.238
   10AU     LIG 4668  24.119   6.887   5.958
   10AU     LIG 4669  24.473   7.059   5.671
   10AU       S 4670  22.579   8.411   6.338
   10AU     LIG 4671  22.605   8.079   6.031
   10AU     LIG 4672  22.656   7.910   5.572
   10AU     LIG 4673  22.675   7.808   5.095
   10AU     LIG 4674  22.856   7.654   4.663
   10AU     LIG 4675  23.021   7.587   4.208
   10AU    AUSL 4676  22.271   8.537   6.764
   10AU    AUSL 4677  22.044   8.148   6.705
   10AU     AUL 4678  22.193   8.193   6.441
   10AU       S 4679  21.746   8.201   6.295
   10AU     LIG 4680  21.895   7.907   6.034
   10AU     LIG 4681  21.663   7.734   5.666
   10AU     LIG 4682  21.409   7.621   5.282
   10AU     LIG 4683  21.161   7.530   4.885
   10AU     LIG 4684  21.115   7.614   4.417
   10AU       S 4685  22.352   8.649   6.448
   10AU     LIG 4686  22.233   8.454   5.984
   10AU     LIG 4687  22.533   8.405   5.628
   10AU     LIG 4688  22.768   8.333   5.219
   10AU     LIG 4689  22.793   8.564   4.785
   10AU     LIG 4690  22.904   8.890   4.438
   10AU    AUSL 4691  21.625   8.550   8.264
   10AU    AUSL 4692  21.934   8.892   8.132
   10AU     AUL 4693  21.801   8.839   8.459
   10AU       S 4694  21.654   8.475   8.720
   10AU     LIG 4695  21.356   8.201   8.890
   10AU     LIG 4696  21.164   8.062   9.286
   10AU     LIG 4697  21.055   8.158   9.724
   10AU     LIG 4698  20.739   8.262  10.051
   10AU     LIG 4699  20.294   8.345  10.211
   10AU       S 4700  21.526   9.145   8.226
   10AU     LIG 4701  21.521   9.277   8.643
   10AU     LIG 4702  21.300   9.554   8.939
   10AU     LIG 4703  21.127   9.542   9.370
   10AU     LIG 4704  21.043   9.818   9.732
   10AU     LIG 4705  21.067  10.277   9.842
   10AU    AUSL 4706  21.930   8.240   8.179
   10AU    AUSL 4707  21.476   8.160   8.116
   10AU     AUL 4708  21.480   8.268   8.348
   10AU       S 4709  21.305   7.817   8.252
   10AU     LIG 4710  20.893   7.657   8.093
   10AU     LIG 4711  20.627   7.300   8.129
   10AU     LIG 4712  20.373   7.144   8.479
   10AU     LIG 4713  20.000   7.147   8.775
   10AU     LIG 4714  19.758   7.077   9.194
   10AU       S 4715  21.871   8.163   8.578
   10AU     LIG 4716  21.710   7.837   8.822
   10AU     LIG 4717  21.599   7.789   9.274
   10AU     LIG 4718  21.431   7.801   9.718
   10AU     LIG 4719  21.198   7.848  10.130
   10AU     LIG 4720  21.114   7.709  10.574
   10AU    AUSL 4721  21.636   8.290   6.772
   10AU    AUSL 4722  21.821   7.919   6.993
   10AU     AUL 4723  21.807   7.909   6.645
   10AU       S 4724  21.515   8.188   6.414
   10AU     LIG 4725  21.366   7.918   6.070
   10AU     LIG 4726  21.171   7.917   5.643
   10AU     LIG 4727  20.923   7.825   5.244
   10AU     LIG 4728  20.578   7.876   4.915
   10AU     LIG 4729  20.231   8.107   4.658
   10AU       S 4730  21.398   7.752   6.811
   10AU     LIG 4731  21.189   7.318   6.733
   10AU     LIG 4732  20.945   7.019   6.476
   10AU     LIG 4733  20.788   6.777   6.116
   10AU     LIG 4734  20.874   6.830   5.649
   10AU     LIG 4735  20.731   6.826   5.183
   10AU    AUSL 4736  21.903   8.576   6.549
   10AU    AUSL 4737  21.405   8.632   6.921
   10AU     AUL 4738  21.537   8.612   6.593
   10AU       S 4739  21.157   8.870   6.720
   10AU     LIG 4740  20.957   9.249   6.457
   10AU     LIG 4741  20.880   9.379   6.001
   10AU     LIG 4742  20.546   9.371   5.652
   10AU     LIG 4743  20.169   9.493   5.386
   10AU     LIG 4744  19.871   9.569   5.007
   10AU       S 4745  21.811   8.430   6.258
   10AU     LIG 4746  21.628   8.286   5.813
   10AU     LIG 4747  21.544   8.150   5.364
   10AU     LIG 4748  21.524   8.318   4.914
   10AU     LIG 4749  21.558   8.655   4.559
   10AU     LIG 4750  21.540   9.005   4.214
   10AU    AUSL 4751  22.927   8.916   7.507
   10AU    AUSL 4752  22.920   8.730   7.087
   10AU     AUL 4753  23.206   9.014   7.307
   10AU       S 4754  22.979   9.026   6.922
   10AU     LIG 4755  23.336   8.960   6.629
   10AU     LIG 4756  23.582   9.261   6.364
   10AU     LIG 4757  23.757   9.392   5.956
   10AU     LIG 4758  24.014   9.505   5.580
   10AU     LIG 4759  24.446   9.436   5.382
   10AU       S 4760  23.325   8.798   7.711
   10AU     LIG 4761  23.734   8.999   7.595
   10AU     LIG 4762  24.215   9.058   7.621
   10AU     LIG 4763  24.666   9.215   7.543
   10AU     LIG 4764  24.884   9.592   7.662
   10AU     LIG 4765  25.052  10.037   7.767
   10AU    AUSL 4766  23.130   8.503   7.393
   10AU    AUSL 4767  23.071   8.175   7.717
   10AU     AUL 4768  23.432   8.274   7.729
   10AU       S 4769  23.262   8.584   7.454
   10AU     LIG 4770  23.738   8.524   7.397
   10AU     LIG 4771  24.182   8.699   7.265
   10AU     LIG 4772  24.651   8.853   7.180
   10AU     LIG 4773  25.123   8.992   7.103
   10AU     LIG 4774  25.462   9.168   6.797
   10AU       S 4775  23.331   7.881   7.520
   10AU     LIG 4776  23.704   7.725   7.763
   10AU     LIG 4777  23.955   7.346   7.931
   10AU     LIG 4778  24.434   7.279   7.869
   10AU     LIG 4779  24.919   7.261   7.879
   10AU     LIG 4780  25.353   7.400   7.953
   10AU    AUSL 4781  22.836   8.536   7.723
   10AU    AUSL 4782  22.580   8.922   7.770
   10AU     AUL 4783  22.911   8.984   7.811
   10AU       S 4784  22.904   9.178   8.227
   10AU     LIG 4785  23.277   9.382   8.308
   10AU     LIG 4786  23.586   9.679   8.515
   10AU     LIG 4787  23.723  10.056   8.780
   10AU     LIG 4788  24.025  10.441   8.731
   10AU     LIG 4789  24.383  10.762   8.715
   10AU       S 4790  23.183   8.624   7.866
   10AU     LIG 4791  23.712   8.613   7.945
   10AU     LIG 4792  24.161   8.551   7.758
   10AU     LIG 4793  24.606   8.710   7.683
   10AU     LIG 4794  25.056   8.885   7.726
   10AU     LIG 4795  25.475   9.070   7.901
   10AU    AUSL 4796  21.487   9.009   7.515
   10AU    AUSL 4797  21.581   8.770   7.894
   10AU     AUL 4798  21.265   9.109   7.757
   10AU       S 4799  21.429   8.945   8.151
   10AU     LIG 4800  21.290   8.816   8.565
   10AU     LIG 4801  21.112   9.063   8.936
   10AU     LIG 4802  20.734   9.270   9.146
   10AU     LIG 4803  20.258   9.317   9.197
   10AU     LIG 4804  19.903   9.507   9.441
   10AU       S 4805  21.490   9.364   7.425
   10AU     LIG 4806  21.003   9.498   7.464
   10AU     LIG 4807  20.513   9.601   7.503
   10AU     LIG 4808  20.147   9.917   7.538
   10AU     LIG 4809  19.790  10.132   7.300
   10AU     LIG 4810  19.331  10.205   7.396
   10AU    AUSL 4811  21.444   8.608   7.342
   10AU    AUSL 4812  21.559   9.021   7.088
   10AU     AUL 4813  21.261   8.919   7.191
   10AU       S 4814  20.965   8.539   7.028
   10AU     LIG 4815  20.711   8.997   6.958
   10AU     LIG 4816  20.340   9.325   6.794
   10AU     LIG 4817  19.824   9.427   6.710
   10AU     LIG 4818  19.335   9.551   6.700
   10AU     LIG 4819  18.863   9.662   6.641
   10AU       S 4820  21.406   9.278   6.906
   10AU     LIG 4821  21.282   9.625   6.624
   10AU     LIG 4822  21.042   9.834   6.275
   10AU     LIG 4823  20.908  10.213   6.029
   10AU     LIG 4824  20.547  10.501   6.021
   10AU     LIG 4825  20.266  10.863   6.129
   10AU    AUSL 4826  21.202   8.658   7.734
   10AU    AUSL 4827  21.152   8.300   7.390
   10AU     AUL 4828  21.053   8.617   7.478
   10AU       S 4829  20.847   8.184   7.594
   10AU     LIG 4830  20.415   7.912   7.524
   10AU     LIG 4831  19.974   7.689   7.495
   10AU     LIG 4832  19.568   7.713   7.251
   10AU     LIG 4833  19.271   7.393   7.048
   10AU     LIG 4834  18.779   7.346   6.992
   10AU       S 4835  21.109   8.611   7.979
   10AU     LIG 4836  20.764   8.974   7.890
   10AU     LIG 4837  20.423   9.344   7.996
   10AU     LIG 4838  19.981   9.392   8.275
   10AU     LIG 4839  19.507   9.559   8.452
   10AU     LIG 4840  18.991   9.454   8.437
   10AU    AUSL 4841  22.862   7.812   7.555
   10AU    AUSL 4842  22.675   8.083   7.869
   10AU     AUL 4843  23.016   7.981   7.927
   10AU       S 4844  23.184   7.703   7.569
   10AU     LIG 4845  23.544   7.424   7.384
   10AU     LIG 4846  23.933   7.155   7.449
   10AU     LIG 4847  24.120   6.874   7.762
   10AU     LIG 4848  24.496   6.615   7.756
   10AU     LIG 4849  24.809   6.534   7.443
   10AU       S 4850  22.889   7.548   7.977
   10AU     LIG 4851  23.133   7.228   8.275
   10AU     LIG 4852  23.347   6.969   8.607
   10AU     LIG 4853  23.591   6.692   8.904
   10AU     LIG 4854  24.016   6.697   9.111
   10AU     LIG 4855  24.465   6.595   9.223
   10AU    AUSL 4856  22.847   8.189   7.323
   10AU    AUSL 4857  22.713   7.691   7.162
   10AU     AUL 4858  22.986   7.835   7.171
   10AU       S 4859  23.333   8.074   7.317
   10AU     LIG 4860  23.733   7.866   7.200
   10AU     LIG 4861  24.006   7.519   7.082
   10AU     LIG 4862  24.403   7.301   7.156
   10AU     LIG 4863  24.857   7.380   7.019
   10AU     LIG 4864  25.304   7.392   6.839
   10AU       S 4865  22.907   7.509   6.841
   10AU     LIG 4866  22.917   7.044   6.834
   10AU     LIG 4867  23.060   6.615   6.678
   10AU     LIG 4868  23.374   6.373   6.438
   10AU     LIG 4869  23.713   6.197   6.216
   10AU     LIG 4870  24.136   6.070   6.242
   10AU    AUSL 4871  21.310   7.925   7.571
   10AU    AUSL 4872  21.471   8.147   7.143
   10AU     AUL 4873  21.117   8.026   7.242
   10AU       S 4874  21.345   7.930   6.859
   10AU     LIG 4875  20.893   7.715   6.883
   10AU     LIG 4876  20.629   7.307   6.789
   10AU     LIG 4877  20.415   7.011   6.454
   10AU     LIG 4878  20.102   6.909   6.086
   10AU     LIG 4879  19.636   6.853   5.965
   10AU       S 4880  20.908   7.918   7.655
   10AU     LIG 4881  20.729   7.491   7.622
   10AU     LIG 4882  20.324   7.305   7.470
   10AU     LIG 4883  19.945   7.216   7.713
   10AU     LIG 4884  19.639   6.900   7.782
   10AU     LIG 4885  19.304   6.819   7.515
   10AU    AUSL 4886  21.459   8.321   7.719
   10AU    AUSL 4887  21.664   7.915   7.814
   10AU     AUL 4888  21.258   8.107   7.893
   10AU       S 4889  21.373   7.675   8.000
   10AU     LIG 4890  21.228   7.308   7.778
   10AU     LIG 4891  20.964   6.956   7.947
   10AU     LIG 4892  20.569   6.782   8.156
   10AU     LIG 4893  20.544   6.428   8.414
   10AU     LIG 4894  20.345   6.283   8.795
   10AU       S 4895  20.855   8.251   7.754
   10AU     LIG 4896  20.406   8.314   7.862
   10AU     LIG 4897  20.007   8.071   7.828
   10AU     LIG 4898  19.560   7.818   7.767
   10AU     LIG 4899  19.094   7.622   7.815
   10AU     LIG 4900  18.598   7.611   7.959
   10AU    AUSL 4901  22.190   9.136   7.880
   10AU    AUSL 4902  21.752   9.166   7.822
   10AU     AUL 4903  21.995   9.222   8.171
   10AU       S 4904  21.612   9.376   7.941
   10AU     LIG 4905  21.433   9.662   8.296
   10AU     LIG 4906  21.334  10.040   8.608
   10AU     LIG 4907  21.119  10.455   8.758
   10AU     LIG 4908  20.808  10.833   8.742
   10AU     LIG 4909  20.330  10.976   8.785
   10AU       S 4910  22.195   9.565   7.927
   10AU     LIG 4911  22.389   9.549   8.331
   10AU     LIG 4912  22.405   9.851   8.689
   10AU     LIG 4913  22.281  10.330   8.732
   10AU     LIG 4914  22.162  10.761   8.950
   10AU     LIG 4915  22.245  11.195   9.150
   10AU    AUSL 4916  22.015   9.356   7.532
   10AU    AUSL 4917  22.307   9.284   7.164
   10AU     AUL 4918  22.218   9.622   7.316
   10AU       S 4919  22.027   9.582   7.746
   10AU     LIG 4920  22.056  10.044   7.908
   10AU     LIG 4921  22.014  10.390   8.243
   10AU     LIG 4922  22.053  10.807   8.456
   10AU     LIG 4923  22.017  11.261   8.550
   10AU     LIG 4924  21.868  11.693   8.591
   10AU       S 4925  22.040   9.446   6.933
   10AU     LIG 4926  22.403   9.779   6.903
   10AU     LIG 4927  22.666  10.159   6.828
   10AU     LIG 4928  22.870  10.591   6.698
   10AU     LIG 4929  23.065  11.018   6.500
   10AU     LIG 4930  22.824  11.456   6.474
   10AU    AUSL 4931  22.471   9.285   7.572
   10AU    AUSL 4932  22.447   8.999   8.193
   10AU     AUL 4933  22.541   9.252   7.949
   10AU       S 4934  22.688   9.098   8.391
   10AU     LIG 4935  23.062   9.114   8.704
   10AU     LIG 4936  23.270   9.482   8.870
   10AU     LIG 4937  23.483   9.746   9.192
   10AU     LIG 4938  23.544   9.893   9.639
   10AU     LIG 4939  23.419  10.204   9.987
   10AU       S 4940  22.398   9.636   7.745
   10AU     LIG 4941  22.777   9.748   8.039
   10AU     LIG 4942  22.968  10.197   8.112
   10AU     LIG 4943  23.108  10.615   8.334
   10AU     LIG 4944  22.989  11.040   8.579
   10AU     LIG 4945  22.796  11.504   8.674
   10AU    AUSL 4946  22.083   7.762   7.926
   10AU    AUSL 4947  22.500   7.696   7.762
   10AU     AUL 4948  22.297   7.576   8.137
   10AU       S 4949  22.079   7.186   8.020
   10AU     LIG 4950  21.929   6.856   8.297
   10AU     LIG 4951  21.995   6.423   8.303
   10AU     LIG 4952  21.902   5.974   8.267
   10AU     LIG 4953  21.924   5.535   8.408
   10AU     LIG 4954  21.799   5.267   8.767
   10AU       S 4955  22.650   7.458   7.821
   10AU     LIG 4956  22.711   7.005   8.042
   10AU     LIG 4957  23.044   6.711   8.269
   10AU     LIG 4958  23.403   6.455   8.473
   10AU     LIG 4959  23.686   6.172   8.729
   10AU     LIG 4960  24.116   6.168   8.948
   10AU    AUSL 4961  21.755   7.528   7.676
   10AU    AUSL 4962  21.796   7.841   8.239
   10AU     AUL 4963  21.811   7.566   8.025
   10AU       S 4964  21.855   7.127   7.870
   10AU     LIG 4965  21.485   6.914   8.043
   10AU     LIG 4966  21.317   6.542   7.877
   10AU     LIG 4967  21.262   6.052   7.875
   10AU     LIG 4968  21.196   5.648   8.132
   10AU     LIG 4969  21.411   5.348   8.422
   10AU       S 4970  21.511   7.726   8.351
   10AU     LIG 4971  21.222   7.300   8.309
   10AU     LIG 4972  20.893   6.991   8.493
   10AU     LIG 4973  20.575   6.789   8.798
   10AU     LIG 4974  20.452   6.723   9.246
   10AU     LIG 4975  20.501   6.757   9.731
   10AU    AUSL 4976  22.184   7.438   7.632
   10AU    AUSL 4977  21.930   7.553   7.270
   10AU     AUL 4978  21.807   7.300   7.444
   10AU       S 4979  22.172   7.259   7.166
   10AU     LIG 4980  21.903   6.869   7.148
   10AU     LIG 4981  21.621   6.504   7.043
   10AU     LIG 4982  21.397   6.061   6.979
   10AU     LIG 4983  21.334   5.648   6.750
   10AU     LIG 4984  21.490   5.301   6.499
   10AU       S 4985  22.182   7.223   7.764
   10AU     LIG 4986  22.181   6.706   7.859
   10AU     LIG 4987  22.265   6.197   7.920
   10AU     LIG 4988  22.255   5.707   8.029
   10AU     LIG 4989  22.530   5.350   8.176
   10AU     LIG 4990  22.786   5.088   8.451
   10AU    AUSL 4991  22.152   8.998   6.845
   10AU    AUSL 4992  22.587   8.971   7.240
   10AU     AUL 4993  22.447   9.190   6.870
   10AU       S 4994  22.049   9.396   6.715
   10AU     LIG 4995  22.140   9.772   6.474
   10AU     LIG 4996  22.482  10.059   6.363
   10AU     LIG 4997  22.588  10.504   6.253
   10AU     LIG 4998  22.468  10.753   5.864
   10AU     LIG 4999  22.169  10.884   5.508
   10AU       S 5000  22.827   9.233   7.133
   10AU     LIG 5001  23.308   9.388   6.918
   10AU     LIG 5002  23.434   9.703   6.599
   10AU     LIG 5003  23.743   9.826   6.258
   10AU     LIG 5004  23.883  10.249   6.071
   10AU     LIG 5005  24.046  10.708   5.979
   10AU    AUSL 5006  21.950   9.047   7.245
   10AU    AUSL 5007  21.845   8.711   6.950
   10AU     AUL 5008  21.802   9.015   6.806
   10AU       S 5009  21.853   9.407   7.072
   10AU     LIG 5010  21.902   9.908   6.950
   10AU     LIG 5011  22.160  10.261   6.738
   10AU     LIG 5012  22.157  10.755   6.669
   10AU     LIG 5013  22.142  11.269   6.649
   10AU     LIG 5014  22.022  11.745   6.514
   10AU       S 5015  21.369   9.048   6.663
   10AU     LIG 5016  21.464   9.279   6.293
   10AU     LIG 5017  21.356   9.572   5.944
   10AU     LIG 5018  21.284   9.638   5.477
   10AU     LIG 5019  21.383   9.855   5.069
   10AU     LIG 5020  21.291  10.279   4.892
   10AU    AUSL 5021  22.151   7.658   6.896
   10AU    AUSL 5022  21.539   7.720   7.269
   10AU     AUL 5023  21.789   7.532   6.968
   10AU       S 5024  21.359   7.653   7.100
   10AU     LIG 5025  21.032   7.354   7.228
   10AU     LIG 5026  20.898   6.942   7.042
   10AU     LIG 5027  20.715   6.628   6.738
   10AU     LIG 5028  20.547   6.200   6.614
   10AU     LIG 5029  20.340   5.954   6.250
   10AU       S 5030  22.181   7.254   6.936
   10AU     LIG 5031  22.112   6.911   6.661
   10AU     LIG 5032  21.784   6.596   6.577
   10AU     LIG 5033  21.795   6.119   6.656
   10AU     LIG 5034  21.966   5.700   6.466
   10AU     LIG 5035  22.209   5.630   6.064
   10AU    AUSL 5036  22.325   7.707   7.324
   10AU    AUSL 5037  22.424   7.982   6.970
   10AU     AUL 5038  22.470   7.615   6.944
   10AU       S 5039  22.400   7.279   7.251
   10AU     LIG 5040  22.408   6.809   7.074
   10AU     LIG 5041  22.153   6.385   6.969
   10AU     LIG 5042  22.218   5.877   6.891
   10AU     LIG 5043  22.446   5.470   6.706
   10AU     LIG 5044  22.382   4.952   6.759
   10AU       S 5045  22.685   7.745   6.571
   10AU     LIG 5046  22.550   7.287   6.555
   10AU     LIG 5047  22.761   6.906   6.362
   10AU     LIG 5048  23.042   6.607   6.122
   10AU     LIG 5049  23.241   6.415   5.735
   10AU     LIG 5050  23.245   6.393   5.250
   11POPC   NC3 5051  21.686  15.556   9.419
   11POPC   PO4 5052  22.415  15.280   9.505
   11POPC   GL1 5053  22.281  15.075   9.140
   11POPC   GL2 5054  21.964  15.248   9.116
   11POPC   C1A 5055  22.189  15.058   8.694
   11POPC   D2A 5056  22.004  14.848   8.348
   11POPC   C3A 5057  22.066  14.977   7.938
   11POPC   C4A 5058  22.206  15.065   7.490
   11POPC   C1B 5059  21.952  15.543   8.754
   11POPC   C2B 5060  21.955  15.388   8.329
   11POPC   C3B 5061  22.152  15.467   7.936
   11POPC   C4B 5062  21.976  15.515   7.511
   12POPC   NC3 5063  39.691  40.316   9.460
   12POPC   PO4 5064  40.292  40.316   9.744
   12POPC   GL1 5065  40.223  40.147   9.296
   12POPC   GL2 5066  39.949  39.921   9.239
   12POPC   C1A 5067  40.235  40.237   8.837
   12POPC   D2A 5068  40.384  40.257   8.397
   12POPC   C3A 5069  40.127  40.026   8.091
   12POPC   C4A 5070  40.010  40.208   7.694
   12POPC   C1B 5071  39.933  39.803   8.794
   12POPC   C2B 5072  39.721  39.879   8.422
   12POPC   C3B 5073  39.690  39.695   8.043
   12POPC   C4B 5074  39.957  39.702   7.676
   13POPC   NC3 5075  30.034  32.181   9.904
   13POPC   PO4 5076  30.065  31.599   9.568
   13POPC   GL1 5077  30.031  31.960   9.268
   13POPC   GL2 5078  30.039  32.319   9.383
   13POPC   C1A 5079  29.754  32.111   8.929
   13POPC   D2A 5080  29.741  32.401   8.556
   13POPC   C3A 5081  29.774  32.220   8.127
   13POPC   C4A 5082  29.774  32.062   7.679
   13POPC   C1B 5083  30.051  32.528   8.970
   13POPC   C2B 5084  30.235  32.525   8.571
   13POPC   C3B 5085  30.258  32.543   8.143
   13POPC   C4B 5086  30.019  32.513   7.770
   14POPC   NC3 5087  13.327  10.119   9.840
   14POPC   PO4 5088  13.702   9.696   9.563
   14POPC   GL1 5089  13.767   9.845   9.125
   14POPC   GL2 5090  13.639   9.526   9.070
   14POPC   C1A 5091  13.647   9.905   8.710
   14POPC   D2A 5092  13.425   9.993   8.358
   14POPC   C3A 5093  13.662   9.858   8.007
   14POPC   C4A 5094  13.612   9.868   7.584
   14POPC   C1B 5095  13.393   9.469   8.706
   14POPC   C2B 5096  13.555   9.468   8.353
   14POPC   C3B 5097  13.394   9.446   7.970
   14POPC   C4B 5098  13.233   9.511   7.594
   15POPC   NC3 5099  19.744  17.219   9.323
   15POPC   PO4 5100  19.714  17.890   9.442
   15POPC   GL1 5101  19.718  17.656   9.075
   15POPC   GL2 5102  20.060  17.485   9.005
   15POPC   C1A 5103  19.607  17.442   8.713
   15POPC   D2A 5104  19.709  17.454   8.319
   15POPC   C3A 5105  19.381  17.317   8.052
   15POPC   C4A 5106  19.652  17.513   7.783
   15POPC   C1B 5107  20.022  17.136   8.657
   15POPC   C2B 5108  20.081  17.135   8.175
   15POPC   C3B 5109  20.120  17.308   7.739
   15POPC   C4B 5110  20.084  17.174   7.299
   16POPC   NC3 5111  30.988   9.439   9.372
   16POPC   PO4 5112  30.595  10.001   9.440
   16POPC   GL1 5113  30.744   9.788   9.086
   16POPC   GL2 5114  30.523   9.519   8.978
   16POPC   C1A 5115  30.980   9.613   8.727
   16POPC   D2A 5116  30.755   9.435   8.395
   16POPC   C3A 5117  30.643   9.749   8.100
   16POPC   C4A 5118  30.683   9.604   7.702
   16POPC   C1B 5119  30.516   9.854   8.629
   16POPC   C2B 5120  30.309  10.110   8.315
   16POPC   C3B 5121  30.356  10.185   7.938
   16POPC   C4B 5122  30.264   9.884   7.682
   17POPC   NC3 5123  32.952  31.139   9.379
   17POPC   PO4 5124  33.405  31.694   9.586
   17POPC   GL1 5125  33.323  31.508   9.159
   17POPC   GL2 5126  32.967  31.513   9.024
   17POPC   C1A 5127  33.369  31.594   8.717
   17POPC   D2A 5128  32.967  31.674   8.495
   17POPC   C3A 5129  33.048  31.757   8.071
   17POPC   C4A 5130  33.349  31.687   7.714
   17POPC   C1B 5131  33.072  31.188   8.693
   17POPC   C2B 5132  33.153  31.254   8.225
   17POPC   C3B 5133  33.012  31.312   7.779
   17POPC   C4B 5134  32.773  31.348   7.381
   18POPC   NC3 5135  44.747  29.516   9.445
   18POPC   PO4 5136  44.496  28.907   9.411
   18POPC   GL1 5137  44.589  29.090   9.054
   18POPC   GL2 5138  44.484  29.441   9.009
   18POPC   C1A 5139  44.469  29.088   8.649
   18POPC   D2A 5140  44.617  29.333   8.329
   18POPC   C3A 5141  44.696  29.069   8.005
   18POPC   C4A 5142  44.925  29.011   7.659
   18POPC   C1B 5143  44.907  29.410   8.777
   18POPC   C2B 5144   0.120  29.581   8.410
   18POPC   C3B 5145  44.948  29.532   7.983
   18POPC   C4B 5146   0.145  29.494   7.581
   19POPC   NC3 5147  32.047  14.360   9.421
   19POPC   PO4 5148  32.706  14.386   9.430
   19POPC   GL1 5149  32.442  14.461   9.056
   19POPC   GL2 5150  32.170  14.201   8.950
   19POPC   C1A 5151  32.532  14.318   8.620
   19POPC   D2A 5152  32.264  14.393   8.255
   19POPC   C3A 5153  32.407  14.313   7.838
   19POPC   C4A 5154  32.278  14.094   7.464
   19POPC   C1B 5155  32.048  14.576   8.696
   19POPC   C2B 5156  31.747  14.705   8.354
   19POPC   C3B 5157  31.802  14.805   7.895
   19POPC   C4B 5158  32.033  14.539   7.582
   20POPC   NC3 5159   1.157  38.497   9.613
   20POPC   PO4 5160   0.654  38.958   9.552
   20POPC   GL1 5161   1.027  38.814   9.248
   20POPC   GL2 5162   0.918  38.809   8.959
   20POPC   C1A 5163   1.360  38.589   8.912
   20POPC   D2A 5164   1.337  38.277   8.545
   20POPC   C3A 5165   1.381  38.553   8.183
   20POPC   C4A 5166   1.503  38.594   7.782
   20POPC   C1B 5167   0.886  38.431   8.762
   20POPC   C2B 5168   0.897  38.445   8.312
   20POPC   C3B 5169   1.035  38.347   7.885
   20POPC   C4B 5170   1.125  38.518   7.444
   21POPC   NC3 5171  16.192  21.284   9.372
   21POPC   PO4 5172  15.571  21.526   9.606
   21POPC   GL1 5173  15.718  21.531   9.202
   21POPC   GL2 5174  15.471  21.787   9.167
   21POPC   C1A 5175  15.945  21.455   8.779
   21POPC   D2A 5176  16.091  21.646   8.370
   21POPC   C3A 5177  16.162  21.445   7.959
   21POPC   C4A 5178  16.113  21.037   7.726
   21POPC   C1B 5179  15.442  21.622   8.785
   21POPC   C2B 5180  15.596  21.462   8.399
   21POPC   C3B 5181  15.665  21.295   7.992
   21POPC   C4B 5182  15.620  21.527   7.623
   22POPC   NC3 5183  27.381  37.595   9.507
   22POPC   PO4 5184  27.855  37.928   9.544
   22POPC   GL1 5185  27.680  37.850   9.157
   22POPC   GL2 5186  27.347  37.981   9.125
   22POPC   C1A 5187  27.644  37.579   8.780
   22POPC   D2A 5188  27.848  37.510   8.372
   22POPC   C3A 5189  27.760  37.644   7.956
   22POPC   C4A 5190  27.874  37.336   7.668
   22POPC   C1B 5191  27.506  38.097   8.761
   22POPC   C2B 5192  27.731  37.996   8.398
   22POPC   C3B 5193  27.461  38.056   8.038
   22POPC   C4B 5194  27.330  37.950   7.649
   23POPC   NC3 5195  32.082  22.753   9.458
   23POPC   PO4 5196  32.726  22.550   9.537
   23POPC   GL1 5197  32.495  22.808   9.146
   23POPC   GL2 5198  32.113  22.990   9.019
   23POPC   C1A 5199  32.512  22.995   8.725
   23POPC   D2A 5200  32.220  23.082   8.408
   23POPC   C3A 5201  32.508  23.164   8.085
   23POPC   C4A 5202  32.626  23.052   7.682
   23POPC   C1B 5203  31.752  23.021   8.697
   23POPC   C2B 5204  31.658  23.264   8.287
   23POPC   C3B 5205  31.977  23.238   7.968
   23POPC   C4B 5206  32.161  22.862   7.825
   24POPC   NC3 5207  25.726  33.140   9.617
   24POPC   PO4 5208  26.339  32.868   9.657
   24POPC   GL1 5209  26.205  33.079   9.251
   24POPC   GL2 5210  25.840  33.096   9.139
   24POPC   C1A 5211  26.197  33.069   8.778
   24POPC   D2A 5212  26.180  33.352   8.421
   24POPC   C3A 5213  26.111  33.130   8.073
   24POPC   C4A 5214  26.306  33.046   7.710
   24POPC   C1B 5215  25.603  33.093   8.767
   24POPC   C2B 5216  25.640  33.212   8.372
   24POPC   C3B 5217  25.644  32.921   8.069
   24POPC   C4B 5218  25.722  33.084   7.724
   25POPC   NC3 5219   2.612  13.482   9.390
   25POPC   PO4 5220   2.898  14.036   9.554
   25POPC   GL1 5221   2.928  13.834   9.147
   25POPC   GL2 5222   3.097  13.494   9.214
   25POPC   C1A 5223   2.714  13.658   8.732
   25POPC   D2A 5224   2.445  13.561   8.339
   25POPC   C3A 5225   2.647  13.355   7.972
   25POPC   C4A 5226   2.793  13.631   7.639
   25POPC   C1B 5227   3.214  13.584   8.820
   25POPC   C2B 5228   3.090  13.453   8.426
   25POPC   C3B 5229   3.135  13.514   8.014
   25POPC   C4B 5230   3.146  13.209   7.724
   26POPC   NC3 5231   2.680  39.075   9.305
   26POPC   PO4 5232   2.605  38.504   9.597
   26POPC   GL1 5233   2.732  38.370   9.187
   26POPC   GL2 5234   2.881  38.663   9.060
   26POPC   C1A 5235   2.507  38.287   8.814
   26POPC   D2A 5236   2.613  38.213   8.383
   26POPC   C3A 5237   2.890  38.260   8.078
   26POPC   C4A 5238   2.821  38.264   7.640
   26POPC   C1B 5239   2.751  38.684   8.628
   26POPC   C2B 5240   2.665  38.733   8.195
   26POPC   C3B 5241   2.764  38.747   7.784
   26POPC   C4B 5242   2.814  38.877   7.359
   27POPC   NC3 5243  16.387   5.042   9.520
   27POPC   PO4 5244  17.047   4.843   9.533
   27POPC   GL1 5245  16.871   5.092   9.210
   27POPC   GL2 5246  16.591   4.957   9.073
   27POPC   C1A 5247  16.781   5.313   8.804
   27POPC   D2A 5248  16.725   5.119   8.427
   27POPC   C3A 5249  16.824   5.313   8.053
   27POPC   C4A 5250  16.793   5.135   7.655
   27POPC   C1B 5251  16.383   4.821   8.714
   27POPC   C2B 5252  16.498   4.678   8.314
   27POPC   C3B 5253  16.445   4.948   7.972
   27POPC   C4B 5254  16.312   4.795   7.592
   28POPC   NC3 5255   6.988   5.699   9.316
   28POPC   PO4 5256   7.192   6.149   9.799
   28POPC   GL1 5257   7.437   5.998   9.309
   28POPC   GL2 5258   7.714   5.837   9.096
   28POPC   C1A 5259   7.336   5.864   8.784
   28POPC   D2A 5260   7.146   6.212   8.561
   28POPC   C3A 5261   7.161   6.221   8.106
   28POPC   C4A 5262   7.321   6.039   7.739
   28POPC   C1B 5263   7.824   5.819   8.635
   28POPC   C2B 5264   7.607   5.835   8.219
   28POPC   C3B 5265   7.404   5.557   7.891
   28POPC   C4B 5266   7.497   5.511   7.440
   29POPC   NC3 5267   0.621   2.392   9.411
   29POPC   PO4 5268   0.110   1.984   9.731
   29POPC   GL1 5269   0.220   2.095   9.325
   29POPC   GL2 5270   0.397   1.804   9.253
   29POPC   C1A 5271   0.246   2.120   8.862
   29POPC   D2A 5272   0.349   1.877   8.485
   29POPC   C3A 5273   0.328   2.009   8.079
   29POPC   C4A 5274   0.224   1.995   7.666
   29POPC   C1B 5275   0.643   1.680   8.876
   29POPC   C2B 5276   0.758   1.555   8.474
   29POPC   C3B 5277   0.568   1.535   8.077
   29POPC   C4B 5278   0.689   1.813   7.767
   30POPC   NC3 5279  19.033  30.925   9.545
   30POPC   PO4 5280  18.639  30.449   9.279
   30POPC   GL1 5281  18.908  30.747   9.052
   30POPC   GL2 5282  19.254  30.733   9.073
   30POPC   C1A 5283  19.026  30.898   8.638
   30POPC   D2A 5284  19.217  30.923   8.243
   30POPC   C3A 5285  18.961  30.739   7.934
   30POPC   C4A 5286  19.002  30.738   7.504
   30POPC   C1B 5287  19.236  30.424   8.728
   30POPC   C2B 5288  19.043  30.379   8.310
   30POPC   C3B 5289  19.223  30.295   7.893
   30POPC   C4B 5290  19.419  30.440   7.501
   31POPC   NC3 5291  31.146  42.389   9.779
   31POPC   PO4 5292  31.579  42.627   9.552
   31POPC   GL1 5293  31.535  42.630   9.103
   31POPC   GL2 5294  31.832  42.766   8.973
   31POPC   C1A 5295  31.528  42.315   8.752
   31POPC   D2A 5296  31.523  42.143   8.313
   31POPC   C3A 5297  31.477  42.447   7.964
   31POPC   C4A 5298  31.154  42.646   7.732
   31POPC   C1B 5299  31.770  42.686   8.526
   31POPC   C2B 5300  31.928  42.433   8.227
   31POPC   C3B 5301  31.941  42.475   7.808
   31POPC   C4B 5302  31.677  42.670   7.524
   32POPC   NC3 5303  29.329  11.648   9.758
   32POPC   PO4 5304  28.825  11.300   9.412
   32POPC   GL1 5305  29.020  11.129   9.056
   32POPC   GL2 5306  29.336  10.930   9.100
   32POPC   C1A 5307  28.923  11.087   8.638
   32POPC   D2A 5308  28.750  11.134   8.244
   32POPC   C3A 5309  28.961  11.375   7.945
   32POPC   C4A 5310  29.005  11.138   7.579
   32POPC   C1B 5311  29.423  11.157   8.733
   32POPC   C2B 5312  29.333  11.436   8.413
   32POPC   C3B 5313  29.475  11.322   8.037
   32POPC   C4B 5314  29.503  11.330   7.628
   33POPC   NC3 5315  25.656  29.098   9.463
   33POPC   PO4 5316  25.007  29.041   9.535
   33POPC   GL1 5317  25.234  28.952   9.182
   33POPC   GL2 5318  25.349  29.278   9.100
   33POPC   C1A 5319  25.247  28.850   8.760
   33POPC   D2A 5320  25.477  28.930   8.386
   33POPC   C3A 5321  25.243  28.901   7.995
   33POPC   C4A 5322  25.286  28.984   7.525
   33POPC   C1B 5323  25.314  29.367   8.677
   33POPC   C2B 5324  25.139  29.321   8.263
   33POPC   C3B 5325  25.161  29.413   7.822
   33POPC   C4B 5326  25.339  29.484   7.426
   34POPC   NC3 5327  21.550  21.027   9.425
   34POPC   PO4 5328  21.211  21.601   9.567
   34POPC   GL1 5329  21.176  21.364   9.218
   34POPC   GL2 5330  21.511  21.452   9.155
   34POPC   C1A 5331  21.159  21.421   8.765
   34POPC   D2A 5332  21.252  21.196   8.386
   34POPC   C3A 5333  21.267  21.418   7.987
   34POPC   C4A 5334  21.460  21.268   7.619
   34POPC   C1B 5335  21.579  21.722   8.834
   34POPC   C2B 5336  21.569  21.613   8.415
   34POPC   C3B 5337  21.606  21.810   8.028
   34POPC   C4B 5338  21.458  21.784   7.619
   35POPC   NC3 5339  41.726  38.764   9.475
   35POPC   PO4 5340  41.365  38.174   9.504
   35POPC   GL1 5341  41.559  38.396   9.134
   35POPC   GL2 5342  41.801  38.657   8.994
   35POPC   C1A 5343  41.652  38.257   8.704
   35POPC   D2A 5344  41.528  38.430   8.284
   35POPC   C3A 5345  41.775  38.447   7.914
   35POPC   C4A 5346  41.885  38.165   7.566
   35POPC   C1B 5347  41.481  38.744   8.683
   35POPC   C2B 5348  41.384  38.960   8.292
   35POPC   C3B 5349  41.236  38.998   7.852
   35POPC   C4B 5350  41.264  38.889   7.393
   36POPC   NC3 5351  20.130  20.813   9.795
   36POPC   PO4 5352  19.613  20.573   9.590
   36POPC   GL1 5353  19.815  20.579   9.157
   36POPC   GL2 5354  20.131  20.398   9.126
   36POPC   C1A 5355  19.720  20.818   8.766
   36POPC   D2A 5356  19.911  20.877   8.338
   36POPC   C3A 5357  19.675  20.669   7.980
   36POPC   C4A 5358  19.774  20.402   7.639
   36POPC   C1B 5359  20.197  20.641   8.724
   36POPC   C2B 5360  20.310  20.549   8.314
   36POPC   C3B 5361  20.184  20.645   7.898
   36POPC   C4B 5362  20.089  20.790   7.495
   37POPC   NC3 5363   3.537  22.390   9.568
   37POPC   PO4 5364   3.591  21.838   9.190
   37POPC   GL1 5365   3.566  22.214   9.055
   37POPC   GL2 5366   3.266  22.308   9.133
   37POPC   C1A 5367   3.544  22.234   8.614
   37POPC   D2A 5368   3.599  22.175   8.161
   37POPC   C3A 5369   3.336  22.029   7.810
   37POPC   C4A 5370   3.535  22.155   7.418
   37POPC   C1B 5371   3.160  22.533   8.757
   37POPC   C2B 5372   3.334  22.638   8.350
   37POPC   C3B 5373   3.187  22.500   7.943
   37POPC   C4B 5374   2.928  22.332   7.598
   38POPC   NC3 5375  26.159   3.499   9.703
   38POPC   PO4 5376  25.625   3.469   9.457
   38POPC   GL1 5377  25.983   3.568   9.193
   38POPC   GL2 5378  26.246   3.302   9.226
   38POPC   C1A 5379  25.920   3.729   8.765
   38POPC   D2A 5380  25.979   3.969   8.391
   38POPC   C3A 5381  25.986   3.721   8.006
   38POPC   C4A 5382  25.812   3.367   7.761
   38POPC   C1B 5383  26.056   3.225   8.818
   38POPC   C2B 5384  26.167   3.369   8.411
   38POPC   C3B 5385  26.153   3.136   8.046
   38POPC   C4B 5386  26.356   3.098   7.659
   39POPC   NC3 5387  27.696  40.594   9.842
   39POPC   PO4 5388  27.101  40.746   9.783
   39POPC   GL1 5389  27.443  40.629   9.393
   39POPC   GL2 5390  27.566  40.305   9.210
   39POPC   C1A 5391  27.566  40.712   8.894
   39POPC   D2A 5392  27.667  40.526   8.454
   39POPC   C3A 5393  27.724  40.731   8.036
   39POPC   C4A 5394  27.456  41.038   7.799
   39POPC   C1B 5395  27.381  40.239   8.752
   39POPC   C2B 5396  27.321  40.230   8.237
   39POPC   C3B 5397  27.417  40.386   7.767
   39POPC   C4B 5398  27.484  40.358   7.247
   40POPC   NC3 5399  42.416  39.068   9.638
   40POPC   PO4 5400  41.803  39.188   9.620
   40POPC   GL1 5401  42.095  39.075   9.207
   40POPC   GL2 5402  42.494  39.028   9.155
   40POPC   C1A 5403  42.281  39.316   8.799
   40POPC   D2A 5404  42.378  39.152   8.372
   40POPC   C3A 5405  42.243  39.354   7.982
   40POPC   C4A 5406  42.075  39.267   7.553
   40POPC   C1B 5407  42.717  39.009   8.775
   40POPC   C2B 5408  42.711  38.747   8.416
   40POPC   C3B 5409  42.705  38.934   8.037
   40POPC   C4B 5410  42.514  39.031   7.667
   41POPC   NC3 5411  29.394  14.473   9.508
   41POPC   PO4 5412  29.965  14.133   9.615
   41POPC   GL1 5413  30.028  14.167   9.179
   41POPC   GL2 5414  29.721  14.368   9.150
   41POPC   C1A 5415  29.971  14.268   8.742
   41POPC   D2A 5416  30.081  14.506   8.407
   41POPC   C3A 5417  29.907  14.291   8.104
   41POPC   C4A 5418  29.932  14.328   7.710
   41POPC   C1B 5419  29.694  14.691   8.826
   41POPC   C2B 5420  29.701  14.854   8.392
   41POPC   C3B 5421  29.848  14.794   7.965
   41POPC   C4B 5422  29.603  14.701   7.605
   42POPC   NC3 5423  15.122   7.921   9.352
   42POPC   PO4 5424  15.409   8.445   9.685
   42POPC   GL1 5425  15.188   8.393   9.230
   42POPC   GL2 5426  15.460   8.255   9.082
   42POPC   C1A 5427  15.097   8.144   8.760
   42POPC   D2A 5428  15.226   8.047   8.334
   42POPC   C3A 5429  14.903   8.114   8.035
   42POPC   C4A 5430  14.838   8.022   7.564
   42POPC   C1B 5431  15.603   8.246   8.639
   42POPC   C2B 5432  15.774   7.964   8.333
   42POPC   C3B 5433  15.656   8.075   7.925
   42POPC   C4B 5434  15.300   8.297   7.756
   43POPC   NC3 5435  20.373  13.801   9.459
   43POPC   PO4 5436  20.564  13.157   9.501
   43POPC   GL1 5437  20.548  13.418   9.150
   43POPC   GL2 5438  20.766  13.731   9.115
   43POPC   C1A 5439  20.473  13.536   8.751
   43POPC   D2A 5440  20.825  13.497   8.479
   43POPC   C3A 5441  20.709  13.581   8.074
   43POPC   C4A 5442  20.516  13.482   7.704
   43POPC   C1B 5443  20.748  13.961   8.699
   43POPC   C2B 5444  20.408  13.903   8.395
   43POPC   C3B 5445  20.274  13.959   7.991
   43POPC   C4B 5446  20.622  14.014   7.767
   44POPC   NC3 5447  32.781  10.494   9.517
   44POPC   PO4 5448  33.382  10.277   9.346
   44POPC   GL1 5449  33.038  10.408   9.086
   44POPC   GL2 5450  33.011  10.763   9.135
   44POPC   C1A 5451  32.836  10.351   8.688
   44POPC   D2A 5452  32.972  10.156   8.298
   44POPC   C3A 5453  32.753  10.304   7.907
   44POPC   C4A 5454  32.939  10.319   7.455
   44POPC   C1B 5455  33.183  10.743   8.716
   44POPC   C2B 5456  33.146  10.640   8.271
   44POPC   C3B 5457  33.223  10.499   7.852
   44POPC   C4B 5458  33.351  10.621   7.424
   45POPC   NC3 5459  21.205  14.004   9.439
   45POPC   PO4 5460  21.720  14.322   9.639
   45POPC   GL1 5461  21.587  14.284   9.237
   45POPC   GL2 5462  21.514  14.613   9.199
   45POPC   C1A 5463  21.454  14.185   8.811
   45POPC   D2A 5464  21.267  14.315   8.417
   45POPC   C3A 5465  21.475  14.259   8.038
   45POPC   C4A 5466  21.313  14.138   7.632
   45POPC   C1B 5467  21.361  14.706   8.801
   45POPC   C2B 5468  21.503  14.770   8.390
   45POPC   C3B 5469  21.584  14.820   7.994
   45POPC   C4B 5470  21.527  14.588   7.648
   46POPC   NC3 5471   0.509   9.145   9.536
   46POPC   PO4 5472   0.320   9.799   9.550
   46POPC   GL1 5473   0.368   9.528   9.203
   46POPC   GL2 5474   0.554   9.818   9.087
   46POPC   C1A 5475   0.319   9.525   8.743
   46POPC   D2A 5476   0.418   9.804   8.377
   46POPC   C3A 5477   0.330   9.726   7.929
   46POPC   C4A 5478   0.311   9.592   7.483
   46POPC   C1B 5479   0.803   9.915   8.730
   46POPC   C2B 5480   0.732  10.204   8.384
   46POPC   C3B 5481   0.639  10.128   7.972
   46POPC   C4B 5482   0.531  10.053   7.547
   47POPC   NC3 5483  14.494  38.681   9.606
   47POPC   PO4 5484  14.135  38.124   9.659
   47POPC   GL1 5485  14.174  38.332   9.225
   47POPC   GL2 5486  14.162  38.705   9.227
   47POPC   C1A 5487  14.504  38.378   8.866
   47POPC   D2A 5488  14.731  38.358   8.437
   47POPC   C3A 5489  14.510  38.329   8.030
   47POPC   C4A 5490  14.087  38.239   7.840
   47POPC   C1B 5491  14.230  38.798   8.795
   47POPC   C2B 5492  14.230  38.578   8.395
   47POPC   C3B 5493  13.971  38.686   8.074
   47POPC   C4B 5494  14.267  38.728   7.766
   48POPC   NC3 5495  13.881  10.806   9.480
   48POPC   PO4 5496  13.568  10.218   9.459
   48POPC   GL1 5497  13.699  10.406   9.116
   48POPC   GL2 5498  13.519  10.725   9.097
   48POPC   C1A 5499  13.621  10.405   8.690
   48POPC   D2A 5500  13.498  10.580   8.310
   48POPC   C3A 5501  13.595  10.359   7.943
   48POPC   C4A 5502  13.295  10.266   7.618
   48POPC   C1B 5503  13.618  10.911   8.678
   48POPC   C2B 5504  13.756  11.037   8.271
   48POPC   C3B 5505  13.701  10.868   7.856
   48POPC   C4B 5506  13.972  10.829   7.412
   49POPC   NC3 5507   0.157  42.238   9.552
   49POPC   PO4 5508   0.743  42.513   9.454
   49POPC   GL1 5509   0.481  42.294   9.151
   49POPC   GL2 5510   0.199  42.060   9.077
   49POPC   C1A 5511   0.537  42.207   8.735
   49POPC   D2A 5512   0.656  42.477   8.423
   49POPC   C3A 5513   0.447  42.371   8.081
   49POPC   C4A 5514   0.549  42.283   7.695
   49POPC   C1B 5515   0.193  41.833   8.652
   49POPC   C2B 5516   0.424  41.875   8.282
   49POPC   C3B 5517   0.261  41.890   7.886
   49POPC   C4B 5518   0.071  42.152   7.573
   50POPC   NC3 5519  21.506  26.435   9.595
   50POPC   PO4 5520  21.509  27.107   9.663
   50POPC   GL1 5521  21.592  26.886   9.221
   50POPC   GL2 5522  21.768  27.133   8.987
   50POPC   C1A 5523  21.568  26.585   8.791
   50POPC   D2A 5524  21.598  26.754   8.298
   50POPC   C3A 5525  21.507  26.662   7.826
   50POPC   C4A 5526  21.647  26.901   7.444
   50POPC   C1B 5527  21.377  27.047   8.761
   50POPC   C2B 5528  21.136  26.747   8.537
   50POPC   C3B 5529  21.084  26.647   8.110
   50POPC   C4B 5530  20.954  26.585   7.689
   51POPC   NC3 5531  40.213  38.961   9.816
   51POPC   PO4 5532  40.215  39.534   9.509
   51POPC   GL1 5533  40.061  39.433   9.136
   51POPC   GL2 5534  39.987  39.140   9.183
   51POPC   C1A 5535  40.178  39.338   8.726
   51POPC   D2A 5536  40.032  39.477   8.341
   51POPC   C3A 5537  39.980  39.260   7.967
   51POPC   C4A 5538  40.300  39.314   7.674
   51POPC   C1B 5539  39.857  38.936   8.818
   51POPC   C2B 5540  40.037  38.948   8.428
   51POPC   C3B 5541  40.013  38.748   8.053
   51POPC   C4B 5542  40.076  38.849   7.643
   52POPC   NC3 5543   8.131  40.347   9.525
   52POPC   PO4 5544   8.711  40.036   9.448
   52POPC   GL1 5545   8.298  39.868   9.203
   52POPC   GL2 5546   8.067  40.109   9.093
   52POPC   C1A 5547   7.978  39.693   8.837
   52POPC   D2A 5548   7.822  39.812   8.414
   52POPC   C3A 5549   8.152  39.974   8.169
   52POPC   C4A 5550   8.330  39.772   7.834
   52POPC   C1B 5551   7.771  40.200   8.794
   52POPC   C2B 5552   7.839  40.330   8.417
   52POPC   C3B 5553   7.741  40.261   8.037
   52POPC   C4B 5554   7.981  40.422   7.768
   53POPC   NC3 5555  40.286  30.160   9.381
   53POPC   PO4 5556  39.822  29.566   9.404
   53POPC   GL1 5557  40.030  29.774   9.119
   53POPC   GL2 5558  40.390  29.668   9.145
   53POPC   C1A 5559  39.817  30.013   8.810
   53POPC   D2A 5560  39.704  29.960   8.399
   53POPC   C3A 5561  39.932  30.236   8.130
   53POPC   C4A 5562  40.102  30.204   7.713
   53POPC   C1B 5563  40.226  29.485   8.740
   53POPC   C2B 5564  39.986  29.451   8.358
   53POPC   C3B 5565  40.016  29.685   7.969
   53POPC   C4B 5566  40.146  29.491   7.581
   54POPC   NC3 5567   1.030   5.719   9.417
   54POPC   PO4 5568   1.649   5.954   9.446
   54POPC   GL1 5569   1.316   6.009   9.108
   54POPC   GL2 5570   1.418   5.668   9.067
   54POPC   C1A 5571   1.000   5.752   8.763
   54POPC   D2A 5572   1.141   5.601   8.348
   54POPC   C3A 5573   1.003   5.869   8.037
   54POPC   C4A 5574   1.105   5.882   7.634
   54POPC   C1B 5575   1.483   5.810   8.675
   54POPC   C2B 5576   1.401   6.030   8.318
   54POPC   C3B 5577   1.541   5.792   7.944
   54POPC   C4B 5578   1.665   6.011   7.579
   55POPC   NC3 5579  27.597  21.367   9.580
   55POPC   PO4 5580  27.223  21.757   9.239
   55POPC   GL1 5581  27.396  21.364   9.110
   55POPC   GL2 5582  27.756  21.217   9.113
   55POPC   C1A 5583  27.410  21.251   8.706
   55POPC   D2A 5584  27.608  21.237   8.315
   55POPC   C3A 5585  27.440  21.430   7.909
   55POPC   C4A 5586  27.055  21.629   7.718
   55POPC   C1B 5587  27.809  20.938   8.743
   55POPC   C2B 5588  28.035  20.944   8.346
   55POPC   C3B 5589  27.938  21.169   7.939
   55POPC   C4B 5590  27.752  21.163   7.552
   56POPC   NC3 5591   2.964  11.746   9.382
   56POPC   PO4 5592   2.456  12.265   9.522
   56POPC   GL1 5593   2.522  12.049   9.160
   56POPC   GL2 5594   2.850  12.175   9.129
   56POPC   C1A 5595   2.653  11.950   8.731
   56POPC   D2A 5596   2.649  11.792   8.316
   56POPC   C3A 5597   2.929  11.856   8.019
   56POPC   C4A 5598   2.639  11.914   7.711
   56POPC   C1B 5599   3.082  12.300   8.779
   56POPC   C2B 5600   3.015  12.446   8.377
   56POPC   C3B 5601   3.157  12.325   7.993
   56POPC   C4B 5602   2.977  12.266   7.596
   57POPC   NC3 5603  22.610   3.434   9.472
   57POPC   PO4 5604  21.972   3.618   9.393
   57POPC   GL1 5605  22.027   3.365   9.048
   57POPC   GL2 5606  22.371   3.340   9.018
   57POPC   C1A 5607  21.786   3.423   8.668
   57POPC   D2A 5608  22.013   3.556   8.306
   57POPC   C3A 5609  22.045   3.340   7.932
   57POPC   C4A 5610  21.933   3.498   7.552
   57POPC   C1B 5611  22.551   3.492   8.639
   57POPC   C2B 5612  22.526   3.697   8.231
   57POPC   C3B 5613  22.277   3.783   7.852
   57POPC   C4B 5614  22.384   3.698   7.424
   58POPC   NC3 5615  24.948  28.572   9.455
   58POPC   PO4 5616  25.431  28.189   9.704
   58POPC   GL1 5617  25.417  28.106   9.247
   58POPC   GL2 5618  25.271  28.426   9.101
   58POPC   C1A 5619  25.486  28.117   8.778
   58POPC   D2A 5620  25.651  28.261   8.379
   58POPC   C3A 5621  25.393  28.257   7.992
   58POPC   C4A 5622  25.537  28.585   7.745
   58POPC   C1B 5623  25.036  28.367   8.723
   58POPC   C2B 5624  25.078  28.540   8.350
   58POPC   C3B 5625  24.833  28.504   8.015
   58POPC   C4B 5626  25.034  28.542   7.664
   59POPC   NC3 5627  41.800  21.732   9.361
   59POPC   PO4 5628  42.466  21.789   9.412
   59POPC   GL1 5629  42.223  21.650   9.072
   59POPC   GL2 5630  42.167  21.287   9.093
   59POPC   C1A 5631  42.229  21.676   8.631
   59POPC   D2A 5632  42.470  21.469   8.299
   59POPC   C3A 5633  42.204  21.341   7.933
   59POPC   C4A 5634  42.237  21.246   7.483
   59POPC   C1B 5635  42.280  21.165   8.671
   59POPC   C2B 5636  42.352  20.952   8.268
   59POPC   C3B 5637  42.254  20.835   7.820
   59POPC   C4B 5638  42.374  20.742   7.357
   60POPC   NC3 5639  19.251  13.749   9.621
   60POPC   PO4 5640  18.849  13.225   9.602
   60POPC   GL1 5641  18.902  13.579   9.276
   60POPC   GL2 5642  19.201  13.752   9.118
   60POPC   C1A 5643  18.832  13.552   8.829
   60POPC   D2A 5644  19.094  13.388   8.495
   60POPC   C3A 5645  19.046  13.432   8.037
   60POPC   C4A 5646  18.913  13.768   7.731
   60POPC   C1B 5647  19.199  13.867   8.668
   60POPC   C2B 5648  19.423  13.778   8.266
   60POPC   C3B 5649  19.455  13.679   7.820
   60POPC   C4B 5650  19.348  13.840   7.417
   61POPC   NC3 5651  44.194  10.220   9.487
   61POPC   PO4 5652  43.983  10.886   9.488
   61POPC   GL1 5653  43.877  10.542   9.219
   61POPC   GL2 5654  44.173  10.526   9.065
   61POPC   C1A 5655  43.696  10.473   8.810
   61POPC   D2A 5656  43.848  10.427   8.376
   61POPC   C3A 5657  43.599  10.706   8.134
   61POPC   C4A 5658  43.503  10.589   7.740
   61POPC   C1B 5659  44.135  10.221   8.745
   61POPC   C2B 5660  44.356  10.266   8.371
   61POPC   C3B 5661  44.302  10.611   8.157
   61POPC   C4B 5662  44.010  10.557   7.815
   62POPC   NC3 5663  29.978  21.400   9.452
   62POPC   PO4 5664  29.315  21.094   9.439
   62POPC   GL1 5665  29.624  21.276   9.117
   62POPC   GL2 5666  29.981  21.145   9.021
   62POPC   C1A 5667  29.795  21.540   8.761
   62POPC   D2A 5668  29.630  21.493   8.360
   62POPC   C3A 5669  29.716  21.568   7.956
   62POPC   C4A 5670  30.115  21.651   7.754
   62POPC   C1B 5671  29.918  21.088   8.572
   62POPC   C2B 5672  30.125  21.310   8.206
   62POPC   C3B 5673  30.163  21.147   7.768
   62POPC   C4B 5674  30.094  21.063   7.328
   63POPC   NC3 5675   5.865  16.404  10.027
   63POPC   PO4 5676   6.397  16.409   9.537
   63POPC   GL1 5677   6.003  16.593   9.269
   63POPC   GL2 5678   5.728  16.895   9.206
   63POPC   C1A 5679   5.962  16.567   8.815
   63POPC   D2A 5680   5.834  16.708   8.402
   63POPC   C3A 5681   6.026  16.530   8.060
   63POPC   C4A 5682   5.933  16.579   7.614
   63POPC   C1B 5683   5.781  17.066   8.763
   63POPC   C2B 5684   5.922  17.190   8.317
   63POPC   C3B 5685   5.859  17.000   7.921
   63POPC   C4B 5686   5.779  17.045   7.454
   64POPC   NC3 5687  36.476  26.981   9.444
   64POPC   PO4 5688  36.922  26.508   9.405
   64POPC   GL1 5689  36.826  26.793   9.084
   64POPC   GL2 5690  36.514  26.608   9.085
   64POPC   C1A 5691  36.866  27.102   8.717
   64POPC   D2A 5692  36.776  27.018   8.257
   64POPC   C3A 5693  37.089  27.091   7.922
   64POPC   C4A 5694  37.024  27.083   7.458
   64POPC   C1B 5695  36.475  26.773   8.697
   64POPC   C2B 5696  36.465  26.605   8.308
   64POPC   C3B 5697  36.348  26.762   7.934
   64POPC   C4B 5698  36.622  27.008   7.747
   65POPC   NC3 5699  33.455  43.127   9.645
   65POPC   PO4 5700  33.074  43.647   9.484
   65POPC   GL1 5701  33.146  43.318   9.157
   65POPC   GL2 5702  32.850  43.090   9.162
   65POPC   C1A 5703  33.107  43.115   8.725
   65POPC   D2A 5704  32.958  42.908   8.333
   65POPC   C3A 5705  33.169  42.978   7.940
   65POPC   C4A 5706  33.024  43.141   7.531
   65POPC   C1B 5707  32.734  43.425   8.841
   65POPC   C2B 5708  32.811  43.397   8.387
   65POPC   C3B 5709  32.664  43.170   7.989
   65POPC   C4B 5710  32.556  43.348   7.587
   66POPC   NC3 5711  29.986  12.311   9.368
   66POPC   PO4 5712  29.542  11.836   9.389
   66POPC   GL1 5713  29.809  11.930   9.065
   66POPC   GL2 5714  30.078  11.806   9.187
   66POPC   C1A 5715  29.940  12.199   8.719
   66POPC   D2A 5716  29.772  12.162   8.295
   66POPC   C3A 5717  29.779  12.378   7.900
   66POPC   C4A 5718  30.068  12.356   7.562
   66POPC   C1B 5719  30.238  11.663   8.796
   66POPC   C2B 5720  30.209  11.859   8.402
   66POPC   C3B 5721  30.198  12.084   8.022
   66POPC   C4B 5722  30.297  11.903   7.645
   67POPC   NC3 5723   9.974   4.610   9.591
   67POPC   PO4 5724   9.762   5.261   9.463
   67POPC   GL1 5725   9.658   5.101   9.076
   67POPC   GL2 5726   9.632   4.762   9.174
   67POPC   C1A 5727   9.866   4.958   8.716
   67POPC   D2A 5728   9.795   4.943   8.290
   67POPC   C3A 5729   9.800   5.294   8.037
   67POPC   C4A 5730   9.778   5.097   7.650
   67POPC   C1B 5731   9.433   4.688   8.746
   67POPC   C2B 5732   9.322   4.730   8.285
   67POPC   C3B 5733   9.381   4.804   7.809
   67POPC   C4B 5734   9.308   4.696   7.338
   68POPC   NC3 5735   3.056   2.262   9.434
   68POPC   PO4 5736   2.615   1.884   9.713
   68POPC   GL1 5737   2.639   2.001   9.271
   68POPC   GL2 5738   2.878   1.806   9.095
   68POPC   C1A 5739   2.700   2.245   8.867
   68POPC   D2A 5740   2.660   2.500   8.496
   68POPC   C3A 5741   2.694   2.272   8.124
   68POPC   C4A 5742   2.683   2.349   7.695
   68POPC   C1B 5743   3.121   1.953   8.735
   68POPC   C2B 5744   3.183   2.064   8.303
   68POPC   C3B 5745   3.044   1.948   7.894
   68POPC   C4B 5746   2.679   1.814   7.682
   69POPC   NC3 5747   5.766   4.696   9.624
   69POPC   PO4 5748   5.775   5.369   9.478
   69POPC   GL1 5749   5.869   5.050   9.197
   69POPC   GL2 5750   6.211   4.923   9.198
   69POPC   C1A 5751   5.696   4.942   8.778
   69POPC   D2A 5752   5.716   5.215   8.414
   69POPC   C3A 5753   5.680   5.094   8.002
   69POPC   C4A 5754   5.491   5.299   7.670
   69POPC   C1B 5755   6.139   5.169   8.790
   69POPC   C2B 5756   6.217   5.245   8.367
   69POPC   C3B 5757   6.178   5.077   7.961
   69POPC   C4B 5758   6.004   5.285   7.596
   70POPC   NC3 5759  14.124   7.978   9.339
   70POPC   PO4 5760  13.732   8.452   9.483
   70POPC   GL1 5761  13.635   8.223   9.125
   70POPC   GL2 5762  13.264   8.277   9.129
   70POPC   C1A 5763  13.883   8.051   8.756
   70POPC   D2A 5764  13.986   8.250   8.398
   70POPC   C3A 5765  13.918   8.005   8.079
   70POPC   C4A 5766  13.890   8.231   7.742
   70POPC   C1B 5767  13.393   8.130   8.668
   70POPC   C2B 5768  13.403   8.040   8.190
   70POPC   C3B 5769  13.294   8.031   7.728
   70POPC   C4B 5770  13.320   7.935   7.271
   71POPC   NC3 5771  35.492   2.373   9.406
   71POPC   PO4 5772  35.078   2.799   9.752
   71POPC   GL1 5773  35.159   2.804   9.302
   71POPC   GL2 5774  35.482   2.797   9.115
   71POPC   C1A 5775  35.037   2.801   8.851
   71POPC   D2A 5776  35.018   2.700   8.422
   71POPC   C3A 5777  35.396   2.857   8.224
   71POPC   C4A 5778  35.523   2.651   7.881
   71POPC   C1B 5779  35.516   2.499   8.745
   71POPC   C2B 5780  35.659   2.384   8.317
   71POPC   C3B 5781  35.757   2.208   7.882
   71POPC   C4B 5782  35.661   2.306   7.429
   72POPC   NC3 5783  15.586  10.454  10.058
   72POPC   PO4 5784  15.210  10.250   9.501
   72POPC   GL1 5785  15.256  10.570   9.125
   72POPC   GL2 5786  15.624  10.765   9.068
   72POPC   C1A 5787  15.067  10.654   8.704
   72POPC   D2A 5788  14.866  10.591   8.287
   72POPC   C3A 5789  14.832  10.844   7.912
   72POPC   C4A 5790  14.993  10.869   7.471
   72POPC   C1B 5791  15.555  10.460   8.736
   72POPC   C2B 5792  15.386  10.508   8.321
   72POPC   C3B 5793  15.282  10.603   7.910
   72POPC   C4B 5794  15.504  10.790   7.597
   73POPC   NC3 5795  43.791  17.059   9.149
   73POPC   PO4 5796  43.813  16.499   9.503
   73POPC   GL1 5797  43.990  16.568   9.069
   73POPC   GL2 5798  44.243  16.825   9.073
   73POPC   C1A 5799  43.954  16.400   8.630
   73POPC   D2A 5800  43.747  16.178   8.337
   73POPC   C3A 5801  43.831  16.397   7.974
   73POPC   C4A 5802  43.645  16.812   7.838
   73POPC   C1B 5803  44.208  16.837   8.657
   73POPC   C2B 5804  44.020  16.811   8.231
   73POPC   C3B 5805  44.159  16.772   7.790
   73POPC   C4B 5806  44.197  16.987   7.387
   74POPC   NC3 5807  17.552   6.081   9.534
   74POPC   PO4 5808  17.821   5.470   9.620
   74POPC   GL1 5809  17.660   5.675   9.209
   74POPC   GL2 5810  17.724   6.029   9.055
   74POPC   C1A 5811  17.498   5.685   8.756
   74POPC   D2A 5812  17.644   5.536   8.361
   74POPC   C3A 5813  17.459   5.610   7.974
   74POPC   C4A 5814  17.626   5.975   7.824
   74POPC   C1B 5815  17.477   6.199   8.666
   74POPC   C2B 5816  17.323   6.220   8.205
   74POPC   C3B 5817  17.185   6.191   7.758
   74POPC   C4B 5818  17.094   6.328   7.322
   75POPC   NC3 5819  22.677  19.915   9.583
   75POPC   PO4 5820  22.155  19.688   9.482
   75POPC   GL1 5821  22.150  19.853   9.115
   75POPC   GL2 5822  22.405  20.112   9.140
   75POPC   C1A 5823  22.207  19.640   8.760
   75POPC   D2A 5824  22.082  19.418   8.426
   75POPC   C3A 5825  21.896  19.690   8.167
   75POPC   C4A 5826  22.134  19.550   7.826
   75POPC   C1B 5827  22.242  20.156   8.724
   75POPC   C2B 5828  22.332  19.945   8.357
   75POPC   C3B 5829  22.376  20.073   7.957
   75POPC   C4B 5830  21.999  20.040   7.789
   76POPC   NC3 5831  18.810  12.816   9.358
   76POPC   PO4 5832  19.352  13.329   9.469
   76POPC   GL1 5833  19.338  13.247   9.053
   76POPC   GL2 5834  19.043  13.144   9.066
   76POPC   C1A 5835  19.343  12.913   8.711
   76POPC   D2A 5836  19.201  12.917   8.283
   76POPC   C3A 5837  19.328  12.698   7.930
   76POPC   C4A 5838  19.199  12.857   7.545
   76POPC   C1B 5839  18.821  13.018   8.717
   76POPC   C2B 5840  18.719  13.073   8.296
   76POPC   C3B 5841  18.818  12.980   7.881
   76POPC   C4B 5842  18.838  13.265   7.552
   77POPC   NC3 5843  32.687   6.403   9.558
   77POPC   PO4 5844  32.986   7.027   9.710
   77POPC   GL1 5845  33.041   6.935   9.287
   77POPC   GL2 5846  33.021   6.596   9.206
   77POPC   C1A 5847  33.001   6.943   8.834
   77POPC   D2A 5848  33.260   6.897   8.488
   77POPC   C3A 5849  33.052   6.930   8.091
   77POPC   C4A 5850  33.114   6.667   7.752
   77POPC   C1B 5851  32.747   6.404   8.883
   77POPC   C2B 5852  32.586   6.359   8.456
   77POPC   C3B 5853  32.736   6.483   8.058
   77POPC   C4B 5854  32.724   6.366   7.642
   78POPC   NC3 5855  35.573  39.347   9.384
   78POPC   PO4 5856  34.898  39.496   9.339
   78POPC   GL1 5857  35.175  39.320   9.085
   78POPC   GL2 5858  35.254  38.981   9.174
   78POPC   C1A 5859  35.425  39.290   8.742
   78POPC   D2A 5860  35.300  39.442   8.391
   78POPC   C3A 5861  35.549  39.345   8.085
   78POPC   C4A 5862  35.463  39.448   7.680
   78POPC   C1B 5863  35.499  38.787   8.834
   78POPC   C2B 5864  35.587  38.913   8.408
   78POPC   C3B 5865  35.425  38.845   8.018
   78POPC   C4B 5866  35.319  38.946   7.601
   79POPC   NC3 5867  25.763  11.455   9.655
   79POPC   PO4 5868  26.304  11.094   9.776
   79POPC   GL1 5869  26.114  11.158   9.353
   79POPC   GL2 5870  25.997  11.483   9.206
   79POPC   C1A 5871  26.076  11.082   8.925
   79POPC   D2A 5872  26.043  11.106   8.478
   79POPC   C3A 5873  26.292  11.169   8.146
   79POPC   C4A 5874  26.156  11.114   7.730
   79POPC   C1B 5875  25.980  11.565   8.763
   79POPC   C2B 5876  26.078  11.609   8.340
   79POPC   C3B 5877  25.956  11.518   7.945
   79POPC   C4B 5878  26.166  11.585   7.530
   80POPC   NC3 5879  34.108  36.674   9.549
   80POPC   PO4 5880  34.718  36.965   9.642
   80POPC   GL1 5881  34.608  36.767   9.249
   80POPC   GL2 5882  34.349  36.940   9.168
   80POPC   C1A 5883  34.705  36.769   8.787
   80POPC   D2A 5884  34.921  36.884   8.365
   80POPC   C3A 5885  34.708  36.680   7.976
   80POPC   C4A 5886  34.744  36.801   7.520
   80POPC   C1B 5887  34.306  37.121   8.773
   80POPC   C2B 5888  34.422  36.974   8.377
   80POPC   C3B 5889  34.632  37.170   8.039
   80POPC   C4B 5890  34.381  37.076   7.715
   81POPC   NC3 5891  29.057  30.230   9.342
   81POPC   PO4 5892  28.854  30.887   9.409
   81POPC   GL1 5893  29.065  30.692   9.088
   81POPC   GL2 5894  28.883  30.875   8.830
   81POPC   C1A 5895  29.170  30.423   8.732
   81POPC   D2A 5896  29.235  30.573   8.344
   81POPC   C3A 5897  28.961  30.424   8.075
   81POPC   C4A 5898  29.107  30.236   7.745
   81POPC   C1B 5899  29.350  30.911   8.726
   81POPC   C2B 5900  29.577  30.938   8.298
   81POPC   C3B 5901  29.294  30.894   7.926
   81POPC   C4B 5902  28.949  30.751   7.665
   82POPC   NC3 5903  39.481  21.643   9.396
   82POPC   PO4 5904  40.095  21.996   9.495
   82POPC   GL1 5905  40.050  22.149   9.088
   82POPC   GL2 5906  40.334  22.338   9.003
   82POPC   C1A 5907  39.817  22.022   8.765
   82POPC   D2A 5908  39.579  22.149   8.414
   82POPC   C3A 5909  39.802  22.175   8.057
   82POPC   C4A 5910  39.873  22.259   7.668
   82POPC   C1B 5911  40.347  22.011   8.708
   82POPC   C2B 5912  40.128  21.878   8.361
   82POPC   C3B 5913  40.045  21.717   7.958
   82POPC   C4B 5914  40.194  21.809   7.539
   83POPC   NC3 5915   2.340  28.460   9.624
   83POPC   PO4 5916   1.707  28.200   9.503
   83POPC   GL1 5917   2.030  28.415   9.212
   83POPC   GL2 5918   1.984  28.804   9.129
   83POPC   C1A 5919   1.998  28.369   8.776
   83POPC   D2A 5920   1.598  28.339   8.546
   83POPC   C3A 5921   1.639  28.218   8.133
   83POPC   C4A 5922   1.913  28.293   7.823
   83POPC   C1B 5923   1.910  28.859   8.661
   83POPC   C2B 5924   2.002  28.578   8.302
   83POPC   C3B 5925   2.258  28.625   7.961
   83POPC   C4B 5926   2.286  28.524   7.525
   84POPC   NC3 5927  26.578   0.861   9.524
   84POPC   PO4 5928  27.136   0.567   9.413
   84POPC   GL1 5929  26.857   0.598   9.072
   84POPC   GL2 5930  26.496   0.670   9.067
   84POPC   C1A 5931  26.715   0.396   8.692
   84POPC   D2A 5932  26.569   0.407   8.276
   84POPC   C3A 5933  26.879   0.581   8.015
   84POPC   C4A 5934  26.859   0.619   7.573
   84POPC   C1B 5935  26.334   0.755   8.643
   84POPC   C2B 5936  26.419   0.902   8.225
   84POPC   C3B 5937  26.381   0.673   7.846
   84POPC   C4B 5938  26.275   0.227   7.863
   85POPC   NC3 5939  31.145  44.746   9.510
   85POPC   PO4 5940  31.367  44.092   9.488
   85POPC   GL1 5941  31.516  44.410   9.170
   85POPC   GL2 5942  31.273  44.643   9.019
   85POPC   C1A 5943  31.683  44.505   8.731
   85POPC   D2A 5944  31.458  44.525   8.322
   85POPC   C3A 5945  31.637  44.533   7.910
   85POPC   C4A 5946  31.338  44.421   7.572
   85POPC   C1B 5947  31.359  44.906   8.652
   85POPC   C2B 5948  31.448   0.073   8.230
   85POPC   C3B 5949  31.318  44.926   7.844
   85POPC   C4B 5950  30.884  44.959   7.768
   86POPC   NC3 5951   9.726  43.919   9.599
   86POPC   PO4 5952  10.143  43.342   9.526
   86POPC   GL1 5953   9.862  43.611   9.217
   86POPC   GL2 5954  10.014  43.963   9.184
   86POPC   C1A 5955   9.624  43.877   8.865
   86POPC   D2A 5956   9.530  44.170   8.511
   86POPC   C3A 5957   9.551  44.020   8.106
   86POPC   C4A 5958   9.613  43.853   7.723
   86POPC   C1B 5959  10.084  44.235   8.836
   86POPC   C2B 5960   9.921  44.499   8.511
   86POPC   C3B 5961   9.959  44.371   8.092
   86POPC   C4B 5962   9.725  44.348   7.730
   87POPC   NC3 5963  34.769  42.568   9.421
   87POPC   PO4 5964  34.229  42.087   9.473
   87POPC   GL1 5965  34.392  42.328   9.138
   87POPC   GL2 5966  34.687  42.233   9.069
   87POPC   C1A 5967  34.385  42.156   8.688
   87POPC   D2A 5968  34.330  42.188   8.263
   87POPC   C3A 5969  34.458  42.573   8.082
   87POPC   C4A 5970  34.517  42.449   7.700
   87POPC   C1B 5971  34.928  42.284   8.751
   87POPC   C2B 5972  34.821  42.371   8.374
   87POPC   C3B 5973  34.805  42.169   8.013
   87POPC   C4B 5974  34.904  42.085   7.613
   88POPC   NC3 5975  29.339  16.892   9.504
   88POPC   PO4 5976  29.633  16.322   9.507
   88POPC   GL1 5977  29.263  16.418   9.174
   88POPC   GL2 5978  29.276  16.811   9.024
   88POPC   C1A 5979  29.069  16.489   8.725
   88POPC   D2A 5980  29.223  16.864   8.478
   88POPC   C3A 5981  29.360  16.796   8.050
   88POPC   C4A 5982  29.408  16.613   7.630
   88POPC   C1B 5983  28.836  16.919   8.881
   88POPC   C2B 5984  28.706  16.908   8.447
   88POPC   C3B 5985  28.882  16.647   8.125
   88POPC   C4B 5986  28.800  16.848   7.738
   89POPC   NC3 5987  30.295  16.870   9.797
   89POPC   PO4 5988  29.771  17.001   9.375
   89POPC   GL1 5989  29.905  16.654   9.103
   89POPC   GL2 5990  29.695  16.535   8.949
   89POPC   C1A 5991  30.026  16.822   8.665
   89POPC   D2A 5992  29.744  16.934   8.348
   89POPC   C3A 5993  29.872  16.829   7.941
   89POPC   C4A 5994  30.024  16.846   7.509
   89POPC   C1B 5995  29.979  16.327   8.689
   89POPC   C2B 5996  30.089  16.434   8.250
   89POPC   C3B 5997  30.109  16.417   7.764
   89POPC   C4B 5998  30.179  16.146   7.419
   90POPC   NC3 5999   0.320  38.783   9.847
   90POPC   PO4 6000   0.296  39.415   9.724
   90POPC   GL1 6001   0.358  39.277   9.230
   90POPC   GL2 6002   0.481  39.040   9.082
   90POPC   C1A 6003   0.152  39.196   8.765
   90POPC   D2A 6004   0.336  39.288   8.351
   90POPC   C3A 6005   0.388  39.015   7.998
   90POPC   C4A 6006   0.365  39.029   7.526
   90POPC   C1B 6007   0.724  39.165   8.676
   90POPC   C2B 6008   0.844  39.166   8.249
   90POPC   C3B 6009   0.947  38.841   7.982
   90POPC   C4B 6010   0.675  38.662   7.728
   91POPC   NC3 6011  16.016  29.620   9.523
   91POPC   PO4 6012  15.803  30.157   9.629
   91POPC   GL1 6013  15.688  29.901   9.260
   91POPC   GL2 6014  15.993  29.946   9.106
   91POPC   C1A 6015  15.597  29.839   8.804
   91POPC   D2A 6016  15.841  29.950   8.431
   91POPC   C3A 6017  15.894  29.965   7.988
   91POPC   C4A 6018  15.850  29.841   7.538
   91POPC   C1B 6019  16.147  30.178   8.763
   91POPC   C2B 6020  16.274  30.206   8.327
   91POPC   C3B 6021  16.364  30.168   7.911
   91POPC   C4B 6022  16.137  30.252   7.571
   92POPC   NC3 6023  36.617  35.378   9.326
   92POPC   PO4 6024  35.940  35.617   9.540
   92POPC   GL1 6025  36.009  35.351   9.186
   92POPC   GL2 6026  35.800  35.576   9.037
   92POPC   C1A 6027  36.103  35.259   8.729
   92POPC   D2A 6028  36.298  35.051   8.346
   92POPC   C3A 6029  36.230  35.122   7.883
   92POPC   C4A 6030  36.097  35.059   7.441
   92POPC   C1B 6031  35.887  35.751   8.663
   92POPC   C2B 6032  35.771  35.763   8.242
   92POPC   C3B 6033  35.929  35.525   7.897
   92POPC   C4B 6034  35.776  35.527   7.448
   93POPC   NC3 6035  43.739  34.264   9.559
   93POPC   PO4 6036  44.207  34.691   9.538
   93POPC   GL1 6037  44.007  34.455   9.188
   93POPC   GL2 6038  43.701  34.614   9.181
   93POPC   C1A 6039  44.107  34.514   8.770
   93POPC   D2A 6040  44.368  34.577   8.442
   93POPC   C3A 6041  44.055  34.553   8.162
   93POPC   C4A 6042  44.009  34.700   7.739
   93POPC   C1B 6043  43.562  34.661   8.770
   93POPC   C2B 6044  43.606  34.697   8.335
   93POPC   C3B 6045  43.550  34.567   7.907
   93POPC   C4B 6046  43.519  34.778   7.505
   94POPC   NC3 6047  33.555   6.026   9.590
   94POPC   PO4 6048  34.151   6.044   9.425
   94POPC   GL1 6049  33.863   5.931   9.141
   94POPC   GL2 6050  33.576   6.102   9.070
   94POPC   C1A 6051  33.971   5.784   8.718
   94POPC   D2A 6052  33.975   5.612   8.313
   94POPC   C3A 6053  33.941   5.987   8.101
   94POPC   C4A 6054  33.830   6.082   7.706
   94POPC   C1B 6055  33.536   5.613   8.933
   94POPC   C2B 6056  33.515   5.481   8.534
   94POPC   C3B 6057  33.467   5.818   8.230
   94POPC   C4B 6058  33.436   5.792   7.781
   95POPC   NC3 6059  31.711  14.843   9.448
   95POPC   PO4 6060  31.085  14.996   9.488
   95POPC   GL1 6061  31.363  15.173   9.194
   95POPC   GL2 6062  31.599  15.437   9.262
   95POPC   C1A 6063  31.296  15.190   8.770
   95POPC   D2A 6064  31.268  14.916   8.438
   95POPC   C3A 6065  31.341  15.015   8.019
   95POPC   C4A 6066  31.429  14.986   7.575
   95POPC   C1B 6067  31.788  15.284   8.854
   95POPC   C2B 6068  31.676  15.225   8.422
   95POPC   C3B 6069  31.661  15.403   8.034
   95POPC   C4B 6070  31.851  15.350   7.637
   96POPC   NC3 6071  31.994  35.930   9.572
   96POPC   PO4 6072  32.453  36.330   9.428
   96POPC   GL1 6073  32.278  36.040   9.170
   96POPC   GL2 6074  31.951  36.166   9.114
   96POPC   C1A 6075  32.495  35.900   8.843
   96POPC   D2A 6076  32.432  36.211   8.519
   96POPC   C3A 6077  32.393  35.978   8.170
   96POPC   C4A 6078  32.547  36.004   7.759
   96POPC   C1B 6079  32.009  35.982   8.708
   96POPC   C2B 6080  31.899  36.077   8.263
   96POPC   C3B 6081  32.023  36.024   7.823
   96POPC   C4B 6082  32.003  35.830   7.416
   97POPC   NC3 6083  11.459  16.523   9.484
   97POPC   PO4 6084  10.834  16.710   9.414
   97POPC   GL1 6085  11.095  16.547   9.116
   97POPC   GL2 6086  11.273  16.840   9.132
   97POPC   C1A 6087  11.431  16.529   8.776
   97POPC   D2A 6088  11.440  16.731   8.366
   97POPC   C3A 6089  11.409  16.488   8.016
   97POPC   C4A 6090  11.047  16.486   7.798
   97POPC   C1B 6091  11.134  16.936   8.727
   97POPC   C2B 6092  11.085  17.096   8.337
   97POPC   C3B 6093  11.199  16.977   7.920
   97POPC   C4B 6094  11.469  16.844   7.593
   98POPC   NC3 6095   9.018  31.061   9.476
   98POPC   PO4 6096   9.035  30.453   9.575
   98POPC   GL1 6097   8.897  30.615   9.215
   98POPC   GL2 6098   9.237  30.618   9.085
   98POPC   C1A 6099   8.826  30.482   8.804
   98POPC   D2A 6100   9.158  30.583   8.512
   98POPC   C3A 6101   9.035  30.422   8.121
   98POPC   C4A 6102   8.927  30.610   7.717
   98POPC   C1B 6103   9.008  30.961   8.848
   98POPC   C2B 6104   8.734  30.949   8.502
   98POPC   C3B 6105   8.840  30.949   8.088
   98POPC   C4B 6106   8.632  31.088   7.722
   99POPC   NC3 6107  28.013  23.632   9.571
   99POPC   PO4 6108  27.264  23.827   9.550
   99POPC   GL1 6109  27.622  23.799   9.270
   99POPC   GL2 6110  27.747  24.119   9.268
   99POPC   C1A 6111  27.886  23.667   8.914
   99POPC   D2A 6112  27.774  23.614   8.507
   99POPC   C3A 6113  27.900  23.719   8.100
   99POPC   C4A 6114  27.688  23.505   7.777
   99POPC   C1B 6115  27.656  24.121   8.838
   99POPC   C2B 6116  27.806  24.118   8.432
   99POPC   C3B 6117  27.576  24.128   8.058
   99POPC   C4B 6118  27.481  24.014   7.665
  100POPC   NC3 6119  36.805  36.530   9.454
  100POPC   PO4 6120  36.750  35.770   9.531
  100POPC   GL1 6121  36.738  36.083   9.203
  100POPC   GL2 6122  37.099  36.227   9.117
  100POPC   C1A 6123  36.755  36.063   8.765
  100POPC   D2A 6124  36.537  36.027   8.387
  100POPC   C3A 6125  36.836  36.081   8.085
  100POPC   C4A 6126  36.994  36.013   7.727
  100POPC   C1B 6127  37.090  36.473   8.706
  100POPC   C2B 6128  37.360  36.550   8.332
  100POPC   C3B 6129  37.204  36.465   7.907
  100POPC   C4B 6130  36.923  36.524   7.558
  101POPC   NC3 6131   2.810  15.346   9.459
  101POPC   PO4 6132   2.327  14.845   9.610
  101POPC   GL1 6133   2.659  14.891   9.236
  101POPC   GL2 6134   3.010  15.031   9.119
  101POPC   C1A 6135   2.640  14.951   8.769
  101POPC   D2A 6136   2.908  15.049   8.391
  101POPC   C3A 6137   2.622  15.098   8.065
  101POPC   C4A 6138   2.560  14.705   7.894
  101POPC   C1B 6139   2.977  15.354   8.797
  101POPC   C2B 6140   2.607  15.452   8.523
  101POPC   C3B 6141   2.734  15.605   8.136
  101POPC   C4B 6142   3.009  15.398   7.827
  102POPC   NC3 6143   3.084  18.781   9.371
  102POPC   PO4 6144   2.533  19.216   9.493
  102POPC   GL1 6145   2.660  19.017   9.154
  102POPC   GL2 6146   2.418  18.760   9.160
  102POPC   C1A 6147   2.684  19.197   8.770
  102POPC   D2A 6148   2.765  19.302   8.361
  102POPC   C3A 6149   2.569  19.148   8.020
  102POPC   C4A 6150   2.894  18.979   7.791
  102POPC   C1B 6151   2.551  18.687   8.723
  102POPC   C2B 6152   2.753  18.762   8.322
  102POPC   C3B 6153   2.679  18.550   7.932
  102POPC   C4B 6154   2.568  18.626   7.530
  103POPC   NC3 6155  32.582  38.173   9.355
  103POPC   PO4 6156  33.200  38.472   9.422
  103POPC   GL1 6157  33.020  38.219   9.109
  103POPC   GL2 6158  32.758  38.453   8.975
  103POPC   C1A 6159  33.063  38.183   8.683
  103POPC   D2A 6160  33.026  38.424   8.355
  103POPC   C3A 6161  33.042  38.244   7.987
  103POPC   C4A 6162  33.308  38.457   7.730
  103POPC   C1B 6163  33.102  38.698   8.790
  103POPC   C2B 6164  33.120  38.939   8.389
  103POPC   C3B 6165  33.005  38.803   7.964
  103POPC   C4B 6166  32.615  38.839   7.740
  104POPC   NC3 6167  21.568  40.940   9.368
  104POPC   PO4 6168  20.913  40.739   9.349
  104POPC   GL1 6169  21.228  40.665   9.092
  104POPC   GL2 6170  21.488  40.418   9.212
  104POPC   C1A 6171  21.238  40.841   8.680
  104POPC   D2A 6172  21.269  40.931   8.256
  104POPC   C3A 6173  21.082  40.735   7.941
  104POPC   C4A 6174  21.178  40.926   7.566
  104POPC   C1B 6175  21.669  40.591   8.836
  104POPC   C2B 6176  21.705  40.731   8.453
  104POPC   C3B 6177  21.871  40.624   8.071
  104POPC   C4B 6178  21.636  40.823   7.763
  105POPC   NC3 6179   1.238   7.625   9.678
  105POPC   PO4 6180   1.520   7.035   9.412
  105POPC   GL1 6181   1.387   7.451   9.193
  105POPC   GL2 6182   1.022   7.587   9.202
  105POPC   C1A 6183   1.278   7.615   8.772
  105POPC   D2A 6184   1.243   7.399   8.399
  105POPC   C3A 6185   1.480   7.521   8.045
  105POPC   C4A 6186   1.530   7.646   7.581
  105POPC   C1B 6187   0.847   7.360   8.849
  105POPC   C2B 6188   0.731   7.383   8.438
  105POPC   C3B 6189   0.896   7.513   8.035
  105POPC   C4B 6190   1.140   7.320   7.705
  106POPC   NC3 6191  39.629  26.941   9.677
  106POPC   PO4 6192  39.159  26.607   9.313
  106POPC   GL1 6193  39.521  26.841   9.144
  106POPC   GL2 6194  39.529  27.199   9.244
  106POPC   C1A 6195  39.433  26.762   8.708
  106POPC   D2A 6196  39.220  26.506   8.382
  106POPC   C3A 6197  39.397  26.654   8.024
  106POPC   C4A 6198  39.410  26.810   7.659
  106POPC   C1B 6199  39.280  27.280   8.879
  106POPC   C2B 6200  39.287  27.232   8.423
  106POPC   C3B 6201  38.999  26.974   8.159
  106POPC   C4B 6202  38.904  26.843   7.735
  107POPC   NC3 6203  34.051  37.672   9.595
  107POPC   PO4 6204  33.446  37.587   9.702
  107POPC   GL1 6205  33.700  37.592   9.251
  107POPC   GL2 6206  33.900  37.856   9.111
  107POPC   C1A 6207  33.740  37.482   8.770
  107POPC   D2A 6208  33.538  37.498   8.319
  107POPC   C3A 6209  33.744  37.580   7.918
  107POPC   C4A 6210  33.566  37.607   7.438
  107POPC   C1B 6211  33.869  38.022   8.711
  107POPC   C2B 6212  33.942  37.834   8.341
  107POPC   C3B 6213  34.120  37.933   7.977
  107POPC   C4B 6214  33.967  37.884   7.570
  108POPC   NC3 6215  11.449   4.946   9.388
  108POPC   PO4 6216  11.029   5.518   9.542
  108POPC   GL1 6217  11.115   5.281   9.158
  108POPC   GL2 6218  11.412   5.407   9.088
  108POPC   C1A 6219  11.297   5.047   8.752
  108POPC   D2A 6220  11.250   5.132   8.300
  108POPC   C3A 6221  11.216   4.935   7.875
  108POPC   C4A 6222  11.199   5.342   7.724
  108POPC   C1B 6223  11.644   5.437   8.733
  108POPC   C2B 6224  11.754   5.165   8.382
  108POPC   C3B 6225  11.638   5.227   7.958
  108POPC   C4B 6226  11.708   5.358   7.520
  109POPC   NC3 6227   3.906  41.059   9.382
  109POPC   PO4 6228   3.585  40.460   9.429
  109POPC   GL1 6229   3.478  40.667   9.098
  109POPC   GL2 6230   3.782  40.789   8.939
  109POPC   C1A 6231   3.396  40.486   8.705
  109POPC   D2A 6232   3.549  40.636   8.319
  109POPC   C3A 6233   3.214  40.582   8.052
  109POPC   C4A 6234   3.392  40.505   7.672
  109POPC   C1B 6235   3.425  40.993   8.707
  109POPC   C2B 6236   3.310  41.071   8.304
  109POPC   C3B 6237   3.449  40.987   7.879
  109POPC   C4B 6238   3.246  41.095   7.488
  110POPC   NC3 6239  11.619  38.392   9.476
  110POPC   PO4 6240  10.970  38.608   9.594
  110POPC   GL1 6241  11.140  38.423   9.219
  110POPC   GL2 6242  11.346  38.709   9.184
  110POPC   C1A 6243  11.257  38.327   8.786
  110POPC   D2A 6244  11.425  38.485   8.354
  110POPC   C3A 6245  11.385  38.184   8.005
  110POPC   C4A 6246  11.201  38.287   7.608
  110POPC   C1B 6247  11.454  38.835   8.786
  110POPC   C2B 6248  11.228  39.059   8.449
  110POPC   C3B 6249  11.010  38.899   8.100
  110POPC   C4B 6250  11.050  38.751   7.713
  111POPC   NC3 6251   4.112  27.040   9.445
  111POPC   PO4 6252   4.674  26.601   9.611
  111POPC   GL1 6253   4.428  26.758   9.195
  111POPC   GL2 6254   4.493  27.028   9.051
  111POPC   C1A 6255   4.172  26.719   8.780
  111POPC   D2A 6256   4.182  26.920   8.333
  111POPC   C3A 6257   4.178  26.676   7.976
  111POPC   C4A 6258   4.556  26.496   7.788
  111POPC   C1B 6259   4.448  27.186   8.685
  111POPC   C2B 6260   4.645  27.214   8.296
  111POPC   C3B 6261   4.552  27.022   7.900
  111POPC   C4B 6262   4.114  27.159   7.796
  112POPC   NC3 6263  22.786  38.361   9.741
  112POPC   PO4 6264  23.445  38.676   9.710
  112POPC   GL1 6265  23.268  38.645   9.195
  112POPC   GL2 6266  23.012  38.372   9.126
  112POPC   C1A 6267  23.041  38.709   8.749
  112POPC   D2A 6268  23.054  38.412   8.407
  112POPC   C3A 6269  22.806  38.508   8.034
  112POPC   C4A 6270  22.668  38.854   7.801
  112POPC   C1B 6271  22.779  38.154   8.767
  112POPC   C2B 6272  22.559  38.155   8.339
  112POPC   C3B 6273  22.571  38.070   7.880
  112POPC   C4B 6274  22.460  38.423   7.616
  113POPC   NC3 6275  14.053  14.460   9.642
  113POPC   PO4 6276  13.492  14.449   9.598
  113POPC   GL1 6277  13.415  14.517   9.155
  113POPC   GL2 6278  13.652  14.275   9.074
  113POPC   C1A 6279  13.505  14.612   8.691
  113POPC   D2A 6280  13.576  14.486   8.234
  113POPC   C3A 6281  13.367  14.621   7.811
  113POPC   C4A 6282  13.224  15.022   7.645
  113POPC   C1B 6283  13.283  14.161   8.809
  113POPC   C2B 6284  13.159  14.194   8.371
  113POPC   C3B 6285  13.344  14.124   7.974
  113POPC   C4B 6286  13.749  14.291   7.772
  114POPC   NC3 6287   8.413  42.875   9.455
  114POPC   PO4 6288   7.980  43.395   9.482
  114POPC   GL1 6289   8.308  43.276   9.168
  114POPC   GL2 6290   8.618  43.458   9.041
  114POPC   C1A 6291   8.123  43.125   8.794
  114POPC   D2A 6292   8.114  43.299   8.407
  114POPC   C3A 6293   8.007  43.010   8.102
  114POPC   C4A 6294   8.062  43.066   7.698
  114POPC   C1B 6295   8.593  43.270   8.646
  114POPC   C2B 6296   8.496  42.957   8.323
  114POPC   C3B 6297   8.499  42.865   7.889
  114POPC   C4B 6298   8.592  43.235   7.606
  115POPC   NC3 6299  11.121   4.018   9.045
  115POPC   PO4 6300  11.181   4.533   9.456
  115POPC   GL1 6301  11.376   4.494   9.088
  115POPC   GL2 6302  11.726   4.559   9.185
  115POPC   C1A 6303  11.180   4.560   8.686
  115POPC   D2A 6304  11.298   4.627   8.270
  115POPC   C3A 6305  11.020   4.437   7.974
  115POPC   C4A 6306  11.164   4.038   7.795
  115POPC   C1B 6307  11.762   4.648   8.743
  115POPC   C2B 6308  11.759   4.353   8.376
  115POPC   C3B 6309  11.591   4.294   7.945
  115POPC   C4B 6310  11.367   4.490   7.601
  116POPC   NC3 6311  20.552  30.122   9.582
  116POPC   PO4 6312  21.144  29.882   9.406
  116POPC   GL1 6313  20.956  30.110   9.112
  116POPC   GL2 6314  20.588  30.075   9.076
  116POPC   C1A 6315  20.926  30.041   8.680
  116POPC   D2A 6316  20.962  29.711   8.395
  116POPC   C3A 6317  20.888  29.926   8.009
  116POPC   C4A 6318  20.818  29.711   7.635
  116POPC   C1B 6319  20.410  30.165   8.679
  116POPC   C2B 6320  20.491  29.913   8.356
  116POPC   C3B 6321  20.393  29.814   7.947
  116POPC   C4B 6322  20.327  29.944   7.533
  117POPC   NC3 6323   0.128  10.232   9.536
  117POPC   PO4 6324   0.683  10.407   9.473
  117POPC   GL1 6325   0.490  10.745   9.270
  117POPC   GL2 6326   0.758  10.894   9.080
  117POPC   C1A 6327   0.291  10.749   8.871
  117POPC   D2A 6328   0.493  10.704   8.499
  117POPC   C3A 6329   0.302  10.473   8.168
  117POPC   C4A 6330   0.167  10.321   7.782
  117POPC   C1B 6331   0.870  10.529   8.819
  117POPC   C2B 6332   1.003  10.621   8.406
  117POPC   C3B 6333   0.760  10.705   8.055
  117POPC   C4B 6334   0.703  10.525   7.678
  118POPC   NC3 6335  13.295  31.687   9.522
  118POPC   PO4 6336  13.591  32.299   9.468
  118POPC   GL1 6337  13.571  32.041   9.114
  118POPC   GL2 6338  13.225  31.972   9.056
  118POPC   C1A 6339  13.826  32.099   8.726
  118POPC   D2A 6340  13.966  31.917   8.302
  118POPC   C3A 6341  13.746  32.149   7.976
  118POPC   C4A 6342  13.885  32.516   7.771
  118POPC   C1B 6343  13.080  32.115   8.627
  118POPC   C2B 6344  13.262  32.208   8.207
  118POPC   C3B 6345  13.386  32.546   7.901
  118POPC   C4B 6346  13.486  32.379   7.489
  119POPC   NC3 6347  30.487  44.863   9.684
  119POPC   PO4 6348  30.910  44.371   9.646
  119POPC   GL1 6349  30.800  44.557   9.198
  119POPC   GL2 6350  30.514  44.688   9.204
  119POPC   C1A 6351  30.836  44.748   8.759
  119POPC   D2A 6352  30.962  44.872   8.309
  119POPC   C3A 6353  31.040  44.532   8.008
  119POPC   C4A 6354  30.769  44.480   7.688
  119POPC   C1B 6355  30.310  44.789   8.834
  119POPC   C2B 6356  30.237  44.781   8.418
  119POPC   C3B 6357  30.486  44.726   8.065
  119POPC   C4B 6358  30.349  44.793   7.665
  120POPC   NC3 6359  44.003  36.051   9.469
  120POPC   PO4 6360  44.017  36.648   9.487
  120POPC   GL1 6361  43.923  36.364   9.069
  120POPC   GL2 6362  43.800  35.979   9.022
  120POPC   C1A 6363  44.016  36.202   8.613
  120POPC   D2A 6364  44.010  35.865   8.267
  120POPC   C3A 6365  43.858  36.027   7.855
  120POPC   C4A 6366  43.654  36.433   7.849
  120POPC   C1B 6367  43.517  36.207   8.755
  120POPC   C2B 6368  43.481  36.455   8.382
  120POPC   C3B 6369  43.415  36.095   8.142
  120POPC   C4B 6370  43.342  36.054   7.715
  121POPC   NC3 6371  38.145  33.623   9.657
  121POPC   PO4 6372  37.588  33.991   9.435
  121POPC   GL1 6373  37.699  33.830   9.061
  121POPC   GL2 6374  37.715  33.470   9.064
  121POPC   C1A 6375  37.533  33.886   8.655
  121POPC   D2A 6376  37.349  33.785   8.255
  121POPC   C3A 6377  37.592  33.923   7.886
  121POPC   C4A 6378  37.799  34.132   7.528
  121POPC   C1B 6379  37.762  33.440   8.597
  121POPC   C2B 6380  37.779  33.499   8.148
  121POPC   C3B 6381  37.522  33.418   7.806
  121POPC   C4B 6382  37.090  33.498   7.843
  122POPC   NC3 6383  36.633  23.875   9.545
  122POPC   PO4 6384  37.147  23.466   9.484
  122POPC   GL1 6385  36.886  23.552   9.139
  122POPC   GL2 6386  36.547  23.632   9.097
  122POPC   C1A 6387  37.025  23.673   8.736
  122POPC   D2A 6388  37.030  23.947   8.376
  122POPC   C3A 6389  37.128  23.748   8.019
  122POPC   C4A 6390  37.058  23.884   7.589
  122POPC   C1B 6391  36.587  23.401   8.705
  122POPC   C2B 6392  36.739  23.500   8.288
  122POPC   C3B 6393  36.669  23.649   7.853
  122POPC   C4B 6394  36.731  23.559   7.400
  123POPC   NC3 6395   2.795   5.519   9.610
  123POPC   PO4 6396   2.727   4.792   9.631
  123POPC   GL1 6397   2.620   5.057   9.272
  123POPC   GL2 6398   2.962   5.186   9.222
  123POPC   C1A 6399   2.637   5.214   8.835
  123POPC   D2A 6400   2.896   5.156   8.476
  123POPC   C3A 6401   2.709   5.012   8.091
  123POPC   C4A 6402   2.607   5.149   7.668
  123POPC   C1B 6403   3.184   4.885   8.920
  123POPC   C2B 6404   3.168   4.728   8.471
  123POPC   C3B 6405   3.040   4.623   8.016
  123POPC   C4B 6406   3.139   4.616   7.566
  124POPC   NC3 6407  11.497  24.371   9.417
  124POPC   PO4 6408  10.873  24.484   9.159
  124POPC   GL1 6409  11.295  24.598   9.006
  124POPC   GL2 6410  11.609  24.355   8.935
  124POPC   C1A 6411  11.461  24.726   8.596
  124POPC   D2A 6412  11.382  24.471   8.216
  124POPC   C3A 6413  11.471  24.532   7.771
  124POPC   C4A 6414  11.218  24.644   7.409
  124POPC   C1B 6415  11.328  24.180   8.685
  124POPC   C2B 6416  11.377  23.969   8.319
  124POPC   C3B 6417  11.125  24.076   7.988
  124POPC   C4B 6418  11.070  24.217   7.608
  125POPC   NC3 6419  25.089  23.353   9.571
  125POPC   PO4 6420  25.540  22.867   9.648
  125POPC   GL1 6421  25.259  22.885   9.269
  125POPC   GL2 6422  24.920  22.913   9.253
  125POPC   C1A 6423  25.372  22.887   8.837
  125POPC   D2A 6424  25.478  22.684   8.450
  125POPC   C3A 6425  25.512  22.831   8.044
  125POPC   C4A 6426  25.277  22.788   7.674
  125POPC   C1B 6427  24.837  23.122   8.854
  125POPC   C2B 6428  24.982  22.904   8.457
  125POPC   C3B 6429  25.072  23.080   8.057
  125POPC   C4B 6430  24.889  23.109   7.613
  126POPC   NC3 6431  36.528  26.256   9.493
  126POPC   PO4 6432  36.997  25.721   9.507
  126POPC   GL1 6433  36.756  25.773   9.140
  126POPC   GL2 6434  36.641  26.089   9.042
  126POPC   C1A 6435  36.981  25.879   8.731
  126POPC   D2A 6436  36.900  26.062   8.343
  126POPC   C3A 6437  37.177  26.122   8.034
  126POPC   C4A 6438  36.917  26.062   7.692
  126POPC   C1B 6439  36.795  26.367   8.749
  126POPC   C2B 6440  36.952  26.563   8.425
  126POPC   C3B 6441  36.837  26.563   7.976
  126POPC   C4B 6442  36.727  26.552   7.530
  127POPC   NC3 6443   0.885  13.234   9.508
  127POPC   PO4 6444   1.371  13.803   9.465
  127POPC   GL1 6445   1.310  13.618   9.067
  127POPC   GL2 6446   0.953  13.482   8.962
  127POPC   C1A 6447   1.393  13.526   8.654
  127POPC   D2A 6448   1.062  13.579   8.406
  127POPC   C3A 6449   1.169  13.507   8.053
  127POPC   C4A 6450   1.560  13.557   7.814
  127POPC   C1B 6451   1.038  13.134   8.639
  127POPC   C2B 6452   1.239  13.000   8.269
  127POPC   C3B 6453   1.361  13.091   7.853
  127POPC   C4B 6454   1.122  13.384   7.573
  128POPC   NC3 6455  24.346   2.378   9.408
  128POPC   PO4 6456  24.591   1.795   9.489
  128POPC   GL1 6457  24.343   1.881   9.090
  128POPC   GL2 6458  24.413   2.197   8.945
  128POPC   C1A 6459  24.225   1.885   8.614
  128POPC   D2A 6460  24.504   2.061   8.272
  128POPC   C3A 6461  24.331   1.891   7.876
  128POPC   C4A 6462  24.302   1.789   7.429
  128POPC   C1B 6463  24.659   2.514   8.687
  128POPC   C2B 6464  24.821   2.522   8.263
  128POPC   C3B 6465  24.723   2.425   7.861
  128POPC   C4B 6466  24.717   2.058   7.628
  129POPC   NC3 6467  26.119  37.285   9.348
  129POPC   PO4 6468  25.599  36.953   9.560
  129POPC   GL1 6469  25.835  36.877   9.146
  129POPC   GL2 6470  25.824  37.208   8.964
  129POPC   C1A 6471  26.178  36.735   8.834
  129POPC   D2A 6472  26.409  36.727   8.422
  129POPC   C3A 6473  26.198  36.765   8.013
  129POPC   C4A 6474  26.148  36.842   7.582
  129POPC   C1B 6475  25.775  36.983   8.615
  129POPC   C2B 6476  25.915  37.130   8.232
  129POPC   C3B 6477  25.802  37.124   7.809
  129POPC   C4B 6478  25.616  36.971   7.414
  130POPC   NC3 6479  36.598   8.129   9.325
  130POPC   PO4 6480  35.986   8.355   9.474
  130POPC   GL1 6481  36.155   8.264   9.102
  130POPC   GL2 6482  35.905   8.057   9.037
  130POPC   C1A 6483  36.418   8.325   8.727
  130POPC   D2A 6484  36.539   8.044   8.393
  130POPC   C3A 6485  36.247   8.035   8.051
  130POPC   C4A 6486  36.323   8.250   7.668
  130POPC   C1B 6487  35.754   7.853   8.735
  130POPC   C2B 6488  35.802   8.084   8.368
  130POPC   C3B 6489  35.668   8.492   8.232
  130POPC   C4B 6490  35.862   8.368   7.845
  131POPC   NC3 6491  14.748  10.269   9.532
  131POPC   PO4 6492  14.180  10.474   9.605
  131POPC   GL1 6493  14.199  10.465   9.193
  131POPC   GL2 6494  14.528  10.428   9.104
  131POPC   C1A 6495  14.064  10.697   8.853
  131POPC   D2A 6496  14.008  10.647   8.444
  131POPC   C3A 6497  14.237  10.811   8.111
  131POPC   C4A 6498  14.094  10.568   7.820
  131POPC   C1B 6499  14.609  10.336   8.706
  131POPC   C2B 6500  14.404  10.339   8.325
  131POPC   C3B 6501  14.556  10.387   7.942
  131POPC   C4B 6502  14.856  10.403   7.637
  132POPC   NC3 6503  12.225  35.461   9.545
  132POPC   PO4 6504  12.461  34.851   9.523
  132POPC   GL1 6505  12.302  35.141   9.154
  132POPC   GL2 6506  11.968  35.259   9.158
  132POPC   C1A 6507  12.264  35.530   8.854
  132POPC   D2A 6508  12.085  35.491   8.424
  132POPC   C3A 6509  12.088  35.480   7.960
  132POPC   C4A 6510  12.200  35.154   7.606
  132POPC   C1B 6511  11.949  35.112   8.753
  132POPC   C2B 6512  11.690  35.130   8.371
  132POPC   C3B 6513  11.788  35.052   7.913
  132POPC   C4B 6514  11.712  35.229   7.502
  133POPC   NC3 6515  25.889  27.216   9.223
  133POPC   PO4 6516  25.999  27.714   9.664
  133POPC   GL1 6517  25.931  27.759   9.224
  133POPC   GL2 6518  26.261  27.903   9.210
  133POPC   C1A 6519  25.795  27.717   8.760
  133POPC   D2A 6520  25.966  27.432   8.429
  133POPC   C3A 6521  25.774  27.484   8.017
  133POPC   C4A 6522  25.772  27.285   7.576
  133POPC   C1B 6523  26.274  27.644   8.853
  133POPC   C2B 6524  26.451  27.623   8.472
  133POPC   C3B 6525  26.380  27.615   8.055
  133POPC   C4B 6526  26.183  27.533   7.696
  134POPC   NC3 6527   2.876  25.605   9.434
  134POPC   PO4 6528   2.700  24.906   9.468
  134POPC   GL1 6529   2.758  25.202   9.115
  134POPC   GL2 6530   2.535  25.495   9.035
  134POPC   C1A 6531   2.901  25.317   8.695
  134POPC   D2A 6532   2.678  25.248   8.301
  134POPC   C3A 6533   2.837  25.212   7.915
  134POPC   C4A 6534   2.957  25.521   7.656
  134POPC   C1B 6535   2.397  25.168   8.724
  134POPC   C2B 6536   2.185  25.124   8.305
  134POPC   C3B 6537   2.327  25.036   7.885
  134POPC   C4B 6538   2.509  25.257   7.527
  135POPC   NC3 6539  14.927  37.203   9.571
  135POPC   PO4 6540  15.563  37.106   9.538
  135POPC   GL1 6541  15.318  37.188   9.166
  135POPC   GL2 6542  15.052  37.382   9.111
  135POPC   C1A 6543  15.227  37.035   8.744
  135POPC   D2A 6544  15.381  36.920   8.344
  135POPC   C3A 6545  15.299  36.695   7.976
  135POPC   C4A 6546  15.371  36.853   7.577
  135POPC   C1B 6547  14.902  37.510   8.716
  135POPC   C2B 6548  15.041  37.311   8.335
  135POPC   C3B 6549  15.199  37.203   7.930
  135POPC   C4B 6550  15.011  37.242   7.521
  136POPC   NC3 6551  29.456   1.686   9.547
  136POPC   PO4 6552  30.105   1.854   9.521
  136POPC   GL1 6553  29.775   1.856   9.143
  136POPC   GL2 6554  29.603   2.191   8.988
  136POPC   C1A 6555  29.906   1.790   8.720
  136POPC   D2A 6556  29.868   2.027   8.369
  136POPC   C3A 6557  29.757   1.817   8.023
  136POPC   C4A 6558  29.659   1.582   7.688
  136POPC   C1B 6559  29.953   2.406   8.750
  136POPC   C2B 6560  30.207   2.406   8.350
  136POPC   C3B 6561  30.076   2.344   7.914
  136POPC   C4B 6562  30.038   2.407   7.454
  137POPC   NC3 6563  35.805  25.235   9.699
  137POPC   PO4 6564  35.313  25.629   9.611
  137POPC   GL1 6565  35.438  25.304   9.257
  137POPC   GL2 6566  35.151  25.086   9.228
  137POPC   C1A 6567  35.611  25.155   8.804
  137POPC   D2A 6568  35.771  25.335   8.395
  137POPC   C3A 6569  35.709  25.101   8.013
  137POPC   C4A 6570  35.533  25.225   7.640
  137POPC   C1B 6571  35.122  25.296   8.829
  137POPC   C2B 6572  34.980  25.168   8.442
  137POPC   C3B 6573  35.157  25.192   8.028
  137POPC   C4B 6574  35.069  24.993   7.655
  138POPC   NC3 6575  20.226  33.106   9.485
  138POPC   PO4 6576  19.615  32.877   9.515
  138POPC   GL1 6577  19.840  33.043   9.154
  138POPC   GL2 6578  19.936  33.405   9.208
  138POPC   C1A 6579  19.799  32.938   8.722
  138POPC   D2A 6580  19.983  32.927   8.313
  138POPC   C3A 6581  19.671  32.958   7.975
  138POPC   C4A 6582  19.656  32.764   7.546
  138POPC   C1B 6583  19.763  33.448   8.829
  138POPC   C2B 6584  19.837  33.409   8.398
  138POPC   C3B 6585  19.767  33.456   7.951
  138POPC   C4B 6586  19.846  33.239   7.566
  139POPC   NC3 6587  27.734  38.934   9.469
  139POPC   PO4 6588  27.689  39.565   9.468
  139POPC   GL1 6589  27.573  39.366   9.083
  139POPC   GL2 6590  27.382  39.026   9.126
  139POPC   C1A 6591  27.685  39.450   8.649
  139POPC   D2A 6592  27.548  39.249   8.279
  139POPC   C3A 6593  27.763  39.292   7.863
  139POPC   C4A 6594  27.818  39.486   7.420
  139POPC   C1B 6595  27.658  38.925   8.764
  139POPC   C2B 6596  27.877  38.862   8.365
  139POPC   C3B 6597  27.634  38.822   7.989
  139POPC   C4B 6598  27.260  39.040   7.910
  140POPC   NC3 6599  39.526  29.193   9.503
  140POPC   PO4 6600  39.048  28.773   9.378
  140POPC   GL1 6601  39.304  28.958   9.040
  140POPC   GL2 6602  39.260  29.291   9.080
  140POPC   C1A 6603  39.305  29.131   8.601
  140POPC   D2A 6604  39.029  29.336   8.311
  140POPC   C3A 6605  39.188  29.154   7.954
  140POPC   C4A 6606  39.201  28.717   7.868
  140POPC   C1B 6607  38.864  29.204   8.854
  140POPC   C2B 6608  38.629  29.068   8.515
  140POPC   C3B 6609  38.744  28.941   8.105
  140POPC   C4B 6610  38.667  28.669   7.801
  141POPC   NC3 6611  31.743  33.086   9.442
  141POPC   PO4 6612  31.120  32.863   9.437
  141POPC   GL1 6613  31.344  32.972   9.093
  141POPC   GL2 6614  31.113  32.879   8.889
  141POPC   C1A 6615  31.491  33.178   8.701
  141POPC   D2A 6616  31.586  33.034   8.314
  141POPC   C3A 6617  31.274  33.141   7.992
  141POPC   C4A 6618  31.592  33.177   7.703
  141POPC   C1B 6619  31.133  32.884   8.470
  141POPC   C2B 6620  31.302  32.651   8.149
  141POPC   C3B 6621  31.363  32.663   7.730
  141POPC   C4B 6622  31.257  32.925   7.428
  142POPC   NC3 6623  14.518  25.923   9.461
  142POPC   PO4 6624  13.774  25.793   9.381
  142POPC   GL1 6625  14.162  25.872   9.092
  142POPC   GL2 6626  14.275  26.221   9.114
  142POPC   C1A 6627  14.229  26.072   8.644
  142POPC   D2A 6628  14.352  26.384   8.324
  142POPC   C3A 6629  14.174  26.250   7.951
  142POPC   C4A 6630  14.286  25.820   7.862
  142POPC   C1B 6631  14.635  26.339   8.814
  142POPC   C2B 6632  14.821  26.218   8.410
  142POPC   C3B 6633  14.682  26.136   7.982
  142POPC   C4B 6634  14.913  26.246   7.603
  143POPC   NC3 6635   1.847  23.864   9.684
  143POPC   PO4 6636   2.075  24.533   9.678
  143POPC   GL1 6637   2.163  24.559   9.197
  143POPC   GL2 6638   1.954  24.323   8.986
  143POPC   C1A 6639   2.302  24.614   8.774
  143POPC   D2A 6640   1.970  24.492   8.477
  143POPC   C3A 6641   2.073  24.579   8.077
  143POPC   C4A 6642   2.069  24.631   7.659
  143POPC   C1B 6643   2.223  24.094   8.726
  143POPC   C2B 6644   2.440  24.263   8.381
  143POPC   C3B 6645   2.486  24.208   7.956
  143POPC   C4B 6646   2.178  24.141   7.663
  144POPC   NC3 6647  25.992  37.965   9.619
  144POPC   PO4 6648  26.381  38.523   9.552
  144POPC   GL1 6649  26.108  38.492   9.204
  144POPC   GL2 6650  25.870  38.233   9.216
  144POPC   C1A 6651  25.861  38.601   8.844
  144POPC   D2A 6652  25.983  38.794   8.481
  144POPC   C3A 6653  25.946  38.641   8.095
  144POPC   C4A 6654  26.121  38.896   7.780
  144POPC   C1B 6655  26.001  38.110   8.813
  144POPC   C2B 6656  25.958  38.238   8.423
  144POPC   C3B 6657  25.927  38.077   8.027
  144POPC   C4B 6658  26.017  38.116   7.610
  145POPC   NC3 6659  36.158  10.138   9.486
  145POPC   PO4 6660  36.203  10.763   9.661
  145POPC   GL1 6661  36.299  10.689   9.235
  145POPC   GL2 6662  36.049  10.493   9.154
  145POPC   C1A 6663  36.185  10.793   8.785
  145POPC   D2A 6664  36.040  10.585   8.392
  145POPC   C3A 6665  36.138  10.773   8.001
  145POPC   C4A 6666  36.127  10.693   7.526
  145POPC   C1B 6667  36.192  10.262   8.782
  145POPC   C2B 6668  36.368  10.082   8.393
  145POPC   C3B 6669  36.371  10.306   8.024
  145POPC   C4B 6670  36.337  10.231   7.588
  146POPC   NC3 6671  26.563   2.635   9.401
  146POPC   PO4 6672  27.186   2.889   9.534
  146POPC   GL1 6673  26.994   2.861   9.125
  146POPC   GL2 6674  26.726   3.110   9.129
  146POPC   C1A 6675  26.768   2.654   8.767
  146POPC   D2A 6676  26.849   2.618   8.322
  146POPC   C3A 6677  26.532   2.634   8.004
  146POPC   C4A 6678  26.778   2.581   7.646
  146POPC   C1B 6679  26.594   3.139   8.688
  146POPC   C2B 6680  26.631   3.092   8.242
  146POPC   C3B 6681  26.816   3.044   7.836
  146POPC   C4B 6682  26.752   2.999   7.347
  147POPC   NC3 6683  23.284  40.750   9.488
  147POPC   PO4 6684  23.921  41.075   9.447
  147POPC   GL1 6685  23.777  40.818   9.145
  147POPC   GL2 6686  23.458  40.951   9.066
  147POPC   C1A 6687  23.764  40.778   8.719
  147POPC   D2A 6688  23.542  40.644   8.361
  147POPC   C3A 6689  23.700  40.722   7.942
  147POPC   C4A 6690  23.737  40.872   7.521
  147POPC   C1B 6691  23.284  40.568   8.823
  147POPC   C2B 6692  23.244  40.231   8.473
  147POPC   C3B 6693  23.379  40.314   8.005
  147POPC   C4B 6694  23.581  40.389   7.560
  148POPC   NC3 6695  44.423  40.936   9.382
  148POPC   PO4 6696  44.776  40.287   9.629
  148POPC   GL1 6697  44.805  40.572   9.231
  148POPC   GL2 6698  44.556  40.533   8.992
  148POPC   C1A 6699  44.895  40.842   8.802
  148POPC   D2A 6700  44.743  40.744   8.393
  148POPC   C3A 6701  44.816  40.992   8.034
  148POPC   C4A 6702   0.010  40.831   7.663
  148POPC   C1B 6703  44.408  40.935   8.730
  148POPC   C2B 6704  44.285  40.999   8.292
  148POPC   C3B 6705  44.342  40.905   7.850
  148POPC   C4B 6706  44.524  40.640   7.569
  149POPC   NC3 6707  19.955  22.388   9.782
  149POPC   PO4 6708  19.924  23.119   9.642
  149POPC   GL1 6709  20.090  22.887   9.254
  149POPC   GL2 6710  19.942  22.650   8.993
  149POPC   C1A 6711  20.201  23.056   8.834
  149POPC   D2A 6712  19.985  22.845   8.497
  149POPC   C3A 6713  19.973  23.013   8.082
  149POPC   C4A 6714  19.953  22.897   7.656
  149POPC   C1B 6715  19.557  22.739   8.764
  149POPC   C2B 6716  19.370  22.796   8.349
  149POPC   C3B 6717  19.507  22.800   7.916
  149POPC   C4B 6718  19.510  23.079   7.521
  150POPC   NC3 6719   1.153  29.475   9.539
  150POPC   PO4 6720   0.786  30.086   9.444
  150POPC   GL1 6721   0.852  29.884   9.041
  150POPC   GL2 6722   1.192  29.788   9.116
  150POPC   C1A 6723   0.971  29.577   8.703
  150POPC   D2A 6724   1.140  29.582   8.307
  150POPC   C3A 6725   0.909  29.820   8.062
  150POPC   C4A 6726   1.066  30.054   7.783
  150POPC   C1B 6727   1.583  29.669   8.936
  150POPC   C2B 6728   1.613  29.756   8.499
  150POPC   C3B 6729   1.592  29.717   8.057
  150POPC   C4B 6730   1.581  30.023   7.733
  151POPC   NC3 6731  24.246  38.839   9.267
  151POPC   PO4 6732  24.702  38.355   9.545
  151POPC   GL1 6733  24.676  38.255   9.148
  151POPC   GL2 6734  24.676  38.605   9.089
  151POPC   C1A 6735  24.464  38.297   8.756
  151POPC   D2A 6736  24.285  38.402   8.369
  151POPC   C3A 6737  24.590  38.403   8.079
  151POPC   C4A 6738  24.365  38.267   7.776
  151POPC   C1B 6739  24.615  38.854   8.727
  151POPC   C2B 6740  24.448  38.884   8.329
  151POPC   C3B 6741  24.654  38.899   7.964
  151POPC   C4B 6742  24.706  38.655   7.599
  152POPC   NC3 6743  33.341  28.901   9.347
  152POPC   PO4 6744  33.849  29.249   9.665
  152POPC   GL1 6745  33.765  29.253   9.231
  152POPC   GL2 6746  34.035  28.999   9.144
  152POPC   C1A 6747  33.957  29.394   8.836
  152POPC   D2A 6748  34.100  29.130   8.493
  152POPC   C3A 6749  34.004  29.280   8.091
  152POPC   C4A 6750  33.931  29.267   7.640
  152POPC   C1B 6751  33.726  28.904   8.785
  152POPC   C2B 6752  33.601  29.042   8.344
  152POPC   C3B 6753  33.703  28.910   7.916
  152POPC   C4B 6754  33.719  28.824   7.439
  153POPC   NC3 6755  32.563  44.320   9.505
  153POPC   PO4 6756  32.543  44.903   9.336
  153POPC   GL1 6757  32.262  44.637   9.056
  153POPC   GL2 6758  32.062  44.326   9.174
  153POPC   C1A 6759  32.042  44.886   8.719
  153POPC   D2A 6760  31.881  44.816   8.310
  153POPC   C3A 6761  32.160  44.700   7.946
  153POPC   C4A 6762  32.280   0.011   7.655
  153POPC   C1B 6763  32.099  44.202   8.727
  153POPC   C2B 6764  32.038  44.338   8.291
  153POPC   C3B 6765  31.991  44.153   7.884
  153POPC   C4B 6766  31.951  44.405   7.493
  154POPC   NC3 6767  11.437  18.182   9.380
  154POPC   PO4 6768  11.000  18.674   9.376
  154POPC   GL1 6769  11.170  18.449   9.042
  154POPC   GL2 6770  11.522  18.583   9.031
  154POPC   C1A 6771  11.190  18.057   8.768
  154POPC   D2A 6772  10.996  17.917   8.381
  154POPC   C3A 6773  11.272  17.964   8.020
  154POPC   C4A 6774  11.151  17.994   7.626
  154POPC   C1B 6775  11.373  18.517   8.591
  154POPC   C2B 6776  11.146  18.412   8.231
  154POPC   C3B 6777  11.317  18.461   7.825
  154POPC   C4B 6778  11.706  18.657   7.657
  155POPC   NC3 6779  30.061  16.207   9.400
  155POPC   PO4 6780  29.769  15.569   9.558
  155POPC   GL1 6781  29.908  15.755   9.189
  155POPC   GL2 6782  29.668  16.019   9.104
  155POPC   C1A 6783  29.981  15.820   8.747
  155POPC   D2A 6784  29.796  15.980   8.366
  155POPC   C3A 6785  30.029  15.981   8.004
  155POPC   C4A 6786  30.346  15.751   7.789
  155POPC   C1B 6787  29.463  16.159   8.735
  155POPC   C2B 6788  29.530  16.444   8.421
  155POPC   C3B 6789  29.638  16.351   8.013
  155POPC   C4B 6790  29.701  16.140   7.643
  156POPC   NC3 6791  14.571   8.636   9.358
  156POPC   PO4 6792  14.599   7.976   9.334
  156POPC   GL1 6793  14.513   8.231   9.010
  156POPC   GL2 6794  14.773   8.483   8.929
  156POPC   C1A 6795  14.474   8.157   8.581
  156POPC   D2A 6796  14.465   8.400   8.208
  156POPC   C3A 6797  14.415   8.139   7.878
  156POPC   C4A 6798  14.297   8.052   7.486
  156POPC   C1B 6799  14.749   8.732   8.569
  156POPC   C2B 6800  14.921   8.641   8.167
  156POPC   C3B 6801  14.791   8.509   7.741
  156POPC   C4B 6802  14.632   8.436   7.279
  157POPC   NC3 6803  36.207   2.073   9.571
  157POPC   PO4 6804  35.522   2.009   9.680
  157POPC   GL1 6805  35.783   2.071   9.157
  157POPC   GL2 6806  36.123   2.161   9.089
  157POPC   C1A 6807  35.873   2.034   8.680
  157POPC   D2A 6808  36.061   1.764   8.333
  157POPC   C3A 6809  36.211   2.000   7.972
  157POPC   C4A 6810  36.088   2.010   7.526
  157POPC   C1B 6811  36.344   2.313   8.750
  157POPC   C2B 6812  36.522   2.162   8.376
  157POPC   C3B 6813  36.504   2.409   8.040
  157POPC   C4B 6814  36.262   2.438   7.682
  158POPC   NC3 6815  28.648   6.885   9.517
  158POPC   PO4 6816  28.351   6.304   9.402
  158POPC   GL1 6817  28.536   6.562   9.134
  158POPC   GL2 6818  28.326   6.885   9.138
  158POPC   C1A 6819  28.632   6.724   8.745
  158POPC   D2A 6820  28.364   6.688   8.398
  158POPC   C3A 6821  28.577   6.586   8.043
  158POPC   C4A 6822  28.431   6.693   7.652
  158POPC   C1B 6823  28.281   7.122   8.763
  158POPC   C2B 6824  28.512   7.176   8.403
  158POPC   C3B 6825  28.348   7.051   8.021
  158POPC   C4B 6826  28.416   7.194   7.614
  159POPC   NC3 6827  41.314  27.974   9.399
  159POPC   PO4 6828  41.544  28.651   9.538
  159POPC   GL1 6829  41.581  28.372   9.201
  159POPC   GL2 6830  41.253  28.427   9.092
  159POPC   C1A 6831  41.739  28.254   8.805
  159POPC   D2A 6832  41.772  28.435   8.428
  159POPC   C3A 6833  41.792  28.206   8.084
  159POPC   C4A 6834  41.802  28.320   7.673
  159POPC   C1B 6835  41.268  28.342   8.662
  159POPC   C2B 6836  41.208  28.210   8.231
  159POPC   C3B 6837  41.192  28.442   7.846
  159POPC   C4B 6838  41.302  28.617   7.462
  160POPC   NC3 6839  16.236   3.462   9.645
  160POPC   PO4 6840  15.593   3.111   9.535
  160POPC   GL1 6841  15.654   3.287   9.147
  160POPC   GL2 6842  15.954   3.454   9.214
  160POPC   C1A 6843  15.658   3.556   8.797
  160POPC   D2A 6844  15.902   3.566   8.414
  160POPC   C3A 6845  15.780   3.676   7.954
  160POPC   C4A 6846  15.827   3.618   7.476
  160POPC   C1B 6847  16.350   3.333   8.974
  160POPC   C2B 6848  16.404   3.379   8.511
  160POPC   C3B 6849  16.224   3.393   8.078
  160POPC   C4B 6850  16.067   3.235   7.702
  161POPC   NC3 6851   9.624  42.184   9.524
  161POPC   PO4 6852  10.121  42.570   9.605
  161POPC   GL1 6853   9.914  42.422   9.143
  161POPC   GL2 6854   9.511  42.410   9.077
  161POPC   C1A 6855   9.817  42.459   8.678
  161POPC   D2A 6856   9.771  42.673   8.273
  161POPC   C3A 6857   9.711  42.315   8.025
  161POPC   C4A 6858   9.981  42.199   7.718
  161POPC   C1B 6859   9.509  42.048   8.843
  161POPC   C2B 6860   9.538  41.937   8.421
  161POPC   C3B 6861   9.349  41.951   8.010
  161POPC   C4B 6862   9.487  42.040   7.604
  162POPC   NC3 6863   2.309  12.810   9.482
  162POPC   PO4 6864   1.639  12.842   9.532
  162POPC   GL1 6865   1.904  12.844   9.148
  162POPC   GL2 6866   2.166  12.515   9.119
  162POPC   C1A 6867   1.814  13.086   8.741
  162POPC   D2A 6868   1.685  13.216   8.302
  162POPC   C3A 6869   1.880  12.964   7.991
  162POPC   C4A 6870   2.309  12.988   7.833
  162POPC   C1B 6871   2.081  12.625   8.710
  162POPC   C2B 6872   2.223  12.762   8.331
  162POPC   C3B 6873   2.179  12.520   7.977
  162POPC   C4B 6874   2.026  12.607   7.602
  163POPC   NC3 6875  34.052  21.825   9.967
  163POPC   PO4 6876  33.610  22.083   9.549
  163POPC   GL1 6877  33.767  21.985   9.158
  163POPC   GL2 6878  34.006  21.761   9.217
  163POPC   C1A 6879  33.698  22.153   8.745
  163POPC   D2A 6880  33.660  22.336   8.360
  163POPC   C3A 6881  33.534  22.128   8.003
  163POPC   C4A 6882  33.815  21.915   7.721
  163POPC   C1B 6883  34.157  21.928   8.815
  163POPC   C2B 6884  34.121  22.084   8.390
  163POPC   C3B 6885  34.260  21.989   7.964
  163POPC   C4B 6886  34.248  21.679   7.577
  164POPC   NC3 6887  11.339  11.112   9.598
  164POPC   PO4 6888  11.178  10.506   9.598
  164POPC   GL1 6889  11.176  10.453   9.171
  164POPC   GL2 6890  11.388  10.758   9.195
  164POPC   C1A 6891  11.317  10.329   8.760
  164POPC   D2A 6892  11.522  10.095   8.404
  164POPC   C3A 6893  11.347  10.248   8.045
  164POPC   C4A 6894  11.024  10.602   8.014
  164POPC   C1B 6895  11.475  10.824   8.778
  164POPC   C2B 6896  11.428  10.644   8.363
  164POPC   C3B 6897  11.614  10.689   7.956
  164POPC   C4B 6898  11.697  10.887   7.576
  165POPC   NC3 6899   5.468  28.735   9.409
  165POPC   PO4 6900   5.140  28.137   9.600
  165POPC   GL1 6901   5.293  28.038   9.226
  165POPC   GL2 6902   5.260  28.376   9.116
  165POPC   C1A 6903   5.067  27.982   8.853
  165POPC   D2A 6904   5.124  28.190   8.507
  165POPC   C3A 6905   5.012  28.152   8.100
  165POPC   C4A 6906   5.201  28.272   7.738
  165POPC   C1B 6907   5.264  28.648   8.777
  165POPC   C2B 6908   5.078  28.684   8.392
  165POPC   C3B 6909   5.290  28.664   8.036
  165POPC   C4B 6910   5.310  28.877   7.642
  166POPC   NC3 6911  32.533  33.560   9.618
  166POPC   PO4 6912  32.190  34.202   9.434
  166POPC   GL1 6913  32.374  33.974   9.083
  166POPC   GL2 6914  32.271  33.619   9.159
  166POPC   C1A 6915  32.354  34.037   8.610
  166POPC   D2A 6916  32.458  34.120   8.168
  166POPC   C3A 6917  32.135  34.041   7.920
  166POPC   C4A 6918  31.922  33.663   7.847
  166POPC   C1B 6919  32.418  33.536   8.722
  166POPC   C2B 6920  32.328  33.618   8.254
  166POPC   C3B 6921  32.401  33.435   7.837
  166POPC   C4B 6922  32.543  33.412   7.403
  167POPC   NC3 6923  42.789  12.426   9.478
  167POPC   PO4 6924  43.087  13.088   9.567
  167POPC   GL1 6925  43.142  12.956   9.131
  167POPC   GL2 6926  43.491  13.058   9.129
  167POPC   C1A 6927  42.939  13.005   8.753
  167POPC   D2A 6928  42.762  13.038   8.357
  167POPC   C3A 6929  43.008  12.890   8.006
  167POPC   C4A 6930  42.826  12.795   7.634
  167POPC   C1B 6931  43.449  12.836   8.739
  167POPC   C2B 6932  43.537  12.745   8.326
  167POPC   C3B 6933  43.559  12.653   7.914
  167POPC   C4B 6934  43.339  12.743   7.563
  168POPC   NC3 6935  40.769  37.225   9.553
  168POPC   PO4 6936  40.400  37.831   9.515
  168POPC   GL1 6937  40.456  37.542   9.188
  168POPC   GL2 6938  40.821  37.450   9.115
  168POPC   C1A 6939  40.575  37.680   8.752
  168POPC   D2A 6940  40.806  37.571   8.396
  168POPC   C3A 6941  40.674  37.763   8.023
  168POPC   C4A 6942  40.883  37.853   7.698
  168POPC   C1B 6943  40.995  37.245   8.763
  168POPC   C2B 6944  41.188  37.219   8.359
  168POPC   C3B 6945  41.065  37.400   7.946
  168POPC   C4B 6946  40.926  37.381   7.516
  169POPC   NC3 6947  24.992  37.977   9.582
  169POPC   PO4 6948  25.409  38.546   9.529
  169POPC   GL1 6949  25.174  38.508   9.148
  169POPC   GL2 6950  25.185  38.149   9.164
  169POPC   C1A 6951  24.992  38.353   8.742
  169POPC   D2A 6952  24.822  38.086   8.439
  169POPC   C3A 6953  25.033  38.111   8.035
  169POPC   C4A 6954  25.144  38.404   7.710
  169POPC   C1B 6955  25.494  38.226   8.876
  169POPC   C2B 6956  25.483  38.463   8.519
  169POPC   C3B 6957  25.493  38.391   8.092
  169POPC   C4B 6958  25.664  38.527   7.685
  170POPC   NC3 6959  31.338  37.228   9.604
  170POPC   PO4 6960  31.585  36.604   9.591
  170POPC   GL1 6961  31.482  36.900   9.251
  170POPC   GL2 6962  31.701  37.168   9.208
  170POPC   C1A 6963  31.278  36.862   8.865
  170POPC   D2A 6964  31.453  36.675   8.540
  170POPC   C3A 6965  31.425  36.799   8.139
  170POPC   C4A 6966  31.451  36.876   7.736
  170POPC   C1B 6967  31.794  36.988   8.826
  170POPC   C2B 6968  31.724  37.094   8.421
  170POPC   C3B 6969  31.782  37.175   7.999
  170POPC   C4B 6970  32.072  37.457   7.876
  171POPC   NC3 6971  27.457  27.444   9.564
  171POPC   PO4 6972  28.084  27.242   9.385
  171POPC   GL1 6973  27.788  27.633   9.176
  171POPC   GL2 6974  27.346  27.644   9.140
  171POPC   C1A 6975  27.624  27.620   8.738
  171POPC   D2A 6976  27.433  27.383   8.421
  171POPC   C3A 6977  27.717  27.484   8.096
  171POPC   C4A 6978  27.743  27.645   7.717
  171POPC   C1B 6979  27.176  27.921   8.876
  171POPC   C2B 6980  27.352  28.016   8.497
  171POPC   C3B 6981  27.337  27.804   8.122
  171POPC   C4B 6982  27.242  27.794   7.707
  172POPC   NC3 6983  11.561  23.404   9.447
  172POPC   PO4 6984  11.240  23.993   9.533
  172POPC   GL1 6985  11.403  23.899   9.143
  172POPC   GL2 6986  11.202  23.615   9.154
  172POPC   C1A 6987  11.468  23.682   8.737
  172POPC   D2A 6988  11.694  23.528   8.377
  172POPC   C3A 6989  11.782  23.842   8.046
  172POPC   C4A 6990  11.489  23.880   7.681
  172POPC   C1B 6991  11.002  23.434   8.803
  172POPC   C2B 6992  11.160  23.432   8.397
  172POPC   C3B 6993  11.320  23.558   8.027
  172POPC   C4B 6994  11.106  23.486   7.674
  173POPC   NC3 6995  11.607   1.876   9.670
  173POPC   PO4 6996  11.040   2.191   9.470
  173POPC   GL1 6997  11.213   1.960   9.106
  173POPC   GL2 6998  11.553   2.058   9.169
  173POPC   C1A 6999  11.167   1.887   8.637
  173POPC   D2A 7000  11.437   1.971   8.264
  173POPC   C3A 7001  11.168   1.867   7.915
  173POPC   C4A 7002  10.889   1.769   7.586
  173POPC   C1B 7003  11.650   1.843   8.794
  173POPC   C2B 7004  11.923   1.823   8.452
  173POPC   C3B 7005  11.865   1.722   8.036
  173POPC   C4B 7006  11.594   1.731   7.675
  174POPC   NC3 7007  34.296  38.369   9.496
  174POPC   PO4 7008  34.851  38.825   9.593
  174POPC   GL1 7009  34.702  38.568   9.255
  174POPC   GL2 7010  34.658  38.211   9.160
  174POPC   C1A 7011  34.551  38.605   8.847
  174POPC   D2A 7012  34.673  38.487   8.466
  174POPC   C3A 7013  34.627  38.826   8.157
  174POPC   C4A 7014  34.629  38.663   7.754
  174POPC   C1B 7015  34.386  38.112   8.809
  174POPC   C2B 7016  34.470  37.961   8.388
  174POPC   C3B 7017  34.595  38.168   7.996
  174POPC   C4B 7018  34.288  38.308   7.697
  175POPC   NC3 7019   3.106   9.355   9.429
  175POPC   PO4 7020   3.676   9.739   9.510
  175POPC   GL1 7021   3.353   9.807   9.207
  175POPC   GL2 7022   3.565   9.960   8.999
  175POPC   C1A 7023   3.110   9.849   8.806
  175POPC   D2A 7024   3.385   9.822   8.467
  175POPC   C3A 7025   3.320   9.815   8.067
  175POPC   C4A 7026   3.453   9.586   7.719
  175POPC   C1B 7027   3.825   9.910   8.657
  175POPC   C2B 7028   3.720  10.139   8.261
  175POPC   C3B 7029   3.718  10.057   7.829
  175POPC   C4B 7030   4.061  10.119   7.575
  176POPC   NC3 7031  30.222  15.286   9.538
  176POPC   PO4 7032  29.730  14.802   9.498
  176POPC   GL1 7033  29.822  15.181   9.202
  176POPC   GL2 7034  30.157  15.322   9.043
  176POPC   C1A 7035  29.711  15.220   8.786
  176POPC   D2A 7036  29.394  15.257   8.470
  176POPC   C3A 7037  29.637  15.282   8.059
  176POPC   C4A 7038  29.731  15.175   7.617
  176POPC   C1B 7039  30.326  15.472   8.644
  176POPC   C2B 7040  30.127  15.532   8.236
  176POPC   C3B 7041  30.164  15.264   7.868
  176POPC   C4B 7042  30.213  15.213   7.422
  177POPC   NC3 7043  42.211  36.612   9.205
  177POPC   PO4 7044  42.526  36.162   9.581
  177POPC   GL1 7045  42.456  36.158   9.159
  177POPC   GL2 7046  42.118  36.096   9.109
  177POPC   C1A 7047  42.486  35.936   8.764
  177POPC   D2A 7048  42.480  36.111   8.345
  177POPC   C3A 7049  42.124  36.061   8.121
  177POPC   C4A 7050  42.179  35.761   7.807
  177POPC   C1B 7051  42.101  36.267   8.661
  177POPC   C2B 7052  42.000  36.534   8.322
  177POPC   C3B 7053  42.044  36.505   7.878
  177POPC   C4B 7054  42.308  36.231   7.629
  178POPC   NC3 7055  23.207  34.826   9.420
  178POPC   PO4 7056  23.053  35.469   9.443
  178POPC   GL1 7057  22.921  35.256   9.091
  178POPC   GL2 7058  22.652  35.492   9.027
  178POPC   C1A 7059  23.000  35.314   8.658
  178POPC   D2A 7060  22.776  35.356   8.282
  178POPC   C3A 7061  22.999  35.379   7.906
  178POPC   C4A 7062  23.166  35.624   7.588
  178POPC   C1B 7063  22.547  35.762   8.703
  178POPC   C2B 7064  22.390  35.693   8.287
  178POPC   C3B 7065  22.589  35.682   7.865
  178POPC   C4B 7066  22.711  35.794   7.408
  179POPC   NC3 7067  35.616  27.882   9.481
  179POPC   PO4 7068  36.019  27.491   9.865
  179POPC   GL1 7069  36.087  27.606   9.361
  179POPC   GL2 7070  35.819  27.550   9.157
  179POPC   C1A 7071  36.265  27.580   8.867
  179POPC   D2A 7072  36.242  27.880   8.491
  179POPC   C3A 7073  36.287  27.755   8.065
  179POPC   C4A 7074  36.070  27.854   7.688
  179POPC   C1B 7075  35.786  27.704   8.756
  179POPC   C2B 7076  35.909  27.515   8.407
  179POPC   C3B 7077  35.794  27.610   8.031
  179POPC   C4B 7078  35.772  27.421   7.645
  180POPC   NC3 7079  19.482  36.738   9.480
  180POPC   PO4 7080  19.070  37.136   9.512
  180POPC   GL1 7081  19.284  37.099   9.140
  180POPC   GL2 7082  19.446  37.385   9.005
  180POPC   C1A 7083  19.065  36.960   8.798
  180POPC   D2A 7084  18.839  37.007   8.431
  180POPC   C3A 7085  19.040  36.751   8.106
  180POPC   C4A 7086  18.909  36.692   7.684
  180POPC   C1B 7087  19.234  37.392   8.602
  180POPC   C2B 7088  19.233  37.220   8.189
  180POPC   C3B 7089  19.033  37.189   7.805
  180POPC   C4B 7090  19.138  37.054   7.389
  181POPC   NC3 7091  24.467  37.128   9.626
  181POPC   PO4 7092  24.174  36.670   9.200
  181POPC   GL1 7093  24.422  37.047   9.086
  181POPC   GL2 7094  24.691  37.266   9.173
  181POPC   C1A 7095  24.528  37.027   8.649
  181POPC   D2A 7096  24.401  36.644   8.414
  181POPC   C3A 7097  24.302  36.707   7.994
  181POPC   C4A 7098  24.699  36.711   7.759
  181POPC   C1B 7099  24.880  37.350   8.821
  181POPC   C2B 7100  25.032  37.153   8.443
  181POPC   C3B 7101  24.918  37.089   8.027
  181POPC   C4B 7102  24.503  37.182   7.881
  182POPC   NC3 7103  26.563  20.189   9.638
  182POPC   PO4 7104  26.150  19.688   9.406
  182POPC   GL1 7105  26.220  19.704   9.026
  182POPC   GL2 7106  26.094  20.061   9.041
  182POPC   C1A 7107  25.920  19.683   8.716
  182POPC   D2A 7108  25.803  19.841   8.355
  182POPC   C3A 7109  25.911  19.609   8.021
  182POPC   C4A 7110  26.313  19.566   7.820
  182POPC   C1B 7111  25.997  20.224   8.642
  182POPC   C2B 7112  25.994  20.281   8.204
  182POPC   C3B 7113  25.770  20.078   7.858
  182POPC   C4B 7114  25.640  20.200   7.424
  183POPC   NC3 7115  40.617  13.466   9.356
  183POPC   PO4 7116  40.816  14.114   9.533
  183POPC   GL1 7117  40.829  13.910   9.139
  183POPC   GL2 7118  41.077  13.621   9.148
  183POPC   C1A 7119  40.760  13.793   8.704
  183POPC   D2A 7120  40.799  13.950   8.275
  183POPC   C3A 7121  40.585  13.655   7.974
  183POPC   C4A 7122  40.534  13.696   7.523
  183POPC   C1B 7123  40.992  13.325   8.796
  183POPC   C2B 7124  40.823  13.395   8.375
  183POPC   C3B 7125  40.991  13.317   7.981
  183POPC   C4B 7126  41.305  13.382   7.701
  184POPC   NC3 7127   0.965  27.809   9.533
  184POPC   PO4 7128   1.466  27.282   9.551
  184POPC   GL1 7129   1.162  27.395   9.256
  184POPC   GL2 7130   1.365  27.652   9.125
  184POPC   C1A 7131   0.984  27.463   8.833
  184POPC   D2A 7132   1.274  27.440   8.486
  184POPC   C3A 7133   1.077  27.431   8.076
  184POPC   C4A 7134   1.232  27.542   7.681
  184POPC   C1B 7135   1.486  27.900   8.791
  184POPC   C2B 7136   1.298  27.938   8.390
  184POPC   C3B 7137   1.517  27.714   8.086
  184POPC   C4B 7138   1.616  27.897   7.682
  185POPC   NC3 7139  35.118  26.051   9.604
  185POPC   PO4 7140  35.606  25.825   9.167
  185POPC   GL1 7141  35.285  26.147   9.121
  185POPC   GL2 7142  34.942  26.017   9.075
  185POPC   C1A 7143  35.186  26.306   8.712
  185POPC   D2A 7144  35.325  26.078   8.340
  185POPC   C3A 7145  35.291  26.124   7.895
  185POPC   C4A 7146  35.570  25.978   7.588
  185POPC   C1B 7147  34.966  25.782   8.680
  185POPC   C2B 7148  35.300  25.571   8.423
  185POPC   C3B 7149  35.438  25.628   8.004
  185POPC   C4B 7150  35.200  25.604   7.624
  186POPC   NC3 7151   8.544   6.269   9.347
  186POPC   PO4 7152   7.955   6.564   9.508
  186POPC   GL1 7153   8.198   6.604   9.150
  186POPC   GL2 7154   8.288   6.964   9.107
  186POPC   C1A 7155   8.281   6.649   8.713
  186POPC   D2A 7156   8.292   7.040   8.513
  186POPC   C3A 7157   8.430   6.857   8.136
  186POPC   C4A 7158   8.340   6.495   7.802
  186POPC   C1B 7159   7.886   6.932   8.855
  186POPC   C2B 7160   7.782   6.955   8.388
  186POPC   C3B 7161   7.938   6.755   7.991
  186POPC   C4B 7162   8.007   6.781   7.500
  187POPC   NC3 7163  41.516  27.228   9.555
  187POPC   PO4 7164  41.999  26.940   9.318
  187POPC   GL1 7165  41.664  27.187   9.072
  187POPC   GL2 7166  41.540  27.570   9.140
  187POPC   C1A 7167  41.670  27.379   8.655
  187POPC   D2A 7168  41.677  27.211   8.255
  187POPC   C3A 7169  41.693  27.463   7.895
  187POPC   C4A 7170  41.997  27.813   7.778
  187POPC   C1B 7171  41.426  27.833   8.743
  187POPC   C2B 7172  41.460  27.748   8.274
  187POPC   C3B 7173  41.443  27.938   7.826
  187POPC   C4B 7174  41.413  28.121   7.396
  188POPC   NC3 7175   7.380  24.035   9.416
  188POPC   PO4 7176   7.702  23.418   9.496
  188POPC   GL1 7177   7.460  23.595   9.162
  188POPC   GL2 7178   7.585  23.854   8.974
  188POPC   C1A 7179   7.151  23.550   8.838
  188POPC   D2A 7180   7.062  23.478   8.393
  188POPC   C3A 7181   7.306  23.763   8.109
  188POPC   C4A 7182   7.459  23.710   7.677
  188POPC   C1B 7183   7.638  23.474   8.689
  188POPC   C2B 7184   7.773  23.509   8.265
  188POPC   C3B 7185   7.935  23.655   7.879
  188POPC   C4B 7186   7.921  23.708   7.434
  189POPC   NC3 7187   3.870  15.311   9.490
  189POPC   PO4 7188   4.532  15.442   9.328
  189POPC   GL1 7189   4.336  15.372   8.949
  189POPC   GL2 7190   4.000  15.277   8.989
  189POPC   C1A 7191   4.212  15.421   8.530
  189POPC   D2A 7192   3.946  15.230   8.231
  189POPC   C3A 7193   4.155  15.399   7.901
  189POPC   C4A 7194   4.527  15.279   7.688
  189POPC   C1B 7195   4.014  14.937   8.687
  189POPC   C2B 7196   4.235  14.703   8.400
  189POPC   C3B 7197   4.248  14.857   7.975
  189POPC   C4B 7198   4.047  15.012   7.604
  190POPC   NC3 7199  30.382  18.626   9.391
  190POPC   PO4 7200  30.764  18.110   9.273
  190POPC   GL1 7201  30.889  18.478   9.041
  190POPC   GL2 7202  30.602  18.616   8.955
  190POPC   C1A 7203  30.957  18.406   8.612
  190POPC   D2A 7204  30.973  17.966   8.456
  190POPC   C3A 7205  31.080  17.900   8.031
  190POPC   C4A 7206  30.864  18.064   7.694
  190POPC   C1B 7207  30.429  18.327   8.679
  190POPC   C2B 7208  30.555  18.256   8.244
  190POPC   C3B 7209  30.530  18.453   7.827
  190POPC   C4B 7210  30.483  18.238   7.400
  191POPC   NC3 7211  33.323  18.073   9.586
  191POPC   PO4 7212  33.297  18.671   9.233
  191POPC   GL1 7213  33.101  18.270   9.149
  191POPC   GL2 7214  32.806  18.389   8.988
  191POPC   C1A 7215  33.055  18.004   8.776
  191POPC   D2A 7216  32.844  18.147   8.399
  191POPC   C3A 7217  33.026  18.016   8.014
  191POPC   C4A 7218  33.448  17.828   7.896
  191POPC   C1B 7219  33.150  18.494   8.649
  191POPC   C2B 7220  33.465  18.583   8.336
  191POPC   C3B 7221  33.246  18.498   7.957
  191POPC   C4B 7222  32.803  18.484   7.864
  192POPC   NC3 7223  40.712   7.745   9.437
  192POPC   PO4 7224  40.974   8.383   9.363
  192POPC   GL1 7225  40.692   8.155   9.096
  192POPC   GL2 7226  40.998   7.951   9.039
  192POPC   C1A 7227  40.468   8.182   8.696
  192POPC   D2A 7228  40.480   8.177   8.244
  192POPC   C3A 7229  40.810   8.177   7.971
  192POPC   C4A 7230  40.543   8.240   7.662
  192POPC   C1B 7231  40.748   7.755   8.745
  192POPC   C2B 7232  40.752   7.675   8.310
  192POPC   C3B 7233  41.081   7.732   8.005
  192POPC   C4B 7234  41.130   7.893   7.583
  193POPC   NC3 7235  25.140  37.192   9.532
  193POPC   PO4 7236  25.710  37.599   9.643
  193POPC   GL1 7237  25.508  37.542   9.248
  193POPC   GL2 7238  25.131  37.604   9.219
  193POPC   C1A 7239  25.668  37.724   8.850
  193POPC   D2A 7240  25.530  37.948   8.458
  193POPC   C3A 7241  25.483  37.787   8.053
  193POPC   C4A 7242  25.509  38.043   7.705
  193POPC   C1B 7243  25.159  37.799   8.804
  193POPC   C2B 7244  25.104  37.659   8.402
  193POPC   C3B 7245  24.980  37.600   8.000
  193POPC   C4B 7246  25.073  37.808   7.601
  194POPC   NC3 7247  40.615  13.011   9.748
  194POPC   PO4 7248  41.163  13.182   9.433
  194POPC   GL1 7249  40.908  12.920   9.150
  194POPC   GL2 7250  40.583  13.010   9.165
  194POPC   C1A 7251  40.754  12.792   8.748
  194POPC   D2A 7252  40.984  12.899   8.408
  194POPC   C3A 7253  40.950  12.769   8.015
  194POPC   C4A 7254  40.660  12.497   7.807
  194POPC   C1B 7255  40.485  13.234   8.758
  194POPC   C2B 7256  40.472  13.014   8.330
  194POPC   C3B 7257  40.546  13.096   7.882
  194POPC   C4B 7258  40.455  13.131   7.438
  195POPC   NC3 7259  12.286   6.302   9.511
  195POPC   PO4 7260  11.880   6.790   9.420
  195POPC   GL1 7261  12.187   6.861   9.127
  195POPC   GL2 7262  12.278   6.536   9.067
  195POPC   C1A 7263  12.083   6.976   8.725
  195POPC   D2A 7264  11.858   6.839   8.357
  195POPC   C3A 7265  12.084   6.634   8.030
  195POPC   C4A 7266  12.224   6.821   7.671
  195POPC   C1B 7267  11.988   6.467   8.781
  195POPC   C2B 7268  12.000   6.291   8.404
  195POPC   C3B 7269  11.830   6.103   8.053
  195POPC   C4B 7270  11.854   6.340   7.658
  196POPC   NC3 7271   9.866  33.468   9.521
  196POPC   PO4 7272   9.572  34.006   9.495
  196POPC   GL1 7273   9.634  33.882   9.109
  196POPC   GL2 7274   9.604  33.540   9.096
  196POPC   C1A 7275   9.862  33.832   8.733
  196POPC   D2A 7276   9.763  33.665   8.346
  196POPC   C3A 7277   9.670  33.990   8.084
  196POPC   C4A 7278   9.713  33.897   7.672
  196POPC   C1B 7279   9.385  33.618   8.716
  196POPC   C2B 7280   9.234  33.701   8.312
  196POPC   C3B 7281   9.374  33.545   7.892
  196POPC   C4B 7282   9.340  33.230   7.531
  197POPC   NC3 7283  38.271  40.181   9.883
  197POPC   PO4 7284  37.748  40.012   9.523
  197POPC   GL1 7285  37.606  40.080   9.106
  197POPC   GL2 7286  37.333  39.863   9.178
  197POPC   C1A 7287  37.797  40.093   8.687
  197POPC   D2A 7288  37.958  40.255   8.288
  197POPC   C3A 7289  37.765  40.065   7.927
  197POPC   C4A 7290  37.878  39.864   7.535
  197POPC   C1B 7291  37.437  39.722   8.766
  197POPC   C2B 7292  37.416  39.925   8.335
  197POPC   C3B 7293  37.356  39.743   7.945
  197POPC   C4B 7294  37.374  39.886   7.556
  198POPC   NC3 7295  39.631   9.216   9.439
  198POPC   PO4 7296  40.129   8.807   9.371
  198POPC   GL1 7297  40.099   9.101   9.065
  198POPC   GL2 7298  39.813   9.012   9.005
  198POPC   C1A 7299  40.055   9.124   8.581
  198POPC   D2A 7300  40.129   8.888   8.220
  198POPC   C3A 7301  40.251   9.012   7.836
  198POPC   C4A 7302  39.973   8.998   7.508
  198POPC   C1B 7303  39.811   9.475   8.868
  198POPC   C2B 7304  39.717   9.608   8.475
  198POPC   C3B 7305  39.879   9.346   8.123
  198POPC   C4B 7306  39.899   9.478   7.686
  199POPC   NC3 7307  38.475  14.217   9.703
  199POPC   PO4 7308  38.182  14.758   9.570
  199POPC   GL1 7309  38.435  14.527   9.245
  199POPC   GL2 7310  38.576  14.197   9.184
  199POPC   C1A 7311  38.539  14.622   8.789
  199POPC   D2A 7312  38.556  14.385   8.405
  199POPC   C3A 7313  38.363  14.501   8.038
  199POPC   C4A 7314  38.385  14.256   7.671
  199POPC   C1B 7315  38.665  13.878   8.863
  199POPC   C2B 7316  38.631  13.821   8.435
  199POPC   C3B 7317  38.603  13.956   8.025
  199POPC   C4B 7318  38.864  13.954   7.633
  200POPC   NC3 7319  33.469  30.650   9.494
  200POPC   PO4 7320  33.941  30.332   9.791
  200POPC   GL1 7321  33.905  30.537   9.278
  200POPC   GL2 7322  33.612  30.637   9.028
  200POPC   C1A 7323  34.010  30.466   8.797
  200POPC   D2A 7324  33.992  30.734   8.441
  200POPC   C3A 7325  34.144  30.560   8.072
  200POPC   C4A 7326  34.126  30.629   7.632
  200POPC   C1B 7327  33.505  30.498   8.621
  200POPC   C2B 7328  33.295  30.785   8.358
  200POPC   C3B 7329  33.410  30.802   7.983
  200POPC   C4B 7330  33.681  30.459   7.854
  201POPC   NC3 7331  31.720   6.591   9.921
  201POPC   PO4 7332  31.384   6.920   9.430
  201POPC   GL1 7333  31.258   6.815   9.034
  201POPC   GL2 7334  31.442   6.525   9.123
  201POPC   C1A 7335  31.440   6.759   8.643
  201POPC   D2A 7336  31.610   6.856   8.252
  201POPC   C3A 7337  31.292   6.833   7.939
  201POPC   C4A 7338  31.410   6.783   7.509
  201POPC   C1B 7339  31.746   6.397   8.870
  201POPC   C2B 7340  31.811   6.395   8.480
  201POPC   C3B 7341  31.750   6.209   8.130
  201POPC   C4B 7342  31.680   6.509   7.840
  202POPC   NC3 7343  10.022  42.936   9.326
  202POPC   PO4 7344  10.643  42.964   9.651
  202POPC   GL1 7345  10.529  43.085   9.223
  202POPC   GL2 7346  10.850  43.252   9.153
  202POPC   C1A 7347  10.404  43.197   8.773
  202POPC   D2A 7348  10.403  43.150   8.309
  202POPC   C3A 7349  10.106  43.046   7.976
  202POPC   C4A 7350  10.228  43.161   7.521
  202POPC   C1B 7351  10.783  43.528   8.840
  202POPC   C2B 7352  10.821  43.378   8.484
  202POPC   C3B 7353  10.812  43.326   8.058
  202POPC   C4B 7354  10.660  43.064   7.750
  203POPC   NC3 7355  40.928  44.228   9.413
  203POPC   PO4 7356  40.629  43.635   9.526
  203POPC   GL1 7357  40.778  43.790   9.172
  203POPC   GL2 7358  41.111  43.624   9.167
  203POPC   C1A 7359  40.651  44.066   8.823
  203POPC   D2A 7360  40.327  44.114   8.498
  203POPC   C3A 7361  40.501  44.262   8.101
  203POPC   C4A 7362  40.609  44.054   7.706
  203POPC   C1B 7363  40.993  43.670   8.731
  203POPC   C2B 7364  40.744  43.834   8.379
  203POPC   C3B 7365  40.864  43.693   8.002
  203POPC   C4B 7366  41.262  43.569   7.867
  204POPC   NC3 7367  24.577  29.194   9.594
  204POPC   PO4 7368  24.254  28.697   9.338
  204POPC   GL1 7369  24.454  29.104   9.109
  204POPC   GL2 7370  24.805  29.270   9.111
  204POPC   C1A 7371  24.438  29.413   8.760
  204POPC   D2A 7372  24.629  29.465   8.313
  204POPC   C3A 7373  24.382  29.257   7.949
  204POPC   C4A 7374  24.381  29.044   7.516
  204POPC   C1B 7375  24.852  29.143   8.667
  204POPC   C2B 7376  24.739  28.958   8.249
  204POPC   C3B 7377  24.807  29.038   7.792
  204POPC   C4B 7378  24.831  29.365   7.413
  205POPC   NC3 7379   7.924  25.979   9.394
  205POPC   PO4 7380   8.397  26.389   9.347
  205POPC   GL1 7381   8.366  26.033   9.088
  205POPC   GL2 7382   8.350  25.678   9.220
  205POPC   C1A 7383   8.269  26.113   8.649
  205POPC   D2A 7384   8.392  26.300   8.243
  205POPC   C3A 7385   8.112  26.206   7.892
  205POPC   C4A 7386   8.141  26.240   7.448
  205POPC   C1B 7387   8.427  25.634   8.770
  205POPC   C2B 7388   8.504  25.768   8.345
  205POPC   C3B 7389   8.358  25.747   7.903
  205POPC   C4B 7390   8.399  25.806   7.420
  206POPC   NC3 7391  19.153   5.813   9.428
  206POPC   PO4 7392  18.606   5.468   9.507
  206POPC   GL1 7393  18.764   5.712   9.092
  206POPC   GL2 7394  18.984   6.048   9.026
  206POPC   C1A 7395  19.022   5.626   8.704
  206POPC   D2A 7396  19.220   5.697   8.296
  206POPC   C3A 7397  18.954   5.738   7.928
  206POPC   C4A 7398  18.695   6.092   7.839
  206POPC   C1B 7399  19.244   6.099   8.687
  206POPC   C2B 7400  19.488   6.148   8.335
  206POPC   C3B 7401  19.375   6.071   7.926
  206POPC   C4B 7402  19.459   5.664   7.839
  207POPC   NC3 7403  22.448  19.294   9.469
  207POPC   PO4 7404  21.911  19.046   9.566
  207POPC   GL1 7405  22.112  19.048   9.177
  207POPC   GL2 7406  22.014  19.354   9.123
  207POPC   C1A 7407  22.358  19.154   8.786
  207POPC   D2A 7408  22.559  19.075   8.379
  207POPC   C3A 7409  22.377  19.080   7.970
  207POPC   C4A 7410  22.509  18.768   7.647
  207POPC   C1B 7411  21.731  19.345   8.805
  207POPC   C2B 7412  21.657  19.099   8.449
  207POPC   C3B 7413  21.776  19.183   8.027
  207POPC   C4B 7414  21.953  19.051   7.643
  208POPC   NC3 7415   7.899  39.353   9.399
  208POPC   PO4 7416   7.284  39.498   9.348
  208POPC   GL1 7417   7.534  39.369   9.028
  208POPC   GL2 7418   7.761  39.067   8.970
  208POPC   C1A 7419   7.373  39.181   8.687
  208POPC   D2A 7420   7.637  39.294   8.396
  208POPC   C3A 7421   7.443  39.555   8.143
  208POPC   C4A 7422   7.157  39.457   7.798
  208POPC   C1B 7423   7.712  38.809   8.568
  208POPC   C2B 7424   7.664  38.793   8.117
  208POPC   C3B 7425   7.473  38.940   7.737
  208POPC   C4B 7426   7.560  38.898   7.256
  209POPC   NC3 7427  44.925  25.092   9.422
  209POPC   PO4 7428  44.286  25.511   9.449
  209POPC   GL1 7429  44.562  25.348   9.190
  209POPC   GL2 7430  44.857  25.557   9.144
  209POPC   C1A 7431  44.412  25.160   8.836
  209POPC   D2A 7432  44.527  24.946   8.488
  209POPC   C3A 7433  44.457  25.140   8.094
  209POPC   C4A 7434  44.560  25.092   7.650
  209POPC   C1B 7435  44.876  25.408   8.738
  209POPC   C2B 7436  44.894  25.269   8.333
  209POPC   C3B 7437  44.829  25.480   7.953
  209POPC   C4B 7438   0.152  25.723   7.793
  210POPC   NC3 7439   9.274   7.558   9.730
  210POPC   PO4 7440   9.694   7.097   9.592
  210POPC   GL1 7441   9.772   7.425   9.259
  210POPC   GL2 7442   9.459   7.426   9.223
  210POPC   C1A 7443   9.899   7.565   8.812
  210POPC   D2A 7444  10.005   7.333   8.414
  210POPC   C3A 7445   9.870   7.521   8.008
  210POPC   C4A 7446   9.638   7.404   7.621
  210POPC   C1B 7447   9.392   7.633   8.824
  210POPC   C2B 7448   9.520   7.570   8.395
  210POPC   C3B 7449   9.363   7.643   7.964
  210POPC   C4B 7450   9.276   7.758   7.514
  211POPC   NC3 7451   1.683  39.322   9.406
  211POPC   PO4 7452   2.331  39.279   9.526
  211POPC   GL1 7453   2.142  39.161   9.178
  211POPC   GL2 7454   2.155  39.502   9.080
  211POPC   C1A 7455   1.838  38.951   8.891
  211POPC   D2A 7456   1.684  39.078   8.500
  211POPC   C3A 7457   1.821  38.865   8.119
  211POPC   C4A 7458   1.837  39.195   7.841
  211POPC   C1B 7459   2.224  39.314   8.702
  211POPC   C2B 7460   2.192  39.097   8.377
  211POPC   C3B 7461   2.342  39.165   8.030
  211POPC   C4B 7462   2.245  38.836   7.832
  212POPC   NC3 7463  25.443  32.249   9.617
  212POPC   PO4 7464  24.837  32.095   9.462
  212POPC   GL1 7465  25.217  31.996   9.204
  212POPC   GL2 7466  25.520  32.246   9.133
  212POPC   C1A 7467  25.141  32.164   8.790
  212POPC   D2A 7468  25.006  32.365   8.396
  212POPC   C3A 7469  25.169  32.206   7.996
  212POPC   C4A 7470  25.055  32.297   7.568
  212POPC   C1B 7471  25.657  32.130   8.764
  212POPC   C2B 7472  25.514  32.344   8.424
  212POPC   C3B 7473  25.637  32.402   8.048
  212POPC   C4B 7474  25.612  32.159   7.689
  213POPC   NC3 7475  10.448  27.740   9.377
  213POPC   PO4 7476  10.545  27.168   9.508
  213POPC   GL1 7477  10.745  27.351   9.138
  213POPC   GL2 7478  10.876  27.693   9.096
  213POPC   C1A 7479  10.565  27.417   8.768
  213POPC   D2A 7480  10.298  27.307   8.454
  213POPC   C3A 7481  10.440  27.454   8.083
  213POPC   C4A 7482  10.230  27.573   7.721
  213POPC   C1B 7483  10.681  27.912   8.740
  213POPC   C2B 7484  10.758  27.821   8.318
  213POPC   C3B 7485  10.648  27.882   7.904
  213POPC   C4B 7486  10.696  27.628   7.529
  214POPC   NC3 7487   8.037  21.834   9.669
  214POPC   PO4 7488   8.550  22.198   9.335
  214POPC   GL1 7489   8.213  22.194   9.079
  214POPC   GL2 7490   7.992  21.904   9.174
  214POPC   C1A 7491   8.282  22.268   8.626
  214POPC   D2A 7492   8.245  22.118   8.183
  214POPC   C3A 7493   8.000  22.360   7.875
  214POPC   C4A 7494   8.378  22.427   7.641
  214POPC   C1B 7495   8.098  21.789   8.767
  214POPC   C2B 7496   7.858  21.912   8.449
  214POPC   C3B 7497   7.777  21.923   8.041
  214POPC   C4B 7498   8.021  21.906   7.678
  215POPC   NC3 7499  17.565   6.940   9.412
  215POPC   PO4 7500  17.150   6.340   9.438
  215POPC   GL1 7501  17.468   6.455   9.168
  215POPC   GL2 7502  17.283   6.676   9.053
  215POPC   C1A 7503  17.751   6.595   8.851
  215POPC   D2A 7504  17.801   6.819   8.513
  215POPC   C3A 7505  17.740   6.541   8.220
  215POPC   C4A 7506  17.838   6.448   7.833
  215POPC   C1B 7507  17.297   6.851   8.675
  215POPC   C2B 7508  17.293   6.769   8.264
  215POPC   C3B 7509  17.222   6.963   7.893
  215POPC   C4B 7510  17.369   6.654   7.625
  216POPC   NC3 7511   2.081   0.202   9.777
  216POPC   PO4 7512   1.877   0.717   9.416
  216POPC   GL1 7513   1.942   0.417   9.144
  216POPC   GL2 7514   2.264   0.340   9.196
  216POPC   C1A 7515   1.842   0.366   8.735
  216POPC   D2A 7516   2.051   0.288   8.369
  216POPC   C3A 7517   1.823   0.283   8.011
  216POPC   C4A 7518   1.559   0.556   7.807
  216POPC   C1B 7519   2.288   0.593   8.769
  216POPC   C2B 7520   2.279   0.750   8.326
  216POPC   C3B 7521   2.285   0.522   7.922
  216POPC   C4B 7522   2.342   0.678   7.490
  217POPC   NC3 7523  36.222   9.452   9.516
  217POPC   PO4 7524  35.763   9.897   9.421
  217POPC   GL1 7525  36.000   9.705   9.098
  217POPC   GL2 7526  35.960   9.326   9.063
  217POPC   C1A 7527  35.979   9.820   8.666
  217POPC   D2A 7528  35.868  10.104   8.310
  217POPC   C3A 7529  36.032   9.951   7.897
  217POPC   C4A 7530  36.287   9.671   7.655
  217POPC   C1B 7531  36.260   9.375   8.688
  217POPC   C2B 7532  36.200   9.588   8.276
  217POPC   C3B 7533  35.805   9.552   8.088
  217POPC   C4B 7534  35.877   9.322   7.711
  218POPC   NC3 7535  36.617   8.758   9.693
  218POPC   PO4 7536  37.191   9.107   9.572
  218POPC   GL1 7537  36.979   9.045   9.188
  218POPC   GL2 7538  36.630   8.961   9.217
  218POPC   C1A 7539  36.847   9.273   8.814
  218POPC   D2A 7540  36.959   9.085   8.418
  218POPC   C3A 7541  37.178   9.152   8.031
  218POPC   C4A 7542  37.039   8.975   7.614
  218POPC   C1B 7543  36.716   8.758   8.811
  218POPC   C2B 7544  36.515   8.834   8.399
  218POPC   C3B 7545  36.717   8.882   7.987
  218POPC   C4B 7546  36.559   8.851   7.529
  219POPC   NC3 7547  40.188  32.849   9.454
  219POPC   PO4 7548  39.590  32.962   9.529
  219POPC   GL1 7549  39.740  33.239   9.178
  219POPC   GL2 7550  40.106  33.190   9.077
  219POPC   C1A 7551  39.759  33.100   8.725
  219POPC   D2A 7552  39.917  33.221   8.318
  219POPC   C3A 7553  39.661  33.149   7.920
  219POPC   C4A 7554  39.752  33.228   7.455
  219POPC   C1B 7555  40.410  33.175   8.724
  219POPC   C2B 7556  40.441  33.171   8.283
  219POPC   C3B 7557  40.262  32.897   7.997
  219POPC   C4B 7558  40.366  32.861   7.596
  220POPC   NC3 7559  17.530  17.774   9.516
  220POPC   PO4 7560  17.543  17.079   9.557
  220POPC   GL1 7561  17.480  17.324   9.137
  220POPC   GL2 7562  17.733  17.562   9.111
  220POPC   C1A 7563  17.485  17.624   8.707
  220POPC   D2A 7564  17.771  17.769   8.397
  220POPC   C3A 7565  17.547  17.681   8.041
  220POPC   C4A 7566  17.354  17.778   7.688
  220POPC   C1B 7567  17.857  17.295   8.732
  220POPC   C2B 7568  17.657  17.269   8.340
  220POPC   C3B 7569  17.876  17.319   7.965
  220POPC   C4B 7570  17.704  17.368   7.603
  221POPC   NC3 7571  28.856   0.208   9.316
  221POPC   PO4 7572  29.066  44.657   9.549
  221POPC   GL1 7573  29.143  44.795   9.122
  221POPC   GL2 7574  28.853  44.841   8.913
  221POPC   C1A 7575  29.315  44.836   8.690
  221POPC   D2A 7576  29.209  44.595   8.299
  221POPC   C3A 7577  29.395  44.787   7.957
  221POPC   C4A 7578  29.097   0.133   7.823
  221POPC   C1B 7579  29.033  44.418   8.793
  221POPC   C2B 7580  28.953  44.128   8.460
  221POPC   C3B 7581  28.855  44.219   8.047
  221POPC   C4B 7582  29.001  44.532   7.777
  222POPC   NC3 7583  16.830  42.137   9.526
  222POPC   PO4 7584  16.459  41.811   9.263
  222POPC   GL1 7585  16.830  42.008   9.021
  222POPC   GL2 7586  16.918  42.369   9.055
  222POPC   C1A 7587  16.919  42.134   8.585
  222POPC   D2A 7588  16.726  42.469   8.341
  222POPC   C3A 7589  16.651  42.441   7.931
  222POPC   C4A 7590  16.861  42.263   7.614
  222POPC   C1B 7591  16.890  42.724   8.742
  222POPC   C2B 7592  16.805  43.002   8.353
  222POPC   C3B 7593  16.783  42.923   7.918
  222POPC   C4B 7594  17.089  42.672   7.804
  223POPC   NC3 7595  22.001  13.998   9.470
  223POPC   PO4 7596  22.519  13.496   9.514
  223POPC   GL1 7597  22.304  13.452   9.119
  223POPC   GL2 7598  22.264  13.793   9.103
  223POPC   C1A 7599  22.058  13.487   8.716
  223POPC   D2A 7600  21.928  13.233   8.320
  223POPC   C3A 7601  21.999  13.362   7.855
  223POPC   C4A 7602  21.905  13.397   7.386
  223POPC   C1B 7603  22.364  13.933   8.707
  223POPC   C2B 7604  22.206  14.059   8.302
  223POPC   C3B 7605  22.041  13.858   7.943
  223POPC   C4B 7606  22.195  13.793   7.500
  224POPC   NC3 7607  35.713  26.191   9.421
  224POPC   PO4 7608  36.288  25.734   9.416
  224POPC   GL1 7609  36.170  25.896   9.016
  224POPC   GL2 7610  36.128  26.244   9.109
  224POPC   C1A 7611  35.938  25.931   8.605
  224POPC   D2A 7612  35.822  26.183   8.232
  224POPC   C3A 7613  36.006  26.050   7.855
  224POPC   C4A 7614  36.381  25.765   7.744
  224POPC   C1B 7615  36.273  26.306   8.696
  224POPC   C2B 7616  36.378  26.110   8.288
  224POPC   C3B 7617  36.452  26.265   7.858
  224POPC   C4B 7618  36.209  26.493   7.508
  225POPC   NC3 7619  42.511  43.811   9.574
  225POPC   PO4 7620  42.046  44.263   9.346
  225POPC   GL1 7621  42.302  43.958   9.123
  225POPC   GL2 7622  42.700  43.938   9.120
  225POPC   C1A 7623  42.148  43.787   8.746
  225POPC   D2A 7624  42.054  43.537   8.375
  225POPC   C3A 7625  42.099  43.714   7.985
  225POPC   C4A 7626  42.442  43.726   7.743
  225POPC   C1B 7627  42.576  44.107   8.729
  225POPC   C2B 7628  42.353  44.034   8.347
  225POPC   C3B 7629  42.293  44.188   7.956
  225POPC   C4B 7630  42.498  44.221   7.575
  226POPC   NC3 7631  25.771  40.498   9.527
  226POPC   PO4 7632  26.371  40.879   9.530
  226POPC   GL1 7633  26.104  40.710   9.180
  226POPC   GL2 7634  25.837  40.923   9.105
  226POPC   C1A 7635  26.018  40.649   8.710
  226POPC   D2A 7636  26.127  40.956   8.391
  226POPC   C3A 7637  26.169  40.999   7.947
  226POPC   C4A 7638  26.165  40.712   7.616
  226POPC   C1B 7639  25.713  41.065   8.707
  226POPC   C2B 7640  25.582  40.789   8.406
  226POPC   C3B 7641  25.817  40.617   8.082
  226POPC   C4B 7642  25.750  40.430   7.696
  227POPC   NC3 7643  19.793   4.671   9.536
  227POPC   PO4 7644  19.607   4.008   9.378
  227POPC   GL1 7645  19.905   4.179   9.118
  227POPC   GL2 7646  19.943   4.544   9.076
  227POPC   C1A 7647  19.932   4.014   8.734
  227POPC   D2A 7648  19.788   4.112   8.377
  227POPC   C3A 7649  19.956   4.412   8.193
  227POPC   C4A 7650  20.078   4.122   7.908
  227POPC   C1B 7651  19.980   4.682   8.663
  227POPC   C2B 7652  19.798   4.880   8.314
  227POPC   C3B 7653  19.545   4.695   7.982
  227POPC   C4B 7654  19.544   4.229   7.896
  228POPC   NC3 7655  17.073  40.860   9.480
  228POPC   PO4 7656  16.489  40.730   9.658
  228POPC   GL1 7657  16.687  40.772   9.157
  228POPC   GL2 7658  16.991  40.519   9.104
  228POPC   C1A 7659  16.577  40.667   8.662
  228POPC   D2A 7660  16.619  40.827   8.199
  228POPC   C3A 7661  16.629  40.636   7.745
  228POPC   C4A 7662  16.624  40.515   7.286
  228POPC   C1B 7663  17.056  40.847   8.769
  228POPC   C2B 7664  17.093  41.036   8.343
  228POPC   C3B 7665  17.082  40.804   7.962
  228POPC   C4B 7666  17.122  40.605   7.570
  229POPC   NC3 7667   4.560   7.287   9.414
  229POPC   PO4 7668   4.202   7.904   9.407
  229POPC   GL1 7669   4.343   7.635   9.092
  229POPC   GL2 7670   4.003   7.476   9.132
  229POPC   C1A 7671   4.315   7.325   8.728
  229POPC   D2A 7672   4.122   7.243   8.296
  229POPC   C3A 7673   4.418   7.360   7.983
  229POPC   C4A 7674   4.497   7.249   7.596
  229POPC   C1B 7675   3.984   7.775   8.776
  229POPC   C2B 7676   4.216   7.724   8.419
  229POPC   C3B 7677   4.079   7.716   8.022
  229POPC   C4B 7678   3.953   7.888   7.690
  230POPC   NC3 7679  10.433  30.478   9.825
  230POPC   PO4 7680  10.913  30.889   9.555
  230POPC   GL1 7681  10.643  30.886   9.175
  230POPC   GL2 7682  10.268  30.840   9.216
  230POPC   C1A 7683  10.520  30.664   8.779
  230POPC   D2A 7684  10.552  30.417   8.387
  230POPC   C3A 7685  10.686  30.698   8.052
  230POPC   C4A 7686  10.882  31.088   7.913
  230POPC   C1B 7687  10.029  30.815   8.826
  230POPC   C2B 7688  10.083  30.682   8.403
  230POPC   C3B 7689  10.027  30.904   7.990
  230POPC   C4B 7690  10.393  30.908   7.684
  231POPC   NC3 7691  12.108  14.838   9.554
  231POPC   PO4 7692  11.959  15.438   9.533
  231POPC   GL1 7693  12.106  15.163   9.149
  231POPC   GL2 7694  12.417  14.906   9.143
  231POPC   C1A 7695  11.958  15.294   8.726
  231POPC   D2A 7696  12.091  15.666   8.486
  231POPC   C3A 7697  12.199  15.624   8.062
  231POPC   C4A 7698  12.233  15.263   7.758
  231POPC   C1B 7699  12.354  14.978   8.665
  231POPC   C2B 7700  12.412  14.737   8.261
  231POPC   C3B 7701  12.563  14.884   7.869
  231POPC   C4B 7702  12.435  14.860   7.453
  232POPC   NC3 7703  37.363  19.704   9.651
  232POPC   PO4 7704  37.933  19.487   9.521
  232POPC   GL1 7705  37.743  19.787   9.219
  232POPC   GL2 7706  37.408  19.860   9.165
  232POPC   C1A 7707  37.667  19.789   8.752
  232POPC   D2A 7708  37.697  19.620   8.333
  232POPC   C3A 7709  37.737  19.882   7.981
  232POPC   C4A 7710  37.848  19.850   7.559
  232POPC   C1B 7711  37.270  20.122   8.778
  232POPC   C2B 7712  37.335  19.977   8.370
  232POPC   C3B 7713  37.288  20.133   7.983
  232POPC   C4B 7714  37.392  20.035   7.623
  233POPC   NC3 7715   3.929  11.167   9.361
  233POPC   PO4 7716   4.471  11.527   9.506
  233POPC   GL1 7717   4.400  11.236   9.141
  233POPC   GL2 7718   4.674  11.003   9.083
  233POPC   C1A 7719   4.136  11.218   8.764
  233POPC   D2A 7720   4.025  11.525   8.470
  233POPC   C3A 7721   4.237  11.398   8.122
  233POPC   C4A 7722   4.092  11.409   7.713
  233POPC   C1B 7723   4.645  11.206   8.653
  233POPC   C2B 7724   4.711  11.186   8.187
  233POPC   C3B 7725   4.609  11.268   7.736
  233POPC   C4B 7726   4.645  10.954   7.352
  234POPC   NC3 7727  26.356   6.436   9.475
  234POPC   PO4 7728  26.096   7.039   9.718
  234POPC   GL1 7729  26.009   6.798   9.317
  234POPC   GL2 7730  25.740   6.590   9.272
  234POPC   C1A 7731  26.046   6.806   8.849
  234POPC   D2A 7732  26.267   6.907   8.438
  234POPC   C3A 7733  26.124   6.704   8.050
  234POPC   C4A 7734  26.173   6.541   7.644
  234POPC   C1B 7735  25.705   6.425   8.850
  234POPC   C2B 7736  26.004   6.414   8.514
  234POPC   C3B 7737  25.931   6.210   8.155
  234POPC   C4B 7738  25.716   6.406   7.811
  235POPC   NC3 7739  14.203  16.496   9.384
  235POPC   PO4 7740  13.589  16.695   9.494
  235POPC   GL1 7741  13.661  16.935   9.127
  235POPC   GL2 7742  14.025  16.969   9.220
  235POPC   C1A 7743  13.468  16.956   8.710
  235POPC   D2A 7744  13.200  16.659   8.467
  235POPC   C3A 7745  13.206  16.727   8.048
  235POPC   C4A 7746  13.275  17.115   7.956
  235POPC   C1B 7747  14.015  17.001   8.755
  235POPC   C2B 7748  13.861  17.097   8.328
  235POPC   C3B 7749  13.775  16.845   7.952
  235POPC   C4B 7750  14.054  16.483   7.803
  236POPC   NC3 7751  35.720  28.634   9.512
  236POPC   PO4 7752  35.193  28.078   9.548
  236POPC   GL1 7753  35.453  28.231   9.150
  236POPC   GL2 7754  35.691  28.515   9.032
  236POPC   C1A 7755  35.568  28.160   8.719
  236POPC   D2A 7756  35.561  27.969   8.332
  236POPC   C3A 7757  35.159  28.110   8.181
  236POPC   C4A 7758  34.998  28.447   7.894
  236POPC   C1B 7759  35.447  28.669   8.663
  236POPC   C2B 7760  35.369  28.579   8.224
  236POPC   C3B 7761  35.512  28.783   7.830
  236POPC   C4B 7762  35.730  28.782   7.422
  237POPC   NC3 7763  17.522   1.118   9.607
  237POPC   PO4 7764  17.595   1.682   9.275
  237POPC   GL1 7765  17.286   1.349   9.189
  237POPC   GL2 7766  17.557   1.198   9.081
  237POPC   C1A 7767  17.246   1.048   8.753
  237POPC   D2A 7768  17.565   1.226   8.391
  237POPC   C3A 7769  17.595   0.991   8.023
  237POPC   C4A 7770  17.372   0.993   7.649
  237POPC   C1B 7771  17.350   1.529   8.723
  237POPC   C2B 7772  17.299   1.679   8.295
  237POPC   C3B 7773  17.585   1.562   7.941
  237POPC   C4B 7774  17.512   1.453   7.508
  238POPC   NC3 7775  42.437  31.574   9.846
  238POPC   PO4 7776  41.977  31.206   9.571
  238POPC   GL1 7777  42.137  31.372   9.214
  238POPC   GL2 7778  42.488  31.424   9.290
  238POPC   C1A 7779  42.151  31.164   8.811
  238POPC   D2A 7780  42.087  31.168   8.364
  238POPC   C3A 7781  42.386  31.417   8.112
  238POPC   C4A 7782  42.408  31.571   7.704
  238POPC   C1B 7783  42.424  31.610   8.859
  238POPC   C2B 7784  42.237  31.754   8.469
  238POPC   C3B 7785  42.350  31.953   8.111
  238POPC   C4B 7786  42.236  32.076   7.726
  239POPC   NC3 7787   2.996  19.385   9.520
  239POPC   PO4 7788   2.674  19.915   9.536
  239POPC   GL1 7789   2.722  19.880   9.115
  239POPC   GL2 7790   2.918  19.584   9.057
  239POPC   C1A 7791   2.525  19.697   8.745
  239POPC   D2A 7792   2.350  19.573   8.361
  239POPC   C3A 7793   2.516  19.877   8.105
  239POPC   C4A 7794   2.490  20.012   7.708
  239POPC   C1B 7795   3.127  19.538   8.637
  239POPC   C2B 7796   3.040  19.694   8.199
  239POPC   C3B 7797   2.822  19.568   7.809
  239POPC   C4B 7798   2.950  19.344   7.443
  240POPC   NC3 7799  37.902  24.583   9.412
  240POPC   PO4 7800  38.590  24.352   9.489
  240POPC   GL1 7801  38.359  24.418   9.166
  240POPC   GL2 7802  38.339  24.772   9.164
  240POPC   C1A 7803  38.456  24.272   8.748
  240POPC   D2A 7804  38.525  24.591   8.421
  240POPC   C3A 7805  38.653  24.404   8.056
  240POPC   C4A 7806  38.596  24.448   7.626
  240POPC   C1B 7807  38.116  24.638   8.777
  240POPC   C2B 7808  38.054  24.410   8.367
  240POPC   C3B 7809  38.188  24.611   7.976
  240POPC   C4B 7810  38.095  24.612   7.555
  241POPC   NC3 7811  33.205   0.807   9.737
  241POPC   PO4 7812  33.047   0.323   9.341
  241POPC   GL1 7813  33.012   0.425   8.991
  241POPC   GL2 7814  32.894   0.746   9.102
  241POPC   C1A 7815  32.924   0.252   8.606
  241POPC   D2A 7816  32.972   0.472   8.227
  241POPC   C3A 7817  33.308   0.363   7.977
  241POPC   C4A 7818  33.155   0.007   7.768
  241POPC   C1B 7819  33.018   0.818   8.681
  241POPC   C2B 7820  32.816   0.948   8.303
  241POPC   C3B 7821  32.687   0.790   7.912
  241POPC   C4B 7822  33.099   0.796   7.809
  242POPC   NC3 7823   8.754  35.477   9.465
  242POPC   PO4 7824   9.221  34.973   9.473
  242POPC   GL1 7825   9.279  35.182   9.101
  242POPC   GL2 7826   8.968  35.408   9.014
  242POPC   C1A 7827   9.142  35.044   8.720
  242POPC   D2A 7828   8.854  35.220   8.477
  242POPC   C3A 7829   8.896  35.106   8.071
  242POPC   C4A 7830   8.683  35.399   7.860
  242POPC   C1B 7831   9.217  35.551   8.672
  242POPC   C2B 7832   9.324  35.329   8.290
  242POPC   C3B 7833   9.202  35.496   7.922
  242POPC   C4B 7834   9.345  35.847   7.781
  243POPC   NC3 7835  30.509  26.927   9.564
  243POPC   PO4 7836  31.050  26.526   9.631
  243POPC   GL1 7837  30.857  26.703   9.252
  243POPC   GL2 7838  30.554  26.518   9.213
  243POPC   C1A 7839  30.835  26.642   8.797
  243POPC   D2A 7840  31.019  26.622   8.391
  243POPC   C3A 7841  30.750  26.762   8.088
  243POPC   C4A 7842  30.891  26.606   7.715
  243POPC   C1B 7843  30.294  26.538   8.838
  243POPC   C2B 7844  30.319  26.738   8.437
  243POPC   C3B 7845  30.266  26.540   8.056
  243POPC   C4B 7846  30.239  26.703   7.666
  244POPC   NC3 7847  34.671  10.213   9.485
  244POPC   PO4 7848  34.761  10.921   9.475
  244POPC   GL1 7849  34.744  10.616   9.132
  244POPC   GL2 7850  34.410  10.525   9.157
  244POPC   C1A 7851  34.623  10.692   8.685
  244POPC   D2A 7852  34.777  10.548   8.265
  244POPC   C3A 7853  34.677  10.628   7.787
  244POPC   C4A 7854  34.728  10.419   7.351
  244POPC   C1B 7855  34.304  10.295   8.783
  244POPC   C2B 7856  34.398  10.085   8.395
  244POPC   C3B 7857  34.178  10.208   8.024
  244POPC   C4B 7858  34.275  10.327   7.600
  245POPC   NC3 7859  22.080   2.528   9.467
  245POPC   PO4 7860  22.512   2.995   9.407
  245POPC   GL1 7861  22.202   2.862   9.086
  245POPC   GL2 7862  22.427   2.600   9.063
  245POPC   C1A 7863  22.107   3.023   8.654
  245POPC   D2A 7864  22.363   3.145   8.289
  245POPC   C3A 7865  22.363   2.918   7.882
  245POPC   C4A 7866  22.133   2.495   7.757
  245POPC   C1B 7867  22.299   2.555   8.656
  245POPC   C2B 7868  22.266   2.498   8.229
  245POPC   C3B 7869  22.626   2.498   7.884
  245POPC   C4B 7870  22.796   2.739   7.518
  246POPC   NC3 7871   4.788  13.734   9.429
  246POPC   PO4 7872   5.426  13.409   9.515
  246POPC   GL1 7873   5.411  13.554   9.096
  246POPC   GL2 7874   5.061  13.660   9.010
  246POPC   C1A 7875   5.303  13.400   8.667
  246POPC   D2A 7876   4.939  13.623   8.482
  246POPC   C3A 7877   5.006  13.781   8.090
  246POPC   C4A 7878   4.901  13.666   7.673
  246POPC   C1B 7879   5.256  13.954   8.729
  246POPC   C2B 7880   5.220  14.192   8.379
  246POPC   C3B 7881   5.377  14.118   7.974
  246POPC   C4B 7882   5.437  13.736   7.773
  247POPC   NC3 7883  22.552  30.797   9.418
  247POPC   PO4 7884  23.013  30.370   9.500
  247POPC   GL1 7885  23.181  30.602   9.136
  247POPC   GL2 7886  22.883  30.746   9.037
  247POPC   C1A 7887  23.304  30.760   8.724
  247POPC   D2A 7888  23.446  30.831   8.320
  247POPC   C3A 7889  23.191  30.898   7.956
  247POPC   C4A 7890  23.148  30.823   7.508
  247POPC   C1B 7891  22.875  30.491   8.687
  247POPC   C2B 7892  22.904  30.689   8.335
  247POPC   C3B 7893  22.580  30.668   8.065
  247POPC   C4B 7894  22.696  30.793   7.695
  248POPC   NC3 7895  17.911  37.699   9.454
  248POPC   PO4 7896  18.569  37.871   9.502
  248POPC   GL1 7897  18.518  37.991   9.065
  248POPC   GL2 7898  18.151  38.042   9.112
  248POPC   C1A 7899  18.459  37.866   8.607
  248POPC   D2A 7900  18.203  37.740   8.221
  248POPC   C3A 7901  18.257  37.797   7.754
  248POPC   C4A 7902  18.419  37.929   7.333
  248POPC   C1B 7903  17.943  37.912   8.720
  248POPC   C2B 7904  17.705  37.683   8.407
  248POPC   C3B 7905  17.740  37.640   7.954
  248POPC   C4B 7906  18.049  37.334   7.802
  249POPC   NC3 7907   2.544  14.383   9.504
  249POPC   PO4 7908   3.082  14.582   9.328
  249POPC   GL1 7909   2.845  14.369   9.076
  249POPC   GL2 7910   2.488  14.474   9.004
  249POPC   C1A 7911   2.909  14.538   8.685
  249POPC   D2A 7912   2.650  14.582   8.376
  249POPC   C3A 7913   2.971  14.446   8.104
  249POPC   C4A 7914   3.029  14.463   7.657
  249POPC   C1B 7915   2.552  14.146   8.705
  249POPC   C2B 7916   2.563  14.065   8.264
  249POPC   C3B 7917   2.650  14.174   7.827
  249POPC   C4B 7918   2.740  14.077   7.401
  250POPC   NC3 7919   3.472   4.044   9.278
  250POPC   PO4 7920   3.530   3.402   9.523
  250POPC   GL1 7921   3.370   3.347   9.135
  250POPC   GL2 7922   3.519   3.628   9.018
  250POPC   C1A 7923   3.551   3.235   8.721
  250POPC   D2A 7924   3.656   3.476   8.313
  250POPC   C3A 7925   3.488   3.296   7.937
  250POPC   C4A 7926   3.124   3.163   7.728
  250POPC   C1B 7927   3.468   3.818   8.633
  250POPC   C2B 7928   3.744   4.016   8.378
  250POPC   C3B 7929   3.700   4.084   7.968
  250POPC   C4B 7930   3.499   3.774   7.715
  251POPC   NC3 7931  27.347  20.675   9.705
  251POPC   PO4 7932  26.758  20.479   9.336
  251POPC   GL1 7933  26.863  20.615   8.979
  251POPC   GL2 7934  27.019  20.314   8.862
  251POPC   C1A 7935  26.763  20.612   8.551
  251POPC   D2A 7936  26.475  20.380   8.334
  251POPC   C3A 7937  26.549  20.553   7.970
  251POPC   C4A 7938  26.860  20.764   7.775
  251POPC   C1B 7939  27.231  20.310   8.486
  251POPC   C2B 7940  27.042  20.423   8.127
  251POPC   C3B 7941  26.908  20.212   7.792
  251POPC   C4B 7942  26.980  20.171   7.350
  252POPC   NC3 7943  37.902  22.626   9.476
  252POPC   PO4 7944  37.494  23.017   9.838
  252POPC   GL1 7945  37.561  22.999   9.311
  252POPC   GL2 7946  37.645  22.762   9.055
  252POPC   C1A 7947  37.516  23.203   8.891
  252POPC   D2A 7948  37.713  23.043   8.488
  252POPC   C3A 7949  37.642  22.878   8.060
  252POPC   C4A 7950  37.568  23.081   7.654
  252POPC   C1B 7951  37.596  22.547   8.646
  252POPC   C2B 7952  37.293  22.576   8.296
  252POPC   C3B 7953  37.309  22.552   7.829
  252POPC   C4B 7954  37.668  22.576   7.492
  253POPC   NC3 7955  37.780  44.161   9.439
  253POPC   PO4 7956  37.448  43.458   9.491
  253POPC   GL1 7957  37.581  43.788   9.158
  253POPC   GL2 7958  37.976  43.756   9.120
  253POPC   C1A 7959  37.728  43.736   8.703
  253POPC   D2A 7960  37.967  43.810   8.358
  253POPC   C3A 7961  37.754  43.804   8.000
  253POPC   C4A 7962  37.476  43.515   7.873
  253POPC   C1B 7963  38.050  44.111   8.785
  253POPC   C2B 7964  38.123  44.266   8.338
  253POPC   C3B 7965  38.181  44.048   7.930
  253POPC   C4B 7966  37.881  44.016   7.546
  254POPC   NC3 7967  20.379  16.485   9.363
  254POPC   PO4 7968  20.921  16.844   9.433
  254POPC   GL1 7969  20.691  16.833   9.098
  254POPC   GL2 7970  20.786  16.502   9.010
  254POPC   C1A 7971  20.790  16.950   8.695
  254POPC   D2A 7972  20.496  17.033   8.417
  254POPC   C3A 7973  20.536  16.915   7.986
  254POPC   C4A 7974  20.923  16.881   7.712
  254POPC   C1B 7975  20.460  16.551   8.674
  254POPC   C2B 7976  20.170  16.608   8.300
  254POPC   C3B 7977  20.195  16.388   7.907
  254POPC   C4B 7978  20.559  16.517   7.652
  255POPC   NC3 7979  28.296  43.577   9.513
  255POPC   PO4 7980  28.166  44.229   9.408
  255POPC   GL1 7981  28.178  43.890   9.123
  255POPC   GL2 7982  28.473  44.020   8.947
  255POPC   C1A 7983  28.132  43.721   8.717
  255POPC   D2A 7984  28.399  43.921   8.402
  255POPC   C3A 7985  28.151  43.936   8.040
  255POPC   C4A 7986  28.216  43.829   7.621
  255POPC   C1B 7987  28.105  44.247   8.711
  255POPC   C2B 7988  28.180  44.409   8.260
  255POPC   C3B 7989  28.416  44.342   7.827
  255POPC   C4B 7990  28.287  44.284   7.383
  256POPC   NC3 7991  32.435  20.309   9.534
  256POPC   PO4 7992  31.859  20.657   9.589
  256POPC   GL1 7993  31.994  20.444   9.208
  256POPC   GL2 7994  32.246  20.642   9.188
  256POPC   C1A 7995  32.009  20.438   8.741
  256POPC   D2A 7996  32.301  20.425   8.370
  256POPC   C3A 7997  32.217  20.317   7.940
  256POPC   C4A 7998  32.199  20.355   7.465
  256POPC   C1B 7999  32.434  20.746   8.832
  256POPC   C2B 8000  32.343  20.905   8.468
  256POPC   C3B 8001  32.452  20.794   8.048
  256POPC   C4B 8002  32.124  20.797   7.747
  257POPC   NC3 8003  26.316  23.072   9.439
  257POPC   PO4 8004  26.890  22.727   9.485
  257POPC   GL1 8005  26.746  22.681   9.099
  257POPC   GL2 8006  26.374  22.600   9.108
  257POPC   C1A 8007  26.908  22.948   8.771
  257POPC   D2A 8008  26.697  23.110   8.380
  257POPC   C3A 8009  26.951  23.028   8.003
  257POPC   C4A 8010  27.097  22.671   7.753
  257POPC   C1B 8011  26.403  22.956   8.817
  257POPC   C2B 8012  26.202  23.223   8.537
  257POPC   C3B 8013  26.246  23.185   8.094
  257POPC   C4B 8014  26.524  23.124   7.739
  258POPC   NC3 8015   8.142  44.998   9.391
  258POPC   PO4 8016   8.510   0.492   9.307
  258POPC   GL1 8017   8.115   0.557   9.128
  258POPC   GL2 8018   8.005   0.263   9.002
  258POPC   C1A 8019   8.015   0.667   8.693
  258POPC   D2A 8020   7.967   0.889   8.313
  258POPC   C3A 8021   8.254   0.648   8.096
  258POPC   C4A 8022   8.439   0.680   7.714
  258POPC   C1B 8023   7.755   0.138   8.694
  258POPC   C2B 8024   8.029   0.194   8.409
  258POPC   C3B 8025   8.059   0.077   8.050
  258POPC   C4B 8026   8.076   0.329   7.723
  259POPC   NC3 8027   9.274  12.066   9.564
  259POPC   PO4 8028   8.570  12.284   9.502
  259POPC   GL1 8029   8.767  12.015   9.203
  259POPC   GL2 8030   8.492  11.912   9.010
  259POPC   C1A 8031   8.941  12.062   8.770
  259POPC   D2A 8032   8.839  11.976   8.314
  259POPC   C3A 8033   9.043  12.081   7.902
  259POPC   C4A 8034   8.921  11.936   7.483
  259POPC   C1B 8035   8.457  12.295   8.754
  259POPC   C2B 8036   8.388  12.509   8.345
  259POPC   C3B 8037   8.577  12.296   7.991
  259POPC   C4B 8038   8.611  12.336   7.531
  260POPC   NC3 8039  34.891   8.612   9.678
  260POPC   PO4 8040  34.229   8.900   9.550
  260POPC   GL1 8041  34.427   8.977   9.165
  260POPC   GL2 8042  34.667   8.775   9.232
  260POPC   C1A 8043  34.658   9.182   8.815
  260POPC   D2A 8044  34.839   9.016   8.365
  260POPC   C3A 8045  34.835   9.229   7.949
  260POPC   C4A 8046  34.450   9.303   7.733
  260POPC   C1B 8047  34.664   8.671   8.763
  260POPC   C2B 8048  34.698   8.502   8.323
  260POPC   C3B 8049  34.618   8.760   7.943
  260POPC   C4B 8050  34.398   8.748   7.564
  261POPC   NC3 8051   4.077   4.617   9.533
  261POPC   PO4 8052   4.587   4.119   9.624
  261POPC   GL1 8053   4.349   4.264   9.244
  261POPC   GL2 8054   4.147   4.000   9.120
  261POPC   C1A 8055   4.368   4.480   8.818
  261POPC   D2A 8056   4.514   4.734   8.408
  261POPC   C3A 8057   4.455   4.482   8.001
  261POPC   C4A 8058   4.096   4.332   7.759
  261POPC   C1B 8059   4.368   3.923   8.752
  261POPC   C2B 8060   4.263   4.075   8.344
  261POPC   C3B 8061   4.392   3.934   7.964
  261POPC   C4B 8062   4.444   4.003   7.541
  262POPC   NC3 8063  36.882  18.805   9.671
  262POPC   PO4 8064  37.103  19.343   9.585
  262POPC   GL1 8065  36.854  19.150   9.220
  262POPC   GL2 8066  36.915  18.804   9.164
  262POPC   C1A 8067  36.779  19.298   8.781
  262POPC   D2A 8068  36.543  19.156   8.422
  262POPC   C3A 8069  36.816  19.276   8.083
  262POPC   C4A 8070  36.918  19.307   7.681
  262POPC   C1B 8071  36.627  18.807   8.827
  262POPC   C2B 8072  36.596  18.652   8.372
  262POPC   C3B 8073  36.825  18.751   7.996
  262POPC   C4B 8074  36.838  18.838   7.543
  263POPC   NC3 8075  31.015  27.775   9.409
  263POPC   PO4 8076  30.565  27.379   9.621
  263POPC   GL1 8077  30.630  27.528   9.176
  263POPC   GL2 8078  30.584  27.894   9.128
  263POPC   C1A 8079  30.719  27.454   8.707
  263POPC   D2A 8080  30.577  27.557   8.259
  263POPC   C3A 8081  30.859  27.443   7.911
  263POPC   C4A 8082  31.075  27.353   7.524
  263POPC   C1B 8083  30.305  27.740   8.815
  263POPC   C2B 8084  30.144  27.826   8.396
  263POPC   C3B 8085  30.217  27.840   7.982
  263POPC   C4B 8086  30.398  27.526   7.721
  264POPC   NC3 8087  28.032   7.666   9.624
  264POPC   PO4 8088  28.662   7.353   9.482
  264POPC   GL1 8089  28.448   7.415   9.139
  264POPC   GL2 8090  28.256   7.707   9.156
  264POPC   C1A 8091  28.575   7.564   8.750
  264POPC   D2A 8092  28.430   7.759   8.396
  264POPC   C3A 8093  28.454   7.550   8.021
  264POPC   C4A 8094  28.552   7.722   7.643
  264POPC   C1B 8095  28.063   7.643   8.748
  264POPC   C2B 8096  28.039   7.376   8.367
  264POPC   C3B 8097  27.963   7.381   7.926
  264POPC   C4B 8098  28.081   7.551   7.530
  265POPC   NC3 8099  12.738  37.849   9.515
  265POPC   PO4 8100  13.259  37.317   9.404
  265POPC   GL1 8101  13.004  37.607   9.175
  265POPC   GL2 8102  12.666  37.570   9.117
  265POPC   C1A 8103  12.998  37.813   8.771
  265POPC   D2A 8104  13.137  37.627   8.386
  265POPC   C3A 8105  13.100  37.854   7.999
  265POPC   C4A 8106  12.949  37.714   7.599
  265POPC   C1B 8107  12.670  37.418   8.743
  265POPC   C2B 8108  12.468  37.571   8.412
  265POPC   C3B 8109  12.544  37.665   8.028
  265POPC   C4B 8110  12.486  37.496   7.731
  266POPC   NC3 8111   7.715  24.658   9.469
  266POPC   PO4 8112   7.063  24.376   9.334
  266POPC   GL1 8113   7.475  24.409   9.097
  266POPC   GL2 8114   7.660  24.739   8.981
  266POPC   C1A 8115   7.601  24.313   8.704
  266POPC   D2A 8116   7.641  24.615   8.397
  266POPC   C3A 8117   7.428  24.489   8.022
  266POPC   C4A 8118   7.274  24.196   7.735
  266POPC   C1B 8119   7.235  24.773   8.838
  266POPC   C2B 8120   7.119  24.622   8.458
  266POPC   C3B 8121   7.069  24.850   8.086
  266POPC   C4B 8122   6.958  24.713   7.688
  267POPC   NC3 8123  21.582  10.688   9.513
  267POPC   PO4 8124  21.610  10.154   9.365
  267POPC   GL1 8125  21.588  10.500   9.029
  267POPC   GL2 8126  21.342  10.802   9.074
  267POPC   C1A 8127  21.597  10.547   8.578
  267POPC   D2A 8128  21.259  10.627   8.286
  267POPC   C3A 8129  21.274  10.410   7.898
  267POPC   C4A 8130  21.280  10.093   7.560
  267POPC   C1B 8131  21.627  11.013   8.800
  267POPC   C2B 8132  21.594  11.024   8.356
  267POPC   C3B 8133  21.592  10.849   7.950
  267POPC   C4B 8134  21.621  11.093   7.573
  268POPC   NC3 8135  44.688  31.830   9.526
  268POPC   PO4 8136  44.581  32.527   9.690
  268POPC   GL1 8137  44.572  32.271   9.278
  268POPC   GL2 8138  44.907  32.083   9.156
  268POPC   C1A 8139  44.581  32.278   8.812
  268POPC   D2A 8140  44.524  32.500   8.408
  268POPC   C3A 8141  44.709  32.219   8.122
  268POPC   C4A 8142  44.463  31.945   7.905
  268POPC   C1B 8143  44.823  31.797   8.799
  268POPC   C2B 8144  44.660  31.730   8.369
  268POPC   C3B 8145  44.897  31.681   7.994
  268POPC   C4B 8146   0.104  31.738   7.624
  269POPC   NC3 8147  23.665  29.464   9.540
  269POPC   PO4 8148  23.955  30.184   9.392
  269POPC   GL1 8149  23.721  29.981   9.058
  269POPC   GL2 8150  23.808  29.648   9.091
  269POPC   C1A 8151  23.462  29.728   8.742
  269POPC   D2A 8152  23.323  29.792   8.329
  269POPC   C3A 8153  23.699  29.970   8.154
  269POPC   C4A 8154  23.837  30.116   7.749
  269POPC   C1B 8155  24.081  29.796   8.733
  269POPC   C2B 8156  24.174  29.676   8.304
  269POPC   C3B 8157  24.012  29.631   7.887
  269POPC   C4B 8158  23.584  29.514   7.891
  270POPC   NC3 8159  39.475  10.117   9.427
  270POPC   PO4 8160  38.908   9.691   9.341
  270POPC   GL1 8161  39.128   9.937   9.083
  270POPC   GL2 8162  39.432   9.761   9.055
  270POPC   C1A 8163  39.082   9.874   8.658
  270POPC   D2A 8164  39.085   9.617   8.321
  270POPC   C3A 8165  38.970   9.806   7.965
  270POPC   C4A 8166  38.891   9.645   7.609
  270POPC   C1B 8167  39.559  10.057   8.746
  270POPC   C2B 8168  39.444  10.047   8.303
  270POPC   C3B 8169  39.491   9.705   8.022
  270POPC   C4B 8170  39.384   9.646   7.639
  271POPC   NC3 8171  38.222  19.885   9.458
  271POPC   PO4 8172  38.826  19.805   9.472
  271POPC   GL1 8173  38.552  19.839   9.060
  271POPC   GL2 8174  38.183  19.791   8.963
  271POPC   C1A 8175  38.546  19.722   8.604
  271POPC   D2A 8176  38.494  19.399   8.287
  271POPC   C3A 8177  38.635  19.515   7.890
  271POPC   C4A 8178  38.701  19.894   7.679
  271POPC   C1B 8179  38.094  19.942   8.532
  271POPC   C2B 8180  38.220  19.801   8.122
  271POPC   C3B 8181  38.225  20.078   7.789
  271POPC   C4B 8182  38.005  20.341   7.512
  272POPC   NC3 8183  36.443  39.838   9.373
  272POPC   PO4 8184  35.824  39.873   9.356
  272POPC   GL1 8185  36.045  40.191   9.072
  272POPC   GL2 8186  36.416  40.295   9.102
  272POPC   C1A 8187  35.924  40.126   8.650
  272POPC   D2A 8188  35.878  39.696   8.420
  272POPC   C3A 8189  35.809  39.775   7.984
  272POPC   C4A 8190  35.949  40.126   7.742
  272POPC   C1B 8191  36.432  40.045   8.721
  272POPC   C2B 8192  36.259  40.072   8.283
  272POPC   C3B 8193  36.434  40.164   7.897
  272POPC   C4B 8194  36.371  39.896   7.559
  273POPC   NC3 8195  20.123   5.570   9.464
  273POPC   PO4 8196  19.527   5.784   9.731
  273POPC   GL1 8197  19.632   5.800   9.220
  273POPC   GL2 8198  19.912   5.648   9.026
  273POPC   C1A 8199  19.533   5.695   8.728
  273POPC   D2A 8200  19.836   5.736   8.394
  273POPC   C3A 8201  19.859   5.928   8.003
  273POPC   C4A 8202  19.951   5.556   7.774
  273POPC   C1B 8203  19.867   6.074   8.804
  273POPC   C2B 8204  19.987   6.256   8.387
  273POPC   C3B 8205  20.260   6.306   7.986
  273POPC   C4B 8206  20.122   6.351   7.541
  274POPC   NC3 8207   3.644   5.514   9.446
  274POPC   PO4 8208   3.655   4.819   9.460
  274POPC   GL1 8209   3.739   5.114   9.106
  274POPC   GL2 8210   3.435   5.313   9.037
  274POPC   C1A 8211   3.887   5.365   8.735
  274POPC   D2A 8212   3.772   5.607   8.318
  274POPC   C3A 8213   3.797   5.422   7.940
  274POPC   C4A 8214   3.685   5.071   7.687
  274POPC   C1B 8215   3.414   5.212   8.588
  274POPC   C2B 8216   3.300   5.292   8.163
  274POPC   C3B 8217   3.149   5.092   7.794
  274POPC   C4B 8218   3.206   5.085   7.350
  275POPC   NC3 8219  30.847  13.573   9.570
  275POPC   PO4 8220  30.570  14.146   9.357
  275POPC   GL1 8221  30.682  13.789   9.116
  275POPC   GL2 8222  30.404  13.557   9.074
  275POPC   C1A 8223  30.620  13.759   8.669
  275POPC   D2A 8224  30.789  13.914   8.287
  275POPC   C3A 8225  30.698  13.750   7.876
  275POPC   C4A 8226  31.009  13.697   7.568
  275POPC   C1B 8227  30.495  13.275   8.757
  275POPC   C2B 8228  30.768  13.355   8.388
  275POPC   C3B 8229  30.790  13.253   7.960
  275POPC   C4B 8230  30.715  13.289   7.492
  276POPC   NC3 8231  17.183  38.692   9.450
  276POPC   PO4 8232  17.607  38.064   9.376
  276POPC   GL1 8233  17.691  38.264   9.000
  276POPC   GL2 8234  17.560  38.544   9.077
  276POPC   C1A 8235  17.517  38.220   8.605
  276POPC   D2A 8236  17.358  38.014   8.272
  276POPC   C3A 8237  17.347  38.244   7.981
  276POPC   C4A 8238  17.675  38.469   7.832
  276POPC   C1B 8239  17.415  38.709   8.697
  276POPC   C2B 8240  17.453  38.691   8.269
  276POPC   C3B 8241  17.235  38.720   7.904
  276POPC   C4B 8242  17.151  38.944   7.542
  277POPC   NC3 8243  37.715  14.732   9.633
  277POPC   PO4 8244  37.346  14.223   9.448
  277POPC   GL1 8245  37.585  14.449   9.179
  277POPC   GL2 8246  37.923  14.356   9.307
  277POPC   C1A 8247  37.365  14.522   8.802
  277POPC   D2A 8248  37.528  14.559   8.408
  277POPC   C3A 8249  37.330  14.417   8.079
  277POPC   C4A 8250  37.488  14.519   7.691
  277POPC   C1B 8251  38.080  14.420   8.894
  277POPC   C2B 8252  38.031  14.493   8.450
  277POPC   C3B 8253  37.864  14.403   8.022
  277POPC   C4B 8254  37.999  14.599   7.645
  278POPC   NC3 8255   9.912  31.925   9.607
  278POPC   PO4 8256   9.371  31.417   9.479
  278POPC   GL1 8257   9.674  31.460   9.178
  278POPC   GL2 8258   9.987  31.675   9.138
  278POPC   C1A 8259   9.859  31.308   8.804
  278POPC   D2A 8260  10.009  31.193   8.426
  278POPC   C3A 8261   9.742  31.342   8.114
  278POPC   C4A 8262   9.628  31.136   7.732
  278POPC   C1B 8263   9.672  31.792   8.817
  278POPC   C2B 8264   9.496  31.707   8.427
  278POPC   C3B 8265   9.591  31.856   8.023
  278POPC   C4B 8266   9.478  31.609   7.701
  279POPC   NC3 8267  16.527  17.583   9.528
  279POPC   PO4 8268  16.863  17.109   9.915
  279POPC   GL1 8269  16.972  17.316   9.414
  279POPC   GL2 8270  16.687  17.342   9.138
  279POPC   C1A 8271  17.065  17.569   8.963
  279POPC   D2A 8272  17.107  17.352   8.533
  279POPC   C3A 8273  17.067  17.507   8.101
  279POPC   C4A 8274  16.818  17.652   7.737
  279POPC   C1B 8275  16.546  17.597   8.803
  279POPC   C2B 8276  16.638  17.568   8.394
  279POPC   C3B 8277  16.503  17.427   8.053
  279POPC   C4B 8278  16.379  17.367   7.673
  280POPC   NC3 8279  24.257   4.813   9.668
  280POPC   PO4 8280  23.591   5.107   9.450
  280POPC   GL1 8281  23.766   5.061   9.041
  280POPC   GL2 8282  23.524   4.845   8.936
  280POPC   C1A 8283  23.713   5.263   8.641
  280POPC   D2A 8284  23.772   5.604   8.330
  280POPC   C3A 8285  23.679   5.555   7.914
  280POPC   C4A 8286  23.427   5.197   7.743
  280POPC   C1B 8287  23.648   4.782   8.477
  280POPC   C2B 8288  23.741   5.085   8.148
  280POPC   C3B 8289  23.968   5.172   7.759
  280POPC   C4B 8290  24.040   4.964   7.366
  281POPC   NC3 8291  10.756  21.928   9.524
  281POPC   PO4 8292  10.147  21.939   9.536
  281POPC   GL1 8293  10.384  21.889   9.161
  281POPC   GL2 8294  10.644  22.162   9.079
  281POPC   C1A 8295  10.382  21.916   8.730
  281POPC   D2A 8296  10.503  22.168   8.436
  281POPC   C3A 8297  10.456  21.862   8.091
  281POPC   C4A 8298  10.314  21.922   7.682
  281POPC   C1B 8299  10.908  21.917   8.764
  281POPC   C2B 8300  10.948  21.981   8.290
  281POPC   C3B 8301  10.703  22.279   7.985
  281POPC   C4B 8302  10.829  21.975   7.711
  282POPC   NC3 8303  19.471   5.255   9.665
  282POPC   PO4 8304  20.127   5.014   9.512
  282POPC   GL1 8305  19.919   5.099   9.116
  282POPC   GL2 8306  19.577   4.982   9.191
  282POPC   C1A 8307  19.967   5.269   8.669
  282POPC   D2A 8308  20.205   5.371   8.272
  282POPC   C3A 8309  20.099   5.066   7.947
  282POPC   C4A 8310  19.960   5.105   7.544
  282POPC   C1B 8311  19.524   4.973   8.753
  282POPC   C2B 8312  19.518   5.293   8.409
  282POPC   C3B 8313  19.609   5.214   7.974
  282POPC   C4B 8314  19.479   5.031   7.592
  283POPC   NC3 8315  18.402  17.930   9.792
  283POPC   PO4 8316  18.199  17.573   9.257
  283POPC   GL1 8317  18.496  17.343   9.100
  283POPC   GL2 8318  18.758  17.544   9.108
  283POPC   C1A 8319  18.462  17.368   8.674
  283POPC   D2A 8320  18.197  17.451   8.349
  283POPC   C3A 8321  18.380  17.266   8.000
  283POPC   C4A 8322  18.235  17.342   7.578
  283POPC   C1B 8323  18.805  17.758   8.716
  283POPC   C2B 8324  18.615  17.773   8.335
  283POPC   C3B 8325  18.424  17.789   7.941
  283POPC   C4B 8326  18.386  17.823   7.486
  284POPC   NC3 8327  34.077  41.013   9.486
  284POPC   PO4 8328  33.654  40.514   9.713
  284POPC   GL1 8329  33.695  40.663   9.165
  284POPC   GL2 8330  33.956  40.870   9.027
  284POPC   C1A 8331  33.879  40.491   8.701
  284POPC   D2A 8332  34.118  40.370   8.299
  284POPC   C3A 8333  33.950  40.367   7.840
  284POPC   C4A 8334  33.581  40.504   7.516
  284POPC   C1B 8335  33.871  41.002   8.604
  284POPC   C2B 8336  33.748  40.734   8.271
  284POPC   C3B 8337  33.771  40.832   7.849
  284POPC   C4B 8338  34.014  41.105   7.638
  285POPC   NC3 8339   2.322   9.505   9.578
  285POPC   PO4 8340   2.890   9.807   9.415
  285POPC   GL1 8341   2.671   9.738   9.066
  285POPC   GL2 8342   2.642   9.397   9.157
  285POPC   C1A 8343   2.537   9.884   8.645
  285POPC   D2A 8344   2.334   9.981   8.229
  285POPC   C3A 8345   2.514   9.727   7.873
  285POPC   C4A 8346   2.942   9.763   7.727
  285POPC   C1B 8347   2.877   9.371   8.773
  285POPC   C2B 8348   2.997   9.513   8.379
  285POPC   C3B 8349   3.069   9.350   7.976
  285POPC   C4B 8350   2.752   9.287   7.652
  286POPC   NC3 8351  18.221  31.171   9.563
  286POPC   PO4 8352  18.329  31.861   9.443
  286POPC   GL1 8353  18.111  31.547   9.207
  286POPC   GL2 8354  17.993  31.767   8.946
  286POPC   C1A 8355  18.160  31.261   8.856
  286POPC   D2A 8356  18.227  31.404   8.455
  286POPC   C3A 8357  18.219  31.254   8.057
  286POPC   C4A 8358  17.944  31.344   7.752
  286POPC   C1B 8359  18.439  31.725   8.804
  286POPC   C2B 8360  18.663  31.669   8.397
  286POPC   C3B 8361  18.548  31.632   7.958
  286POPC   C4B 8362  18.760  31.581   7.554
  287POPC   NC3 8363   3.200  27.796   9.528
  287POPC   PO4 8364   3.768  27.372   9.495
  287POPC   GL1 8365   3.480  27.507   9.217
  287POPC   GL2 8366   3.623  27.789   9.144
  287POPC   C1A 8367   3.476  27.446   8.813
  287POPC   D2A 8368   3.799  27.598   8.581
  287POPC   C3A 8369   3.721  27.752   8.224
  287POPC   C4A 8370   3.527  27.543   7.917
  287POPC   C1B 8371   3.598  28.051   8.753
  287POPC   C2B 8372   3.325  28.169   8.421
  287POPC   C3B 8373   3.296  27.981   8.039
  287POPC   C4B 8374   3.461  27.923   7.611
  288POPC   NC3 8375  36.162  22.796   9.471
  288POPC   PO4 8376  36.163  23.486   9.663
  288POPC   GL1 8377  36.237  23.266   9.255
  288POPC   GL2 8378  36.604  23.112   9.261
  288POPC   C1A 8379  36.094  23.269   8.810
  288POPC   D2A 8380  35.825  23.109   8.453
  288POPC   C3A 8381  35.979  22.913   8.058
  288POPC   C4A 8382  36.132  23.040   7.654
  288POPC   C1B 8383  36.510  22.908   8.865
  288POPC   C2B 8384  36.326  22.958   8.459
  288POPC   C3B 8385  36.478  22.876   8.044
  288POPC   C4B 8386  36.346  22.507   7.820
  289POPC   NC3 8387  40.557   8.594   9.380
  289POPC   PO4 8388  41.102   9.033   9.418
  289POPC   GL1 8389  40.915   8.883   9.082
  289POPC   GL2 8390  40.610   9.080   9.146
  289POPC   C1A 8391  40.869   9.112   8.690
  289POPC   D2A 8392  40.567   9.113   8.346
  289POPC   C3A 8393  40.754   9.128   7.940
  289POPC   C4A 8394  41.083   9.073   7.623
  289POPC   C1B 8395  40.447   8.855   8.788
  289POPC   C2B 8396  40.475   8.625   8.457
  289POPC   C3B 8397  40.580   8.650   8.045
  289POPC   C4B 8398  40.682   8.735   7.622
  290POPC   NC3 8399  14.798  23.596   9.472
  290POPC   PO4 8400  15.428  23.967   9.468
  290POPC   GL1 8401  15.263  23.772   9.130
  290POPC   GL2 8402  14.910  23.892   9.074
  290POPC   C1A 8403  15.461  23.673   8.747
  290POPC   D2A 8404  15.629  23.708   8.311
  290POPC   C3A 8405  15.410  23.842   7.966
  290POPC   C4A 8406  15.234  23.605   7.639
  290POPC   C1B 8407  14.957  23.545   8.781
  290POPC   C2B 8408  15.129  23.574   8.366
  290POPC   C3B 8409  14.934  23.731   8.049
  290POPC   C4B 8410  14.828  24.077   7.782
  291POPC   NC3 8411  19.814  33.654   9.648
  291POPC   PO4 8412  19.522  34.156   9.445
  291POPC   GL1 8413  19.741  33.898   9.135
  291POPC   GL2 8414  20.099  33.889   9.096
  291POPC   C1A 8415  19.724  33.933   8.679
  291POPC   D2A 8416  19.826  34.128   8.298
  291POPC   C3A 8417  19.734  33.953   7.865
  291POPC   C4A 8418  19.428  33.706   7.607
  291POPC   C1B 8419  20.179  33.717   8.660
  291POPC   C2B 8420  20.160  33.739   8.191
  291POPC   C3B 8421  20.199  33.666   7.745
  291POPC   C4B 8422  20.369  33.299   7.504
  292POPC   NC3 8423  43.574  36.628   9.376
  292POPC   PO4 8424  43.922  37.243   9.449
  292POPC   GL1 8425  43.889  36.925   9.070
  292POPC   GL2 8426  43.595  36.709   8.888
  292POPC   C1A 8427  44.073  36.848   8.663
  292POPC   D2A 8428  44.048  37.065   8.249
  292POPC   C3A 8429  43.902  36.885   7.832
  292POPC   C4A 8430  44.030  36.966   7.391
  292POPC   C1B 8431  43.585  37.006   8.588
  292POPC   C2B 8432  43.534  36.989   8.174
  292POPC   C3B 8433  43.388  36.848   7.799
  292POPC   C4B 8434  43.587  36.734   7.429
  293POPC   NC3 8435  15.643  10.400   9.402
  293POPC   PO4 8436  16.039  10.737   9.775
  293POPC   GL1 8437  16.094  10.584   9.325
  293POPC   GL2 8438  16.094  10.292   9.164
  293POPC   C1A 8439  16.055  10.648   8.822
  293POPC   D2A 8440  15.935  10.484   8.409
  293POPC   C3A 8441  15.774  10.765   8.070
  293POPC   C4A 8442  16.015  10.856   7.744
  293POPC   C1B 8443  15.936  10.103   8.766
  293POPC   C2B 8444  15.629  10.069   8.387
  293POPC   C3B 8445  15.703  10.284   7.946
  293POPC   C4B 8446  15.704  10.318   7.454
  294POPC   NC3 8447  28.833  22.563   9.355
  294POPC   PO4 8448  29.308  23.024   9.557
  294POPC   GL1 8449  29.190  22.910   9.146
  294POPC   GL2 8450  29.349  22.608   9.135
  294POPC   C1A 8451  29.079  23.123   8.732
  294POPC   D2A 8452  29.248  23.302   8.345
  294POPC   C3A 8453  28.977  23.147   8.013
  294POPC   C4A 8454  29.101  22.967   7.628
  294POPC   C1B 8455  29.185  22.575   8.713
  294POPC   C2B 8456  29.055  22.768   8.336
  294POPC   C3B 8457  28.842  22.646   7.968
  294POPC   C4B 8458  28.824  22.520   7.550
  295POPC   NC3 8459  27.070  27.955   9.543
  295POPC   PO4 8460  26.941  28.659   9.547
  295POPC   GL1 8461  27.007  28.397   9.214
  295POPC   GL2 8462  26.724  28.169   9.228
  295POPC   C1A 8463  26.939  28.360   8.780
  295POPC   D2A 8464  27.078  28.422   8.379
  295POPC   C3A 8465  26.993  28.166   8.025
  295POPC   C4A 8466  27.209  28.290   7.657
  295POPC   C1B 8467  26.629  27.986   8.830
  295POPC   C2B 8468  26.602  28.113   8.398
  295POPC   C3B 8469  26.456  28.144   7.974
  295POPC   C4B 8470  26.672  28.286   7.599
  296POPC   NC3 8471   9.024  36.348   9.443
  296POPC   PO4 8472   8.497  35.865   9.491
  296POPC   GL1 8473   8.767  35.989   9.140
  296POPC   GL2 8474   9.095  35.906   9.058
  296POPC   C1A 8475   8.736  35.783   8.720
  296POPC   D2A 8476   8.854  35.695   8.299
  296POPC   C3A 8477   9.025  36.046   8.130
  296POPC   C4A 8478   8.897  36.074   7.736
  296POPC   C1B 8479   9.064  36.216   8.718
  296POPC   C2B 8480   9.345  36.362   8.383
  296POPC   C3B 8481   9.525  36.304   7.968
  296POPC   C4B 8482   9.321  36.303   7.559
  297POPC   NC3 8483  29.347  30.932   9.454
  297POPC   PO4 8484  29.156  31.678   9.501
  297POPC   GL1 8485  29.217  31.604   9.117
  297POPC   GL2 8486  29.097  31.264   9.141
  297POPC   C1A 8487  29.395  31.749   8.742
  297POPC   D2A 8488  29.185  31.691   8.340
  297POPC   C3A 8489  29.400  31.849   7.999
  297POPC   C4A 8490  29.209  31.691   7.630
  297POPC   C1B 8491  29.084  31.342   8.713
  297POPC   C2B 8492  29.131  31.174   8.326
  297POPC   C3B 8493  29.010  31.340   7.943
  297POPC   C4B 8494  28.846  31.250   7.553
  298POPC   NC3 8495  33.886  42.563   9.548
  298POPC   PO4 8496  33.382  42.073   9.493
  298POPC   GL1 8497  33.653  42.276   9.201
  298POPC   GL2 8498  33.938  42.128   9.050
  298POPC   C1A 8499  33.593  42.425   8.799
  298POPC   D2A 8500  33.405  42.300   8.453
  298POPC   C3A 8501  33.576  42.268   8.107
  298POPC   C4A 8502  33.558  42.423   7.696
  298POPC   C1B 8503  34.069  42.534   8.798
  298POPC   C2B 8504  33.963  42.584   8.354
  298POPC   C3B 8505  34.012  42.412   7.925
  298POPC   C4B 8506  34.168  42.086   7.715
  299POPC   NC3 8507  21.864  14.748   9.552
  299POPC   PO4 8508  22.393  14.284   9.421
  299POPC   GL1 8509  22.068  14.465   9.179
  299POPC   GL2 8510  21.994  14.196   8.941
  299POPC   C1A 8511  21.863  14.658   8.809
  299POPC   D2A 8512  21.798  14.356   8.452
  299POPC   C3A 8513  21.949  14.445   8.026
  299POPC   C4A 8514  22.022  14.601   7.607
  299POPC   C1B 8515  22.345  14.463   8.741
  299POPC   C2B 8516  22.514  14.739   8.403
  299POPC   C3B 8517  22.450  14.625   7.972
  299POPC   C4B 8518  22.344  14.232   7.777
  300POPC   NC3 8519  18.382  19.177   9.469
  300POPC   PO4 8520  17.831  18.877   9.519
  300POPC   GL1 8521  18.131  18.903   9.138
  300POPC   GL2 8522  18.540  18.810   9.135
  300POPC   C1A 8523  18.203  19.194   8.783
  300POPC   D2A 8524  18.226  19.014   8.371
  300POPC   C3A 8525  18.110  19.055   7.938
  300POPC   C4A 8526  18.096  18.696   7.698
  300POPC   C1B 8527  18.706  19.168   8.854
  300POPC   C2B 8528  18.599  19.365   8.475
  300POPC   C3B 8529  18.614  19.183   8.077
  300POPC   C4B 8530  18.579  18.957   7.692
  301POPC   NC3 8531  26.454  24.788   9.343
  301POPC   PO4 8532  25.913  24.389   9.519
  301POPC   GL1 8533  25.834  24.449   9.086
  301POPC   GL2 8534  26.021  24.741   9.066
  301POPC   C1A 8535  25.884  24.521   8.613
  301POPC   D2A 8536  26.205  24.419   8.323
  301POPC   C3A 8537  26.090  24.295   7.898
  301POPC   C4A 8538  26.336  24.036   7.605
  301POPC   C1B 8539  26.250  24.857   8.704
  301POPC   C2B 8540  26.142  24.932   8.300
  301POPC   C3B 8541  26.289  24.765   7.937
  301POPC   C4B 8542  26.456  24.935   7.610
  302POPC   NC3 8543   7.937  27.642   9.629
  302POPC   PO4 8544   8.535  27.371   9.481
  302POPC   GL1 8545   8.245  27.619   9.208
  302POPC   GL2 8546   7.876  27.491   9.149
  302POPC   C1A 8547   8.210  27.782   8.782
  302POPC   D2A 8548   8.246  28.010   8.387
  302POPC   C3A 8549   8.321  27.772   7.999
  302POPC   C4A 8550   8.606  27.460   7.835
  302POPC   C1B 8551   7.946  27.341   8.759
  302POPC   C2B 8552   8.054  27.487   8.356
  302POPC   C3B 8553   8.036  27.314   7.945
  302POPC   C4B 8554   7.968  27.563   7.588
  303POPC   NC3 8555  34.999  27.681   9.744
  303POPC   PO4 8556  35.442  27.347   9.442
  303POPC   GL1 8557  35.310  27.665   9.152
  303POPC   GL2 8558  34.976  27.652   9.170
  303POPC   C1A 8559  35.271  27.750   8.720
  303POPC   D2A 8560  35.369  27.476   8.370
  303POPC   C3A 8561  35.306  27.673   7.965
  303POPC   C4A 8562  35.561  28.030   7.789
  303POPC   C1B 8563  35.117  27.291   8.844
  303POPC   C2B 8564  34.996  27.120   8.428
  303POPC   C3B 8565  35.059  27.208   7.967
  303POPC   C4B 8566  34.993  27.520   7.604
  304POPC   NC3 8567   5.606  15.531   9.656
  304POPC   PO4 8568   4.977  15.856   9.540
  304POPC   GL1 8569   4.989  15.984   9.175
  304POPC   GL2 8570   4.798  16.256   9.190
  304POPC   C1A 8571   5.265  15.924   8.859
  304POPC   D2A 8572   5.294  16.123   8.490
  304POPC   C3A 8573   5.102  15.930   8.155
  304POPC   C4A 8574   5.234  15.774   7.756
  304POPC   C1B 8575   4.904  16.299   8.781
  304POPC   C2B 8576   4.724  16.275   8.384
  304POPC   C3B 8577   4.738  16.257   7.946
  304POPC   C4B 8578   5.147  16.330   7.792
  305POPC   NC3 8579   4.970  23.019   9.622
  305POPC   PO4 8580   5.354  22.520   9.416
  305POPC   GL1 8581   5.070  22.765   9.207
  305POPC   GL2 8582   5.253  23.090   9.190
  305POPC   C1A 8583   4.918  22.791   8.818
  305POPC   D2A 8584   5.098  22.621   8.450
  305POPC   C3A 8585   5.059  22.728   8.044
  305POPC   C4A 8586   5.013  22.923   7.637
  305POPC   C1B 8587   5.087  23.301   8.841
  305POPC   C2B 8588   5.171  23.399   8.435
  305POPC   C3B 8589   5.157  23.236   8.028
  305POPC   C4B 8590   4.869  23.421   7.760
  306POPC   NC3 8591  41.971  30.751   9.521
  306POPC   PO4 8592  42.433  30.319   9.502
  306POPC   GL1 8593  42.360  30.401   9.089
  306POPC   GL2 8594  42.271  30.750   9.094
  306POPC   C1A 8595  42.582  30.484   8.706
  306POPC   D2A 8596  42.747  30.631   8.303
  306POPC   C3A 8597  42.597  30.475   7.907
  306POPC   C4A 8598  42.186  30.531   7.665
  306POPC   C1B 8599  42.063  30.650   8.693
  306POPC   C2B 8600  42.184  30.673   8.261
  306POPC   C3B 8601  42.329  30.931   7.945
  306POPC   C4B 8602  42.190  31.064   7.548
  307POPC   NC3 8603  44.738  28.516   9.429
  307POPC   PO4 8604  44.110  28.347   9.538
  307POPC   GL1 8605  44.349  28.274   9.145
  307POPC   GL2 8606  44.702  28.087   9.146
  307POPC   C1A 8607  44.469  28.539   8.807
  307POPC   D2A 8608  44.758  28.692   8.511
  307POPC   C3A 8609  44.690  28.566   8.123
  307POPC   C4A 8610  44.771  28.435   7.748
  307POPC   C1B 8611  44.795  28.121   8.720
  307POPC   C2B 8612  44.494  28.181   8.389
  307POPC   C3B 8613  44.443  28.085   7.953
  307POPC   C4B 8614  44.783  27.916   7.749
  308POPC   NC3 8615  26.364  35.429   9.509
  308POPC   PO4 8616  27.040  35.310   9.463
  308POPC   GL1 8617  26.741  35.230   9.124
  308POPC   GL2 8618  26.539  35.539   9.054
  308POPC   C1A 8619  26.909  35.072   8.725
  308POPC   D2A 8620  27.146  35.267   8.399
  308POPC   C3A 8621  27.129  35.123   7.973
  308POPC   C4A 8622  27.138  35.344   7.599
  308POPC   C1B 8623  26.635  35.495   8.637
  308POPC   C2B 8624  26.635  35.219   8.305
  308POPC   C3B 8625  26.775  35.489   8.023
  308POPC   C4B 8626  26.683  35.557   7.627
  309POPC   NC3 8627  27.422   4.171   9.492
  309POPC   PO4 8628  27.454   4.731   9.226
  309POPC   GL1 8629  27.749   4.388   9.107
  309POPC   GL2 8630  27.640   4.013   9.057
  309POPC   C1A 8631  27.649   4.329   8.667
  309POPC   D2A 8632  27.339   4.311   8.327
  309POPC   C3A 8633  27.627   4.153   8.024
  309POPC   C4A 8634  27.861   4.207   7.629
  309POPC   C1B 8635  27.254   3.974   8.783
  309POPC   C2B 8636  27.062   3.874   8.364
  309POPC   C3B 8637  27.140   3.929   7.897
  309POPC   C4B 8638  27.352   4.198   7.599
  310POPC   NC3 8639  44.983  23.620   9.881
  310POPC   PO4 8640   0.439  24.046   9.560
  310POPC   GL1 8641   0.387  23.795   9.226
  310POPC   GL2 8642   0.049  23.797   9.191
  310POPC   C1A 8643   0.560  23.806   8.816
  310POPC   D2A 8644   0.591  23.885   8.377
  310POPC   C3A 8645   0.611  23.524   8.126
  310POPC   C4A 8646   0.563  23.558   7.718
  310POPC   C1B 8647   0.072  23.614   8.779
  310POPC   C2B 8648   0.151  23.453   8.364
  310POPC   C3B 8649   0.116  23.683   7.985
  310POPC   C4B 8650   0.067  23.549   7.556
  311POPC   NC3 8651  42.404  37.272   9.810
  311POPC   PO4 8652  42.098  37.752   9.501
  311POPC   GL1 8653  42.458  37.625   9.283
  311POPC   GL2 8654  42.341  37.311   9.282
  311POPC   C1A 8655  42.579  37.845   8.913
  311POPC   D2A 8656  42.428  37.949   8.542
  311POPC   C3A 8657  42.426  37.820   8.130
  311POPC   C4A 8658  42.383  37.813   7.700
  311POPC   C1B 8659  42.334  37.407   8.849
  311POPC   C2B 8660  42.215  37.496   8.466
  311POPC   C3B 8661  42.113  37.389   8.070
  311POPC   C4B 8662  42.321  37.323   7.681
  312POPC   NC3 8663   8.326  24.253   9.415
  312POPC   PO4 8664   8.272  24.831   9.496
  312POPC   GL1 8665   8.320  24.702   9.110
  312POPC   GL2 8666   8.647  24.839   9.124
  312POPC   C1A 8667   8.076  24.497   8.802
  312POPC   D2A 8668   8.039  24.276   8.412
  312POPC   C3A 8669   7.958  24.474   8.004
  312POPC   C4A 8670   7.956  24.145   7.710
  312POPC   C1B 8671   8.662  24.617   8.729
  312POPC   C2B 8672   8.357  24.699   8.434
  312POPC   C3B 8673   8.378  24.767   8.053
  312POPC   C4B 8674   8.547  24.777   7.689
  313POPC   NC3 8675  34.982  19.919   9.560
  313POPC   PO4 8676  35.497  19.551   9.515
  313POPC   GL1 8677  35.448  19.757   9.161
  313POPC   GL2 8678  35.112  19.593   9.115
  313POPC   C1A 8679  35.750  19.879   8.814
  313POPC   D2A 8680  35.564  20.064   8.452
  313POPC   C3A 8681  35.525  19.808   8.082
  313POPC   C4A 8682  35.353  19.936   7.699
  313POPC   C1B 8683  34.985  19.757   8.693
  313POPC   C2B 8684  35.072  19.944   8.275
  313POPC   C3B 8685  34.868  19.919   7.870
  313POPC   C4B 8686  34.892  19.958   7.430
  314POPC   NC3 8687   4.980  15.467   9.299
  314POPC   PO4 8688   5.431  15.037   9.522
  314POPC   GL1 8689   5.224  14.942   9.149
  314POPC   GL2 8690   5.521  14.738   9.065
  314POPC   C1A 8691   4.955  15.080   8.770
  314POPC   D2A 8692   4.738  15.293   8.422
  314POPC   C3A 8693   4.998  15.417   8.073
  314POPC   C4A 8694   5.060  15.250   7.691
  314POPC   C1B 8695   5.467  15.050   8.740
  314POPC   C2B 8696   5.307  15.180   8.377
  314POPC   C3B 8697   5.443  15.031   7.983
  314POPC   C4B 8698   5.404  14.792   7.629
  315POPC   NC3 8699   5.406  12.261   9.477
  315POPC   PO4 8700   5.063  11.749   9.651
  315POPC   GL1 8701   5.126  11.880   9.227
  315POPC   GL2 8702   5.178  12.177   9.040
  315POPC   C1A 8703   4.917  11.705   8.879
  315POPC   D2A 8704   5.010  11.524   8.488
  315POPC   C3A 8705   5.055  11.820   8.167
  315POPC   C4A 8706   4.774  11.898   7.836
  315POPC   C1B 8707   5.278  12.422   8.697
  315POPC   C2B 8708   5.089  12.358   8.328
  315POPC   C3B 8709   5.174  12.270   7.921
  315POPC   C4B 8710   5.155  12.197   7.514
  316POPC   NC3 8711  37.067  13.908   9.258
  316POPC   PO4 8712  37.572  13.420   9.464
  316POPC   GL1 8713  37.433  13.572   9.097
  316POPC   GL2 8714  37.597  13.912   9.131
  316POPC   C1A 8715  37.623  13.632   8.699
  316POPC   D2A 8716  37.916  13.574   8.389
  316POPC   C3A 8717  37.739  13.532   7.992
  316POPC   C4A 8718  37.985  13.359   7.684
  316POPC   C1B 8719  37.682  14.139   8.743
  316POPC   C2B 8720  37.669  14.053   8.315
  316POPC   C3B 8721  37.517  13.987   7.883
  316POPC   C4B 8722  37.646  13.729   7.504
  317POPC   NC3 8723  10.161   1.193   9.456
  317POPC   PO4 8724  10.897   1.252   9.529
  317POPC   GL1 8725  10.629   1.197   9.092
  317POPC   GL2 8726  10.288   1.346   8.997
  317POPC   C1A 8727  10.596   1.357   8.613
  317POPC   D2A 8728  10.290   1.392   8.249
  317POPC   C3A 8729  10.502   1.193   7.891
  317POPC   C4A 8730  10.674   1.326   7.468
  317POPC   C1B 8731  10.291   0.948   8.741
  317POPC   C2B 8732  10.296   0.870   8.280
  317POPC   C3B 8733  10.097   0.893   7.832
  317POPC   C4B 8734  10.232   1.099   7.440
  318POPC   NC3 8735  35.816  17.345   9.312
  318POPC   PO4 8736  35.405  17.868   9.336
  318POPC   GL1 8737  35.337  17.480   9.162
  318POPC   GL2 8738  35.038  17.322   9.194
  318POPC   C1A 8739  35.434  17.413   8.754
  318POPC   D2A 8740  35.389  17.712   8.407
  318POPC   C3A 8741  35.383  17.575   7.971
  318POPC   C4A 8742  35.732  17.641   7.693
  318POPC   C1B 8743  34.974  17.212   8.796
  318POPC   C2B 8744  34.995  17.389   8.404
  318POPC   C3B 8745  34.850  17.329   8.010
  318POPC   C4B 8746  34.970  17.283   7.602
  319POPC   NC3 8747  19.411  22.913   9.443
  319POPC   PO4 8748  18.760  22.863   9.494
  319POPC   GL1 8749  18.986  22.877   9.141
  319POPC   GL2 8750  18.700  22.756   8.990
  319POPC   C1A 8751  19.083  23.005   8.720
  319POPC   D2A 8752  18.839  22.805   8.377
  319POPC   C3A 8753  19.005  22.918   7.963
  319POPC   C4A 8754  19.117  22.798   7.531
  319POPC   C1B 8755  18.590  23.123   8.766
  319POPC   C2B 8756  18.511  23.289   8.352
  319POPC   C3B 8757  18.709  23.354   7.960
  319POPC   C4B 8758  18.720  23.106   7.584
  320POPC   NC3 8759   1.205   3.992   9.398
  320POPC   PO4 8760   0.739   3.570   9.444
  320POPC   GL1 8761   1.055   3.449   9.122
  320POPC   GL2 8762   1.405   3.602   9.110
  320POPC   C1A 8763   1.084   3.626   8.691
  320POPC   D2A 8764   0.808   3.755   8.319
  320POPC   C3A 8765   0.956   3.640   7.883
  320POPC   C4A 8766   1.247   3.774   7.509
  320POPC   C1B 8767   1.593   3.697   8.700
  320POPC   C2B 8768   1.421   3.481   8.346
  320POPC   C3B 8769   1.464   3.616   7.946
  320POPC   C4B 8770   1.595   3.406   7.587
  321POPC   NC3 8771  37.516  18.034   9.618
  321POPC   PO4 8772  37.699  17.383   9.575
  321POPC   GL1 8773  37.529  17.559   9.151
  321POPC   GL2 8774  37.858  17.509   9.036
  321POPC   C1A 8775  37.531  17.574   8.651
  321POPC   D2A 8776  37.836  17.512   8.272
  321POPC   C3A 8777  37.605  17.578   7.885
  321POPC   C4A 8778  37.176  17.479   7.955
  321POPC   C1B 8779  37.916  17.180   8.730
  321POPC   C2B 8780  38.068  17.035   8.320
  321POPC   C3B 8781  38.189  17.275   7.922
  321POPC   C4B 8782  38.045  17.584   7.596
  322POPC   NC3 8783  26.013  41.170   9.508
  322POPC   PO4 8784  26.173  41.801   9.565
  322POPC   GL1 8785  26.133  41.592   9.227
  322POPC   GL2 8786  25.849  41.760   9.143
  322POPC   C1A 8787  26.109  41.337   8.859
  322POPC   D2A 8788  25.986  41.436   8.430
  322POPC   C3A 8789  26.208  41.727   8.147
  322POPC   C4A 8790  26.357  41.581   7.747
  322POPC   C1B 8791  26.040  41.828   8.757
  322POPC   C2B 8792  25.785  41.892   8.417
  322POPC   C3B 8793  25.701  41.797   8.024
  322POPC   C4B 8794  25.919  41.917   7.678
  323POPC   NC3 8795   4.566   5.551   9.174
  323POPC   PO4 8796   4.022   5.843   9.520
  323POPC   GL1 8797   4.005   5.855   9.082
  323POPC   GL2 8798   4.350   5.998   9.024
  323POPC   C1A 8799   4.113   5.823   8.628
  323POPC   D2A 8800   4.455   5.698   8.351
  323POPC   C3A 8801   4.303   5.607   7.959
  323POPC   C4A 8802   4.048   5.934   7.961
  323POPC   C1B 8803   4.598   6.223   8.730
  323POPC   C2B 8804   4.543   6.308   8.293
  323POPC   C3B 8805   4.596   6.034   7.925
  323POPC   C4B 8806   4.348   5.985   7.553
  324POPC   NC3 8807  10.429  35.742   9.423
  324POPC   PO4 8808  10.190  36.337   9.559
  324POPC   GL1 8809  10.477  36.245   9.197
  324POPC   GL2 8810  10.751  36.477   9.170
  324POPC   C1A 8811  10.562  36.002   8.807
  324POPC   D2A 8812  10.252  35.753   8.556
  324POPC   C3A 8813  10.304  35.853   8.121
  324POPC   C4A 8814  10.431  35.842   7.696
  324POPC   C1B 8815  10.605  36.524   8.735
  324POPC   C2B 8816  10.443  36.303   8.369
  324POPC   C3B 8817  10.609  36.302   7.959
  324POPC   C4B 8818  10.883  36.178   7.640
  325POPC   NC3 8819  44.130  24.819   9.552
  325POPC   PO4 8820  43.829  24.183   9.498
  325POPC   GL1 8821  43.810  24.493   9.240
  325POPC   GL2 8822  44.150  24.498   9.132
  325POPC   C1A 8823  43.690  24.452   8.827
  325POPC   D2A 8824  43.608  24.579   8.434
  325POPC   C3A 8825  43.889  24.414   8.137
  325POPC   C4A 8826  43.827  24.458   7.702
  325POPC   C1B 8827  44.096  24.758   8.769
  325POPC   C2B 8828  44.028  24.889   8.343
  325POPC   C3B 8829  44.123  24.822   7.902
  325POPC   C4B 8830  44.048  24.855   7.466
  326POPC   NC3 8831   6.565  13.409   9.568
  326POPC   PO4 8832   6.822  14.069   9.500
  326POPC   GL1 8833   6.609  13.780   9.187
  326POPC   GL2 8834   6.378  13.473   9.110
  326POPC   C1A 8835   6.769  13.577   8.801
  326POPC   D2A 8836   6.876  13.770   8.416
  326POPC   C3A 8837   6.828  13.564   8.001
  326POPC   C4A 8838   6.894  13.671   7.539
  326POPC   C1B 8839   6.261  13.627   8.713
  326POPC   C2B 8840   6.396  13.546   8.283
  326POPC   C3B 8841   6.388  13.837   7.898
  326POPC   C4B 8842   6.467  13.938   7.433
  327POPC   NC3 8843   6.445  11.696   9.498
  327POPC   PO4 8844   6.519  12.332   9.708
  327POPC   GL1 8845   6.450  12.223   9.248
  327POPC   GL2 8846   6.565  12.486   9.058
  327POPC   C1A 8847   6.527  12.071   8.773
  327POPC   D2A 8848   6.541  11.762   8.407
  327POPC   C3A 8849   6.650  11.917   8.011
  327POPC   C4A 8850   6.454  11.942   7.618
  327POPC   C1B 8851   6.638  12.627   8.624
  327POPC   C2B 8852   6.657  12.413   8.199
  327POPC   C3B 8853   6.452  12.484   7.778
  327POPC   C4B 8854   6.331  12.496   7.331
  328POPC   NC3 8855  36.473  37.490   9.636
  328POPC   PO4 8856  37.015  37.917   9.599
  328POPC   GL1 8857  36.867  37.585   9.323
  328POPC   GL2 8858  37.179  37.599   9.192
  328POPC   C1A 8859  36.773  37.584   8.868
  328POPC   D2A 8860  36.649  37.959   8.628
  328POPC   C3A 8861  36.902  38.004   8.249
  328POPC   C4A 8862  36.880  37.808   7.834
  328POPC   C1B 8863  37.274  37.446   8.787
  328POPC   C2B 8864  37.089  37.509   8.377
  328POPC   C3B 8865  37.235  37.439   7.953
  328POPC   C4B 8866  37.414  37.794   7.799
  329POPC   NC3 8867  28.815  29.472   9.380
  329POPC   PO4 8868  29.496  29.546   9.515
  329POPC   GL1 8869  29.459  29.758   9.111
  329POPC   GL2 8870  29.448  30.112   9.036
  329POPC   C1A 8871  29.206  29.825   8.716
  329POPC   D2A 8872  29.258  30.054   8.330
  329POPC   C3A 8873  28.945  29.867   8.078
  329POPC   C4A 8874  28.745  29.873   7.726
  329POPC   C1B 8875  29.673  30.020   8.667
  329POPC   C2B 8876  29.689  29.769   8.285
  329POPC   C3B 8877  29.415  29.811   7.893
  329POPC   C4B 8878  29.499  30.039   7.510
  330POPC   NC3 8879  13.314   9.842   9.335
  330POPC   PO4 8880  12.703   9.726   9.590
  330POPC   GL1 8881  12.830   9.866   9.172
  330POPC   GL2 8882  12.755   9.559   9.092
  330POPC   C1A 8883  12.999   9.796   8.717
  330POPC   D2A 8884  13.003   9.669   8.291
  330POPC   C3A 8885  13.135   9.894   7.941
  330POPC   C4A 8886  12.839   9.818   7.648
  330POPC   C1B 8887  12.517   9.562   8.749
  330POPC   C2B 8888  12.559   9.393   8.358
  330POPC   C3B 8889  12.496   9.593   7.980
  330POPC   C4B 8890  12.554   9.382   7.622
  331POPC   NC3 8891  33.814  11.594   9.757
  331POPC   PO4 8892  33.932  12.229   9.509
  331POPC   GL1 8893  33.886  12.225   9.116
  331POPC   GL2 8894  33.784  11.899   9.133
  331POPC   C1A 8895  34.035  12.144   8.702
  331POPC   D2A 8896  33.873  12.351   8.345
  331POPC   C3A 8897  34.121  12.289   7.994
  331POPC   C4A 8898  34.117  11.999   7.694
  331POPC   C1B 8899  33.551  12.033   8.762
  331POPC   C2B 8900  33.643  11.884   8.349
  331POPC   C3B 8901  33.660  12.024   7.925
  331POPC   C4B 8902  33.695  11.817   7.490
  332POPC   NC3 8903   5.755   3.325   9.558
  332POPC   PO4 8904   6.052   3.906   9.445
  332POPC   GL1 8905   5.969   3.591   9.179
  332POPC   GL2 8906   5.614   3.606   9.111
  332POPC   C1A 8907   5.988   3.641   8.768
  332POPC   D2A 8908   5.996   3.714   8.363
  332POPC   C3A 8909   6.309   3.527   8.132
  332POPC   C4A 8910   6.203   3.388   7.712
  332POPC   C1B 8911   5.514   3.756   8.653
  332POPC   C2B 8912   5.514   3.746   8.177
  332POPC   C3B 8913   5.757   3.692   7.776
  332POPC   C4B 8914   5.614   3.595   7.331
  333POPC   NC3 8915   8.588  30.357   9.543
  333POPC   PO4 8916   8.131  29.914   9.619
  333POPC   GL1 8917   8.229  29.944   9.186
  333POPC   GL2 8918   8.135  29.627   9.105
  333POPC   C1A 8919   8.360  29.878   8.727
  333POPC   D2A 8920   8.453  30.065   8.312
  333POPC   C3A 8921   8.348  29.840   7.922
  333POPC   C4A 8922   8.388  29.927   7.471
  333POPC   C1B 8923   7.879  29.457   8.791
  333POPC   C2B 8924   8.071  29.561   8.418
  333POPC   C3B 8925   7.934  29.572   8.040
  333POPC   C4B 8926   8.080  29.485   7.658
  334POPC   NC3 8927  36.308  29.763   9.633
  334POPC   PO4 8928  35.878  30.294   9.606
  334POPC   GL1 8929  36.068  30.019   9.259
  334POPC   GL2 8930  35.917  29.661   9.255
  334POPC   C1A 8931  36.179  29.797   8.845
  334POPC   D2A 8932  36.047  29.765   8.441
  334POPC   C3A 8933  36.126  30.041   8.087
  334POPC   C4A 8934  36.329  30.025   7.664
  334POPC   C1B 8935  35.686  29.605   8.824
  334POPC   C2B 8936  35.565  29.588   8.364
  334POPC   C3B 8937  35.833  29.543   8.041
  334POPC   C4B 8938  35.970  29.682   7.687
  335POPC   NC3 8939  39.548  38.524   9.544
  335POPC   PO4 8940  38.955  38.311   9.575
  335POPC   GL1 8941  39.246  38.271   9.207
  335POPC   GL2 8942  39.286  38.616   9.102
  335POPC   C1A 8943  39.119  38.243   8.774
  335POPC   D2A 8944  39.159  38.489   8.388
  335POPC   C3A 8945  39.028  38.293   8.017
  335POPC   C4A 8946  39.227  38.247   7.623
  335POPC   C1B 8947  39.321  38.930   8.747
  335POPC   C2B 8948  39.117  39.040   8.382
  335POPC   C3B 8949  38.956  38.845   8.053
  335POPC   C4B 8950  38.848  38.675   7.685
  336POPC   NC3 8951  12.783  19.157   9.481
  336POPC   PO4 8952  12.850  18.534   9.316
  336POPC   GL1 8953  12.850  18.928   9.042
  336POPC   GL2 8954  12.589  19.246   9.035
  336POPC   C1A 8955  13.041  19.246   8.790
  336POPC   D2A 8956  13.124  19.131   8.383
  336POPC   C3A 8957  12.907  19.171   8.001
  336POPC   C4A 8958  12.763  18.814   7.744
  336POPC   C1B 8959  12.577  19.108   8.626
  336POPC   C2B 8960  12.569  19.387   8.315
  336POPC   C3B 8961  12.535  19.533   7.886
  336POPC   C4B 8962  12.734  19.297   7.547
  337POPC   NC3 8963  35.588  43.331   9.448
  337POPC   PO4 8964  35.157  42.867   9.498
  337POPC   GL1 8965  35.309  43.053   9.140
  337POPC   GL2 8966  35.173  43.397   9.136
  337POPC   C1A 8967  35.273  43.096   8.706
  337POPC   D2A 8968  35.598  43.154   8.400
  337POPC   C3A 8969  35.502  42.895   8.063
  337POPC   C4A 8970  35.241  42.932   7.718
  337POPC   C1B 8971  35.428  43.598   8.819
  337POPC   C2B 8972  35.289  43.635   8.396
  337POPC   C3B 8973  35.259  43.357   8.030
  337POPC   C4B 8974  35.656  43.258   7.773
  338POPC   NC3 8975  32.533   3.561   9.461
  338POPC   PO4 8976  31.900   3.451   9.302
  338POPC   GL1 8977  31.995   3.574   8.971
  338POPC   GL2 8978  32.289   3.768   9.052
  338POPC   C1A 8979  32.018   3.730   8.586
  338POPC   D2A 8980  32.083   3.757   8.190
  338POPC   C3A 8981  31.824   3.446   8.056
  338POPC   C4A 8982  31.859   3.537   7.664
  338POPC   C1B 8983  32.444   3.473   8.757
  338POPC   C2B 8984  32.346   3.363   8.345
  338POPC   C3B 8985  32.326   3.418   7.882
  338POPC   C4B 8986  32.527   3.640   7.538
  339POPC   NC3 8987  35.652  35.950   9.396
  339POPC   PO4 8988  35.068  36.219   9.410
  339POPC   GL1 8989  35.056  35.907   9.081
  339POPC   GL2 8990  35.389  35.902   8.983
  339POPC   C1A 8991  35.037  35.976   8.626
  339POPC   D2A 8992  35.172  35.790   8.248
  339POPC   C3A 8993  35.246  36.013   7.898
  339POPC   C4A 8994  35.126  36.312   7.611
  339POPC   C1B 8995  35.616  36.195   8.772
  339POPC   C2B 8996  35.496  36.178   8.382
  339POPC   C3B 8997  35.668  36.257   8.036
  339POPC   C4B 8998  35.721  35.949   7.749
  340POPC   NC3 8999  10.625  43.486   9.537
  340POPC   PO4 9000  10.729  44.146   9.426
  340POPC   GL1 9001  10.517  43.906   9.118
  340POPC   GL2 9002  10.362  43.573   9.111
  340POPC   C1A 9003  10.453  43.903   8.698
  340POPC   D2A 9004  10.420  43.671   8.350
  340POPC   C3A 9005  10.573  43.930   8.021
  340POPC   C4A 9006  10.834  44.116   7.719
  340POPC   C1B 9007  10.058  43.602   8.759
  340POPC   C2B 9008   9.970  43.928   8.431
  340POPC   C3B 9009  10.063  43.863   8.001
  340POPC   C4B 9010  10.344  43.498   7.876
  341POPC   NC3 9011  40.405  34.648   9.505
  341POPC   PO4 9012  39.828  34.259   9.461
  341POPC   GL1 9013  39.821  34.517   9.080
  341POPC   GL2 9014  40.056  34.785   9.133
  341POPC   C1A 9015  39.901  34.515   8.651
  341POPC   D2A 9016  39.772  34.491   8.224
  341POPC   C3A 9017  40.046  34.203   7.976
  341POPC   C4A 9018  40.206  34.211   7.547
  341POPC   C1B 9019  40.289  34.838   8.718
  341POPC   C2B 9020  40.279  34.593   8.313
  341POPC   C3B 9021  40.368  34.626   7.871
  341POPC   C4B 9022  40.354  34.690   7.434
  342POPC   NC3 9023   9.447  24.804   9.660
  342POPC   PO4 9024   9.738  25.408   9.484
  342POPC   GL1 9025   9.528  25.119   9.237
  342POPC   GL2 9026   9.812  25.037   9.067
  342POPC   C1A 9027   9.427  25.248   8.809
  342POPC   D2A 9028   9.726  25.444   8.523
  342POPC   C3A 9029   9.661  25.321   8.081
  342POPC   C4A 9030   9.724  25.369   7.634
  342POPC   C1B 9031   9.837  24.961   8.641
  342POPC   C2B 9032   9.745  24.853   8.226
  342POPC   C3B 9033  10.006  24.904   7.866
  342POPC   C4B 9034  10.309  25.111   7.556
  343POPC   NC3 9035  27.725  19.088   9.546
  343POPC   PO4 9036  27.091  18.889   9.732
  343POPC   GL1 9037  27.283  18.921   9.292
  343POPC   GL2 9038  27.462  19.215   9.127
  343POPC   C1A 9039  27.372  18.819   8.844
  343POPC   D2A 9040  27.537  19.035   8.497
  343POPC   C3A 9041  27.533  18.846   8.107
  343POPC   C4A 9042  27.287  18.950   7.771
  343POPC   C1B 9043  27.302  19.433   8.739
  343POPC   C2B 9044  27.170  19.566   8.331
  343POPC   C3B 9045  27.342  19.447   7.919
  343POPC   C4B 9046  27.282  19.367   7.466
  344POPC   NC3 9047  33.359  38.021   9.528
  344POPC   PO4 9048  32.728  37.745   9.437
  344POPC   GL1 9049  32.941  37.604   9.091
  344POPC   GL2 9050  33.244  37.753   9.100
  344POPC   C1A 9051  32.880  37.703   8.668
  344POPC   D2A 9052  33.048  37.708   8.267
  344POPC   C3A 9053  32.804  37.756   7.877
  344POPC   C4A 9054  32.898  37.473   7.498
  344POPC   C1B 9055  33.396  37.827   8.700
  344POPC   C2B 9056  33.447  38.030   8.305
  344POPC   C3B 9057  33.475  37.998   7.862
  344POPC   C4B 9058  33.130  37.965   7.556
  345POPC   NC3 9059  21.586   1.765   9.500
  345POPC   PO4 9060  22.132   2.076   9.514
  345POPC   GL1 9061  22.178   2.162   9.092
  345POPC   GL2 9062  21.948   1.938   8.999
  345POPC   C1A 9063  22.375   2.045   8.685
  345POPC   D2A 9064  22.190   1.989   8.266
  345POPC   C3A 9065  22.383   2.045   7.863
  345POPC   C4A 9066  22.540   1.766   7.510
  345POPC   C1B 9067  21.911   2.245   8.652
  345POPC   C2B 9068  21.729   2.217   8.250
  345POPC   C3B 9069  21.839   2.068   7.859
  345POPC   C4B 9070  21.788   1.713   7.557
  346POPC   NC3 9071  37.620  25.504   9.674
  346POPC   PO4 9072  37.415  24.828   9.670
  346POPC   GL1 9073  37.627  25.091   9.284
  346POPC   GL2 9074  37.633  25.479   9.168
  346POPC   C1A 9075  37.854  25.128   8.851
  346POPC   D2A 9076  37.726  25.302   8.445
  346POPC   C3A 9077  37.820  25.102   8.027
  346POPC   C4A 9078  37.700  25.007   7.612
  346POPC   C1B 9079  37.341  25.461   8.810
  346POPC   C2B 9080  37.302  25.659   8.407
  346POPC   C3B 9081  37.402  25.424   8.072
  346POPC   C4B 9082  37.627  25.491   7.732
  347POPC   NC3 9083  27.698  33.297   9.524
  347POPC   PO4 9084  27.137  32.922   9.590
  347POPC   GL1 9085  27.397  33.001   9.222
  347POPC   GL2 9086  27.417  33.349   9.106
  347POPC   C1A 9087  27.624  32.909   8.841
  347POPC   D2A 9088  27.591  32.752   8.419
  347POPC   C3A 9089  27.670  32.994   8.046
  347POPC   C4A 9090  27.562  32.984   7.618
  347POPC   C1B 9091  27.243  33.269   8.711
  347POPC   C2B 9092  27.174  33.114   8.300
  347POPC   C3B 9093  27.222  33.295   7.901
  347POPC   C4B 9094  27.217  33.629   7.602
  348POPC   NC3 9095  15.661  20.461   9.235
  348POPC   PO4 9096  16.219  20.803   9.365
  348POPC   GL1 9097  16.026  20.717   8.961
  348POPC   GL2 9098  15.710  20.922   8.956
  348POPC   C1A 9099  15.872  20.404   8.637
  348POPC   D2A 9100  15.794  20.279   8.210
  348POPC   C3A 9101  15.961  20.480   7.820
  348POPC   C4A 9102  16.034  20.645   7.389
  348POPC   C1B 9103  15.466  20.739   8.586
  348POPC   C2B 9104  15.470  20.717   8.122
  348POPC   C3B 9105  15.610  20.825   7.672
  348POPC   C4B 9106  15.503  20.757   7.204
  349POPC   NC3 9107   1.601  19.868   9.510
  349POPC   PO4 9108   0.924  19.960   9.545
  349POPC   GL1 9109   1.191  19.841   9.181
  349POPC   GL2 9110   1.371  20.151   9.101
  349POPC   C1A 9111   1.456  19.737   8.795
  349POPC   D2A 9112   1.526  19.695   8.327
  349POPC   C3A 9113   1.151  19.558   8.106
  349POPC   C4A 9114   0.909  19.725   7.768
  349POPC   C1B 9115   0.989  20.145   8.813
  349POPC   C2B 9116   0.899  20.181   8.361
  349POPC   C3B 9117   1.190  20.085   8.007
  349POPC   C4B 9118   1.498  19.775   7.794
  350POPC   NC3 9119  33.451  40.888   9.558
  350POPC   PO4 9120  32.984  40.490   9.405
  350POPC   GL1 9121  33.200  40.657   9.087
  350POPC   GL2 9122  32.963  40.858   8.913
  350POPC   C1A 9123  33.431  40.752   8.727
  350POPC   D2A 9124  33.232  40.616   8.380
  350POPC   C3A 9125  32.919  40.910   8.185
  350POPC   C4A 9126  33.029  41.115   7.795
  350POPC   C1B 9127  32.615  40.824   8.612
  350POPC   C2B 9128  32.409  41.016   8.254
  350POPC   C3B 9129  32.533  41.081   7.840
  350POPC   C4B 9130  32.699  41.007   7.398
  351POPC   NC3 9131  10.636  11.186   9.506
  351POPC   PO4 9132  10.503  11.834   9.578
  351POPC   GL1 9133  10.617  11.575   9.190
  351POPC   GL2 9134  10.316  11.373   9.123
  351POPC   C1A 9135  10.706  11.271   8.824
  351POPC   D2A 9136  10.548  11.126   8.424
  351POPC   C3A 9137  10.761  11.072   8.060
  351POPC   C4A 9138  10.920  11.384   7.798
  351POPC   C1B 9139  10.259  11.006   8.844
  351POPC   C2B 9140  10.121  10.873   8.452
  351POPC   C3B 9141  10.096  11.171   8.127
  351POPC   C4B 9142  10.324  11.240   7.781
  352POPC   NC3 9143  36.443  15.900   9.424
  352POPC   PO4 9144  35.767  15.904   9.504
  352POPC   GL1 9145  36.030  15.746   9.187
  352POPC   GL2 9146  35.985  16.052   8.985
  352POPC   C1A 9147  36.321  15.712   8.798
  352POPC   D2A 9148  36.146  15.887   8.411
  352POPC   C3A 9149  36.340  16.085   8.092
  352POPC   C4A 9150  36.282  15.912   7.713
  352POPC   C1B 9151  35.830  15.664   8.744
  352POPC   C2B 9152  35.673  15.658   8.372
  352POPC   C3B 9153  35.920  15.552   8.038
  352POPC   C4B 9154  35.881  15.613   7.647
  353POPC   NC3 9155  30.560   3.037   9.485
  353POPC   PO4 9156  30.809   2.416   9.491
  353POPC   GL1 9157  30.767   2.677   9.153
  353POPC   GL2 9158  30.407   2.633   9.162
  353POPC   C1A 9159  30.992   2.685   8.753
  353POPC   D2A 9160  31.158   2.626   8.345
  353POPC   C3A 9161  30.976   2.914   8.082
  353POPC   C4A 9162  31.083   2.976   7.675
  353POPC   C1B 9163  30.453   2.637   8.746
  353POPC   C2B 9164  30.539   2.826   8.375
  353POPC   C3B 9165  30.555   2.603   8.006
  353POPC   C4B 9166  30.430   2.677   7.600
  354POPC   NC3 9167   9.224  34.493   9.606
  354POPC   PO4 9168   8.627  34.256   9.285
  354POPC   GL1 9169   8.858  34.559   9.087
  354POPC   GL2 9170   8.798  34.923   9.135
  354POPC   C1A 9171   8.979  34.468   8.681
  354POPC   D2A 9172   9.084  34.714   8.347
  354POPC   C3A 9173   8.968  34.570   7.952
  354POPC   C4A 9174   9.175  34.547   7.560
  354POPC   C1B 9175   8.602  34.862   8.714
  354POPC   C2B 9176   8.416  35.007   8.290
  354POPC   C3B 9177   8.476  34.904   7.846
  354POPC   C4B 9178   8.840  34.921   7.583
  355POPC   NC3 9179  44.718   2.408   9.860
  355POPC   PO4 9180  44.384   1.999   9.447
  355POPC   GL1 9181  44.625   1.955   9.057
  355POPC   GL2 9182  44.883   1.767   9.126
  355POPC   C1A 9183  44.759   2.225   8.701
  355POPC   D2A 9184  44.520   2.412   8.409
  355POPC   C3A 9185  44.595   2.209   8.076
  355POPC   C4A 9186  44.742   2.182   7.679
  355POPC   C1B 9187  44.901   1.724   8.709
  355POPC   C2B 9188  44.680   1.795   8.365
  355POPC   C3B 9189  44.873   1.793   7.990
  355POPC   C4B 9190  44.826   1.639   7.610
  356POPC   NC3 9191  32.265  10.740   9.559
  356POPC   PO4 9192  31.957  10.222   9.543
  356POPC   GL1 9193  32.182  10.412   9.152
  356POPC   GL2 9194  32.497  10.623   9.125
  356POPC   C1A 9195  32.287  10.469   8.699
  356POPC   D2A 9196  32.128  10.592   8.292
  356POPC   C3A 9197  32.348  10.612   7.895
  356POPC   C4A 9198  32.427  10.355   7.493
  356POPC   C1B 9199  32.654  10.826   8.773
  356POPC   C2B 9200  32.631  10.686   8.349
  356POPC   C3B 9201  32.792  10.833   7.968
  356POPC   C4B 9202  32.764  10.788   7.522
  357POPC   NC3 9203  14.248  39.671   9.316
  357POPC   PO4 9204  14.469  39.134   9.631
  357POPC   GL1 9205  14.663  39.160   9.236
  357POPC   GL2 9206  14.344  39.195   9.115
  357POPC   C1A 9207  14.757  39.046   8.819
  357POPC   D2A 9208  14.637  38.858   8.447
  357POPC   C3A 9209  14.621  39.067   8.058
  357POPC   C4A 9210  14.519  39.166   7.619
  357POPC   C1B 9211  14.325  39.303   8.689
  357POPC   C2B 9212  14.157  39.088   8.353
  357POPC   C3B 9213  14.105  39.173   7.941
  357POPC   C4B 9214  13.974  39.192   7.534
  358POPC   NC3 9215  37.043  30.521   9.486
  358POPC   PO4 9216  36.558  30.977   9.339
  358POPC   GL1 9217  36.819  30.804   9.032
  358POPC   GL2 9218  37.154  30.851   9.105
  358POPC   C1A 9219  36.669  30.636   8.631
  358POPC   D2A 9220  36.824  30.519   8.238
  358POPC   C3A 9221  36.745  30.774   7.910
  358POPC   C4A 9222  37.024  30.960   7.664
  358POPC   C1B 9223  37.172  30.534   8.767
  358POPC   C2B 9224  37.339  30.503   8.366
  358POPC   C3B 9225  37.260  30.625   7.964
  358POPC   C4B 9226  37.219  30.407   7.558
  359POPC   NC3 9227   9.478  29.319   9.495
  359POPC   PO4 9228  10.059  28.882   9.639
  359POPC   GL1 9229   9.889  29.092   9.253
  359POPC   GL2 9230   9.582  29.154   9.032
  359POPC   C1A 9231  10.041  29.237   8.849
  359POPC   D2A 9232   9.772  29.299   8.507
  359POPC   C3A 9233   9.746  29.045   8.122
  359POPC   C4A 9234   9.734  29.197   7.659
  359POPC   C1B 9235   9.349  29.471   8.791
  359POPC   C2B 9236   9.170  29.488   8.373
  359POPC   C3B 9237   9.394  29.399   8.007
  359POPC   C4B 9238   9.594  29.690   7.729
  360POPC   NC3 9239  36.273  41.908   9.367
  360POPC   PO4 9240  35.740  41.501   9.407
  360POPC   GL1 9241  35.909  41.672   9.024
  360POPC   GL2 9242  36.170  41.478   9.089
  360POPC   C1A 9243  36.192  41.658   8.618
  360POPC   D2A 9244  36.539  41.602   8.302
  360POPC   C3A 9245  36.362  41.590   7.887
  360POPC   C4A 9246  35.956  41.570   7.641
  360POPC   C1B 9247  36.051  41.151   8.797
  360POPC   C2B 9248  36.009  41.020   8.383
  360POPC   C3B 9249  36.103  41.141   7.963
  360POPC   C4B 9250  35.929  41.060   7.538
  361POPC   NC3 9251  27.232   2.559   9.880
  361POPC   PO4 9252  27.831   2.787   9.583
  361POPC   GL1 9253  27.824   2.836   9.160
  361POPC   GL2 9254  27.901   2.483   9.149
  361POPC   C1A 9255  27.585   2.975   8.823
  361POPC   D2A 9256  27.234   2.844   8.571
  361POPC   C3A 9257  27.241   2.930   8.102
  361POPC   C4A 9258  27.586   3.069   7.798
  361POPC   C1B 9259  27.653   2.462   8.749
  361POPC   C2B 9260  27.480   2.471   8.323
  361POPC   C3B 9261  27.476   2.531   7.908
  361POPC   C4B 9262  27.738   2.597   7.604
  362POPC   NC3 9263  29.489  32.928   9.524
  362POPC   PO4 9264  29.010  33.354   9.570
  362POPC   GL1 9265  29.130  33.164   9.187
  362POPC   GL2 9266  29.463  33.284   9.141
  362POPC   C1A 9267  29.112  32.881   8.805
  362POPC   D2A 9268  29.323  32.696   8.441
  362POPC   C3A 9269  29.230  32.827   7.982
  362POPC   C4A 9270  28.914  33.083   7.758
  362POPC   C1B 9271  29.322  33.345   8.741
  362POPC   C2B 9272  29.200  33.210   8.343
  362POPC   C3B 9273  29.510  33.255   8.035
  362POPC   C4B 9274  29.521  33.355   7.599
  363POPC   NC3 9275  13.749  19.398   9.579
  363POPC   PO4 9276  13.522  19.987   9.455
  363POPC   GL1 9277  13.832  19.817   9.194
  363POPC   GL2 9278  14.081  20.096   9.182
  363POPC   C1A 9279  13.693  19.620   8.808
  363POPC   D2A 9280  13.330  19.582   8.511
  363POPC   C3A 9281  13.407  19.414   8.083
  363POPC   C4A 9282  13.574  19.638   7.771
  363POPC   C1B 9283  13.820  20.148   8.783
  363POPC   C2B 9284  13.729  19.924   8.379
  363POPC   C3B 9285  13.858  20.023   7.951
  363POPC   C4B 9286  13.908  19.930   7.474
  364POPC   NC3 9287  20.575  41.060   9.386
  364POPC   PO4 9288  20.394  40.473   9.604
  364POPC   GL1 9289  20.454  40.628   9.132
  364POPC   GL2 9290  20.330  40.955   8.968
  364POPC   C1A 9291  20.528  40.457   8.715
  364POPC   D2A 9292  20.842  40.499   8.402
  364POPC   C3A 9293  20.611  40.510   8.024
  364POPC   C4A 9294  20.488  40.394   7.589
  364POPC   C1B 9295  20.727  40.925   8.731
  364POPC   C2B 9296  20.727  40.995   8.296
  364POPC   C3B 9297  20.456  40.979   7.976
  364POPC   C4B 9298  20.671  40.884   7.643
  365POPC   NC3 9299   2.891   8.529   9.384
  365POPC   PO4 9300   2.468   9.076   9.514
  365POPC   GL1 9301   2.580   8.875   9.140
  365POPC   GL2 9302   2.930   8.972   9.103
  365POPC   C1A 9303   2.649   8.899   8.695
  365POPC   D2A 9304   2.607   8.743   8.297
  365POPC   C3A 9305   2.491   9.079   8.041
  365POPC   C4A 9306   2.459   8.839   7.679
  365POPC   C1B 9307   3.176   8.940   8.740
  365POPC   C2B 9308   3.058   8.986   8.334
  365POPC   C3B 9309   2.934   8.863   7.906
  365POPC   C4B 9310   2.899   8.843   7.437
  366POPC   NC3 9311  41.183  34.448   9.787
  366POPC   PO4 9312  41.682  34.469   9.324
  366POPC   GL1 9313  41.774  34.260   9.038
  366POPC   GL2 9314  41.428  34.269   8.914
  366POPC   C1A 9315  41.999  34.219   8.719
  366POPC   D2A 9316  41.936  34.500   8.341
  366POPC   C3A 9317  41.855  34.293   8.026
  366POPC   C4A 9318  41.700  34.325   7.666
  366POPC   C1B 9319  41.609  34.604   8.700
  366POPC   C2B 9320  41.464  34.848   8.409
  366POPC   C3B 9321  41.624  34.874   8.024
  366POPC   C4B 9322  41.474  34.787   7.638
  367POPC   NC3 9323  43.491  15.052   9.380
  367POPC   PO4 9324  42.844  15.336   9.433
  367POPC   GL1 9325  43.075  15.229   9.095
  367POPC   GL2 9326  43.037  14.858   9.080
  367POPC   C1A 9327  43.231  15.434   8.708
  367POPC   D2A 9328  43.171  15.219   8.308
  367POPC   C3A 9329  43.031  15.380   7.889
  367POPC   C4A 9330  43.005  15.358   7.395
  367POPC   C1B 9331  43.345  14.936   8.747
  367POPC   C2B 9332  43.448  14.759   8.338
  367POPC   C3B 9333  43.249  14.852   7.958
  367POPC   C4B 9334  43.375  15.077   7.634
  368POPC   NC3 9335  42.730  24.466   9.869
  368POPC   PO4 9336  42.180  24.507   9.516
  368POPC   GL1 9337  42.110  24.610   9.133
  368POPC   GL2 9338  42.453  24.488   9.065
  368POPC   C1A 9339  42.092  24.527   8.715
  368POPC   D2A 9340  42.327  24.664   8.354
  368POPC   C3A 9341  42.134  24.674   7.975
  368POPC   C4A 9342  42.113  24.411   7.658
  368POPC   C1B 9343  42.635  24.271   8.744
  368POPC   C2B 9344  42.781  24.366   8.337
  368POPC   C3B 9345  42.568  24.395   7.967
  368POPC   C4B 9346  42.566  24.673   7.648
  369POPC   NC3 9347  23.408  36.606   9.489
  369POPC   PO4 9348  24.069  36.819   9.670
  369POPC   GL1 9349  23.720  36.808   9.179
  369POPC   GL2 9350  23.924  37.019   8.942
  369POPC   C1A 9351  23.650  36.662   8.723
  369POPC   D2A 9352  23.878  36.722   8.330
  369POPC   C3A 9353  23.668  36.737   7.933
  369POPC   C4A 9354  23.788  36.668   7.523
  369POPC   C1B 9355  23.534  37.143   8.828
  369POPC   C2B 9356  23.532  37.115   8.419
  369POPC   C3B 9357  23.732  37.217   8.056
  369POPC   C4B 9358  23.455  37.300   7.758
  370POPC   NC3 9359   1.682  22.900   9.476
  370POPC   PO4 9360   2.284  22.779   9.463
  370POPC   GL1 9361   2.332  22.901   9.046
  370POPC   GL2 9362   2.088  23.168   9.034
  370POPC   C1A 9363   2.176  22.824   8.626
  370POPC   D2A 9364   2.330  22.841   8.227
  370POPC   C3A 9365   2.054  22.897   7.869
  370POPC   C4A 9366   2.068  22.801   7.433
  370POPC   C1B 9367   1.745  23.124   8.725
  370POPC   C2B 9368   1.702  22.997   8.291
  370POPC   C3B 9369   1.602  23.217   7.926
  370POPC   C4B 9370   1.738  23.161   7.548
  371POPC   NC3 9371  35.229  32.558   9.576
  371POPC   PO4 9372  34.902  32.019   9.793
  371POPC   GL1 9373  35.093  32.074   9.360
  371POPC   GL2 9374  34.990  32.370   9.170
  371POPC   C1A 9375  35.284  32.043   8.936
  371POPC   D2A 9376  35.103  32.123   8.528
  371POPC   C3A 9377  35.347  32.098   8.159
  371POPC   C4A 9378  35.299  32.003   7.733
  371POPC   C1B 9379  35.169  32.561   8.766
  371POPC   C2B 9380  35.348  32.562   8.371
  371POPC   C3B 9381  35.627  32.646   8.067
  371POPC   C4B 9382  35.371  32.513   7.706
  372POPC   NC3 9383  38.913  40.028   9.793
  372POPC   PO4 9384  39.457  39.843   9.463
  372POPC   GL1 9385  39.475  39.836   9.042
  372POPC   GL2 9386  39.374  40.177   9.065
  372POPC   C1A 9387  39.270  39.925   8.656
  372POPC   D2A 9388  39.304  40.160   8.295
  372POPC   C3A 9389  39.085  39.938   8.010
  372POPC   C4A 9390  39.141  39.783   7.619
  372POPC   C1B 9391  39.701  40.263   8.792
  372POPC   C2B 9392  39.845  40.405   8.400
  372POPC   C3B 9393  39.647  40.432   8.021
  372POPC   C4B 9394  39.517  40.090   7.792
  373POPC   NC3 9395  20.961  19.655   9.485
  373POPC   PO4 9396  20.417  20.123   9.454
  373POPC   GL1 9397  20.597  19.862   9.134
  373POPC   GL2 9398  20.972  19.943   9.074
  373POPC   C1A 9399  20.361  19.688   8.790
  373POPC   D2A 9400  20.545  19.638   8.411
  373POPC   C3A 9401  20.351  19.708   8.026
  373POPC   C4A 9402  20.406  19.555   7.611
  373POPC   C1B 9403  20.894  19.922   8.649
  373POPC   C2B 9404  21.001  19.845   8.207
  373POPC   C3B 9405  20.808  19.840   7.799
  373POPC   C4B 9406  20.835  19.641   7.371
  374POPC   NC3 9407  25.846  37.216   9.861
  374POPC   PO4 9408  26.335  37.631   9.554
  374POPC   GL1 9409  26.203  37.775   9.163
  374POPC   GL2 9410  26.393  38.062   9.136
  374POPC   C1A 9411  26.164  37.617   8.743
  374POPC   D2A 9412  25.963  37.677   8.370
  374POPC   C3A 9413  26.147  37.538   7.991
  374POPC   C4A 9414  25.844  37.635   7.688
  374POPC   C1B 9415  26.493  38.038   8.692
  374POPC   C2B 9416  26.428  37.884   8.296
  374POPC   C3B 9417  26.422  37.973   7.881
  374POPC   C4B 9418  26.354  37.726   7.526
  375POPC   NC3 9419   6.833  29.494   9.857
  375POPC   PO4 9420   6.445  29.105   9.636
  375POPC   GL1 9421   6.666  29.103   9.241
  375POPC   GL2 9422   6.672  29.452   9.248
  375POPC   C1A 9423   6.803  29.229   8.803
  375POPC   D2A 9424   7.058  29.169   8.445
  375POPC   C3A 9425   6.778  29.138   8.108
  375POPC   C4A 9426   6.739  29.226   7.676
  375POPC   C1B 9427   6.359  29.497   8.907
  375POPC   C2B 9428   6.332  29.408   8.444
  375POPC   C3B 9429   6.458  29.530   7.999
  375POPC   C4B 9430   6.318  29.485   7.550
  376POPC   NC3 9431  43.835  28.138   9.225
  376POPC   PO4 9432  43.900  27.510   9.451
  376POPC   GL1 9433  43.830  27.368   9.083
  376POPC   GL2 9434  43.652  27.679   9.009
  376POPC   C1A 9435  43.993  27.452   8.677
  376POPC   D2A 9436  44.078  27.803   8.395
  376POPC   C3A 9437  43.977  27.748   7.977
  376POPC   C4A 9438  44.010  27.401   7.697
  376POPC   C1B 9439  43.635  27.920   8.654
  376POPC   C2B 9440  43.611  27.991   8.263
  376POPC   C3B 9441  43.428  27.844   7.959
  376POPC   C4B 9442  43.605  27.726   7.619
  377POPC   NC3 9443  42.758  14.224   9.540
  377POPC   PO4 9444  43.325  14.631   9.492
  377POPC   GL1 9445  43.375  14.452   9.107
  377POPC   GL2 9446  43.053  14.278   9.128
  377POPC   C1A 9447  43.216  14.451   8.694
  377POPC   D2A 9448  42.968  14.723   8.443
  377POPC   C3A 9449  43.045  14.424   8.125
  377POPC   C4A 9450  43.212  14.162   7.857
  377POPC   C1B 9451  42.722  14.009   8.912
  377POPC   C2B 9452  42.616  13.930   8.492
  377POPC   C3B 9453  42.808  13.944   8.083
  377POPC   C4B 9454  42.688  14.186   7.739
  378POPC   NC3 9455  39.542  30.701   9.781
  378POPC   PO4 9456  39.108  30.232   9.549
  378POPC   GL1 9457  39.065  30.489   9.161
  378POPC   GL2 9458  39.407  30.557   9.006
  378POPC   C1A 9459  38.995  30.801   8.804
  378POPC   D2A 9460  39.009  30.824   8.363
  378POPC   C3A 9461  39.167  30.595   8.050
  378POPC   C4A 9462  39.027  30.771   7.730
  378POPC   C1B 9463  39.469  30.854   8.641
  378POPC   C2B 9464  39.548  30.878   8.215
  378POPC   C3B 9465  39.493  30.964   7.768
  378POPC   C4B 9466  39.483  31.153   7.331
  379POPC   NC3 9467  31.173   8.477   9.574
  379POPC   PO4 9468  31.731   8.302   9.448
  379POPC   GL1 9469  31.803   8.263   9.040
  379POPC   GL2 9470  31.505   8.099   9.028
  379POPC   C1A 9471  31.784   8.283   8.585
  379POPC   D2A 9472  31.526   8.117   8.294
  379POPC   C3A 9473  31.551   8.188   7.848
  379POPC   C4A 9474  31.181   8.423   7.756
  379POPC   C1B 9475  31.591   7.796   8.722
  379POPC   C2B 9476  31.337   7.645   8.413
  379POPC   C3B 9477  31.500   7.704   8.011
  379POPC   C4B 9478  31.404   7.670   7.609
  380POPC   NC3 9479  23.124   4.868   9.487
  380POPC   PO4 9480  22.755   5.402   9.582
  380POPC   GL1 9481  23.006   5.244   9.162
  380POPC   GL2 9482  22.974   4.924   9.011
  380POPC   C1A 9483  23.201   5.257   8.708
  380POPC   D2A 9484  23.319   5.394   8.265
  380POPC   C3A 9485  22.996   5.384   7.921
  380POPC   C4A 9486  22.632   5.228   7.673
  380POPC   C1B 9487  23.136   4.759   8.644
  380POPC   C2B 9488  23.212   4.902   8.251
  380POPC   C3B 9489  22.907   4.892   7.972
  380POPC   C4B 9490  23.024   4.870   7.559
  381POPC   NC3 9491  23.350  25.186   9.220
  381POPC   PO4 9492  22.821  25.205   9.523
  381POPC   GL1 9493  22.748  25.201   9.091
  381POPC   GL2 9494  22.653  25.545   9.028
  381POPC   C1A 9495  22.880  25.212   8.650
  381POPC   D2A 9496  22.700  25.398   8.275
  381POPC   C3A 9497  22.787  25.118   7.919
  381POPC   C4A 9498  22.878  24.854   7.548
  381POPC   C1B 9499  23.094  25.646   8.813
  381POPC   C2B 9500  23.343  25.497   8.442
  381POPC   C3B 9501  23.144  25.520   8.016
  381POPC   C4B 9502  23.305  25.667   7.627
  382POPC   NC3 9503  28.736   6.109   9.554
  382POPC   PO4 9504  29.099   5.531   9.603
  382POPC   GL1 9505  29.122   5.535   9.172
  382POPC   GL2 9506  28.880   5.804   9.162
  382POPC   C1A 9507  29.114   5.656   8.748
  382POPC   D2A 9508  28.978   5.840   8.398
  382POPC   C3A 9509  28.940   5.624   8.049
  382POPC   C4A 9510  28.907   5.837   7.690
  382POPC   C1B 9511  28.907   6.144   8.855
  382POPC   C2B 9512  28.713   6.286   8.467
  382POPC   C3B 9513  28.626   6.078   8.075
  382POPC   C4B 9514  28.615   6.235   7.647
  383POPC   NC3 9515   5.763  40.351   9.809
  383POPC   PO4 9516   6.131  40.890   9.562
  383POPC   GL1 9517   5.941  40.745   9.144
  383POPC   GL2 9518   5.908  40.373   9.163
  383POPC   C1A 9519   5.739  40.949   8.749
  383POPC   D2A 9520   5.598  40.886   8.295
  383POPC   C3A 9521   5.908  41.029   7.987
  383POPC   C4A 9522   5.993  40.909   7.556
  383POPC   C1B 9523   5.935  40.448   8.714
  383POPC   C2B 9524   6.065  40.685   8.352
  383POPC   C3B 9525   6.188  40.587   7.912
  383POPC   C4B 9526   5.783  40.460   7.735
  384POPC   NC3 9527  23.144  33.305   9.608
  384POPC   PO4 9528  22.820  32.779   9.471
  384POPC   GL1 9529  22.878  33.013   9.139
  384POPC   GL2 9530  22.774  33.313   9.257
  384POPC   C1A 9531  22.729  33.120   8.740
  384POPC   D2A 9532  22.837  32.900   8.392
  384POPC   C3A 9533  22.751  32.964   7.981
  384POPC   C4A 9534  23.084  33.098   7.789
  384POPC   C1B 9535  23.087  33.442   8.960
  384POPC   C2B 9536  23.033  33.506   8.560
  384POPC   C3B 9537  22.831  33.427   8.178
  384POPC   C4B 9538  22.914  33.571   7.771
  385POPC   NC3 9539  32.273  13.396   9.549
  385POPC   PO4 9540  31.867  13.927   9.407
  385POPC   GL1 9541  32.188  13.726   9.158
  385POPC   GL2 9542  32.092  13.387   9.068
  385POPC   C1A 9543  32.379  13.760   8.748
  385POPC   D2A 9544  32.226  13.894   8.364
  385POPC   C3A 9545  32.344  13.814   7.966
  385POPC   C4A 9546  32.506  13.464   7.754
  385POPC   C1B 9547  32.164  13.297   8.622
  385POPC   C2B 9548  32.149  13.282   8.153
  385POPC   C3B 9549  31.973  13.503   7.811
  385POPC   C4B 9550  31.945  13.724   7.434
  386POPC   NC3 9551  15.750   6.073   9.342
  386POPC   PO4 9552  16.124   5.468   9.537
  386POPC   GL1 9553  15.976   5.662   9.152
  386POPC   GL2 9554  15.662   5.528   9.018
  386POPC   C1A 9555  16.012   5.783   8.719
  386POPC   D2A 9556  15.951   5.637   8.336
  386POPC   C3A 9557  16.183   5.960   8.149
  386POPC   C4A 9558  16.224   5.968   7.738
  386POPC   C1B 9559  15.548   5.932   8.741
  386POPC   C2B 9560  15.584   6.174   8.348
  386POPC   C3B 9561  15.706   5.998   7.980
  386POPC   C4B 9562  15.846   5.611   7.827
  387POPC   NC3 9563  33.333  25.043   9.616
  387POPC   PO4 9564  32.869  25.331   9.616
  387POPC   GL1 9565  33.012  25.261   9.216
  387POPC   GL2 9566  32.910  25.603   9.136
  387POPC   C1A 9567  33.100  25.207   8.793
  387POPC   D2A 9568  32.871  25.113   8.448
  387POPC   C3A 9569  32.916  25.279   8.042
  387POPC   C4A 9570  33.285  25.269   7.740
  387POPC   C1B 9571  32.743  25.566   8.725
  387POPC   C2B 9572  32.421  25.587   8.411
  387POPC   C3B 9573  32.563  25.673   8.010
  387POPC   C4B 9574  32.883  25.650   7.700
  388POPC   NC3 9575  42.361  24.103   9.391
  388POPC   PO4 9576  42.433  23.487   9.633
  388POPC   GL1 9577  42.498  23.609   9.206
  388POPC   GL2 9578  42.125  23.667   9.217
  388POPC   C1A 9579  42.520  23.758   8.757
  388POPC   D2A 9580  42.282  23.621   8.363
  388POPC   C3A 9581  42.489  23.689   7.980
  388POPC   C4A 9582  42.453  24.014   7.642
  388POPC   C1B 9583  42.025  23.786   8.811
  388POPC   C2B 9584  42.193  24.098   8.484
  388POPC   C3B 9585  42.136  24.057   8.032
  388POPC   C4B 9586  42.098  23.643   7.679
  389POPC   NC3 9587  12.405  10.161   9.605
  389POPC   PO4 9588  13.035  10.431   9.678
  389POPC   GL1 9589  13.041  10.367   9.216
  389POPC   GL2 9590  12.653  10.369   9.182
  389POPC   C1A 9591  13.144  10.569   8.784
  389POPC   D2A 9592  12.984  10.729   8.379
  389POPC   C3A 9593  13.150  10.629   7.943
  389POPC   C4A 9594  13.003  10.712   7.511
  389POPC   C1B 9595  12.763  10.235   8.762
  389POPC   C2B 9596  12.949  10.208   8.317
  389POPC   C3B 9597  12.801  10.293   7.862
  389POPC   C4B 9598  12.824  10.260   7.403
  390POPC   NC3 9599  31.280  35.609   9.374
  390POPC   PO4 9600  31.760  35.093   9.578
  390POPC   GL1 9601  31.732  35.311   9.161
  390POPC   GL2 9602  31.834  35.658   9.177
  390POPC   C1A 9603  31.692  35.146   8.699
  390POPC   D2A 9604  31.541  35.265   8.252
  390POPC   C3A 9605  31.437  35.135   7.810
  390POPC   C4A 9606  31.188  34.995   7.421
  390POPC   C1B 9607  31.610  35.657   8.789
  390POPC   C2B 9608  31.482  35.770   8.403
  390POPC   C3B 9609  31.451  35.728   8.020
  390POPC   C4B 9610  31.736  35.548   7.741
  391POPC   NC3 9611   2.530  39.697   9.365
  391POPC   PO4 9612   2.986  40.136   9.677
  391POPC   GL1 9613   2.906  40.049   9.206
  391POPC   GL2 9614   2.560  40.180   9.164
  391POPC   C1A 9615   2.879  40.270   8.773
  391POPC   D2A 9616   2.802  40.419   8.364
  391POPC   C3A 9617   2.850  40.208   8.000
  391POPC   C4A 9618   2.959  40.235   7.601
  391POPC   C1B 9619   2.283  40.012   8.853
  391POPC   C2B 9620   2.413  40.080   8.455
  391POPC   C3B 9621   2.386  39.892   8.052
  391POPC   C4B 9622   2.565  39.901   7.647
  392POPC   NC3 9623  22.680   4.286   9.513
  392POPC   PO4 9624  23.397   4.423   9.499
  392POPC   GL1 9625  23.235   4.444   9.085
  392POPC   GL2 9626  22.899   4.432   9.096
  392POPC   C1A 9627  23.096   4.272   8.660
  392POPC   D2A 9628  23.320   4.402   8.276
  392POPC   C3A 9629  23.037   4.397   7.953
  392POPC   C4A 9630  22.955   4.088   7.695
  392POPC   C1B 9631  22.644   4.142   8.850
  392POPC   C2B 9632  22.596   4.261   8.427
  392POPC   C3B 9633  22.552   4.193   7.998
  392POPC   C4B 9634  22.458   4.182   7.562
  393POPC   NC3 9635  40.745  35.217   9.367
  393POPC   PO4 9636  41.164  35.686   9.418
  393POPC   GL1 9637  40.894  35.624   9.065
  393POPC   GL2 9638  40.505  35.646   9.096
  393POPC   C1A 9639  41.098  35.348   8.788
  393POPC   D2A 9640  40.985  35.102   8.480
  393POPC   C3A 9641  40.871  35.414   8.187
  393POPC   C4A 9642  40.861  35.579   7.783
  393POPC   C1B 9643  40.575  35.410   8.674
  393POPC   C2B 9644  40.455  35.124   8.307
  393POPC   C3B 9645  40.562  35.141   7.863
  393POPC   C4B 9646  40.512  35.189   7.394
  394POPC   NC3 9647  14.975  31.006   9.609
  394POPC   PO4 9648  15.153  31.582   9.567
  394POPC   GL1 9649  15.146  31.358   9.143
  394POPC   GL2 9650  14.913  31.101   9.118
  394POPC   C1A 9651  15.062  31.482   8.691
  394POPC   D2A 9652  14.981  31.609   8.248
  394POPC   C3A 9653  15.278  31.644   7.902
  394POPC   C4A 9654  15.682  31.772   7.704
  394POPC   C1B 9655  14.705  31.113   8.774
  394POPC   C2B 9656  14.865  31.105   8.376
  394POPC   C3B 9657  14.629  31.162   8.021
  394POPC   C4B 9658  14.795  31.505   7.783
  395POPC   NC3 9659  22.858  34.177   9.787
  395POPC   PO4 9660  22.678  34.745   9.437
  395POPC   GL1 9661  22.835  34.748   9.029
  395POPC   GL2 9662  23.117  34.512   9.023
  395POPC   C1A 9663  22.812  34.585   8.614
  395POPC   D2A 9664  23.033  34.425   8.264
  395POPC   C3A 9665  22.774  34.568   7.928
  395POPC   C4A 9666  22.592  34.434   7.582
  395POPC   C1B 9667  23.354  34.512   8.688
  395POPC   C2B 9668  23.247  34.883   8.499
  395POPC   C3B 9669  23.081  34.925   8.122
  395POPC   C4B 9670  23.282  34.634   7.838
  396POPC   NC3 9671   5.360   5.590   9.439
  396POPC   PO4 9672   4.692   5.926   9.433
  396POPC   GL1 9673   5.045   5.957   9.131
  396POPC   GL2 9674   5.035   5.620   9.017
  396POPC   C1A 9675   5.384   5.866   8.787
  396POPC   D2A 9676   5.367   5.584   8.434
  396POPC   C3A 9677   5.412   5.704   8.021
  396POPC   C4A 9678   5.182   6.040   7.827
  396POPC   C1B 9679   4.901   5.804   8.621
  396POPC   C2B 9680   4.933   5.739   8.185
  396POPC   C3B 9681   4.953   5.558   7.799
  396POPC   C4B 9682   4.712   5.365   7.470
  397POPC   NC3 9683   6.369  26.716   9.591
  397POPC   PO4 9684   5.673  26.621   9.571
  397POPC   GL1 9685   5.946  26.689   9.214
  397POPC   GL2 9686   6.133  27.024   9.245
  397POPC   C1A 9687   5.878  26.515   8.793
  397POPC   D2A 9688   5.732  26.405   8.384
  397POPC   C3A 9689   5.984  26.528   8.029
  397POPC   C4A 9690   5.949  26.413   7.557
  397POPC   C1B 9691   6.047  26.987   8.794
  397POPC   C2B 9692   5.890  26.935   8.360
  397POPC   C3B 9693   6.041  27.068   7.937
  397POPC   C4B 9694   6.063  27.041   7.448
  398POPC   NC3 9695  34.896  33.468   9.823
  398POPC   PO4 9696  34.677  32.849   9.534
  398POPC   GL1 9697  34.569  33.153   9.208
  398POPC   GL2 9698  34.287  33.033   9.073
  398POPC   C1A 9699  34.634  33.309   8.768
  398POPC   D2A 9700  34.888  33.517   8.452
  398POPC   C3A 9701  34.873  33.279   8.062
  398POPC   C4A 9702  34.615  33.154   7.704
  398POPC   C1B 9703  34.266  32.793   8.736
  398POPC   C2B 9704  34.386  32.861   8.322
  398POPC   C3B 9705  34.347  32.751   7.916
  398POPC   C4B 9706  34.364  32.784   7.447
  399POPC   NC3 9707  12.495   4.210   9.535
  399POPC   PO4 9708  13.132   4.460   9.566
  399POPC   GL1 9709  12.898   4.425   9.194
  399POPC   GL2 9710  12.839   4.091   9.182
  399POPC   C1A 9711  12.935   4.333   8.738
  399POPC   D2A 9712  13.115   4.112   8.411
  399POPC   C3A 9713  12.896   4.264   8.086
  399POPC   C4A 9714  13.071   4.474   7.799
  399POPC   C1B 9715  12.536   4.051   8.862
  399POPC   C2B 9716  12.560   3.964   8.417
  399POPC   C3B 9717  12.454   4.029   7.973
  399POPC   C4B 9718  12.597   4.255   7.629
  400POPC   NC3 9719  38.869  42.511   9.435
  400POPC   PO4 9720  38.248  42.106   9.552
  400POPC   GL1 9721  38.160  42.112   9.159
  400POPC   GL2 9722  38.456  42.307   9.124
  400POPC   C1A 9723  38.084  42.318   8.772
  400POPC   D2A 9724  38.261  42.475   8.400
  400POPC   C3A 9725  38.449  42.186   8.159
  400POPC   C4A 9726  38.342  42.379   7.769
  400POPC   C1B 9727  38.563  42.598   8.823
  400POPC   C2B 9728  38.764  42.435   8.486
  400POPC   C3B 9729  38.771  42.561   8.060
  400POPC   C4B 9730  38.856  42.430   7.653
  401POPC   NC3 9731  31.824   3.908   9.345
  401POPC   PO4 9732  31.489   4.546   9.485
  401POPC   GL1 9733  31.471   4.332   9.133
  401POPC   GL2 9734  31.782   4.314   9.061
  401POPC   C1A 9735  31.460   4.558   8.760
  401POPC   D2A 9736  31.325   4.351   8.434
  401POPC   C3A 9737  31.451   4.452   8.058
  401POPC   C4A 9738  31.327   4.330   7.685
  401POPC   C1B 9739  31.666   4.084   8.707
  401POPC   C2B 9740  31.776   4.138   8.294
  401POPC   C3B 9741  31.644   3.934   7.923
  401POPC   C4B 9742  31.645   3.962   7.474
  402POPC   NC3 9743  24.699  22.603   9.644
  402POPC   PO4 9744  24.635  23.225   9.537
  402POPC   GL1 9745  24.427  23.057   9.188
  402POPC   GL2 9746  24.413  22.695   9.217
  402POPC   C1A 9747  24.301  23.246   8.814
  402POPC   D2A 9748  24.202  23.246   8.400
  402POPC   C3A 9749  24.527  23.312   8.095
  402POPC   C4A 9750  24.394  23.198   7.695
  402POPC   C1B 9751  24.608  22.690   8.811
  402POPC   C2B 9752  24.482  22.818   8.382
  402POPC   C3B 9753  24.656  22.826   7.976
  402POPC   C4B 9754  24.806  22.588   7.623
  403POPC   NC3 9755  19.744  44.500   9.676
  403POPC   PO4 9756  19.788  43.846   9.623
  403POPC   GL1 9757  19.736  43.604   9.233
  403POPC   GL2 9758  19.444  43.710   9.076
  403POPC   C1A 9759  19.866  43.804   8.818
  403POPC   D2A 9760  19.733  44.019   8.444
  403POPC   C3A 9761  20.043  43.926   8.156
  403POPC   C4A 9762  20.168  43.626   7.895
  403POPC   C1B 9763  19.264  43.879   8.712
  403POPC   C2B 9764  19.326  43.751   8.306
  403POPC   C3B 9765  19.613  43.706   7.950
  403POPC   C4B 9766  19.521  43.894   7.549
  404POPC   NC3 9767   0.103  27.761   9.549
  404POPC   PO4 9768   0.697  27.435   9.488
  404POPC   GL1 9769   0.364  27.488   9.171
  404POPC   GL2 9770   0.217  27.816   9.048
  404POPC   C1A 9771   0.434  27.438   8.746
  404POPC   D2A 9772   0.668  27.511   8.380
  404POPC   C3A 9773   0.447  27.426   7.985
  404POPC   C4A 9774   0.245  27.704   7.668
  404POPC   C1B 9775   0.666  27.883   8.865
  404POPC   C2B 9776   0.780  28.017   8.424
  404POPC   C3B 9777   0.659  27.915   7.993
  404POPC   C4B 9778   0.747  27.665   7.638
  405POPC   NC3 9779  17.725  29.495   9.516
  405POPC   PO4 9780  17.068  29.239   9.602
  405POPC   GL1 9781  17.301  29.332   9.225
  405POPC   GL2 9782  17.255  29.694   9.193
  405POPC   C1A 9783  17.491  29.125   8.829
  405POPC   D2A 9784  17.473  29.236   8.361
  405POPC   C3A 9785  17.312  29.057   7.956
  405POPC   C4A 9786  17.497  28.942   7.527
  405POPC   C1B 9787  17.246  29.555   8.769
  405POPC   C2B 9788  17.152  29.642   8.352
  405POPC   C3B 9789  17.299  29.613   7.951
  405POPC   C4B 9790  17.685  29.382   7.800
  406POPC   NC3 9791  11.824  39.995   9.344
  406POPC   PO4 9792  12.306  39.687   9.703
  406POPC   GL1 9793  12.281  39.759   9.192
  406POPC   GL2 9794  12.224  40.125   9.050
  406POPC   C1A 9795  12.115  39.791   8.702
  406POPC   D2A 9796  12.183  40.147   8.369
  406POPC   C3A 9797  12.206  40.195   7.888
  406POPC   C4A 9798  12.321  40.023   7.448
  406POPC   C1B 9799  11.832  40.234   8.736
  406POPC   C2B 9800  11.636  40.135   8.313
  406POPC   C3B 9801  11.757  39.949   7.899
  406POPC   C4B 9802  11.804  40.194   7.527
  407POPC   NC3 9803   4.636  18.788   9.436
  407POPC   PO4 9804   5.304  19.080   9.455
  407POPC   GL1 9805   5.236  19.233   9.041
  407POPC   GL2 9806   4.937  19.018   9.047
  407POPC   C1A 9807   5.161  19.130   8.581
  407POPC   D2A 9808   4.878  19.063   8.210
  407POPC   C3A 9809   5.109  19.304   7.879
  407POPC   C4A 9810   5.181  19.321   7.406
  407POPC   C1B 9811   5.219  18.706   8.867
  407POPC   C2B 9812   5.278  18.630   8.431
  407POPC   C3B 9813   5.269  18.802   8.018
  407POPC   C4B 9814   5.041  18.869   7.632
  408POPC   NC3 9815  12.217   0.447   9.539
  408POPC   PO4 9816  11.704   0.806   9.473
  408POPC   GL1 9817  11.849   0.674   9.123
  408POPC   GL2 9818  11.550   0.495   9.075
  408POPC   C1A 9819  12.050   0.442   8.798
  408POPC   D2A 9820  12.261   0.183   8.515
  408POPC   C3A 9821  12.306   0.339   8.120
  408POPC   C4A 9822  12.144   0.262   7.734
  408POPC   C1B 9823  11.576   0.424   8.633
  408POPC   C2B 9824  11.818   0.397   8.276
  408POPC   C3B 9825  11.740   0.570   7.876
  408POPC   C4B 9826  11.771   0.447   7.432
  409POPC   NC3 9827  28.759   1.897   9.495
  409POPC   PO4 9828  29.413   2.162   9.470
  409POPC   GL1 9829  29.111   2.057   9.175
  409POPC   GL2 9830  29.268   1.783   9.094
  409POPC   C1A 9831  28.866   1.824   8.811
  409POPC   D2A 9832  28.942   1.638   8.407
  409POPC   C3A 9833  28.784   1.851   8.010
  409POPC   C4A 9834  28.832   2.077   7.619
  409POPC   C1B 9835  29.398   1.826   8.685
  409POPC   C2B 9836  29.523   1.511   8.396
  409POPC   C3B 9837  29.296   1.522   8.042
  409POPC   C4B 9838  29.269   1.920   7.855
  410POPC   NC3 9839  19.174  32.902   9.430
  410POPC   PO4 9840  19.193  32.279   9.464
  410POPC   GL1 9841  19.264  32.040   9.129
  410POPC   GL2 9842  19.020  32.234   8.954
  410POPC   C1A 9843  19.383  32.011   8.703
  410POPC   D2A 9844  19.204  32.237   8.390
  410POPC   C3A 9845  19.187  32.021   8.011
  410POPC   C4A 9846  18.825  32.037   7.742
  410POPC   C1B 9847  19.413  32.506   8.815
  410POPC   C2B 9848  19.583  32.602   8.388
  410POPC   C3B 9849  19.331  32.573   8.008
  410POPC   C4B 9850  18.890  32.517   7.900
  411POPC   NC3 9851  25.133  21.252   9.434
  411POPC   PO4 9852  25.465  21.873   9.496
  411POPC   GL1 9853  25.383  21.612   9.172
  411POPC   GL2 9854  25.025  21.605   9.100
  411POPC   C1A 9855  25.416  21.425   8.779
  411POPC   D2A 9856  25.211  21.583   8.420
  411POPC   C3A 9857  25.296  21.409   8.029
  411POPC   C4A 9858  25.430  21.694   7.694
  411POPC   C1B 9859  24.887  21.331   8.765
  411POPC   C2B 9860  24.951  21.159   8.354
  411POPC   C3B 9861  24.814  21.216   7.937
  411POPC   C4B 9862  24.977  21.156   7.521
  412POPC   NC3 9863  37.966  42.528   9.438
  412POPC   PO4 9864  38.326  43.102   9.508
  412POPC   GL1 9865  38.183  43.137   9.098
  412POPC   GL2 9866  38.124  42.787   9.038
  412POPC   C1A 9867  38.405  43.116   8.718
  412POPC   D2A 9868  38.594  42.922   8.398
  412POPC   C3A 9869  38.607  43.108   8.012
  412POPC   C4A 9870  38.733  42.923   7.642
  412POPC   C1B 9871  37.950  42.789   8.644
  412POPC   C2B 9872  38.081  42.949   8.257
  412POPC   C3B 9873  38.170  42.897   7.834
  412POPC   C4B 9874  38.311  43.210   7.527
  413POPC   NC3 9875  42.498   0.647   9.387
  413POPC   PO4 9876  42.104   0.073   9.579
  413POPC   GL1 9877  42.211   0.306   9.163
  413POPC   GL2 9878  42.514   0.246   8.948
  413POPC   C1A 9879  42.233   0.603   8.753
  413POPC   D2A 9880  42.033   0.691   8.361
  413POPC   C3A 9881  42.140   0.443   7.989
  413POPC   C4A 9882  42.360   0.555   7.612
  413POPC   C1B 9883  42.618   0.323   8.511
  413POPC   C2B 9884  42.565   0.073   8.148
  413POPC   C3B 9885  42.585   0.096   7.699
  413POPC   C4B 9886  42.574   0.227   7.235
  414POPC   NC3 9887  32.967  26.600   9.773
  414POPC   PO4 9888  33.135  27.254   9.597
  414POPC   GL1 9889  33.028  26.986   9.280
  414POPC   GL2 9890  32.893  26.654   9.262
  414POPC   C1A 9891  32.906  27.010   8.878
  414POPC   D2A 9892  32.981  26.840   8.496
  414POPC   C3A 9893  32.800  26.909   8.132
  414POPC   C4A 9894  33.034  26.943   7.792
  414POPC   C1B 9895  33.124  26.526   8.898
  414POPC   C2B 9896  33.151  26.355   8.463
  414POPC   C3B 9897  33.082  26.503   8.052
  414POPC   C4B 9898  33.318  26.544   7.669
  415POPC   NC3 9899  21.601  25.617   9.483
  415POPC   PO4 9900  21.191  26.164   9.763
  415POPC   GL1 9901  21.327  26.036   9.323
  415POPC   GL2 9902  21.684  26.040   9.225
  415POPC   C1A 9903  21.306  26.106   8.869
  415POPC   D2A 9904  21.422  25.915   8.465
  415POPC   C3A 9905  21.406  26.214   8.124
  415POPC   C4A 9906  21.329  26.170   7.697
  415POPC   C1B 9907  21.806  26.077   8.797
  415POPC   C2B 9908  21.824  26.307   8.423
  415POPC   C3B 9909  21.882  26.358   7.995
  415POPC   C4B 9910  21.822  26.009   7.761
  416POPC   NC3 9911  29.614  20.681   9.484
  416POPC   PO4 9912  30.215  20.979   9.590
  416POPC   GL1 9913  30.048  20.668   9.191
  416POPC   GL2 9914  29.679  20.736   8.999
  416POPC   C1A 9915  30.014  20.499   8.726
  416POPC   D2A 9916  29.688  20.625   8.394
  416POPC   C3A 9917  29.823  20.525   7.950
  416POPC   C4A 9918  30.004  20.577   7.497
  416POPC   C1B 9919  29.421  21.014   8.750
  416POPC   C2B 9920  29.374  21.069   8.346
  416POPC   C3B 9921  29.711  21.050   8.071
  416POPC   C4B 9922  29.694  20.933   7.669
  417POPC   NC3 9923  39.494  15.725   9.555
  417POPC   PO4 9924  39.089  15.148   9.415
  417POPC   GL1 9925  39.305  15.365   9.107
  417POPC   GL2 9926  39.005  15.402   8.918
  417POPC   C1A 9927  39.380  15.186   8.685
  417POPC   D2A 9928  39.064  15.231   8.367
  417POPC   C3A 9929  39.291  15.256   8.004
  417POPC   C4A 9930  39.535  15.510   7.797
  417POPC   C1B 9931  38.950  14.950   8.799
  417POPC   C2B 9932  39.056  14.701   8.444
  417POPC   C3B 9933  39.037  14.821   8.012
  417POPC   C4B 9934  38.995  15.083   7.643
  418POPC   NC3 9935  24.393  33.636   9.799
  418POPC   PO4 9936  24.517  33.042   9.486
  418POPC   GL1 9937  24.762  32.800   9.197
  418POPC   GL2 9938  24.446  32.679   9.073
  418POPC   C1A 9939  24.834  32.712   8.741
  418POPC   D2A 9940  24.735  32.803   8.297
  418POPC   C3A 9941  24.734  33.111   7.956
  418POPC   C4A 9942  24.781  33.547   7.880
  418POPC   C1B 9943  24.212  32.625   8.724
  418POPC   C2B 9944  24.153  32.749   8.308
  418POPC   C3B 9945  24.392  32.709   7.918
  418POPC   C4B 9946  24.387  32.937   7.523
  419POPC   NC3 9947  36.911  35.096   9.738
  419POPC   PO4 9948  37.397  35.427   9.527
  419POPC   GL1 9949  37.115  35.348   9.177
  419POPC   GL2 9950  37.072  35.689   9.131
  419POPC   C1A 9951  36.879  35.300   8.731
  419POPC   D2A 9952  36.806  35.032   8.337
  419POPC   C3A 9953  36.733  35.235   7.897
  419POPC   C4A 9954  36.604  35.142   7.418
  419POPC   C1B 9955  37.207  35.685   8.712
  419POPC   C2B 9956  37.004  35.627   8.286
  419POPC   C3B 9957  37.183  35.558   7.866
  419POPC   C4B 9958  37.265  35.658   7.422
  420POPC   NC3 9959  44.523  21.058   9.757
  420POPC   PO4 9960   0.039  21.552   9.540
  420POPC   GL1 9961  44.753  21.529   9.170
  420POPC   GL2 9962  44.502  21.287   9.196
  420POPC   C1A 9963  44.621  21.633   8.728
  420POPC   D2A 9964  44.834  21.542   8.360
  420POPC   C3A 9965  44.681  21.575   7.960
  420POPC   C4A 9966  44.833  21.362   7.599
  420POPC   C1B 9967  44.474  21.152   8.766
  420POPC   C2B 9968  44.387  21.292   8.377
  420POPC   C3B 9969  44.213  21.327   7.996
  420POPC   C4B 9970  44.330  21.419   7.602
  421POPC   NC3 9971  10.403  44.458   9.510
  421POPC   PO4 9972  10.805  44.990   9.555
  421POPC   GL1 9973  10.657  44.752   9.184
  421POPC   GL2 9974  10.333  44.920   9.256
  421POPC   C1A 9975  10.644  44.459   8.766
  421POPC   D2A 9976  10.388  44.298   8.383
  421POPC   C3A 9977  10.451  44.434   7.937
  421POPC   C4A 9978  10.825  44.607   7.787
  421POPC   C1B 9979  10.234  44.732   8.875
  421POPC   C2B 9980  10.291  44.847   8.451
  421POPC   C3B 9981  10.403  44.949   8.033
  421POPC   C4B 9982  10.436  44.842   7.571
  422POPC   NC3 9983  39.468  43.466   9.543
  422POPC   PO4 9984  39.239  42.802   9.509
  422POPC   GL1 9985  39.212  43.154   9.198
  422POPC   GL2 9986  39.556  43.212   9.112
  422POPC   C1A 9987  38.981  43.125   8.788
  422POPC   D2A 9988  39.097  42.827   8.465
  422POPC   C3A 9989  39.113  42.923   8.017
  422POPC   C4A 9990  39.374  42.857   7.659
  422POPC   C1B 9991  39.443  43.381   8.735
  422POPC   C2B 9992  39.285  43.287   8.326
  422POPC   C3B 9993  39.458  43.298   7.908
  422POPC   C4B 9994  39.844  43.502   7.803
  423POPC   NC3 9995  10.523  18.587   9.386
  423POPC   PO4 9996  10.069  18.067   9.515
  423POPC   GL1 9997  10.252  18.177   9.122
  423POPC   GL2 9998  10.629  18.165   9.092
  423POPC   C1A 9999  10.233  18.322   8.697
  423POPC   D2A10000  10.121  18.395   8.279
  423POPC   C3A10001  10.288  18.084   8.012
  423POPC   C4A10002  10.709  18.087   7.841
  423POPC   C1B10003  10.757  18.398   8.725
  423POPC   C2B10004  10.641  18.356   8.309
  423POPC   C3B10005  10.688  18.588   7.940
  423POPC   C4B10006  10.893  18.543   7.548
  424POPC   NC310007  39.277  44.939   9.490
  424POPC   PO410008  39.652   0.455   9.484
  424POPC   GL110009  39.284   0.364   9.193
  424POPC   GL210010  38.902   0.279   9.285
  424POPC   C1A10011  39.271   0.536   8.790
  424POPC   D2A10012  39.434   0.710   8.422
  424POPC   C3A10013  39.237   0.635   8.053
  424POPC   C4A10014  39.487   0.622   7.681
  424POPC   C1B10015  38.793   0.375   8.838
  424POPC   C2B10016  38.988   0.311   8.418
  424POPC   C3B10017  38.915   0.181   7.986
  424POPC   C4B10018  39.256   0.169   7.700
  425POPC   NC310019   4.835  27.008   9.423
  425POPC   PO410020   4.729  26.387   9.087
  425POPC   GL110021   4.998  26.748   9.028
  425POPC   GL210022   5.348  26.727   9.176
  425POPC   C1A10023   4.922  26.961   8.676
  425POPC   D2A10024   4.921  26.793   8.257
  425POPC   C3A10025   5.075  27.140   8.016
  425POPC   C4A10026   4.939  27.262   7.624
  425POPC   C1B10027   5.523  26.896   8.813
  425POPC   C2B10028   5.377  26.973   8.421
  425POPC   C3B10029   5.437  26.740   8.056
  425POPC   C4B10030   5.675  26.803   7.729
  426POPC   NC310031  12.324  11.047   9.439
  426POPC   PO410032  11.694  11.206   9.335
  426POPC   GL110033  12.004  11.353   9.061
  426POPC   GL210034  12.309  11.493   9.172
  426POPC   C1A10035  12.119  11.250   8.642
  426POPC   D2A10036  11.952  11.430   8.269
  426POPC   C3A10037  11.929  11.208   7.905
  426POPC   C4A10038  12.245  11.024   7.656
  426POPC   C1B10039  12.338  11.696   8.757
  426POPC   C2B10040  12.426  11.595   8.343
  426POPC   C3B10041  12.434  11.441   7.931
  426POPC   C4B10042  12.305  11.598   7.534
  427POPC   NC310043  44.247  35.112   9.713
  427POPC   PO410044  43.909  35.612   9.490
  427POPC   GL110045  43.854  35.423   9.101
  427POPC   GL210046  43.894  35.092   9.293
  427POPC   C1A10047  43.772  35.608   8.679
  427POPC   D2A10048  43.727  35.380   8.301
  427POPC   C3A10049  43.883  35.502   7.905
  427POPC   C4A10050  43.784  35.171   7.669
  427POPC   C1B10051  44.125  34.991   8.938
  427POPC   C2B10052  44.017  34.965   8.512
  427POPC   C3B10053  44.111  35.066   8.092
  427POPC   C4B10054  44.277  35.154   7.674
  428POPC   NC310055  14.018  10.037   9.508
  428POPC   PO410056  14.686   9.793   9.408
  428POPC   GL110057  14.530   9.764   9.002
  428POPC   GL210058  14.278   9.974   9.068
  428POPC   C1A10059  14.469   9.873   8.555
  428POPC   D2A10060  14.569   9.881   8.109
  428POPC   C3A10061  14.646   9.473   7.886
  428POPC   C4A10062  14.795   9.320   7.466
  428POPC   C1B10063  14.088  10.189   8.745
  428POPC   C2B10064  13.912  10.175   8.330
  428POPC   C3B10065  14.108  10.091   7.953
  428POPC   C4B10066  14.183   9.737   7.758
  429POPC   NC310067  19.288  41.336   9.541
  429POPC   PO410068  18.824  41.788   9.571
  429POPC   GL110069  18.856  41.428   9.268
  429POPC   GL210070  19.173  41.455   9.055
  429POPC   C1A10071  18.709  41.314   8.854
  429POPC   D2A10072  18.731  41.701   8.598
  429POPC   C3A10073  18.790  41.603   8.156
  429POPC   C4A10074  18.992  41.658   7.754
  429POPC   C1B10075  19.153  41.359   8.593
  429POPC   C2B10076  19.310  41.546   8.205
  429POPC   C3B10077  19.558  41.620   7.854
  429POPC   C4B10078  19.375  41.791   7.427
  430POPC   NC310079  33.457   0.737   9.255
  430POPC   PO410080  33.644   0.214   9.625
  430POPC   GL110081  33.799   0.354   9.175
  430POPC   GL210082  33.536   0.319   8.965
  430POPC   C1A10083  33.990   0.521   8.769
  430POPC   D2A10084  33.830   0.685   8.400
  430POPC   C3A10085  33.813   0.474   8.039
  430POPC   C4A10086  34.069   0.402   7.704
  430POPC   C1B10087  33.387   0.468   8.575
  430POPC   C2B10088  33.353   0.815   8.299
  430POPC   C3B10089  33.568   0.907   7.946
  430POPC   C4B10090  33.558   0.612   7.586
  431POPC   NC310091  38.407  33.442  10.124
  431POPC   PO410092  38.514  33.975   9.709
  431POPC   GL110093  38.453  33.795   9.273
  431POPC   GL210094  38.260  33.483   9.189
  431POPC   C1A10095  38.648  33.661   8.879
  431POPC   D2A10096  38.451  33.461   8.531
  431POPC   C3A10097  38.465  33.559   8.108
  431POPC   C4A10098  38.472  33.750   7.706
  431POPC   C1B10099  38.134  33.725   8.846
  431POPC   C2B10100  38.031  33.867   8.454
  431POPC   C3B10101  38.087  33.895   8.044
  431POPC   C4B10102  37.976  33.657   7.685
  432POPC   NC310103  34.066   0.406   9.596
  432POPC   PO410104  34.653   0.376   9.386
  432POPC   GL110105  34.405   0.275   9.081
  432POPC   GL210106  34.193   0.012   9.256
  432POPC   C1A10107  34.549   0.446   8.685
  432POPC   D2A10108  34.757   0.603   8.329
  432POPC   C3A10109  34.464   0.574   7.996
  432POPC   C4A10110  34.499   0.646   7.573
  432POPC   C1B10111  34.036   0.042   8.846
  432POPC   C2B10112  34.260   0.099   8.457
  432POPC   C3B10113  34.585   0.118   8.169
  432POPC   C4B10114  34.540   0.142   7.730
  433POPC   NC310115  22.254  31.236   9.822
  433POPC   PO410116  22.058  30.664   9.482
  433POPC   GL110117  22.069  30.888   9.096
  433POPC   GL210118  22.363  30.790   8.962
  433POPC   C1A10119  22.052  31.047   8.642
  433POPC   D2A10120  22.144  30.929   8.187
  433POPC   C3A10121  21.809  30.856   7.875
  433POPC   C4A10122  21.742  30.463   7.563
  433POPC   C1B10123  22.426  30.684   8.572
  433POPC   C2B10124  22.246  30.388   8.372
  433POPC   C3B10125  22.044  30.438   8.010
  433POPC   C4B10126  22.226  30.630   7.657
  434POPC   NC310127  30.803  19.714   9.752
  434POPC   PO410128  30.550  19.054   9.527
  434POPC   GL110129  30.563  19.154   9.119
  434POPC   GL210130  30.284  19.411   9.255
  434POPC   C1A10131  30.828  18.992   8.742
  434POPC   D2A10132  30.651  18.761   8.376
  434POPC   C3A10133  30.753  18.924   7.951
  434POPC   C4A10134  30.939  19.155   7.595
  434POPC   C1B10135  30.357  19.544   8.858
  434POPC   C2B10136  30.460  19.266   8.534
  434POPC   C3B10137  30.411  19.270   8.103
  434POPC   C4B10138  30.511  19.411   7.680
  435POPC   NC310139  29.491  33.625   9.520
  435POPC   PO410140  28.837  33.812   9.400
  435POPC   GL110141  29.129  33.696   9.133
  435POPC   GL210142  29.347  33.995   9.161
  435POPC   C1A10143  29.037  33.770   8.707
  435POPC   D2A10144  29.065  34.108   8.431
  435POPC   C3A10145  29.173  33.997   8.016
  435POPC   C4A10146  29.127  33.569   7.905
  435POPC   C1B10147  29.545  33.830   8.785
  435POPC   C2B10148  29.430  33.686   8.356
  435POPC   C3B10149  29.631  33.745   7.951
  435POPC   C4B10150  29.590  34.103   7.712
  436POPC   NC310151  27.443   2.551   9.352
  436POPC   PO410152  27.397   1.920   9.556
  436POPC   GL110153  27.543   2.094   9.173
  436POPC   GL210154  27.877   1.985   9.245
  436POPC   C1A10155  27.519   1.958   8.739
  436POPC   D2A10156  27.740   2.029   8.355
  436POPC   C3A10157  27.516   2.023   7.966
  436POPC   C4A10158  27.187   1.774   7.842
  436POPC   C1B10159  28.022   2.128   8.800
  436POPC   C2B10160  28.160   2.318   8.392
  436POPC   C3B10161  27.953   2.300   7.962
  436POPC   C4B10162  27.812   2.116   7.517
  437POPC   NC310163  35.516  22.595   9.294
  437POPC   PO410164  35.079  21.967   9.451
  437POPC   GL110165  35.152  22.215   9.104
  437POPC   GL210166  35.170  21.885   8.952
  437POPC   C1A10167  35.368  22.282   8.703
  437POPC   D2A10168  35.317  22.069   8.310
  437POPC   C3A10169  35.520  22.313   7.968
  437POPC   C4A10170  35.411  22.378   7.517
  437POPC   C1B10171  35.565  21.801   8.773
  437POPC   C2B10172  35.774  21.844   8.348
  437POPC   C3B10173  35.581  21.785   7.966
  437POPC   C4B10174  35.566  21.895   7.567
  438POPC   NC310175   2.481   3.080   9.405
  438POPC   PO410176   3.052   2.734   9.418
  438POPC   GL110177   2.817   2.725   9.070
  438POPC   GL210178   2.471   2.616   9.147
  438POPC   C1A10179   2.936   2.931   8.698
  438POPC   D2A10180   2.703   3.002   8.353
  438POPC   C3A10181   2.823   2.819   8.003
  438POPC   C4A10182   2.710   2.893   7.597
  438POPC   C1B10183   2.407   2.852   8.761
  438POPC   C2B10184   2.214   2.789   8.347
  438POPC   C3B10185   2.330   2.742   7.914
  438POPC   C4B10186   2.280   2.672   7.460
  439POPC   NC310187  19.798  37.425   9.386
  439POPC   PO410188  20.015  36.819   9.598
  439POPC   GL110189  20.115  36.972   9.180
  439POPC   GL210190  19.778  36.992   9.105
  439POPC   C1A10191  20.046  36.788   8.739
  439POPC   D2A10192  19.995  36.458   8.407
  439POPC   C3A10193  19.823  36.499   7.986
  439POPC   C4A10194  19.959  36.779   7.694
  439POPC   C1B10195  19.563  36.963   8.694
  439POPC   C2B10196  19.562  36.834   8.261
  439POPC   C3B10197  19.461  36.885   7.817
  439POPC   C4B10198  19.504  37.293   7.649
  440POPC   NC310199  32.856   5.675   9.573
  440POPC   PO410200  33.138   6.228   9.528
  440POPC   GL110201  33.012   6.056   9.188
  440POPC   GL210202  33.208   5.799   9.243
  440POPC   C1A10203  33.148   6.064   8.764
  440POPC   D2A10204  33.118   6.342   8.403
  440POPC   C3A10205  33.083   6.124   7.989
  440POPC   C4A10206  33.224   6.203   7.555
  440POPC   C1B10207  32.999   5.583   8.927
  440POPC   C2B10208  33.039   5.620   8.494
  440POPC   C3B10209  33.036   5.600   8.048
  440POPC   C4B10210  32.885   5.773   7.663
  441POPC   NC310211  25.826   8.443   9.847
  441POPC   PO410212  26.218   8.936   9.617
  441POPC   GL110213  26.130   9.032   9.207
  441POPC   GL210214  26.342   8.755   9.080
  441POPC   C1A10215  25.937   8.957   8.789
  441POPC   D2A10216  26.078   8.924   8.397
  441POPC   C3A10217  25.856   8.734   8.042
  441POPC   C4A10218  25.937   8.993   7.686
  441POPC   C1B10219  26.273   8.523   8.697
  441POPC   C2B10220  26.289   8.492   8.258
  441POPC   C3B10221  26.348   8.851   7.974
  441POPC   C4B10222  26.252   8.548   7.691
  442POPC   NC310223  15.803  39.605   9.524
  442POPC   PO410224  16.048  38.946   9.566
  442POPC   GL110225  15.912  39.178   9.213
  442POPC   GL210226  16.182  39.408   9.160
  442POPC   C1A10227  15.959  39.052   8.788
  442POPC   D2A10228  16.107  39.177   8.398
  442POPC   C3A10229  15.906  39.104   8.012
  442POPC   C4A10230  15.982  38.808   7.681
  442POPC   C1B10231  16.021  39.571   8.751
  442POPC   C2B10232  16.194  39.676   8.346
  442POPC   C3B10233  15.992  39.640   7.978
  442POPC   C4B10234  15.971  39.454   7.606
  443POPC   NC310235  11.368  28.842   9.838
  443POPC   PO410236  11.460  28.402   9.323
  443POPC   GL110237  11.216  28.436   8.976
  443POPC   GL210238  11.008  28.181   9.042
  443POPC   C1A10239  11.275  28.611   8.570
  443POPC   D2A10240  11.453  28.425   8.209
  443POPC   C3A10241  11.485  28.760   7.949
  443POPC   C4A10242  11.370  28.828   7.518
  443POPC   C1B10243  11.108  28.130   8.560
  443POPC   C2B10244  10.964  28.264   8.127
  443POPC   C3B10245  11.194  28.371   7.736
  443POPC   C4B10246  11.635  28.332   7.655
  444POPC   NC310247  37.466   6.834   9.645
  444POPC   PO410248  37.942   6.433   9.547
  444POPC   GL110249  37.816   6.737   9.183
  444POPC   GL210250  37.466   6.933   9.146
  444POPC   C1A10251  37.777   6.680   8.727
  444POPC   D2A10252  37.547   6.595   8.337
  444POPC   C3A10253  37.558   6.605   7.882
  444POPC   C4A10254  37.982   6.636   7.713
  444POPC   C1B10255  37.277   6.779   8.759
  444POPC   C2B10256  37.135   6.871   8.345
  444POPC   C3B10257  37.369   7.076   8.016
  444POPC   C4B10258  37.668   7.065   7.697
  445POPC   NC310259   8.880  40.469   9.370
  445POPC   PO410260   9.244  39.864   9.486
  445POPC   GL110261   9.113  39.980   9.069
  445POPC   GL210262   8.779  40.167   8.962
  445POPC   C1A10263   9.017  39.851   8.630
  445POPC   D2A10264   8.775  40.114   8.350
  445POPC   C3A10265   8.954  40.100   7.977
  445POPC   C4A10266   9.258  39.834   7.853
  445POPC   C1B10267   8.434  39.972   8.720
  445POPC   C2B10268   8.515  39.658   8.409
  445POPC   C3B10269   8.801  39.603   8.049
  445POPC   C4B10270   8.787  39.755   7.613
  446POPC   NC310271  23.317  25.921   9.469
  446POPC   PO410272  22.785  26.198   9.412
  446POPC   GL110273  22.938  26.023   9.112
  446POPC   GL210274  23.244  26.231   9.068
  446POPC   C1A10275  22.685  25.969   8.761
  446POPC   D2A10276  22.686  26.163   8.384
  446POPC   C3A10277  22.732  25.881   8.058
  446POPC   C4A10278  22.689  26.155   7.733
  446POPC   C1B10279  23.138  26.149   8.664
  446POPC   C2B10280  23.155  25.952   8.314
  446POPC   C3B10281  23.178  26.097   7.901
  446POPC   C4B10282  23.555  26.171   7.697
  447POPC   NC310283  11.592  27.968   9.407
  447POPC   PO410284  11.250  27.424   9.314
  447POPC   GL110285  11.514  27.542   9.025
  447POPC   GL210286  11.384  27.858   8.957
  447POPC   C1A10287  11.558  27.298   8.676
  447POPC   D2A10288  11.331  27.162   8.328
  447POPC   C3A10289  11.388  27.148   7.901
  447POPC   C4A10290  11.443  27.511   7.647
  447POPC   C1B10291  11.148  27.622   8.661
  447POPC   C2B10292  11.439  27.697   8.353
  447POPC   C3B10293  11.396  27.946   8.010
  447POPC   C4B10294  11.107  27.876   7.719
  448POPC   NC310295  37.247  18.321   9.184
  448POPC   PO410296  36.677  18.434   9.487
  448POPC   GL110297  36.740  18.327   9.088
  448POPC   GL210298  36.643  18.018   8.966
  448POPC   C1A10299  36.857  18.348   8.671
  448POPC   D2A10300  36.667  18.090   8.397
  448POPC   C3A10301  36.861  18.222   8.057
  448POPC   C4A10302  36.821  18.358   7.657
  448POPC   C1B10303  37.008  17.845   8.730
  448POPC   C2B10304  37.145  17.845   8.303
  448POPC   C3B10305  37.308  18.005   7.903
  448POPC   C4B10306  37.266  18.192   7.500
  449POPC   NC310307  34.178  26.365   9.468
  449POPC   PO410308  34.674  25.927   9.492
  449POPC   GL110309  34.449  25.749   9.155
  449POPC   GL210310  34.402  26.113   9.086
  449POPC   C1A10311  34.336  25.794   8.716
  449POPC   D2A10312  34.449  26.067   8.417
  449POPC   C3A10313  34.422  25.920   8.021
  449POPC   C4A10314  34.806  25.888   7.797
  449POPC   C1B10315  34.105  26.258   8.795
  449POPC   C2B10316  34.161  26.479   8.442
  449POPC   C3B10317  34.325  26.487   8.044
  449POPC   C4B10318  34.093  26.233   7.761
  450POPC   NC310319   7.960  44.513   9.673
  450POPC   PO410320   8.544  44.785   9.527
  450POPC   GL110321   8.475  44.721   9.142
  450POPC   GL210322   8.172  44.537   9.173
  450POPC   C1A10323   8.310  44.908   8.760
  450POPC   D2A10324   8.397  44.814   8.343
  450POPC   C3A10325   8.566   0.145   8.074
  450POPC   C4A10326   8.416  44.927   7.742
  450POPC   C1B10327   8.363  44.403   8.778
  450POPC   C2B10328   8.226  44.331   8.385
  450POPC   C3B10329   8.196  44.454   7.982
  450POPC   C4B10330   8.531  44.425   7.727
  451POPC   NC310331  26.053   7.577   9.562
  451POPC   PO410332  26.398   7.379   9.091
  451POPC   GL110333  25.990   7.251   9.069
  451POPC   GL210334  25.749   7.463   9.166
  451POPC   C1A10335  25.884   7.267   8.644
  451POPC   D2A10336  26.026   7.530   8.332
  451POPC   C3A10337  26.041   7.282   7.984
  451POPC   C4A10338  26.429   7.116   7.890
  451POPC   C1B10339  25.771   7.732   8.795
  451POPC   C2B10340  25.587   7.765   8.374
  451POPC   C3B10341  25.748   7.732   7.935
  451POPC   C4B10342  25.695   7.839   7.509
  452POPC   NC310343  24.130  36.341   9.529
  452POPC   PO410344  23.416  36.085   9.490
  452POPC   GL110345  23.704  36.245   9.207
  452POPC   GL210346  23.894  35.951   9.308
  452POPC   C1A10347  23.504  36.187   8.816
  452POPC   D2A10348  23.337  36.171   8.423
  452POPC   C3A10349  23.617  36.264   8.126
  452POPC   C4A10350  23.547  36.280   7.721
  452POPC   C1B10351  23.889  35.856   8.882
  452POPC   C2B10352  23.802  35.923   8.460
  452POPC   C3B10353  23.675  35.726   8.086
  452POPC   C4B10354  23.805  35.836   7.682
  453POPC   NC310355  10.817  38.167   9.537
  453POPC   PO410356  10.559  37.612   9.427
  453POPC   GL110357  10.504  37.908   9.123
  453POPC   GL210358  10.617  37.574   8.928
  453POPC   C1A10359  10.343  37.927   8.703
  453POPC   D2A10360  10.423  37.557   8.455
  453POPC   C3A10361  10.613  37.600   8.088
  453POPC   C4A10362  10.445  37.562   7.703
  453POPC   C1B10363  10.928  37.392   8.642
  453POPC   C2B10364  10.989  37.199   8.229
  453POPC   C3B10365  10.992  37.374   7.790
  453POPC   C4B10366  10.804  37.575   7.377
  454POPC   NC310367  30.106  19.838   9.490
  454POPC   PO410368  29.602  20.259   9.266
  454POPC   GL110369  29.951  20.070   9.051
  454POPC   GL210370  29.894  19.704   9.061
  454POPC   C1A10371  30.125  19.951   8.648
  454POPC   D2A10372  30.095  19.592   8.372
  454POPC   C3A10373  30.170  19.707   7.949
  454POPC   C4A10374  30.092  20.108   7.745
  454POPC   C1B10375  29.651  19.702   8.723
  454POPC   C2B10376  29.655  19.854   8.314
  454POPC   C3B10377  29.670  19.794   7.885
  454POPC   C4B10378  29.526  19.477   7.665
  455POPC   NC310379  21.845  13.081   9.509
  455POPC   PO410380  21.557  13.688   9.396
  455POPC   GL110381  21.449  13.371   9.076
  455POPC   GL210382  21.076  13.339   9.040
  455POPC   C1A10383  21.543  13.421   8.615
  455POPC   D2A10384  21.743  13.734   8.340
  455POPC   C3A10385  21.522  13.753   7.933
  455POPC   C4A10386  21.526  13.716   7.483
  455POPC   C1B10387  21.180  13.720   8.816
  455POPC   C2B10388  21.232  13.815   8.398
  455POPC   C3B10389  21.044  13.979   8.047
  455POPC   C4B10390  21.023  13.730   7.661
  456POPC   NC310391  13.468  28.314   9.444
  456POPC   PO410392  13.994  28.681   9.400
  456POPC   GL110393  13.858  28.400   9.028
  456POPC   GL210394  13.499  28.263   8.935
  456POPC   C1A10395  13.876  28.306   8.547
  456POPC   D2A10396  13.517  28.172   8.253
  456POPC   C3A10397  13.645  27.980   7.847
  456POPC   C4A10398  14.023  28.177   7.638
  456POPC   C1B10399  13.509  28.621   8.700
  456POPC   C2B10400  13.604  28.728   8.289
  456POPC   C3B10401  13.758  28.551   7.943
  456POPC   C4B10402  13.443  28.416   7.679
  457POPC   NC310403  31.138   5.712   9.506
  457POPC   PO410404  31.620   6.230   9.530
  457POPC   GL110405  31.482   6.024   9.106
  457POPC   GL210406  31.156   6.081   9.125
  457POPC   C1A10407  31.664   5.915   8.670
  457POPC   D2A10408  31.657   5.637   8.289
  457POPC   C3A10409  31.553   5.815   7.884
  457POPC   C4A10410  31.838   6.082   7.642
  457POPC   C1B10411  31.271   6.279   8.722
  457POPC   C2B10412  31.297   6.119   8.327
  457POPC   C3B10413  31.202   6.265   7.924
  457POPC   C4B10414  31.357   6.251   7.510
  458POPC   NC310415  17.915  38.412   9.434
  458POPC   PO410416  18.495  38.734   9.469
  458POPC   GL110417  18.386  38.495   9.134
  458POPC   GL210418  18.128  38.733   9.109
  458POPC   C1A10419  18.121  38.396   8.733
  458POPC   D2A10420  17.898  38.440   8.336
  458POPC   C3A10421  18.073  38.204   8.015
  458POPC   C4A10422  18.428  38.261   7.732
  458POPC   C1B10423  18.414  38.824   8.763
  458POPC   C2B10424  18.574  38.736   8.343
  458POPC   C3B10425  18.313  38.667   8.025
  458POPC   C4B10426  18.105  38.648   7.672
  459POPC   NC310427  24.765  30.591   9.573
  459POPC   PO410428  25.407  30.510   9.520
  459POPC   GL110429  25.314  30.516   9.111
  459POPC   GL210430  25.598  30.325   9.040
  459POPC   C1A10431  25.066  30.666   8.739
  459POPC   D2A10432  25.197  30.828   8.346
  459POPC   C3A10433  25.243  30.608   7.960
  459POPC   C4A10434  24.999  30.740   7.612
  459POPC   C1B10435  25.578  30.657   8.697
  459POPC   C2B10436  25.650  30.554   8.273
  459POPC   C3B10437  25.744  30.506   7.821
  459POPC   C4B10438  25.651  30.408   7.369
  460POPC   NC310439  23.459  43.287   9.879
  460POPC   PO410440  23.844  43.441   9.646
  460POPC   GL110441  23.856  43.385   9.172
  460POPC   GL210442  23.621  43.567   8.928
  460POPC   C1A10443  23.872  43.160   8.776
  460POPC   D2A10444  24.093  43.202   8.345
  460POPC   C3A10445  23.879  43.054   7.920
  460POPC   C4A10446  23.932  43.021   7.462
  460POPC   C1B10447  23.657  43.492   8.460
  460POPC   C2B10448  23.870  43.550   8.063
  460POPC   C3B10449  23.720  43.488   7.663
  460POPC   C4B10450  23.549  43.659   7.316
  461POPC   NC310451  43.140  29.512   9.528
  461POPC   PO410452  43.412  30.115   9.531
  461POPC   GL110453  43.187  29.937   9.188
  461POPC   GL210454  43.383  29.624   9.094
  461POPC   C1A10455  43.127  30.037   8.740
  461POPC   D2A10456  42.879  30.111   8.353
  461POPC   C3A10457  43.103  29.889   8.021
  461POPC   C4A10458  43.144  30.164   7.675
  461POPC   C1B10459  42.950  29.572   8.895
  461POPC   C2B10460  42.874  29.601   8.444
  461POPC   C3B10461  42.788  29.410   8.037
  461POPC   C4B10462  42.925  29.498   7.655
  462POPC   NC310463  11.667   4.091   9.404
  462POPC   PO410464  12.170   4.540   9.496
  462POPC   GL110465  12.214   4.387   9.093
  462POPC   GL210466  12.022   4.108   9.038
  462POPC   C1A10467  12.209   4.356   8.634
  462POPC   D2A10468  12.515   4.473   8.351
  462POPC   C3A10469  12.284   4.523   7.986
  462POPC   C4A10470  12.049   4.246   7.717
  462POPC   C1B10471  12.111   3.844   8.656
  462POPC   C2B10472  12.033   3.883   8.209
  462POPC   C3B10473  11.803   3.797   7.814
  462POPC   C4B10474  11.703   4.009   7.402
  463POPC   NC310475   6.360  40.361   9.450
  463POPC   PO410476   6.590  39.677   9.460
  463POPC   GL110477   6.677  39.818   9.088
  463POPC   GL210478   6.621  40.159   9.052
  463POPC   C1A10479   6.899  39.880   8.729
  463POPC   D2A10480   6.681  39.867   8.395
  463POPC   C3A10481   6.945  39.817   8.106
  463POPC   C4A10482   6.906  39.899   7.710
  463POPC   C1B10483   6.480  40.436   8.712
  463POPC   C2B10484   6.396  40.312   8.309
  463POPC   C3B10485   6.567  40.156   7.969
  463POPC   C4B10486   6.621  40.307   7.579
  464POPC   NC310487  44.144  18.456   9.690
  464POPC   PO410488  43.571  18.188   9.525
  464POPC   GL110489  43.959  18.299   9.232
  464POPC   GL210490  44.146  18.640   9.204
  464POPC   C1A10491  43.983  18.227   8.773
  464POPC   D2A10492  43.637  18.390   8.478
  464POPC   C3A10493  43.669  18.473   8.022
  464POPC   C4A10494  43.960  18.239   7.752
  464POPC   C1B10495  43.944  18.719   8.783
  464POPC   C2B10496  44.046  18.701   8.321
  464POPC   C3B10497  44.014  18.788   7.861
  464POPC   C4B10498  43.975  18.630   7.423
  465POPC   NC310499  11.430   8.432   9.849
  465POPC   PO410500  11.458   9.054   9.636
  465POPC   GL110501  11.364   9.032   9.168
  465POPC   GL210502  11.404   8.657   9.157
  465POPC   C1A10503  11.113   9.020   8.748
  465POPC   D2A10504  11.358   9.053   8.332
  465POPC   C3A10505  11.203   8.976   7.938
  465POPC   C4A10506  10.892   9.214   7.740
  465POPC   C1B10507  11.563   8.790   8.753
  465POPC   C2B10508  11.689   8.650   8.357
  465POPC   C3B10509  11.717   8.855   7.961
  465POPC   C4B10510  11.607   9.222   7.741
  466POPC   NC310511   1.416   8.466   9.195
  466POPC   PO410512   1.091   8.015   9.488
  466POPC   GL110513   1.195   8.042   9.055
  466POPC   GL210514   1.505   7.948   9.177
  466POPC   C1A10515   1.112   8.298   8.649
  466POPC   D2A10516   0.968   8.544   8.272
  466POPC   C3A10517   1.181   8.336   7.931
  466POPC   C4A10518   1.210   7.903   7.869
  466POPC   C1B10519   1.655   7.940   8.789
  466POPC   C2B10520   1.497   8.018   8.405
  466POPC   C3B10521   1.818   8.178   8.179
  466POPC   C4B10522   1.727   8.018   7.831
  467POPC   NC310523  28.693   5.399   9.953
  467POPC   PO410524  28.207   5.316   9.457
  467POPC   GL110525  28.250   5.014   9.173
  467POPC   GL210526  28.543   4.901   9.265
  467POPC   C1A10527  28.214   4.817   8.795
  467POPC   D2A10528  28.374   4.977   8.421
  467POPC   C3A10529  28.184   4.906   8.042
  467POPC   C4A10530  28.372   4.982   7.658
  467POPC   C1B10531  28.656   5.096   8.844
  467POPC   C2B10532  28.748   5.332   8.461
  467POPC   C3B10533  28.667   5.177   8.034
  467POPC   C4B10534  28.620   5.420   7.647
  468POPC   NC310535  11.002  27.047   9.448
  468POPC   PO410536  11.567  26.861   9.712
  468POPC   GL110537  11.388  26.716   9.224
  468POPC   GL210538  11.065  26.751   9.041
  468POPC   C1A10539  11.414  26.757   8.710
  468POPC   D2A10540  11.051  26.743   8.371
  468POPC   C3A10541  11.225  26.634   7.938
  468POPC   C4A10542  11.671  26.735   7.803
  468POPC   C1B10543  11.021  27.116   8.753
  468POPC   C2B10544  10.846  27.305   8.370
  468POPC   C3B10545  10.959  27.440   7.945
  468POPC   C4B10546  11.040  27.208   7.537
  469POPC   NC310547   4.657  30.451   9.534
  469POPC   PO410548   4.989  29.892   9.497
  469POPC   GL110549   5.306  29.820   9.227
  469POPC   GL210550   5.430  29.524   9.179
  469POPC   C1A10551   5.377  29.920   8.824
  469POPC   D2A10552   5.249  30.028   8.441
  469POPC   C3A10553   5.462  29.804   8.133
  469POPC   C4A10554   5.648  29.983   7.794
  469POPC   C1B10555   5.032  29.550   8.892
  469POPC   C2B10556   5.035  29.563   8.458
  469POPC   C3B10557   4.949  29.794   8.096
  469POPC   C4B10558   4.941  29.842   7.674
  470POPC   NC310559  37.207   7.795   9.545
  470POPC   PO410560  36.910   8.447   9.461
  470POPC   GL110561  37.078   8.129   9.145
  470POPC   GL210562  37.402   7.946   9.118
  470POPC   C1A10563  36.931   8.219   8.727
  470POPC   D2A10564  36.912   8.499   8.387
  470POPC   C3A10565  36.666   8.384   8.034
  470POPC   C4A10566  36.817   8.383   7.610
  470POPC   C1B10567  37.238   7.826   8.729
  470POPC   C2B10568  37.030   7.889   8.341
  470POPC   C3B10569  37.079   8.083   7.962
  470POPC   C4B10570  36.960   7.856   7.628
  471POPC   NC310571  27.647  31.121   9.461
  471POPC   PO410572  27.349  31.719   9.403
  471POPC   GL110573  27.520  31.632   9.026
  471POPC   GL210574  27.739  31.379   9.045
  471POPC   C1A10575  27.580  31.560   8.599
  471POPC   D2A10576  27.795  31.484   8.273
  471POPC   C3A10577  27.594  31.806   8.076
  471POPC   C4A10578  27.280  31.715   7.798
  471POPC   C1B10579  27.386  31.160   8.825
  471POPC   C2B10580  27.188  31.205   8.424
  471POPC   C3B10581  27.315  31.192   7.992
  471POPC   C4B10582  27.737  31.201   7.835
  472POPC   NC310583  31.712  29.061   9.453
  472POPC   PO410584  31.435  29.655   9.510
  472POPC   GL110585  31.518  29.407   9.133
  472POPC   GL210586  31.292  29.077   9.156
  472POPC   C1A10587  31.543  29.220   8.724
  472POPC   D2A10588  31.337  29.314   8.339
  472POPC   C3A10589  31.596  29.358   7.984
  472POPC   C4A10590  31.594  28.982   7.758
  472POPC   C1B10591  31.096  28.935   8.759
  472POPC   C2B10592  31.195  28.742   8.346
  472POPC   C3B10593  31.138  28.879   7.937
  472POPC   C4B10594  31.107  29.312   7.827
  473POPC   NC310595   6.611   4.573   9.356
  473POPC   PO410596   6.880   3.976   9.464
  473POPC   GL110597   6.770   4.154   9.070
  473POPC   GL210598   6.985   4.426   9.060
  473POPC   C1A10599   6.562   4.371   8.706
  473POPC   D2A10600   6.264   4.324   8.360
  473POPC   C3A10601   6.395   4.335   7.919
  473POPC   C4A10602   6.261   4.282   7.444
  473POPC   C1B10603   7.011   4.644   8.705
  473POPC   C2B10604   6.886   4.514   8.277
  473POPC   C3B10605   6.914   4.434   7.824
  473POPC   C4B10606   7.106   4.507   7.389
  474POPC   NC310607  42.017   2.318   9.536
  474POPC   PO410608  41.900   2.936   9.498
  474POPC   GL110609  42.079   2.639   9.134
  474POPC   GL210610  42.395   2.418   9.187
  474POPC   C1A10611  41.975   2.578   8.675
  474POPC   D2A10612  42.094   2.763   8.254
  474POPC   C3A10613  42.005   2.569   7.826
  474POPC   C4A10614  41.885   2.710   7.417
  474POPC   C1B10615  42.472   2.573   8.776
  474POPC   C2B10616  42.580   2.798   8.405
  474POPC   C3B10617  42.478   2.939   7.967
  474POPC   C4B10618  42.422   2.731   7.566
  475POPC   NC310619  32.597  43.602   9.451
  475POPC   PO410620  32.104  43.254   9.429
  475POPC   GL110621  32.260  43.284   9.035
  475POPC   GL210622  32.355  42.949   9.061
  475POPC   C1A10623  32.049  43.104   8.687
  475POPC   D2A10624  31.819  43.155   8.346
  475POPC   C3A10625  31.751  42.909   8.008
  475POPC   C4A10626  31.692  43.152   7.624
  475POPC   C1B10627  32.540  43.028   8.628
  475POPC   C2B10628  32.313  43.350   8.335
  475POPC   C3B10629  32.135  43.290   7.933
  475POPC   C4B10630  32.202  42.900   7.740
  476POPC   NC310631   8.956  21.442   9.693
  476POPC   PO410632   9.344  21.666   9.247
  476POPC   GL110633   8.967  21.454   9.102
  476POPC   GL210634   8.875  21.127   9.183
  476POPC   C1A10635   9.039  21.333   8.695
  476POPC   D2A10636   8.992  21.480   8.304
  476POPC   C3A10637   9.273  21.416   8.006
  476POPC   C4A10638   9.192  21.401   7.577
  476POPC   C1B10639   8.701  20.965   8.792
  476POPC   C2B10640   8.812  20.986   8.357
  476POPC   C3B10641   8.948  21.041   7.933
  476POPC   C4B10642   8.808  21.088   7.508
  477POPC   NC310643  24.974   2.966   9.495
  477POPC   PO410644  24.333   2.826   9.528
  477POPC   GL110645  24.549   2.795   9.147
  477POPC   GL210646  24.242   2.675   8.984
  477POPC   C1A10647  24.519   3.090   8.808
  477POPC   D2A10648  24.351   3.162   8.379
  477POPC   C3A10649  24.540   2.957   8.008
  477POPC   C4A10650  24.445   2.776   7.591
  477POPC   C1B10651  24.153   2.445   8.589
  477POPC   C2B10652  24.302   2.531   8.184
  477POPC   C3B10653  24.189   2.384   7.787
  477POPC   C4B10654  24.347   2.294   7.397
  478POPC   NC310655  25.478  24.271   9.651
  478POPC   PO410656  24.940  24.620   9.525
  478POPC   GL110657  25.294  24.540   9.239
  478POPC   GL210658  25.382  24.201   9.149
  478POPC   C1A10659  25.430  24.613   8.826
  478POPC   D2A10660  25.371  24.784   8.425
  478POPC   C3A10661  25.692  24.598   8.128
  478POPC   C4A10662  25.510  24.260   7.854
  478POPC   C1B10663  25.046  24.256   8.836
  478POPC   C2B10664  24.945  24.016   8.436
  478POPC   C3B10665  24.975  24.050   7.988
  478POPC   C4B10666  24.994  24.385   7.687
  479POPC   NC310667   9.962   2.352   9.402
  479POPC   PO410668  10.174   1.695   9.402
  479POPC   GL110669  10.064   1.813   9.005
  479POPC   GL210670   9.974   2.126   8.916
  479POPC   C1A10671  10.048   1.673   8.621
  479POPC   D2A10672   9.771   1.568   8.307
  479POPC   C3A10673   9.739   1.865   8.033
  479POPC   C4A10674   9.967   1.977   7.668
  479POPC   C1B10675   9.653   2.026   8.590
  479POPC   C2B10676   9.661   2.318   8.276
  479POPC   C3B10677   9.684   2.354   7.852
  479POPC   C4B10678   9.667   2.418   7.393
  480POPC   NC310679  31.769  33.999   9.376
  480POPC   PO410680  31.489  33.433   9.277
  480POPC   GL110681  31.423  33.798   9.019
  480POPC   GL210682  31.258  34.051   9.200
  480POPC   C1A10683  31.659  34.102   8.723
  480POPC   D2A10684  31.853  33.888   8.348
  480POPC   C3A10685  31.558  33.557   8.169
  480POPC   C4A10686  31.428  33.648   7.731
  480POPC   C1B10687  31.127  34.138   8.794
  480POPC   C2B10688  31.286  33.922   8.420
  480POPC   C3B10689  31.382  34.073   8.009
  480POPC   C4B10690  31.340  34.161   7.562
  481POPC   NC310691  30.350  27.785   9.555
  481POPC   PO410692  29.660  27.536   9.453
  481POPC   GL110693  29.972  27.675   9.204
  481POPC   GL210694  30.155  27.368   9.315
  481POPC   C1A10695  29.799  27.696   8.786
  481POPC   D2A10696  29.708  27.558   8.391
  481POPC   C3A10697  29.710  27.789   8.026
  481POPC   C4A10698  29.880  27.669   7.612
  481POPC   C1B10699  30.053  27.251   8.917
  481POPC   C2B10700  30.166  27.307   8.506
  481POPC   C3B10701  30.070  27.355   8.082
  481POPC   C4B10702  30.022  27.189   7.670
  482POPC   NC310703  36.627   3.452   9.692
  482POPC   PO410704  37.063   3.895   9.468
  482POPC   GL110705  36.772   3.807   9.119
  482POPC   GL210706  36.652   3.497   9.152
  482POPC   C1A10707  36.771   3.652   8.658
  482POPC   D2A10708  37.188   3.498   8.479
  482POPC   C3A10709  37.273   3.528   8.063
  482POPC   C4A10710  36.973   3.633   7.772
  482POPC   C1B10711  36.987   3.282   8.908
  482POPC   C2B10712  36.930   3.037   8.549
  482POPC   C3B10713  36.867   3.198   8.124
  482POPC   C4B10714  36.581   3.335   7.768
  483POPC   NC310715  23.479  23.157   9.434
  483POPC   PO410716  23.818  23.724   9.598
  483POPC   GL110717  23.777  23.634   9.168
  483POPC   GL210718  23.463  23.479   9.052
  483POPC   C1A10719  23.653  23.901   8.792
  483POPC   D2A10720  23.614  24.092   8.372
  483POPC   C3A10721  23.608  23.797   8.042
  483POPC   C4A10722  23.662  23.878   7.617
  483POPC   C1B10723  23.759  23.377   8.712
  483POPC   C2B10724  23.725  23.322   8.266
  483POPC   C3B10725  23.600  23.323   7.848
  483POPC   C4B10726  23.270  23.564   7.631
  484POPC   NC310727  41.401  20.731   9.851
  484POPC   PO410728  41.337  20.527   9.414
  484POPC   GL110729  41.583  20.573   9.002
  484POPC   GL210730  41.851  20.826   9.095
  484POPC   C1A10731  41.489  20.571   8.528
  484POPC   D2A10732  41.420  20.488   8.076
  484POPC   C3A10733  41.518  20.793   7.785
  484POPC   C4A10734  41.390  21.032   7.423
  484POPC   C1B10735  41.959  20.762   8.661
  484POPC   C2B10736  41.865  20.764   8.200
  484POPC   C3B10737  41.909  20.465   7.846
  484POPC   C4B10738  41.988  20.360   7.417
  485POPC   NC310739  22.798  22.897   9.417
  485POPC   PO410740  23.473  22.656   9.518
  485POPC   GL110741  23.232  22.859   9.115
  485POPC   GL210742  22.892  22.738   8.941
  485POPC   C1A10743  23.128  23.138   8.751
  485POPC   D2A10744  22.857  22.883   8.466
  485POPC   C3A10745  22.968  22.802   8.085
  485POPC   C4A10746  23.120  23.122   7.847
  485POPC   C1B10747  22.615  23.133   8.839
  485POPC   C2B10748  22.733  23.405   8.494
  485POPC   C3B10749  22.622  23.184   8.121
  485POPC   C4B10750  22.635  23.174   7.702
  486POPC   NC310751  11.045  36.620   9.582
  486POPC   PO410752  11.461  37.181   9.409
  486POPC   GL110753  11.314  37.091   9.026
  486POPC   GL210754  11.174  36.743   9.068
  486POPC   C1A10755  11.518  37.063   8.614
  486POPC   D2A10756  11.368  36.773   8.281
  486POPC   C3A10757  11.547  36.738   7.894
  486POPC   C4A10758  11.395  37.042   7.642
  486POPC   C1B10759  11.035  36.833   8.669
  486POPC   C2B10760  10.868  36.679   8.278
  486POPC   C3B10761  10.981  36.775   7.843
  486POPC   C4B10762  11.228  36.553   7.494
  487POPC   NC310763  18.364  41.724   9.563
  487POPC   PO410764  18.273  41.044   9.563
  487POPC   GL110765  18.303  41.322   9.192
  487POPC   GL210766  18.446  41.685   9.070
  487POPC   C1A10767  18.158  41.330   8.780
  487POPC   D2A10768  18.374  41.364   8.415
  487POPC   C3A10769  18.217  41.284   8.001
  487POPC   C4A10770  18.498  41.466   7.737
  487POPC   C1B10771  18.178  41.839   8.737
  487POPC   C2B10772  18.013  41.744   8.319
  487POPC   C3B10773  18.165  41.826   7.906
  487POPC   C4B10774  18.530  41.963   7.655
  488POPC   NC310775  33.340  12.380   9.420
  488POPC   PO410776  33.196  11.801   9.756
  488POPC   GL110777  33.025  11.987   9.340
  488POPC   GL210778  33.284  11.841   9.216
  488POPC   C1A10779  33.076  12.171   8.869
  488POPC   D2A10780  33.137  11.998   8.432
  488POPC   C3A10781  33.165  12.263   8.071
  488POPC   C4A10782  32.821  12.292   7.752
  488POPC   C1B10783  33.202  11.657   8.839
  488POPC   C2B10784  33.331  11.470   8.453
  488POPC   C3B10785  33.298  11.624   8.020
  488POPC   C4B10786  32.920  11.830   7.909
  489POPC   NC310787   9.041   6.878   9.337
  489POPC   PO410788   8.844   7.449   9.604
  489POPC   GL110789   8.951   7.403   9.184
  489POPC   GL210790   9.064   7.732   9.188
  489POPC   C1A10791   9.052   7.278   8.732
  489POPC   D2A10792   9.036   7.318   8.277
  489POPC   C3A10793   8.706   7.290   7.979
  489POPC   C4A10794   9.045   7.293   7.688
  489POPC   C1B10795   8.857   7.766   8.814
  489POPC   C2B10796   9.067   7.800   8.437
  489POPC   C3B10797   8.894   7.756   8.044
  489POPC   C4B10798   8.767   7.741   7.648
  490POPC   NC310799  30.891   3.584   9.774
  490POPC   PO410800  31.435   3.839   9.579
  490POPC   GL110801  31.011   3.757   9.297
  490POPC   GL210802  30.889   3.390   9.274
  490POPC   C1A10803  30.728   3.711   8.901
  490POPC   D2A10804  30.517   3.751   8.473
  490POPC   C3A10805  30.766   3.693   8.084
  490POPC   C4A10806  30.523   3.688   7.724
  490POPC   C1B10807  30.794   3.176   8.881
  490POPC   C2B10808  30.784   3.299   8.458
  490POPC   C3B10809  30.455   3.297   8.160
  490POPC   C4B10810  30.580   3.113   7.797
  491POPC   NC310811  37.167  37.224   9.527
  491POPC   PO410812  37.308  36.593   9.431
  491POPC   GL110813  37.045  36.797   9.096
  491POPC   GL210814  36.979  37.136   9.067
  491POPC   C1A10815  36.640  36.718   8.849
  491POPC   D2A10816  36.367  36.546   8.511
  491POPC   C3A10817  36.497  36.457   8.082
  491POPC   C4A10818  36.529  36.782   7.796
  491POPC   C1B10819  36.903  37.094   8.635
  491POPC   C2B10820  36.881  36.772   8.311
  491POPC   C3B10821  36.981  36.941   7.909
  491POPC   C4B10822  36.754  37.299   7.740
  492POPC   NC310823   2.005  30.272   9.581
  492POPC   PO410824   2.101  29.597   9.599
  492POPC   GL110825   1.964  29.848   9.254
  492POPC   GL210826   1.634  30.020   9.291
  492POPC   C1A10827   2.045  29.871   8.792
  492POPC   D2A10828   2.252  29.978   8.414
  492POPC   C3A10829   2.046  29.979   8.053
  492POPC   C4A10830   2.281  29.904   7.747
  492POPC   C1B10831   1.601  30.169   8.832
  492POPC   C2B10832   1.790  30.239   8.415
  492POPC   C3B10833   1.814  30.417   7.957
  492POPC   C4B10834   1.689  30.483   7.512
  493POPC   NC310835  27.117   3.348   9.463
  493POPC   PO410836  26.580   3.671   9.676
  493POPC   GL110837  26.593   3.694   9.230
  493POPC   GL210838  26.917   3.602   9.068
  493POPC   C1A10839  26.432   3.612   8.811
  493POPC   D2A10840  26.638   3.588   8.406
  493POPC   C3A10841  26.485   3.519   7.972
  493POPC   C4A10842  26.717   3.461   7.565
  493POPC   C1B10843  27.127   3.298   8.814
  493POPC   C2B10844  27.083   3.308   8.404
  493POPC   C3B10845  26.993   3.466   8.035
  493POPC   C4B10846  27.215   3.402   7.673
  494POPC   NC310847  10.557   5.381   9.484
  494POPC   PO410848  10.421   4.735   9.672
  494POPC   GL110849  10.514   4.894   9.291
  494POPC   GL210850  10.153   4.970   9.222
  494POPC   C1A10851  10.827   4.893   8.955
  494POPC   D2A10852  10.803   5.112   8.571
  494POPC   C3A10853  10.772   4.948   8.140
  494POPC   C4A10854  10.707   5.179   7.743
  494POPC   C1B10855  10.304   5.196   8.840
  494POPC   C2B10856  10.310   4.991   8.407
  494POPC   C3B10857  10.250   4.995   7.948
  494POPC   C4B10858  10.168   4.778   7.559
  495POPC   NC310859   1.605  38.145   9.343
  495POPC   PO410860   2.040  37.693   9.401
  495POPC   GL110861   1.817  37.733   9.037
  495POPC   GL210862   1.631  37.441   9.125
  495POPC   C1A10863   1.829  37.992   8.638
  495POPC   D2A10864   2.162  38.004   8.302
  495POPC   C3A10865   2.072  37.886   7.878
  495POPC   C4A10866   2.161  37.565   7.553
  495POPC   C1B10867   1.765  37.315   8.741
  495POPC   C2B10868   1.866  37.544   8.422
  495POPC   C3B10869   1.687  37.605   8.067
  495POPC   C4B10870   1.668  37.608   7.649
  496POPC   NC310871  33.724  10.184   9.639
  496POPC   PO410872  33.805   9.524   9.488
  496POPC   GL110873  34.017   9.687   9.141
  496POPC   GL210874  34.148  10.050   9.252
  496POPC   C1A10875  33.873   9.635   8.703
  496POPC   D2A10876  34.053   9.651   8.294
  496POPC   C3A10877  33.793   9.503   7.944
  496POPC   C4A10878  33.502   9.655   7.655
  496POPC   C1B10879  33.852  10.104   8.908
  496POPC   C2B10880  33.889  10.122   8.455
  496POPC   C3B10881  33.691   9.996   8.046
  496POPC   C4B10882  33.876   9.994   7.632
  497POPC   NC310883  43.274   9.964   9.554
  497POPC   PO410884  43.088   9.312   9.455
  497POPC   GL110885  43.096   9.640   9.130
  497POPC   GL210886  42.961   9.983   9.155
  497POPC   C1A10887  43.205   9.597   8.700
  497POPC   D2A10888  43.361   9.808   8.371
  497POPC   C3A10889  43.180   9.777   7.991
  497POPC   C4A10890  43.340   9.594   7.628
  497POPC   C1B10891  42.812   9.949   8.749
  497POPC   C2B10892  42.893  10.055   8.338
  497POPC   C3B10893  42.724  10.067   7.941
  497POPC   C4B10894  42.874   9.872   7.597
  498POPC   NC310895  31.363   1.553   9.886
  498POPC   PO410896  31.560   1.062   9.423
  498POPC   GL110897  31.514   1.219   9.004
  498POPC   GL210898  31.162   1.090   8.936
  498POPC   C1A10899  31.618   1.056   8.600
  498POPC   D2A10900  31.891   1.018   8.257
  498POPC   C3A10901  31.825   1.299   7.970
  498POPC   C4A10902  31.470   1.417   7.735
  498POPC   C1B10903  31.185   1.388   8.614
  498POPC   C2B10904  31.200   1.396   8.170
  498POPC   C3B10905  31.012   1.201   7.816
  498POPC   C4B10906  31.027   1.480   7.456
  499POPC   NC310907  23.430   0.953   9.681
  499POPC   PO410908  23.855   1.275   9.613
  499POPC   GL110909  23.761   1.143   9.190
  499POPC   GL210910  23.542   0.849   9.121
  499POPC   C1A10911  23.896   1.168   8.766
  499POPC   D2A10912  24.094   1.300   8.336
  499POPC   C3A10913  23.987   1.036   7.941
  499POPC   C4A10914  23.620   0.804   7.760
  499POPC   C1B10915  23.485   0.902   8.648
  499POPC   C2B10916  23.608   1.142   8.255
  499POPC   C3B10917  23.542   1.300   7.823
  499POPC   C4B10918  23.320   1.372   7.436
  500POPC   NC310919   8.737  29.253   9.544
  500POPC   PO410920   9.317  28.871   9.440
  500POPC   GL110921   9.080  29.176   9.172
  500POPC   GL210922   8.836  28.901   9.119
  500POPC   C1A10923   8.891  29.221   8.732
  500POPC   D2A10924   8.824  29.046   8.320
  500POPC   C3A10925   8.896  29.288   7.953
  500POPC   C4A10926   9.083  29.615   7.670
  500POPC   C1B10927   9.229  28.852   8.821
  500POPC   C2B10928   9.352  29.013   8.446
  500POPC   C3B10929   9.226  28.891   8.034
  500POPC   C4B10930   8.824  28.786   7.829
  501POPC   NC310931  19.807  37.801  10.047
  501POPC   PO410932  20.063  37.793   9.393
  501POPC   GL110933  19.706  37.825   9.085
  501POPC   GL210934  19.943  37.733   8.897
  501POPC   C1A10935  19.506  37.807   8.668
  501POPC   D2A10936  19.591  37.560   8.270
  501POPC   C3A10937  19.875  37.699   7.977
  501POPC   C4A10938  20.205  37.925   8.111
  501POPC   C1B10939  19.855  37.379   8.710
  501POPC   C2B10940  19.971  37.156   8.387
  501POPC   C3B10941  19.858  37.180   7.990
  501POPC   C4B10942  20.002  37.282   7.575
  502POPC   NC310943  30.312  31.186   9.521
  502POPC   PO410944  31.030  31.228   9.558
  502POPC   GL110945  30.776  31.453   9.254
  502POPC   GL210946  30.441  31.421   9.088
  502POPC   C1A10947  30.969  31.565   8.884
  502POPC   D2A10948  31.038  31.766   8.513
  502POPC   C3A10949  30.985  31.474   8.208
  502POPC   C4A10950  30.850  31.413   7.817
  502POPC   C1B10951  30.504  31.605   8.651
  502POPC   C2B10952  30.489  31.616   8.184
  502POPC   C3B10953  30.382  31.613   7.753
  502POPC   C4B10954  30.205  31.676   7.315
  503POPC   NC310955  19.370  43.686   9.585
  503POPC   PO410956  19.032  44.276   9.516
  503POPC   GL110957  18.993  43.971   9.159
  503POPC   GL210958  18.984  43.574   9.247
  503POPC   C1A10959  18.803  44.118   8.757
  503POPC   D2A10960  18.875  44.340   8.352
  503POPC   C3A10961  18.837  44.081   7.993
  503POPC   C4A10962  19.110  43.789   7.820
  503POPC   C1B10963  18.775  43.594   8.853
  503POPC   C2B10964  18.828  43.713   8.428
  503POPC   C3B10965  18.723  43.560   8.039
  503POPC   C4B10966  18.642  43.682   7.629
  504POPC   NC310967   8.845  26.264   9.444
  504POPC   PO410968   8.805  25.621   9.472
  504POPC   GL110969   8.862  25.857   9.118
  504POPC   GL210970   9.193  25.864   8.962
  504POPC   C1A10971   8.773  26.065   8.752
  504POPC   D2A10972   9.029  26.011   8.423
  504POPC   C3A10973   8.823  26.058   8.067
  504POPC   C4A10974   8.593  26.163   7.722
  504POPC   C1B10975   9.266  26.317   8.766
  504POPC   C2B10976   9.392  26.595   8.430
  504POPC   C3B10977   9.283  26.486   8.010
  504POPC   C4B10978   9.197  26.122   7.736
  505POPC   NC310979  18.452   0.750   9.601
  505POPC   PO410980  17.853   0.478   9.529
  505POPC   GL110981  18.075   0.574   9.141
  505POPC   GL210982  18.416   0.639   9.112
  505POPC   C1A10983  18.055   0.550   8.698
  505POPC   D2A10984  18.281   0.314   8.412
  505POPC   C3A10985  18.189   0.385   7.988
  505POPC   C4A10986  18.521   0.425   7.691
  505POPC   C1B10987  18.428   0.878   8.743
  505POPC   C2B10988  18.583   0.782   8.352
  505POPC   C3B10989  18.513   0.892   7.982
  505POPC   C4B10990  18.208   0.811   7.689
  506POPC   NC310991  11.051  30.459   9.413
  506POPC   PO410992  11.412  29.953   9.290
  506POPC   GL110993  11.201  29.986   8.962
  506POPC   GL210994  11.295  30.365   8.976
  506POPC   C1A10995  11.293  29.743   8.597
  506POPC   D2A10996  11.513  29.911   8.240
  506POPC   C3A10997  11.287  29.917   7.858
  506POPC   C4A10998  11.197  29.566   7.604
  506POPC   C1B10999  11.354  30.295   8.550
  506POPC   C2B11000  11.701  30.400   8.285
  506POPC   C3B11001  11.696  30.221   7.870
  506POPC   C4B11002  11.555  30.313   7.479
  507POPC   NC311003  34.242  40.286   9.694
  507POPC   PO411004  34.549  40.957   9.671
  507POPC   GL111005  34.494  40.841   9.236
  507POPC   GL211006  34.786  40.749   9.105
  507POPC   C1A11007  34.356  40.658   8.844
  507POPC   D2A11008  34.452  40.734   8.460
  507POPC   C3A11009  34.208  40.909   8.176
  507POPC   C4A11010  34.314  40.738   7.815
  507POPC   C1B11011  34.799  40.974   8.752
  507POPC   C2B11012  35.002  41.003   8.345
  507POPC   C3B11013  34.917  41.013   7.895
  507POPC   C4B11014  34.810  40.604   7.746
  508POPC   NC311015   4.825   3.694   9.503
  508POPC   PO411016   5.309   3.253   9.592
  508POPC   GL111017   5.163   3.381   9.218
  508POPC   GL211018   4.848   3.318   9.093
  508POPC   C1A11019   5.263   3.340   8.795
  508POPC   D2A11020   4.927   3.233   8.495
  508POPC   C3A11021   4.996   3.401   8.082
  508POPC   C4A11022   5.291   3.502   7.761
  508POPC   C1B11023   4.863   3.672   8.820
  508POPC   C2B11024   4.729   3.754   8.401
  508POPC   C3B11025   4.904   3.975   8.051
  508POPC   C4B11026   4.842   3.754   7.706
  509POPC   NC311027  16.096  43.444   9.505
  509POPC   PO411028  15.573  43.300   9.419
  509POPC   GL111029  15.833  43.333   9.053
  509POPC   GL211030  16.146  43.139   9.067
  509POPC   C1A11031  16.102  43.555   8.775
  509POPC   D2A11032  16.269  43.521   8.380
  509POPC   C3A11033  15.959  43.548   8.037
  509POPC   C4A11034  15.850  43.377   7.638
  509POPC   C1B11035  16.238  43.060   8.601
  509POPC   C2B11036  16.351  42.796   8.229
  509POPC   C3B11037  16.155  42.528   7.916
  509POPC   C4B11038  16.362  42.365   7.515
  510POPC   NC311039  37.609  23.403   9.600
  510POPC   PO411040  37.820  24.152   9.612
  510POPC   GL111041  38.003  24.050   9.169
  510POPC   GL211042  38.094  23.690   9.179
  510POPC   C1A11043  37.811  23.920   8.761
  510POPC   D2A11044  37.516  23.713   8.468
  510POPC   C3A11045  37.643  23.804   8.039
  510POPC   C4A11046  37.486  23.598   7.688
  510POPC   C1B11047  37.954  23.439   8.789
  510POPC   C2B11048  37.947  23.472   8.325
  510POPC   C3B11049  37.925  23.376   7.877
  510POPC   C4B11050  38.164  23.313   7.477
  511POPC   NC311051  24.056  32.975   9.364
  511POPC   PO411052  23.590  33.411   9.556
  511POPC   GL111053  23.405  33.123   9.193
  511POPC   GL211054  23.590  32.811   9.137
  511POPC   C1A11055  23.245  32.984   8.748
  511POPC   D2A11056  23.275  33.148   8.296
  511POPC   C3A11057  23.558  33.063   7.957
  511POPC   C4A11058  23.458  32.782   7.608
  511POPC   C1B11059  23.682  32.697   8.696
  511POPC   C2B11060  23.621  32.628   8.249
  511POPC   C3B11061  23.893  32.692   7.871
  511POPC   C4B11062  24.003  32.596   7.461
  512POPC   NC311063  41.344  41.004   9.520
  512POPC   PO411064  41.691  40.523   9.237
  512POPC   GL111065  41.482  40.833   9.040
  512POPC   GL211066  41.118  40.835   9.092
  512POPC   C1A11067  41.508  40.738   8.616
  512POPC   D2A11068  41.722  40.919   8.271
  512POPC   C3A11069  41.881  40.654   7.945
  512POPC   C4A11070  41.796  40.721   7.498
  512POPC   C1B11071  41.125  41.046   8.705
  512POPC   C2B11072  41.183  40.877   8.249
  512POPC   C3B11073  41.398  41.093   7.879
  512POPC   C4B11074  41.447  41.065   7.362
  513POPC   NC311075   8.662   5.307   9.463
  513POPC   PO411076   8.006   4.994   9.441
  513POPC   GL111077   8.312   4.945   9.109
  513POPC   GL211078   8.070   4.753   8.956
  513POPC   C1A11079   8.423   5.030   8.644
  513POPC   D2A11080   8.345   5.282   8.273
  513POPC   C3A11081   8.238   5.044   7.910
  513POPC   C4A11082   8.439   4.666   7.748
  513POPC   C1B11083   7.963   5.174   8.787
  513POPC   C2B11084   7.856   5.368   8.410
  513POPC   C3B11085   7.899   5.434   7.986
  513POPC   C4B11086   8.013   5.412   7.548
  514POPC   NC311087   6.179   5.593   9.482
  514POPC   PO411088   5.624   6.046   9.494
  514POPC   GL111089   5.751   5.786   9.169
  514POPC   GL211090   6.054   5.898   9.075
  514POPC   C1A11091   5.767   5.527   8.814
  514POPC   D2A11092   5.865   5.732   8.432
  514POPC   C3A11093   5.917   5.554   8.041
  514POPC   C4A11094   5.773   5.733   7.665
  514POPC   C1B11095   6.110   6.135   8.692
  514POPC   C2B11096   6.179   6.101   8.254
  514POPC   C3B11097   6.176   5.979   7.844
  514POPC   C4B11098   6.340   6.270   7.593
  515POPC   NC311099  39.997  35.903   9.343
  515POPC   PO411100  39.852  36.551   9.426
  515POPC   GL111101  40.018  36.346   9.082
  515POPC   GL211102  40.274  36.161   8.972
  515POPC   C1A11103  39.819  36.294   8.709
  515POPC   D2A11104  39.728  36.249   8.293
  515POPC   C3A11105  40.119  36.347   8.066
  515POPC   C4A11106  40.147  36.362   7.621
  515POPC   C1B11107  40.211  35.822   8.693
  515POPC   C2B11108  40.076  35.874   8.279
  515POPC   C3B11109  40.070  35.894   7.838
  515POPC   C4B11110  40.308  35.571   7.653
  516POPC   NC311111  33.041  14.052   9.439
  516POPC   PO411112  32.731  13.435   9.501
  516POPC   GL111113  32.922  13.647   9.146
  516POPC   GL211114  32.669  13.960   9.112
  516POPC   C1A11115  33.239  13.551   8.798
  516POPC   D2A11116  33.291  13.702   8.361
  516POPC   C3A11117  32.989  13.563   8.043
  516POPC   C4A11118  33.002  13.499   7.605
  516POPC   C1B11119  32.931  13.966   8.745
  516POPC   C2B11120  32.761  13.886   8.382
  516POPC   C3B11121  32.807  14.056   8.029
  516POPC   C4B11122  32.731  13.938   7.656
  517POPC   NC311123   4.560  25.519   9.463
  517POPC   PO411124   4.033  25.211   9.733
  517POPC   GL111125   4.108  25.143   9.276
  517POPC   GL211126   4.399  25.001   9.339
  517POPC   C1A11127   4.285  25.287   8.836
  517POPC   D2A11128   4.215  25.418   8.365
  517POPC   C3A11129   4.491  25.429   7.993
  517POPC   C4A11130   4.579  25.128   7.666
  517POPC   C1B11131   4.513  24.848   8.953
  517POPC   C2B11132   4.512  24.826   8.528
  517POPC   C3B11133   4.423  24.910   8.114
  517POPC   C4B11134   4.089  25.061   7.866
  518POPC   NC311135   6.337  14.168   9.533
  518POPC   PO411136   5.699  14.373   9.535
  518POPC   GL111137   5.861  14.370   9.169
  518POPC   GL211138   5.631  14.124   9.047
  518POPC   C1A11139   6.108  14.578   8.864
  518POPC   D2A11140   6.153  14.535   8.443
  518POPC   C3A11141   5.883  14.785   8.178
  518POPC   C4A11142   5.847  14.623   7.773
  518POPC   C1B11143   5.610  14.373   8.701
  518POPC   C2B11144   5.733  14.296   8.290
  518POPC   C3B11145   5.888  14.128   7.901
  518POPC   C4B11146   5.636  14.113   7.525
  519POPC   NC311147  14.988  32.004   9.549
  519POPC   PO411148  15.318  32.549   9.478
  519POPC   GL111149  15.231  32.230   9.136
  519POPC   GL211150  14.878  32.187   9.081
  519POPC   C1A11151  15.329  32.053   8.698
  519POPC   D2A11152  15.148  32.101   8.261
  519POPC   C3A11153  15.347  32.147   7.852
  519POPC   C4A11154  15.671  32.302   7.562
  519POPC   C1B11155  14.834  31.966   8.678
  519POPC   C2B11156  14.652  32.002   8.276
  519POPC   C3B11157  14.786  32.164   7.880
  519POPC   C4B11158  15.038  32.563   7.837
  520POPC   NC311159  26.604  10.954   9.450
  520POPC   PO411160  27.158  11.449   9.494
  520POPC   GL111161  26.879  11.360   9.191
  520POPC   GL211162  26.568  11.461   9.392
  520POPC   C1A11163  26.881  11.149   8.758
  520POPC   D2A11164  26.773  11.042   8.304
  520POPC   C3A11165  27.032  11.122   7.918
  520POPC   C4A11166  27.030  11.329   7.478
  520POPC   C1B11167  26.443  11.429   8.959
  520POPC   C2B11168  26.521  11.440   8.531
  520POPC   C3B11169  26.639  11.543   8.127
  520POPC   C4B11170  26.598  11.339   7.761
  521POPC   NC311171   4.144  39.479   9.569
  521POPC   PO411172   4.839  39.184   9.536
  521POPC   GL111173   4.559  39.048   9.169
  521POPC   GL211174   4.187  39.072   9.177
  521POPC   C1A11175   4.421  39.041   8.722
  521POPC   D2A11176   4.260  39.277   8.390
  521POPC   C3A11177   4.435  39.151   8.045
  521POPC   C4A11178   4.610  39.305   7.702
  521POPC   C1B11179   3.967  39.321   8.825
  521POPC   C2B11180   3.763  39.274   8.391
  521POPC   C3B11181   3.915  39.097   8.011
  521POPC   C4B11182   4.098  39.337   7.697
  522POPC   NC311183  30.884  15.404   9.425
  522POPC   PO411184  30.507  14.894   9.568
  522POPC   GL111185  30.629  15.073   9.135
  522POPC   GL211186  30.936  14.933   9.021
  522POPC   C1A11187  30.815  15.381   8.778
  522POPC   D2A11188  30.765  15.576   8.347
  522POPC   C3A11189  30.954  15.365   7.990
  522POPC   C4A11190  30.654  15.346   7.651
  522POPC   C1B11191  30.787  14.873   8.625
  522POPC   C2B11192  30.838  14.863   8.164
  522POPC   C3B11193  30.947  14.827   7.736
  522POPC   C4B11194  31.086  14.644   7.334
  523POPC   NC311195  40.520  27.393   9.576
  523POPC   PO411196  41.216  27.566   9.591
  523POPC   GL111197  40.933  27.478   9.266
  523POPC   GL211198  41.161  27.237   9.191
  523POPC   C1A11199  40.739  27.612   8.871
  523POPC   D2A11200  40.966  27.764   8.490
  523POPC   C3A11201  40.760  27.680   8.111
  523POPC   C4A11202  40.399  27.721   7.831
  523POPC   C1B11203  41.195  27.388   8.820
  523POPC   C2B11204  41.204  27.256   8.442
  523POPC   C3B11205  41.165  27.276   8.042
  523POPC   C4B11206  41.112  27.541   7.751
  524POPC   NC311207   1.725   4.485   9.315
  524POPC   PO411208   1.060   4.514   9.527
  524POPC   GL111209   0.961   4.381   9.124
  524POPC   GL211210   1.300   4.370   9.060
  524POPC   C1A11211   0.979   4.149   8.695
  524POPC   D2A11212   1.289   3.987   8.363
  524POPC   C3A11213   1.162   4.091   7.947
  524POPC   C4A11214   0.970   4.457   7.777
  524POPC   C1B11215   1.409   4.433   8.668
  524POPC   C2B11216   1.163   4.491   8.324
  524POPC   C3B11217   1.403   4.536   8.019
  524POPC   C4B11218   1.474   4.742   7.674
  525POPC   NC311219   1.560   6.565   9.368
  525POPC   PO411220   2.106   6.661   9.724
  525POPC   GL111221   2.089   6.789   9.274
  525POPC   GL211222   2.051   6.494   9.133
  525POPC   C1A11223   2.055   6.912   8.813
  525POPC   D2A11224   1.910   6.719   8.424
  525POPC   C3A11225   2.110   6.741   8.034
  525POPC   C4A11226   1.926   6.751   7.622
  525POPC   C1B11227   2.236   6.421   8.710
  525POPC   C2B11228   2.157   6.285   8.298
  525POPC   C3B11229   1.826   6.321   8.003
  525POPC   C4B11230   2.141   6.309   7.682
  526POPC   NC311231  43.361  16.655   9.611
  526POPC   PO411232  43.421  17.263   9.323
  526POPC   GL111233  43.291  16.839   9.110
  526POPC   GL211234  43.468  16.531   9.129
  526POPC   C1A11235  43.029  16.507   8.840
  526POPC   D2A11236  42.886  16.259   8.430
  526POPC   C3A11237  42.870  16.516   8.022
  526POPC   C4A11238  43.119  16.910   7.845
  526POPC   C1B11239  43.514  16.624   8.688
  526POPC   C2B11240  43.346  16.502   8.284
  526POPC   C3B11241  43.337  16.407   7.857
  526POPC   C4B11242  43.314  16.614   7.487
  527POPC   NC311243  12.279  20.269   9.525
  527POPC   PO411244  12.407  20.904   9.709
  527POPC   GL111245  12.278  20.780   9.259
  527POPC   GL211246  11.979  20.545   9.205
  527POPC   C1A11247  12.181  20.868   8.787
  527POPC   D2A11248  12.013  20.749   8.367
  527POPC   C3A11249  12.235  20.799   7.963
  527POPC   C4A11250  12.404  20.441   7.823
  527POPC   C1B11251  11.958  20.395   8.775
  527POPC   C2B11252  11.795  20.205   8.406
  527POPC   C3B11253  11.921  20.373   8.000
  527POPC   C4B11254  11.858  20.599   7.635
  528POPC   NC311255  39.958   7.815   9.564
  528POPC   PO411256  40.407   7.412   9.602
  528POPC   GL111257  40.122   7.403   9.182
  528POPC   GL211258  39.898   7.696   9.091
  528POPC   C1A11259  39.977   7.424   8.665
  528POPC   D2A11260  40.179   7.319   8.226
  528POPC   C3A11261  40.028   7.423   7.777
  528POPC   C4A11262  40.073   7.427   7.291
  528POPC   C1B11263  40.274   7.764   8.888
  528POPC   C2B11264  40.263   7.778   8.439
  528POPC   C3B11265  40.379   7.751   7.988
  528POPC   C4B11266  40.408   7.698   7.565
  529POPC   NC311267  35.599   1.662   9.371
  529POPC   PO411268  35.707   0.985   9.439
  529POPC   GL111269  35.517   1.028   9.035
  529POPC   GL211270  35.309   1.312   9.117
  529POPC   C1A11271  35.481   1.159   8.595
  529POPC   D2A11272  35.678   1.384   8.242
  529POPC   C3A11273  35.590   1.217   7.862
  529POPC   C4A11274  35.390   0.855   7.729
  529POPC   C1B11275  35.054   1.397   8.765
  529POPC   C2B11276  35.153   1.483   8.342
  529POPC   C3B11277  35.096   1.293   7.948
  529POPC   C4B11278  35.168   1.455   7.541
  530POPC   NC311279   6.795   6.264   9.579
  530POPC   PO411280   6.409   6.765   9.885
  530POPC   GL111281   6.359   6.647   9.377
  530POPC   GL211282   6.723   6.637   9.206
  530POPC   C1A11283   6.344   6.757   8.878
  530POPC   D2A11284   6.490   6.775   8.423
  530POPC   C3A11285   6.371   6.567   8.034
  530POPC   C4A11286   6.284   6.765   7.627
  530POPC   C1B11287   6.870   6.780   8.788
  530POPC   C2B11288   6.989   6.650   8.371
  530POPC   C3B11289   6.886   6.607   7.927
  530POPC   C4B11290   7.068   6.915   7.661
  531POPC   NC311291  27.660  12.466   9.633
  531POPC   PO411292  27.313  13.036   9.603
  531POPC   GL111293  27.512  12.820   9.251
  531POPC   GL211294  27.332  12.502   9.200
  531POPC   C1A11295  27.562  12.901   8.807
  531POPC   D2A11296  27.515  12.714   8.396
  531POPC   C3A11297  27.610  12.950   8.015
  531POPC   C4A11298  27.902  12.856   7.680
  531POPC   C1B11299  27.147  12.576   8.774
  531POPC   C2B11300  27.071  12.407   8.373
  531POPC   C3B11301  27.168  12.653   8.016
  531POPC   C4B11302  27.435  12.634   7.651
  532POPC   NC311303  11.788  12.441   9.476
  532POPC   PO411304  12.097  11.854   9.490
  532POPC   GL111305  12.063  11.970   9.082
  532POPC   GL211306  11.728  12.075   9.043
  532POPC   C1A11307  12.032  12.171   8.649
  532POPC   D2A11308  12.106  12.408   8.280
  532POPC   C3A11309  11.947  12.261   7.909
  532POPC   C4A11310  12.156  12.096   7.536
  532POPC   C1B11311  11.819  11.721   8.707
  532POPC   C2B11312  11.804  11.904   8.273
  532POPC   C3B11313  11.906  11.738   7.848
  532POPC   C4B11314  11.760  11.814   7.422
  533POPC   NC311315  20.229  29.025   9.509
  533POPC   PO411316  20.836  29.152   9.526
  533POPC   GL111317  20.591  29.291   9.180
  533POPC   GL211318  20.759  29.607   9.194
  533POPC   C1A11319  20.407  29.166   8.762
  533POPC   D2A11320  20.475  28.875   8.416
  533POPC   C3A11321  20.379  28.894   7.948
  533POPC   C4A11322  20.661  28.969   7.555
  533POPC   C1B11323  20.608  29.634   8.763
  533POPC   C2B11324  20.494  29.419   8.332
  533POPC   C3B11325  20.559  29.353   7.879
  533POPC   C4B11326  20.416  29.452   7.435
  534POPC   NC311327  22.750  13.910   9.475
  534POPC   PO411328  23.112  13.301   9.462
  534POPC   GL111329  23.038  13.614   9.129
  534POPC   GL211330  22.746  13.712   9.016
  534POPC   C1A11331  23.085  13.705   8.659
  534POPC   D2A11332  23.016  13.493   8.277
  534POPC   C3A11333  23.296  13.679   7.988
  534POPC   C4A11334  23.193  13.821   7.555
  534POPC   C1B11335  22.595  13.470   8.664
  534POPC   C2B11336  22.338  13.546   8.294
  534POPC   C3B11337  22.480  13.604   7.901
  534POPC   C4B11338  22.867  13.469   7.757
  535POPC   NC311339  40.931  31.390   9.656
  535POPC   PO411340  40.367  31.744   9.422
  535POPC   GL111341  40.701  31.803   9.100
  535POPC   GL211342  41.037  31.618   9.161
  535POPC   C1A11343  40.817  31.603   8.690
  535POPC   D2A11344  40.777  31.326   8.330
  535POPC   C3A11345  40.564  31.519   7.980
  535POPC   C4A11346  40.697  31.892   7.739
  535POPC   C1B11347  41.318  31.572   8.786
  535POPC   C2B11348  41.281  31.756   8.379
  535POPC   C3B11349  41.063  31.638   8.026
  535POPC   C4B11350  41.010  31.240   7.828
  536POPC   NC311351  26.777  40.658   9.454
  536POPC   PO411352  27.028  40.159   9.752
  536POPC   GL111353  27.055  40.331   9.211
  536POPC   GL211354  27.095  40.636   9.026
  536POPC   C1A11355  26.668  40.503   8.828
  536POPC   D2A11356  26.425  40.500   8.428
  536POPC   C3A11357  26.610  40.802   8.128
  536POPC   C4A11358  26.611  40.929   7.696
  536POPC   C1B11359  27.132  40.634   8.545
  536POPC   C2B11360  27.147  40.726   8.083
  536POPC   C3B11361  26.944  40.542   7.715
  536POPC   C4B11362  27.014  40.259   7.365
  537POPC   NC311363  17.853  42.428   9.492
  537POPC   PO411364  17.145  42.472   9.567
  537POPC   GL111365  17.406  42.335   9.197
  537POPC   GL211366  17.562  42.013   9.268
  537POPC   C1A11367  17.324  42.409   8.734
  537POPC   D2A11368  17.261  42.705   8.364
  537POPC   C3A11369  17.546  42.613   8.016
  537POPC   C4A11370  17.416  42.308   7.719
  537POPC   C1B11371  17.695  42.050   8.841
  537POPC   C2B11372  17.731  42.296   8.451
  537POPC   C3B11373  17.730  42.091   8.053
  537POPC   C4B11374  17.703  41.910   7.645
  538POPC   NC311375  11.402  14.780   9.519
  538POPC   PO411376  11.330  15.483   9.553
  538POPC   GL111377  11.364  15.199   9.196
  538POPC   GL211378  11.622  15.060   9.042
  538POPC   C1A11379  11.099  14.936   8.913
  538POPC   D2A11380  11.015  14.996   8.468
  538POPC   C3A11381  11.313  15.103   8.135
  538POPC   C4A11382  11.176  15.165   7.685
  538POPC   C1B11383  11.436  15.250   8.667
  538POPC   C2B11384  11.619  15.522   8.347
  538POPC   C3B11385  11.737  15.393   7.948
  538POPC   C4B11386  11.663  15.040   7.729
  539POPC   NC311387   2.485  31.670   9.779
  539POPC   PO411388   2.055  31.334   9.535
  539POPC   GL111389   1.892  31.329   9.101
  539POPC   GL211390   1.644  31.578   9.096
  539POPC   C1A11391   1.864  31.195   8.661
  539POPC   D2A11392   1.726  31.246   8.233
  539POPC   C3A11393   2.039  31.377   7.892
  539POPC   C4A11394   2.346  31.167   7.644
  539POPC   C1B11395   1.869  31.715   8.742
  539POPC   C2B11396   1.898  31.719   8.285
  539POPC   C3B11397   1.831  31.843   7.851
  539POPC   C4B11398   2.028  31.873   7.427
  540POPC   NC311399  15.429   8.891   9.803
  540POPC   PO411400  14.929   8.926   9.334
  540POPC   GL111401  15.166   8.843   9.004
  540POPC   GL211402  15.374   9.126   9.052
  540POPC   C1A11403  15.259   8.625   8.618
  540POPC   D2A11404  15.428   8.509   8.209
  540POPC   C3A11405  15.308   8.811   7.875
  540POPC   C4A11406  14.949   9.045   7.847
  540POPC   C1B11407  15.202   9.152   8.619
  540POPC   C2B11408  15.326   9.228   8.212
  540POPC   C3B11409  15.511   9.301   7.821
  540POPC   C4B11410  15.287   9.197   7.463
  541POPC   NC311411  37.202  13.606   9.662
  541POPC   PO411412  36.625  13.756   9.281
  541POPC   GL111413  36.858  13.489   9.041
  541POPC   GL211414  36.594  13.247   8.940
  541POPC   C1A11415  37.098  13.646   8.661
  541POPC   D2A11416  37.337  13.680   8.286
  541POPC   C3A11417  37.181  13.598   7.910
  541POPC   C4A11418  36.948  13.912   7.753
  541POPC   C1B11419  36.585  13.598   8.629
  541POPC   C2B11420  36.720  13.723   8.242
  541POPC   C3B11421  36.667  13.464   7.925
  541POPC   C4B11422  36.918  13.277   7.607
  542POPC   NC311423  32.185   7.192   9.798
  542POPC   PO411424  32.483   7.754   9.536
  542POPC   GL111425  32.224   7.618   9.184
  542POPC   GL211426  31.871   7.754   9.177
  542POPC   C1A11427  32.075   7.424   8.775
  542POPC   D2A11428  32.285   7.347   8.372
  542POPC   C3A11429  32.139   7.173   7.969
  542POPC   C4A11430  32.102   7.338   7.542
  542POPC   C1B11431  32.074   7.928   8.811
  542POPC   C2B11432  32.034   7.820   8.403
  542POPC   C3B11433  32.032   7.674   7.988
  542POPC   C4B11434  31.885   7.792   7.605
  543POPC   NC311435  40.510  23.250   9.402
  543POPC   PO411436  39.863  22.859   9.481
  543POPC   GL111437  40.077  23.063   9.187
  543POPC   GL211438  40.358  22.847   9.105
  543POPC   C1A11439  40.123  23.175   8.772
  543POPC   D2A11440  40.066  22.926   8.415
  543POPC   C3A11441  40.157  23.077   8.040
  543POPC   C4A11442  39.912  23.165   7.756
  543POPC   C1B11443  39.998  22.667   8.848
  543POPC   C2B11444  40.040  22.402   8.471
  543POPC   C3B11445  40.209  22.530   8.051
  543POPC   C4B11446  40.071  22.715   7.631
  544POPC   NC311447  14.183   4.756   9.694
  544POPC   PO411448  14.375   5.358   9.569
  544POPC   GL111449  14.300   5.101   9.147
  544POPC   GL211450  14.512   5.002   8.960
  544POPC   C1A11451  14.168   5.301   8.728
  544POPC   D2A11452  14.454   5.408   8.369
  544POPC   C3A11453  14.315   5.476   7.949
  544POPC   C4A11454  13.950   5.493   7.708
  544POPC   C1B11455  14.162   4.775   8.738
  544POPC   C2B11456  14.006   4.743   8.334
  544POPC   C3B11457  14.208   4.679   7.956
  544POPC   C4B11458  14.478   5.019   7.815
  545POPC   NC311459   9.467  40.271   9.539
  545POPC   PO411460   9.967  39.832   9.548
  545POPC   GL111461   9.991  39.982   9.135
  545POPC   GL211462   9.690  40.108   9.118
  545POPC   C1A11463  10.002  39.883   8.709
  545POPC   D2A11464   9.985  40.075   8.324
  545POPC   C3A11465  10.113  39.820   7.969
  545POPC   C4A11466   9.742  39.664   7.752
  545POPC   C1B11467   9.486  40.104   8.732
  545POPC   C2B11468   9.399  40.088   8.299
  545POPC   C3B11469   9.633  40.165   7.935
  545POPC   C4B11470   9.491  40.185   7.522
  546POPC   NC311471  41.092  33.139   9.463
  546POPC   PO411472  40.376  33.284   9.504
  546POPC   GL111473  40.671  33.337   9.184
  546POPC   GL211474  40.740  32.998   9.066
  546POPC   C1A11475  40.883  33.418   8.801
  546POPC   D2A11476  40.970  33.141   8.465
  546POPC   C3A11477  40.876  33.368   8.113
  546POPC   C4A11478  40.569  33.297   7.781
  546POPC   C1B11479  40.906  32.689   8.740
  546POPC   C2B11480  40.876  32.610   8.304
  546POPC   C3B11481  40.795  32.855   7.958
  546POPC   C4B11482  40.888  32.764   7.548
  547POPC   NC311483  18.511  22.473   9.455
  547POPC   PO411484  18.504  21.835   9.581
  547POPC   GL111485  18.357  22.062   9.158
  547POPC   GL211486  18.336  22.393   8.994
  547POPC   C1A11487  18.351  21.988   8.698
  547POPC   D2A11488  18.064  21.948   8.363
  547POPC   C3A11489  18.108  22.146   7.977
  547POPC   C4A11490  18.221  21.905   7.643
  547POPC   C1B11491  18.642  22.400   8.650
  547POPC   C2B11492  18.691  22.251   8.240
  547POPC   C3B11493  18.625  22.252   7.812
  547POPC   C4B11494  18.663  22.575   7.529
  548POPC   NC311495  32.724  36.675   9.336
  548POPC   PO411496  32.144  37.049   9.431
  548POPC   GL111497  32.236  36.853   9.055
  548POPC   GL211498  32.332  36.516   8.975
  548POPC   C1A11499  32.282  36.916   8.623
  548POPC   D2A11500  32.211  37.173   8.293
  548POPC   C3A11501  32.236  36.941   7.930
  548POPC   C4A11502  31.927  36.708   7.766
  548POPC   C1B11503  31.947  36.516   8.733
  548POPC   C2B11504  31.908  36.611   8.298
  548POPC   C3B11505  32.255  36.450   8.069
  548POPC   C4B11506  32.496  36.509   7.704
  549POPC   NC311507  29.741   7.323   9.313
  549POPC   PO411508  30.095   7.757   9.616
  549POPC   GL111509  30.193   7.527   9.179
  549POPC   GL211510  30.172   7.157   9.113
  549POPC   C1A11511  29.971   7.535   8.772
  549POPC   D2A11512  29.977   7.735   8.398
  549POPC   C3A11513  30.080   7.531   8.036
  549POPC   C4A11514  29.784   7.729   7.793
  549POPC   C1B11515  29.953   7.028   8.760
  549POPC   C2B11516  29.882   7.225   8.394
  549POPC   C3B11517  29.643   7.205   8.089
  549POPC   C4B11518  29.772   7.227   7.711
  550POPC   NC311519  14.760   5.629   9.525
  550POPC   PO411520  14.043   5.836   9.351
  550POPC   GL111521  14.331   5.890   9.049
  550POPC   GL211522  14.495   5.571   9.084
  550POPC   C1A11523  14.228   5.823   8.614
  550POPC   D2A11524  13.991   5.744   8.253
  550POPC   C3A11525  14.198   5.977   7.941
  550POPC   C4A11526  14.578   5.890   7.785
  550POPC   C1B11527  14.708   5.693   8.731
  550POPC   C2B11528  14.764   5.826   8.307
  550POPC   C3B11529  14.843   5.495   8.016
  550POPC   C4B11530  14.713   5.429   7.604
  551POPC   NC311531  24.339  14.783   9.248
  551POPC   PO411532  24.736  14.168   9.408
  551POPC   GL111533  24.563  14.375   9.077
  551POPC   GL211534  24.311  14.150   9.010
  551POPC   C1A11535  24.383  14.521   8.647
  551POPC   D2A11536  24.202  14.407   8.219
  551POPC   C3A11537  24.364  14.623   7.808
  551POPC   C4A11538  24.210  14.935   7.440
  551POPC   C1B11539  24.657  14.099   8.685
  551POPC   C2B11540  24.718  14.322   8.283
  551POPC   C3B11541  24.524  14.147   7.897
  551POPC   C4B11542  24.090  14.186   7.696
  552POPC   NC311543   8.143  32.939   9.506
  552POPC   PO411544   8.736  33.264   9.357
  552POPC   GL111545   8.411  33.053   9.065
  552POPC   GL211546   8.147  32.742   9.045
  552POPC   C1A11547   8.466  32.895   8.650
  552POPC   D2A11548   8.511  32.639   8.285
  552POPC   C3A11549   8.416  32.887   7.894
  552POPC   C4A11550   8.518  32.860   7.449
  552POPC   C1B11551   7.967  32.986   8.722
  552POPC   C2B11552   8.085  32.977   8.284
  552POPC   C3B11553   7.934  33.077   7.895
  552POPC   C4B11554   8.045  33.049   7.480
  553POPC   NC311555   6.327  10.920   9.661
  553POPC   PO411556   6.757  10.471   9.363
  553POPC   GL111557   6.406  10.434   9.136
  553POPC   GL211558   6.272  10.776   9.152
  553POPC   C1A11559   6.477  10.278   8.711
  553POPC   D2A11560   6.851  10.227   8.402
  553POPC   C3A11561   6.783  10.307   7.939
  553POPC   C4A11562   6.865  10.307   7.461
  553POPC   C1B11563   6.472  10.799   8.754
  553POPC   C2B11564   6.798  10.776   8.448
  553POPC   C3B11565   6.779  10.897   8.020
  553POPC   C4B11566   6.519  10.680   7.718
  554POPC   NC311567  16.556   0.883   9.512
  554POPC   PO411568  16.826   1.554   9.486
  554POPC   GL111569  16.754   1.334   9.172
  554POPC   GL211570  16.901   1.020   9.158
  554POPC   C1A11571  16.850   1.408   8.751
  554POPC   D2A11572  17.029   1.248   8.352
  554POPC   C3A11573  16.938   1.428   7.967
  554POPC   C4A11574  16.999   1.314   7.564
  554POPC   C1B11575  16.556   1.005   8.865
  554POPC   C2B11576  16.561   1.073   8.449
  554POPC   C3B11577  16.666   0.949   8.031
  554POPC   C4B11578  16.278   0.975   7.807
  555POPC   NC311579  29.821   3.234   9.526
  555POPC   PO411580  30.491   3.505   9.559
  555POPC   GL111581  30.284   3.320   9.169
  555POPC   GL211582  29.938   3.416   9.071
  555POPC   C1A11583  30.304   3.327   8.702
  555POPC   D2A11584  29.976   3.306   8.363
  555POPC   C3A11585  30.030   3.649   8.071
  555POPC   C4A11586  30.035   3.660   7.592
  555POPC   C1B11587  29.842   3.688   8.733
  555POPC   C2B11588  29.546   3.648   8.398
  555POPC   C3B11589  29.567   3.422   8.018
  555POPC   C4B11590  29.549   3.724   7.707
  556POPC   NC311591  17.066   3.445   9.359
  556POPC   PO411592  16.600   3.758   9.732
  556POPC   GL111593  16.670   3.769   9.286
  556POPC   GL211594  16.344   3.781   9.249
  556POPC   C1A11595  16.745   3.614   8.833
  556POPC   D2A11596  16.931   3.493   8.443
  556POPC   C3A11597  16.682   3.621   8.099
  556POPC   C4A11598  16.625   3.277   7.790
  556POPC   C1B11599  16.160   3.781   8.827
  556POPC   C2B11600  16.346   3.889   8.448
  556POPC   C3B11601  16.234   3.919   8.034
  556POPC   C4B11602  16.311   3.712   7.638
  557POPC   NC311603  34.748  21.623   9.527
  557POPC   PO411604  34.817  21.033   9.207
  557POPC   GL111605  34.429  21.127   9.050
  557POPC   GL211606  34.390  21.427   9.242
  557POPC   C1A11607  34.432  21.148   8.602
  557POPC   D2A11608  34.811  21.295   8.375
  557POPC   C3A11609  34.846  21.216   7.921
  557POPC   C4A11610  34.468  21.210   7.678
  557POPC   C1B11611  34.571  21.578   8.861
  557POPC   C2B11612  34.389  21.640   8.454
  557POPC   C3B11613  34.522  21.572   8.062
  557POPC   C4B11614  34.702  21.791   7.753
  558POPC   NC311615  13.134   0.172   9.250
  558POPC   PO411616  12.632   0.658   9.479
  558POPC   GL111617  12.761   0.654   9.096
  558POPC   GL211618  13.128   0.697   9.155
  558POPC   C1A11619  12.553   0.577   8.704
  558POPC   D2A11620  12.760   0.409   8.346
  558POPC   C3A11621  12.761   0.534   7.929
  558POPC   C4A11622  13.087   0.247   7.772
  558POPC   C1B11623  13.066   0.666   8.698
  558POPC   C2B11624  12.943   0.882   8.322
  558POPC   C3B11625  13.166   0.840   7.963
  558POPC   C4B11626  13.112   0.699   7.555
  559POPC   NC311627  26.715  33.116   9.515
  559POPC   PO411628  26.732  32.491   9.250
  559POPC   GL111629  26.929  32.860   9.079
  559POPC   GL211630  26.897  33.245   9.079
  559POPC   C1A11631  26.831  32.936   8.654
  559POPC   D2A11632  26.511  32.921   8.327
  559POPC   C3A11633  26.769  32.965   7.964
  559POPC   C4A11634  27.184  32.777   7.892
  559POPC   C1B11635  26.614  33.381   8.754
  559POPC   C2B11636  26.687  33.399   8.332
  559POPC   C3B11637  26.527  33.445   7.940
  559POPC   C4B11638  26.805  33.317   7.594
  560POPC   NC311639  35.600  14.623   9.694
  560POPC   PO411640  35.162  14.132   9.488
  560POPC   GL111641  35.287  14.495   9.245
  560POPC   GL211642  35.654  14.543   9.198
  560POPC   C1A11643  35.306  14.533   8.795
  560POPC   D2A11644  35.366  14.259   8.424
  560POPC   C3A11645  35.227  14.487   8.032
  560POPC   C4A11646  34.942  14.690   7.706
  560POPC   C1B11647  35.722  14.242   8.827
  560POPC   C2B11648  35.890  14.291   8.404
  560POPC   C3B11649  35.684  14.260   8.011
  560POPC   C4B11650  35.596  14.493   7.626
  561POPC   NC311651  20.829  21.715   9.339
  561POPC   PO411652  20.420  21.167   9.643
  561POPC   GL111653  20.625  21.264   9.245
  561POPC   GL211654  20.445  21.554   9.057
  561POPC   C1A11655  20.730  21.140   8.834
  561POPC   D2A11656  20.458  21.041   8.490
  561POPC   C3A11657  20.637  21.207   8.135
  561POPC   C4A11658  20.420  21.216   7.756
  561POPC   C1B11659  20.679  21.653   8.687
  561POPC   C2B11660  20.924  21.633   8.315
  561POPC   C3B11661  20.780  21.616   7.870
  561POPC   C4B11662  21.032  21.549   7.511
  562POPC   NC311663  42.487  23.068   9.805
  562POPC   PO411664  43.119  23.076   9.598
  562POPC   GL111665  42.724  23.092   9.287
  562POPC   GL211666  42.331  23.121   9.283
  562POPC   C1A11667  42.525  22.901   8.879
  562POPC   D2A11668  42.366  23.126   8.491
  562POPC   C3A11669  42.538  23.010   8.092
  562POPC   C4A11670  42.774  22.675   7.866
  562POPC   C1B11671  42.118  23.281   8.895
  562POPC   C2B11672  41.871  23.358   8.489
  562POPC   C3B11673  42.040  23.261   8.048
  562POPC   C4B11674  42.335  23.199   7.675
  563POPC   NC311675  24.523  20.077   9.581
  563POPC   PO411676  24.500  19.422   9.702
  563POPC   GL111677  24.513  19.660   9.254
  563POPC   GL211678  24.336  19.987   9.125
  563POPC   C1A11679  24.393  19.566   8.825
  563POPC   D2A11680  24.217  19.684   8.437
  563POPC   C3A11681  24.407  19.563   8.092
  563POPC   C4A11682  24.443  19.607   7.675
  563POPC   C1B11683  24.485  20.071   8.716
  563POPC   C2B11684  24.664  19.934   8.343
  563POPC   C3B11685  24.561  20.048   7.938
  563POPC   C4B11686  24.798  20.028   7.590
  564POPC   NC311687  26.172   9.407   9.690
  564POPC   PO411688  25.700   9.872   9.601
  564POPC   GL111689  26.022   9.906   9.279
  564POPC   GL211690  26.165   9.566   9.223
  564POPC   C1A11691  26.298   9.915   8.895
  564POPC   D2A11692  26.256   9.768   8.482
  564POPC   C3A11693  26.371   9.782   8.070
  564POPC   C4A11694  26.150   9.814   7.707
  564POPC   C1B11695  26.170   9.400   8.825
  564POPC   C2B11696  25.899   9.399   8.460
  564POPC   C3B11697  25.953   9.353   8.029
  564POPC   C4B11698  25.744   9.486   7.651
  565POPC   NC311699  32.831   1.734   9.736
  565POPC   PO411700  32.482   2.303   9.540
  565POPC   GL111701  32.805   2.074   9.224
  565POPC   GL211702  33.065   2.313   9.116
  565POPC   C1A11703  33.112   1.897   8.848
  565POPC   D2A11704  33.321   1.753   8.452
  565POPC   C3A11705  33.038   1.766   8.106
  565POPC   C4A11706  33.039   1.764   7.685
  565POPC   C1B11707  33.328   2.379   8.753
  565POPC   C2B11708  33.434   2.444   8.351
  565POPC   C3B11709  33.322   2.197   8.052
  565POPC   C4B11710  33.408   2.119   7.662
  566POPC   NC311711  40.529  30.544   9.737
  566POPC   PO411712  40.700  29.965   9.470
  566POPC   GL111713  40.848  29.896   9.084
  566POPC   GL211714  40.648  30.175   8.987
  566POPC   C1A11715  40.725  29.696   8.725
  566POPC   D2A11716  40.751  29.980   8.422
  566POPC   C3A11717  40.901  29.972   7.998
  566POPC   C4A11718  40.733  30.305   7.730
  566POPC   C1B11719  40.324  30.009   8.764
  566POPC   C2B11720  40.210  29.902   8.410
  566POPC   C3B11721  40.407  29.995   8.045
  566POPC   C4B11722  40.487  29.868   7.632
  567POPC   NC311723  21.984  36.132   9.709
  567POPC   PO411724  22.483  35.725   9.484
  567POPC   GL111725  22.099  35.854   9.226
  567POPC   GL211726  22.026  36.227   9.209
  567POPC   C1A11727  22.048  35.922   8.779
  567POPC   D2A11728  22.297  36.166   8.478
  567POPC   C3A11729  22.200  36.111   8.060
  567POPC   C4A11730  22.079  35.820   7.790
  567POPC   C1B11731  21.941  36.417   8.807
  567POPC   C2B11732  21.787  36.285   8.400
  567POPC   C3B11733  21.890  36.491   7.994
  567POPC   C4B11734  21.998  36.329   7.582
  568POPC   NC311735  21.174  20.363   9.395
  568POPC   PO411736  21.805  20.624   9.468
  568POPC   GL111737  21.543  20.662   9.072
  568POPC   GL211738  21.262  20.913   8.977
  568POPC   C1A11739  21.600  20.792   8.628
  568POPC   D2A11740  21.403  20.619   8.269
  568POPC   C3A11741  21.497  20.922   7.996
  568POPC   C4A11742  21.826  20.923   7.716
  568POPC   C1B11743  21.189  20.493   8.741
  568POPC   C2B11744  20.992  20.329   8.372
  568POPC   C3B11745  20.987  20.318   7.943
  568POPC   C4B11746  21.303  20.536   7.728
  569POPC   NC311747  29.562   5.547   9.482
  569POPC   PO411748  29.874   6.146   9.460
  569POPC   GL111749  30.067   5.836   9.178
  569POPC   GL211750  29.926   5.493   9.065
  569POPC   C1A11751  30.140   5.834   8.737
  569POPC   D2A11752  29.966   5.591   8.400
  569POPC   C3A11753  29.959   5.913   8.074
  569POPC   C4A11754  29.908   6.088   7.636
  569POPC   C1B11755  29.631   5.720   8.796
  569POPC   C2B11756  29.496   5.808   8.367
  569POPC   C3B11757  29.373   5.911   7.951
  569POPC   C4B11758  29.394   5.830   7.505
  570POPC   NC311759  44.968  35.600   9.480
  570POPC   PO411760  44.708  35.068   9.744
  570POPC   GL111761  44.573  35.107   9.280
  570POPC   GL211762  44.892  35.175   9.108
  570POPC   C1A11763  44.473  35.356   8.867
  570POPC   D2A11764  44.218  35.443   8.476
  570POPC   C3A11765  44.376  35.514   8.042
  570POPC   C4A11766  44.680  35.779   7.815
  570POPC   C1B11767  44.944  35.299   8.647
  570POPC   C2B11768  44.870  35.472   8.217
  570POPC   C3B11769  44.997  35.319   7.787
  570POPC   C4B11770   0.170  35.130   7.352
  571POPC   NC311771  11.530   6.454   9.438
  571POPC   PO411772  10.883   6.755   9.494
  571POPC   GL111773  11.097   6.850   9.146
  571POPC   GL211774  11.426   6.988   9.220
  571POPC   C1A11775  11.126   6.664   8.746
  571POPC   D2A11776  11.257   6.830   8.339
  571POPC   C3A11777  11.072   6.527   8.063
  571POPC   C4A11778  11.151   6.589   7.653
  571POPC   C1B11779  11.592   6.831   8.814
  571POPC   C2B11780  11.539   6.453   8.526
  571POPC   C3B11781  11.568   6.511   8.082
  571POPC   C4B11782  11.659   6.790   7.765
  572POPC   NC311783  40.246  26.513   9.517
  572POPC   PO411784  39.975  27.181   9.497
  572POPC   GL111785  40.113  26.943   9.152
  572POPC   GL211786  40.412  27.168   9.118
  572POPC   C1A11787  39.953  26.761   8.731
  572POPC   D2A11788  39.716  26.938   8.340
  572POPC   C3A11789  39.894  26.803   7.968
  572POPC   C4A11790  39.934  26.730   7.562
  572POPC   C1B11791  40.284  27.176   8.701
  572POPC   C2B11792  40.196  27.085   8.288
  572POPC   C3B11793  40.146  27.284   7.904
  572POPC   C4B11794  40.218  27.150   7.469
  573POPC   NC311795  22.780  29.197   9.465
  573POPC   PO411796  23.409  28.991   9.573
  573POPC   GL111797  23.162  29.008   9.216
  573POPC   GL211798  23.188  29.378   9.185
  573POPC   C1A11799  22.935  28.958   8.834
  573POPC   D2A11800  23.090  29.005   8.410
  573POPC   C3A11801  22.782  29.068   8.094
  573POPC   C4A11802  22.478  29.052   7.811
  573POPC   C1B11803  23.024  29.461   8.761
  573POPC   C2B11804  22.890  29.508   8.351
  573POPC   C3B11805  23.076  29.459   7.959
  573POPC   C4B11806  22.812  29.383   7.608
  574POPC   NC311807   9.087   8.868   9.687
  574POPC   PO411808   8.539   9.198   9.453
  574POPC   GL111809   8.821   9.008   9.143
  574POPC   GL211810   9.190   8.928   9.141
  574POPC   C1A11811   8.973   9.176   8.734
  574POPC   D2A11812   8.705   9.302   8.418
  574POPC   C3A11813   8.835   9.203   8.006
  574POPC   C4A11814   8.632   9.009   7.686
  574POPC   C1B11815   8.983   8.677   8.780
  574POPC   C2B11816   8.787   8.783   8.377
  574POPC   C3B11817   8.950   8.670   7.984
  574POPC   C4B11818   9.367   8.605   7.865
  575POPC   NC311819   1.613  14.233   9.474
  575POPC   PO411820   2.222  14.072   9.363
  575POPC   GL111821   1.965  14.367   9.130
  575POPC   GL211822   2.052  14.241   8.848
  575POPC   C1A11823   1.640  14.521   8.806
  575POPC   D2A11824   1.750  14.711   8.409
  575POPC   C3A11825   1.725  14.564   7.957
  575POPC   C4A11826   1.711  14.846   7.585
  575POPC   C1B11827   2.163  14.380   8.437
  575POPC   C2B11828   2.186  14.300   8.001
  575POPC   C3B11829   2.227  14.143   7.545
  575POPC   C4B11830   2.287  13.994   7.115
  576POPC   NC311831  30.120  43.934   9.379
  576POPC   PO411832  29.511  44.285   9.323
  576POPC   GL111833  29.771  44.086   8.985
  576POPC   GL211834  29.856  43.766   8.996
  576POPC   C1A11835  29.841  43.953   8.536
  576POPC   D2A11836  29.695  43.821   8.183
  576POPC   C3A11837  29.913  43.990   7.866
  576POPC   C4A11838  29.954  44.133   7.426
  576POPC   C1B11839  30.098  43.540   8.657
  576POPC   C2B11840  30.087  43.473   8.212
  576POPC   C3B11841  29.847  43.475   7.846
  576POPC   C4B11842  29.895  43.630   7.490
  577POPC   NC311843  13.439  24.300   9.444
  577POPC   PO411844  13.388  23.642   9.635
  577POPC   GL111845  13.672  23.867   9.297
  577POPC   GL211846  13.602  23.656   9.064
  577POPC   C1A11847  13.655  24.142   8.869
  577POPC   D2A11848  13.566  23.927   8.475
  577POPC   C3A11849  13.668  24.083   8.085
  577POPC   C4A11850  13.578  23.863   7.697
  577POPC   C1B11851  13.325  23.570   8.731
  577POPC   C2B11852  13.495  23.354   8.415
  577POPC   C3B11853  13.460  23.573   8.080
  577POPC   C4B11854  13.148  23.598   7.756
  578POPC   NC311855   4.085   9.525   9.542
  578POPC   PO411856   4.535   9.953   9.442
  578POPC   GL111857   4.368   9.695   9.127
  578POPC   GL211858   4.043   9.862   9.139
  578POPC   C1A11859   4.305   9.744   8.687
  578POPC   D2A11860   4.216  10.023   8.362
  578POPC   C3A11861   4.353   9.893   8.007
  578POPC   C4A11862   4.486   9.832   7.633
  578POPC   C1B11863   3.943   9.463   8.899
  578POPC   C2B11864   4.000   9.377   8.472
  578POPC   C3B11865   3.886   9.655   8.153
  578POPC   C4B11866   4.008   9.627   7.738
  579POPC   NC311867   6.102   7.925   9.320
  579POPC   PO411868   5.618   8.346   9.581
  579POPC   GL111869   5.690   8.175   9.160
  579POPC   GL211870   5.785   8.437   8.958
  579POPC   C1A11871   5.754   7.990   8.720
  579POPC   D2A11872   6.051   8.152   8.417
  579POPC   C3A11873   6.178   8.053   7.993
  579POPC   C4A11874   5.966   8.138   7.602
  579POPC   C1B11875   6.021   8.636   8.652
  579POPC   C2B11876   5.837   8.699   8.290
  579POPC   C3B11877   5.840   8.628   7.884
  579POPC   C4B11878   5.523   8.654   7.586
  580POPC   NC311879  20.727  33.355   9.474
  580POPC   PO411880  20.427  32.712   9.397
  580POPC   GL111881  20.581  33.033   9.099
  580POPC   GL211882  20.436  33.397   9.072
  580POPC   C1A11883  20.739  33.049   8.691
  580POPC   D2A11884  20.837  32.832   8.295
  580POPC   C3A11885  20.684  33.014   7.924
  580POPC   C4A11886  20.876  33.138   7.523
  580POPC   C1B11887  20.232  33.211   8.754
  580POPC   C2B11888  20.384  33.304   8.363
  580POPC   C3B11889  20.226  33.234   7.990
  580POPC   C4B11890  20.135  32.866   7.793
  581POPC   NC311891   9.797   3.790   9.402
  581POPC   PO411892   9.535   4.416   9.618
  581POPC   GL111893   9.786   4.276   9.246
  581POPC   GL211894   9.534   4.128   9.029
  581POPC   C1A11895   9.926   4.460   8.861
  581POPC   D2A11896   9.824   4.435   8.421
  581POPC   C3A11897   9.979   4.559   8.002
  581POPC   C4A11898   9.746   4.507   7.614
  581POPC   C1B11899   9.887   3.963   8.768
  581POPC   C2B11900   9.815   3.916   8.351
  581POPC   C3B11901   9.677   4.146   7.992
  581POPC   C4B11902   9.862   3.999   7.611
  582POPC   NC311903  14.998  29.367   9.473
  582POPC   PO411904  15.359  28.753   9.665
  582POPC   GL111905  15.135  28.908   9.246
  582POPC   GL211906  15.262  29.222   9.067
  582POPC   C1A11907  14.869  28.992   8.852
  582POPC   D2A11908  15.033  29.195   8.483
  582POPC   C3A11909  14.944  29.048   8.055
  582POPC   C4A11910  15.164  29.284   7.743
  582POPC   C1B11911  15.526  28.958   8.908
  582POPC   C2B11912  15.487  28.881   8.486
  582POPC   C3B11913  15.450  29.129   8.150
  582POPC   C4B11914  15.638  29.030   7.777
  583POPC   NC311915  21.781  17.876   9.479
  583POPC   PO411916  22.395  18.173   9.500
  583POPC   GL111917  22.139  18.181   9.120
  583POPC   GL211918  21.946  18.537   9.166
  583POPC   C1A11919  22.176  17.928   8.708
  583POPC   D2A11920  22.348  17.928   8.268
  583POPC   C3A11921  22.132  17.839   7.872
  583POPC   C4A11922  22.042  18.012   7.453
  583POPC   C1B11923  21.996  18.773   8.766
  583POPC   C2B11924  22.177  18.615   8.385
  583POPC   C3B11925  22.090  18.667   7.963
  583POPC   C4B11926  22.027  18.554   7.540
  584POPC   NC311927   9.916  35.919   9.581
  584POPC   PO411928   9.267  35.952   9.533
  584POPC   GL111929   9.600  35.922   9.156
  584POPC   GL211930   9.922  36.142   9.128
  584POPC   C1A11931   9.675  35.782   8.703
  584POPC   D2A11932   9.488  35.834   8.289
  584POPC   C3A11933   9.808  35.861   7.966
  584POPC   C4A11934   9.756  36.024   7.535
  584POPC   C1B11935   9.722  36.288   8.745
  584POPC   C2B11936   9.895  36.194   8.340
  584POPC   C3B11937  10.056  36.306   7.924
  584POPC   C4B11938   9.899  36.517   7.530
  585POPC   NC311939  11.291  31.014   9.789
  585POPC   PO411940  11.481  30.412   9.577
  585POPC   GL111941  11.377  30.821   9.288
  585POPC   GL211942  11.565  30.988   9.046
  585POPC   C1A11943  11.086  30.933   8.912
  585POPC   D2A11944  10.919  30.895   8.487
  585POPC   C3A11945  11.201  30.713   8.169
  585POPC   C4A11946  11.194  30.435   7.815
  585POPC   C1B11947  11.491  30.776   8.650
  585POPC   C2B11948  11.652  30.928   8.268
  585POPC   C3B11949  11.649  30.734   7.877
  585POPC   C4B11950  11.331  30.914   7.643
  586POPC   NC311951  17.186  32.044   9.603
  586POPC   PO411952  16.568  32.036   9.641
  586POPC   GL111953  16.846  32.084   9.215
  586POPC   GL211954  17.069  31.805   9.146
  586POPC   C1A11955  17.061  32.241   8.806
  586POPC   D2A11956  17.097  32.346   8.335
  586POPC   C3A11957  16.753  32.372   7.977
  586POPC   C4A11958  16.756  32.630   7.590
  586POPC   C1B11959  16.851  31.790   8.715
  586POPC   C2B11960  16.789  31.937   8.269
  586POPC   C3B11961  16.792  31.879   7.806
  586POPC   C4B11962  16.650  31.710   7.391
  587POPC   NC311963  21.942  11.618   9.583
  587POPC   PO411964  21.437  11.122   9.545
  587POPC   GL111965  21.399  11.320   9.157
  587POPC   GL211966  21.469  11.638   9.281
  587POPC   C1A11967  21.155  11.271   8.781
  587POPC   D2A11968  21.086  11.093   8.390
  587POPC   C3A11969  21.223  11.216   7.989
  587POPC   C4A11970  21.143  11.364   7.577
  587POPC   C1B11971  21.414  11.708   8.820
  587POPC   C2B11972  21.434  11.509   8.397
  587POPC   C3B11973  21.435  11.680   7.962
  587POPC   C4B11974  21.586  11.616   7.548
  588POPC   NC311975  19.762  29.723   9.285
  588POPC   PO411976  20.171  30.186   9.342
  588POPC   GL111977  19.955  30.149   8.991
  588POPC   GL211978  19.606  30.170   9.020
  588POPC   C1A11979  19.892  30.216   8.567
  588POPC   D2A11980  20.086  30.143   8.188
  588POPC   C3A11981  19.904  29.906   7.875
  588POPC   C4A11982  19.566  29.986   7.681
  588POPC   C1B11983  19.592  29.843   8.670
  588POPC   C2B11984  19.534  29.934   8.229
  588POPC   C3B11985  19.225  29.743   7.950
  588POPC   C4B11986  19.309  29.582   7.504
  589POPC   NC311987  38.278   9.474   9.454
  589POPC   PO411988  38.382  10.106   9.565
  589POPC   GL111989  38.252  10.118   9.157
  589POPC   GL211990  37.946   9.902   9.205
  589POPC   C1A11991  38.517  10.036   8.787
  589POPC   D2A11992  38.628   9.831   8.393
  589POPC   C3A11993  38.433   9.833   7.984
  589POPC   C4A11994  38.483   9.420   7.801
  589POPC   C1B11995  38.148   9.680   8.848
  589POPC   C2B11996  38.216   9.494   8.450
  589POPC   C3B11997  38.031   9.494   8.064
  589POPC   C4B11998  38.028   9.613   7.655
  590POPC   NC311999   8.351   4.543   9.440
  590POPC   PO412000   7.790   4.119   9.471
  590POPC   GL112001   7.917   4.254   9.071
  590POPC   GL212002   8.268   4.281   9.032
  590POPC   C1A12003   8.014   4.373   8.630
  590POPC   D2A12004   8.289   4.177   8.341
  590POPC   C3A12005   8.145   4.236   7.917
  590POPC   C4A12006   7.921   4.608   7.814
  590POPC   C1B12007   8.607   4.043   8.768
  590POPC   C2B12008   8.793   4.046   8.366
  590POPC   C3B12009   8.664   4.216   7.967
  590POPC   C4B12010   8.514   4.117   7.554
  591POPC   NC312011  13.835  35.967   9.504
  591POPC   PO412012  13.561  36.441   9.601
  591POPC   GL112013  13.477  36.177   9.197
  591POPC   GL212014  13.162  36.000   9.106
  591POPC   C1A12015  13.563  36.138   8.764
  591POPC   D2A12016  13.684  36.447   8.460
  591POPC   C3A12017  13.819  36.211   8.084
  591POPC   C4A12018  13.861  35.877   7.724
  591POPC   C1B12019  13.074  36.019   8.667
  591POPC   C2B12020  13.311  36.138   8.281
  591POPC   C3B12021  13.397  36.057   7.832
  591POPC   C4B12022  13.372  35.706   7.564
  592POPC   NC312023  25.398  34.906   9.496
  592POPC   PO412024  25.306  35.559   9.538
  592POPC   GL112025  25.411  35.361   9.101
  592POPC   GL212026  25.329  34.980   8.973
  592POPC   C1A12027  25.305  35.401   8.695
  592POPC   D2A12028  25.379  35.125   8.381
  592POPC   C3A12029  25.327  35.408   8.072
  592POPC   C4A12030  25.384  35.348   7.695
  592POPC   C1B12031  24.953  35.018   8.654
  592POPC   C2B12032  24.876  35.212   8.254
  592POPC   C3B12033  24.878  35.339   7.795
  592POPC   C4B12034  25.043  35.026   7.486
  593POPC   NC312035  10.957  24.890   9.351
  593POPC   PO412036  10.378  24.498   9.499
  593POPC   GL112037  10.374  24.550   9.089
  593POPC   GL212038  10.500  24.178   8.996
  593POPC   C1A12039  10.338  24.854   8.758
  593POPC   D2A12040  10.221  24.714   8.334
  593POPC   C3A12041  10.500  24.715   7.958
  593POPC   C4A12042  10.974  24.621   7.905
  593POPC   C1B12043  10.475  24.364   8.618
  593POPC   C2B12044  10.758  24.354   8.289
  593POPC   C3B12045  10.613  24.218   7.916
  593POPC   C4B12046  10.204  24.181   7.684
  594POPC   NC312047   5.386  40.155   9.356
  594POPC   PO412048   6.034  40.043   9.599
  594POPC   GL112049   5.824  39.869   9.243
  594POPC   GL212050   6.161  39.904   9.095
  594POPC   C1A12051   5.809  39.597   8.874
  594POPC   D2A12052   5.734  39.829   8.508
  594POPC   C3A12053   5.728  39.685   8.104
  594POPC   C4A12054   5.566  39.995   7.862
  594POPC   C1B12055   6.223  39.966   8.654
  594POPC   C2B12056   6.212  39.833   8.202
  594POPC   C3B12057   6.087  40.073   7.842
  594POPC   C4B12058   6.130  40.271   7.411
  595POPC   NC312059  29.639   6.538   9.565
  595POPC   PO412060  28.955   6.529   9.559
  595POPC   GL112061  29.048   6.630   9.125
  595POPC   GL212062  29.392   6.491   9.121
  595POPC   C1A12063  29.149   6.551   8.675
  595POPC   D2A12064  29.242   6.271   8.343
  595POPC   C3A12065  29.042   6.336   7.960
  595POPC   C4A12066  28.943   6.645   7.667
  595POPC   C1B12067  29.451   6.895   8.916
  595POPC   C2B12068  29.515   6.890   8.491
  595POPC   C3B12069  29.448   6.703   8.105
  595POPC   C4B12070  29.318   6.966   7.768
  596POPC   NC312071  25.602  20.404   9.466
  596POPC   PO412072  25.004  20.047   9.608
  596POPC   GL112073  25.114  19.927   9.209
  596POPC   GL212074  24.837  20.066   9.080
  596POPC   C1A12075  25.411  19.818   8.866
  596POPC   D2A12076  25.320  19.945   8.459
  596POPC   C3A12077  25.395  19.771   8.073
  596POPC   C4A12078  25.379  19.740   7.653
  596POPC   C1B12079  24.898  19.721   8.765
  596POPC   C2B12080  25.020  19.541   8.347
  596POPC   C3B12081  24.909  19.653   7.914
  596POPC   C4B12082  24.925  19.569   7.425
  597POPC   NC312083  37.236  10.851   9.295
  597POPC   PO412084  37.810  10.880   9.656
  597POPC   GL112085  37.683  10.647   9.253
  597POPC   GL212086  37.555  10.280   9.284
  597POPC   C1A12087  37.696  10.781   8.818
  597POPC   D2A12088  37.798  10.508   8.485
  597POPC   C3A12089  37.673  10.662   8.103
  597POPC   C4A12090  37.965  10.612   7.752
  597POPC   C1B12091  37.452  10.315   8.851
  597POPC   C2B12092  37.423  10.149   8.443
  597POPC   C3B12093  37.355  10.225   8.053
  597POPC   C4B12094  37.509  10.377   7.700
  598POPC   NC312095  35.194  10.813   9.364
  598POPC   PO412096  35.080  10.159   9.278
  598POPC   GL112097  35.232  10.422   9.042
  598POPC   GL212098  35.547  10.422   9.224
  598POPC   C1A12099  35.156  10.600   8.666
  598POPC   D2A12100  35.365  10.361   8.357
  598POPC   C3A12101  35.172  10.374   7.974
  598POPC   C4A12102  35.111  10.104   7.615
  598POPC   C1B12103  35.685  10.530   8.801
  598POPC   C2B12104  35.581  10.815   8.488
  598POPC   C3B12105  35.614  10.707   8.065
  598POPC   C4B12106  35.827  10.411   7.819
  599POPC   NC312107  10.208  24.939   9.506
  599POPC   PO412108  10.737  25.430   9.453
  599POPC   GL112109  10.533  25.239   9.133
  599POPC   GL212110  10.180  25.350   9.202
  599POPC   C1A12111  10.692  25.258   8.709
  599POPC   D2A12112  10.545  25.475   8.328
  599POPC   C3A12113  10.621  25.222   7.972
  599POPC   C4A12114  10.993  25.116   7.775
  599POPC   C1B12115  10.183  25.358   8.751
  599POPC   C2B12116  10.127  25.209   8.313
  599POPC   C3B12117  10.136  25.400   7.940
  599POPC   C4B12118  10.402  25.599   7.706
  600POPC   NC312119   6.615  19.379   9.552
  600POPC   PO412120   6.588  20.159   9.590
  600POPC   GL112121   6.721  20.188   9.193
  600POPC   GL212122   6.621  19.846   9.112
  600POPC   C1A12123   6.710  20.203   8.755
  600POPC   D2A12124   6.458  19.923   8.496
  600POPC   C3A12125   6.614  19.879   8.087
  600POPC   C4A12126   6.535  20.035   7.701
  600POPC   C1B12127   6.437  19.512   8.859
  600POPC   C2B12128   6.199  19.340   8.503
  600POPC   C3B12129   6.292  19.469   8.064
  600POPC   C4B12130   6.446  19.508   7.623
  601POPC   NC312131  15.746  11.737   9.253
  601POPC   PO412132  16.212  11.648   9.710
  601POPC   GL112133  16.182  12.014   9.287
  601POPC   GL212134  15.880  12.235   9.225
  601POPC   C1A12135  16.198  11.990   8.748
  601POPC   D2A12136  16.369  11.940   8.290
  601POPC   C3A12137  16.169  11.791   7.931
  601POPC   C4A12138  15.770  11.746   7.802
  601POPC   C1B12139  15.745  12.187   8.766
  601POPC   C2B12140  15.844  12.043   8.318
  601POPC   C3B12141  15.896  12.237   7.893
  601POPC   C4B12142  15.629  12.194   7.501
  602POPC   NC312143  31.777  25.683   9.411
  602POPC   PO412144  31.593  26.338   9.507
  602POPC   GL112145  31.484  26.256   9.135
  602POPC   GL212146  31.421  25.933   9.147
  602POPC   C1A12147  31.708  26.097   8.771
  602POPC   D2A12148  31.599  26.227   8.396
  602POPC   C3A12149  31.567  25.972   8.047
  602POPC   C4A12150  31.655  26.121   7.672
  602POPC   C1B12151  31.271  25.755   8.804
  602POPC   C2B12152  31.407  25.627   8.421
  602POPC   C3B12153  31.269  25.537   8.029
  602POPC   C4B12154  31.396  25.659   7.659
  603POPC   NC312155  11.367   3.467   9.533
  603POPC   PO412156  11.553   3.891   9.007
  603POPC   GL112157  11.510   3.422   9.038
  603POPC   GL212158  11.166   3.289   9.106
  603POPC   C1A12159  11.522   3.137   8.689
  603POPC   D2A12160  11.340   3.286   8.284
  603POPC   C3A12161  11.514   3.332   7.844
  603POPC   C4A12162  11.373   3.651   7.554
  603POPC   C1B12163  10.995   3.248   8.717
  603POPC   C2B12164  10.827   3.362   8.335
  603POPC   C3B12165  10.961   3.567   7.969
  603POPC   C4B12166  11.000   3.303   7.629
  604POPC   NC312167  43.516  38.085   9.354
  604POPC   PO412168  42.853  37.797   9.603
  604POPC   GL112169  43.013  37.898   9.230
  604POPC   GL212170  43.169  37.611   9.165
  604POPC   C1A12171  43.056  37.913   8.775
  604POPC   D2A12172  43.274  37.856   8.416
  604POPC   C3A12173  43.100  37.790   8.023
  604POPC   C4A12174  43.431  37.762   7.719
  604POPC   C1B12175  42.861  37.435   8.834
  604POPC   C2B12176  42.751  37.567   8.457
  604POPC   C3B12177  42.671  37.372   8.077
  604POPC   C4B12178  42.808  37.500   7.673
  605POPC   NC312179  37.255  27.425   9.472
  605POPC   PO412180  36.583  27.448   9.420
  605POPC   GL112181  36.879  27.566   9.098
  605POPC   GL212182  37.220  27.692   9.064
  605POPC   C1A12183  36.812  27.647   8.688
  605POPC   D2A12184  36.571  27.470   8.386
  605POPC   C3A12185  36.708  27.468   7.955
  605POPC   C4A12186  36.574  27.780   7.616
  605POPC   C1B12187  37.304  27.431   8.744
  605POPC   C2B12188  37.122  27.394   8.344
  605POPC   C3B12189  37.230  27.592   7.983
  605POPC   C4B12190  37.065  27.567   7.594
  606POPC   NC312191  39.661  30.930   9.252
  606POPC   PO412192  40.065  30.520   9.575
  606POPC   GL112193  39.947  30.521   9.114
  606POPC   GL212194  40.064  30.872   8.957
  606POPC   C1A12195  39.841  30.499   8.642
  606POPC   D2A12196  40.037  30.754   8.312
  606POPC   C3A12197  39.914  30.682   7.867
  606POPC   C4A12198  39.903  30.882   7.469
  606POPC   C1B12199  40.324  30.529   8.774
  606POPC   C2B12200  40.391  30.372   8.401
  606POPC   C3B12201  40.381  30.524   8.005
  606POPC   C4B12202  40.358  30.644   7.561
  607POPC   NC312203  43.601  27.144   9.519
  607POPC   PO412204  44.217  26.865   9.597
  607POPC   GL112205  43.952  26.844   9.246
  607POPC   GL212206  43.718  26.586   9.335
  607POPC   C1A12207  43.871  26.928   8.813
  607POPC   D2A12208  43.686  26.908   8.416
  607POPC   C3A12209  43.949  27.071   8.123
  607POPC   C4A12210  43.874  26.924   7.729
  607POPC   C1B12211  43.749  26.443   8.922
  607POPC   C2B12212  43.855  26.363   8.490
  607POPC   C3B12213  43.873  26.538   8.076
  607POPC   C4B12214  43.966  26.414   7.664
  608POPC   NC312215  33.813  29.948   9.539
  608POPC   PO412216  33.277  30.309   9.248
  608POPC   GL112217  33.663  30.119   9.089
  608POPC   GL212218  33.585  29.761   9.086
  608POPC   C1A12219  33.951  29.937   8.769
  608POPC   D2A12220  34.026  30.120   8.386
  608POPC   C3A12221  33.959  29.850   8.053
  608POPC   C4A12222  34.083  30.131   7.770
  608POPC   C1B12223  33.448  29.958   8.664
  608POPC   C2B12224  33.533  30.060   8.232
  608POPC   C3B12225  33.535  29.975   7.770
  608POPC   C4B12226  33.397  30.132   7.385
  609POPC   NC312227  36.855  32.826   9.502
  609POPC   PO412228  37.346  33.301   9.427
  609POPC   GL112229  37.022  33.128   9.138
  609POPC   GL212230  37.078  32.730   9.044
  609POPC   C1A12231  36.807  33.118   8.746
  609POPC   D2A12232  37.012  32.872   8.416
  609POPC   C3A12233  36.852  33.106   8.081
  609POPC   C4A12234  36.627  33.273   7.751
  609POPC   C1B12235  36.685  32.623   8.791
  609POPC   C2B12236  36.513  32.810   8.392
  609POPC   C3B12237  36.614  32.677   7.963
  609POPC   C4B12238  37.006  32.575   7.862
  610POPC   NC312239   1.883  26.974   9.531
  610POPC   PO412240   1.420  26.537   9.436
  610POPC   GL112241   1.661  26.817   9.097
  610POPC   GL212242   2.045  26.874   9.079
  610POPC   C1A12243   1.739  26.955   8.666
  610POPC   D2A12244   1.694  27.173   8.241
  610POPC   C3A12245   1.877  26.940   7.863
  610POPC   C4A12246   1.977  27.109   7.396
  610POPC   C1B12247   2.261  26.717   8.744
  610POPC   C2B12248   2.368  26.845   8.337
  610POPC   C3B12249   2.300  26.670   7.966
  610POPC   C4B12250   2.136  26.627   7.569
  611POPC   NC312251  10.682  31.936   9.575
  611POPC   PO412252  10.167  32.401   9.613
  611POPC   GL112253  10.438  32.394   9.221
  611POPC   GL212254  10.463  32.038   9.128
  611POPC   C1A12255  10.495  32.453   8.752
  611POPC   D2A12256  10.248  32.353   8.348
  611POPC   C3A12257  10.484  32.295   7.965
  611POPC   C4A12258  10.730  32.482   7.661
  611POPC   C1B12259  10.807  32.031   8.801
  611POPC   C2B12260  10.937  32.078   8.351
  611POPC   C3B12261  10.967  32.085   7.895
  611POPC   C4B12262  10.710  31.943   7.567
  612POPC   NC312263   2.940  30.460   9.637
  612POPC   PO412264   2.376  30.480   9.384
  612POPC   GL112265   2.687  30.660   9.136
  612POPC   GL212266   2.977  30.442   9.072
  612POPC   C1A12267   2.673  30.961   8.774
  612POPC   D2A12268   2.831  30.930   8.347
  612POPC   C3A12269   2.664  30.856   7.928
  612POPC   C4A12270   3.047  30.855   7.669
  612POPC   C1B12271   2.765  30.479   8.663
  612POPC   C2B12272   2.742  30.432   8.224
  612POPC   C3B12273   2.849  30.361   7.794
  612POPC   C4B12274   2.586  30.267   7.442
  613POPC   NC312275  19.757  13.136   9.373
  613POPC   PO412276  19.904  13.833   9.413
  613POPC   GL112277  19.697  13.611   9.145
  613POPC   GL212278  20.013  13.476   9.027
  613POPC   C1A12279  19.669  13.703   8.724
  613POPC   D2A12280  20.017  13.566   8.497
  613POPC   C3A12281  19.895  13.563   8.105
  613POPC   C4A12282  20.006  13.605   7.721
  613POPC   C1B12283  19.740  13.213   8.748
  613POPC   C2B12284  19.561  13.274   8.362
  613POPC   C3B12285  19.538  13.175   7.930
  613POPC   C4B12286  19.817  13.167   7.579
  614POPC   NC312287  31.948  18.839   9.271
  614POPC   PO412288  32.505  19.105   9.411
  614POPC   GL112289  32.296  19.207   9.078
  614POPC   GL212290  32.043  19.390   9.161
  614POPC   C1A12291  32.403  19.229   8.691
  614POPC   D2A12292  32.490  19.050   8.319
  614POPC   C3A12293  32.175  18.870   8.111
  614POPC   C4A12294  32.288  18.895   7.711
  614POPC   C1B12295  31.896  19.296   8.732
  614POPC   C2B12296  32.021  19.342   8.284
  614POPC   C3B12297  31.822  19.158   7.873
  614POPC   C4B12298  31.931  19.218   7.421
  615POPC   NC312299  39.883  33.801   9.489
  615POPC   PO412300  40.571  34.157   9.535
  615POPC   GL112301  40.306  33.968   9.217
  615POPC   GL212302  40.009  34.040   9.031
  615POPC   C1A12303  40.313  33.638   8.925
  615POPC   D2A12304  40.384  33.643   8.496
  615POPC   C3A12305  40.062  33.694   8.181
  615POPC   C4A12306  40.100  33.366   7.867
  615POPC   C1B12307  39.787  33.670   8.860
  615POPC   C2B12308  39.602  33.709   8.481
  615POPC   C3B12309  39.571  33.634   8.057
  615POPC   C4B12310  39.806  33.709   7.695
  616POPC   NC312311  24.454  34.274   9.586
  616POPC   PO412312  24.844  33.804   9.794
  616POPC   GL112313  24.649  33.783   9.335
  616POPC   GL212314  24.347  33.949   9.168
  616POPC   C1A12315  24.771  33.649   8.878
  616POPC   D2A12316  24.794  33.738   8.408
  616POPC   C3A12317  24.386  33.640   8.187
  616POPC   C4A12318  24.208  33.512   7.750
  616POPC   C1B12319  24.404  33.971   8.705
  616POPC   C2B12320  24.413  34.167   8.294
  616POPC   C3B12321  24.340  34.029   7.856
  616POPC   C4B12322  24.149  34.091   7.457
  617POPC   NC312323  40.300  31.229   9.399
  617POPC   PO412324  40.832  30.917   9.586
  617POPC   GL112325  40.792  30.639   9.206
  617POPC   GL212326  40.448  30.666   9.237
  617POPC   C1A12327  40.842  30.546   8.706
  617POPC   D2A12328  40.867  30.448   8.229
  617POPC   C3A12329  41.010  30.722   7.881
  617POPC   C4A12330  40.810  30.905   7.488
  617POPC   C1B12331  40.569  30.961   8.866
  617POPC   C2B12332  40.545  30.867   8.409
  617POPC   C3B12333  40.570  30.993   7.978
  617POPC   C4B12334  40.297  31.147   7.688
  618POPC   NC312335  30.425   5.509   9.405
  618POPC   PO412336  30.729   6.162   9.399
  618POPC   GL112337  30.586   5.873   9.085
  618POPC   GL212338  30.853   5.664   9.085
  618POPC   C1A12339  30.568   5.566   8.695
  618POPC   D2A12340  30.441   5.741   8.294
  618POPC   C3A12341  30.351   5.640   7.866
  618POPC   C4A12342  30.342   5.866   7.477
  618POPC   C1B12343  30.890   5.960   8.699
  618POPC   C2B12344  30.781   6.125   8.302
  618POPC   C3B12345  30.822   5.846   7.956
  618POPC   C4B12346  31.100   5.815   7.618
  619POPC   NC312347  40.891  29.551   9.455
  619POPC   PO412348  40.615  28.975   9.359
  619POPC   GL112349  40.728  29.236   9.025
  619POPC   GL212350  41.073  29.225   9.084
  619POPC   C1A12351  40.662  29.214   8.566
  619POPC   D2A12352  40.496  29.514   8.256
  619POPC   C3A12353  40.612  29.420   7.839
  619POPC   C4A12354  40.541  29.149   7.474
  619POPC   C1B12355  41.126  29.386   8.685
  619POPC   C2B12356  41.006  29.537   8.265
  619POPC   C3B12357  41.127  29.343   7.849
  619POPC   C4B12358  41.075  29.136   7.465
  620POPC   NC312359  11.947  24.913   9.490
  620POPC   PO412360  11.948  24.271   9.322
  620POPC   GL112361  12.040  24.615   9.074
  620POPC   GL212362  11.742  24.837   9.048
  620POPC   C1A12363  12.297  24.549   8.729
  620POPC   D2A12364  12.361  24.505   8.303
  620POPC   C3A12365  11.950  24.417   8.094
  620POPC   C4A12366  11.863  24.225   7.699
  620POPC   C1B12367  11.908  24.969   8.682
  620POPC   C2B12368  12.080  24.926   8.294
  620POPC   C3B12369  11.887  24.885   7.908
  620POPC   C4B12370  12.114  24.676   7.621
  621POPC   NC312371  17.237   2.635   9.339
  621POPC   PO412372  17.504   3.263   9.491
  621POPC   GL112373  17.540   3.037   9.110
  621POPC   GL212374  17.670   2.707   9.083
  621POPC   C1A12375  17.475   3.022   8.666
  621POPC   D2A12376  17.600   3.288   8.313
  621POPC   C3A12377  17.463   3.208   7.905
  621POPC   C4A12378  17.563   2.921   7.573
  621POPC   C1B12379  17.546   2.498   8.731
  621POPC   C2B12380  17.515   2.469   8.304
  621POPC   C3B12381  17.450   2.545   7.890
  621POPC   C4B12382  17.719   2.387   7.626
  622POPC   NC312383  27.199  34.885   9.602
  622POPC   PO412384  26.712  34.379   9.527
  622POPC   GL112385  26.732  34.718   9.240
  622POPC   GL212386  27.066  34.792   9.126
  622POPC   C1A12387  26.638  34.643   8.826
  622POPC   D2A12388  26.573  34.313   8.508
  622POPC   C3A12389  26.633  34.525   8.140
  622POPC   C4A12390  26.552  34.518   7.713
  622POPC   C1B12391  27.145  34.595   8.729
  622POPC   C2B12392  27.121  34.723   8.306
  622POPC   C3B12393  27.055  34.629   7.871
  622POPC   C4B12394  26.957  34.759   7.463
  623POPC   NC312395  34.811  29.915   9.471
  623POPC   PO412396  34.184  30.135   9.343
  623POPC   GL112397  34.519  30.077   9.064
  623POPC   GL212398  34.790  29.835   8.973
  623POPC   C1A12399  34.461  30.061   8.647
  623POPC   D2A12400  34.709  29.797   8.427
  623POPC   C3A12401  34.717  29.947   8.035
  623POPC   C4A12402  34.703  29.771   7.645
  623POPC   C1B12403  34.433  29.599   8.847
  623POPC   C2B12404  34.218  29.626   8.447
  623POPC   C3B12405  34.390  29.581   8.034
  623POPC   C4B12406  34.218  29.672   7.630
  624POPC   NC312407  31.334  22.529   9.636
  624POPC   PO412408  31.719  23.030   9.431
  624POPC   GL112409  31.428  23.048   9.113
  624POPC   GL212410  31.314  23.390   9.143
  624POPC   C1A12411  31.210  22.828   8.761
  624POPC   D2A12412  31.367  22.831   8.374
  624POPC   C3A12413  31.787  22.777   8.238
  624POPC   C4A12414  31.607  22.894   7.881
  624POPC   C1B12415  31.321  23.321   8.681
  624POPC   C2B12416  31.150  23.288   8.252
  624POPC   C3B12417  31.343  23.314   7.826
  624POPC   C4B12418  31.381  23.403   7.365
  625POPC   NC312419  39.767   8.504   9.366
  625POPC   PO412420  40.324   8.102   9.468
  625POPC   GL112421  40.093   8.176   9.133
  625POPC   GL212422  40.208   8.466   9.017
  625POPC   C1A12423  39.924   8.097   8.721
  625POPC   D2A12424  39.745   7.929   8.335
  625POPC   C3A12425  39.939   7.992   7.921
  625POPC   C4A12426  39.820   7.821   7.510
  625POPC   C1B12427  39.983   8.613   8.668
  625POPC   C2B12428  39.995   8.391   8.281
  625POPC   C3B12429  40.139   8.487   7.878
  625POPC   C4B12430  40.242   8.585   7.435
  626POPC   NC312431  34.775  34.174   9.309
  626POPC   PO412432  34.500  33.685   9.715
  626POPC   GL112433  34.561  33.690   9.263
  626POPC   GL212434  34.286  33.923   9.228
  626POPC   C1A12435  34.609  33.819   8.806
  626POPC   D2A12436  34.398  33.815   8.415
  626POPC   C3A12437  34.634  33.736   8.057
  626POPC   C4A12438  34.861  33.652   7.666
  626POPC   C1B12439  34.109  34.023   8.818
  626POPC   C2B12440  34.078  34.226   8.415
  626POPC   C3B12441  34.010  34.062   8.016
  626POPC   C4B12442  34.160  34.045   7.616
  627POPC   NC312443  37.464  35.888   9.478
  627POPC   PO412444  37.963  36.376   9.680
  627POPC   GL112445  37.708  36.320   9.288
  627POPC   GL212446  37.732  36.046   9.057
  627POPC   C1A12447  37.573  36.462   8.856
  627POPC   D2A12448  37.490  36.112   8.591
  627POPC   C3A12449  37.649  36.151   8.182
  627POPC   C4A12450  37.482  36.003   7.812
  627POPC   C1B12451  38.092  35.901   8.821
  627POPC   C2B12452  38.244  35.788   8.428
  627POPC   C3B12453  37.989  35.783   8.065
  627POPC   C4B12454  37.974  36.022   7.680
  628POPC   NC312455  20.581  38.040   9.482
  628POPC   PO412456  20.704  37.408   9.566
  628POPC   GL112457  20.671  37.602   9.151
  628POPC   GL212458  20.424  37.890   9.025
  628POPC   C1A12459  20.829  37.749   8.747
  628POPC   D2A12460  20.532  38.011   8.525
  628POPC   C3A12461  20.700  38.019   8.121
  628POPC   C4A12462  20.659  37.761   7.776
  628POPC   C1B12463  20.367  37.510   8.746
  628POPC   C2B12464  20.477  37.332   8.351
  628POPC   C3B12465  20.324  37.425   7.939
  628POPC   C4B12466  20.521  37.340   7.510
  629POPC   NC312467  28.022  20.577   9.492
  629POPC   PO412468  28.628  20.388   9.610
  629POPC   GL112469  28.499  20.677   9.253
  629POPC   GL212470  28.160  20.785   9.069
  629POPC   C1A12471  28.638  20.665   8.822
  629POPC   D2A12472  28.531  20.761   8.393
  629POPC   C3A12473  28.499  20.553   7.969
  629POPC   C4A12474  28.681  20.604   7.494
  629POPC   C1B12475  28.150  20.518   8.703
  629POPC   C2B12476  28.109  20.413   8.273
  629POPC   C3B12477  27.977  20.654   7.916
  629POPC   C4B12478  27.746  20.626   7.534
  630POPC   NC312479  10.651  23.329   9.506
  630POPC   PO412480  10.173  22.872   9.565
  630POPC   GL112481  10.435  22.954   9.220
  630POPC   GL212482  10.717  22.696   9.193
  630POPC   C1A12483  10.332  23.099   8.801
  630POPC   D2A12484  10.288  22.831   8.428
  630POPC   C3A12485  10.261  23.042   8.034
  630POPC   C4A12486  10.397  22.761   7.719
  630POPC   C1B12487  10.844  22.961   8.861
  630POPC   C2B12488  10.738  23.107   8.455
  630POPC   C3B12489  10.752  22.851   8.083
  630POPC   C4B12490  10.796  23.073   7.691
  631POPC   NC312491  24.199  10.898   9.359
  631POPC   PO412492  23.727  10.532   9.441
  631POPC   GL112493  23.745  10.723   9.051
  631POPC   GL212494  23.956  10.995   8.939
  631POPC   C1A12495  23.534  10.570   8.663
  631POPC   D2A12496  23.455  10.212   8.366
  631POPC   C3A12497  23.423  10.368   7.965
  631POPC   C4A12498  23.484  10.828   7.882
  631POPC   C1B12499  23.938  10.919   8.517
  631POPC   C2B12500  23.815  10.609   8.215
  631POPC   C3B12501  23.869  10.522   7.750
  631POPC   C4B12502  23.854  10.653   7.306
  632POPC   NC312503  37.110   9.985   9.515
  632POPC   PO412504  36.489   9.824   9.470
  632POPC   GL112505  36.783   9.811   9.133
  632POPC   GL212506  37.041  10.081   9.040
  632POPC   C1A12507  36.573   9.787   8.767
  632POPC   D2A12508  36.695   9.602   8.412
  632POPC   C3A12509  36.642   9.803   8.028
  632POPC   C4A12510  36.818   9.460   7.838
  632POPC   C1B12511  37.090   9.833   8.676
  632POPC   C2B12512  37.169   9.716   8.223
  632POPC   C3B12513  37.160   9.847   7.792
  632POPC   C4B12514  37.184  10.122   7.424
  633POPC   NC312515  22.786  13.239   9.798
  633POPC   PO412516  23.088  12.681   9.622
  633POPC   GL112517  23.121  12.841   9.212
  633POPC   GL212518  22.794  12.694   9.089
  633POPC   C1A12519  23.226  12.749   8.778
  633POPC   D2A12520  23.270  12.977   8.406
  633POPC   C3A12521  23.013  13.046   8.034
  633POPC   C4A12522  23.137  12.837   7.701
  633POPC   C1B12523  22.768  12.944   8.676
  633POPC   C2B12524  22.845  12.702   8.366
  633POPC   C3B12525  22.751  12.614   7.954
  633POPC   C4B12526  22.527  12.908   7.749
  634POPC   NC312527  16.376  38.118   9.306
  634POPC   PO412528  16.709  38.650   9.508
  634POPC   GL112529  16.719  38.484   9.105
  634POPC   GL212530  17.037  38.559   8.986
  634POPC   C1A12531  16.699  38.359   8.654
  634POPC   D2A12532  16.985  38.448   8.306
  634POPC   C3A12533  16.857  38.333   7.884
  634POPC   C4A12534  16.982  38.045   7.508
  634POPC   C1B12535  16.923  38.861   8.665
  634POPC   C2B12536  16.940  38.985   8.239
  634POPC   C3B12537  16.758  38.829   7.848
  634POPC   C4B12538  16.792  38.572   7.458
  635POPC   NC312539   7.437  16.677   9.702
  635POPC   PO412540   7.056  17.127   9.315
  635POPC   GL112541   7.291  16.821   8.968
  635POPC   GL212542   7.496  16.561   9.132
  635POPC   C1A12543   7.447  16.761   8.556
  635POPC   D2A12544   7.282  16.944   8.185
  635POPC   C3A12545   7.304  16.625   7.903
  635POPC   C4A12546   7.747  16.604   8.024
  635POPC   C1B12547   7.519  16.290   8.764
  635POPC   C2B12548   7.414  16.224   8.308
  635POPC   C3B12549   7.568  16.171   7.863
  635POPC   C4B12550   7.394  16.331   7.472
  636POPC   NC312551  40.314  43.986   9.417
  636POPC   PO412552  39.666  43.899   9.583
  636POPC   GL112553  39.886  43.616   9.241
  636POPC   GL212554  40.234  43.526   9.201
  636POPC   C1A12555  39.880  43.752   8.782
  636POPC   D2A12556  39.832  43.994   8.382
  636POPC   C3A12557  40.118  43.904   8.044
  636POPC   C4A12558  40.149  43.853   7.596
  636POPC   C1B12559  40.438  43.577   8.815
  636POPC   C2B12560  40.280  43.590   8.424
  636POPC   C3B12561  40.300  43.406   8.029
  636POPC   C4B12562  40.512  43.524   7.694
  637POPC   NC312563  20.303  11.770   9.617
  637POPC   PO412564  20.737  12.189   9.681
  637POPC   GL112565  20.749  12.127   9.205
  637POPC   GL212566  20.499  11.874   9.106
  637POPC   C1A12567  20.660  12.201   8.744
  637POPC   D2A12568  20.479  12.120   8.351
  637POPC   C3A12569  20.660  12.205   7.938
  637POPC   C4A12570  20.604  12.093   7.508
  637POPC   C1B12571  20.357  11.731   8.683
  637POPC   C2B12572  20.441  11.608   8.225
  637POPC   C3B12573  20.300  11.734   7.786
  637POPC   C4B12574  20.218  11.750   7.305
  638POPC   NC312575  23.798  39.013   9.729
  638POPC   PO412576  24.464  39.153   9.514
  638POPC   GL112577  24.486  39.295   9.117
  638POPC   GL212578  24.114  39.327   9.075
  638POPC   C1A12579  24.787  39.365   8.794
  638POPC   D2A12580  24.878  39.172   8.399
  638POPC   C3A12581  24.812  39.388   8.021
  638POPC   C4A12582  24.511  39.309   7.718
  638POPC   C1B12583  24.293  39.287   8.648
  638POPC   C2B12584  24.318  39.360   8.215
  638POPC   C3B12585  24.091  39.160   7.938
  638POPC   C4B12586  24.205  38.764   7.762
  639POPC   NC312587  10.736  34.208   9.474
  639POPC   PO412588  10.301  34.690   9.536
  639POPC   GL112589  10.486  34.693   9.163
  639POPC   GL212590  10.742  34.940   9.066
  639POPC   C1A12591  10.393  34.748   8.746
  639POPC   D2A12592  10.400  34.602   8.383
  639POPC   C3A12593  10.395  34.864   8.061
  639POPC   C4A12594  10.476  34.685   7.712
  639POPC   C1B12595  10.849  34.548   8.830
  639POPC   C2B12596  10.951  34.408   8.432
  639POPC   C3B12597  10.838  34.593   8.076
  639POPC   C4B12598  10.986  34.782   7.691
  640POPC   NC312599  11.806  13.271   9.358
  640POPC   PO412600  12.161  13.688   9.782
  640POPC   GL112601  12.013  13.799   9.310
  640POPC   GL212602  11.746  14.068   9.284
  640POPC   C1A12603  11.985  13.669   8.854
  640POPC   D2A12604  12.167  13.586   8.433
  640POPC   C3A12605  12.076  13.770   8.038
  640POPC   C4A12606  11.964  13.577   7.640
  640POPC   C1B12607  11.620  14.029   8.839
  640POPC   C2B12608  11.738  13.882   8.443
  640POPC   C3B12609  11.719  14.115   8.080
  640POPC   C4B12610  11.905  14.109   7.696
  641POPC   NC312611  25.440   5.213   9.355
  641POPC   PO412612  24.932   4.872   9.635
  641POPC   GL112613  25.076   4.900   9.188
  641POPC   GL212614  25.008   5.261   9.122
  641POPC   C1A12615  25.234   4.974   8.759
  641POPC   D2A12616  25.353   4.746   8.392
  641POPC   C3A12617  25.284   5.015   8.101
  641POPC   C4A12618  25.253   5.065   7.695
  641POPC   C1B12619  25.058   5.483   8.763
  641POPC   C2B12620  24.964   5.408   8.343
  641POPC   C3B12621  24.907   5.377   7.915
  641POPC   C4B12622  24.977   5.458   7.479
  642POPC   NC312623  37.806  41.914   9.623
  642POPC   PO412624  37.559  42.478   9.653
  642POPC   GL112625  37.669  42.214   9.193
  642POPC   GL212626  37.476  41.955   9.142
  642POPC   C1A12627  37.553  42.270   8.716
  642POPC   D2A12628  37.451  42.358   8.280
  642POPC   C3A12629  37.815  42.511   8.050
  642POPC   C4A12630  37.870  42.517   7.611
  642POPC   C1B12631  37.841  41.873   8.816
  642POPC   C2B12632  37.881  42.040   8.360
  642POPC   C3B12633  37.644  42.014   7.939
  642POPC   C4B12634  37.652  42.066   7.465
  643POPC   NC312635  38.818  32.077   9.563
  643POPC   PO412636  38.223  32.459   9.382
  643POPC   GL112637  38.467  32.181   9.127
  643POPC   GL212638  38.773  32.346   9.138
  643POPC   C1A12639  38.606  32.149   8.685
  643POPC   D2A12640  38.712  32.086   8.254
  643POPC   C3A12641  38.679  32.141   7.811
  643POPC   C4A12642  38.476  31.986   7.431
  643POPC   C1B12643  38.786  32.658   8.839
  643POPC   C2B12644  38.901  32.527   8.460
  643POPC   C3B12645  38.766  32.590   8.090
  643POPC   C4B12646  38.601  32.627   7.719
  644POPC   NC312647  27.427  43.197   9.830
  644POPC   PO412648  27.803  43.540   9.385
  644POPC   GL112649  27.537  43.396   9.040
  644POPC   GL212650  27.233  43.305   9.178
  644POPC   C1A12651  27.498  43.227   8.608
  644POPC   D2A12652  27.635  42.933   8.267
  644POPC   C3A12653  27.858  43.072   7.910
  644POPC   C4A12654  27.932  43.487   7.902
  644POPC   C1B12655  27.101  43.519   8.786
  644POPC   C2B12656  27.250  43.610   8.379
  644POPC   C3B12657  27.294  43.293   8.083
  644POPC   C4B12658  27.475  43.322   7.707
  645POPC   NC312659  24.196  28.229   9.358
  645POPC   PO412660  24.877  28.132   9.303
  645POPC   GL112661  24.620  28.416   9.075
  645POPC   GL212662  24.794  28.736   8.999
  645POPC   C1A12663  24.367  28.316   8.726
  645POPC   D2A12664  24.516  28.192   8.342
  645POPC   C3A12665  24.386  28.234   7.939
  645POPC   C4A12666  24.743  28.115   7.659
  645POPC   C1B12667  24.457  28.817   8.691
  645POPC   C2B12668  24.245  28.652   8.331
  645POPC   C3B12669  24.295  28.746   7.918
  645POPC   C4B12670  24.537  28.575   7.589
  646POPC   NC312671  40.657   7.097   9.811
  646POPC   PO412672  41.018   7.385   9.414
  646POPC   GL112673  40.648   7.385   9.097
  646POPC   GL212674  40.523   7.062   9.102
  646POPC   C1A12675  40.477   7.342   8.664
  646POPC   D2A12676  40.665   7.170   8.295
  646POPC   C3A12677  40.685   7.338   7.890
  646POPC   C4A12678  40.480   7.178   7.506
  646POPC   C1B12679  40.872   7.030   8.765
  646POPC   C2B12680  40.927   6.756   8.386
  646POPC   C3B12681  40.759   6.786   7.935
  646POPC   C4B12682  41.005   6.891   7.550
  647POPC   NC312683  25.622  39.667   9.496
  647POPC   PO412684  25.396  40.280   9.357
  647POPC   GL112685  25.463  39.945   9.073
  647POPC   GL212686  25.232  39.694   9.151
  647POPC   C1A12687  25.521  39.896   8.633
  647POPC   D2A12688  25.502  40.273   8.385
  647POPC   C3A12689  25.393  40.226   7.981
  647POPC   C4A12690  25.232  40.140   7.550
  647POPC   C1B12691  25.018  39.841   8.786
  647POPC   C2B12692  25.076  39.952   8.357
  647POPC   C3B12693  25.097  39.826   7.930
  647POPC   C4B12694  24.999  39.598   7.581
  648POPC   NC312695  22.695  23.870   9.475
  648POPC   PO412696  23.023  23.305   9.374
  648POPC   GL112697  22.957  23.576   9.024
  648POPC   GL212698  23.109  23.902   9.128
  648POPC   C1A12699  23.212  23.648   8.642
  648POPC   D2A12700  23.224  23.482   8.220
  648POPC   C3A12701  22.874  23.587   7.961
  648POPC   C4A12702  22.766  23.645   7.539
  648POPC   C1B12703  22.832  24.018   8.785
  648POPC   C2B12704  22.881  23.918   8.362
  648POPC   C3B12705  23.155  24.031   8.027
  648POPC   C4B12706  22.788  24.091   7.837
  649POPC   NC312707   2.749  20.353   9.482
  649POPC   PO412708   2.466  20.894   9.469
  649POPC   GL112709   2.575  20.687   9.089
  649POPC   GL212710   2.912  20.606   9.065
  649POPC   C1A12711   2.564  20.287   8.833
  649POPC   D2A12712   2.794  20.098   8.486
  649POPC   C3A12713   2.786  20.334   8.075
  649POPC   C4A12714   2.803  20.383   7.622
  649POPC   C1B12715   2.835  20.677   8.627
  649POPC   C2B12716   2.525  20.742   8.296
  649POPC   C3B12717   2.655  20.821   7.866
  649POPC   C4B12718   3.006  21.145   7.760
  650POPC   NC312719  41.000   0.201   9.612
  650POPC   PO412720  40.543   0.556   9.280
  650POPC   GL112721  40.806   0.502   8.985
  650POPC   GL212722  41.045   0.738   9.031
  650POPC   C1A12723  40.736   0.493   8.555
  650POPC   D2A12724  40.475   0.277   8.283
  650POPC   C3A12725  40.512   0.496   7.901
  650POPC   C4A12726  40.559   0.210   7.644
  650POPC   C1B12727  41.229   0.558   8.668
  650POPC   C2B12728  41.187   0.642   8.230
  650POPC   C3B12729  40.951   0.791   7.874
  650POPC   C4B12730  40.828   0.581   7.452
  651POPC   NC312731  44.014  31.508   9.272
  651POPC   PO412732  44.581  31.363   9.570
  651POPC   GL112733  44.717  31.434   9.156
  651POPC   GL212734  44.886  31.148   9.016
  651POPC   C1A12735  44.510  31.391   8.743
  651POPC   D2A12736  44.519  31.192   8.334
  651POPC   C3A12737  44.465  31.423   7.963
  651POPC   C4A12738  44.612  31.605   7.578
  651POPC   C1B12739  44.972  31.219   8.561
  651POPC   C2B12740  44.978  30.975   8.169
  651POPC   C3B12741  44.913  31.200   7.768
  651POPC   C4B12742  44.874  31.289   7.296
  652POPC   NC312743  24.581  24.700   9.795
  652POPC   PO412744  24.291  24.173   9.473
  652POPC   GL112745  24.525  24.365   9.141
  652POPC   GL212746  24.560  24.764   9.211
  652POPC   C1A12747  24.549  24.160   8.730
  652POPC   D2A12748  24.634  24.422   8.366
  652POPC   C3A12749  24.449  24.368   7.970
  652POPC   C4A12750  24.493  24.433   7.536
  652POPC   C1B12751  24.415  24.698   8.783
  652POPC   C2B12752  24.210  24.772   8.415
  652POPC   C3B12753  24.298  24.864   7.987
  652POPC   C4B12754  24.720  24.806   7.808
  653POPC   NC312755  34.617   2.834   9.653
  653POPC   PO412756  34.726   2.214   9.614
  653POPC   GL112757  34.705   2.560   9.229
  653POPC   GL212758  34.672   2.938   9.163
  653POPC   C1A12759  34.555   2.596   8.781
  653POPC   D2A12760  34.217   2.633   8.467
  653POPC   C3A12761  34.330   2.492   8.031
  653POPC   C4A12762  34.742   2.348   7.873
  653POPC   C1B12763  34.462   3.127   8.837
  653POPC   C2B12764  34.582   3.002   8.444
  653POPC   C3B12765  34.478   3.133   8.052
  653POPC   C4B12766  34.392   2.888   7.694
  654POPC   NC312767  35.867  11.037   9.813
  654POPC   PO412768  36.366  11.351   9.599
  654POPC   GL112769  36.226  11.189   9.184
  654POPC   GL212770  35.901  11.019   9.285
  654POPC   C1A12771  36.192  11.446   8.778
  654POPC   D2A12772  36.135  11.611   8.360
  654POPC   C3A12773  36.335  11.281   8.129
  654POPC   C4A12774  36.275  11.152   7.712
  654POPC   C1B12775  35.789  11.122   8.861
  654POPC   C2B12776  35.970  11.120   8.443
  654POPC   C3B12777  35.837  11.207   8.038
  654POPC   C4B12778  35.762  10.998   7.681
  655POPC   NC312779  33.396  40.286   9.404
  655POPC   PO412780  33.401  39.586   9.439
  655POPC   GL112781  33.088  39.762   9.109
  655POPC   GL212782  33.060  40.127   9.060
  655POPC   C1A12783  33.082  39.870   8.635
  655POPC   D2A12784  33.112  40.113   8.237
  655POPC   C3A12785  33.099  39.824   7.870
  655POPC   C4A12786  33.366  39.571   7.597
  655POPC   C1B12787  32.918  40.381   8.697
  655POPC   C2B12788  32.727  40.443   8.261
  655POPC   C3B12789  32.645  40.158   7.898
  655POPC   C4B12790  32.390  40.199   7.514
  656POPC   NC312791   0.135   3.177   9.571
  656POPC   PO412792   0.068   3.749   9.468
  656POPC   GL112793   0.277   3.627   9.127
  656POPC   GL212794   0.369   3.299   9.139
  656POPC   C1A12795   0.154   3.538   8.729
  656POPC   D2A12796   0.214   3.406   8.313
  656POPC   C3A12797   0.390   3.646   7.995
  656POPC   C4A12798   0.404   3.469   7.603
  656POPC   C1B12799   0.642   3.433   8.799
  656POPC   C2B12800   0.786   3.237   8.428
  656POPC   C3B12801   0.668   3.238   8.010
  656POPC   C4B12802   0.857   3.237   7.595
  657POPC   NC312803  40.382  43.251   9.614
  657POPC   PO412804  39.759  43.052   9.571
  657POPC   GL112805  40.029  43.060   9.230
  657POPC   GL212806  40.285  42.842   9.318
  657POPC   C1A12807  39.976  43.260   8.800
  657POPC   D2A12808  39.803  43.420   8.373
  657POPC   C3A12809  39.895  43.093   8.102
  657POPC   C4A12810  39.924  43.020   7.678
  657POPC   C1B12811  40.377  42.950   8.871
  657POPC   C2B12812  40.300  43.066   8.431
  657POPC   C3B12813  40.350  42.875   8.010
  657POPC   C4B12814  40.430  43.025   7.615
  658POPC   NC312815  30.195   3.974   9.439
  658POPC   PO412816  29.788   4.537   9.560
  658POPC   GL112817  30.004   4.431   9.214
  658POPC   GL212818  29.808   4.151   9.095
  658POPC   C1A12819  30.039   4.504   8.781
  658POPC   D2A12820  30.009   4.727   8.385
  658POPC   C3A12821  30.042   4.460   8.037
  658POPC   C4A12822  30.097   4.087   7.828
  658POPC   C1B12823  29.635   4.161   8.678
  658POPC   C2B12824  29.768   4.089   8.244
  658POPC   C3B12825  29.595   4.235   7.830
  658POPC   C4B12826  29.532   4.487   7.434
  659POPC   NC312827  36.795  44.314   9.351
  659POPC   PO412828  36.950  44.867   9.714
  659POPC   GL112829  37.100  44.735   9.280
  659POPC   GL212830  36.944   0.006   9.113
  659POPC   C1A12831  37.130  44.622   8.812
  659POPC   D2A12832  36.924  44.812   8.439
  659POPC   C3A12833  36.837  44.558   8.060
  659POPC   C4A12834  36.622  44.543   7.660
  659POPC   C1B12835  37.319   0.091   8.884
  659POPC   C2B12836  37.433  44.954   8.475
  659POPC   C3B12837  37.213  44.963   8.053
  659POPC   C4B12838  37.024  44.855   7.673
  660POPC   NC312839   1.719  23.445   9.309
  660POPC   PO412840   2.172  24.058   9.414
  660POPC   GL112841   2.008  23.826   9.128
  660POPC   GL212842   1.669  23.957   9.212
  660POPC   C1A12843   2.048  23.596   8.731
  660POPC   D2A12844   2.119  23.288   8.427
  660POPC   C3A12845   2.075  23.388   8.009
  660POPC   C4A12846   1.928  23.680   7.717
  660POPC   C1B12847   1.658  23.917   8.767
  660POPC   C2B12848   1.879  23.990   8.371
  660POPC   C3B12849   1.778  24.147   7.981
  660POPC   C4B12850   1.658  24.073   7.575
  661POPC   NC312851  43.849  31.719   9.715
  661POPC   PO412852  43.636  31.234   9.267
  661POPC   GL112853  43.677  31.357   8.922
  661POPC   GL212854  43.514  31.696   8.993
  661POPC   C1A12855  44.000  31.358   8.641
  661POPC   D2A12856  44.146  31.563   8.332
  661POPC   C3A12857  43.951  31.386   7.990
  661POPC   C4A12858  44.122  31.481   7.576
  661POPC   C1B12859  43.580  31.655   8.543
  661POPC   C2B12860  43.743  31.854   8.212
  661POPC   C3B12861  43.961  31.885   7.863
  661POPC   C4B12862  43.660  31.647   7.637
  662POPC   NC312863   1.970   6.152   9.720
  662POPC   PO412864   2.315   6.036   9.214
  662POPC   GL112865   1.897   6.033   9.000
  662POPC   GL212866   1.941   5.704   8.847
  662POPC   C1A12867   1.768   6.220   8.627
  662POPC   D2A12868   1.871   5.868   8.340
  662POPC   C3A12869   2.077   5.881   7.943
  662POPC   C4A12870   2.527   5.950   7.857
  662POPC   C1B12871   1.749   5.380   8.576
  662POPC   C2B12872   1.895   5.403   8.149
  662POPC   C3B12873   2.173   5.408   7.798
  662POPC   C4B12874   1.948   5.609   7.461
  663POPC   NC312875   1.294  11.625   9.326
  663POPC   PO412876   0.891  12.178   9.532
  663POPC   GL112877   1.098  12.217   9.068
  663POPC   GL212878   1.268  11.898   8.895
  663POPC   C1A12879   0.989  12.220   8.614
  663POPC   D2A12880   1.000  11.858   8.298
  663POPC   C3A12881   1.012  11.985   7.856
  663POPC   C4A12882   1.256  12.301   7.701
  663POPC   C1B12883   1.722  11.763   8.762
  663POPC   C2B12884   1.725  11.780   8.329
  663POPC   C3B12885   1.470  11.834   8.018
  663POPC   C4B12886   1.502  11.832   7.606
  664POPC   NC312887  30.219  26.201   9.428
  664POPC   PO412888  29.698  25.744   9.459
  664POPC   GL112889  29.845  25.943   9.105
  664POPC   GL212890  30.143  25.742   9.140
  664POPC   C1A12891  29.787  26.122   8.682
  664POPC   D2A12892  30.004  26.036   8.308
  664POPC   C3A12893  29.757  26.117   7.963
  664POPC   C4A12894  29.895  26.338   7.634
  664POPC   C1B12895  30.279  25.969   8.774
  664POPC   C2B12896  30.431  25.752   8.410
  664POPC   C3B12897  30.315  25.714   8.014
  664POPC   C4B12898  30.269  26.079   7.838
  665POPC   NC312899  21.196  30.314   9.542
  665POPC   PO412900  21.633  29.821   9.622
  665POPC   GL112901  21.624  29.904   9.174
  665POPC   GL212902  21.483  30.186   9.141
  665POPC   C1A12903  21.450  29.944   8.709
  665POPC   D2A12904  21.318  30.085   8.305
  665POPC   C3A12905  21.364  29.693   8.065
  665POPC   C4A12906  21.473  29.641   7.653
  665POPC   C1B12907  21.772  30.321   8.788
  665POPC   C2B12908  21.838  30.095   8.362
  665POPC   C3B12909  21.713  30.048   7.915
  665POPC   C4B12910  21.286  30.103   7.738
  666POPC   NC312911  38.894  30.681   9.659
  666POPC   PO412912  38.257  30.788   9.579
  666POPC   GL112913  38.275  30.923   9.179
  666POPC   GL212914  38.601  30.752   9.123
  666POPC   C1A12915  38.365  31.060   8.789
  666POPC   D2A12916  38.514  30.778   8.473
  666POPC   C3A12917  38.265  30.795   8.095
  666POPC   C4A12918  38.190  30.631   7.668
  666POPC   C1B12919  38.690  30.406   8.829
  666POPC   C2B12920  38.848  30.336   8.419
  666POPC   C3B12921  38.674  30.458   8.014
  666POPC   C4B12922  38.526  30.189   7.690
  667POPC   NC312923  30.338  35.131   9.402
  667POPC   PO412924  31.015  35.233   9.401
  667POPC   GL112925  30.679  35.339   9.102
  667POPC   GL212926  30.517  35.036   8.934
  667POPC   C1A12927  30.735  35.515   8.719
  667POPC   D2A12928  31.118  35.443   8.506
  667POPC   C3A12929  31.041  35.413   8.074
  667POPC   C4A12930  30.703  35.610   7.832
  667POPC   C1B12931  30.937  35.014   8.765
  667POPC   C2B12932  31.114  34.949   8.354
  667POPC   C3B12933  30.966  34.923   7.905
  667POPC   C4B12934  30.565  35.119   7.838
  668POPC   NC312935   0.163  22.688   9.564
  668POPC   PO412936  44.747  23.225   9.779
  668POPC   GL112937  44.610  23.014   9.362
  668POPC   GL212938  44.421  23.169   9.088
  668POPC   C1A12939  44.829  22.873   8.945
  668POPC   D2A12940  44.771  23.100   8.520
  668POPC   C3A12941  44.854  22.906   8.122
  668POPC   C4A12942  44.884  22.635   7.771
  668POPC   C1B12943  44.375  22.837   8.745
  668POPC   C2B12944  44.454  22.644   8.346
  668POPC   C3B12945  44.395  22.764   7.915
  668POPC   C4B12946  44.551  22.940   7.507
  669POPC   NC312947  23.291  22.175   9.455
  669POPC   PO412948  23.911  22.097   9.369
  669POPC   GL112949  23.662  22.076   9.029
  669POPC   GL212950  23.455  22.392   9.034
  669POPC   C1A12951  23.849  21.960   8.637
  669POPC   D2A12952  24.065  22.294   8.431
  669POPC   C3A12953  23.840  22.376   8.069
  669POPC   C4A12954  23.789  22.526   7.673
  669POPC   C1B12955  23.579  22.401   8.608
  669POPC   C2B12956  23.291  22.463   8.280
  669POPC   C3B12957  23.300  22.373   7.857
  669POPC   C4B12958  23.622  22.053   7.723
  670POPC   NC312959  41.963  25.019   9.450
  670POPC   PO412960  41.335  25.416   9.465
  670POPC   GL112961  41.493  25.312   9.044
  670POPC   GL212962  41.840  25.288   9.023
  670POPC   C1A12963  41.620  25.396   8.591
  670POPC   D2A12964  41.555  25.405   8.148
  670POPC   C3A12965  41.330  25.044   7.968
  670POPC   C4A12966  41.416  25.125   7.553
  670POPC   C1B12967  41.891  24.977   8.752
  670POPC   C2B12968  41.832  24.941   8.308
  670POPC   C3B12969  41.826  25.074   7.871
  670POPC   C4B12970  41.921  25.110   7.419
  671POPC   NC312971  26.305  27.346   9.753
  671POPC   PO412972  26.984  27.487   9.589
  671POPC   GL112973  26.730  27.621   9.257
  671POPC   GL212974  26.445  27.378   9.243
  671POPC   C1A12975  26.803  27.514   8.848
  671POPC   D2A12976  26.954  27.704   8.453
  671POPC   C3A12977  26.901  27.531   8.029
  671POPC   C4A12978  26.720  27.794   7.700
  671POPC   C1B12979  26.402  27.164   8.817
  671POPC   C2B12980  26.380  27.123   8.370
  671POPC   C3B12981  26.563  27.138   7.968
  671POPC   C4B12982  26.619  27.332   7.560
  672POPC   NC312983  19.995  19.903   9.402
  672POPC   PO412984  19.362  20.063   9.395
  672POPC   GL112985  19.505  19.798   9.063
  672POPC   GL212986  19.679  20.092   9.005
  672POPC   C1A12987  19.771  19.568   8.759
  672POPC   D2A12988  20.036  19.490   8.406
  672POPC   C3A12989  19.841  19.656   8.055
  672POPC   C4A12990  19.739  19.567   7.646
  672POPC   C1B12991  19.911  20.219   8.707
  672POPC   C2B12992  20.081  20.002   8.413
  672POPC   C3B12993  19.997  20.155   8.039
  672POPC   C4B12994  20.049  19.967   7.665
  673POPC   NC312995  26.687  38.179   9.540
  673POPC   PO412996  27.210  38.665   9.494
  673POPC   GL112997  27.011  38.386   9.209
  673POPC   GL212998  26.664  38.498   9.108
  673POPC   C1A12999  26.967  38.198   8.815
  673POPC   D2A13000  27.136  38.126   8.415
  673POPC   C3A13001  26.925  38.052   8.042
  673POPC   C4A13002  26.830  38.378   7.745
  673POPC   C1B13003  26.371  38.522   8.737
  673POPC   C2B13004  26.411  38.427   8.272
  673POPC   C3B13005  26.341  38.453   7.816
  673POPC   C4B13006  26.477  38.241   7.399
  674POPC   NC313007  26.627  29.109   9.701
  674POPC   PO413008  26.002  29.094   9.755
  674POPC   GL113009  26.266  29.200   9.339
  674POPC   GL213010  26.002  29.341   9.172
  674POPC   C1A13011  26.341  29.214   8.840
  674POPC   D2A13012  26.280  29.317   8.389
  674POPC   C3A13013  26.105  29.093   8.014
  674POPC   C4A13014  26.188  28.984   7.563
  674POPC   C1B13015  25.800  29.220   8.796
  674POPC   C2B13016  25.749  29.427   8.403
  674POPC   C3B13017  25.618  29.268   8.016
  674POPC   C4B13018  25.732  29.200   7.602
  675POPC   NC313019  32.959  35.145   9.540
  675POPC   PO413020  33.261  35.754   9.547
  675POPC   GL113021  32.949  35.572   9.229
  675POPC   GL213022  33.043  35.243   9.058
  675POPC   C1A13023  32.969  35.660   8.779
  675POPC   D2A13024  33.028  35.384   8.414
  675POPC   C3A13025  33.232  35.484   7.991
  675POPC   C4A13026  33.016  35.766   7.722
  675POPC   C1B13027  33.232  34.965   8.758
  675POPC   C2B13028  33.355  35.002   8.342
  675POPC   C3B13029  33.079  34.997   8.016
  675POPC   C4B13030  33.159  35.105   7.564
  676POPC   NC313031  19.660  32.404   9.488
  676POPC   PO413032  19.932  31.804   9.481
  676POPC   GL113033  19.751  31.835   9.071
  676POPC   GL213034  19.749  32.188   9.038
  676POPC   C1A13035  19.860  31.937   8.618
  676POPC   D2A13036  19.680  32.121   8.252
  676POPC   C3A13037  19.869  31.976   7.893
  676POPC   C4A13038  20.219  31.955   7.605
  676POPC   C1B13039  19.962  32.436   8.721
  676POPC   C2B13040  20.090  32.427   8.282
  676POPC   C3B13041  19.835  32.477   7.930
  676POPC   C4B13042  19.507  32.249   7.667
  677POPC   NC313043   8.300  38.619   9.437
  677POPC   PO413044   8.194  38.017   9.548
  677POPC   GL113045   8.214  38.171   9.110
  677POPC   GL213046   8.491  38.377   9.035
  677POPC   C1A13047   8.232  38.193   8.645
  677POPC   D2A13048   7.960  38.377   8.321
  677POPC   C3A13049   8.055  38.240   7.909
  677POPC   C4A13050   8.320  38.432   7.703
  677POPC   C1B13051   8.682  38.718   8.858
  677POPC   C2B13052   8.630  38.696   8.459
  677POPC   C3B13053   8.587  38.662   8.064
  677POPC   C4B13054   8.657  38.809   7.689
  678POPC   NC313055  21.791  40.203   9.605
  678POPC   PO413056  22.316  39.741   9.448
  678POPC   GL113057  22.089  39.754   9.082
  678POPC   GL213058  21.755  39.890   9.178
  678POPC   C1A13059  22.246  39.803   8.683
  678POPC   D2A13060  22.328  40.007   8.304
  678POPC   C3A13061  22.285  39.789   7.929
  678POPC   C4A13062  22.374  39.865   7.519
  678POPC   C1B13063  21.991  40.215   8.923
  678POPC   C2B13064  21.901  40.258   8.485
  678POPC   C3B13065  21.874  40.096   8.078
  678POPC   C4B13066  22.087  40.254   7.732
  679POPC   NC313067  26.384   5.693   9.518
  679POPC   PO413068  25.941   6.237   9.562
  679POPC   GL113069  26.060   6.194   9.111
  679POPC   GL213070  26.200   5.887   9.101
  679POPC   C1A13071  25.912   5.947   8.696
  679POPC   D2A13072  25.917   5.574   8.372
  679POPC   C3A13073  25.878   5.713   7.938
  679POPC   C4A13074  26.083   6.047   7.705
  679POPC   C1B13075  26.428   6.001   8.733
  679POPC   C2B13076  26.596   5.759   8.391
  679POPC   C3B13077  26.434   5.687   7.975
  679POPC   C4B13078  26.492   5.731   7.545
  680POPC   NC313079   9.002   4.386   9.522
  680POPC   PO413080   9.258   3.817   9.367
  680POPC   GL113081   8.985   4.086   9.095
  680POPC   GL213082   8.750   4.420   9.088
  680POPC   C1A13083   9.065   4.315   8.718
  680POPC   D2A13084   9.360   4.207   8.425
  680POPC   C3A13085   9.179   4.075   8.035
  680POPC   C4A13086   9.278   4.318   7.703
  680POPC   C1B13087   8.528   4.536   8.691
  680POPC   C2B13088   8.594   4.702   8.265
  680POPC   C3B13089   8.921   4.641   7.966
  680POPC   C4B13090   8.858   4.494   7.521
  681POPC   NC313091   6.547  42.735   9.462
  681POPC   PO413092   6.281  43.329   9.549
  681POPC   GL113093   6.544  43.188   9.181
  681POPC   GL213094   6.748  42.903   9.050
  681POPC   C1A13095   6.579  43.298   8.739
  681POPC   D2A13096   6.303  43.157   8.388
  681POPC   C3A13097   6.440  43.270   8.004
  681POPC   C4A13098   6.612  43.378   7.646
  681POPC   C1B13099   6.663  42.790   8.656
  681POPC   C2B13100   6.775  43.028   8.312
  681POPC   C3B13101   6.928  42.982   7.925
  681POPC   C4B13102   6.834  42.929   7.506
  682POPC   NC313103   4.757   9.246   9.352
  682POPC   PO413104   4.195   9.071   9.461
  682POPC   GL113105   4.359   8.827   9.150
  682POPC   GL213106   4.095   8.959   8.962
  682POPC   C1A13107   4.396   8.651   8.724
  682POPC   D2A13108   4.302   8.933   8.421
  682POPC   C3A13109   4.454   8.834   8.051
  682POPC   C4A13110   4.067   8.727   7.852
  682POPC   C1B13111   4.416   9.247   8.807
  682POPC   C2B13112   4.548   9.368   8.401
  682POPC   C3B13113   4.338   9.356   8.032
  682POPC   C4B13114   4.582   9.334   7.682
  683POPC   NC313115  40.405  40.618   9.418
  683POPC   PO413116  40.869  41.100   9.514
  683POPC   GL113117  40.618  40.968   9.086
  683POPC   GL213118  40.566  40.626   8.943
  683POPC   C1A13119  40.653  40.957   8.598
  683POPC   D2A13120  40.832  41.251   8.318
  683POPC   C3A13121  40.835  41.075   7.921
  683POPC   C4A13122  40.553  40.786   7.773
  683POPC   C1B13123  40.954  40.542   8.691
  683POPC   C2B13124  40.961  40.355   8.292
  683POPC   C3B13125  40.974  40.523   7.902
  683POPC   C4B13126  41.151  40.766   7.612
  684POPC   NC313127   2.056  30.879   9.343
  684POPC   PO413128   1.586  30.454   9.610
  684POPC   GL113129   1.787  30.483   9.172
  684POPC   GL213130   2.040  30.305   9.060
  684POPC   C1A13131   1.814  30.642   8.735
  684POPC   D2A13132   1.727  30.750   8.339
  684POPC   C3A13133   2.024  30.876   8.022
  684POPC   C4A13134   1.782  30.982   7.645
  684POPC   C1B13135   2.252  30.400   8.702
  684POPC   C2B13136   2.230  30.459   8.270
  684POPC   C3B13137   2.335  30.410   7.875
  684POPC   C4B13138   2.173  30.659   7.580
  685POPC   NC313139  19.602   2.953  10.052
  685POPC   PO413140  20.023   2.551   9.735
  685POPC   GL113141  19.880   2.672   9.281
  685POPC   GL213142  19.541   2.551   9.183
  685POPC   C1A13143  19.863   2.752   8.829
  685POPC   D2A13144  19.708   3.035   8.517
  685POPC   C3A13145  19.869   3.161   8.137
  685POPC   C4A13146  19.880   2.971   7.736
  685POPC   C1B13147  19.508   2.401   8.728
  685POPC   C2B13148  19.654   2.471   8.319
  685POPC   C3B13149  19.780   2.472   7.897
  685POPC   C4B13150  19.789   2.262   7.473
  686POPC   NC313151   1.584   2.647   9.496
  686POPC   PO413152   2.033   3.127   9.469
  686POPC   GL113153   1.869   2.955   9.149
  686POPC   GL213154   1.558   3.118   9.211
  686POPC   C1A13155   1.891   2.778   8.761
  686POPC   D2A13156   1.589   2.591   8.505
  686POPC   C3A13157   1.666   2.614   8.074
  686POPC   C4A13158   1.952   2.436   7.799
  686POPC   C1B13159   1.605   3.198   8.772
  686POPC   C2B13160   1.789   3.109   8.389
  686POPC   C3B13161   1.678   3.125   7.998
  686POPC   C4B13162   1.849   2.916   7.631
  687POPC   NC313163  12.568  29.664   9.506
  687POPC   PO413164  13.221  29.841   9.412
  687POPC   GL113165  12.939  30.149   9.130
  687POPC   GL213166  12.702  29.889   9.080
  687POPC   C1A13167  12.673  30.212   8.708
  687POPC   D2A13168  12.635  29.919   8.315
  687POPC   C3A13169  12.742  30.159   7.932
  687POPC   C4A13170  12.886  30.112   7.494
  687POPC   C1B13171  12.886  29.669   8.712
  687POPC   C2B13172  12.831  29.410   8.340
  687POPC   C3B13173  12.907  29.616   7.948
  687POPC   C4B13174  13.205  29.885   7.824
  688POPC   NC313175  29.910  34.481   9.518
  688POPC   PO413176  29.885  35.160   9.508
  688POPC   GL113177  29.792  34.860   9.182
  688POPC   GL213178  30.133  34.744   9.130
  688POPC   C1A13179  29.779  34.582   8.820
  688POPC   D2A13180  29.953  34.572   8.412
  688POPC   C3A13181  29.774  34.409   8.047
  688POPC   C4A13182  29.869  34.553   7.595
  688POPC   C1B13183  30.301  34.538   8.771
  688POPC   C2B13184  30.342  34.277   8.401
  688POPC   C3B13185  30.262  34.482   8.004
  688POPC   C4B13186  30.533  34.627   7.732
  689POPC   NC313187   2.023   5.679   9.341
  689POPC   PO413188   1.868   4.953   9.500
  689POPC   GL113189   2.089   5.177   9.234
  689POPC   GL213190   1.760   5.296   9.112
  689POPC   C1A13191   2.136   5.109   8.819
  689POPC   D2A13192   2.309   4.841   8.527
  689POPC   C3A13193   2.182   4.973   8.140
  689POPC   C4A13194   2.112   4.883   7.733
  689POPC   C1B13195   1.606   4.944   8.869
  689POPC   C2B13196   1.447   4.915   8.473
  689POPC   C3B13197   1.657   4.970   8.083
  689POPC   C4B13198   1.711   5.214   7.700
  690POPC   NC313199  11.815   2.641   9.441
  690POPC   PO413200  11.274   2.971   9.509
  690POPC   GL113201  11.400   2.823   9.095
  690POPC   GL213202  11.644   2.560   8.987
  690POPC   C1A13203  11.158   2.762   8.721
  690POPC   D2A13204  11.013   2.871   8.292
  690POPC   C3A13205  11.349   2.862   8.006
  690POPC   C4A13206  11.754   2.742   7.811
  690POPC   C1B13207  11.421   2.316   8.723
  690POPC   C2B13208  11.330   2.460   8.315
  690POPC   C3B13209  11.337   2.365   7.860
  690POPC   C4B13210  11.083   2.512   7.503
  691POPC   NC313211   1.782  15.917   9.487
  691POPC   PO413212   2.429  15.836   9.693
  691POPC   GL113213   2.155  15.792   9.209
  691POPC   GL213214   1.908  15.491   9.145
  691POPC   C1A13215   2.074  15.957   8.783
  691POPC   D2A13216   1.782  16.138   8.469
  691POPC   C3A13217   1.868  16.162   8.021
  691POPC   C4A13218   1.932  16.011   7.600
  691POPC   C1B13219   2.068  15.455   8.686
  691POPC   C2B13220   2.025  15.689   8.316
  691POPC   C3B13221   2.031  15.602   7.898
  691POPC   C4B13222   1.996  15.508   7.453
  692POPC   NC313223  35.983  41.115   9.449
  692POPC   PO413224  36.553  41.447   9.428
  692POPC   GL113225  36.413  41.035   9.184
  692POPC   GL213226  36.091  40.740   9.115
  692POPC   C1A13227  36.457  40.830   8.807
  692POPC   D2A13228  36.270  40.528   8.570
  692POPC   C3A13229  36.340  40.652   8.157
  692POPC   C4A13230  36.276  40.712   7.740
  692POPC   C1B13231  35.795  40.656   8.721
  692POPC   C2B13232  35.848  40.551   8.236
  692POPC   C3B13233  35.764  40.613   7.776
  692POPC   C4B13234  35.742  40.413   7.349
  693POPC   NC313235  19.425  20.930   9.376
  693POPC   PO413236  19.122  21.577   9.309
  693POPC   GL113237  19.077  21.224   9.080
  693POPC   GL213238  19.419  21.297   8.970
  693POPC   C1A13239  19.103  21.077   8.645
  693POPC   D2A13240  19.178  21.399   8.338
  693POPC   C3A13241  18.879  21.417   8.058
  693POPC   C4A13242  18.835  21.192   7.744
  693POPC   C1B13243  19.346  21.720   8.723
  693POPC   C2B13244  19.479  21.914   8.349
  693POPC   C3B13245  19.595  21.684   8.021
  693POPC   C4B13246  19.340  21.453   7.728
  694POPC   NC313247  35.548   5.641   9.337
  694POPC   PO413248  34.982   5.810   9.640
  694POPC   GL113249  35.148   5.935   9.148
  694POPC   GL213250  35.274   5.658   8.897
  694POPC   C1A13251  35.074   6.097   8.711
  694POPC   D2A13252  35.353   5.967   8.359
  694POPC   C3A13253  35.158   5.829   8.002
  694POPC   C4A13254  34.906   5.489   7.944
  694POPC   C1B13255  35.677   5.762   8.705
  694POPC   C2B13256  35.869   5.707   8.318
  694POPC   C3B13257  35.667   5.901   7.944
  694POPC   C4B13258  35.421   5.974   7.569
  695POPC   NC313259   8.479  13.384   9.402
  695POPC   PO413260   8.471  14.011   9.429
  695POPC   GL113261   8.204  13.802   9.145
  695POPC   GL213262   8.119  14.105   8.971
  695POPC   C1A13263   8.239  13.572   8.757
  695POPC   D2A13264   8.195  13.715   8.324
  695POPC   C3A13265   8.237  13.555   7.894
  695POPC   C4A13266   8.236  13.934   7.637
  695POPC   C1B13267   7.808  13.842   8.730
  695POPC   C2B13268   7.753  13.508   8.490
  695POPC   C3B13269   7.749  13.541   8.055
  695POPC   C4B13270   7.705  13.198   7.786
  696POPC   NC313271  16.578   6.022   9.468
  696POPC   PO413272  17.108   5.643   9.523
  696POPC   GL113273  16.875   5.652   9.183
  696POPC   GL213274  16.555   5.497   9.260
  696POPC   C1A13275  16.983   5.790   8.765
  696POPC   D2A13276  17.090   5.656   8.345
  696POPC   C3A13277  16.820   5.832   7.993
  696POPC   C4A13278  16.677   6.187   7.729
  696POPC   C1B13279  16.478   5.699   8.866
  696POPC   C2B13280  16.498   5.598   8.423
  696POPC   C3B13281  16.357   5.503   8.015
  696POPC   C4B13282  16.540   5.577   7.627
  697POPC   NC313283  30.187  36.010   9.401
  697POPC   PO413284  30.042  36.697   9.330
  697POPC   GL113285  29.922  36.346   9.027
  697POPC   GL213286  30.094  36.025   8.901
  697POPC   C1A13287  29.738  36.282   8.606
  697POPC   D2A13288  29.820  36.286   8.186
  697POPC   C3A13289  29.714  36.563   7.849
  697POPC   C4A13290  29.833  36.263   7.563
  697POPC   C1B13291  29.700  35.796   8.735
  697POPC   C2B13292  29.492  35.862   8.300
  697POPC   C3B13293  29.715  35.877   7.885
  697POPC   C4B13294  30.181  35.897   7.793
  698POPC   NC313295   0.743  39.407   9.609
  698POPC   PO413296   1.362  39.662   9.498
  698POPC   GL113297   1.200  39.322   9.252
  698POPC   GL213298   0.902  39.294   9.140
  698POPC   C1A13299   1.311  39.118   8.864
  698POPC   D2A13300   1.187  38.889   8.502
  698POPC   C3A13301   1.364  39.084   8.100
  698POPC   C4A13302   1.305  39.047   7.639
  698POPC   C1B13303   1.027  39.558   8.811
  698POPC   C2B13304   1.213  39.546   8.387
  698POPC   C3B13305   1.092  39.483   7.935
  698POPC   C4B13306   0.781  39.238   7.712
  699POPC   NC313307  11.381  22.652   9.599
  699POPC   PO413308  11.101  23.236   9.490
  699POPC   GL113309  11.287  23.097   9.143
  699POPC   GL213310  11.222  22.765   9.139
  699POPC   C1A13311  11.432  23.159   8.756
  699POPC   D2A13312  11.221  22.923   8.442
  699POPC   C3A13313  11.207  23.063   8.013
  699POPC   C4A13314  11.518  23.172   7.724
  699POPC   C1B13315  11.550  22.675   8.884
  699POPC   C2B13316  11.549  22.531   8.478
  699POPC   C3B13317  11.535  22.683   8.047
  699POPC   C4B13318  11.857  22.797   7.749
  700POPC   NC313319  24.870  42.280   9.455
  700POPC   PO413320  25.460  41.822   9.478
  700POPC   GL113321  25.478  42.163   9.143
  700POPC   GL213322  25.693  42.529   9.184
  700POPC   C1A13323  25.355  42.041   8.715
  700POPC   D2A13324  25.274  41.878   8.304
  700POPC   C3A13325  25.305  42.146   7.958
  700POPC   C4A13326  25.368  41.957   7.577
  700POPC   C1B13327  25.399  42.539   8.800
  700POPC   C2B13328  25.141  42.409   8.409
  700POPC   C3B13329  24.979  42.549   8.014
  700POPC   C4B13330  25.015  42.462   7.583
  701POPC   NC313331  17.440  20.775   9.839
  701POPC   PO413332  17.914  20.361   9.550
  701POPC   GL113333  17.563  20.385   9.252
  701POPC   GL213334  17.483  20.710   9.144
  701POPC   C1A13335  17.496  20.320   8.783
  701POPC   D2A13336  17.247  20.431   8.396
  701POPC   C3A13337  17.458  20.323   8.002
  701POPC   C4A13338  17.505  20.392   7.573
  701POPC   C1B13339  17.497  20.834   8.685
  701POPC   C2B13340  17.630  20.739   8.257
  701POPC   C3B13341  17.499  20.838   7.838
  701POPC   C4B13342  17.618  20.859   7.391
  702POPC   NC313343   9.851  24.183   9.758
  702POPC   PO413344   9.528  23.550   9.552
  702POPC   GL113345   9.649  23.906   9.298
  702POPC   GL213346   9.889  23.729   9.106
  702POPC   C1A13347   9.606  24.122   8.878
  702POPC   D2A13348   9.432  23.969   8.493
  702POPC   C3A13349   9.549  24.060   8.083
  702POPC   C4A13350   9.528  23.706   7.823
  702POPC   C1B13351   9.928  23.726   8.643
  702POPC   C2B13352   9.892  23.672   8.186
  702POPC   C3B13353   9.977  23.479   7.738
  702POPC   C4B13354   9.885  23.378   7.304
  703POPC   NC313355  41.876  31.708   9.578
  703POPC   PO413356  41.347  31.366   9.487
  703POPC   GL113357  41.627  31.327   9.164
  703POPC   GL213358  41.656  31.682   9.137
  703POPC   C1A13359  41.637  31.181   8.720
  703POPC   D2A13360  41.320  31.215   8.390
  703POPC   C3A13361  41.496  31.291   7.998
  703POPC   C4A13362  41.465  31.609   7.731
  703POPC   C1B13363  41.882  31.601   8.792
  703POPC   C2B13364  41.759  31.550   8.358
  703POPC   C3B13365  41.937  31.672   7.944
  703POPC   C4B13366  41.846  31.862   7.515
  704POPC   NC313367  29.521  44.731   9.461
  704POPC   PO413368  30.030   0.008   9.775
  704POPC   GL113369  29.994  44.809   9.274
  704POPC   GL213370  30.072  44.444   9.175
  704POPC   C1A13371  29.804  44.711   8.817
  704POPC   D2A13372  29.726  44.861   8.367
  704POPC   C3A13373  29.938  44.701   7.977
  704POPC   C4A13374  29.877  44.614   7.539
  704POPC   C1B13375  30.122  44.335   8.696
  704POPC   C2B13376  30.185  44.292   8.229
  704POPC   C3B13377  30.289  44.309   7.773
  704POPC   C4B13378  30.391  44.397   7.303
  705POPC   NC313379   5.754  36.615   9.464
  705POPC   PO413380   5.961  36.007   9.457
  705POPC   GL113381   6.192  36.321   9.200
  705POPC   GL213382   5.888  36.404   9.015
  705POPC   C1A13383   6.315  36.340   8.747
  705POPC   D2A13384   6.038  36.385   8.369
  705POPC   C3A13385   6.017  36.147   8.022
  705POPC   C4A13386   5.718  36.134   7.701
  705POPC   C1B13387   5.607  36.476   8.660
  705POPC   C2B13388   5.440  36.456   8.209
  705POPC   C3B13389   5.253  36.308   7.802
  705POPC   C4B13390   5.325  36.065   7.377
  706POPC   NC313391  17.882  31.990   9.402
  706POPC   PO413392  17.491  32.384   9.602
  706POPC   GL113393  17.447  32.178   9.176
  706POPC   GL213394  17.466  32.486   9.013
  706POPC   C1A13395  17.441  31.871   8.814
  706POPC   D2A13396  17.271  31.676   8.426
  706POPC   C3A13397  17.259  31.932   8.048
  706POPC   C4A13398  17.236  32.326   7.836
  706POPC   C1B13399  17.546  32.311   8.596
  706POPC   C2B13400  17.592  32.463   8.171
  706POPC   C3B13401  17.607  32.674   7.758
  706POPC   C4B13402  17.724  32.582   7.305
  707POPC   NC313403   9.029  22.393   9.395
  707POPC   PO413404   8.730  21.845   9.697
  707POPC   GL113405   8.948  21.953   9.180
  707POPC   GL213406   9.184  22.120   8.981
  707POPC   C1A13407   8.759  21.986   8.719
  707POPC   D2A13408   8.810  21.955   8.249
  707POPC   C3A13409   9.118  22.246   8.068
  707POPC   C4A13410   9.031  22.515   7.732
  707POPC   C1B13411   9.238  21.816   8.622
  707POPC   C2B13412   9.482  21.808   8.254
  707POPC   C3B13413   9.401  21.881   7.841
  707POPC   C4B13414   9.041  21.919   7.662
  708POPC   NC313415   9.366  15.441   9.475
  708POPC   PO413416   8.784  15.193   9.440
  708POPC   GL113417   9.036  15.247   9.128
  708POPC   GL213418   9.245  14.995   9.203
  708POPC   C1A13419   9.155  15.378   8.757
  708POPC   D2A13420   9.039  15.220   8.397
  708POPC   C3A13421   8.806  15.426   8.131
  708POPC   C4A13422   8.940  15.369   7.696
  708POPC   C1B13423   9.515  15.022   8.856
  708POPC   C2B13424   9.530  14.878   8.460
  708POPC   C3B13425   9.428  15.108   8.092
  708POPC   C4B13426   9.330  14.988   7.712
  709POPC   NC313427  30.038  23.865   9.496
  709POPC   PO413428  30.083  23.248   9.441
  709POPC   GL113429  29.927  23.545   9.122
  709POPC   GL213430  29.629  23.813   9.171
  709POPC   C1A13431  29.956  23.421   8.714
  709POPC   D2A13432  29.776  23.214   8.376
  709POPC   C3A13433  29.804  23.422   8.013
  709POPC   C4A13434  30.095  23.393   7.711
  709POPC   C1B13435  29.864  23.931   8.795
  709POPC   C2B13436  30.063  24.039   8.386
  709POPC   C3B13437  29.926  23.937   7.962
  709POPC   C4B13438  29.718  23.727   7.582
  710POPC   NC313439  11.880  30.239   9.424
  710POPC   PO413440  12.242  30.876   9.381
  710POPC   GL113441  12.153  30.525   9.096
  710POPC   GL213442  11.790  30.531   9.022
  710POPC   C1A13443  12.133  30.353   8.675
  710POPC   D2A13444  12.383  30.356   8.298
  710POPC   C3A13445  12.127  30.432   7.948
  710POPC   C4A13446  12.022  30.554   7.520
  710POPC   C1B13447  11.979  30.856   8.738
  710POPC   C2B13448  12.125  30.794   8.319
  710POPC   C3B13449  12.134  30.928   7.883
  710POPC   C4B13450  11.851  31.079   7.567
  711POPC   NC313451   3.296  17.842   9.545
  711POPC   PO413452   3.271  17.175   9.503
  711POPC   GL113453   3.424  17.476   9.185
  711POPC   GL213454   3.762  17.521   9.089
  711POPC   C1A13455   3.431  17.489   8.727
  711POPC   D2A13456   3.172  17.417   8.413
  711POPC   C3A13457   3.302  17.314   8.014
  711POPC   C4A13458   3.228  17.533   7.622
  711POPC   C1B13459   3.793  17.880   8.743
  711POPC   C2B13460   3.653  17.770   8.314
  711POPC   C3B13461   3.816  17.640   7.901
  711POPC   C4B13462   3.695  17.662   7.436
  712POPC   NC313463   8.304  28.551   9.551
  712POPC   PO413464   7.640  28.425   9.451
  712POPC   GL113465   7.977  28.569   9.117
  712POPC   GL213466   8.340  28.709   9.075
  712POPC   C1A13467   8.157  28.416   8.707
  712POPC   D2A13468   8.151  28.570   8.284
  712POPC   C3A13469   8.030  28.231   7.988
  712POPC   C4A13470   8.110  28.439   7.649
  712POPC   C1B13471   8.571  28.745   8.688
  712POPC   C2B13472   8.607  28.388   8.410
  712POPC   C3B13473   8.540  28.334   7.973
  712POPC   C4B13474   8.463  28.085   7.628
  713POPC   NC313475  32.211  35.222   9.619
  713POPC   PO413476  32.449  35.818   9.601
  713POPC   GL113477  32.354  35.532   9.222
  713POPC   GL213478  32.543  35.220   9.218
  713POPC   C1A13479  32.124  35.474   8.815
  713POPC   D2A13480  31.951  35.570   8.396
  713POPC   C3A13481  32.174  35.511   8.016
  713POPC   C4A13482  32.314  35.114   7.829
  713POPC   C1B13483  32.605  35.295   8.798
  713POPC   C2B13484  32.503  35.561   8.456
  713POPC   C3B13485  32.690  35.590   8.068
  713POPC   C4B13486  32.770  35.310   7.782
  714POPC   NC313487  35.170  19.192   9.479
  714POPC   PO413488  35.772  18.792   9.443
  714POPC   GL113489  35.713  18.961   9.058
  714POPC   GL213490  35.496  19.233   9.094
  714POPC   C1A13491  35.531  19.017   8.632
  714POPC   D2A13492  35.200  18.937   8.346
  714POPC   C3A13493  35.319  19.108   7.943
  714POPC   C4A13494  35.130  18.926   7.570
  714POPC   C1B13495  35.425  19.497   8.728
  714POPC   C2B13496  35.244  19.452   8.351
  714POPC   C3B13497  34.965  19.463   8.028
  714POPC   C4B13498  35.111  19.476   7.606
  715POPC   NC313499  18.183   5.543   9.319
  715POPC   PO413500  18.398   4.986   9.767
  715POPC   GL113501  18.297   5.059   9.343
  715POPC   GL213502  18.401   4.817   9.213
  715POPC   C1A13503  18.189   5.118   8.847
  715POPC   D2A13504  18.135   5.389   8.459
  715POPC   C3A13505  18.289   5.181   8.105
  715POPC   C4A13506  18.194   5.116   7.675
  715POPC   C1B13507  18.589   4.788   8.817
  715POPC   C2B13508  18.771   4.659   8.441
  715POPC   C3B13509  18.661   4.785   8.021
  715POPC   C4B13510  18.495   4.578   7.657
  716POPC   NC313511  20.966  22.258   9.702
  716POPC   PO413512  20.434  21.920   9.433
  716POPC   GL113513  20.636  22.125   9.076
  716POPC   GL213514  20.929  22.324   9.102
  716POPC   C1A13515  20.628  22.177   8.639
  716POPC   D2A13516  20.532  21.971   8.259
  716POPC   C3A13517  20.528  22.188   7.879
  716POPC   C4A13518  20.404  22.155   7.420
  716POPC   C1B13519  20.972  22.545   8.686
  716POPC   C2B13520  20.804  22.574   8.247
  716POPC   C3B13521  20.971  22.473   7.833
  716POPC   C4B13522  21.054  22.443   7.332
  717POPC   NC313523   1.554  22.210   9.620
  717POPC   PO413524   2.151  22.135   9.710
  717POPC   GL113525   2.132  22.239   9.289
  717POPC   GL213526   1.831  22.066   9.189
  717POPC   C1A13527   1.988  22.479   8.939
  717POPC   D2A13528   1.950  22.349   8.507
  717POPC   C3A13529   1.870  22.485   8.099
  717POPC   C4A13530   2.012  22.358   7.677
  717POPC   C1B13531   1.816  21.893   8.759
  717POPC   C2B13532   1.588  22.007   8.359
  717POPC   C3B13533   1.682  22.024   7.917
  717POPC   C4B13534   2.061  21.833   7.721
  718POPC   NC313535  10.917  11.936   9.368
  718POPC   PO413536  10.617  12.395   9.729
  718POPC   GL113537  10.551  12.322   9.276
  718POPC   GL213538  10.302  12.063   9.174
  718POPC   C1A13539  10.673  12.208   8.827
  718POPC   D2A13540  10.715  11.936   8.477
  718POPC   C3A13541  10.499  12.073   8.129
  718POPC   C4A13542  10.810  12.187   7.803
  718POPC   C1B13543  10.340  11.789   8.832
  718POPC   C2B13544  10.344  11.591   8.446
  718POPC   C3B13545  10.556  11.557   8.110
  718POPC   C4B13546  10.491  11.727   7.724
  719POPC   NC313547  13.202   2.610   9.595
  719POPC   PO413548  12.748   2.877   9.967
  719POPC   GL113549  12.727   2.869   9.436
  719POPC   GL213550  13.051   2.944   9.227
  719POPC   C1A13551  12.635   2.878   8.927
  719POPC   D2A13552  12.759   2.666   8.498
  719POPC   C3A13553  12.680   2.864   8.086
  719POPC   C4A13554  12.964   2.815   7.767
  719POPC   C1B13555  13.056   2.555   8.937
  719POPC   C2B13556  13.202   2.410   8.537
  719POPC   C3B13557  13.073   2.450   8.120
  719POPC   C4B13558  13.220   2.353   7.718
  720POPC   NC313559  12.259  36.160   9.388
  720POPC   PO413560  11.800  35.618   9.472
  720POPC   GL113561  11.946  35.815   9.154
  720POPC   GL213562  11.748  36.109   9.193
  720POPC   C1A13563  12.030  35.966   8.743
  720POPC   D2A13564  12.025  35.986   8.309
  720POPC   C3A13565  12.302  36.318   8.150
  720POPC   C4A13566  12.555  36.243   7.781
  720POPC   C1B13567  11.521  36.049   8.799
  720POPC   C2B13568  11.548  36.256   8.377
  720POPC   C3B13569  11.815  36.316   7.989
  720POPC   C4B13570  12.092  36.008   7.778
  721POPC   NC313571  17.969  17.167   9.354
  721POPC   PO413572  18.527  16.828   9.454
  721POPC   GL113573  18.336  16.859   9.090
  721POPC   GL213574  18.046  16.683   9.180
  721POPC   C1A13575  18.201  16.913   8.683
  721POPC   D2A13576  18.043  16.950   8.276
  721POPC   C3A13577  18.273  16.759   7.948
  721POPC   C4A13578  18.453  16.890   7.592
  721POPC   C1B13579  18.116  16.424   8.826
  721POPC   C2B13580  18.163  16.472   8.385
  721POPC   C3B13581  17.941  16.377   8.005
  721POPC   C4B13582  18.061  16.458   7.579
  722POPC   NC313583   4.914   4.680   9.362
  722POPC   PO413584   4.897   5.362   9.436
  722POPC   GL113585   5.154   5.143   9.177
  722POPC   GL213586   5.388   4.890   9.222
  722POPC   C1A13587   5.306   5.250   8.806
  722POPC   D2A13588   5.243   5.048   8.436
  722POPC   C3A13589   5.188   5.234   8.087
  722POPC   C4A13590   5.041   5.046   7.714
  722POPC   C1B13591   5.257   4.697   8.817
  722POPC   C2B13592   5.453   4.594   8.418
  722POPC   C3B13593   5.333   4.739   8.012
  722POPC   C4B13594   5.452   4.746   7.599
  723POPC   NC313595  35.984  15.014   9.501
  723POPC   PO413596  36.484  15.430   9.518
  723POPC   GL113597  36.270  15.255   9.151
  723POPC   GL213598  35.870  15.257   9.074
  723POPC   C1A13599  36.250  15.172   8.749
  723POPC   D2A13600  36.153  15.364   8.440
  723POPC   C3A13601  36.258  15.157   8.088
  723POPC   C4A13602  36.336  15.405   7.747
  723POPC   C1B13603  35.884  14.836   8.853
  723POPC   C2B13604  36.055  14.781   8.430
  723POPC   C3B13605  35.854  14.790   8.037
  723POPC   C4B13606  35.895  15.095   7.717
  724POPC   NC313607  36.217   3.061   9.419
  724POPC   PO413608  35.936   2.448   9.473
  724POPC   GL113609  36.002   2.658   9.113
  724POPC   GL213610  36.354   2.632   9.149
  724POPC   C1A13611  35.886   2.933   8.781
  724POPC   D2A13612  36.043   3.002   8.364
  724POPC   C3A13613  35.996   2.671   8.043
  724POPC   C4A13614  35.886   2.752   7.562
  724POPC   C1B13615  36.414   2.886   8.761
  724POPC   C2B13616  36.528   2.825   8.322
  724POPC   C3B13617  36.412   2.892   7.874
  724POPC   C4B13618  36.347   2.847   7.390
  725POPC   NC313619   3.784  19.220   9.719
  725POPC   PO413620   4.344  19.360   9.279
  725POPC   GL113621   4.159  18.979   9.084
  725POPC   GL213622   4.455  18.867   8.963
  725POPC   C1A13623   4.034  18.850   8.664
  725POPC   D2A13624   4.322  18.900   8.307
  725POPC   C3A13625   4.338  19.288   8.080
  725POPC   C4A13626   4.167  19.270   7.672
  725POPC   C1B13627   4.700  18.741   8.617
  725POPC   C2B13628   4.458  18.417   8.400
  725POPC   C3B13629   4.329  18.491   7.974
  725POPC   C4B13630   4.491  18.888   7.813
  726POPC   NC313631  32.821   4.937   9.483
  726POPC   PO413632  33.289   5.410   9.556
  726POPC   GL113633  33.208   5.156   9.163
  726POPC   GL213634  33.188   4.775   9.159
  726POPC   C1A13635  33.114   5.119   8.707
  726POPC   D2A13636  33.317   5.001   8.327
  726POPC   C3A13637  33.169   5.041   7.924
  726POPC   C4A13638  33.228   5.363   7.620
  726POPC   C1B13639  32.840   4.695   8.854
  726POPC   C2B13640  32.796   4.731   8.404
  726POPC   C3B13641  32.619   4.757   7.971
  726POPC   C4B13642  32.650   4.864   7.511
  727POPC   NC313643  39.579  42.687   9.805
  727POPC   PO413644  39.233  42.215   9.419
  727POPC   GL113645  39.431  42.284   9.054
  727POPC   GL213646  39.107  42.468   8.946
  727POPC   C1A13647  39.503  42.424   8.646
  727POPC   D2A13648  39.229  42.364   8.324
  727POPC   C3A13649  39.283  42.431   7.941
  727POPC   C4A13650  39.355  42.345   7.537
  727POPC   C1B13651  39.131  42.034   8.715
  727POPC   C2B13652  39.219  41.874   8.278
  727POPC   C3B13653  38.949  42.040   7.974
  727POPC   C4B13654  38.607  41.950   7.721
  728POPC   NC313655  20.003   3.726   9.380
  728POPC   PO413656  19.772   3.080   9.590
  728POPC   GL113657  19.879   3.251   9.157
  728POPC   GL213658  19.621   3.527   9.090
  728POPC   C1A13659  19.971   3.451   8.714
  728POPC   D2A13660  19.677   3.617   8.378
  728POPC   C3A13661  19.828   3.666   7.962
  728POPC   C4A13662  20.158   3.416   7.766
  728POPC   C1B13663  19.387   3.374   8.720
  728POPC   C2B13664  19.321   3.275   8.238
  728POPC   C3B13665  19.487   3.304   7.788
  728POPC   C4B13666  19.509   3.112   7.352
  729POPC   NC313667  25.968  17.348   9.389
  729POPC   PO413668  25.620  17.958   9.481
  729POPC   GL113669  25.704  17.692   9.126
  729POPC   GL213670  26.075  17.762   9.064
  729POPC   C1A13671  25.816  17.468   8.730
  729POPC   D2A13672  25.801  17.608   8.287
  729POPC   C3A13673  25.910  17.351   7.901
  729POPC   C4A13674  25.778  17.396   7.438
  729POPC   C1B13675  26.352  17.503   8.781
  729POPC   C2B13676  26.515  17.237   8.469
  729POPC   C3B13677  26.460  17.424   8.079
  729POPC   C4B13678  26.322  17.603   7.728
  730POPC   NC313679  35.558  44.845   9.805
  730POPC   PO413680  35.160  44.520   9.480
  730POPC   GL113681  35.280  44.692   9.096
  730POPC   GL213682  35.534  44.838   9.267
  730POPC   C1A13683  35.119  44.532   8.689
  730POPC   D2A13684  35.334  44.537   8.312
  730POPC   C3A13685  35.242  44.358   7.912
  730POPC   C4A13686  35.379  44.692   7.722
  730POPC   C1B13687  35.633   0.044   8.882
  730POPC   C2B13688  35.718   0.181   8.479
  730POPC   C3B13689  35.500   0.002   8.128
  730POPC   C4B13690  35.744   0.021   7.774
  731POPC   NC313691  27.095  44.338   9.529
  731POPC   PO413692  26.768  44.943   9.484
  731POPC   GL113693  26.797  44.607   9.222
  731POPC   GL213694  27.152  44.651   9.085
  731POPC   C1A13695  26.750  44.428   8.859
  731POPC   D2A13696  26.959  44.474   8.520
  731POPC   C3A13697  26.788  44.362   8.158
  731POPC   C4A13698  26.711  44.578   7.797
  731POPC   C1B13699  26.909  44.920   8.780
  731POPC   C2B13700  26.785  44.925   8.322
  731POPC   C3B13701  26.770   0.080   7.881
  731POPC   C4B13702  26.499  44.931   7.519
  732POPC   NC313703  21.397  34.082   9.328
  732POPC   PO413704  21.604  33.558   9.592
  732POPC   GL113705  21.718  33.715   9.164
  732POPC   GL213706  21.369  33.665   9.011
  732POPC   C1A13707  21.670  33.924   8.730
  732POPC   D2A13708  21.457  33.661   8.453
  732POPC   C3A13709  21.569  33.891   8.126
  732POPC   C4A13710  21.549  33.901   7.700
  732POPC   C1B13711  21.134  33.991   8.760
  732POPC   C2B13712  21.090  34.010   8.357
  732POPC   C3B13713  21.113  33.737   8.033
  732POPC   C4B13714  21.051  33.918   7.676
  733POPC   NC313715  19.762  38.148   9.456
  733POPC   PO413716  19.391  38.532   9.074
  733POPC   GL113717  19.879  38.559   9.123
  733POPC   GL213718  20.023  38.238   8.989
  733POPC   C1A13719  20.032  38.778   8.765
  733POPC   D2A13720  19.794  38.580   8.421
  733POPC   C3A13721  19.933  38.410   8.023
  733POPC   C4A13722  19.766  38.629   7.639
  733POPC   C1B13723  19.928  38.095   8.542
  733POPC   C2B13724  19.549  38.101   8.250
  733POPC   C3B13725  19.464  38.266   7.857
  733POPC   C4B13726  19.766  38.132   7.523
  734POPC   NC313727  26.807  17.865   9.559
  734POPC   PO413728  26.403  17.467   9.420
  734POPC   GL113729  26.794  17.512   9.180
  734POPC   GL213730  26.923  17.867   9.064
  734POPC   C1A13731  26.914  17.449   8.773
  734POPC   D2A13732  26.795  17.678   8.439
  734POPC   C3A13733  26.979  17.487   8.122
  734POPC   C4A13734  26.858  17.503   7.736
  734POPC   C1B13735  27.168  17.966   8.671
  734POPC   C2B13736  27.186  17.976   8.203
  734POPC   C3B13737  27.003  18.006   7.766
  734POPC   C4B13738  27.016  17.803   7.343
  735POPC   NC313739  15.608  37.558   9.432
  735POPC   PO413740  14.951  37.668   9.516
  735POPC   GL113741  14.941  37.890   9.110
  735POPC   GL213742  15.309  37.821   9.056
  735POPC   C1A13743  15.014  38.016   8.687
  735POPC   D2A13744  15.216  37.786   8.359
  735POPC   C3A13745  15.032  37.686   7.942
  735POPC   C4A13746  15.135  37.788   7.484
  735POPC   C1B13747  15.424  37.506   8.760
  735POPC   C2B13748  15.567  37.400   8.351
  735POPC   C3B13749  15.545  37.584   7.948
  735POPC   C4B13750  15.488  37.414   7.528
  736POPC   NC313751   8.281  11.914   9.480
  736POPC   PO413752   7.609  12.007   9.476
  736POPC   GL113753   7.904  12.048   9.152
  736POPC   GL213754   8.165  12.318   9.172
  736POPC   C1A13755   8.047  11.895   8.784
  736POPC   D2A13756   8.014  12.187   8.481
  736POPC   C3A13757   8.114  11.991   8.107
  736POPC   C4A13758   7.934  11.842   7.732
  736POPC   C1B13759   8.043  12.597   8.829
  736POPC   C2B13760   7.897  12.696   8.418
  736POPC   C3B13761   7.843  12.448   8.072
  736POPC   C4B13762   8.141  12.360   7.769
  737POPC   NC313763  22.063  33.630   9.555
  737POPC   PO413764  22.415  34.215   9.602
  737POPC   GL113765  22.319  34.009   9.205
  737POPC   GL213766  22.495  33.732   9.299
  737POPC   C1A13767  22.136  33.768   8.841
  737POPC   D2A13768  21.997  33.660   8.393
  737POPC   C3A13769  22.012  33.776   7.939
  737POPC   C4A13770  21.953  33.700   7.487
  737POPC   C1B13771  22.619  33.626   8.885
  737POPC   C2B13772  22.529  33.744   8.478
  737POPC   C3B13773  22.503  33.826   8.054
  737POPC   C4B13774  22.418  33.600   7.696
  738POPC   NC313775  44.943   0.713   9.505
  738POPC   PO413776  44.339   0.334   9.543
  738POPC   GL113777  44.603   0.431   9.193
  738POPC   GL213778  44.513   0.749   9.065
  738POPC   C1A13779  44.505   0.303   8.759
  738POPC   D2A13780  44.478   0.588   8.394
  738POPC   C3A13781  44.520   0.368   8.044
  738POPC   C4A13782  44.332   0.213   7.675
  738POPC   C1B13783  44.805   0.707   8.767
  738POPC   C2B13784   0.022   0.424   8.513
  738POPC   C3B13785   0.037   0.298   8.091
  738POPC   C4B13786  44.890   0.550   7.752
  739POPC   NC313787   1.379   9.755   9.925
  739POPC   PO413788   1.904   9.716   9.556
  739POPC   GL113789   1.863   9.735   9.140
  739POPC   GL213790   2.177   9.606   9.101
  739POPC   C1A13791   1.995   9.836   8.705
  739POPC   D2A13792   1.726   9.943   8.410
  739POPC   C3A13793   1.891  10.187   8.083
  739POPC   C4A13794   1.868   9.955   7.704
  739POPC   C1B13795   2.346   9.379   8.747
  739POPC   C2B13796   2.280   9.473   8.317
  739POPC   C3B13797   2.089   9.412   7.901
  739POPC   C4B13798   2.259   9.315   7.492
  740POPC   NC313799  33.231  27.908   9.324
  740POPC   PO413800  33.740  27.510   9.604
  740POPC   GL113801  33.843  27.366   9.168
  740POPC   GL213802  33.774  27.718   9.100
  740POPC   C1A13803  33.821  27.299   8.717
  740POPC   D2A13804  33.615  27.409   8.312
  740POPC   C3A13805  33.747  27.630   7.947
  740POPC   C4A13806  33.842  27.775   7.548
  740POPC   C1B13807  33.689  27.798   8.667
  740POPC   C2B13808  33.573  27.978   8.277
  740POPC   C3B13809  33.284  27.883   7.933
  740POPC   C4B13810  33.274  27.988   7.477
  741POPC   NC313811  15.224  40.087   9.616
  741POPC   PO413812  15.676  40.399   9.434
  741POPC   GL113813  15.524  39.956   9.217
  741POPC   GL213814  15.156  39.862   9.147
  741POPC   C1A13815  15.507  39.674   8.815
  741POPC   D2A13816  15.458  39.489   8.353
  741POPC   C3A13817  15.397  39.748   7.965
  741POPC   C4A13818  15.326  40.191   7.790
  741POPC   C1B13819  14.850  39.569   8.901
  741POPC   C2B13820  14.768  39.429   8.436
  741POPC   C3B13821  14.807  39.530   7.952
  741POPC   C4B13822  14.943  39.866   7.674
  742POPC   NC313823  38.846  37.137   9.215
  742POPC   PO413824  38.912  36.689   9.735
  742POPC   GL113825  38.626  36.669   9.314
  742POPC   GL213826  38.782  36.471   9.051
  742POPC   C1A13827  38.413  36.766   8.856
  742POPC   D2A13828  38.347  36.670   8.390
  742POPC   C3A13829  38.307  36.969   8.028
  742POPC   C4A13830  38.675  37.169   7.810
  742POPC   C1B13831  38.860  36.636   8.639
  742POPC   C2B13832  38.930  36.689   8.238
  742POPC   C3B13833  38.673  36.614   7.886
  742POPC   C4B13834  38.675  36.557   7.458
  743POPC   NC313835  25.828  25.531   9.576
  743POPC   PO413836  26.436  25.226   9.582
  743POPC   GL113837  26.132  25.236   9.249
  743POPC   GL213838  25.757  25.150   9.217
  743POPC   C1A13839  26.170  25.333   8.847
  743POPC   D2A13840  26.334  25.406   8.453
  743POPC   C3A13841  26.081  25.409   8.088
  743POPC   C4A13842  26.219  25.379   7.686
  743POPC   C1B13843  25.752  25.043   8.732
  743POPC   C2B13844  25.687  25.129   8.260
  743POPC   C3B13845  25.847  24.996   7.835
  743POPC   C4B13846  25.723  24.630   7.563
  744POPC   NC313847  35.280  38.671   9.561
  744POPC   PO413848  35.464  38.036   9.564
  744POPC   GL113849  35.484  38.319   9.230
  744POPC   GL213850  35.153  38.298   9.227
  744POPC   C1A13851  35.599  38.266   8.817
  744POPC   D2A13852  35.555  38.055   8.430
  744POPC   C3A13853  35.589  38.377   8.129
  744POPC   C4A13854  35.700  38.547   7.698
  744POPC   C1B13855  35.063  38.508   8.884
  744POPC   C2B13856  35.223  38.497   8.488
  744POPC   C3B13857  35.033  38.507   8.109
  744POPC   C4B13858  35.180  38.483   7.754
  745POPC   NC313859  27.273  18.499   9.909
  745POPC   PO413860  27.809  18.169   9.677
  745POPC   GL113861  27.841  18.208   9.214
  745POPC   GL213862  28.072  17.947   9.146
  745POPC   C1A13863  27.551  18.331   8.830
  745POPC   D2A13864  27.348  18.447   8.427
  745POPC   C3A13865  27.510  18.336   7.982
  745POPC   C4A13866  27.642  18.557   7.596
  745POPC   C1B13867  27.816  17.910   8.754
  745POPC   C2B13868  27.740  17.945   8.292
  745POPC   C3B13869  27.955  18.080   7.895
  745POPC   C4B13870  27.878  18.088   7.450
  746POPC   NC313871  28.665   5.401   9.406
  746POPC   PO413872  29.035   4.871   9.634
  746POPC   GL113873  29.049   5.030   9.235
  746POPC   GL213874  28.976   4.744   9.066
  746POPC   C1A13875  29.167   5.135   8.788
  746POPC   D2A13876  29.264   5.347   8.386
  746POPC   C3A13877  29.174   5.154   8.009
  746POPC   C4A13878  29.153   5.378   7.629
  746POPC   C1B13879  28.689   4.582   8.780
  746POPC   C2B13880  28.802   4.675   8.380
  746POPC   C3B13881  28.634   4.650   7.995
  746POPC   C4B13882  28.893   4.827   7.708
  747POPC   NC313883  17.279  16.934   9.934
  747POPC   PO413884  17.567  16.547   9.481
  747POPC   GL113885  17.554  16.803   9.102
  747POPC   GL213886  17.278  16.571   9.003
  747POPC   C1A13887  17.463  16.952   8.686
  747POPC   D2A13888  17.235  16.948   8.279
  747POPC   C3A13889  17.423  17.051   7.922
  747POPC   C4A13890  17.794  16.847   7.810
  747POPC   C1B13891  17.611  16.440   8.748
  747POPC   C2B13892  17.651  16.614   8.345
  747POPC   C3B13893  17.437  16.525   7.960
  747POPC   C4B13894  17.552  16.479   7.501
  748POPC   NC313895   6.137  39.577   9.511
  748POPC   PO413896   5.810  38.950   9.506
  748POPC   GL113897   5.886  39.046   9.093
  748POPC   GL213898   6.196  38.874   9.151
  748POPC   C1A13899   5.721  39.071   8.649
  748POPC   D2A13900   5.981  38.910   8.300
  748POPC   C3A13901   5.849  38.924   7.875
  748POPC   C4A13902   5.604  39.278   7.698
  748POPC   C1B13903   6.233  39.080   8.729
  748POPC   C2B13904   6.038  39.409   8.440
  748POPC   C3B13905   6.096  39.349   7.994
  748POPC   C4B13906   6.410  39.015   7.887
  749POPC   NC313907   9.410  13.056   9.562
  749POPC   PO413908   9.905  12.520   9.531
  749POPC   GL113909   9.622  12.711   9.213
  749POPC   GL213910   9.644  13.069   9.118
  749POPC   C1A13911   9.626  12.738   8.746
  749POPC   D2A13912   9.842  12.914   8.391
  749POPC   C3A13913   9.711  12.724   8.021
  749POPC   C4A13914   9.965  12.560   7.728
  749POPC   C1B13915   9.631  13.273   8.706
  749POPC   C2B13916   9.561  13.324   8.260
  749POPC   C3B13917   9.669  13.217   7.835
  749POPC   C4B13918   9.613  12.900   7.521
  750POPC   NC313919  43.231   0.558   9.586
  750POPC   PO413920  42.668   0.160   9.415
  750POPC   GL113921  42.931   0.466   9.169
  750POPC   GL213922  43.271   0.358   9.114
  750POPC   C1A13923  42.927   0.675   8.763
  750POPC   D2A13924  43.047   0.639   8.317
  750POPC   C3A13925  42.753   0.556   7.976
  750POPC   C4A13926  42.897   0.472   7.549
  750POPC   C1B13927  43.063   0.167   8.749
  750POPC   C2B13928  43.061  44.940   8.348
  750POPC   C3B13929  43.044   0.124   7.954
  750POPC   C4B13930  43.339   0.215   7.665
  751POPC   NC313931  28.043   8.453   9.584
  751POPC   PO413932  27.621   7.960   9.470
  751POPC   GL113933  27.877   8.084   9.125
  751POPC   GL213934  27.932   8.453   9.094
  751POPC   C1A13935  27.768   8.149   8.693
  751POPC   D2A13936  27.438   8.234   8.366
  751POPC   C3A13937  27.591   8.147   7.943
  751POPC   C4A13938  27.788   7.961   7.562
  751POPC   C1B13939  27.569   8.576   8.844
  751POPC   C2B13940  27.654   8.697   8.454
  751POPC   C3B13941  27.856   8.541   8.148
  751POPC   C4B13942  27.744   8.600   7.754
  752POPC   NC313943  41.598   0.963   9.363
  752POPC   PO413944  42.085   1.199   9.690
  752POPC   GL113945  41.898   1.307   9.198
  752POPC   GL213946  41.614   1.507   9.225
  752POPC   C1A13947  41.831   1.091   8.771
  752POPC   D2A13948  41.587   0.917   8.430
  752POPC   C3A13949  41.720   1.051   8.047
  752POPC   C4A13950  41.375   1.083   7.788
  752POPC   C1B13951  41.617   1.566   8.764
  752POPC   C2B13952  41.515   1.445   8.353
  752POPC   C3B13953  41.428   1.563   7.942
  752POPC   C4B13954  41.198   1.528   7.568
  753POPC   NC313955  12.911  34.735   9.507
  753POPC   PO413956  12.589  34.204   9.461
  753POPC   GL113957  12.751  34.438   9.093
  753POPC   GL213958  13.080  34.503   9.071
  753POPC   C1A13959  12.808  34.751   8.723
  753POPC   D2A13960  12.627  34.803   8.305
  753POPC   C3A13961  12.829  34.806   7.888
  753POPC   C4A13962  12.783  34.395   7.768
  753POPC   C1B13963  13.031  34.325   8.641
  753POPC   C2B13964  13.020  34.474   8.236
  753POPC   C3B13965  13.267  34.432   7.853
  753POPC   C4B13966  13.187  34.228   7.456
  754POPC   NC313967   4.078  42.077   9.499
  754POPC   PO413968   4.414  42.743   9.545
  754POPC   GL113969   4.576  42.482   9.173
  754POPC   GL213970   4.602  42.117   9.215
  754POPC   C1A13971   4.477  42.460   8.696
  754POPC   D2A13972   4.207  42.379   8.291
  754POPC   C3A13973   4.380  42.560   7.912
  754POPC   C4A13974   4.828  42.572   7.824
  754POPC   C1B13975   4.461  41.955   8.813
  754POPC   C2B13976   4.552  41.845   8.372
  754POPC   C3B13977   4.502  41.973   7.930
  754POPC   C4B13978   4.123  42.120   7.817
  755POPC   NC313979  32.595  19.574   9.473
  755POPC   PO413980  32.089  19.999   9.500
  755POPC   GL113981  32.287  19.850   9.155
  755POPC   GL213982  32.575  19.999   9.124
  755POPC   C1A13983  32.204  19.734   8.744
  755POPC   D2A13984  32.053  19.966   8.397
  755POPC   C3A13985  32.226  19.801   8.069
  755POPC   C4A13986  32.220  19.461   7.800
  755POPC   C1B13987  32.476  20.233   8.823
  755POPC   C2B13988  32.573  20.028   8.466
  755POPC   C3B13989  32.666  20.037   8.047
  755POPC   C4B13990  32.462  19.954   7.640
  756POPC   NC313991  30.911  14.562   9.510
  756POPC   PO413992  31.575  14.405   9.466
  756POPC   GL113993  31.336  14.632   9.166
  756POPC   GL213994  31.614  14.781   8.946
  756POPC   C1A13995  31.206  14.544   8.764
  756POPC   D2A13996  31.333  14.268   8.422
  756POPC   C3A13997  31.287  14.513   8.127
  756POPC   C4A13998  31.364  14.517   7.764
  756POPC   C1B13999  31.648  14.305   8.837
  756POPC   C2B14000  31.819  14.162   8.455
  756POPC   C3B14001  31.793  14.304   8.023
  756POPC   C4B14002  31.703  14.131   7.624
  757POPC   NC314003  30.435   8.031   9.445
  757POPC   PO414004  30.731   8.652   9.563
  757POPC   GL114005  30.798   8.442   9.163
  757POPC   GL214006  30.981   8.117   9.138
  757POPC   C1A14007  30.618   8.288   8.761
  757POPC   D2A14008  30.497   8.421   8.331
  757POPC   C3A14009  30.735   8.537   7.992
  757POPC   C4A14010  30.584   8.259   7.710
  757POPC   C1B14011  31.140   8.153   8.688
  757POPC   C2B14012  30.974   8.028   8.273
  757POPC   C3B14013  31.018   7.939   7.826
  757POPC   C4B14014  30.768   7.867   7.434
  758POPC   NC314015  32.668  21.366   9.456
  758POPC   PO414016  33.363  21.120   9.438
  758POPC   GL114017  33.104  21.338   9.185
  758POPC   GL214018  32.913  21.027   9.141
  758POPC   C1A14019  33.090  21.539   8.790
  758POPC   D2A14020  33.307  21.432   8.417
  758POPC   C3A14021  33.065  21.364   8.065
  758POPC   C4A14022  32.919  21.458   7.669
  758POPC   C1B14023  33.206  21.019   8.774
  758POPC   C2B14024  33.566  20.984   8.499
  758POPC   C3B14025  33.593  21.143   8.078
  758POPC   C4B14026  33.348  21.144   7.697
  759POPC   NC314027  41.683  44.445   9.565
  759POPC   PO414028  41.281  44.907   9.352
  759POPC   GL114029  41.509  44.597   9.089
  759POPC   GL214030  41.809  44.717   8.986
  759POPC   C1A14031  41.586  44.453   8.642
  759POPC   D2A14032  41.423  44.344   8.243
  759POPC   C3A14033  41.619  44.471   7.855
  759POPC   C4A14034  41.311  44.517   7.521
  759POPC   C1B14035  41.530  44.967   8.701
  759POPC   C2B14036  41.541  44.845   8.276
  759POPC   C3B14037  41.313  44.872   7.909
  759POPC   C4B14038  41.417   0.159   7.577
  760POPC   NC314039  39.072  35.573   9.527
  760POPC   PO414040  39.568  35.093   9.577
  760POPC   GL114041  39.536  35.178   9.149
  760POPC   GL214042  39.416  35.509   9.132
  760POPC   C1A14043  39.358  35.228   8.715
  760POPC   D2A14044  39.166  35.441   8.380
  760POPC   C3A14045  39.342  35.395   7.971
  760POPC   C4A14046  39.590  35.081   7.822
  760POPC   C1B14047  39.079  35.656   8.862
  760POPC   C2B14048  38.918  35.872   8.504
  760POPC   C3B14049  39.009  35.818   8.064
  760POPC   C4B14050  38.874  35.493   7.768
  761POPC   NC314051   9.183  23.842   9.594
  761POPC   PO414052   8.588  23.882   9.476
  761POPC   GL114053   8.859  23.709   9.194
  761POPC   GL214054   9.120  23.523   9.190
  761POPC   C1A14055   8.913  23.840   8.782
  761POPC   D2A14056   8.989  23.601   8.453
  761POPC   C3A14057   9.094  23.809   8.106
  761POPC   C4A14058   8.931  24.079   7.805
  761POPC   C1B14059   9.392  23.631   8.868
  761POPC   C2B14060   9.484  23.467   8.438
  761POPC   C3B14061   9.242  23.325   8.077
  761POPC   C4B14062   9.089  23.543   7.674
  762POPC   NC314063  40.464  32.216   9.401
  762POPC   PO414064  40.939  32.681   9.407
  762POPC   GL114065  40.891  32.373   9.141
  762POPC   GL214066  41.091  32.121   9.278
  762POPC   C1A14067  40.642  32.234   8.784
  762POPC   D2A14068  40.727  32.025   8.422
  762POPC   C3A14069  40.515  32.238   8.110
  762POPC   C4A14070  40.591  32.408   7.726
  762POPC   C1B14071  41.100  32.031   8.831
  762POPC   C2B14072  41.212  32.257   8.458
  762POPC   C3B14073  41.042  32.148   8.045
  762POPC   C4B14074  41.239  32.058   7.647
  763POPC   NC314075   7.362   4.001   9.608
  763POPC   PO414076   7.080   4.636   9.556
  763POPC   GL114077   7.438   4.439   9.263
  763POPC   GL214078   7.405   4.111   9.108
  763POPC   C1A14079   7.529   4.536   8.807
  763POPC   D2A14080   7.385   4.684   8.355
  763POPC   C3A14081   7.433   4.456   7.935
  763POPC   C4A14082   7.279   4.110   7.660
  763POPC   C1B14083   7.626   4.022   8.715
  763POPC   C2B14084   7.745   4.121   8.298
  763POPC   C3B14085   7.694   3.973   7.927
  763POPC   C4B14086   7.791   4.124   7.529
  764POPC   NC314087   0.474   3.956   9.466
  764POPC   PO414088   0.063   4.451   9.484
  764POPC   GL114089   0.426   4.426   9.238
  764POPC   GL214090   0.230   4.153   9.070
  764POPC   C1A14091   0.567   4.444   8.822
  764POPC   D2A14092   0.351   4.425   8.441
  764POPC   C3A14093   0.696   4.257   8.180
  764POPC   C4A14094   0.658   4.036   7.777
  764POPC   C1B14095   0.490   3.940   8.771
  764POPC   C2B14096   0.298   3.922   8.399
  764POPC   C3B14097   0.227   4.152   8.026
  764POPC   C4B14098   0.135   3.939   7.671
  765POPC   NC314099  37.029  22.377   9.604
  765POPC   PO414100  37.196  21.703   9.586
  765POPC   GL114101  37.207  22.052   9.261
  765POPC   GL214102  36.844  22.122   9.172
  765POPC   C1A14103  37.211  22.298   8.873
  765POPC   D2A14104  36.990  22.209   8.485
  765POPC   C3A14105  37.178  22.104   8.105
  765POPC   C4A14106  37.071  21.986   7.751
  765POPC   C1B14107  36.596  22.336   8.832
  765POPC   C2B14108  36.564  22.507   8.409
  765POPC   C3B14109  36.818  22.464   8.035
  765POPC   C4B14110  36.770  22.348   7.599
  766POPC   NC314111  20.886  18.755   9.488
  766POPC   PO414112  20.286  18.610   9.435
  766POPC   GL114113  20.507  18.823   9.075
  766POPC   GL214114  20.744  19.124   9.147
  766POPC   C1A14115  20.405  19.133   8.717
  766POPC   D2A14116  20.439  19.181   8.265
  766POPC   C3A14117  20.643  18.906   8.019
  766POPC   C4A14118  20.395  18.824   7.672
  766POPC   C1B14119  20.825  19.428   8.817
  766POPC   C2B14120  20.969  19.357   8.380
  766POPC   C3B14121  20.854  19.364   7.937
  766POPC   C4B14122  20.735  19.165   7.528
  767POPC   NC314123  39.824  10.838   9.442
  767POPC   PO414124  39.189  10.503   9.434
  767POPC   GL114125  39.169  10.447   9.038
  767POPC   GL214126  39.519  10.475   9.043
  767POPC   C1A14127  39.154  10.369   8.613
  767POPC   D2A14128  38.938  10.237   8.240
  767POPC   C3A14129  39.185  10.265   7.827
  767POPC   C4A14130  39.066  10.497   7.424
  767POPC   C1B14131  39.449  10.768   8.705
  767POPC   C2B14132  39.482  10.612   8.270
  767POPC   C3B14133  39.371  10.758   7.861
  767POPC   C4B14134  39.467  10.798   7.424
  768POPC   NC314135   8.863  44.348   9.626
  768POPC   PO414136   9.106  44.874   9.820
  768POPC   GL114137   8.995  44.733   9.314
  768POPC   GL214138   9.160  44.455   9.190
  768POPC   C1A14139   8.881  44.708   8.848
  768POPC   D2A14140   8.905  44.892   8.440
  768POPC   C3A14141   8.839  44.700   8.041
  768POPC   C4A14142   8.939  44.946   7.697
  768POPC   C1B14143   9.095  44.246   8.782
  768POPC   C2B14144   9.090  44.353   8.331
  768POPC   C3B14145   9.217  44.348   7.899
  768POPC   C4B14146   8.981  44.406   7.561
  769POPC   NC314147   3.172  21.848   9.384
  769POPC   PO414148   3.475  21.245   9.561
  769POPC   GL114149   3.411  21.189   9.172
  769POPC   GL214150   3.359  20.865   9.155
  769POPC   C1A14151   3.439  21.329   8.756
  769POPC   D2A14152   3.421  21.723   8.482
  769POPC   C3A14153   3.590  21.657   8.075
  769POPC   C4A14154   3.389  21.511   7.710
  769POPC   C1B14155   3.674  20.871   8.852
  769POPC   C2B14156   3.755  21.080   8.452
  769POPC   C3B14157   3.447  21.168   8.142
  769POPC   C4B14158   3.508  21.025   7.755
  770POPC   NC314159  39.771  27.602   9.493
  770POPC   PO414160  40.279  27.913   9.638
  770POPC   GL114161  40.237  27.654   9.222
  770POPC   GL214162  39.969  27.440   9.075
  770POPC   C1A14163  40.238  27.680   8.747
  770POPC   D2A14164  40.294  27.585   8.330
  770POPC   C3A14165  39.969  27.794   8.084
  770POPC   C4A14166  39.827  27.707   7.665
  770POPC   C1B14167  39.775  27.228   8.782
  770POPC   C2B14168  39.796  27.438   8.423
  770POPC   C3B14169  39.630  27.399   8.035
  770POPC   C4B14170  39.728  27.197   7.641
  771POPC   NC314171  27.015  34.017   9.428
  771POPC   PO414172  26.488  33.548   9.375
  771POPC   GL114173  26.699  33.799   9.056
  771POPC   GL214174  27.077  33.724   9.001
  771POPC   C1A14175  26.766  33.839   8.605
  771POPC   D2A14176  27.122  33.671   8.389
  771POPC   C3A14177  26.938  33.729   8.012
  771POPC   C4A14178  26.628  34.048   7.891
  771POPC   C1B14179  27.180  34.087   8.727
  771POPC   C2B14180  27.057  34.193   8.254
  771POPC   C3B14181  27.104  34.129   7.760
  771POPC   C4B14182  27.230  34.047   7.325
  772POPC   NC314183  15.115  20.147   9.461
  772POPC   PO414184  15.047  19.451   9.441
  772POPC   GL114185  15.288  19.684   9.081
  772POPC   GL214186  15.151  20.004   8.985
  772POPC   C1A14187  15.356  19.698   8.608
  772POPC   D2A14188  15.034  19.660   8.253
  772POPC   C3A14189  15.048  19.418   7.821
  772POPC   C4A14190  14.866  19.637   7.451
  772POPC   C1B14191  15.371  20.214   8.650
  772POPC   C2B14192  15.342  20.070   8.225
  772POPC   C3B14193  15.262  19.863   7.826
  772POPC   C4B14194  15.247  19.985   7.405
  773POPC   NC314195   8.642  37.041   9.552
  773POPC   PO414196   9.220  36.789   9.481
  773POPC   GL114197   8.940  36.803   9.183
  773POPC   GL214198   8.997  37.159   9.161
  773POPC   C1A14199   8.791  36.706   8.765
  773POPC   D2A14200   8.528  36.913   8.444
  773POPC   C3A14201   8.722  36.955   8.072
  773POPC   C4A14202   8.883  37.137   7.689
  773POPC   C1B14203   9.238  36.985   8.810
  773POPC   C2B14204   9.124  36.852   8.389
  773POPC   C3B14205   9.162  36.679   7.977
  773POPC   C4B14206   9.500  36.769   7.701
  774POPC   NC314207   1.629  13.301   9.357
  774POPC   PO414208   2.262  13.213   9.268
  774POPC   GL114209   2.137  13.641   9.076
  774POPC   GL214210   1.795  13.847   9.116
  774POPC   C1A14211   2.090  13.791   8.642
  774POPC   D2A14212   1.802  13.702   8.282
  774POPC   C3A14213   2.044  13.479   7.968
  774POPC   C4A14214   2.349  13.770   7.863
  774POPC   C1B14215   1.617  13.992   8.698
  774POPC   C2B14216   1.688  14.197   8.306
  774POPC   C3B14217   1.779  14.033   7.862
  774POPC   C4B14218   1.500  13.944   7.485
  775POPC   NC314219  36.857  38.399   9.471
  775POPC   PO414220  37.457  38.461   9.540
  775POPC   GL114221  37.235  38.265   9.135
  775POPC   GL214222  36.942  38.039   9.103
  775POPC   C1A14223  36.899  38.415   8.770
  775POPC   D2A14224  36.474  38.443   8.520
  775POPC   C3A14225  36.557  38.364   8.081
  775POPC   C4A14226  36.944  38.546   7.853
  775POPC   C1B14227  37.177  37.942   8.726
  775POPC   C2B14228  37.432  38.015   8.346
  775POPC   C3B14229  37.394  38.267   7.982
  775POPC   C4B14230  37.169  38.182   7.583
  776POPC   NC314231  40.385  28.266   9.364
  776POPC   PO414232  39.654  28.091   9.345
  776POPC   GL114233  39.903  28.362   9.137
  776POPC   GL214234  40.050  28.080   9.002
  776POPC   C1A14235  39.871  28.479   8.706
  776POPC   D2A14236  39.953  28.316   8.288
  776POPC   C3A14237  39.887  28.614   7.949
  776POPC   C4A14238  39.820  28.517   7.538
  776POPC   C1B14239  40.303  28.174   8.654
  776POPC   C2B14240  40.413  28.076   8.222
  776POPC   C3B14241  40.197  28.201   7.836
  776POPC   C4B14242  40.326  28.523   7.539
  777POPC   NC314243  32.360  11.403   9.524
  777POPC   PO414244  31.851  10.966   9.558
  777POPC   GL114245  32.061  10.937   9.128
  777POPC   GL214246  32.367  11.130   9.105
  777POPC   C1A14247  32.172  10.980   8.682
  777POPC   D2A14248  32.454  11.225   8.498
  777POPC   C3A14249  32.348  11.075   8.142
  777POPC   C4A14250  32.409  11.088   7.742
  777POPC   C1B14251  32.155  11.478   8.857
  777POPC   C2B14252  32.307  11.723   8.487
  777POPC   C3B14253  32.416  11.730   8.066
  777POPC   C4B14254  32.431  11.575   7.656
  778POPC   NC314255  30.384  36.942   9.517
  778POPC   PO414256  31.016  36.919   9.474
  778POPC   GL114257  30.785  36.985   9.118
  778POPC   GL214258  30.927  37.233   8.900
  778POPC   C1A14259  30.782  36.778   8.735
  778POPC   D2A14260  30.525  36.768   8.417
  778POPC   C3A14261  30.638  36.789   8.008
  778POPC   C4A14262  30.949  36.984   7.839
  778POPC   C1B14263  30.608  37.240   8.582
  778POPC   C2B14264  30.351  37.190   8.179
  778POPC   C3B14265  30.529  37.282   7.760
  778POPC   C4B14266  30.691  37.355   7.316
  779POPC   NC314267   7.626  37.111   9.757
  779POPC   PO414268   7.737  36.421   9.573
  779POPC   GL114269   7.570  36.653   9.204
  779POPC   GL214270   7.507  37.008   9.194
  779POPC   C1A14271   7.744  36.798   8.795
  779POPC   D2A14272   7.506  36.746   8.423
  779POPC   C3A14273   7.764  36.706   8.078
  779POPC   C4A14274   7.610  36.907   7.724
  779POPC   C1B14275   7.273  37.031   8.790
  779POPC   C2B14276   7.137  37.295   8.416
  779POPC   C3B14277   7.132  37.315   7.925
  779POPC   C4B14278   7.060  37.350   7.453
  780POPC   NC314279  33.779  22.483   9.343
  780POPC   PO414280  33.973  23.086   9.443
  780POPC   GL114281  33.875  23.009   9.017
  780POPC   GL214282  34.146  22.763   9.059
  780POPC   C1A14283  33.501  22.910   8.675
  780POPC   D2A14284  33.352  22.703   8.247
  780POPC   C3A14285  33.411  22.934   7.882
  780POPC   C4A14286  33.809  23.029   7.725
  780POPC   C1B14287  33.923  22.628   8.690
  780POPC   C2B14288  33.826  22.858   8.270
  780POPC   C3B14289  33.832  22.556   7.917
  780POPC   C4B14290  33.889  22.600   7.450
  781POPC   NC314291  40.567  33.698   9.563
  781POPC   PO414292  41.255  33.627   9.472
  781POPC   GL114293  41.171  33.733   9.089
  781POPC   GL214294  40.823  33.836   9.132
  781POPC   C1A14295  41.119  33.925   8.713
  781POPC   D2A14296  40.875  33.783   8.427
  781POPC   C3A14297  41.010  33.946   8.086
  781POPC   C4A14298  40.937  33.718   7.734
  781POPC   C1B14299  40.598  34.042   8.784
  781POPC   C2B14300  40.517  34.124   8.320
  781POPC   C3B14301  40.526  33.779   8.021
  781POPC   C4B14302  40.386  33.736   7.617
  782POPC   NC314303  19.355   6.198   9.962
  782POPC   PO414304  18.804   6.446   9.575
  782POPC   GL114305  18.843   6.586   9.159
  782POPC   GL214306  18.750   6.935   9.228
  782POPC   C1A14307  19.056   6.570   8.759
  782POPC   D2A14308  19.016   6.386   8.323
  782POPC   C3A14309  19.225   6.555   7.949
  782POPC   C4A14310  19.095   6.343   7.551
  782POPC   C1B14311  18.675   6.922   8.808
  782POPC   C2B14312  18.858   6.886   8.396
  782POPC   C3B14313  18.743   6.736   8.003
  782POPC   C4B14314  18.793   6.744   7.549
  783POPC   NC314315  21.060  41.800   9.336
  783POPC   PO414316  21.706  41.387   9.468
  783POPC   GL114317  21.425  41.433   9.148
  783POPC   GL214318  21.140  41.188   9.193
  783POPC   C1A14319  21.493  41.516   8.722
  783POPC   D2A14320  21.617  41.292   8.372
  783POPC   C3A14321  21.638  41.571   8.042
  783POPC   C4A14322  21.672  41.390   7.669
  783POPC   C1B14323  20.998  41.367   8.820
  783POPC   C2B14324  21.045  41.368   8.429
  783POPC   C3B14325  21.066  41.616   8.117
  783POPC   C4B14326  21.243  41.746   7.764
  784POPC   NC314327  20.350  20.833   9.304
  784POPC   PO414328  21.056  20.886   9.444
  784POPC   GL114329  20.810  20.703   9.116
  784POPC   GL214330  20.685  20.378   9.111
  784POPC   C1A14331  20.710  20.642   8.685
  784POPC   D2A14332  20.907  20.819   8.358
  784POPC   C3A14333  20.689  20.720   7.997
  784POPC   C4A14334  20.816  20.932   7.640
  784POPC   C1B14335  20.463  20.195   8.732
  784POPC   C2B14336  20.555  20.116   8.277
  784POPC   C3B14337  20.474  20.215   7.867
  784POPC   C4B14338  20.550  20.481   7.541
  785POPC   NC314339  36.433  16.971   9.424
  785POPC   PO414340  36.313  16.339   9.298
  785POPC   GL114341  36.058  16.634   9.050
  785POPC   GL214342  36.074  16.973   9.051
  785POPC   C1A14343  35.896  16.588   8.669
  785POPC   D2A14344  36.214  16.540   8.359
  785POPC   C3A14345  36.023  16.510   7.986
  785POPC   C4A14346  36.178  16.431   7.609
  785POPC   C1B14347  35.868  17.099   8.695
  785POPC   C2B14348  35.953  16.988   8.293
  785POPC   C3B14349  35.814  17.078   7.922
  785POPC   C4B14350  35.853  16.846   7.631
  786POPC   NC314351  17.304  30.352   9.532
  786POPC   PO414352  17.853  30.859   9.474
  786POPC   GL114353  17.592  30.640   9.173
  786POPC   GL214354  17.341  30.836   8.978
  786POPC   C1A14355  17.621  30.470   8.751
  786POPC   D2A14356  17.793  30.581   8.338
  786POPC   C3A14357  17.499  30.580   7.975
  786POPC   C4A14358  17.103  30.714   7.860
  786POPC   C1B14359  17.731  30.968   8.753
  786POPC   C2B14360  17.797  31.090   8.313
  786POPC   C3B14361  17.893  30.878   7.920
  786POPC   C4B14362  17.534  31.005   7.676
  787POPC   NC314363  39.538  36.888   9.410
  787POPC   PO414364  40.229  37.088   9.506
  787POPC   GL114365  40.086  36.891   9.103
  787POPC   GL214366  39.771  36.766   8.975
  787POPC   C1A14367  40.203  36.736   8.680
  787POPC   D2A14368  39.907  36.742   8.331
  787POPC   C3A14369  39.954  36.788   7.874
  787POPC   C4A14370  40.336  36.869   7.609
  787POPC   C1B14371  39.777  37.045   8.723
  787POPC   C2B14372  40.031  37.253   8.488
  787POPC   C3B14373  40.061  37.270   8.048
  787POPC   C4B14374  39.974  37.230   7.606
  788POPC   NC314375   6.038  25.021   9.577
  788POPC   PO414376   5.916  25.655   9.534
  788POPC   GL114377   6.089  25.382   9.228
  788POPC   GL214378   5.772  25.291   9.159
  788POPC   C1A14379   6.102  25.136   8.819
  788POPC   D2A14380   6.016  25.061   8.390
  788POPC   C3A14381   6.139  25.218   7.995
  788POPC   C4A14382   5.969  25.554   7.750
  788POPC   C1B14383   5.637  25.281   8.734
  788POPC   C2B14384   5.566  25.400   8.327
  788POPC   C3B14385   5.623  25.191   7.933
  788POPC   C4B14386   5.425  25.103   7.532
  789POPC   NC314387  44.640   7.934   9.864
  789POPC   PO414388  44.559   8.420   9.365
  789POPC   GL114389  44.831   8.256   9.096
  789POPC   GL214390  44.973   7.919   9.109
  789POPC   C1A14391  44.682   8.099   8.725
  789POPC   D2A14392  44.546   8.193   8.350
  789POPC   C3A14393  44.546   7.882   8.091
  789POPC   C4A14394  44.351   7.935   7.739
  789POPC   C1B14395   0.181   8.057   8.765
  789POPC   C2B14396   0.076   8.290   8.457
  789POPC   C3B14397   0.001   8.112   8.105
  789POPC   C4B14398  44.823   8.111   7.706
  790POPC   NC314399  23.220  17.006   9.398
  790POPC   PO414400  22.581  16.660   9.441
  790POPC   GL114401  22.856  16.766   9.118
  790POPC   GL214402  23.164  16.570   9.068
  790POPC   C1A14403  22.893  16.809   8.696
  790POPC   D2A14404  22.719  17.009   8.330
  790POPC   C3A14405  22.904  16.878   7.977
  790POPC   C4A14406  22.770  16.700   7.583
  790POPC   C1B14407  23.353  16.376   8.701
  790POPC   C2B14408  23.179  16.575   8.330
  790POPC   C3B14409  23.031  16.400   7.949
  790POPC   C4B14410  23.192  16.433   7.527
  791POPC   NC314411  11.094   1.045   9.894
  791POPC   PO414412  11.626   1.397   9.628
  791POPC   GL114413  11.583   1.509   9.196
  791POPC   GL214414  11.746   1.192   9.094
  791POPC   C1A14415  11.250   1.433   8.857
  791POPC   D2A14416  11.114   1.167   8.479
  791POPC   C3A14417  11.002   1.302   8.040
  791POPC   C4A14418  10.932   0.975   7.717
  791POPC   C1B14419  11.727   1.338   8.716
  791POPC   C2B14420  11.511   1.492   8.406
  791POPC   C3B14421  11.517   1.347   8.024
  791POPC   C4B14422  11.392   1.252   7.641
  792POPC   NC314423  17.285  21.542   9.379
  792POPC   PO414424  16.554  21.596   9.434
  792POPC   GL114425  16.667  21.230   9.152
  792POPC   GL214426  17.004  21.051   9.174
  792POPC   C1A14427  16.544  21.337   8.739
  792POPC   D2A14428  16.540  21.771   8.566
  792POPC   C3A14429  16.582  21.734   8.120
  792POPC   C4A14430  16.921  21.567   7.884
  792POPC   C1B14431  17.072  21.151   8.717
  792POPC   C2B14432  17.166  21.003   8.266
  792POPC   C3B14433  17.021  21.075   7.811
  792POPC   C4B14434  17.109  20.952   7.369
  793POPC   NC314435  37.335  15.506   9.531
  793POPC   PO414436  36.986  14.898   9.789
  793POPC   GL114437  36.897  15.077   9.327
  793POPC   GL214438  37.130  15.297   9.138
  793POPC   C1A14439  36.734  15.093   8.888
  793POPC   D2A14440  36.646  15.084   8.434
  793POPC   C3A14441  36.923  15.218   8.086
  793POPC   C4A14442  36.691  15.040   7.739
  793POPC   C1B14443  37.255  15.036   8.833
  793POPC   C2B14444  37.353  15.186   8.425
  793POPC   C3B14445  37.393  14.939   8.069
  793POPC   C4B14446  37.204  14.943   7.669
  794POPC   NC314447   9.664  11.420   9.521
  794POPC   PO414448   9.554  10.769   9.584
  794POPC   GL114449   9.505  11.044   9.199
  794POPC   GL214450   9.851  11.143   9.118
  794POPC   C1A14451   9.493  11.267   8.783
  794POPC   D2A14452   9.678  11.127   8.425
  794POPC   C3A14453   9.548  11.278   8.032
  794POPC   C4A14454   9.791  11.173   7.680
  794POPC   C1B14455   9.973  11.409   8.722
  794POPC   C2B14456   9.856  11.601   8.285
  794POPC   C3B14457   9.976  11.632   7.831
  794POPC   C4B14458  10.043  11.487   7.362
  795POPC   NC314459  13.198  32.462   9.253
  795POPC   PO414460  12.828  31.911   9.429
  795POPC   GL114461  12.716  32.025   9.054
  795POPC   GL214462  12.705  32.375   9.078
  795POPC   C1A14463  12.524  32.106   8.686
  795POPC   D2A14464  12.412  32.164   8.295
  795POPC   C3A14465  12.779  32.057   8.035
  795POPC   C4A14466  13.007  32.271   7.741
  795POPC   C1B14467  12.781  32.528   8.688
  795POPC   C2B14468  12.854  32.521   8.276
  795POPC   C3B14469  12.572  32.518   7.969
  795POPC   C4B14470  12.602  32.546   7.541
  796POPC   NC314471  10.372  32.810   9.538
  796POPC   PO414472  10.987  33.051   9.618
  796POPC   GL114473  10.718  33.048   9.208
  796POPC   GL214474  10.376  33.215   9.219
  796POPC   C1A14475  10.686  33.019   8.732
  796POPC   D2A14476  10.402  32.842   8.403
  796POPC   C3A14477  10.557  32.839   7.990
  796POPC   C4A14478  10.638  33.104   7.636
  796POPC   C1B14479  10.191  33.070   8.823
  796POPC   C2B14480  10.079  33.262   8.441
  796POPC   C3B14481  10.328  33.351   8.089
  796POPC   C4B14482  10.148  33.138   7.787
  797POPC   NC314483  22.508  15.588   9.184
  797POPC   PO414484  21.935  15.950   9.305
  797POPC   GL114485  22.053  16.079   8.956
  797POPC   GL214486  22.354  16.206   9.090
  797POPC   C1A14487  21.929  16.131   8.539
  797POPC   D2A14488  21.654  15.841   8.288
  797POPC   C3A14489  21.745  15.826   7.839
  797POPC   C4A14490  21.916  16.085   7.451
  797POPC   C1B14491  22.475  16.018   8.677
  797POPC   C2B14492  22.291  15.766   8.411
  797POPC   C3B14493  22.137  15.976   8.106
  797POPC   C4B14494  22.281  15.894   7.737
  798POPC   NC314495  34.253   9.354   9.472
  798POPC   PO414496  34.779   9.748   9.532
  798POPC   GL114497  34.543   9.712   9.173
  798POPC   GL214498  34.636  10.009   9.029
  798POPC   C1A14499  34.380   9.657   8.754
  798POPC   D2A14500  34.500   9.410   8.398
  798POPC   C3A14501  34.564   9.668   8.091
  798POPC   C4A14502  34.247   9.750   7.840
  798POPC   C1B14503  34.824  10.203   8.691
  798POPC   C2B14504  34.928  10.051   8.314
  798POPC   C3B14505  34.703  10.139   7.954
  798POPC   C4B14506  34.618   9.958   7.600
  799POPC   NC314507  34.655  26.815  10.109
  799POPC   PO414508  34.230  26.821   9.551
  799POPC   GL114509  34.575  26.793   9.290
  799POPC   GL214510  34.349  26.658   9.046
  799POPC   C1A14511  34.751  26.930   8.883
  799POPC   D2A14512  34.488  26.844   8.540
  799POPC   C3A14513  34.576  26.984   8.146
  799POPC   C4A14514  34.798  26.772   7.846
  799POPC   C1B14515  34.273  27.126   8.912
  799POPC   C2B14516  34.313  27.310   8.466
  799POPC   C3B14517  34.172  27.284   8.035
  799POPC   C4B14518  34.205  26.912   7.770
  800POPC   NC314519  34.291  29.073   9.609
  800POPC   PO414520  34.825  29.469   9.687
  800POPC   GL114521  34.674  29.238   9.271
  800POPC   GL214522  34.782  28.873   9.193
  800POPC   C1A14523  34.495  29.097   8.846
  800POPC   D2A14524  34.592  29.273   8.428
  800POPC   C3A14525  34.478  29.073   8.050
  800POPC   C4A14526  34.514  29.244   7.643
  800POPC   C1B14527  34.958  28.880   8.728
  800POPC   C2B14528  34.938  28.920   8.250
  800POPC   C3B14529  35.021  28.954   7.793
  800POPC   C4B14530  34.851  28.961   7.361
  801POPC   NC314531  21.837  22.602   9.360
  801POPC   PO414532  22.136  21.970   9.479
  801POPC   GL114533  22.110  21.962   9.086
  801POPC   GL214534  21.796  22.086   9.103
  801POPC   C1A14535  22.083  21.838   8.677
  801POPC   D2A14536  22.404  21.835   8.341
  801POPC   C3A14537  22.244  22.175   8.086
  801POPC   C4A14538  21.919  22.121   7.737
  801POPC   C1B14539  21.973  22.355   8.779
  801POPC   C2B14540  21.918  22.517   8.389
  801POPC   C3B14541  21.971  22.599   7.977
  801POPC   C4B14542  21.780  22.594   7.590
  802POPC   NC314543  43.270   5.199   9.478
  802POPC   PO414544  42.762   5.343   9.276
  802POPC   GL114545  43.142   5.208   8.983
  802POPC   GL214546  43.450   4.960   9.033
  802POPC   C1A14547  43.483   5.352   8.709
  802POPC   D2A14548  43.611   5.302   8.277
  802POPC   C3A14549  43.267   5.112   8.009
  802POPC   C4A14550  43.282   5.039   7.540
  802POPC   C1B14551  43.503   4.840   8.579
  802POPC   C2B14552  43.281   4.650   8.236
  802POPC   C3B14553  43.368   4.625   7.817
  802POPC   C4B14554  43.131   4.578   7.433
  803POPC   NC314555  10.761  20.074   9.660
  803POPC   PO414556  10.128  19.971   9.546
  803POPC   GL114557  10.491  19.862   9.241
  803POPC   GL214558  10.776  20.094   9.174
  803POPC   C1A14559  10.662  19.785   8.803
  803POPC   D2A14560  10.471  19.730   8.397
  803POPC   C3A14561  10.681  19.872   8.051
  803POPC   C4A14562  10.516  20.058   7.725
  803POPC   C1B14563  10.822  20.311   8.834
  803POPC   C2B14564  10.708  20.208   8.445
  803POPC   C3B14565  10.776  20.368   8.058
  803POPC   C4B14566  10.953  20.309   7.685
  804POPC   NC314567  20.370  31.644   9.413
  804POPC   PO414568  21.065  31.426   9.648
  804POPC   GL114569  21.021  31.337   9.200
  804POPC   GL214570  20.683  31.348   9.158
  804POPC   C1A14571  20.929  31.525   8.758
  804POPC   D2A14572  20.653  31.553   8.417
  804POPC   C3A14573  20.821  31.416   8.012
  804POPC   C4A14574  20.785  31.502   7.574
  804POPC   C1B14575  20.449  31.221   8.822
  804POPC   C2B14576  20.247  31.069   8.504
  804POPC   C3B14577  20.365  31.228   8.137
  804POPC   C4B14578  20.358  31.268   7.717
  805POPC   NC314579  17.288  37.710   9.292
  805POPC   PO414580  16.658  37.764   9.282
  805POPC   GL114581  16.688  37.558   8.917
  805POPC   GL214582  16.477  37.254   8.899
  805POPC   C1A14583  16.484  37.712   8.528
  805POPC   D2A14584  16.598  38.010   8.204
  805POPC   C3A14585  16.963  37.864   7.989
  805POPC   C4A14586  17.106  37.548   7.715
  805POPC   C1B14587  16.749  37.282   8.511
  805POPC   C2B14588  16.704  37.441   8.077
  805POPC   C3B14589  16.769  37.156   7.729
  805POPC   C4B14590  16.693  37.170   7.267
  806POPC   NC314591  13.877   1.367   9.253
  806POPC   PO414592  13.740   1.983   9.579
  806POPC   GL114593  13.626   1.858   9.189
  806POPC   GL214594  13.972   1.902   9.108
  806POPC   C1A14595  13.451   2.092   8.855
  806POPC   D2A14596  13.442   1.968   8.435
  806POPC   C3A14597  13.527   2.141   8.049
  806POPC   C4A14598  13.545   1.963   7.611
  806POPC   C1B14599  13.842   1.760   8.696
  806POPC   C2B14600  13.831   1.680   8.243
  806POPC   C3B14601  13.964   1.918   7.888
  806POPC   C4B14602  14.052   2.211   7.536
  807POPC   NC314603  31.200  31.662   9.506
  807POPC   PO414604  31.913  31.691   9.487
  807POPC   GL114605  31.644  31.523   9.182
  807POPC   GL214606  31.443  31.791   9.064
  807POPC   C1A14607  31.369  31.205   8.976
  807POPC   D2A14608  31.163  31.174   8.579
  807POPC   C3A14609  31.440  31.238   8.238
  807POPC   C4A14610  31.404  31.406   7.802
  807POPC   C1B14611  31.513  31.603   8.658
  807POPC   C2B14612  31.490  31.743   8.231
  807POPC   C3B14613  31.184  31.849   7.944
  807POPC   C4B14614  31.094  31.744   7.528
  808POPC   NC314615   6.551   0.011   9.615
  808POPC   PO414616   6.484   0.674   9.499
  808POPC   GL114617   6.589   0.373   9.177
  808POPC   GL214618   6.818   0.640   9.035
  808POPC   C1A14619   6.428   0.055   8.828
  808POPC   D2A14620   6.150   0.015   8.453
  808POPC   C3A14621   6.267   0.091   8.001
  808POPC   C4A14622   6.438   0.216   7.577
  808POPC   C1B14623   6.653   0.468   8.672
  808POPC   C2B14624   6.667   0.179   8.338
  808POPC   C3B14625   6.678   0.431   7.984
  808POPC   C4B14626   6.881   0.521   7.606
  809POPC   NC314627  44.414   8.840   9.506
  809POPC   PO414628   0.050   9.081   9.523
  809POPC   GL114629  44.750   9.100   9.209
  809POPC   GL214630  44.775   8.802   9.118
  809POPC   C1A14631  44.531   9.095   8.803
  809POPC   D2A14632  44.577   9.310   8.436
  809POPC   C3A14633  44.788   9.107   8.142
  809POPC   C4A14634  44.710   8.956   7.768
  809POPC   C1B14635  44.914   8.648   8.777
  809POPC   C2B14636  44.742   8.685   8.399
  809POPC   C3B14637  44.715   8.525   8.005
  809POPC   C4B14638  44.336   8.446   7.796
  810POPC   NC314639  36.745  41.808   9.637
  810POPC   PO414640  37.309  41.532   9.448
  810POPC   GL114641  36.975  41.525   9.053
  810POPC   GL214642  36.619  41.711   8.987
  810POPC   C1A14643  36.967  41.567   8.604
  810POPC   D2A14644  36.983  41.301   8.257
  810POPC   C3A14645  36.873  41.500   7.868
  810POPC   C4A14646  36.841  41.497   7.424
  810POPC   C1B14647  36.546  41.332   8.771
  810POPC   C2B14648  36.499  41.110   8.394
  810POPC   C3B14649  36.616  41.049   7.985
  810POPC   C4B14650  36.479  41.177   7.594
  811POPC   NC314651   5.386  37.262   9.335
  811POPC   PO414652   6.020  37.002   9.540
  811POPC   GL114653   5.827  37.019   9.145
  811POPC   GL214654   6.158  36.841   9.078
  811POPC   C1A14655   5.716  37.155   8.723
  811POPC   D2A14656   6.097  37.227   8.437
  811POPC   C3A14657   6.122  37.090   8.007
  811POPC   C4A14658   5.745  37.106   7.779
  811POPC   C1B14659   6.038  36.776   8.687
  811POPC   C2B14660   5.785  36.832   8.301
  811POPC   C3B14661   5.823  36.617   7.895
  811POPC   C4B14662   5.690  36.730   7.466
  812POPC   NC314663   5.944  24.332   9.442
  812POPC   PO414664   5.574  24.980   9.520
  812POPC   GL114665   5.836  24.779   9.183
  812POPC   GL214666   5.585  24.535   9.141
  812POPC   C1A14667   5.949  24.619   8.774
  812POPC   D2A14668   6.161  24.586   8.398
  812POPC   C3A14669   5.899  24.680   8.042
  812POPC   C4A14670   5.835  24.350   7.778
  812POPC   C1B14671   5.459  24.801   8.812
  812POPC   C2B14672   5.547  24.888   8.390
  812POPC   C3B14673   5.326  24.794   8.037
  812POPC   C4B14674   5.399  24.598   7.661
  813POPC   NC314675  44.175   0.771   9.456
  813POPC   PO414676  43.726   1.318   9.425
  813POPC   GL114677  43.807   1.014   9.148
  813POPC   GL214678  44.145   1.112   9.052
  813POPC   C1A14679  43.748   0.983   8.730
  813POPC   D2A14680  44.039   1.079   8.421
  813POPC   C3A14681  43.768   0.986   8.116
  813POPC   C4A14682  43.645   1.077   7.759
  813POPC   C1B14683  43.942   1.465   8.802
  813POPC   C2B14684  44.073   1.598   8.387
  813POPC   C3B14685  43.967   1.474   7.975
  813POPC   C4B14686  44.168   1.115   7.808
  814POPC   NC314687  20.214  36.493   9.333
  814POPC   PO414688  20.580  35.950   9.546
  814POPC   GL114689  20.742  36.090   9.154
  814POPC   GL214690  21.052  36.323   9.141
  814POPC   C1A14691  20.630  35.911   8.749
  814POPC   D2A14692  20.474  35.903   8.313
  814POPC   C3A14693  20.649  36.068   7.923
  814POPC   C4A14694  20.802  35.828   7.504
  814POPC   C1B14695  21.115  36.046   8.793
  814POPC   C2B14696  21.045  35.769   8.454
  814POPC   C3B14697  21.102  36.065   8.147
  814POPC   C4B14698  21.062  36.275   7.744
  815POPC   NC314699  35.629  18.304   9.451
  815POPC   PO414700  35.081  18.098   9.764
  815POPC   GL114701  35.162  18.324   9.277
  815POPC   GL214702  35.331  18.640   9.179
  815POPC   C1A14703  35.057  18.263   8.819
  815POPC   D2A14704  35.031  18.377   8.360
  815POPC   C3A14705  35.338  18.143   8.140
  815POPC   C4A14706  35.433  18.043   7.734
  815POPC   C1B14707  35.498  18.537   8.780
  815POPC   C2B14708  35.585  18.566   8.332
  815POPC   C3B14709  35.340  18.601   7.938
  815POPC   C4B14710  35.453  18.499   7.504
  816POPC   NC314711  38.328   4.892   9.535
  816POPC   PO414712  38.132   5.486   9.392
  816POPC   GL114713  38.350   5.204   9.074
  816POPC   GL214714  38.215   4.880   9.028
  816POPC   C1A14715  38.682   4.976   8.798
  816POPC   D2A14716  38.672   4.847   8.342
  816POPC   C3A14717  38.437   5.114   8.058
  816POPC   C4A14718  38.556   5.143   7.625
  816POPC   C1B14719  38.229   4.991   8.589
  816POPC   C2B14720  38.069   4.753   8.228
  816POPC   C3B14721  37.969   5.017   7.908
  816POPC   C4B14722  38.087   5.437   7.839
  817POPC   NC314723  25.746  38.871   9.456
  817POPC   PO414724  26.032  39.453   9.445
  817POPC   GL114725  25.892  39.259   9.126
  817POPC   GL214726  25.678  39.479   8.981
  817POPC   C1A14727  26.068  39.258   8.719
  817POPC   D2A14728  25.812  39.334   8.347
  817POPC   C3A14729  26.052  39.423   7.989
  817POPC   C4A14730  25.935  39.462   7.598
  817POPC   C1B14731  25.608  39.045   8.743
  817POPC   C2B14732  25.506  38.920   8.301
  817POPC   C3B14733  25.651  39.030   7.886
  817POPC   C4B14734  25.768  38.947   7.425
  818POPC   NC314735   8.430  26.835   9.501
  818POPC   PO414736   7.883  27.184   9.669
  818POPC   GL114737   7.961  27.000   9.255
  818POPC   GL214738   8.255  27.122   9.119
  818POPC   C1A14739   7.904  26.835   8.829
  818POPC   D2A14740   7.989  26.974   8.398
  818POPC   C3A14741   8.009  26.675   8.089
  818POPC   C4A14742   7.859  26.609   7.694
  818POPC   C1B14743   8.409  26.869   8.807
  818POPC   C2B14744   8.501  26.827   8.398
  818POPC   C3B14745   8.427  26.958   8.006
  818POPC   C4B14746   8.391  26.634   7.707
  819POPC   NC314747  40.520  39.902   9.674
  819POPC   PO414748  40.840  40.497   9.353
  819POPC   GL114749  40.716  40.164   9.108
  819POPC   GL214750  40.730  39.831   9.221
  819POPC   C1A14751  40.780  40.056   8.686
  819POPC   D2A14752  40.889  39.816   8.304
  819POPC   C3A14753  40.883  40.019   7.895
  819POPC   C4A14754  40.510  40.283   7.814
  819POPC   C1B14755  40.421  39.762   8.934
  819POPC   C2B14756  40.405  39.759   8.502
  819POPC   C3B14757  40.477  39.581   8.089
  819POPC   C4B14758  40.491  39.773   7.687
  820POPC   NC314759   5.993  33.864   9.514
  820POPC   PO414760   6.224  33.149   9.613
  820POPC   GL114761   6.151  33.453   9.227
  820POPC   GL214762   5.799  33.580   9.113
  820POPC   C1A14763   6.172  33.711   8.816
  820POPC   D2A14764   6.015  33.721   8.379
  820POPC   C3A14765   6.200  33.464   8.096
  820POPC   C4A14766   6.187  33.598   7.686
  820POPC   C1B14767   5.690  33.873   8.739
  820POPC   C2B14768   5.610  34.027   8.289
  820POPC   C3B14769   5.495  33.948   7.846
  820POPC   C4B14770   5.541  34.205   7.471
  821POPC   NC314771  11.348  35.751   9.441
  821POPC   PO414772  11.408  36.364   9.492
  821POPC   GL114773  11.197  36.197   9.170
  821POPC   GL214774  10.929  35.947   9.184
  821POPC   C1A14775  11.067  36.307   8.777
  821POPC   D2A14776  10.948  36.172   8.390
  821POPC   C3A14777  11.170  36.326   8.034
  821POPC   C4A14778  11.426  36.158   7.726
  821POPC   C1B14779  11.033  35.753   8.777
  821POPC   C2B14780  10.754  35.698   8.416
  821POPC   C3B14781  10.843  35.829   8.019
  821POPC   C4B14782  11.129  35.739   7.700
  822POPC   NC314783  43.737  43.271   9.542
  822POPC   PO414784  44.147  42.762   9.694
  822POPC   GL114785  43.911  42.939   9.211
  822POPC   GL214786  43.586  42.813   9.007
  822POPC   C1A14787  43.964  43.209   8.785
  822POPC   D2A14788  44.104  43.198   8.329
  822POPC   C3A14789  43.968  43.318   7.949
  822POPC   C4A14790  44.005  43.156   7.533
  822POPC   C1B14791  43.462  43.170   8.717
  822POPC   C2B14792  43.597  43.397   8.343
  822POPC   C3B14793  43.475  43.359   7.908
  822POPC   C4B14794  43.551  43.016   7.676
  823POPC   NC314795  30.257  32.821   9.506
  823POPC   PO414796  29.818  33.286   9.530
  823POPC   GL114797  29.904  33.029   9.198
  823POPC   GL214798  30.187  33.202   9.122
  823POPC   C1A14799  29.665  32.876   8.854
  823POPC   D2A14800  29.687  33.038   8.468
  823POPC   C3A14801  29.756  32.768   8.144
  823POPC   C4A14802  29.837  32.975   7.777
  823POPC   C1B14803  30.170  33.006   8.739
  823POPC   C2B14804  30.197  33.037   8.307
  823POPC   C3B14805  30.338  32.975   7.886
  823POPC   C4B14806  30.242  32.892   7.476
  824POPC   NC314807  21.733  19.483   9.529
  824POPC   PO414808  21.114  19.164   9.528
  824POPC   GL114809  21.253  18.957   9.166
  824POPC   GL214810  21.609  18.956   9.107
  824POPC   C1A14811  21.237  19.111   8.760
  824POPC   D2A14812  21.136  18.854   8.397
  824POPC   C3A14813  21.266  19.042   8.024
  824POPC   C4A14814  21.432  19.195   7.613
  824POPC   C1B14815  21.496  18.672   8.734
  824POPC   C2B14816  21.668  18.625   8.271
  824POPC   C3B14817  21.584  18.695   7.806
  824POPC   C4B14818  21.618  18.790   7.348
  825POPC   NC314819  27.853   4.819   9.440
  825POPC   PO414820  27.470   5.401   9.621
  825POPC   GL114821  27.413   5.255   9.186
  825POPC   GL214822  27.760   5.190   9.141
  825POPC   C1A14823  27.512   5.164   8.723
  825POPC   D2A14824  27.507   4.803   8.465
  825POPC   C3A14825  27.604   4.975   8.064
  825POPC   C4A14826  27.809   4.880   7.685
  825POPC   C1B14827  28.006   5.289   8.742
  825POPC   C2B14828  27.998   5.336   8.283
  825POPC   C3B14829  28.047   5.382   7.816
  825POPC   C4B14830  27.885   5.310   7.391
  826POPC   NC314831  24.176  20.981   9.332
  826POPC   PO414832  24.439  20.537   9.759
  826POPC   GL114833  24.680  20.498   9.330
  826POPC   GL214834  24.383  20.510   9.165
  826POPC   C1A14835  24.756  20.535   8.837
  826POPC   D2A14836  24.700  20.734   8.410
  826POPC   C3A14837  24.776  20.545   8.009
  826POPC   C4A14838  24.636  20.510   7.614
  826POPC   C1B14839  24.232  20.527   8.726
  826POPC   C2B14840  24.363  20.375   8.313
  826POPC   C3B14841  24.178  20.380   7.918
  826POPC   C4B14842  24.018  20.707   7.645
  827POPC   NC314843  34.300   3.770   9.492
  827POPC   PO414844  34.706   3.261   9.541
  827POPC   GL114845  34.628   3.535   9.172
  827POPC   GL214846  34.858   3.776   9.289
  827POPC   C1A14847  34.572   3.746   8.767
  827POPC   D2A14848  34.506   3.517   8.394
  827POPC   C3A14849  34.417   3.702   7.988
  827POPC   C4A14850  34.455   3.416   7.637
  827POPC   C1B14851  35.066   3.765   8.866
  827POPC   C2B14852  34.966   3.728   8.400
  827POPC   C3B14853  34.895   3.535   7.977
  827POPC   C4B14854  34.830   3.750   7.580
  828POPC   NC314855   8.591  12.761   9.480
  828POPC   PO414856   9.217  12.617   9.601
  828POPC   GL114857   9.077  12.776   9.216
  828POPC   GL214858   8.808  12.536   9.084
  828POPC   C1A14859   9.162  13.025   8.843
  828POPC   D2A14860   9.067  13.164   8.405
  828POPC   C3A14861   9.251  12.964   8.062
  828POPC   C4A14862   9.140  13.035   7.656
  828POPC   C1B14863   8.744  12.729   8.687
  828POPC   C2B14864   8.885  12.642   8.265
  828POPC   C3B14865   8.955  12.594   7.818
  828POPC   C4B14866   9.224  12.534   7.453
  829POPC   NC314867  41.595  35.703   9.562
  829POPC   PO414868  42.073  35.278   9.495
  829POPC   GL114869  41.789  35.309   9.134
  829POPC   GL214870  41.622  34.983   9.051
  829POPC   C1A14871  41.597  35.501   8.733
  829POPC   D2A14872  41.714  35.786   8.350
  829POPC   C3A14873  41.718  35.582   7.943
  829POPC   C4A14874  41.385  35.346   7.725
  829POPC   C1B14875  41.933  35.049   8.709
  829POPC   C2B14876  41.811  35.253   8.343
  829POPC   C3B14877  41.381  35.315   8.226
  829POPC   C4B14878  41.108  34.991   7.981
  830POPC   NC314879   5.741   1.960   9.323
  830POPC   PO414880   6.343   2.306   9.358
  830POPC   GL114881   6.032   2.247   9.020
  830POPC   GL214882   5.962   1.894   8.886
  830POPC   C1A14883   5.883   2.260   8.575
  830POPC   D2A14884   5.658   2.061   8.277
  830POPC   C3A14885   5.887   2.156   7.967
  830POPC   C4A14886   6.057   2.388   7.666
  830POPC   C1B14887   5.918   1.498   8.671
  830POPC   C2B14888   5.827   1.546   8.262
  830POPC   C3B14889   6.040   1.667   7.930
  830POPC   C4B14890   6.263   1.929   7.653
  831POPC   NC314891  32.021  36.561   9.446
  831POPC   PO414892  31.550  36.006   9.425
  831POPC   GL114893  31.441  36.084   9.046
  831POPC   GL214894  31.496  36.435   9.062
  831POPC   C1A14895  31.563  36.193   8.637
  831POPC   D2A14896  31.391  36.261   8.247
  831POPC   C3A14897  31.607  36.343   7.908
  831POPC   C4A14898  31.544  36.021   7.629
  831POPC   C1B14899  31.106  36.376   8.770
  831POPC   C2B14900  30.950  36.490   8.333
  831POPC   C3B14901  31.102  36.505   7.889
  831POPC   C4B14902  31.339  36.470   7.467
  832POPC   NC314903  17.113  10.822   9.385
  832POPC   PO414904  16.859  10.250   9.472
  832POPC   GL114905  16.868  10.430   9.114
  832POPC   GL214906  16.554  10.609   9.127
  832POPC   C1A14907  16.868  10.639   8.742
  832POPC   D2A14908  16.556  10.665   8.440
  832POPC   C3A14909  16.723  10.534   8.068
  832POPC   C4A14910  17.008  10.505   7.767
  832POPC   C1B14911  16.432  10.318   8.782
  832POPC   C2B14912  16.372  10.176   8.365
  832POPC   C3B14913  16.234  10.440   8.018
  832POPC   C4B14914  16.163  10.359   7.630
  833POPC   NC314915  35.228   9.546   9.560
  833POPC   PO414916  35.223   8.916   9.793
  833POPC   GL114917  35.207   8.799   9.303
  833POPC   GL214918  35.066   9.061   9.143
  833POPC   C1A14919  35.376   8.749   8.853
  833POPC   D2A14920  35.175   8.629   8.439
  833POPC   C3A14921  35.206   8.807   8.008
  833POPC   C4A14922  35.649   8.882   7.855
  833POPC   C1B14923  35.154   9.185   8.712
  833POPC   C2B14924  35.401   9.103   8.362
  833POPC   C3B14925  35.366   9.309   7.981
  833POPC   C4B14926  35.467   9.603   7.663
  834POPC   NC314927  37.219  39.314   9.507
  834POPC   PO414928  36.723  38.847   9.376
  834POPC   GL114929  36.766  39.197   9.102
  834POPC   GL214930  37.071  39.436   9.057
  834POPC   C1A14931  36.615  38.995   8.714
  834POPC   D2A14932  36.790  38.793   8.313
  834POPC   C3A14933  36.771  39.020   7.902
  834POPC   C4A14934  37.083  38.966   7.560
  834POPC   C1B14935  37.081  39.199   8.703
  834POPC   C2B14936  36.823  39.304   8.358
  834POPC   C3B14937  36.842  39.509   8.001
  834POPC   C4B14938  37.040  39.459   7.660
  835POPC   NC314939   9.624  18.152   9.419
  835POPC   PO414940  10.069  18.648   9.278
  835POPC   GL114941   9.767  18.581   9.042
  835POPC   GL214942   9.760  18.243   8.944
  835POPC   C1A14943   9.803  18.621   8.618
  835POPC   D2A14944   9.568  18.359   8.346
  835POPC   C3A14945   9.747  18.306   7.950
  835POPC   C4A14946  10.139  18.503   7.765
  835POPC   C1B14947   9.494  17.926   8.788
  835POPC   C2B14948   9.370  17.822   8.412
  835POPC   C3B14949   9.288  17.896   8.011
  835POPC   C4B14950   9.415  18.005   7.633
  836POPC   NC314951   2.495   4.386   9.542
  836POPC   PO414952   3.106   4.133   9.537
  836POPC   GL114953   3.057   4.325   9.154
  836POPC   GL214954   2.829   4.581   9.183
  836POPC   C1A14955   2.864   4.183   8.796
  836POPC   D2A14956   2.613   3.950   8.542
  836POPC   C3A14957   2.705   4.061   8.132
  836POPC   C4A14958   2.724   4.155   7.731
  836POPC   C1B14959   2.734   4.713   8.786
  836POPC   C2B14960   2.700   4.532   8.385
  836POPC   C3B14961   2.458   4.548   8.036
  836POPC   C4B14962   2.611   4.640   7.668
  837POPC   NC314963  32.116  31.263   9.467
  837POPC   PO414964  32.700  31.646   9.530
  837POPC   GL114965  32.489  31.486   9.196
  837POPC   GL214966  32.172  31.552   9.065
  837POPC   C1A14967  32.536  31.282   8.806
  837POPC   D2A14968  32.353  31.415   8.455
  837POPC   C3A14969  32.638  31.402   8.126
  837POPC   C4A14970  32.374  31.323   7.779
  837POPC   C1B14971  31.995  31.791   8.769
  837POPC   C2B14972  31.989  31.887   8.354
  837POPC   C3B14973  31.930  31.605   8.015
  837POPC   C4B14974  31.719  31.809   7.709
  838POPC   NC314975  16.569  23.668   9.476
  838POPC   PO414976  17.187  23.479   9.299
  838POPC   GL114977  16.749  23.397   9.045
  838POPC   GL214978  16.360  23.527   9.052
  838POPC   C1A14979  16.687  23.419   8.572
  838POPC   D2A14980  16.753  23.669   8.201
  838POPC   C3A14981  16.845  23.693   7.759
  838POPC   C4A14982  16.925  24.047   7.488
  838POPC   C1B14983  16.316  23.774   8.683
  838POPC   C2B14984  16.254  23.615   8.278
  838POPC   C3B14985  16.352  23.545   7.873
  838POPC   C4B14986  16.494  23.446   7.485
  839POPC   NC314987  19.445  11.399   9.561
  839POPC   PO414988  18.817  11.574   9.604
  839POPC   GL114989  18.822  11.515   9.181
  839POPC   GL214990  18.989  11.253   9.154
  839POPC   C1A14991  19.042  11.637   8.807
  839POPC   D2A14992  18.977  11.470   8.409
  839POPC   C3A14993  19.045  11.626   8.048
  839POPC   C4A14994  18.856  11.590   7.672
  839POPC   C1B14995  18.864  11.128   8.742
  839POPC   C2B14996  19.101  11.003   8.310
  839POPC   C3B14997  19.042  11.153   7.874
  839POPC   C4B14998  18.928  11.166   7.401
  840POPC   NC314999  44.579   3.096   9.687
  840POPC   PO415000  44.481   3.679   9.624
  840POPC   GL115001  44.626   3.590   9.187
  840POPC   GL215002  44.857   3.322   9.109
  840POPC   C1A15003  44.402   3.638   8.760
  840POPC   D2A15004  44.334   3.436   8.330
  840POPC   C3A15005  44.514   3.539   7.917
  840POPC   C4A15006  44.943   3.487   7.776
  840POPC   C1B15007  44.730   3.247   8.644
  840POPC   C2B15008  44.783   3.181   8.158
  840POPC   C3B15009  44.754   3.051   7.681
  840POPC   C4B15010   0.010   3.183   7.327
  841POPC   NC315011  30.358  28.700   9.460
  841POPC   PO415012  30.842  28.184   9.512
  841POPC   GL115013  30.952  28.241   9.111
  841POPC   GL215014  30.641  28.450   9.091
  841POPC   C1A15015  31.011  28.425   8.718
  841POPC   D2A15016  30.796  28.396   8.321
  841POPC   C3A15017  31.004  28.369   7.938
  841POPC   C4A15018  30.953  28.532   7.524
  841POPC   C1B15019  30.511  28.214   8.726
  841POPC   C2B15020  30.276  28.334   8.338
  841POPC   C3B15021  30.383  28.323   7.896
  841POPC   C4B15022  30.670  27.981   7.798
  842POPC   NC315023  36.877  12.502   9.558
  842POPC   PO415024  37.014  13.179   9.531
  842POPC   GL115025  37.024  13.009   9.108
  842POPC   GL215026  37.089  12.662   9.133
  842POPC   C1A15027  37.069  13.146   8.695
  842POPC   D2A15028  36.993  13.293   8.288
  842POPC   C3A15029  36.871  12.974   8.009
  842POPC   C4A15030  37.262  12.890   7.820
  842POPC   C1B15031  37.271  12.683   8.761
  842POPC   C2B15032  37.068  12.707   8.391
  842POPC   C3B15033  37.068  12.471   8.025
  842POPC   C4B15034  36.724  12.415   7.749
  843POPC   NC315035  37.975   2.660   9.424
  843POPC   PO415036  37.400   2.995   9.493
  843POPC   GL115037  37.623   2.892   9.137
  843POPC   GL215038  37.542   2.540   9.147
  843POPC   C1A15039  37.806   2.952   8.750
  843POPC   D2A15040  37.867   2.740   8.371
  843POPC   C3A15041  37.602   2.625   8.056
  843POPC   C4A15042  37.753   2.836   7.681
  843POPC   C1B15043  37.779   2.428   8.778
  843POPC   C2B15044  37.953   2.245   8.409
  843POPC   C3B15045  38.073   2.421   7.989
  843POPC   C4B15046  37.871   2.362   7.571
  844POPC   NC315047  25.882  23.968   9.350
  844POPC   PO415048  26.190  23.457   9.218
  844POPC   GL115049  25.985  23.691   8.937
  844POPC   GL215050  25.653  23.686   9.019
  844POPC   C1A15051  26.127  23.926   8.615
  844POPC   D2A15052  26.054  23.663   8.311
  844POPC   C3A15053  26.291  23.700   7.989
  844POPC   C4A15054  26.113  23.479   7.687
  844POPC   C1B15055  25.659  24.083   8.741
  844POPC   C2B15056  25.762  24.104   8.287
  844POPC   C3B15057  25.831  23.864   7.894
  844POPC   C4B15058  25.846  24.035   7.488
  845POPC   NC315059  23.667   4.077   9.334
  845POPC   PO415060  23.794   3.523   9.677
  845POPC   GL115061  23.723   3.564   9.228
  845POPC   GL215062  24.004   3.735   9.119
  845POPC   C1A15063  23.587   3.527   8.765
  845POPC   D2A15064  23.351   3.502   8.354
  845POPC   C3A15065  23.563   3.461   7.958
  845POPC   C4A15066  23.342   3.348   7.603
  845POPC   C1B15067  23.961   3.890   8.709
  845POPC   C2B15068  23.857   3.708   8.314
  845POPC   C3B15069  23.945   3.849   7.896
  845POPC   C4B15070  23.847   3.951   7.467
  846POPC   NC315071   4.866  11.338   9.664
  846POPC   PO415072   5.489  11.055   9.708
  846POPC   GL115073   5.285  11.049   9.305
  846POPC   GL215074   5.319  11.407   9.258
  846POPC   C1A15075   5.142  11.150   8.860
  846POPC   D2A15076   5.288  11.077   8.429
  846POPC   C3A15077   5.181  11.318   8.039
  846POPC   C4A15078   5.103  11.172   7.633
  846POPC   C1B15079   5.419  11.604   8.829
  846POPC   C2B15080   5.519  11.549   8.359
  846POPC   C3B15081   5.484  11.701   7.916
  846POPC   C4B15082   5.155  11.693   7.601
  847POPC   NC315083   3.273   6.956   9.376
  847POPC   PO415084   3.181   6.299   9.641
  847POPC   GL115085   3.455   6.375   9.202
  847POPC   GL215086   3.587   6.703   9.071
  847POPC   C1A15087   3.325   6.445   8.711
  847POPC   D2A15088   3.533   6.518   8.361
  847POPC   C3A15089   3.255   6.602   8.074
  847POPC   C4A15090   3.369   6.402   7.705
  847POPC   C1B15091   3.456   6.924   8.678
  847POPC   C2B15092   3.637   7.010   8.266
  847POPC   C3B15093   3.578   6.911   7.825
  847POPC   C4B15094   3.635   7.146   7.422
  848POPC   NC315095  40.990  26.510   9.519
  848POPC   PO415096  40.446  26.929   9.580
  848POPC   GL115097  40.597  26.684   9.201
  848POPC   GL215098  40.837  26.880   9.199
  848POPC   C1A15099  40.879  26.568   8.812
  848POPC   D2A15100  41.105  26.729   8.437
  848POPC   C3A15101  40.937  26.799   8.032
  848POPC   C4A15102  41.044  26.944   7.640
  848POPC   C1B15103  40.796  27.083   8.774
  848POPC   C2B15104  40.703  27.209   8.325
  848POPC   C3B15105  40.666  27.245   7.848
  848POPC   C4B15106  40.661  27.506   7.464
  849POPC   NC315107  42.708  28.622   9.534
  849POPC   PO415108  43.348  28.284   9.712
  849POPC   GL115109  43.280  28.205   9.238
  849POPC   GL215110  42.944  28.339   9.174
  849POPC   C1A15111  43.187  28.175   8.769
  849POPC   D2A15112  43.116  28.020   8.357
  849POPC   C3A15113  42.858  28.203   8.038
  849POPC   C4A15114  43.093  28.458   7.759
  849POPC   C1B15115  42.692  28.547   8.834
  849POPC   C2B15116  42.695  28.762   8.418
  849POPC   C3B15117  42.655  28.669   7.971
  849POPC   C4B15118  42.661  28.519   7.514
  850POPC   NC315119  42.461  29.411   9.524
  850POPC   PO415120  42.203  28.790   9.611
  850POPC   GL115121  42.338  28.970   9.248
  850POPC   GL215122  42.122  29.226   9.169
  850POPC   C1A15123  42.517  29.044   8.838
  850POPC   D2A15124  42.503  29.245   8.437
  850POPC   C3A15125  42.346  29.103   8.040
  850POPC   C4A15126  42.568  29.056   7.659
  850POPC   C1B15127  42.120  29.392   8.778
  850POPC   C2B15128  42.003  29.382   8.349
  850POPC   C3B15129  42.079  29.557   7.934
  850POPC   C4B15130  42.421  29.544   7.690
  851POPC   NC315131  20.239   2.975   9.518
  851POPC   PO415132  20.644   2.465   9.455
  851POPC   GL115133  20.645   2.757   9.086
  851POPC   GL215134  20.707   3.114   9.124
  851POPC   C1A15135  20.348   2.886   8.732
  851POPC   D2A15136  20.110   2.712   8.360
  851POPC   C3A15137  20.416   2.499   8.108
  851POPC   C4A15138  20.703   2.644   7.789
  851POPC   C1B15139  20.572   3.343   8.745
  851POPC   C2B15140  20.349   3.292   8.337
  851POPC   C3B15141  20.351   2.998   7.978
  851POPC   C4B15142  20.445   3.018   7.535
  852POPC   NC315143  16.512   2.613   9.390
  852POPC   PO415144  17.005   3.010   9.206
  852POPC   GL115145  16.821   2.677   8.994
  852POPC   GL215146  17.062   2.400   8.898
  852POPC   C1A15147  16.561   2.885   8.680
  852POPC   D2A15148  16.720   3.033   8.279
  852POPC   C3A15149  16.621   2.723   7.998
  852POPC   C4A15150  16.317   2.806   7.770
  852POPC   C1B15151  17.088   2.693   8.567
  852POPC   C2B15152  17.226   2.898   8.218
  852POPC   C3B15153  17.060   2.884   7.802
  852POPC   C4B15154  17.094   2.737   7.363
  853POPC   NC315155  15.551   3.567   9.558
  853POPC   PO415156  14.933   3.790   9.624
  853POPC   GL115157  15.128   3.677   9.254
  853POPC   GL215158  15.343   3.955   9.236
  853POPC   C1A15159  15.045   3.409   8.891
  853POPC   D2A15160  15.015   3.189   8.492
  853POPC   C3A15161  15.052   3.472   8.190
  853POPC   C4A15162  15.131   3.483   7.775
  853POPC   C1B15163  15.244   3.878   8.800
  853POPC   C2B15164  15.417   3.786   8.405
  853POPC   C3B15165  15.302   3.910   8.024
  853POPC   C4B15166  15.415   3.897   7.617
  854POPC   NC315167  13.882   3.219   9.338
  854POPC   PO415168  13.612   3.830   9.441
  854POPC   GL115169  13.660   3.608   9.066
  854POPC   GL215170  13.490   3.257   9.016
  854POPC   C1A15171  13.427   3.644   8.686
  854POPC   D2A15172  13.467   3.405   8.319
  854POPC   C3A15173  13.383   3.603   7.921
  854POPC   C4A15174  13.397   3.335   7.566
  854POPC   C1B15175  13.836   3.334   8.680
  854POPC   C2B15176  14.037   3.374   8.286
  854POPC   C3B15177  13.801   3.293   7.922
  854POPC   C4B15178  13.869   3.503   7.575
  855POPC   NC315179  10.636  35.057   9.547
  855POPC   PO415180  10.156  35.542   9.737
  855POPC   GL115181  10.361  35.288   9.225
  855POPC   GL215182  10.607  35.504   9.025
  855POPC   C1A15183  10.238  35.232   8.761
  855POPC   D2A15184  10.427  35.292   8.354
  855POPC   C3A15185  10.224  35.347   7.982
  855POPC   C4A15186  10.252  35.127   7.602
  855POPC   C1B15187  10.780  35.284   8.722
  855POPC   C2B15188  10.807  34.945   8.463
  855POPC   C3B15189  10.857  35.109   8.053
  855POPC   C4B15190  10.702  35.405   7.765
  856POPC   NC315191   1.824   8.121   9.538
  856POPC   PO415192   2.492   8.235   9.365
  856POPC   GL115193   2.154   8.072   9.111
  856POPC   GL215194   1.885   8.305   9.064
  856POPC   C1A15195   2.132   8.088   8.669
  856POPC   D2A15196   2.238   8.406   8.389
  856POPC   C3A15197   2.332   8.279   7.968
  856POPC   C4A15198   2.214   7.931   7.704
  856POPC   C1B15199   1.767   8.444   8.642
  856POPC   C2B15200   1.484   8.551   8.326
  856POPC   C3B15201   1.642   8.581   7.928
  856POPC   C4B15202   1.951   8.423   7.647
  857POPC   NC315203   6.875  35.009   9.473
  857POPC   PO415204   6.792  35.665   9.524
  857POPC   GL115205   6.738  35.400   9.173
  857POPC   GL215206   7.074  35.402   9.127
  857POPC   C1A15207   6.746  35.503   8.718
  857POPC   D2A15208   6.796  35.620   8.269
  857POPC   C3A15209   6.493  35.444   7.914
  857POPC   C4A15210   6.374  35.123   7.556
  857POPC   C1B15211   7.090  35.116   8.784
  857POPC   C2B15212   6.835  35.104   8.381
  857POPC   C3B15213   6.925  35.176   7.938
  857POPC   C4B15214   6.806  34.849   7.651
  858POPC   NC315215  21.993  37.685   9.369
  858POPC   PO415216  22.463  37.266   9.512
  858POPC   GL115217  22.184  37.251   9.126
  858POPC   GL215218  21.875  37.423   8.978
  858POPC   C1A15219  22.307  37.393   8.700
  858POPC   D2A15220  22.230  37.799   8.509
  858POPC   C3A15221  22.181  37.807   8.067
  858POPC   C4A15222  22.449  37.479   7.915
  858POPC   C1B15223  21.800  37.855   8.798
  858POPC   C2B15224  21.754  37.980   8.407
  858POPC   C3B15225  21.708  38.035   8.000
  858POPC   C4B15226  21.804  37.770   7.622
  859POPC   NC315227  11.511   5.676   9.509
  859POPC   PO415228  11.108   6.163   9.524
  859POPC   GL115229  11.209   5.888   9.161
  859POPC   GL215230  11.558   5.916   9.067
  859POPC   C1A15231  11.215   5.777   8.709
  859POPC   D2A15232  11.318   6.015   8.320
  859POPC   C3A15233  11.355   5.794   7.944
  859POPC   C4A15234  11.380   6.152   7.750
  859POPC   C1B15235  11.708   5.952   8.651
  859POPC   C2B15236  11.718   5.664   8.292
  859POPC   C3B15237  11.942   5.617   7.917
  859POPC   C4B15238  11.757   5.851   7.608
  860POPC   NC315239  17.489  36.837   9.735
  860POPC   PO415240  17.571  37.383   9.450
  860POPC   GL115241  17.298  37.197   9.113
  860POPC   GL215242  17.262  36.851   9.226
  860POPC   C1A15243  17.296  37.159   8.634
  860POPC   D2A15244  17.564  37.195   8.233
  860POPC   C3A15245  17.410  37.035   7.820
  860POPC   C4A15246  17.177  37.117   7.434
  860POPC   C1B15247  17.326  36.670   8.790
  860POPC   C2B15248  17.331  36.699   8.321
  860POPC   C3B15249  17.449  36.528   7.900
  860POPC   C4B15250  17.671  36.691   7.518
  861POPC   NC315251  34.352  24.761   9.270
  861POPC   PO415252  34.841  24.398   9.493
  861POPC   GL115253  34.616  24.259   9.159
  861POPC   GL215254  34.877  24.036   9.056
  861POPC   C1A15255  34.435  24.406   8.753
  861POPC   D2A15256  34.134  24.513   8.463
  861POPC   C3A15257  34.371  24.582   8.123
  861POPC   C4A15258  34.402  24.279   7.809
  861POPC   C1B15259  34.959  24.391   8.798
  861POPC   C2B15260  34.811  24.672   8.473
  861POPC   C3B15261  34.863  24.707   8.039
  861POPC   C4B15262  34.590  24.821   7.699
  862POPC   NC315263   8.495  16.733   9.289
  862POPC   PO415264   7.837  16.771   9.464
  862POPC   GL115265   8.001  16.746   9.083
  862POPC   GL215266   8.188  16.460   8.966
  862POPC   C1A15267   8.047  16.982   8.731
  862POPC   D2A15268   8.326  17.217   8.477
  862POPC   C3A15269   8.136  17.126   8.102
  862POPC   C4A15270   8.067  16.841   7.727
  862POPC   C1B15271   8.443  16.651   8.606
  862POPC   C2B15272   8.333  16.673   8.160
  862POPC   C3B15273   8.486  16.569   7.755
  862POPC   C4B15274   8.380  16.653   7.329
  863POPC   NC315275  30.086  19.030   9.612
  863POPC   PO415276  29.689  19.586   9.542
  863POPC   GL115277  29.804  19.221   9.204
  863POPC   GL215278  30.081  18.958   9.116
  863POPC   C1A15279  29.941  19.270   8.754
  863POPC   D2A15280  29.994  19.085   8.352
  863POPC   C3A15281  29.898  19.269   7.956
  863POPC   C4A15282  30.018  19.404   7.544
  863POPC   C1B15283  30.221  18.812   8.713
  863POPC   C2B15284  30.160  18.590   8.312
  863POPC   C3B15285  29.995  18.747   7.965
  863POPC   C4B15286  30.269  18.974   7.710
  864POPC   NC315287  27.437   0.912   9.454
  864POPC   PO415288  27.703   0.280   9.373
  864POPC   GL115289  27.781   0.590   9.046
  864POPC   GL215290  27.448   0.648   9.021
  864POPC   C1A15291  27.697   0.686   8.591
  864POPC   D2A15292  27.447   0.668   8.205
  864POPC   C3A15293  27.690   0.563   7.833
  864POPC   C4A15294  27.955   0.545   7.460
  864POPC   C1B15295  27.186   0.630   8.679
  864POPC   C2B15296  27.142   0.290   8.409
  864POPC   C3B15297  27.400   0.144   8.085
  864POPC   C4B15298  27.222   0.295   7.734
  865POPC   NC315299  16.194  11.174   9.724
  865POPC   PO415300  16.142  11.536   9.183
  865POPC   GL115301  15.883  11.240   9.055
  865POPC   GL215302  16.169  11.030   9.133
  865POPC   C1A15303  15.757  11.404   8.661
  865POPC   D2A15304  16.012  11.553   8.362
  865POPC   C3A15305  16.005  11.311   8.009
  865POPC   C4A15306  15.696  11.246   7.723
  865POPC   C1B15307  16.208  11.118   8.683
  865POPC   C2B15308  16.164  10.952   8.328
  865POPC   C3B15309  16.433  10.950   8.016
  865POPC   C4B15310  16.394  11.224   7.688
  866POPC   NC315311   0.646   6.358   9.488
  866POPC   PO415312   0.294   6.877   9.408
  866POPC   GL115313   0.469   6.644   9.076
  866POPC   GL215314   0.723   6.386   8.983
  866POPC   C1A15315   0.371   6.571   8.665
  866POPC   D2A15316   0.473   6.800   8.326
  866POPC   C3A15317   0.473   6.624   7.947
  866POPC   C4A15318   0.435   6.908   7.683
  866POPC   C1B15319   0.856   6.736   8.671
  866POPC   C2B15320   0.972   6.932   8.237
  866POPC   C3B15321   0.935   6.855   7.760
  866POPC   C4B15322   0.731   6.644   7.376
  867POPC   NC315323  10.295  39.508   9.597
  867POPC   PO415324  10.836  39.258   9.700
  867POPC   GL115325  10.628  39.282   9.284
  867POPC   GL215326  10.362  39.041   9.179
  867POPC   C1A15327  10.700  39.225   8.853
  867POPC   D2A15328  10.696  39.038   8.467
  867POPC   C3A15329  10.567  39.274   8.119
  867POPC   C4A15330  10.753  39.150   7.731
  867POPC   C1B15331  10.390  38.795   8.812
  867POPC   C2B15332  10.246  38.829   8.365
  867POPC   C3B15333  10.402  38.818   7.937
  867POPC   C4B15334  10.239  39.198   7.716
  868POPC   NC315335  31.440  16.446  10.066
  868POPC   PO415336  31.626  16.874   9.611
  868POPC   GL115337  31.543  16.623   9.273
  868POPC   GL215338  31.872  16.452   9.246
  868POPC   C1A15339  31.308  16.742   8.884
  868POPC   D2A15340  31.449  17.030   8.563
  868POPC   C3A15341  31.363  16.924   8.127
  868POPC   C4A15342  31.406  16.683   7.761
  868POPC   C1B15343  31.766  16.563   8.811
  868POPC   C2B15344  31.901  16.490   8.411
  868POPC   C3B15345  31.830  16.646   8.019
  868POPC   C4B15346  31.888  16.597   7.607
  869POPC   NC315347  39.047  13.132   9.591
  869POPC   PO415348  39.638  12.749   9.410
  869POPC   GL115349  39.302  12.777   9.121
  869POPC   GL215350  39.059  13.040   9.091
  869POPC   C1A15351  39.077  12.673   8.744
  869POPC   D2A15352  39.034  12.868   8.335
  869POPC   C3A15353  39.097  12.653   7.938
  869POPC   C4A15354  39.003  12.818   7.512
  869POPC   C1B15355  39.310  13.150   8.710
  869POPC   C2B15356  39.305  13.288   8.286
  869POPC   C3B15357  39.191  13.155   7.886
  869POPC   C4B15358  39.318  13.247   7.469
  870POPC   NC315359  19.990  11.268   9.441
  870POPC   PO415360  19.496  11.780   9.300
  870POPC   GL115361  19.681  11.457   9.082
  870POPC   GL215362  19.485  11.179   9.081
  870POPC   C1A15363  19.881  11.307   8.706
  870POPC   D2A15364  20.121  11.185   8.351
  870POPC   C3A15365  20.015  11.326   7.939
  870POPC   C4A15366  19.829  11.472   7.553
  870POPC   C1B15367  19.363  11.260   8.694
  870POPC   C2B15368  19.469  11.557   8.383
  870POPC   C3B15369  19.504  11.442   7.955
  870POPC   C4B15370  19.508  11.086   7.703
  871POPC   NC315371  18.599  44.149   9.440
  871POPC   PO415372  18.344  43.550   9.497
  871POPC   GL115373  18.217  43.756   9.116
  871POPC   GL215374  18.036  44.056   9.245
  871POPC   C1A15375  18.321  43.744   8.672
  871POPC   D2A15376  18.449  44.054   8.384
  871POPC   C3A15377  18.331  43.965   7.976
  871POPC   C4A15378  18.133  43.793   7.641
  871POPC   C1B15379  18.044  44.152   8.789
  871POPC   C2B15380  17.949  43.965   8.368
  871POPC   C3B15381  17.846  44.157   7.987
  871POPC   C4B15382  18.084  44.408   7.737
  872POPC   NC315383  38.281   8.708   9.672
  872POPC   PO415384  38.480   9.268   9.808
  872POPC   GL115385  38.575   9.070   9.321
  872POPC   GL215386  38.869   8.851   9.294
  872POPC   C1A15387  38.382   9.120   8.854
  872POPC   D2A15388  38.549   9.096   8.419
  872POPC   C3A15389  38.293   9.054   8.067
  872POPC   C4A15390  38.074   9.092   7.680
  872POPC   C1B15391  38.889   9.054   8.853
  872POPC   C2B15392  39.014   8.903   8.426
  872POPC   C3B15393  38.772   8.739   8.064
  872POPC   C4B15394  38.606   8.900   7.700
  873POPC   NC315395  14.066  18.753   9.490
  873POPC   PO415396  13.390  19.004   9.584
  873POPC   GL115397  13.727  19.037   9.244
  873POPC   GL215398  13.485  19.077   9.001
  873POPC   C1A15399  13.971  19.194   8.881
  873POPC   D2A15400  13.683  19.194   8.504
  873POPC   C3A15401  13.870  19.168   8.102
  873POPC   C4A15402  13.697  19.124   7.693
  873POPC   C1B15403  13.318  18.769   8.730
  873POPC   C2B15404  13.446  18.742   8.316
  873POPC   C3B15405  13.330  18.894   7.947
  873POPC   C4B15406  13.383  18.704   7.582
  874POPC   NC315407  41.844  22.621   9.452
  874POPC   PO415408  41.509  22.093   9.411
  874POPC   GL115409  41.809  22.217   9.133
  874POPC   GL215410  41.646  22.499   8.986
  874POPC   C1A15411  41.915  22.106   8.732
  874POPC   D2A15412  42.001  22.319   8.353
  874POPC   C3A15413  41.896  22.114   7.973
  874POPC   C4A15414  41.612  21.884   7.711
  874POPC   C1B15415  41.290  22.279   8.766
  874POPC   C2B15416  41.112  22.332   8.314
  874POPC   C3B15417  41.411  22.332   7.921
  874POPC   C4B15418  41.408  22.274   7.434
  875POPC   NC315419   0.926  22.837   9.312
  875POPC   PO415420   0.416  23.115   9.596
  875POPC   GL115421   0.429  23.048   9.165
  875POPC   GL215422   0.400  22.696   9.073
  875POPC   C1A15423   0.242  23.118   8.766
  875POPC   D2A15424   0.195  22.769   8.498
  875POPC   C3A15425   0.357  22.821   8.065
  875POPC   C4A15426   0.235  23.191   7.872
  875POPC   C1B15427   0.667  22.841   8.718
  875POPC   C2B15428   0.746  23.050   8.312
  875POPC   C3B15429   0.750  23.085   7.851
  875POPC   C4B15430   0.750  22.971   7.425
  876POPC   NC315431  17.010  29.789  10.054
  876POPC   PO415432  17.518  29.922   9.574
  876POPC   GL115433  17.624  30.054   9.145
  876POPC   GL215434  17.763  29.739   9.060
  876POPC   C1A15435  17.492  29.989   8.674
  876POPC   D2A15436  17.532  30.152   8.234
  876POPC   C3A15437  17.271  30.131   7.830
  876POPC   C4A15438  17.258  30.244   7.354
  876POPC   C1B15439  17.771  29.540   8.666
  876POPC   C2B15440  17.684  29.682   8.256
  876POPC   C3B15441  17.898  29.848   7.886
  876POPC   C4B15442  18.013  29.658   7.465
  877POPC   NC315443  20.562  17.217   9.475
  877POPC   PO415444  21.186  17.458   9.668
  877POPC   GL115445  20.935  17.443   9.224
  877POPC   GL215446  20.856  17.764   9.085
  877POPC   C1A15447  20.563  17.370   8.854
  877POPC   D2A15448  20.287  17.517   8.478
  877POPC   C3A15449  20.459  17.495   8.062
  877POPC   C4A15450  20.696  17.335   7.735
  877POPC   C1B15451  20.535  17.867   8.772
  877POPC   C2B15452  20.582  17.913   8.358
  877POPC   C3B15453  20.288  17.980   8.063
  877POPC   C4B15454  20.131  17.823   7.710
  878POPC   NC315455  42.539  25.687   9.447
  878POPC   PO415456  42.588  26.343   9.438
  878POPC   GL115457  42.456  26.117   9.097
  878POPC   GL215458  42.167  25.907   9.135
  878POPC   C1A15459  42.348  26.265   8.682
  878POPC   D2A15460  42.513  26.076   8.310
  878POPC   C3A15461  42.515  26.210   7.909
  878POPC   C4A15462  42.126  26.031   7.788
  878POPC   C1B15463  42.368  25.772   8.725
  878POPC   C2B15464  42.554  25.570   8.344
  878POPC   C3B15465  42.456  25.591   7.904
  878POPC   C4B15466  42.027  25.530   7.768
  879POPC   NC315467  11.251  14.098   9.452
  879POPC   PO415468  11.602  14.578   9.168
  879POPC   GL115469  11.215  14.417   9.018
  879POPC   GL215470  10.943  14.148   9.056
  879POPC   C1A15471  11.149  14.502   8.601
  879POPC   D2A15472  10.950  14.563   8.210
  879POPC   C3A15473  11.137  14.684   7.828
  879POPC   C4A15474  11.367  14.723   7.431
  879POPC   C1B15475  11.125  13.987   8.709
  879POPC   C2B15476  11.280  14.083   8.323
  879POPC   C3B15477  11.257  14.199   7.903
  879POPC   C4B15478  11.425  14.049   7.517
  880POPC   NC315479  38.851   2.616   9.571
  880POPC   PO415480  39.436   2.817   9.384
  880POPC   GL115481  39.302   2.593   9.065
  880POPC   GL215482  38.990   2.530   9.097
  880POPC   C1A15483  39.305   2.530   8.643
  880POPC   D2A15484  39.194   2.821   8.324
  880POPC   C3A15485  39.263   2.648   7.924
  880POPC   C4A15486  39.563   2.356   7.779
  880POPC   C1B15487  38.829   2.769   8.761
  880POPC   C2B15488  38.664   2.799   8.352
  880POPC   C3B15489  38.795   2.879   7.938
  880POPC   C4B15490  38.930   2.762   7.525
  881POPC   NC315491   4.601   5.555   9.731
  881POPC   PO415492   4.562   4.867   9.624
  881POPC   GL115493   4.339   4.967   9.248
  881POPC   GL215494   4.639   5.040   9.118
  881POPC   C1A15495   4.241   4.988   8.790
  881POPC   D2A15496   4.240   5.222   8.377
  881POPC   C3A15497   4.133   5.020   7.982
  881POPC   C4A15498   4.182   5.258   7.602
  881POPC   C1B15499   4.828   5.034   8.747
  881POPC   C2B15500   4.780   5.294   8.402
  881POPC   C3B15501   4.627   5.216   7.996
  881POPC   C4B15502   4.549   4.909   7.685
  882POPC   NC315503  10.862   2.636   9.463
  882POPC   PO415504  10.315   3.062   9.309
  882POPC   GL115505  10.683   2.980   9.073
  882POPC   GL215506  10.529   2.660   9.078
  882POPC   C1A15507  10.649   2.850   8.630
  882POPC   D2A15508  10.335   2.969   8.309
  882POPC   C3A15509  10.432   2.789   7.913
  882POPC   C4A15510  10.853   2.848   7.792
  882POPC   C1B15511  10.376   2.419   8.746
  882POPC   C2B15512  10.480   2.455   8.319
  882POPC   C3B15513  10.176   2.326   8.033
  882POPC   C4B15514  10.111   2.481   7.631
  883POPC   NC315515  24.244  30.617   9.440
  883POPC   PO415516  24.846  30.924   9.262
  883POPC   GL115517  24.599  30.653   9.083
  883POPC   GL215518  24.823  30.386   9.117
  883POPC   C1A15519  24.332  30.798   8.756
  883POPC   D2A15520  24.471  31.037   8.368
  883POPC   C3A15521  24.330  30.884   7.996
  883POPC   C4A15522  24.502  30.736   7.636
  883POPC   C1B15523  24.650  30.338   8.713
  883POPC   C2B15524  24.519  30.536   8.371
  883POPC   C3B15525  24.746  30.552   8.042
  883POPC   C4B15526  24.743  30.292   7.698
  884POPC   NC315527  36.161   5.641   9.533
  884POPC   PO415528  35.693   6.111   9.340
  884POPC   GL115529  36.017   5.909   9.097
  884POPC   GL215530  35.988   5.556   9.062
  884POPC   C1A15531  36.114   6.038   8.667
  884POPC   D2A15532  35.891   6.214   8.326
  884POPC   C3A15533  36.138   6.072   8.012
  884POPC   C4A15534  36.035   6.129   7.596
  884POPC   C1B15535  36.309   5.568   8.744
  884POPC   C2B15536  36.374   5.602   8.304
  884POPC   C3B15537  36.350   5.620   7.875
  884POPC   C4B15538  35.969   5.617   7.662
  885POPC   NC315539   7.956  29.491   9.552
  885POPC   PO415540   8.333  29.010   9.547
  885POPC   GL115541   8.372  29.196   9.185
  885POPC   GL215542   8.018  29.112   9.129
  885POPC   C1A15543   8.380  29.308   8.773
  885POPC   D2A15544   8.328  29.110   8.399
  885POPC   C3A15545   8.383  29.288   8.026
  885POPC   C4A15546   8.312  28.982   7.692
  885POPC   C1B15547   7.984  28.915   8.709
  885POPC   C2B15548   7.836  29.028   8.264
  885POPC   C3B15549   7.766  29.072   7.799
  885POPC   C4B15550   7.759  29.217   7.365
  886POPC   NC315551  13.144  16.740   9.402
  886POPC   PO415552  12.557  16.786   9.441
  886POPC   GL115553  12.702  16.710   9.084
  886POPC   GL215554  12.511  16.403   9.067
  886POPC   C1A15555  12.836  16.901   8.723
  886POPC   D2A15556  12.718  16.809   8.315
  886POPC   C3A15557  12.747  17.009   7.932
  886POPC   C4A15558  12.546  16.982   7.538
  886POPC   C1B15559  12.762  16.385   8.680
  886POPC   C2B15560  12.868  16.324   8.251
  886POPC   C3B15561  12.802  16.492   7.856
  886POPC   C4B15562  13.149  16.431   7.606
  887POPC   NC315563  43.510  37.249   9.649
  887POPC   PO415564  43.043  36.873   9.480
  887POPC   GL115565  43.168  36.925   9.088
  887POPC   GL215566  43.429  37.157   9.112
  887POPC   C1A15567  43.077  37.000   8.666
  887POPC   D2A15568  43.062  36.810   8.264
  887POPC   C3A15569  42.876  36.960   7.852
  887POPC   C4A15570  42.663  37.068   7.426
  887POPC   C1B15571  43.351  37.436   8.736
  887POPC   C2B15572  43.198  37.354   8.309
  887POPC   C3B15573  43.251  37.318   7.867
  887POPC   C4B15574  43.608  37.258   7.578
  888POPC   NC315575  31.649  10.553   9.614
  888POPC   PO415576  31.071  10.806   9.530
  888POPC   GL115577  31.370  10.770   9.206
  888POPC   GL215578  31.683  10.584   9.128
  888POPC   C1A15579  31.332  10.765   8.783
  888POPC   D2A15580  31.397  10.371   8.571
  888POPC   C3A15581  31.262  10.447   8.178
  888POPC   C4A15582  31.320  10.343   7.770
  888POPC   C1B15583  31.814  10.629   8.732
  888POPC   C2B15584  31.653  10.774   8.334
  888POPC   C3B15585  31.734  10.547   7.964
  888POPC   C4B15586  31.961  10.506   7.607
  889POPC   NC315587  39.655  13.206   9.270
  889POPC   PO415588  40.239  13.202   9.562
  889POPC   GL115589  40.091  13.016   9.133
  889POPC   GL215590  39.921  13.200   8.838
  889POPC   C1A15591  40.222  12.814   8.751
  889POPC   D2A15592  39.975  12.824   8.372
  889POPC   C3A15593  40.051  12.999   7.990
  889POPC   C4A15594  40.212  12.741   7.679
  889POPC   C1B15595  39.687  12.791   8.774
  889POPC   C2B15596  39.480  12.629   8.424
  889POPC   C3B15597  39.627  12.646   8.021
  889POPC   C4B15598  39.506  12.813   7.648
  890POPC   NC315599  32.391  26.485   9.373
  890POPC   PO415600  32.109  25.948   9.596
  890POPC   GL115601  32.188  26.030   9.193
  890POPC   GL215602  31.979  26.300   9.168
  890POPC   C1A15603  32.429  26.040   8.813
  890POPC   D2A15604  32.251  26.126   8.393
  890POPC   C3A15605  32.485  26.190   8.013
  890POPC   C4A15606  32.524  26.017   7.604
  890POPC   C1B15607  32.100  26.447   8.781
  890POPC   C2B15608  31.970  26.567   8.414
  890POPC   C3B15609  31.932  26.361   8.038
  890POPC   C4B15610  32.124  26.335   7.663
  891POPC   NC315611   0.648   7.962   9.590
  891POPC   PO415612  44.990   8.085   9.594
  891POPC   GL115613   0.323   8.258   9.286
  891POPC   GL215614   0.539   8.017   9.105
  891POPC   C1A15615   0.401   8.492   8.898
  891POPC   D2A15616   0.598   8.277   8.534
  891POPC   C3A15617   0.442   8.391   8.132
  891POPC   C4A15618   0.344   8.253   7.733
  891POPC   C1B15619   0.807   7.865   8.798
  891POPC   C2B15620   0.974   7.864   8.409
  891POPC   C3B15621   0.784   8.042   8.080
  891POPC   C4B15622   0.685   7.884   7.706
  892POPC   NC315623  24.618  36.511   9.179
  892POPC   PO415624  24.390  35.858   9.487
  892POPC   GL115625  24.367  35.846   9.071
  892POPC   GL215626  24.248  36.187   9.033
  892POPC   C1A15627  24.329  35.895   8.616
  892POPC   D2A15628  24.654  36.099   8.383
  892POPC   C3A15629  24.572  36.260   7.983
  892POPC   C4A15630  24.642  36.229   7.562
  892POPC   C1B15631  24.037  36.326   8.661
  892POPC   C2B15632  24.122  36.249   8.231
  892POPC   C3B15633  24.079  36.242   7.796
  892POPC   C4B15634  24.246  35.949   7.465
  893POPC   NC315635   5.413  43.880   9.511
  893POPC   PO415636   4.755  44.070   9.608
  893POPC   GL115637   4.900  44.070   9.175
  893POPC   GL215638   5.233  43.938   9.054
  893POPC   C1A15639   4.823  43.856   8.793
  893POPC   D2A15640   4.904  43.644   8.404
  893POPC   C3A15641   4.881  43.837   8.019
  893POPC   C4A15642   4.793  44.092   7.671
  893POPC   C1B15643   5.310  43.774   8.686
  893POPC   C2B15644   5.262  44.031   8.327
  893POPC   C3B15645   5.253  44.191   7.912
  893POPC   C4B15646   5.294  44.184   7.450
  894POPC   NC315647  44.509  38.124   9.464
  894POPC   PO415648   0.135  38.243   9.362
  894POPC   GL115649  44.818  38.166   9.038
  894POPC   GL215650  44.610  38.467   9.056
  894POPC   C1A15651  44.608  38.192   8.608
  894POPC   D2A15652  44.492  38.241   8.154
  894POPC   C3A15653  44.768  38.078   7.778
  894POPC   C4A15654  44.973  38.321   7.380
  894POPC   C1B15655  44.476  38.658   8.609
  894POPC   C2B15656  44.553  38.742   8.137
  894POPC   C3B15657  44.612  38.558   7.695
  894POPC   C4B15658  44.486  38.676   7.241
  895POPC   NC315659  35.410  41.819   9.466
  895POPC   PO415660  34.899  41.379   9.478
  895POPC   GL115661  35.100  41.625   9.133
  895POPC   GL215662  34.921  41.809   8.928
  895POPC   C1A15663  35.422  41.679   8.802
  895POPC   D2A15664  35.729  41.459   8.549
  895POPC   C3A15665  35.769  41.523   8.123
  895POPC   C4A15666  35.479  41.493   7.782
  895POPC   C1B15667  34.990  41.452   8.640
  895POPC   C2B15668  35.204  41.459   8.234
  895POPC   C3B15669  34.985  41.532   7.837
  895POPC   C4B15670  35.051  41.331   7.450
  896POPC   NC315671  30.624   0.525   9.377
  896POPC   PO415672  30.908   0.078   9.722
  896POPC   GL115673  30.865   0.076   9.188
  896POPC   GL215674  30.623   0.152   8.979
  896POPC   C1A15675  30.979   0.258   8.683
  896POPC   D2A15676  30.792   0.629   8.425
  896POPC   C3A15677  30.871   0.684   7.987
  896POPC   C4A15678  31.189   0.408   7.877
  896POPC   C1B15679  30.440   0.440   8.750
  896POPC   C2B15680  30.401   0.274   8.398
  896POPC   C3B15681  30.616   0.247   8.067
  896POPC   C4B15682  30.493   0.273   7.642
  897POPC   NC315683  42.894  41.439   9.448
  897POPC   PO415684  43.529  41.101   9.432
  897POPC   GL115685  43.418  41.356   9.079
  897POPC   GL215686  43.226  41.645   9.139
  897POPC   C1A15687  43.171  41.328   8.701
  897POPC   D2A15688  43.085  41.174   8.281
  897POPC   C3A15689  43.230  41.469   7.976
  897POPC   C4A15690  43.418  41.576   7.628
  897POPC   C1B15691  43.064  41.828   8.762
  897POPC   C2B15692  43.219  41.770   8.382
  897POPC   C3B15693  43.218  42.008   8.031
  897POPC   C4B15694  43.000  41.965   7.670
  898POPC   NC315695  32.993  44.863   9.341
  898POPC   PO415696  33.450  44.408   9.327
  898POPC   GL115697  33.190  44.559   8.998
  898POPC   GL215698  32.788  44.556   9.013
  898POPC   C1A15699  33.063  44.736   8.611
  898POPC   D2A15700  33.275  44.985   8.313
  898POPC   C3A15701  33.465  44.693   8.023
  898POPC   C4A15702  33.106  44.473   7.802
  898POPC   C1B15703  32.575  44.846   8.714
  898POPC   C2B15704  32.403  44.688   8.400
  898POPC   C3B15705  32.748  44.641   8.171
  898POPC   C4B15706  32.698  44.785   7.799
  899POPC   NC315707  33.609  18.889   9.496
  899POPC   PO415708  33.954  19.471   9.394
  899POPC   GL115709  33.723  19.246   9.132
  899POPC   GL215710  33.971  19.012   9.097
  899POPC   C1A15711  33.613  19.294   8.721
  899POPC   D2A15712  33.519  19.081   8.356
  899POPC   C3A15713  33.672  19.243   8.050
  899POPC   C4A15714  33.945  19.258   7.806
  899POPC   C1B15715  33.892  18.852   8.687
  899POPC   C2B15716  34.029  18.945   8.270
  899POPC   C3B15717  33.839  18.766   7.904
  899POPC   C4B15718  34.050  18.685   7.458
  900POPC   NC315719  24.477  41.152   9.479
  900POPC   PO415720  24.565  41.839   9.494
  900POPC   GL115721  24.598  41.555   9.134
  900POPC   GL215722  24.312  41.345   9.058
  900POPC   C1A15723  24.541  41.585   8.688
  900POPC   D2A15724  24.365  41.866   8.381
  900POPC   C3A15725  24.361  41.770   7.981
  900POPC   C4A15726  24.667  41.713   7.725
  900POPC   C1B15727  24.186  41.116   8.695
  900POPC   C2B15728  24.433  41.171   8.352
  900POPC   C3B15729  24.424  41.272   7.947
  900POPC   C4B15730  24.180  41.106   7.649
  901POPC   NC315731  17.533  22.511   9.451
  901POPC   PO415732  17.505  21.868   9.603
  901POPC   GL115733  17.801  21.915   9.242
  901POPC   GL215734  17.867  22.235   9.152
  901POPC   C1A15735  17.844  21.825   8.818
  901POPC   D2A15736  17.555  21.970   8.495
  901POPC   C3A15737  17.629  21.907   8.060
  901POPC   C4A15738  17.342  21.814   7.751
  901POPC   C1B15739  17.925  22.328   8.707
  901POPC   C2B15740  17.761  22.397   8.285
  901POPC   C3B15741  17.576  22.436   7.901
  901POPC   C4B15742  17.286  22.337   7.591
  902POPC   NC315743  24.414  18.375   9.528
  902POPC   PO415744  24.824  17.877   9.561
  902POPC   GL115745  24.454  17.954   9.245
  902POPC   GL215746  24.434  18.282   9.042
  902POPC   C1A15747  24.252  17.885   8.837
  902POPC   D2A15748  24.089  18.117   8.480
  902POPC   C3A15749  24.405  18.207   8.162
  902POPC   C4A15750  24.424  18.005   7.711
  902POPC   C1B15751  24.413  18.536   8.666
  902POPC   C2B15752  24.426  18.783   8.287
  902POPC   C3B15753  24.239  18.603   7.900
  902POPC   C4B15754  24.313  18.442   7.437
  903POPC   NC315755  13.762  25.275   9.549
  903POPC   PO415756  13.120  25.364   9.514
  903POPC   GL115757  13.422  25.233   9.140
  903POPC   GL215758  13.787  25.162   9.071
  903POPC   C1A15759  13.460  25.368   8.711
  903POPC   D2A15760  13.468  25.620   8.347
  903POPC   C3A15761  13.450  25.342   8.034
  903POPC   C4A15762  13.386  25.371   7.601
  903POPC   C1B15763  13.972  25.224   8.696
  903POPC   C2B15764  13.838  25.058   8.305
  903POPC   C3B15765  13.778  24.959   7.868
  903POPC   C4B15766  13.789  25.095   7.436
  904POPC   NC315767   4.800  36.894   9.574
  904POPC   PO415768   5.363  36.798   9.326
  904POPC   GL115769   5.135  36.986   8.978
  904POPC   GL215770   4.741  36.960   9.065
  904POPC   C1A15771   5.239  36.804   8.549
  904POPC   D2A15772   4.934  36.498   8.342
  904POPC   C3A15773   4.892  36.650   7.947
  904POPC   C4A15774   5.291  36.835   7.782
  904POPC   C1B15775   4.755  36.832   8.675
  904POPC   C2B15776   4.866  37.061   8.313
  904POPC   C3B15777   4.906  37.156   7.905
  904POPC   C4B15778   4.864  36.929   7.479
  905POPC   NC315779  42.058  12.593   9.537
  905POPC   PO415780  42.661  12.839   9.310
  905POPC   GL115781  42.344  13.096   9.084
  905POPC   GL215782  42.134  12.807   9.072
  905POPC   C1A15783  42.277  13.152   8.644
  905POPC   D2A15784  42.292  12.752   8.449
  905POPC   C3A15785  42.504  12.712   8.056
  905POPC   C4A15786  42.490  13.123   7.854
  905POPC   C1B15787  41.855  12.836   8.729
  905POPC   C2B15788  41.813  13.041   8.369
  905POPC   C3B15789  42.030  12.915   8.032
  905POPC   C4B15790  42.181  12.768   7.639
  906POPC   NC315791  26.595  42.747   9.432
  906POPC   PO415792  26.868  42.159   9.589
  906POPC   GL115793  26.695  42.268   9.185
  906POPC   GL215794  27.041  42.354   9.124
  906POPC   C1A15795  26.553  42.128   8.758
  906POPC   D2A15796  26.772  42.158   8.359
  906POPC   C3A15797  26.634  42.220   7.955
  906POPC   C4A15798  26.609  41.977   7.592
  906POPC   C1B15799  26.927  42.494   8.720
  906POPC   C2B15800  26.744  42.712   8.373
  906POPC   C3B15801  26.939  42.869   7.991
  906POPC   C4B15802  27.020  42.475   7.748
  907POPC   NC315803  32.564   0.353   9.293
  907POPC   PO415804  32.059   0.761   9.506
  907POPC   GL115805  32.108   0.695   9.074
  907POPC   GL215806  32.142   0.337   8.991
  907POPC   C1A15807  32.000   0.676   8.639
  907POPC   D2A15808  32.048   0.309   8.299
  907POPC   C3A15809  32.215   0.446   7.930
  907POPC   C4A15810  32.045   0.824   7.790
  907POPC   C1B15811  32.426   0.344   8.627
  907POPC   C2B15812  32.559   0.154   8.208
  907POPC   C3B15813  32.695   0.292   7.775
  907POPC   C4B15814  32.609   0.180   7.302
  908POPC   NC315815  35.693   7.986   9.482
  908POPC   PO415816  35.136   8.299   9.433
  908POPC   GL115817  35.447   8.309   9.131
  908POPC   GL215818  35.371   7.958   9.081
  908POPC   C1A15819  35.453   8.269   8.675
  908POPC   D2A15820  35.255   8.139   8.262
  908POPC   C3A15821  35.362   8.349   7.856
  908POPC   C4A15822  35.555   8.555   7.481
  908POPC   C1B15823  35.226   7.798   8.692
  908POPC   C2B15824  35.483   7.652   8.353
  908POPC   C3B15825  35.579   7.846   7.969
  908POPC   C4B15826  35.182   7.878   7.785
  909POPC   NC315827  34.333  20.031   9.408
  909POPC   PO415828  34.770  19.496   9.491
  909POPC   GL115829  34.583  19.613   9.138
  909POPC   GL215830  34.735  19.946   9.117
  909POPC   C1A15831  34.459  19.717   8.722
  909POPC   D2A15832  34.606  19.714   8.304
  909POPC   C3A15833  34.343  19.822   7.948
  909POPC   C4A15834  34.501  19.663   7.556
  909POPC   C1B15835  34.944  20.232   8.875
  909POPC   C2B15836  34.712  20.195   8.528
  909POPC   C3B15837  34.759  20.352   8.129
  909POPC   C4B15838  34.517  20.269   7.777
  910POPC   NC315839   3.068  40.514   9.406
  910POPC   PO415840   2.938  41.137   9.407
  910POPC   GL115841   3.017  40.903   9.056
  910POPC   GL215842   2.724  40.678   9.063
  910POPC   C1A15843   2.977  40.793   8.636
  910POPC   D2A15844   2.788  41.003   8.318
  910POPC   C3A15845   2.733  40.766   7.983
  910POPC   C4A15846   2.929  40.733   7.637
  910POPC   C1B15847   2.540  41.024   8.799
  910POPC   C2B15848   2.347  41.216   8.439
  910POPC   C3B15849   2.336  41.073   7.988
  910POPC   C4B15850   2.441  40.880   7.539
  911POPC   NC315851   7.499  27.195   9.434
  911POPC   PO415852   7.055  26.772   9.574
  911POPC   GL115853   7.156  26.804   9.147
  911POPC   GL215854   7.487  26.785   9.116
  911POPC   C1A15855   7.046  26.826   8.719
  911POPC   D2A15856   7.312  26.847   8.357
  911POPC   C3A15857   7.112  26.823   7.954
  911POPC   C4A15858   7.340  26.584   7.664
  911POPC   C1B15859   7.472  27.123   8.780
  911POPC   C2B15860   7.572  27.283   8.343
  911POPC   C3B15861   7.590  27.029   7.934
  911POPC   C4B15862   7.378  27.056   7.502
  912POPC   NC315863  33.892   2.253   9.533
  912POPC   PO415864  33.168   2.020   9.579
  912POPC   GL115865  33.472   1.927   9.226
  912POPC   GL215866  33.599   2.233   9.136
  912POPC   C1A15867  33.687   1.896   8.781
  912POPC   D2A15868  33.863   1.711   8.374
  912POPC   C3A15869  33.754   1.879   7.975
  912POPC   C4A15870  34.035   2.071   7.697
  912POPC   C1B15871  33.846   2.400   8.770
  912POPC   C2B15872  33.932   2.231   8.346
  912POPC   C3B15873  33.815   2.432   7.967
  912POPC   C4B15874  33.804   2.467   7.490
  913POPC   NC315875  23.582  16.085   9.543
  913POPC   PO415876  23.946  15.492   9.562
  913POPC   GL115877  23.902  15.843   9.190
  913POPC   GL215878  23.703  16.223   9.089
  913POPC   C1A15879  23.964  15.996   8.738
  913POPC   D2A15880  24.027  15.732   8.394
  913POPC   C3A15881  23.809  15.897   8.076
  913POPC   C4A15882  23.706  15.825   7.672
  913POPC   C1B15883  23.505  15.836   8.887
  913POPC   C2B15884  23.431  15.809   8.462
  913POPC   C3B15885  23.389  16.135   8.179
  913POPC   C4B15886  23.585  16.306   7.820
  914POPC   NC315887   3.879  19.373   9.235
  914POPC   PO415888   3.479  18.899   9.568
  914POPC   GL115889   3.499  19.024   9.117
  914POPC   GL215890   3.172  19.143   9.023
  914POPC   C1A15891   3.595  19.192   8.671
  914POPC   D2A15892   3.875  19.162   8.294
  914POPC   C3A15893   3.718  19.092   7.911
  914POPC   C4A15894   3.391  18.946   7.662
  914POPC   C1B15895   3.128  18.997   8.595
  914POPC   C2B15896   3.220  19.144   8.164
  914POPC   C3B15897   3.316  19.423   7.816
  914POPC   C4B15898   3.698  19.483   7.579
  915POPC   NC315899  41.984  14.120   9.296
  915POPC   PO415900  42.347  14.572   9.644
  915POPC   GL115901  42.416  14.409   9.207
  915POPC   GL215902  42.136  14.536   9.025
  915POPC   C1A15903  42.683  14.505   8.823
  915POPC   D2A15904  42.582  14.415   8.360
  915POPC   C3A15905  42.628  14.644   7.970
  915POPC   C4A15906  42.470  14.608   7.530
  915POPC   C1B15907  42.243  14.241   8.714
  915POPC   C2B15908  42.112  14.244   8.306
  915POPC   C3B15909  42.161  14.372   7.871
  915POPC   C4B15910  42.072  14.313   7.404
  916POPC   NC315911  12.564  27.724   9.442
  916POPC   PO415912  13.014  27.297   9.602
  916POPC   GL115913  13.062  27.607   9.230
  916POPC   GL215914  12.870  27.942   9.119
  916POPC   C1A15915  13.264  27.793   8.876
  916POPC   D2A15916  13.085  28.022   8.545
  916POPC   C3A15917  13.153  27.800   8.162
  916POPC   C4A15918  13.113  27.637   7.764
  916POPC   C1B15919  12.736  27.689   8.787
  916POPC   C2B15920  12.703  27.644   8.362
  916POPC   C3B15921  12.645  27.705   7.925
  916POPC   C4B15922  12.681  27.369   7.618
  917POPC   NC315923  14.837  27.705   9.417
  917POPC   PO415924  15.385  27.445   9.545
  917POPC   GL115925  15.223  27.492   9.113
  917POPC   GL215926  14.897  27.376   9.045
  917POPC   C1A15927  15.196  27.466   8.644
  917POPC   D2A15928  14.926  27.311   8.331
  917POPC   C3A15929  15.020  27.400   7.891
  917POPC   C4A15930  15.342  27.635   7.675
  917POPC   C1B15931  14.722  27.662   8.755
  917POPC   C2B15932  14.882  27.824   8.395
  917POPC   C3B15933  14.802  27.830   7.999
  917POPC   C4B15934  14.962  28.001   7.635
  918POPC   NC315935   0.868  23.852   9.478
  918POPC   PO415936   1.459  23.639   9.641
  918POPC   GL115937   1.262  23.647   9.188
  918POPC   GL215938   1.177  23.942   9.065
  918POPC   C1A15939   1.351  23.509   8.735
  918POPC   D2A15940   1.650  23.531   8.374
  918POPC   C3A15941   1.460  23.706   7.996
  918POPC   C4A15942   1.106  23.453   7.837
  918POPC   C1B15943   1.042  23.956   8.687
  918POPC   C2B15944   1.064  23.704   8.340
  918POPC   C3B15945   0.949  23.893   7.994
  918POPC   C4B15946   1.231  24.160   7.827
  919POPC   NC315947   1.932  37.207   9.462
  919POPC   PO415948   2.196  36.557   9.427
  919POPC   GL115949   2.081  36.896   9.076
  919POPC   GL215950   2.165  37.295   9.022
  919POPC   C1A15951   1.896  36.811   8.660
  919POPC   D2A15952   1.923  36.497   8.327
  919POPC   C3A15953   2.015  36.676   7.890
  919POPC   C4A15954   2.416  36.553   7.684
  919POPC   C1B15955   2.229  37.177   8.587
  919POPC   C2B15956   1.934  37.078   8.244
  919POPC   C3B15957   1.981  37.218   7.882
  919POPC   C4B15958   1.825  37.144   7.512
  920POPC   NC315959   9.227  38.834   9.716
  920POPC   PO415960   8.763  38.432   9.457
  920POPC   GL115961   9.032  38.439   9.100
  920POPC   GL215962   9.157  38.756   9.190
  920POPC   C1A15963   9.041  38.419   8.640
  920POPC   D2A15964   8.987  38.390   8.199
  920POPC   C3A15965   9.024  38.455   7.760
  920POPC   C4A15966   8.720  38.351   7.412
  920POPC   C1B15967   9.389  38.758   8.799
  920POPC   C2B15968   9.436  38.599   8.364
  920POPC   C3B15969   9.413  38.787   7.962
  920POPC   C4B15970   9.237  38.870   7.562
  921POPC   NC315971  40.507  10.481   9.532
  921POPC   PO415972  39.890  10.338   9.481
  921POPC   GL115973  40.015  10.379   9.080
  921POPC   GL215974  40.279  10.608   9.067
  921POPC   C1A15975  39.875  10.517   8.669
  921POPC   D2A15976  39.914  10.885   8.398
  921POPC   C3A15977  39.977  10.819   7.952
  921POPC   C4A15978  39.791  10.511   7.682
  921POPC   C1B15979  40.364  10.441   8.689
  921POPC   C2B15980  40.280  10.531   8.294
  921POPC   C3B15981  40.152  10.297   7.969
  921POPC   C4B15982  40.337  10.004   7.693
  922POPC   NC315983   9.734  18.853   9.499
  922POPC   PO415984   9.692  19.522   9.583
  922POPC   GL115985   9.714  19.289   9.175
  922POPC   GL215986  10.026  19.116   9.099
  922POPC   C1A15987   9.512  19.002   8.872
  922POPC   D2A15988   9.495  18.959   8.413
  922POPC   C3A15989   9.841  18.813   8.130
  922POPC   C4A15990   9.692  18.736   7.697
  922POPC   C1B15991   9.956  19.141   8.661
  922POPC   C2B15992  10.128  19.303   8.295
  922POPC   C3B15993   9.921  19.319   7.922
  922POPC   C4B15994   9.505  19.141   7.932
  923POPC   NC315995  43.752  21.716   9.577
  923POPC   PO415996  44.133  21.130   9.514
  923POPC   GL115997  44.012  21.439   9.236
  923POPC   GL215998  43.701  21.544   9.104
  923POPC   C1A15999  44.090  21.490   8.784
  923POPC   D2A16000  43.878  21.492   8.413
  923POPC   C3A16001  43.850  21.686   8.035
  923POPC   C4A16002  43.833  21.515   7.651
  923POPC   C1B16003  43.606  21.250   8.799
  923POPC   C2B16004  43.477  21.151   8.376
  923POPC   C3B16005  43.737  21.138   8.023
  923POPC   C4B16006  43.684  20.938   7.645
  924POPC   NC316007  10.124  30.090   9.471
  924POPC   PO416008   9.630  29.752   9.396
  924POPC   GL116009   9.787  29.981   9.087
  924POPC   GL216010  10.082  29.755   9.056
  924POPC   C1A16011   9.700  29.888   8.679
  924POPC   D2A16012   9.652  29.742   8.293
  924POPC   C3A16013   9.875  29.980   8.025
  924POPC   C4A16014   9.818  30.170   7.640
  924POPC   C1B16015  10.214  29.679   8.625
  924POPC   C2B16016  10.141  29.507   8.207
  924POPC   C3B16017  10.091  29.583   7.773
  924POPC   C4B16018   9.896  29.573   7.323
  925POPC   NC316019  31.998  42.802   9.456
  925POPC   PO416020  32.510  42.341   9.474
  925POPC   GL116021  32.242  42.451   9.125
  925POPC   GL216022  31.926  42.316   9.197
  925POPC   C1A16023  32.247  42.607   8.682
  925POPC   D2A16024  32.239  42.827   8.270
  925POPC   C3A16025  32.410  42.508   8.008
  925POPC   C4A16026  32.360  42.401   7.553
  925POPC   C1B16027  32.028  42.154   8.763
  925POPC   C2B16028  32.310  42.139   8.397
  925POPC   C3B16029  32.171  42.046   7.975
  925POPC   C4B16030  31.726  42.010   7.815
  926POPC   NC316031  43.834  40.887   9.708
  926POPC   PO416032  44.130  40.561   9.250
  926POPC   GL116033  43.865  40.817   9.066
  926POPC   GL216034  43.786  40.521   8.853
  926POPC   C1A16035  43.905  40.993   8.675
  926POPC   D2A16036  43.849  40.715   8.383
  926POPC   C3A16037  43.886  40.794   8.007
  926POPC   C4A16038  43.773  40.756   7.600
  926POPC   C1B16039  44.237  40.480   8.607
  926POPC   C2B16040  44.350  40.498   8.169
  926POPC   C3B16041  44.129  40.414   7.781
  926POPC   C4B16042  44.037  40.428   7.304
  927POPC   NC316043  13.763  44.902   9.434
  927POPC   PO416044  13.203  44.730   9.230
  927POPC   GL116045  13.532  44.922   8.965
  927POPC   GL216046  13.802  44.674   8.976
  927POPC   C1A16047  13.649  44.884   8.517
  927POPC   D2A16048  13.401  44.819   8.141
  927POPC   C3A16049  13.535  44.968   7.728
  927POPC   C4A16050  13.709  44.957   7.307
  927POPC   C1B16051  13.770  44.374   8.639
  927POPC   C2B16052  13.764  44.451   8.199
  927POPC   C3B16053  13.524  44.416   7.816
  927POPC   C4B16054  13.604  44.447   7.376
  928POPC   NC316055  30.974  32.494   9.200
  928POPC   PO416056  30.483  32.462   9.679
  928POPC   GL116057  30.511  32.275   9.180
  928POPC   GL216058  30.543  31.922   9.123
  928POPC   C1A16059  30.689  32.228   8.673
  928POPC   D2A16060  30.766  32.073   8.207
  928POPC   C3A16061  31.010  32.315   7.896
  928POPC   C4A16062  30.959  32.402   7.424
  928POPC   C1B16063  30.240  32.051   8.797
  928POPC   C2B16064  30.270  32.061   8.351
  928POPC   C3B16065  30.262  32.088   7.908
  928POPC   C4B16066  30.247  32.158   7.456
  929POPC   NC316067   9.273  25.572   9.408
  929POPC   PO416068   8.983  24.971   9.524
  929POPC   GL116069   9.018  25.199   9.157
  929POPC   GL216070   8.742  25.362   9.043
  929POPC   C1A16071   8.972  25.022   8.753
  929POPC   D2A16072   9.109  24.779   8.427
  929POPC   C3A16073   9.037  25.012   8.031
  929POPC   C4A16074   9.233  25.363   7.808
  929POPC   C1B16075   8.925  25.541   8.650
  929POPC   C2B16076   8.926  25.550   8.176
  929POPC   C3B16077   8.840  25.667   7.727
  929POPC   C4B16078   8.786  25.508   7.280
  930POPC   NC316079   8.302  31.952   9.544
  930POPC   PO416080   8.450  32.589   9.487
  930POPC   GL116081   8.318  32.273   9.148
  930POPC   GL216082   8.024  32.049   9.134
  930POPC   C1A16083   8.324  32.330   8.724
  930POPC   D2A16084   8.039  32.518   8.487
  930POPC   C3A16085   8.082  32.439   8.061
  930POPC   C4A16086   8.026  32.540   7.628
  930POPC   C1B16087   7.826  32.116   8.757
  930POPC   C2B16088   8.048  32.018   8.396
  930POPC   C3B16089   7.909  31.957   7.982
  930POPC   C4B16090   8.216  32.050   7.644
  931POPC   NC316091  34.974  28.408   9.308
  931POPC   PO416092  34.341  28.608   9.525
  931POPC   GL116093  34.448  28.403   9.192
  931POPC   GL216094  34.398  28.071   9.309
  931POPC   C1A16095  34.557  28.479   8.776
  931POPC   D2A16096  34.818  28.438   8.419
  931POPC   C3A16097  34.541  28.561   8.096
  931POPC   C4A16098  34.576  28.703   7.693
  931POPC   C1B16099  34.596  27.963   8.929
  931POPC   C2B16100  34.479  28.009   8.509
  931POPC   C3B16101  34.623  28.051   8.112
  931POPC   C4B16102  34.872  27.959   7.791
  932POPC   NC316103  15.274  22.828   9.900
  932POPC   PO416104  14.977  23.145   9.382
  932POPC   GL116105  15.370  23.124   9.148
  932POPC   GL216106  15.457  22.760   9.229
  932POPC   C1A16107  15.300  23.184   8.691
  932POPC   D2A16108  14.873  23.144   8.418
  932POPC   C3A16109  14.967  23.210   7.957
  932POPC   C4A16110  15.339  23.033   7.751
  932POPC   C1B16111  15.367  22.685   8.780
  932POPC   C2B16112  15.302  22.823   8.334
  932POPC   C3B16113  15.140  22.622   7.984
  932POPC   C4B16114  15.368  22.511   7.617
  933POPC   NC316115   2.748  17.113   9.555
  933POPC   PO416116   2.814  17.769   9.602
  933POPC   GL116117   2.674  17.544   9.217
  933POPC   GL216118   2.941  17.305   9.120
  933POPC   C1A16119   2.664  17.626   8.754
  933POPC   D2A16120   2.891  17.858   8.428
  933POPC   C3A16121   2.990  17.724   8.044
  933POPC   C4A16122   2.733  17.673   7.699
  933POPC   C1B16123   2.661  17.121   8.845
  933POPC   C2B16124   2.722  17.210   8.413
  933POPC   C3B16125   2.787  17.240   7.975
  933POPC   C4B16126   2.436  17.253   7.671
  934POPC   NC316127   1.024  37.410   9.597
  934POPC   PO416128   1.123  38.091   9.386
  934POPC   GL116129   1.180  37.699   9.160
  934POPC   GL216130   0.835  37.573   9.157
  934POPC   C1A16131   1.389  37.673   8.743
  934POPC   D2A16132   1.247  37.704   8.336
  934POPC   C3A16133   1.397  38.031   8.066
  934POPC   C4A16134   1.371  38.072   7.619
  934POPC   C1B16135   0.902  37.506   8.736
  934POPC   C2B16136   0.697  37.483   8.349
  934POPC   C3B16137   0.990  37.318   8.106
  934POPC   C4B16138   1.204  37.591   7.822
  935POPC   NC316139  13.205   6.665   9.625
  935POPC   PO416140  12.758   6.180   9.479
  935POPC   GL116141  12.775   6.545   9.195
  935POPC   GL216142  13.093   6.699   9.136
  935POPC   C1A16143  12.628   6.784   8.814
  935POPC   D2A16144  12.388   6.666   8.449
  935POPC   C3A16145  12.594   6.780   8.037
  935POPC   C4A16146  12.973   6.738   7.791
  935POPC   C1B16147  13.129   6.868   8.734
  935POPC   C2B16148  13.268   6.997   8.333
  935POPC   C3B16149  13.386   7.032   7.911
  935POPC   C4B16150  13.238   7.062   7.467
  936POPC   NC316151  32.632  32.795   9.453
  936POPC   PO416152  32.149  33.278   9.566
  936POPC   GL116153  32.194  32.990   9.215
  936POPC   GL216154  32.478  33.139   9.092
  936POPC   C1A16155  31.978  33.017   8.810
  936POPC   D2A16156  31.947  33.359   8.497
  936POPC   C3A16157  31.990  33.215   8.074
  936POPC   C4A16158  32.085  33.030   7.696
  936POPC   C1B16159  32.440  32.795   8.774
  936POPC   C2B16160  32.211  32.838   8.371
  936POPC   C3B16161  32.368  32.720   7.966
  936POPC   C4B16162  32.579  32.974   7.652
  937POPC   NC316163  38.751   7.353   9.214
  937POPC   PO416164  38.219   7.704   9.254
  937POPC   GL116165  38.287   7.372   8.976
  937POPC   GL216166  38.304   7.042   9.197
  937POPC   C1A16167  38.550   7.509   8.612
  937POPC   D2A16168  38.795   7.843   8.389
  937POPC   C3A16169  38.791   7.737   7.958
  937POPC   C4A16170  38.410   7.703   7.748
  937POPC   C1B16171  38.237   6.908   8.778
  937POPC   C2B16172  38.156   7.214   8.455
  937POPC   C3B16173  38.451   7.356   8.126
  937POPC   C4B16174  38.682   7.211   7.741
  938POPC   NC316175  17.510  11.168   9.605
  938POPC   PO416176  18.000  11.632   9.491
  938POPC   GL116177  17.661  11.405   9.184
  938POPC   GL216178  17.506  11.028   9.125
  938POPC   C1A16179  17.556  11.338   8.748
  938POPC   D2A16180  17.267  11.304   8.443
  938POPC   C3A16181  17.494  11.314   8.054
  938POPC   C4A16182  17.298  11.544   7.750
  938POPC   C1B16183  17.357  10.842   8.726
  938POPC   C2B16184  17.474  10.860   8.290
  938POPC   C3B16185  17.712  10.850   7.914
  938POPC   C4B16186  17.641  11.102   7.585
  939POPC   NC316187  13.229  18.289   9.248
  939POPC   PO416188  13.826  18.337   9.486
  939POPC   GL116189  13.728  18.246   9.085
  939POPC   GL216190  13.679  18.577   9.050
  939POPC   C1A16191  13.586  18.264   8.650
  939POPC   D2A16192  13.549  18.010   8.266
  939POPC   C3A16193  13.762  18.153   7.893
  939POPC   C4A16194  13.635  18.276   7.452
  939POPC   C1B16195  13.839  18.734   8.682
  939POPC   C2B16196  13.887  18.510   8.304
  939POPC   C3B16197  13.810  18.661   7.902
  939POPC   C4B16198  13.894  18.692   7.471
  940POPC   NC316199   9.368  30.124   9.508
  940POPC   PO416200   9.074  29.550   9.600
  940POPC   GL116201   9.126  29.745   9.192
  940POPC   GL216202   8.959  30.097   9.192
  940POPC   C1A16203   8.877  29.732   8.793
  940POPC   D2A16204   8.649  29.560   8.411
  940POPC   C3A16205   8.818  29.772   8.076
  940POPC   C4A16206   8.757  30.129   7.808
  940POPC   C1B16207   9.244  30.137   8.838
  940POPC   C2B16208   9.149  29.996   8.434
  940POPC   C3B16209   9.283  29.961   8.025
  940POPC   C4B16210   9.301  30.214   7.701
  941POPC   NC316211  38.582   1.057   9.584
  941POPC   PO416212  37.989   1.460   9.515
  941POPC   GL116213  38.207   1.409   9.134
  941POPC   GL216214  38.568   1.369   9.169
  941POPC   C1A16215  38.249   1.229   8.714
  941POPC   D2A16216  38.332   1.064   8.288
  941POPC   C3A16217  38.373   1.341   7.953
  941POPC   C4A16218  38.497   0.990   7.734
  941POPC   C1B16219  38.787   1.058   8.891
  941POPC   C2B16220  38.918   0.859   8.497
  941POPC   C3B16221  38.725   0.685   8.127
  941POPC   C4B16222  38.862   0.618   7.687
  942POPC   NC316223  17.614   9.008   9.567
  942POPC   PO416224  17.448   8.441   9.403
  942POPC   GL116225  17.639   8.734   9.142
  942POPC   GL216226  17.499   9.080   9.086
  942POPC   C1A16227  17.742   8.730   8.738
  942POPC   D2A16228  17.526   8.636   8.375
  942POPC   C3A16229  17.680   8.716   7.961
  942POPC   C4A16230  17.386   8.637   7.620
  942POPC   C1B16231  17.627   9.332   8.756
  942POPC   C2B16232  17.686   9.130   8.383
  942POPC   C3B16233  17.615   9.249   8.001
  942POPC   C4B16234  17.731   9.144   7.610
  943POPC   NC316235  17.658  23.502   9.401
  943POPC   PO416236  17.406  22.916   9.636
  943POPC   GL116237  17.525  22.967   9.166
  943POPC   GL216238  17.718  22.714   9.012
  943POPC   C1A16239  17.297  22.965   8.730
  943POPC   D2A16240  17.112  23.193   8.354
  943POPC   C3A16241  17.156  23.031   7.930
  943POPC   C4A16242  17.439  22.877   7.641
  943POPC   C1B16243  17.767  22.816   8.591
  943POPC   C2B16244  17.584  22.903   8.188
  943POPC   C3B16245  17.715  23.240   7.908
  943POPC   C4B16246  17.915  23.604   7.707
  944POPC   NC316247  42.010  14.914   9.337
  944POPC   PO416248  41.439  15.192   9.526
  944POPC   GL116249  41.370  15.167   9.109
  944POPC   GL216250  41.724  15.249   9.079
  944POPC   C1A16251  41.428  15.215   8.672
  944POPC   D2A16252  41.407  14.890   8.404
  944POPC   C3A16253  41.417  15.060   8.030
  944POPC   C4A16254  41.508  15.067   7.630
  944POPC   C1B16255  41.938  15.140   8.710
  944POPC   C2B16256  41.855  15.122   8.289
  944POPC   C3B16257  41.962  15.352   7.924
  944POPC   C4B16258  41.883  15.352   7.466
  945POPC   NC316259  44.244  22.645   9.488
  945POPC   PO416260  44.160  21.940   9.579
  945POPC   GL116261  44.036  21.955   9.176
  945POPC   GL216262  44.322  21.813   9.091
  945POPC   C1A16263  43.740  21.981   8.831
  945POPC   D2A16264  43.788  22.065   8.393
  945POPC   C3A16265  43.528  22.088   8.025
  945POPC   C4A16266  43.761  22.038   7.654
  945POPC   C1B16267  44.229  21.962   8.674
  945POPC   C2B16268  44.298  21.788   8.276
  945POPC   C3B16269  44.276  21.889   7.842
  945POPC   C4B16270  44.155  21.850   7.430
  946POPC   NC316271  39.469  28.224   9.741
  946POPC   PO416272  39.370  27.506   9.697
  946POPC   GL116273  39.344  27.681   9.239
  946POPC   GL216274  39.028  27.685   9.094
  946POPC   C1A16275  39.589  27.707   8.835
  946POPC   D2A16276  39.627  27.942   8.453
  946POPC   C3A16277  39.282  27.895   8.168
  946POPC   C4A16278  39.291  27.747   7.757
  946POPC   C1B16279  39.113  27.733   8.652
  946POPC   C2B16280  38.892  27.565   8.328
  946POPC   C3B16281  38.904  27.437   7.940
  946POPC   C4B16282  39.226  27.249   7.774
  947POPC   NC316283  12.439  21.681   9.428
  947POPC   PO416284  12.977  21.312   9.656
  947POPC   GL116285  12.948  21.410   9.144
  947POPC   GL216286  12.808  21.731   9.060
  947POPC   C1A16287  12.752  21.324   8.671
  947POPC   D2A16288  12.839  21.476   8.241
  947POPC   C3A16289  12.789  21.310   7.805
  947POPC   C4A16290  13.137  21.371   7.485
  947POPC   C1B16291  12.451  21.746   8.770
  947POPC   C2B16292  12.398  21.711   8.355
  947POPC   C3B16293  12.579  21.822   7.947
  947POPC   C4B16294  12.813  21.773   7.561
  948POPC   NC316295  36.090  36.843   9.493
  948POPC   PO416296  36.708  37.097   9.521
  948POPC   GL116297  36.469  37.243   9.133
  948POPC   GL216298  36.091  37.204   9.098
  948POPC   C1A16299  36.384  37.140   8.675
  948POPC   D2A16300  36.027  37.075   8.383
  948POPC   C3A16301  36.088  36.759   8.069
  948POPC   C4A16302  36.059  36.822   7.608
  948POPC   C1B16303  36.029  36.795   8.832
  948POPC   C2B16304  35.745  36.645   8.487
  948POPC   C3B16305  35.594  36.761   8.073
  948POPC   C4B16306  35.609  36.582   7.644
  949POPC   NC316307  26.766  37.342   9.507
  949POPC   PO416308  27.100  37.961   9.552
  949POPC   GL116309  26.849  37.789   9.209
  949POPC   GL216310  27.065  37.509   9.120
  949POPC   C1A16311  26.668  37.585   8.811
  949POPC   D2A16312  26.841  37.542   8.356
  949POPC   C3A16313  26.723  37.583   7.903
  949POPC   C4A16314  26.831  37.895   7.556
  949POPC   C1B16315  27.154  37.713   8.742
  949POPC   C2B16316  27.351  37.665   8.357
  949POPC   C3B16317  27.221  37.583   7.977
  949POPC   C4B16318  27.347  37.431   7.598
  950POPC   NC316319  30.717  22.371   9.607
  950POPC   PO416320  30.374  21.716   9.560
  950POPC   GL116321  30.628  21.857   9.178
  950POPC   GL216322  30.854  22.162   9.164
  950POPC   C1A16323  30.563  22.088   8.755
  950POPC   D2A16324  30.332  22.283   8.400
  950POPC   C3A16325  30.394  22.142   7.983
  950POPC   C4A16326  30.537  22.355   7.617
  950POPC   C1B16327  31.073  22.296   8.793
  950POPC   C2B16328  31.053  22.411   8.387
  950POPC   C3B16329  30.901  22.381   7.977
  950POPC   C4B16330  30.951  22.022   7.695
  951POPC   NC316331  30.398  21.334   9.821
  951POPC   PO416332  30.963  21.102   9.610
  951POPC   GL116333  30.680  21.090   9.286
  951POPC   GL216334  30.435  21.332   9.226
  951POPC   C1A16335  30.765  21.187   8.853
  951POPC   D2A16336  30.780  20.976   8.445
  951POPC   C3A16337  30.588  21.075   8.070
  951POPC   C4A16338  30.680  21.230   7.685
  951POPC   C1B16339  30.331  21.565   8.822
  951POPC   C2B16340  30.471  21.713   8.380
  951POPC   C3B16341  30.602  21.678   7.918
  951POPC   C4B16342  30.514  21.852   7.487
  952POPC   NC316343   0.770  31.397   9.470
  952POPC   PO416344   0.121  31.640   9.459
  952POPC   GL116345   0.343  31.371   9.171
  952POPC   GL216346   0.596  31.595   9.036
  952POPC   C1A16347   0.389  31.123   8.818
  952POPC   D2A16348   0.520  31.175   8.415
  952POPC   C3A16349   0.298  31.367   8.098
  952POPC   C4A16350   0.391  31.315   7.662
  952POPC   C1B16351   0.300  31.601   8.703
  952POPC   C2B16352   0.208  31.820   8.360
  952POPC   C3B16353   0.461  31.841   7.990
  952POPC   C4B16354   0.616  31.771   7.577
  953POPC   NC316355   1.069   7.146   9.457
  953POPC   PO416356   1.117   6.465   9.496
  953POPC   GL116357   1.079   6.735   9.145
  953POPC   GL216358   1.297   6.540   8.931
  953POPC   C1A16359   1.234   7.040   8.822
  953POPC   D2A16360   1.461   6.950   8.485
  953POPC   C3A16361   1.418   6.620   8.214
  953POPC   C4A16362   1.445   6.703   7.770
  953POPC   C1B16363   1.102   6.245   8.683
  953POPC   C2B16364   0.773   6.294   8.389
  953POPC   C3B16365   0.955   6.416   8.020
  953POPC   C4B16366   1.331   6.246   7.878
  954POPC   NC316367  33.282  33.596   9.470
  954POPC   PO416368  32.777  33.931   9.764
  954POPC   GL116369  32.849  33.898   9.299
  954POPC   GL216370  32.783  33.572   9.134
  954POPC   C1A16371  32.839  34.006   8.839
  954POPC   D2A16372  32.790  33.813   8.446
  954POPC   C3A16373  32.920  33.938   8.028
  954POPC   C4A16374  32.909  33.562   7.791
  954POPC   C1B16375  33.134  33.585   8.848
  954POPC   C2B16376  33.311  33.748   8.499
  954POPC   C3B16377  33.361  33.677   8.068
  954POPC   C4B16378  33.406  33.433   7.712
  955POPC   NC316379   0.358  18.882   9.604
  955POPC   PO416380   0.658  18.257   9.604
  955POPC   GL116381   0.412  18.135   9.260
  955POPC   GL216382   0.389  18.484   9.211
  955POPC   C1A16383   0.420  18.105   8.810
  955POPC   D2A16384   0.607  18.230   8.423
  955POPC   C3A16385   0.479  17.987   8.063
  955POPC   C4A16386   0.355  18.099   7.652
  955POPC   C1B16387   0.670  18.553   8.897
  955POPC   C2B16388   0.468  18.738   8.552
  955POPC   C3B16389   0.192  18.560   8.229
  955POPC   C4B16390   0.270  18.594   7.787
  956POPC   NC316391  23.054  24.796   9.594
  956POPC   PO416392  22.660  24.272   9.690
  956POPC   GL116393  22.769  24.352   9.246
  956POPC   GL216394  22.665  24.697   9.235
  956POPC   C1A16395  23.032  24.498   8.885
  956POPC   D2A16396  23.167  24.333   8.476
  956POPC   C3A16397  23.239  24.562   8.088
  956POPC   C4A16398  23.168  24.459   7.674
  956POPC   C1B16399  22.600  24.772   8.784
  956POPC   C2B16400  22.821  24.741   8.376
  956POPC   C3B16401  22.724  24.589   7.958
  956POPC   C4B16402  22.391  24.700   7.658
  957POPC   NC316403  12.191  14.143   9.664
  957POPC   PO416404  11.768  14.607   9.754
  957POPC   GL116405  12.062  14.450   9.274
  957POPC   GL216406  12.025  14.679   8.931
  957POPC   C1A16407  12.118  14.181   8.903
  957POPC   D2A16408  11.968  14.349   8.495
  957POPC   C3A16409  12.191  14.287   8.107
  957POPC   C4A16410  12.487  14.388   7.817
  957POPC   C1B16411  11.739  14.819   8.561
  957POPC   C2B16412  11.489  14.594   8.218
  957POPC   C3B16413  11.662  14.542   7.812
  957POPC   C4B16414  12.080  14.725   7.820
  958POPC   NC316415  24.174   1.591   9.485
  958POPC   PO416416  23.971   2.182   9.251
  958POPC   GL116417  23.839   1.973   8.949
  958POPC   GL216418  23.898   1.624   9.034
  958POPC   C1A16419  23.746   2.112   8.548
  958POPC   D2A16420  24.000   2.106   8.192
  958POPC   C3A16421  23.825   2.028   7.787
  958POPC   C4A16422  23.607   2.381   7.606
  958POPC   C1B16423  23.775   1.612   8.600
  958POPC   C2B16424  23.746   1.662   8.202
  958POPC   C3B16425  23.966   1.551   7.857
  958POPC   C4B16426  23.828   1.591   7.432
  959POPC   NC316427   9.583  39.519   9.596
  959POPC   PO416428  10.118  39.054   9.603
  959POPC   GL116429   9.901  39.256   9.270
  959POPC   GL216430  10.105  39.490   9.107
  959POPC   C1A16431   9.806  39.120   8.833
  959POPC   D2A16432   9.574  39.090   8.438
  959POPC   C3A16433   9.781  39.195   8.052
  959POPC   C4A16434   9.749  39.054   7.630
  959POPC   C1B16435   9.657  39.602   8.954
  959POPC   C2B16436   9.502  39.622   8.536
  959POPC   C3B16437   9.273  39.442   8.204
  959POPC   C4B16438   9.360  39.331   7.782
  960POPC   NC316439  32.686  34.349   9.568
  960POPC   PO416440  33.186  34.774   9.414
  960POPC   GL116441  32.840  34.785   9.152
  960POPC   GL216442  32.774  34.439   9.083
  960POPC   C1A16443  32.734  34.787   8.713
  960POPC   D2A16444  32.756  34.403   8.454
  960POPC   C3A16445  32.886  34.474   8.005
  960POPC   C4A16446  32.752  34.785   7.683
  960POPC   C1B16447  33.144  34.445   8.796
  960POPC   C2B16448  33.277  34.508   8.351
  960POPC   C3B16449  33.451  34.688   7.933
  960POPC   C4B16450  33.383  34.664   7.472
  961POPC   NC316451  39.409  41.122   9.438
  961POPC   PO416452  39.231  40.411   9.498
  961POPC   GL116453  39.448  40.675   9.170
  961POPC   GL216454  39.136  40.639   9.025
  961POPC   C1A16455  39.557  40.754   8.712
  961POPC   D2A16456  39.293  40.680   8.341
  961POPC   C3A16457  39.200  40.700   7.911
  961POPC   C4A16458  39.199  41.109   7.769
  961POPC   C1B16459  39.083  40.396   8.704
  961POPC   C2B16460  38.839  40.397   8.340
  961POPC   C3B16461  38.799  40.338   7.918
  961POPC   C4B16462  38.849  40.532   7.552
  962POPC   NC316463  16.776  29.516   9.377
  962POPC   PO416464  16.802  30.119   9.657
  962POPC   GL116465  16.841  30.018   9.199
  962POPC   GL216466  16.599  30.195   8.991
  962POPC   C1A16467  16.981  29.985   8.731
  962POPC   D2A16468  17.014  30.112   8.272
  962POPC   C3A16469  16.823  29.864   7.918
  962POPC   C4A16470  17.005  29.820   7.484
  962POPC   C1B16471  16.503  29.847   8.646
  962POPC   C2B16472  16.302  29.695   8.247
  962POPC   C3B16473  16.294  29.689   7.792
  962POPC   C4B16474  16.515  29.921   7.471
  963POPC   NC316475  22.810  15.469   9.704
  963POPC   PO416476  23.118  14.955   9.398
  963POPC   GL116477  22.828  15.174   9.151
  963POPC   GL216478  23.000  15.490   9.210
  963POPC   C1A16479  22.740  15.190   8.680
  963POPC   D2A16480  22.455  15.257   8.298
  963POPC   C3A16481  22.550  15.116   7.866
  963POPC   C4A16482  22.916  14.905   7.716
  963POPC   C1B16483  23.260  15.348   8.878
  963POPC   C2B16484  23.222  15.345   8.452
  963POPC   C3B16485  22.963  15.248   8.116
  963POPC   C4B16486  22.925  15.426   7.686
  964POPC   NC316487  26.495  22.437   9.609
  964POPC   PO416488  27.036  21.936   9.752
  964POPC   GL116489  26.909  22.182   9.358
  964POPC   GL216490  27.177  22.389   9.201
  964POPC   C1A16491  26.670  22.188   8.950
  964POPC   D2A16492  26.550  22.358   8.524
  964POPC   C3A16493  26.804  22.208   8.143
  964POPC   C4A16494  27.054  22.145   7.751
  964POPC   C1B16495  27.087  22.451   8.757
  964POPC   C2B16496  26.944  22.656   8.360
  964POPC   C3B16497  26.579  22.684   8.085
  964POPC   C4B16498  26.625  22.463   7.718
  965POPC   NC316499  26.618  18.795   9.874
  965POPC   PO416500  26.908  18.244   9.795
  965POPC   GL116501  26.906  18.350   9.316
  965POPC   GL216502  26.600  18.328   9.103
  965POPC   C1A16503  27.011  18.453   8.846
  965POPC   D2A16504  26.831  18.616   8.435
  965POPC   C3A16505  27.013  18.459   8.040
  965POPC   C4A16506  27.111  18.513   7.599
  965POPC   C1B16507  26.514  17.990   8.785
  965POPC   C2B16508  26.309  17.869   8.378
  965POPC   C3B16509  26.497  18.009   7.971
  965POPC   C4B16510  26.624  18.380   7.701
  966POPC   NC316511   7.510   2.286   9.512
  966POPC   PO416512   7.158   1.727   9.366
  966POPC   GL116513   7.196   2.152   9.120
  966POPC   GL216514   7.579   2.244   9.020
  966POPC   C1A16515   7.198   2.299   8.685
  966POPC   D2A16516   7.475   2.156   8.373
  966POPC   C3A16517   7.440   2.296   7.981
  966POPC   C4A16518   7.571   2.143   7.590
  966POPC   C1B16519   7.621   1.871   8.794
  966POPC   C2B16520   7.837   1.798   8.393
  966POPC   C3B16521   7.582   1.757   8.030
  966POPC   C4B16522   7.585   1.615   7.643
  967POPC   NC316523  31.623   3.147   9.488
  967POPC   PO416524  31.754   2.473   9.452
  967POPC   GL116525  31.605   2.746   9.113
  967POPC   GL216526  31.749   3.056   9.020
  967POPC   C1A16527  31.580   2.724   8.651
  967POPC   D2A16528  31.677   2.401   8.333
  967POPC   C3A16529  31.789   2.603   7.959
  967POPC   C4A16530  31.475   2.639   7.661
  967POPC   C1B16531  31.647   3.304   8.683
  967POPC   C2B16532  31.346   3.153   8.392
  967POPC   C3B16533  31.493   3.023   7.999
  967POPC   C4B16534  31.785   3.039   7.641
  968POPC   NC316535  25.509   2.838  10.079
  968POPC   PO416536  25.259   2.539   9.500
  968POPC   GL116537  25.326   2.457   9.096
  968POPC   GL216538  25.363   2.797   9.044
  968POPC   C1A16539  25.185   2.507   8.687
  968POPC   D2A16540  25.316   2.771   8.394
  968POPC   C3A16541  25.265   2.568   8.015
  968POPC   C4A16542  25.535   2.550   7.696
  968POPC   C1B16543  25.024   2.971   8.837
  968POPC   C2B16544  24.855   2.977   8.450
  968POPC   C3B16545  25.033   3.056   8.045
  968POPC   C4B16546  24.982   2.852   7.677
  969POPC   NC316547  37.498  38.003   9.570
  969POPC   PO416548  37.646  37.313   9.534
  969POPC   GL116549  37.668  37.494   9.142
  969POPC   GL216550  37.640  37.805   9.140
  969POPC   C1A16551  37.773  37.357   8.760
  969POPC   D2A16552  37.614  37.464   8.375
  969POPC   C3A16553  37.836  37.278   8.060
  969POPC   C4A16554  37.726  37.398   7.719
  969POPC   C1B16555  37.711  37.873   8.749
  969POPC   C2B16556  37.988  37.804   8.430
  969POPC   C3B16557  37.870  37.807   8.031
  969POPC   C4B16558  37.992  37.805   7.626
  970POPC   NC316559  38.267  24.026   9.605
  970POPC   PO416560  38.745  23.652   9.577
  970POPC   GL116561  38.633  23.645   9.172
  970POPC   GL216562  38.558  23.956   9.153
  970POPC   C1A16563  38.410  23.661   8.760
  970POPC   D2A16564  38.211  23.920   8.447
  970POPC   C3A16565  38.191  23.837   8.009
  970POPC   C4A16566  38.229  24.144   7.708
  970POPC   C1B16567  38.852  23.912   8.784
  970POPC   C2B16568  38.754  23.968   8.326
  970POPC   C3B16569  38.728  23.945   7.840
  970POPC   C4B16570  38.808  24.045   7.376
  971POPC   NC316571  40.271  21.584   9.584
  971POPC   PO416572  39.775  21.298   9.434
  971POPC   GL116573  39.914  21.614   9.095
  971POPC   GL216574  40.274  21.691   9.087
  971POPC   C1A16575  39.850  21.532   8.629
  971POPC   D2A16576  39.816  21.179   8.319
  971POPC   C3A16577  39.986  21.185   7.890
  971POPC   C4A16578  39.928  21.369   7.480
  971POPC   C1B16579  40.352  21.484   8.692
  971POPC   C2B16580  40.289  21.375   8.263
  971POPC   C3B16581  40.438  21.418   7.816
  971POPC   C4B16582  40.423  21.338   7.360
  972POPC   NC316583  22.154   4.802   9.488
  972POPC   PO416584  21.557   4.394   9.672
  972POPC   GL116585  21.640   4.430   9.205
  972POPC   GL216586  21.340   4.570   9.005
  972POPC   C1A16587  21.609   4.220   8.772
  972POPC   D2A16588  21.405   4.383   8.399
  972POPC   C3A16589  21.384   4.241   7.971
  972POPC   C4A16590  21.563   4.310   7.549
  972POPC   C1B16591  21.082   4.709   8.631
  972POPC   C2B16592  20.999   4.622   8.158
  972POPC   C3B16593  21.272   4.729   7.775
  972POPC   C4B16594  21.317   5.138   7.499
  973POPC   NC316595  37.254  17.263   9.468
  973POPC   PO416596  37.085  17.948   9.409
  973POPC   GL116597  36.834  17.603   9.171
  973POPC   GL216598  36.760  17.258   9.140
  973POPC   C1A16599  36.598  17.550   8.750
  973POPC   D2A16600  36.773  17.472   8.357
  973POPC   C3A16601  36.675  17.668   8.000
  973POPC   C4A16602  36.843  17.858   7.705
  973POPC   C1B16603  36.904  17.143   8.739
  973POPC   C2B16604  37.001  17.016   8.306
  973POPC   C3B16605  36.792  17.156   7.935
  973POPC   C4B16606  36.889  17.380   7.548
  974POPC   NC316607  24.218  21.811   9.553
  974POPC   PO416608  23.921  21.146   9.675
  974POPC   GL116609  23.739  21.210   9.237
  974POPC   GL216610  24.026  21.465   9.201
  974POPC   C1A16611  23.407  21.231   8.886
  974POPC   D2A16612  23.429  21.552   8.536
  974POPC   C3A16613  23.469  21.417   8.111
  974POPC   C4A16614  23.499  21.559   7.697
  974POPC   C1B16615  23.866  21.451   8.789
  974POPC   C2B16616  23.977  21.504   8.369
  974POPC   C3B16617  23.908  21.710   7.979
  974POPC   C4B16618  23.951  21.680   7.518
  975POPC   NC316619  29.571  17.421   9.387
  975POPC   PO416620  28.947  17.155   9.493
  975POPC   GL116621  29.164  17.311   9.106
  975POPC   GL216622  29.357  17.611   8.958
  975POPC   C1A16623  29.081  17.315   8.675
  975POPC   D2A16624  29.106  17.541   8.331
  975POPC   C3A16625  29.018  17.241   8.033
  975POPC   C4A16626  29.259  17.123   7.685
  975POPC   C1B16627  28.960  17.809   8.773
  975POPC   C2B16628  28.849  18.001   8.370
  975POPC   C3B16629  28.859  17.776   7.960
  975POPC   C4B16630  29.239  17.641   7.748
  976POPC   NC316631  22.525  18.582   9.665
  976POPC   PO416632  23.199  18.191   9.570
  976POPC   GL116633  23.062  18.179   9.134
  976POPC   GL216634  22.695  18.132   9.056
  976POPC   C1A16635  23.128  18.376   8.735
  976POPC   D2A16636  23.452  18.503   8.451
  976POPC   C3A16637  23.312  18.545   8.029
  976POPC   C4A16638  22.940  18.349   7.787
  976POPC   C1B16639  22.691  18.075   8.619
  976POPC   C2B16640  22.635  18.366   8.242
  976POPC   C3B16641  22.420  18.277   7.845
  976POPC   C4B16642  22.542  17.930   7.571
  977POPC   NC316643  40.396  14.219   9.362
  977POPC   PO416644  39.843  14.641   9.283
  977POPC   GL116645  39.985  14.298   9.060
  977POPC   GL216646  40.289  14.522   8.959
  977POPC   C1A16647  39.893  14.170   8.658
  977POPC   D2A16648  40.101  14.508   8.456
  977POPC   C3A16649  39.998  14.530   8.041
  977POPC   C4A16650  39.816  14.156   7.885
  977POPC   C1B16651  40.391  14.144   8.728
  977POPC   C2B16652  40.295  14.026   8.334
  977POPC   C3B16653  40.348  14.128   7.913
  977POPC   C4B16654  40.448  14.342   7.533
  978POPC   NC316655   2.535   6.726   9.566
  978POPC   PO416656   3.016   6.606   9.226
  978POPC   GL116657   2.832   6.466   8.906
  978POPC   GL216658   2.540   6.670   9.021
  978POPC   C1A16659   2.863   6.663   8.535
  978POPC   D2A16660   2.491   6.688   8.361
  978POPC   C3A16661   2.557   6.449   8.008
  978POPC   C4A16662   2.887   6.573   7.717
  978POPC   C1B16663   2.553   7.057   8.768
  978POPC   C2B16664   2.380   7.196   8.366
  978POPC   C3B16665   2.580   7.025   7.980
  978POPC   C4B16666   2.429   6.751   7.635
  979POPC   NC316667  33.429  44.803   9.614
  979POPC   PO416668  33.809  44.244   9.804
  979POPC   GL116669  33.918  44.571   9.401
  979POPC   GL216670  33.693  44.848   9.203
  979POPC   C1A16671  33.996  44.564   8.946
  979POPC   D2A16672  33.988  44.657   8.497
  979POPC   C3A16673  33.918  44.380   8.153
  979POPC   C4A16674  33.925  44.595   7.757
  979POPC   C1B16675  33.563  44.858   8.765
  979POPC   C2B16676  33.749   0.128   8.437
  979POPC   C3B16677  33.947  44.993   8.060
  979POPC   C4B16678  33.672   0.060   7.711
  980POPC   NC316679   5.497  30.994   9.527
  980POPC   PO416680   5.816  30.454   9.460
  980POPC   GL116681   5.783  30.713   9.140
  980POPC   GL216682   6.083  30.864   9.251
  980POPC   C1A16683   5.501  30.813   8.798
  980POPC   D2A16684   5.775  30.777   8.433
  980POPC   C3A16685   5.616  30.788   8.041
  980POPC   C4A16686   5.556  30.476   7.750
  980POPC   C1B16687   6.340  30.927   8.887
  980POPC   C2B16688   6.249  31.017   8.464
  980POPC   C3B16689   6.102  30.971   8.058
  980POPC   C4B16690   6.156  31.239   7.691
  981POPC   NC316691  30.101  24.748   9.550
  981POPC   PO416692  29.777  24.219   9.607
  981POPC   GL116693  30.096  24.316   9.259
  981POPC   GL216694  29.884  24.559   9.090
  981POPC   C1A16695  30.232  24.274   8.816
  981POPC   D2A16696  29.992  24.544   8.537
  981POPC   C3A16697  29.926  24.554   8.087
  981POPC   C4A16698  30.027  24.702   7.669
  981POPC   C1B16699  29.583  24.355   8.790
  981POPC   C2B16700  29.590  24.217   8.341
  981POPC   C3B16701  29.561  24.297   7.900
  981POPC   C4B16702  29.797  24.256   7.511
  982POPC   NC316703  21.950  29.532   9.461
  982POPC   PO416704  22.425  29.173   9.743
  982POPC   GL116705  22.356  29.269   9.222
  982POPC   GL216706  22.652  29.518   9.096
  982POPC   C1A16707  22.326  29.008   8.809
  982POPC   D2A16708  21.994  28.996   8.463
  982POPC   C3A16709  22.033  29.152   8.026
  982POPC   C4A16710  22.023  29.001   7.589
  982POPC   C1B16711  22.365  29.517   8.776
  982POPC   C2B16712  22.377  29.346   8.362
  982POPC   C3B16713  22.496  29.533   7.989
  982POPC   C4B16714  22.514  29.783   7.623
  983POPC   NC316715  41.060   9.997   9.933
  983POPC   PO416716  40.964  10.523   9.513
  983POPC   GL116717  40.795  10.466   9.109
  983POPC   GL216718  40.990  10.178   9.044
  983POPC   C1A16719  40.859  10.511   8.676
  983POPC   D2A16720  40.836  10.310   8.292
  983POPC   C3A16721  40.643  10.454   7.935
  983POPC   C4A16722  40.821  10.709   7.606
  983POPC   C1B16723  41.324  10.328   8.747
  983POPC   C2B16724  41.279  10.569   8.361
  983POPC   C3B16725  41.158  10.484   7.902
  983POPC   C4B16726  41.153  10.396   7.391
  984POPC   NC316727  23.585  13.360   9.490
  984POPC   PO416728  23.969  13.949   9.386
  984POPC   GL116729  23.835  13.838   9.009
  984POPC   GL216730  23.497  13.825   9.183
  984POPC   C1A16731  23.974  13.447   8.775
  984POPC   D2A16732  24.000  13.273   8.352
  984POPC   C3A16733  23.818  13.569   8.072
  984POPC   C4A16734  23.709  13.698   7.691
  984POPC   C1B16735  23.477  13.481   8.869
  984POPC   C2B16736  23.504  13.418   8.431
  984POPC   C3B16737  23.500  13.191   8.010
  984POPC   C4B16738  23.338  13.315   7.619
  985POPC   NC316739   1.806  29.282   9.470
  985POPC   PO416740   2.386  28.931   9.574
  985POPC   GL116741   2.343  29.168   9.193
  985POPC   GL216742   2.083  29.390   9.075
  985POPC   C1A16743   2.383  29.162   8.750
  985POPC   D2A16744   2.290  29.048   8.337
  985POPC   C3A16745   1.940  29.051   8.124
  985POPC   C4A16746   1.782  28.812   7.844
  985POPC   C1B16747   1.926  29.373   8.670
  985POPC   C2B16748   2.022  29.527   8.293
  985POPC   C3B16749   2.005  29.481   7.856
  985POPC   C4B16750   1.751  29.275   7.597
  986POPC   NC316751   2.592  39.920   9.833
  986POPC   PO416752   2.932  39.451   9.399
  986POPC   GL116753   3.010  39.448   9.023
  986POPC   GL216754   2.655  39.410   8.938
  986POPC   C1A16755   3.021  39.104   8.744
  986POPC   D2A16756   2.696  39.173   8.468
  986POPC   C3A16757   2.865  39.191   8.081
  986POPC   C4A16758   2.705  39.281   7.676
  986POPC   C1B16759   2.740  39.779   8.750
  986POPC   C2B16760   2.872  39.884   8.386
  986POPC   C3B16761   2.868  39.695   8.009
  986POPC   C4B16762   3.033  39.682   7.619
  987POPC   NC316763  35.297  24.408   9.458
  987POPC   PO416764  35.783  24.871   9.408
  987POPC   GL116765  35.492  24.717   9.097
  987POPC   GL216766  35.439  24.369   8.982
  987POPC   C1A16767  35.234  24.812   8.762
  987POPC   D2A16768  35.420  24.903   8.379
  987POPC   C3A16769  35.514  24.581   8.072
  987POPC   C4A16770  35.229  24.519   7.743
  987POPC   C1B16771  35.446  24.402   8.562
  987POPC   C2B16772  35.115  24.308   8.285
  987POPC   C3B16773  34.980  24.123   7.911
  987POPC   C4B16774  35.141  24.067   7.492
  988POPC   NC316775  35.057  33.384   9.275
  988POPC   PO416776  35.492  32.915   9.466
  988POPC   GL116777  35.331  32.990   9.085
  988POPC   GL216778  35.011  32.877   9.147
  988POPC   C1A16779  35.184  33.108   8.688
  988POPC   D2A16780  35.429  33.058   8.371
  988POPC   C3A16781  35.282  32.984   7.989
  988POPC   C4A16782  35.561  32.976   7.625
  988POPC   C1B16783  34.759  32.828   8.773
  988POPC   C2B16784  34.900  32.815   8.341
  988POPC   C3B16785  34.858  32.704   7.902
  988POPC   C4B16786  34.923  32.784   7.461
  989POPC   NC316787  35.035  34.980   9.256
  989POPC   PO416788  35.591  34.683   9.469
  989POPC   GL116789  35.410  34.623   9.105
  989POPC   GL216790  35.230  34.338   9.159
  989POPC   C1A16791  35.528  34.456   8.710
  989POPC   D2A16792  35.398  34.293   8.317
  989POPC   C3A16793  35.485  34.570   7.970
  989POPC   C4A16794  35.246  34.805   7.660
  989POPC   C1B16795  35.007  34.490   8.786
  989POPC   C2B16796  35.005  34.638   8.389
  989POPC   C3B16797  34.951  34.460   8.003
  989POPC   C4B16798  35.147  34.268   7.686
  990POPC   NC316799   9.712   6.625   9.557
  990POPC   PO416800   9.017   6.410   9.328
  990POPC   GL116801   9.425   6.544   9.148
  990POPC   GL216802   9.547   6.901   9.157
  990POPC   C1A16803   9.750   6.569   8.827
  990POPC   D2A16804   9.876   6.827   8.478
  990POPC   C3A16805   9.942   6.600   8.131
  990POPC   C4A16806   9.786   6.570   7.740
  990POPC   C1B16807   9.594   7.141   8.809
  990POPC   C2B16808   9.437   7.063   8.430
  990POPC   C3B16809   9.463   7.117   8.004
  990POPC   C4B16810   9.435   6.937   7.581
  991POPC   NC316811  26.657   7.240   9.439
  991POPC   PO416812  27.290   6.944   9.213
  991POPC   GL116813  26.917   7.135   9.005
  991POPC   GL216814  26.899   7.498   9.001
  991POPC   C1A16815  26.738   7.114   8.597
  991POPC   D2A16816  26.985   7.292   8.266
  991POPC   C3A16817  26.932   7.218   7.838
  991POPC   C4A16818  27.117   7.313   7.447
  991POPC   C1B16819  26.750   7.646   8.602
  991POPC   C2B16820  26.529   7.529   8.216
  991POPC   C3B16821  26.565   7.639   7.793
  991POPC   C4B16822  26.842   7.725   7.447
  992POPC   NC316823   5.550  13.883   9.479
  992POPC   PO416824   6.177  13.661   9.542
  992POPC   GL116825   5.924  13.699   9.171
  992POPC   GL216826   6.142  13.962   9.091
  992POPC   C1A16827   5.729  13.711   8.744
  992POPC   D2A16828   5.505  13.747   8.327
  992POPC   C3A16829   5.467  13.358   8.089
  992POPC   C4A16830   5.727  13.301   7.695
  992POPC   C1B16831   6.048  14.102   8.699
  992POPC   C2B16832   6.011  13.874   8.338
  992POPC   C3B16833   5.932  13.623   8.012
  992POPC   C4B16834   5.984  13.735   7.580
  993POPC   NC316835  14.037   1.693   9.782
  993POPC   PO416836  14.450   2.165   9.753
  993POPC   GL116837  14.483   2.019   9.241
  993POPC   GL216838  14.475   1.754   9.021
  993POPC   C1A16839  14.274   2.177   8.801
  993POPC   D2A16840  14.106   2.111   8.352
  993POPC   C3A16841  14.389   2.201   7.959
  993POPC   C4A16842  14.752   1.948   7.799
  993POPC   C1B16843  14.357   1.709   8.575
  993POPC   C2B16844  14.409   1.712   8.128
  993POPC   C3B16845  14.342   1.673   7.667
  993POPC   C4B16846  13.991   1.736   7.381
  994POPC   NC316847  35.919  25.507   9.233
  994POPC   PO416848  36.242  25.095   9.702
  994POPC   GL116849  36.260  25.083   9.268
  994POPC   GL216850  36.396  25.369   9.078
  994POPC   C1A16851  36.390  24.883   8.889
  994POPC   D2A16852  36.550  25.080   8.513
  994POPC   C3A16853  36.232  25.164   8.200
  994POPC   C4A16854  36.164  25.134   7.771
  994POPC   C1B16855  36.237  25.485   8.650
  994POPC   C2B16856  36.149  25.662   8.219
  994POPC   C3B16857  35.912  25.554   7.857
  994POPC   C4B16858  35.828  25.575   7.429
  995POPC   NC316859  40.193  10.021   9.627
  995POPC   PO416860  39.652   9.673   9.520
  995POPC   GL116861  39.915   9.873   9.216
  995POPC   GL216862  40.180   9.637   9.245
  995POPC   C1A16863  40.069   9.941   8.804
  995POPC   D2A16864  39.954  10.089   8.411
  995POPC   C3A16865  39.984   9.838   8.057
  995POPC   C4A16866  39.784   9.982   7.671
  995POPC   C1B16867  40.348   9.499   8.856
  995POPC   C2B16868  40.225   9.576   8.451
  995POPC   C3B16869  40.375   9.492   8.050
  995POPC   C4B16870  40.399   9.452   7.623
  996POPC   NC316871  26.845  21.601   9.483
  996POPC   PO416872  26.986  20.947   9.609
  996POPC   GL116873  26.863  21.114   9.156
  996POPC   GL216874  26.880  21.445   9.018
  996POPC   C1A16875  26.910  21.103   8.671
  996POPC   D2A16876  27.089  21.387   8.327
  996POPC   C3A16877  26.917  21.225   7.978
  996POPC   C4A16878  26.501  21.066   7.963
  996POPC   C1B16879  26.531  21.684   8.855
  996POPC   C2B16880  26.623  21.849   8.480
  996POPC   C3B16881  26.646  21.692   8.072
  996POPC   C4B16882  26.555  21.958   7.746
  997POPC   NC316883  44.284  26.412   9.498
  997POPC   PO416884  43.702  26.024   9.642
  997POPC   GL116885  43.897  26.104   9.270
  997POPC   GL216886  43.553  26.045   9.169
  997POPC   C1A16887  44.122  26.086   8.877
  997POPC   D2A16888  44.086  25.895   8.472
  997POPC   C3A16889  44.188  26.131   8.111
  997POPC   C4A16890  44.058  25.925   7.730
  997POPC   C1B16891  43.642  25.939   8.782
  997POPC   C2B16892  43.452  26.049   8.416
  997POPC   C3B16893  43.665  26.065   8.057
  997POPC   C4B16894  43.524  25.942   7.668
  998POPC   NC316895   8.962   6.040   9.631
  998POPC   PO416896   8.626   6.710   9.457
  998POPC   GL116897   8.700   6.646   9.011
  998POPC   GL216898   8.798   6.299   8.883
  998POPC   C1A16899   8.760   6.867   8.643
  998POPC   D2A16900   9.010   6.801   8.297
  998POPC   C3A16901   8.824   6.561   8.004
  998POPC   C4A16902   8.712   6.859   7.706
  998POPC   C1B16903   9.170   6.534   8.709
  998POPC   C2B16904   9.464   6.548   8.395
  998POPC   C3B16905   9.358   6.604   7.979
  998POPC   C4B16906   9.114   6.552   7.601
  999POPC   NC316907  15.117   6.265   9.721
  999POPC   PO416908  15.376   5.807   9.349
  999POPC   GL116909  15.066   5.736   9.113
  999POPC   GL216910  14.837   5.998   9.154
  999POPC   C1A16911  15.198   5.541   8.728
  999POPC   D2A16912  15.283   5.739   8.353
  999POPC   C3A16913  15.323   5.652   7.934
  999POPC   C4A16914  15.051   5.806   7.640
  999POPC   C1B16915  15.063   6.047   8.741
  999POPC   C2B16916  15.045   6.258   8.400
  999POPC   C3B16917  15.159   6.114   8.039
  999POPC   C4B16918  15.347   6.216   7.707
 1000POPC   NC316919  10.901   5.871   9.813
 1000POPC   PO416920  10.333   5.737   9.668
 1000POPC   GL116921  10.357   5.857   9.272
 1000POPC   GL216922  10.713   5.836   9.256
 1000POPC   C1A16923  10.225   5.745   8.867
 1000POPC   D2A16924  10.305   5.759   8.423
 1000POPC   C3A16925  10.024   5.813   8.064
 1000POPC   C4A16926  10.143   6.187   7.874
 1000POPC   C1B16927  10.709   5.979   8.803
 1000POPC   C2B16928  10.821   6.179   8.375
 1000POPC   C3B16929  10.867   6.071   7.906
 1000POPC   C4B16930  10.828   5.693   7.612
 1001POPC   NC316931   5.185   1.136   9.532
 1001POPC   PO416932   5.348   1.740   9.361
 1001POPC   GL116933   5.032   1.536   9.083
 1001POPC   GL216934   4.983   1.180   9.054
 1001POPC   C1A16935   5.039   1.425   8.629
 1001POPC   D2A16936   5.056   1.161   8.264
 1001POPC   C3A16937   5.059   1.415   7.908
 1001POPC   C4A16938   5.227   1.513   7.533
 1001POPC   C1B16939   5.255   0.885   8.800
 1001POPC   C2B16940   5.387   0.705   8.384
 1001POPC   C3B16941   5.283   0.802   7.953
 1001POPC   C4B16942   4.886   0.941   7.821
 1002POPC   NC316943  11.523   7.984   9.319
 1002POPC   PO416944  11.041   8.385   9.603
 1002POPC   GL116945  11.054   8.252   9.171
 1002POPC   GL216946  11.075   7.909   9.073
 1002POPC   C1A16947  11.264   8.308   8.771
 1002POPC   D2A16948  11.174   8.576   8.433
 1002POPC   C3A16949  11.329   8.476   8.029
 1002POPC   C4A16950  11.110   8.336   7.691
 1002POPC   C1B16951  11.362   7.779   8.704
 1002POPC   C2B16952  11.588   7.852   8.318
 1002POPC   C3B16953  11.527   7.992   7.917
 1002POPC   C4B16954  11.272   7.819   7.651
 1003POPC   NC316955  34.595  39.215   9.550
 1003POPC   PO416956  34.056  38.831   9.425
 1003POPC   GL116957  34.375  38.999   9.110
 1003POPC   GL216958  34.741  39.043   9.102
 1003POPC   C1A16959  34.518  39.094   8.646
 1003POPC   D2A16960  34.755  39.396   8.360
 1003POPC   C3A16961  34.530  39.392   7.955
 1003POPC   C4A16962  34.261  39.032   7.822
 1003POPC   C1B16963  34.999  38.983   8.745
 1003POPC   C2B16964  35.075  38.977   8.357
 1003POPC   C3B16965  35.054  39.195   7.988
 1003POPC   C4B16966  34.825  39.114   7.646
 1004POPC   NC316967  31.256   4.954   9.447
 1004POPC   PO416968  31.595   5.537   9.570
 1004POPC   GL116969  31.466   5.514   9.136
 1004POPC   GL216970  31.195   5.282   9.068
 1004POPC   C1A16971  31.683   5.388   8.742
 1004POPC   D2A16972  31.803   5.109   8.384
 1004POPC   C3A16973  31.482   4.959   8.117
 1004POPC   C4A16974  31.573   4.813   7.706
 1004POPC   C1B16975  31.151   5.515   8.695
 1004POPC   C2B16976  31.147   5.631   8.273
 1004POPC   C3B16977  31.247   5.398   7.906
 1004POPC   C4B16978  31.071   5.012   7.762
 1005POPC   NC316979  10.099  40.285   9.526
 1005POPC   PO416980  10.751  40.244   9.550
 1005POPC   GL116981  10.478  40.098   9.246
 1005POPC   GL216982  10.503  39.799   9.258
 1005POPC   C1A16983  10.356  40.227   8.828
 1005POPC   D2A16984  10.513  40.391   8.436
 1005POPC   C3A16985  10.396  40.242   8.070
 1005POPC   C4A16986  10.478  40.148   7.666
 1005POPC   C1B16987  10.518  39.720   8.837
 1005POPC   C2B16988  10.477  39.875   8.429
 1005POPC   C3B16989  10.736  39.861   8.060
 1005POPC   C4B16990  10.587  39.643   7.732
 1006POPC   NC316991  42.451  38.077   9.498
 1006POPC   PO416992  42.236  38.665   9.528
 1006POPC   GL116993  42.289  38.549   9.142
 1006POPC   GL216994  42.086  38.224   9.152
 1006POPC   C1A16995  42.234  38.812   8.757
 1006POPC   D2A16996  41.962  38.756   8.406
 1006POPC   C3A16997  42.202  38.778   8.012
 1006POPC   C4A16998  42.133  38.653   7.593
 1006POPC   C1B16999  42.157  38.328   8.717
 1006POPC   C2B17000  42.357  38.389   8.306
 1006POPC   C3B17001  42.241  38.246   7.904
 1006POPC   C4B17002  42.362  38.234   7.406
 1007POPC   NC317003   1.009  26.315   9.390
 1007POPC   PO417004   1.120  25.627   9.533
 1007POPC   GL117005   1.491  25.806   9.254
 1007POPC   GL217006   1.324  26.043   9.123
 1007POPC   C1A17007   1.675  25.917   8.793
 1007POPC   D2A17008   1.606  26.150   8.367
 1007POPC   C3A17009   1.625  25.899   7.973
 1007POPC   C4A17010   1.295  25.911   7.653
 1007POPC   C1B17011   1.175  26.112   8.703
 1007POPC   C2B17012   1.057  26.280   8.305
 1007POPC   C3B17013   0.959  26.288   7.877
 1007POPC   C4B17014   1.198  26.451   7.556
 1008POPC   NC317015  41.979  10.992   9.694
 1008POPC   PO417016  41.395  11.114   9.354
 1008POPC   GL117017  41.492  11.175   8.977
 1008POPC   GL217018  41.470  11.512   8.973
 1008POPC   C1A17019  41.644  11.055   8.575
 1008POPC   D2A17020  41.977  11.237   8.360
 1008POPC   C3A17021  41.984  11.100   7.957
 1008POPC   C4A17022  41.839  10.880   7.623
 1008POPC   C1B17023  41.343  11.473   8.579
 1008POPC   C2B17024  41.599  11.608   8.271
 1008POPC   C3B17025  41.582  11.413   7.897
 1008POPC   C4B17026  41.189  11.277   7.747
 1009POPC   NC317027  34.306  35.008   9.440
 1009POPC   PO417028  34.256  35.657   9.568
 1009POPC   GL117029  34.327  35.444   9.168
 1009POPC   GL217030  34.617  35.248   9.090
 1009POPC   C1A17031  34.205  35.286   8.764
 1009POPC   D2A17032  34.210  35.470   8.346
 1009POPC   C3A17033  34.554  35.339   8.064
 1009POPC   C4A17034  34.528  35.298   7.608
 1009POPC   C1B17035  34.827  35.502   8.767
 1009POPC   C2B17036  34.984  35.348   8.388
 1009POPC   C3B17037  35.102  35.050   8.090
 1009POPC   C4B17038  34.771  34.907   7.827
 1010POPC   NC317039  25.848   6.664   9.915
 1010POPC   PO417040  25.240   6.591   9.527
 1010POPC   GL117041  25.274   6.689   9.107
 1010POPC   GL217042  25.482   7.018   9.176
 1010POPC   C1A17043  25.223   6.512   8.693
 1010POPC   D2A17044  25.491   6.410   8.345
 1010POPC   C3A17045  25.256   6.525   7.971
 1010POPC   C4A17046  25.152   6.851   7.676
 1010POPC   C1B17047  25.553   6.907   8.753
 1010POPC   C2B17048  25.747   6.854   8.357
 1010POPC   C3B17049  25.656   6.923   7.908
 1010POPC   C4B17050  25.630   6.807   7.476
 1011POPC   NC317051  25.718  18.552   9.511
 1011POPC   PO417052  26.406  18.576   9.513
 1011POPC   GL117053  26.116  18.256   9.240
 1011POPC   GL217054  25.769  18.242   9.102
 1011POPC   C1A17055  26.121  18.319   8.757
 1011POPC   D2A17056  26.091  18.633   8.426
 1011POPC   C3A17057  26.239  18.460   8.035
 1011POPC   C4A17058  26.134  18.208   7.623
 1011POPC   C1B17059  25.735  17.988   8.721
 1011POPC   C2B17060  25.735  18.204   8.357
 1011POPC   C3B17061  25.931  18.046   8.047
 1011POPC   C4B17062  25.839  17.805   7.710
 1012POPC   NC317063  21.180  38.807   9.549
 1012POPC   PO417064  21.508  39.365   9.440
 1012POPC   GL117065  21.447  39.073   9.155
 1012POPC   GL217066  21.102  39.040   9.087
 1012POPC   C1A17067  21.611  38.882   8.750
 1012POPC   D2A17068  21.826  39.035   8.363
 1012POPC   C3A17069  21.598  39.051   7.980
 1012POPC   C4A17070  21.390  39.012   7.590
 1012POPC   C1B17071  21.295  39.287   8.732
 1012POPC   C2B17072  21.436  39.387   8.326
 1012POPC   C3B17073  21.179  39.348   7.945
 1012POPC   C4B17074  20.794  39.523   7.815
 1013POPC   NC317075  17.201   4.422   9.387
 1013POPC   PO417076  17.822   4.198   9.648
 1013POPC   GL117077  17.712   4.128   9.204
 1013POPC   GL217078  17.617   4.471   9.061
 1013POPC   C1A17079  17.893   4.130   8.759
 1013POPC   D2A17080  17.828   4.382   8.368
 1013POPC   C3A17081  17.424   4.218   8.165
 1013POPC   C4A17082  17.443   4.019   7.745
 1013POPC   C1B17083  17.497   4.663   8.645
 1013POPC   C2B17084  17.471   4.724   8.161
 1013POPC   C3B17085  17.293   4.617   7.728
 1013POPC   C4B17086  17.036   4.793   7.368
 1014POPC   NC317087   7.540  33.517   9.533
 1014POPC   PO417088   7.684  32.877   9.422
 1014POPC   GL117089   7.422  33.101   9.130
 1014POPC   GL217090   7.189  33.361   9.188
 1014POPC   C1A17091   7.456  33.084   8.711
 1014POPC   D2A17092   7.656  33.226   8.365
 1014POPC   C3A17093   7.441  33.049   7.991
 1014POPC   C4A17094   7.559  32.926   7.565
 1014POPC   C1B17095   7.034  33.348   8.796
 1014POPC   C2B17096   7.177  33.376   8.390
 1014POPC   C3B17097   7.069  33.387   7.966
 1014POPC   C4B17098   7.203  33.277   7.566
 1015POPC   NC317099   6.417  23.452   9.408
 1015POPC   PO417100   7.015  23.741   9.475
 1015POPC   GL117101   6.744  23.741   9.098
 1015POPC   GL217102   6.672  23.425   8.967
 1015POPC   C1A17103   6.725  23.805   8.652
 1015POPC   D2A17104   6.532  23.511   8.390
 1015POPC   C3A17105   6.698  23.560   8.028
 1015POPC   C4A17106   6.928  23.802   7.753
 1015POPC   C1B17107   6.240  23.549   8.797
 1015POPC   C2B17108   6.036  23.672   8.419
 1015POPC   C3B17109   6.171  23.602   7.997
 1015POPC   C4B17110   6.386  23.869   7.711
 1016POPC   NC317111  23.374  21.082   9.574
 1016POPC   PO417112  22.987  21.729   9.478
 1016POPC   GL117113  22.844  21.548   9.114
 1016POPC   GL217114  22.982  21.269   9.215
 1016POPC   C1A17115  22.937  21.566   8.666
 1016POPC   D2A17116  22.912  21.675   8.212
 1016POPC   C3A17117  23.017  21.355   7.865
 1016POPC   C4A17118  23.213  21.257   7.430
 1016POPC   C1B17119  22.849  21.082   8.856
 1016POPC   C2B17120  23.086  21.058   8.481
 1016POPC   C3B17121  22.873  20.835   8.177
 1016POPC   C4B17122  22.632  20.951   7.840
 1017POPC   NC317123  10.045  20.482   9.520
 1017POPC   PO417124  10.604  20.840   9.698
 1017POPC   GL117125  10.533  20.586   9.275
 1017POPC   GL217126  10.306  20.316   9.114
 1017POPC   C1A17127  10.502  20.717   8.822
 1017POPC   D2A17128  10.446  20.658   8.373
 1017POPC   C3A17129  10.667  20.868   8.075
 1017POPC   C4A17130  10.667  20.806   7.650
 1017POPC   C1B17131  10.265  20.111   8.697
 1017POPC   C2B17132  10.242  20.210   8.221
 1017POPC   C3B17133  10.319  20.506   7.870
 1017POPC   C4B17134  10.194  20.718   7.464
 1018POPC   NC317135  16.148  40.482   9.452
 1018POPC   PO417136  16.284  39.755   9.578
 1018POPC   GL117137  16.036  40.005   9.275
 1018POPC   GL217138  16.226  39.915   9.055
 1018POPC   C1A17139  15.816  40.094   8.832
 1018POPC   D2A17140  15.754  39.925   8.392
 1018POPC   C3A17141  15.798  40.106   7.949
 1018POPC   C4A17142  15.672  39.890   7.547
 1018POPC   C1B17143  16.284  40.094   8.651
 1018POPC   C2B17144  16.228  40.185   8.264
 1018POPC   C3B17145  16.302  40.079   7.868
 1018POPC   C4B17146  16.204  40.364   7.545
 1019POPC   NC317147  32.025   2.082   9.485
 1019POPC   PO417148  32.427   1.551   9.524
 1019POPC   GL117149  32.359   1.794   9.162
 1019POPC   GL217150  32.312   2.166   9.079
 1019POPC   C1A17151  32.181   1.780   8.752
 1019POPC   D2A17152  32.132   2.203   8.554
 1019POPC   C3A17153  32.152   2.262   8.105
 1019POPC   C4A17154  32.204   2.072   7.695
 1019POPC   C1B17155  32.611   2.034   8.753
 1019POPC   C2B17156  32.507   1.916   8.317
 1019POPC   C3B17157  32.656   2.078   7.934
 1019POPC   C4B17158  32.694   2.057   7.468
 1020POPC   NC317159   0.085  38.714   9.317
 1020POPC   PO417160   0.487  38.361   9.739
 1020POPC   GL117161   0.543  38.568   9.207
 1020POPC   GL217162   0.384  38.308   8.947
 1020POPC   C1A17163   0.475  38.718   8.701
 1020POPC   D2A17164   0.399  38.339   8.437
 1020POPC   C3A17165   0.505  38.286   8.025
 1020POPC   C4A17166   0.282  38.125   7.717
 1020POPC   C1B17167   0.007  38.522   8.732
 1020POPC   C2B17168   0.006  38.715   8.396
 1020POPC   C3B17169  44.988  38.456   8.069
 1020POPC   C4B17170   0.168  38.611   7.752
 1021POPC   NC317171  18.847  15.797   9.793
 1021POPC   PO417172  19.253  16.263   9.553
 1021POPC   GL117173  19.154  16.108   9.181
 1021POPC   GL217174  19.093  15.772   9.182
 1021POPC   C1A17175  19.059  16.180   8.768
 1021POPC   D2A17176  19.017  16.381   8.382
 1021POPC   C3A17177  19.157  16.127   8.097
 1021POPC   C4A17178  18.875  16.039   7.782
 1021POPC   C1B17179  18.878  15.705   8.815
 1021POPC   C2B17180  18.896  15.791   8.382
 1021POPC   C3B17181  19.088  15.616   7.998
 1021POPC   C4B17182  18.936  15.556   7.577
 1022POPC   NC317183  34.366  19.143   9.422
 1022POPC   PO417184  34.931  18.770   9.454
 1022POPC   GL117185  34.814  19.097   9.134
 1022POPC   GL217186  34.488  19.111   8.933
 1022POPC   C1A17187  34.959  19.236   8.740
 1022POPC   D2A17188  34.683  19.173   8.389
 1022POPC   C3A17189  34.814  18.992   7.982
 1022POPC   C4A17190  34.697  19.187   7.569
 1022POPC   C1B17191  34.132  19.314   8.705
 1022POPC   C2B17192  34.104  19.481   8.285
 1022POPC   C3B17193  34.407  19.321   7.981
 1022POPC   C4B17194  34.328  18.917   7.807
 1023POPC   NC317195  18.409  24.183   9.599
 1023POPC   PO417196  18.137  23.564   9.422
 1023POPC   GL117197  18.159  23.668   8.987
 1023POPC   GL217198  18.448  23.599   8.767
 1023POPC   C1A17199  17.998  23.763   8.583
 1023POPC   D2A17200  18.087  23.544   8.213
 1023POPC   C3A17201  18.353  23.709   7.962
 1023POPC   C4A17202  18.507  23.912   7.614
 1023POPC   C1B17203  18.478  23.912   8.446
 1023POPC   C2B17204  18.165  24.110   8.221
 1023POPC   C3B17205  18.078  24.115   7.791
 1023POPC   C4B17206  18.310  24.319   7.403
 1024POPC   NC317207  32.754  29.696   9.506
 1024POPC   PO417208  32.932  29.011   9.607
 1024POPC   GL117209  32.944  29.266   9.263
 1024POPC   GL217210  33.247  29.385   9.174
 1024POPC   C1A17211  32.914  29.187   8.807
 1024POPC   D2A17212  33.136  28.910   8.522
 1024POPC   C3A17213  33.144  28.975   8.066
 1024POPC   C4A17214  32.970  29.331   7.824
 1024POPC   C1B17215  33.457  29.351   8.770
 1024POPC   C2B17216  33.684  29.560   8.408
 1024POPC   C3B17217  33.567  29.489   7.957
 1024POPC   C4B17218  33.415  29.202   7.637
 1025POPC   NC317219  24.806  31.618   9.523
 1025POPC   PO417220  24.504  30.973   9.646
 1025POPC   GL117221  24.405  31.117   9.158
 1025POPC   GL217222  24.391  31.467   9.138
 1025POPC   C1A17223  24.658  31.292   8.755
 1025POPC   D2A17224  24.664  31.518   8.326
 1025POPC   C3A17225  24.640  31.288   7.901
 1025POPC   C4A17226  24.313  31.183   7.569
 1025POPC   C1B17227  24.365  31.735   8.733
 1025POPC   C2B17228  24.323  31.894   8.285
 1025POPC   C3B17229  24.416  31.770   7.876
 1025POPC   C4B17230  24.230  31.674   7.487
 1026POPC   NC317231  41.952  28.381   9.571
 1026POPC   PO417232  42.591  28.168   9.511
 1026POPC   GL117233  42.353  28.450   9.214
 1026POPC   GL217234  42.102  28.277   9.124
 1026POPC   C1A17235  42.153  28.673   8.834
 1026POPC   D2A17236  42.089  28.901   8.472
 1026POPC   C3A17237  41.988  28.716   8.053
 1026POPC   C4A17238  42.212  28.699   7.676
 1026POPC   C1B17239  42.297  28.190   8.744
 1026POPC   C2B17240  42.308  28.419   8.342
 1026POPC   C3B17241  42.289  28.263   7.908
 1026POPC   C4B17242  42.247  28.236   7.422
 1027POPC   NC317243  35.662  35.203   9.560
 1027POPC   PO417244  35.005  35.424   9.385
 1027POPC   GL117245  35.304  35.408   9.073
 1027POPC   GL217246  35.530  35.127   9.054
 1027POPC   C1A17247  35.406  35.530   8.651
 1027POPC   D2A17248  35.504  35.342   8.267
 1027POPC   C3A17249  35.397  35.507   7.874
 1027POPC   C4A17250  35.013  35.367   7.704
 1027POPC   C1B17251  35.691  34.967   8.635
 1027POPC   C2B17252  35.812  34.964   8.178
 1027POPC   C3B17253  35.675  35.087   7.754
 1027POPC   C4B17254  35.658  34.825   7.344
 1028POPC   NC317255  19.627  10.333   9.559
 1028POPC   PO417256  19.597  10.956   9.508
 1028POPC   GL117257  19.781  10.776   9.143
 1028POPC   GL217258  19.830  10.424   9.094
 1028POPC   C1A17259  19.661  10.833   8.706
 1028POPC   D2A17260  19.618  11.032   8.280
 1028POPC   C3A17261  19.693  10.685   7.980
 1028POPC   C4A17262  19.703  10.252   7.797
 1028POPC   C1B17263  19.547  10.311   8.736
 1028POPC   C2B17264  19.616  10.141   8.323
 1028POPC   C3B17265  19.748   9.815   8.061
 1028POPC   C4B17266  19.642   9.755   7.649
 1029POPC   NC317267   6.458  16.846   9.354
 1029POPC   PO417268   6.985  16.769   9.721
 1029POPC   GL117269   6.892  16.661   9.208
 1029POPC   GL217270   6.685  16.399   9.110
 1029POPC   C1A17271   6.645  16.764   8.759
 1029POPC   D2A17272   6.293  16.873   8.525
 1029POPC   C3A17273   6.385  16.907   8.094
 1029POPC   C4A17274   6.771  16.950   7.794
 1029POPC   C1B17275   7.020  16.452   8.758
 1029POPC   C2B17276   7.005  16.550   8.356
 1029POPC   C3B17277   6.734  16.505   8.045
 1029POPC   C4B17278   6.422  16.534   7.720
 1030POPC   NC317279   1.676  18.319   9.132
 1030POPC   PO417280   2.248  18.324   9.438
 1030POPC   GL117281   2.225  18.295   9.004
 1030POPC   GL217282   2.078  17.967   9.055
 1030POPC   C1A17283   2.057  18.437   8.585
 1030POPC   D2A17284   1.863  18.410   8.170
 1030POPC   C3A17285   2.181  18.324   7.835
 1030POPC   C4A17286   2.133  18.425   7.360
 1030POPC   C1B17287   2.223  17.894   8.638
 1030POPC   C2B17288   2.113  17.978   8.229
 1030POPC   C3B17289   1.798  17.954   7.909
 1030POPC   C4B17290   1.954  17.985   7.484
 1031POPC   NC317291   6.837  24.804   9.430
 1031POPC   PO417292   6.823  25.485   9.496
 1031POPC   GL117293   6.614  25.275   9.167
 1031POPC   GL217294   6.419  24.996   9.180
 1031POPC   C1A17295   6.486  25.447   8.795
 1031POPC   D2A17296   6.588  25.551   8.406
 1031POPC   C3A17297   6.354  25.691   8.072
 1031POPC   C4A17298   6.511  25.484   7.713
 1031POPC   C1B17299   6.486  24.817   8.769
 1031POPC   C2B17300   6.592  25.034   8.393
 1031POPC   C3B17301   6.611  25.025   7.949
 1031POPC   C4B17302   6.369  24.775   7.659
 1032POPC   NC317303  26.676   9.045   9.622
 1032POPC   PO417304  27.214   8.698   9.502
 1032POPC   GL117305  26.940   8.944   9.204
 1032POPC   GL217306  26.625   9.179   9.138
 1032POPC   C1A17307  26.788   8.804   8.832
 1032POPC   D2A17308  26.609   8.824   8.451
 1032POPC   C3A17309  26.820   9.045   8.178
 1032POPC   C4A17310  26.827   8.992   7.768
 1032POPC   C1B17311  26.635   9.290   8.684
 1032POPC   C2B17312  26.400   9.305   8.284
 1032POPC   C3B17313  26.424   9.328   7.814
 1032POPC   C4B17314  26.179   9.374   7.429
 1033POPC   NC317315  28.038  42.662  10.006
 1033POPC   PO417316  28.473  42.755   9.470
 1033POPC   GL117317  28.470  42.655   9.078
 1033POPC   GL217318  28.245  42.367   9.046
 1033POPC   C1A17319  28.364  42.736   8.698
 1033POPC   D2A17320  28.235  42.521   8.360
 1033POPC   C3A17321  28.597  42.467   8.135
 1033POPC   C4A17322  28.698  42.578   7.728
 1033POPC   C1B17323  27.886  42.449   8.772
 1033POPC   C2B17324  27.717  42.426   8.368
 1033POPC   C3B17325  27.877  42.573   7.992
 1033POPC   C4B17326  28.216  42.403   7.808
 1034POPC   NC317327   0.489  17.668   9.520
 1034POPC   PO417328  44.941  17.873   9.219
 1034POPC   GL117329   0.314  17.647   9.048
 1034POPC   GL217330   0.357  17.291   9.106
 1034POPC   C1A17331   0.505  17.601   8.651
 1034POPC   D2A17332   0.233  17.561   8.309
 1034POPC   C3A17333   0.357  17.457   7.928
 1034POPC   C4A17334   0.461  17.628   7.530
 1034POPC   C1B17335   0.625  17.120   8.804
 1034POPC   C2B17336   0.619  17.175   8.341
 1034POPC   C3B17337   0.732  16.989   7.952
 1034POPC   C4B17338   0.566  17.109   7.572
 1035POPC   NC317339   2.624  18.083   9.346
 1035POPC   PO417340   3.237  18.332   9.399
 1035POPC   GL117341   3.020  18.175   9.063
 1035POPC   GL217342   2.832  18.472   9.072
 1035POPC   C1A17343   2.651  18.172   8.725
 1035POPC   D2A17344   2.487  18.309   8.349
 1035POPC   C3A17345   2.604  18.061   8.015
 1035POPC   C4A17346   2.964  18.128   7.726
 1035POPC   C1B17347   3.059  18.480   8.666
 1035POPC   C2B17348   3.046  18.323   8.250
 1035POPC   C3B17349   3.198  18.550   7.903
 1035POPC   C4B17350   3.340  18.459   7.479
 1036POPC   NC317351  26.822  23.866   9.675
 1036POPC   PO417352  26.324  23.482   9.740
 1036POPC   GL117353  26.678  23.491   9.343
 1036POPC   GL217354  26.852  23.821   9.177
 1036POPC   C1A17355  26.727  23.429   8.850
 1036POPC   D2A17356  26.556  23.600   8.436
 1036POPC   C3A17357  26.751  23.505   8.008
 1036POPC   C4A17358  26.598  23.584   7.567
 1036POPC   C1B17359  27.217  23.848   8.885
 1036POPC   C2B17360  27.328  23.889   8.439
 1036POPC   C3B17361  27.225  23.732   7.995
 1036POPC   C4B17362  26.958  23.928   7.642
 1037POPC   NC317363   3.322   8.417   9.699
 1037POPC   PO417364   3.246   7.839   9.368
 1037POPC   GL117365   3.440   8.132   9.087
 1037POPC   GL217366   3.415   8.465   9.198
 1037POPC   C1A17367   3.567   8.049   8.673
 1037POPC   D2A17368   3.835   8.037   8.325
 1037POPC   C3A17369   3.583   7.928   8.015
 1037POPC   C4A17370   3.221   8.045   7.804
 1037POPC   C1B17371   3.528   8.553   8.788
 1037POPC   C2B17372   3.564   8.456   8.346
 1037POPC   C3B17373   3.647   8.414   7.899
 1037POPC   C4B17374   3.293   8.524   7.607
 1038POPC   NC317375  35.583  42.589   9.472
 1038POPC   PO417376  35.011  42.110   9.428
 1038POPC   GL117377  35.313  42.129   9.063
 1038POPC   GL217378  35.653  42.285   9.057
 1038POPC   C1A17379  35.416  42.264   8.625
 1038POPC   D2A17380  35.268  42.627   8.414
 1038POPC   C3A17381  35.234  42.452   7.984
 1038POPC   C4A17382  35.295  41.967   7.925
 1038POPC   C1B17383  35.671  42.688   8.812
 1038POPC   C2B17384  35.813  42.670   8.393
 1038POPC   C3B17385  35.809  42.491   7.965
 1038POPC   C4B17386  35.701  42.740   7.616
 1039POPC   NC317387  32.530  25.638   9.567
 1039POPC   PO417388  32.135  25.054   9.425
 1039POPC   GL117389  32.477  25.215   9.179
 1039POPC   GL217390  32.377  25.553   9.082
 1039POPC   C1A17391  32.422  25.167   8.733
 1039POPC   D2A17392  32.415  24.920   8.380
 1039POPC   C3A17393  32.364  25.173   8.022
 1039POPC   C4A17394  32.576  25.204   7.652
 1039POPC   C1B17395  32.054  25.691   8.786
 1039POPC   C2B17396  31.895  25.784   8.381
 1039POPC   C3B17397  32.069  25.868   7.960
 1039POPC   C4B17398  32.194  25.557   7.683
 1040POPC   NC317399   6.884  39.326   9.447
 1040POPC   PO417400   6.847  38.711   9.496
 1040POPC   GL117401   6.697  38.960   9.122
 1040POPC   GL217402   6.480  39.301   9.130
 1040POPC   C1A17403   6.779  39.135   8.712
 1040POPC   D2A17404   7.018  39.431   8.440
 1040POPC   C3A17405   7.198  39.104   8.165
 1040POPC   C4A17406   6.952  38.938   7.813
 1040POPC   C1B17407   6.467  39.531   8.731
 1040POPC   C2B17408   6.527  39.383   8.300
 1040POPC   C3B17409   6.558  39.530   7.882
 1040POPC   C4B17410   6.321  39.348   7.497
 1041POPC   NC317411   2.635  36.690   9.450
 1041POPC   PO417412   2.412  37.227   9.458
 1041POPC   GL117413   2.580  37.005   9.061
 1041POPC   GL217414   2.907  36.848   9.049
 1041POPC   C1A17415   2.428  36.731   8.727
 1041POPC   D2A17416   2.339  36.774   8.290
 1041POPC   C3A17417   2.627  37.049   8.133
 1041POPC   C4A17418   3.039  37.184   7.971
 1041POPC   C1B17419   2.917  36.561   8.725
 1041POPC   C2B17420   2.789  36.567   8.304
 1041POPC   C3B17421   2.905  36.667   7.903
 1041POPC   C4B17422   2.909  36.368   7.584
 1042POPC   NC317423   8.763  18.323   9.520
 1042POPC   PO417424   9.292  18.696   9.508
 1042POPC   GL117425   9.273  18.418   9.148
 1042POPC   GL217426   9.044  18.142   9.132
 1042POPC   C1A17427   9.214  18.398   8.711
 1042POPC   D2A17428   9.086  18.658   8.363
 1042POPC   C3A17429   9.272  18.540   7.978
 1042POPC   C4A17430   9.039  18.303   7.727
 1042POPC   C1B17431   8.738  18.246   8.842
 1042POPC   C2B17432   8.506  18.278   8.494
 1042POPC   C3B17433   8.686  18.385   8.115
 1042POPC   C4B17434   8.549  18.234   7.715
 1043POPC   NC317435  39.618  42.707   9.266
 1043POPC   PO417436  40.180  42.381   9.514
 1043POPC   GL117437  39.978  42.307   9.116
 1043POPC   GL217438  40.003  42.606   8.963
 1043POPC   C1A17439  39.952  42.191   8.660
 1043POPC   D2A17440  39.751  42.237   8.240
 1043POPC   C3A17441  40.004  42.152   7.871
 1043POPC   C4A17442  39.822  42.206   7.436
 1043POPC   C1B17443  39.884  42.780   8.572
 1043POPC   C2B17444  39.577  42.737   8.233
 1043POPC   C3B17445  39.756  42.583   7.848
 1043POPC   C4B17446  40.141  42.573   7.593
 1044POPC   NC317447   7.958   5.459   9.366
 1044POPC   PO417448   8.580   5.788   9.424
 1044POPC   GL117449   8.272   5.800   9.135
 1044POPC   GL217450   8.081   6.093   9.298
 1044POPC   C1A17451   8.290   5.590   8.713
 1044POPC   D2A17452   8.415   5.785   8.307
 1044POPC   C3A17453   8.356   5.642   7.850
 1044POPC   C4A17454   8.269   5.964   7.494
 1044POPC   C1B17455   8.115   6.184   8.845
 1044POPC   C2B17456   8.042   6.255   8.390
 1044POPC   C3B17457   8.074   6.042   7.993
 1044POPC   C4B17458   7.795   5.839   7.698
 1045POPC   NC317459  37.320  40.308   9.473
 1045POPC   PO417460  36.884  39.788   9.450
 1045POPC   GL117461  36.834  39.905   9.047
 1045POPC   GL217462  36.967  40.210   9.118
 1045POPC   C1A17463  36.916  39.715   8.672
 1045POPC   D2A17464  36.709  39.828   8.359
 1045POPC   C3A17465  36.941  40.000   8.082
 1045POPC   C4A17466  36.869  39.938   7.692
 1045POPC   C1B17467  37.170  40.158   8.711
 1045POPC   C2B17468  37.213  40.393   8.318
 1045POPC   C3B17469  37.298  40.296   7.887
 1045POPC   C4B17470  37.114  40.340   7.515
 1046POPC   NC317471  18.852  16.500   9.485
 1046POPC   PO417472  19.333  16.968   9.410
 1046POPC   GL117473  19.233  16.636   9.151
 1046POPC   GL217474  18.891  16.742   9.056
 1046POPC   C1A17475  19.270  16.673   8.713
 1046POPC   D2A17476  19.108  16.879   8.341
 1046POPC   C3A17477  19.296  16.696   7.978
 1046POPC   C4A17478  19.258  16.373   7.681
 1046POPC   C1B17479  18.725  16.942   8.730
 1046POPC   C2B17480  18.589  16.830   8.332
 1046POPC   C3B17481  18.775  16.613   7.977
 1046POPC   C4B17482  18.932  16.753   7.589
 1047POPC   NC317483  13.103  18.643   9.690
 1047POPC   PO417484  12.895  18.043   9.486
 1047POPC   GL117485  12.801  18.003   9.079
 1047POPC   GL217486  12.832  17.683   8.966
 1047POPC   C1A17487  12.856  18.189   8.696
 1047POPC   D2A17488  13.140  18.344   8.424
 1047POPC   C3A17489  13.025  18.480   8.041
 1047POPC   C4A17490  13.277  18.255   7.813
 1047POPC   C1B17491  12.491  17.835   8.703
 1047POPC   C2B17492  12.629  17.957   8.291
 1047POPC   C3B17493  12.816  18.013   7.911
 1047POPC   C4B17494  12.634  18.308   7.684
 1048POPC   NC317495  15.730  29.022   9.567
 1048POPC   PO417496  16.374  29.304   9.524
 1048POPC   GL117497  16.101  29.234   9.133
 1048POPC   GL217498  15.792  29.425   9.083
 1048POPC   C1A17499  15.969  29.085   8.685
 1048POPC   D2A17500  15.942  28.974   8.235
 1048POPC   C3A17501  16.079  29.233   7.874
 1048POPC   C4A17502  16.085  28.985   7.464
 1048POPC   C1B17503  16.034  29.580   8.715
 1048POPC   C2B17504  15.843  29.470   8.284
 1048POPC   C3B17505  15.616  29.539   7.884
 1048POPC   C4B17506  15.541  29.429   7.429
 1049POPC   NC317507  35.143   3.268   9.685
 1049POPC   PO417508  35.455   3.825   9.686
 1049POPC   GL117509  35.354   3.559   9.276
 1049POPC   GL217510  35.083   3.302   9.181
 1049POPC   C1A17511  35.443   3.395   8.839
 1049POPC   D2A17512  35.442   3.574   8.440
 1049POPC   C3A17513  35.384   3.377   8.046
 1049POPC   C4A17514  35.293   3.508   7.632
 1049POPC   C1B17515  34.918   3.304   8.764
 1049POPC   C2B17516  35.026   3.220   8.368
 1049POPC   C3B17517  34.964   3.012   7.979
 1049POPC   C4B17518  35.256   3.016   7.686
 1050POPC   NC317519  12.542  30.519   9.437
 1050POPC   PO417520  13.240  30.513   9.478
 1050POPC   GL117521  13.043  30.762   9.165
 1050POPC   GL217522  12.683  30.851   9.113
 1050POPC   C1A17523  12.979  30.653   8.730
 1050POPC   D2A17524  12.986  30.468   8.318
 1050POPC   C3A17525  13.023  30.799   8.007
 1050POPC   C4A17526  12.972  30.626   7.605
 1050POPC   C1B17527  12.478  30.747   8.733
 1050POPC   C2B17528  12.620  30.818   8.330
 1050POPC   C3B17529  12.562  30.661   7.901
 1050POPC   C4B17530  12.502  30.746   7.452
 1051POPC   NC317531  29.051  32.104   9.682
 1051POPC   PO417532  29.573  32.470   9.568
 1051POPC   GL117533  29.370  32.139   9.265
 1051POPC   GL217534  28.992  32.066   9.177
 1051POPC   C1A17535  29.287  32.304   8.839
 1051POPC   D2A17536  29.298  32.167   8.434
 1051POPC   C3A17537  29.067  32.380   8.155
 1051POPC   C4A17538  29.297  32.337   7.768
 1051POPC   C1B17539  28.913  31.943   8.743
 1051POPC   C2B17540  28.774  31.991   8.309
 1051POPC   C3B17541  28.914  32.021   7.861
 1051POPC   C4B17542  29.010  32.073   7.371
 1052POPC   NC317543   7.805  20.480   9.295
 1052POPC   PO417544   7.229  20.916   9.461
 1052POPC   GL117545   7.371  20.743   9.089
 1052POPC   GL217546   7.100  20.501   9.073
 1052POPC   C1A17547   7.439  20.516   8.689
 1052POPC   D2A17548   7.166  20.327   8.366
 1052POPC   C3A17549   7.411  20.281   7.999
 1052POPC   C4A17550   7.692  20.549   7.744
 1052POPC   C1B17551   6.942  20.677   8.713
 1052POPC   C2B17552   7.153  20.847   8.374
 1052POPC   C3B17553   7.289  20.781   7.977
 1052POPC   C4B17554   7.219  20.573   7.560
 1053POPC   NC317555  34.953   4.480   9.373
 1053POPC   PO417556  35.632   4.319   9.695
 1053POPC   GL117557  35.538   4.310   9.199
 1053POPC   GL217558  35.297   4.074   9.228
 1053POPC   C1A17559  35.374   4.472   8.771
 1053POPC   D2A17560  35.195   4.636   8.364
 1053POPC   C3A17561  35.213   4.384   7.987
 1053POPC   C4A17562  35.310   4.493   7.507
 1053POPC   C1B17563  35.510   3.979   8.819
 1053POPC   C2B17564  35.345   4.080   8.409
 1053POPC   C3B17565  35.309   3.887   7.997
 1053POPC   C4B17566  35.292   4.001   7.556
 1054POPC   NC317567  26.061  29.549   9.638
 1054POPC   PO417568  26.320  30.275   9.650
 1054POPC   GL117569  26.124  30.208   9.205
 1054POPC   GL217570  25.994  29.867   9.191
 1054POPC   C1A17571  25.979  30.165   8.748
 1054POPC   D2A17572  25.810  30.059   8.341
 1054POPC   C3A17573  26.082  30.165   8.022
 1054POPC   C4A17574  25.960  30.071   7.608
 1054POPC   C1B17575  26.086  29.670   8.784
 1054POPC   C2B17576  26.265  29.824   8.396
 1054POPC   C3B17577  26.068  29.647   8.044
 1054POPC   C4B17578  26.141  29.497   7.646
 1055POPC   NC317579  38.498  34.444   9.667
 1055POPC   PO417580  37.965  34.767   9.754
 1055POPC   GL117581  38.428  34.840   9.379
 1055POPC   GL217582  38.396  34.524   9.167
 1055POPC   C1A17583  38.517  34.881   8.849
 1055POPC   D2A17584  38.473  34.951   8.374
 1055POPC   C3A17585  38.407  34.637   8.012
 1055POPC   C4A17586  38.508  34.606   7.540
 1055POPC   C1B17587  38.434  34.149   8.881
 1055POPC   C2B17588  38.554  33.964   8.454
 1055POPC   C3B17589  38.572  34.136   8.025
 1055POPC   C4B17590  38.266  34.218   7.714
 1056POPC   NC317591  17.446  41.861   9.935
 1056POPC   PO417592  17.357  41.226   9.509
 1056POPC   GL117593  17.514  41.482   9.157
 1056POPC   GL217594  17.879  41.615   9.139
 1056POPC   C1A17595  17.275  41.767   8.848
 1056POPC   D2A17596  17.387  41.928   8.422
 1056POPC   C3A17597  17.307  41.793   7.957
 1056POPC   C4A17598  17.204  41.897   7.500
 1056POPC   C1B17599  17.715  41.557   8.694
 1056POPC   C2B17600  17.549  41.455   8.284
 1056POPC   C3B17601  17.760  41.474   7.894
 1056POPC   C4B17602  18.033  41.517   7.521
 1057POPC   NC317603  27.929  36.283   9.471
 1057POPC   PO417604  28.553  35.991   9.445
 1057POPC   GL117605  28.346  36.249   9.179
 1057POPC   GL217606  28.106  36.003   9.073
 1057POPC   C1A17607  28.246  36.421   8.796
 1057POPC   D2A17608  28.124  36.522   8.380
 1057POPC   C3A17609  28.311  36.180   8.153
 1057POPC   C4A17610  28.173  35.983   7.793
 1057POPC   C1B17611  28.460  35.896   8.802
 1057POPC   C2B17612  28.785  35.944   8.481
 1057POPC   C3B17613  28.720  35.827   8.059
 1057POPC   C4B17614  28.580  35.731   7.646
 1058POPC   NC317615   1.986  40.526   9.497
 1058POPC   PO417616   2.041  41.192   9.463
 1058POPC   GL117617   1.783  40.915   9.188
 1058POPC   GL217618   2.021  40.677   9.025
 1058POPC   C1A17619   1.606  40.800   8.767
 1058POPC   D2A17620   1.648  40.512   8.419
 1058POPC   C3A17621   1.672  40.659   8.014
 1058POPC   C4A17622   2.064  40.669   7.802
 1058POPC   C1B17623   2.338  40.524   8.766
 1058POPC   C2B17624   2.364  40.688   8.375
 1058POPC   C3B17625   2.372  40.403   8.072
 1058POPC   C4B17626   2.501  40.408   7.684
 1059POPC   NC317627  32.957  42.275   9.480
 1059POPC   PO417628  33.442  42.704   9.485
 1059POPC   GL117629  33.225  42.605   9.133
 1059POPC   GL217630  33.171  42.242   9.029
 1059POPC   C1A17631  33.144  42.625   8.713
 1059POPC   D2A17632  32.898  42.402   8.435
 1059POPC   C3A17633  33.089  42.475   8.047
 1059POPC   C4A17634  32.815  42.654   7.753
 1059POPC   C1B17635  33.063  41.982   8.690
 1059POPC   C2B17636  33.160  41.916   8.248
 1059POPC   C3B17637  33.213  42.030   7.831
 1059POPC   C4B17638  33.193  42.190   7.440
 1060POPC   NC317639  18.656  40.586   9.348
 1060POPC   PO417640  19.229  40.965   9.280
 1060POPC   GL117641  19.040  40.709   9.037
 1060POPC   GL217642  19.131  40.380   9.166
 1060POPC   C1A17643  18.883  40.803   8.645
 1060POPC   D2A17644  19.134  40.663   8.322
 1060POPC   C3A17645  19.217  41.019   8.095
 1060POPC   C4A17646  18.901  41.156   7.837
 1060POPC   C1B17647  19.002  40.314   8.705
 1060POPC   C2B17648  18.803  40.282   8.254
 1060POPC   C3B17649  18.934  40.409   7.795
 1060POPC   C4B17650  18.846  40.290   7.324
 1061POPC   NC317651  43.487  10.790   9.423
 1061POPC   PO417652  42.963  10.307   9.544
 1061POPC   GL117653  43.113  10.487   9.216
 1061POPC   GL217654  43.396  10.323   9.203
 1061POPC   C1A17655  43.104  10.567   8.805
 1061POPC   D2A17656  42.836  10.562   8.451
 1061POPC   C3A17657  43.063  10.484   8.071
 1061POPC   C4A17658  43.053  10.356   7.664
 1061POPC   C1B17659  43.326  10.101   8.828
 1061POPC   C2B17660  43.352  10.304   8.443
 1061POPC   C3B17661  43.519  10.187   8.058
 1061POPC   C4B17662  43.498  10.072   7.649
 1062POPC   NC317663   8.781   7.926   9.548
 1062POPC   PO417664   8.954   8.551   9.400
 1062POPC   GL117665   8.989   8.230   9.170
 1062POPC   GL217666   8.642   8.134   9.116
 1062POPC   C1A17667   9.178   8.164   8.793
 1062POPC   D2A17668   9.069   8.348   8.404
 1062POPC   C3A17669   9.200   8.161   8.082
 1062POPC   C4A17670   9.051   8.189   7.707
 1062POPC   C1B17671   8.672   8.250   8.737
 1062POPC   C2B17672   8.641   8.055   8.390
 1062POPC   C3B17673   8.656   8.195   8.025
 1062POPC   C4B17674   8.403   8.079   7.704
 1063POPC   NC317675   7.517  17.074   9.317
 1063POPC   PO417676   7.662  17.755   9.433
 1063POPC   GL117677   7.483  17.552   9.088
 1063POPC   GL217678   7.101  17.534   9.008
 1063POPC   C1A17679   7.450  17.725   8.698
 1063POPC   D2A17680   7.105  17.662   8.452
 1063POPC   C3A17681   7.327  17.742   8.103
 1063POPC   C4A17682   7.395  17.592   7.732
 1063POPC   C1B17683   7.338  17.245   8.679
 1063POPC   C2B17684   7.684  17.258   8.360
 1063POPC   C3B17685   7.657  17.152   7.905
 1063POPC   C4B17686   7.271  17.083   7.679
 1064POPC   NC317687  18.438  11.312   9.502
 1064POPC   PO417688  17.882  10.933   9.450
 1064POPC   GL117689  18.110  11.189   9.135
 1064POPC   GL217690  18.445  11.132   9.039
 1064POPC   C1A17691  18.066  11.380   8.740
 1064POPC   D2A17692  18.100  11.473   8.303
 1064POPC   C3A17693  18.023  11.278   7.903
 1064POPC   C4A17694  17.924  11.532   7.545
 1064POPC   C1B17695  18.388  10.985   8.650
 1064POPC   C2B17696  18.569  11.141   8.262
 1064POPC   C3B17697  18.548  11.177   7.809
 1064POPC   C4B17698  18.370  11.246   7.408
 1065POPC   NC317699  22.924  35.911   9.449
 1065POPC   PO417700  22.956  36.588   9.409
 1065POPC   GL117701  22.944  36.292   9.113
 1065POPC   GL217702  22.575  36.127   9.111
 1065POPC   C1A17703  22.985  36.035   8.760
 1065POPC   D2A17704  22.939  35.827   8.355
 1065POPC   C3A17705  23.193  35.943   7.992
 1065POPC   C4A17706  23.047  36.138   7.614
 1065POPC   C1B17707  22.617  36.445   8.764
 1065POPC   C2B17708  22.813  36.372   8.361
 1065POPC   C3B17709  22.711  36.147   8.014
 1065POPC   C4B17710  22.485  36.185   7.616
 1066POPC   NC317711  35.043  17.681   9.580
 1066POPC   PO417712  34.416  17.920   9.477
 1066POPC   GL117713  34.668  17.680   9.196
 1066POPC   GL217714  34.891  17.917   9.172
 1066POPC   C1A17715  34.579  17.538   8.755
 1066POPC   D2A17716  34.252  17.511   8.466
 1066POPC   C3A17717  34.459  17.639   8.114
 1066POPC   C4A17718  34.439  17.481   7.708
 1066POPC   C1B17719  35.035  17.740   8.816
 1066POPC   C2B17720  34.859  17.888   8.483
 1066POPC   C3B17721  34.949  17.829   8.120
 1066POPC   C4B17722  34.961  17.771   7.759
 1067POPC   NC317723  15.192  16.541   9.497
 1067POPC   PO417724  14.580  16.780   9.396
 1067POPC   GL117725  14.484  16.913   8.990
 1067POPC   GL217726  14.319  16.621   8.913
 1067POPC   C1A17727  14.491  16.892   8.526
 1067POPC   D2A17728  14.277  16.818   8.132
 1067POPC   C3A17729  14.498  16.919   7.741
 1067POPC   C4A17730  14.684  16.936   7.317
 1067POPC   C1B17731  14.707  16.476   8.746
 1067POPC   C2B17732  14.784  16.412   8.304
 1067POPC   C3B17733  14.596  16.427   7.868
 1067POPC   C4B17734  14.837  16.434   7.452
 1068POPC   NC317735  31.634  12.088   9.452
 1068POPC   PO417736  31.089  12.415   9.555
 1068POPC   GL117737  31.247  12.210   9.120
 1068POPC   GL217738  31.564  12.034   8.971
 1068POPC   C1A17739  31.114  12.026   8.705
 1068POPC   D2A17740  31.022  11.754   8.339
 1068POPC   C3A17741  31.142  11.747   7.881
 1068POPC   C4A17742  31.368  11.826   7.464
 1068POPC   C1B17743  31.539  12.301   8.666
 1068POPC   C2B17744  31.405  12.137   8.267
 1068POPC   C3B17745  31.611  11.915   7.945
 1068POPC   C4B17746  31.742  12.174   7.634
 1069POPC   NC317747  34.277  10.970   9.554
 1069POPC   PO417748  33.633  11.220   9.546
 1069POPC   GL117749  33.585  11.416   9.182
 1069POPC   GL217750  33.352  11.166   9.116
 1069POPC   C1A17751  33.737  11.560   8.772
 1069POPC   D2A17752  33.835  11.362   8.406
 1069POPC   C3A17753  33.864  11.552   7.989
 1069POPC   C4A17754  34.155  11.521   7.640
 1069POPC   C1B17755  33.595  11.073   8.793
 1069POPC   C2B17756  33.581  10.912   8.428
 1069POPC   C3B17757  33.758  11.009   8.060
 1069POPC   C4B17758  33.682  10.967   7.671
 1070POPC   NC317759  36.833   4.337   9.476
 1070POPC   PO417760  36.280   4.562   9.160
 1070POPC   GL117761  36.648   4.307   8.975
 1070POPC   GL217762  37.026   4.237   9.032
 1070POPC   C1A17763  36.734   4.161   8.553
 1070POPC   D2A17764  36.821   3.884   8.194
 1070POPC   C3A17765  36.782   4.129   7.795
 1070POPC   C4A17766  36.602   4.181   7.344
 1070POPC   C1B17767  37.170   3.961   8.724
 1070POPC   C2B17768  37.233   4.163   8.335
 1070POPC   C3B17769  37.264   4.034   7.930
 1070POPC   C4B17770  37.312   4.339   7.649
 1071POPC   NC317771  44.730   4.070   9.516
 1071POPC   PO417772  44.322   4.662   9.456
 1071POPC   GL117773  44.369   4.431   9.065
 1071POPC   GL217774  44.427   4.064   9.102
 1071POPC   C1A17775  44.490   4.258   8.638
 1071POPC   D2A17776  44.870   4.240   8.426
 1071POPC   C3A17777  44.859   4.512   8.094
 1071POPC   C4A17778  44.643   4.617   7.730
 1071POPC   C1B17779  44.819   3.921   8.850
 1071POPC   C2B17780  44.790   3.719   8.442
 1071POPC   C3B17781  44.852   3.850   8.096
 1071POPC   C4B17782  44.677   4.119   7.809
 1072POPC   NC317783  29.317  13.476   9.525
 1072POPC   PO417784  28.966  14.124   9.623
 1072POPC   GL117785  28.938  13.761   9.285
 1072POPC   GL217786  29.129  13.486   9.065
 1072POPC   C1A17787  28.918  13.880   8.853
 1072POPC   D2A17788  29.234  13.816   8.549
 1072POPC   C3A17789  29.092  13.708   8.174
 1072POPC   C4A17790  29.105  13.879   7.777
 1072POPC   C1B17791  29.529  13.434   8.835
 1072POPC   C2B17792  29.765  13.404   8.447
 1072POPC   C3B17793  29.641  13.463   8.038
 1072POPC   C4B17794  29.279  13.408   7.789
 1073POPC   NC317795  37.998   0.270   9.387
 1073POPC   PO417796  37.419   0.642   9.439
 1073POPC   GL117797  37.587   0.473   9.093
 1073POPC   GL217798  37.902   0.607   9.028
 1073POPC   C1A17799  37.400   0.569   8.675
 1073POPC   D2A17800  37.372   0.408   8.264
 1073POPC   C3A17801  37.364   0.655   7.912
 1073POPC   C4A17802  37.637   0.747   7.616
 1073POPC   C1B17803  37.813   0.286   8.685
 1073POPC   C2B17804  37.951   0.153   8.292
 1073POPC   C3B17805  37.786   0.350   7.946
 1073POPC   C4B17806  37.441   0.223   7.685
 1074POPC   NC317807  44.626   2.373   9.322
 1074POPC   PO417808  44.941   2.803   9.766
 1074POPC   GL117809  44.899   2.809   9.302
 1074POPC   GL217810  44.579   2.899   9.181
 1074POPC   C1A17811   0.012   2.655   8.877
 1074POPC   D2A17812  44.919   2.809   8.489
 1074POPC   C3A17813  44.862   2.666   8.107
 1074POPC   C4A17814  44.551   2.628   7.822
 1074POPC   C1B17815  44.503   2.764   8.777
 1074POPC   C2B17816  44.413   2.901   8.346
 1074POPC   C3B17817  44.312   3.058   7.933
 1074POPC   C4B17818  44.221   2.882   7.520
 1075POPC   NC317819  37.178  14.647   9.440
 1075POPC   PO417820  36.812  14.081   9.633
 1075POPC   GL117821  36.769  14.371   9.285
 1075POPC   GL217822  36.619  14.201   9.038
 1075POPC   C1A17823  36.873  14.596   8.860
 1075POPC   D2A17824  37.054  14.762   8.456
 1075POPC   C3A17825  36.903  14.704   8.055
 1075POPC   C4A17826  36.956  14.431   7.713
 1075POPC   C1B17827  36.807  14.102   8.636
 1075POPC   C2B17828  36.859  14.205   8.188
 1075POPC   C3B17829  36.541  14.190   7.846
 1075POPC   C4B17830  36.436  14.335   7.409
 1076POPC   NC317831  17.638  18.470   9.441
 1076POPC   PO417832  17.126  17.986   9.497
 1076POPC   GL117833  17.457  18.039   9.075
 1076POPC   GL217834  17.689  18.387   8.921
 1076POPC   C1A17835  17.432  18.112   8.608
 1076POPC   D2A17836  17.672  18.268   8.279
 1076POPC   C3A17837  17.567  18.209   7.853
 1076POPC   C4A17838  17.657  18.488   7.538
 1076POPC   C1B17839  17.384  18.613   8.572
 1076POPC   C2B17840  17.096  18.504   8.234
 1076POPC   C3B17841  17.188  18.597   7.785
 1076POPC   C4B17842  17.259  18.784   7.387
 1077POPC   NC317843  30.267   1.330   9.527
 1077POPC   PO417844  29.734   0.926   9.538
 1077POPC   GL117845  29.930   1.169   9.174
 1077POPC   GL217846  30.129   1.498   9.083
 1077POPC   C1A17847  29.758   1.275   8.786
 1077POPC   D2A17848  29.840   1.043   8.409
 1077POPC   C3A17849  29.742   1.208   8.020
 1077POPC   C4A17850  29.695   1.043   7.628
 1077POPC   C1B17851  30.246   1.375   8.670
 1077POPC   C2B17852  30.088   1.488   8.273
 1077POPC   C3B17853  30.164   1.416   7.816
 1077POPC   C4B17854  30.084   1.247   7.401
 1078POPC   NC317855   8.622   9.649   9.347
 1078POPC   PO417856   9.165   9.956   9.635
 1078POPC   GL117857   9.182   9.823   9.183
 1078POPC   GL217858   9.060   9.479   9.131
 1078POPC   C1A17859   9.444   9.631   8.842
 1078POPC   D2A17860   9.359   9.408   8.474
 1078POPC   C3A17861   9.072   9.610   8.224
 1078POPC   C4A17862   9.070   9.670   7.793
 1078POPC   C1B17863   8.943   9.734   8.721
 1078POPC   C2B17864   8.849  10.147   8.462
 1078POPC   C3B17865   8.705  10.221   8.033
 1078POPC   C4B17866   8.741  10.017   7.618
 1079POPC   NC317867  34.781  39.951   9.323
 1079POPC   PO417868  34.273  39.774   9.676
 1079POPC   GL117869  34.288  39.958   9.216
 1079POPC   GL217870  34.469  40.321   9.198
 1079POPC   C1A17871  34.288  40.148   8.766
 1079POPC   D2A17872  34.562  40.117   8.406
 1079POPC   C3A17873  34.480  40.158   7.990
 1079POPC   C4A17874  34.386  39.821   7.678
 1079POPC   C1B17875  34.771  40.368   8.793
 1079POPC   C2B17876  34.885  40.501   8.377
 1079POPC   C3B17877  35.001  40.243   8.063
 1079POPC   C4B17878  34.910  40.094   7.677
 1080POPC   NC317879  26.659  17.087   9.467
 1080POPC   PO417880  26.765  16.453   9.322
 1080POPC   GL117881  26.518  16.713   9.048
 1080POPC   GL217882  26.547  17.082   8.983
 1080POPC   C1A17883  26.543  16.722   8.596
 1080POPC   D2A17884  26.758  16.404   8.309
 1080POPC   C3A17885  26.885  16.539   7.903
 1080POPC   C4A17886  27.035  16.560   7.478
 1080POPC   C1B17887  26.960  16.938   8.832
 1080POPC   C2B17888  27.009  16.870   8.396
 1080POPC   C3B17889  26.776  17.011   8.059
 1080POPC   C4B17890  27.064  17.016   7.739
 1081POPC   NC317891  28.604  19.258   9.548
 1081POPC   PO417892  28.078  18.801   9.617
 1081POPC   GL117893  28.233  18.981   9.258
 1081POPC   GL217894  28.042  19.281   9.172
 1081POPC   C1A17895  28.422  18.883   8.848
 1081POPC   D2A17896  28.590  19.131   8.513
 1081POPC   C3A17897  28.465  19.006   8.128
 1081POPC   C4A17898  28.294  18.950   7.749
 1081POPC   C1B17899  27.893  18.967   8.872
 1081POPC   C2B17900  28.047  18.920   8.448
 1081POPC   C3B17901  27.959  19.161   8.081
 1081POPC   C4B17902  27.745  19.180   7.690
 1082POPC   NC317903   9.528  14.650   9.459
 1082POPC   PO417904  10.033  14.164   9.586
 1082POPC   GL117905   9.922  14.369   9.213
 1082POPC   GL217906   9.842  14.028   9.119
 1082POPC   C1A17907   9.924  14.670   8.831
 1082POPC   D2A17908   9.987  14.584   8.382
 1082POPC   C3A17909   9.673  14.628   8.014
 1082POPC   C4A17910   9.614  14.553   7.605
 1082POPC   C1B17911   9.577  14.285   8.825
 1082POPC   C2B17912   9.563  14.279   8.372
 1082POPC   C3B17913   9.819  14.148   8.001
 1082POPC   C4B17914   9.720  14.064   7.583
 1083POPC   NC317915  25.817  42.125   9.515
 1083POPC   PO417916  26.098  42.776   9.469
 1083POPC   GL117917  26.227  42.500   9.150
 1083POPC   GL217918  26.177  42.150   9.132
 1083POPC   C1A17919  26.270  42.527   8.730
 1083POPC   D2A17920  26.177  42.251   8.407
 1083POPC   C3A17921  26.240  42.495   8.078
 1083POPC   C4A17922  26.213  42.335   7.669
 1083POPC   C1B17923  25.837  42.270   8.799
 1083POPC   C2B17924  25.644  42.360   8.397
 1083POPC   C3B17925  25.780  42.318   7.989
 1083POPC   C4B17926  25.632  42.407   7.589
 1084POPC   NC317927  18.082   9.555   9.361
 1084POPC   PO417928  18.252  10.133   9.715
 1084POPC   GL117929  17.985  10.112   9.239
 1084POPC   GL217930  18.205  10.089   8.884
 1084POPC   C1A17931  17.757   9.891   8.837
 1084POPC   D2A17932  17.982  10.030   8.416
 1084POPC   C3A17933  18.151   9.984   7.971
 1084POPC   C4A17934  18.491   9.893   7.641
 1084POPC   C1B17935  18.173   9.633   8.682
 1084POPC   C2B17936  18.016   9.517   8.279
 1084POPC   C3B17937  18.244   9.506   7.916
 1084POPC   C4B17938  18.174   9.383   7.562
 1085POPC   NC317939  18.740  21.407   9.513
 1085POPC   PO417940  18.064  21.231   9.494
 1085POPC   GL117941  18.242  21.567   9.213
 1085POPC   GL217942  18.627  21.635   9.089
 1085POPC   C1A17943  18.243  21.496   8.786
 1085POPC   D2A17944  18.395  21.118   8.570
 1085POPC   C3A17945  18.409  21.157   8.131
 1085POPC   C4A17946  18.330  21.372   7.762
 1085POPC   C1B17947  18.764  21.482   8.690
 1085POPC   C2B17948  18.502  21.610   8.364
 1085POPC   C3B17949  18.543  21.795   8.004
 1085POPC   C4B17950  18.677  21.674   7.579
 1086POPC   NC317951  25.835  13.819   9.585
 1086POPC   PO417952  26.437  13.515   9.549
 1086POPC   GL117953  26.212  13.640   9.216
 1086POPC   GL217954  25.917  13.506   9.156
 1086POPC   C1A17955  26.234  13.502   8.764
 1086POPC   D2A17956  26.359  13.468   8.336
 1086POPC   C3A17957  26.126  13.695   8.022
 1086POPC   C4A17958  26.210  13.614   7.578
 1086POPC   C1B17959  25.720  13.447   8.780
 1086POPC   C2B17960  25.864  13.338   8.347
 1086POPC   C3B17961  25.676  13.370   7.943
 1086POPC   C4B17962  25.714  13.573   7.553
 1087POPC   NC317963  43.436  13.418   9.519
 1087POPC   PO417964  43.136  13.966   9.541
 1087POPC   GL117965  43.170  13.771   9.170
 1087POPC   GL217966  43.040  13.446   9.178
 1087POPC   C1A17967  43.205  13.897   8.751
 1087POPC   D2A17968  43.072  13.656   8.405
 1087POPC   C3A17969  43.328  13.685   8.054
 1087POPC   C4A17970  43.269  13.713   7.638
 1087POPC   C1B17971  43.286  13.381   8.797
 1087POPC   C2B17972  43.267  13.185   8.390
 1087POPC   C3B17973  43.442  13.159   8.004
 1087POPC   C4B17974  43.249  13.214   7.637
 1088POPC   NC317975  13.340   4.163   9.284
 1088POPC   PO417976  13.609   4.702   9.722
 1088POPC   GL117977  13.459   4.652   9.202
 1088POPC   GL217978  13.768   4.512   8.969
 1088POPC   C1A17979  13.338   4.661   8.755
 1088POPC   D2A17980  13.627   4.418   8.484
 1088POPC   C3A17981  13.786   4.370   8.066
 1088POPC   C4A17982  13.524   4.164   7.817
 1088POPC   C1B17983  13.790   4.056   8.814
 1088POPC   C2B17984  13.835   3.823   8.433
 1088POPC   C3B17985  13.867   3.823   7.999
 1088POPC   C4B17986  13.963   3.986   7.588
 1089POPC   NC317987  42.252   7.415   9.604
 1089POPC   PO417988  42.618   7.836   9.511
 1089POPC   GL117989  42.311   7.716   9.156
 1089POPC   GL217990  42.018   7.471   9.109
 1089POPC   C1A17991  42.247   7.745   8.687
 1089POPC   D2A17992  42.459   7.835   8.279
 1089POPC   C3A17993  42.230   7.801   7.882
 1089POPC   C4A17994  42.279   7.536   7.511
 1089POPC   C1B17995  41.982   7.312   8.652
 1089POPC   C2B17996  42.110   7.424   8.222
 1089POPC   C3B17997  41.854   7.411   7.827
 1089POPC   C4B17998  41.533   7.095   7.636
 1090POPC   NC317999   1.948  25.979   9.460
 1090POPC   PO418000   2.295  26.640   9.496
 1090POPC   GL118001   2.155  26.355   9.151
 1090POPC   GL218002   1.769  26.311   9.126
 1090POPC   C1A18003   2.200  26.035   8.805
 1090POPC   D2A18004   2.021  25.873   8.408
 1090POPC   C3A18005   2.196  25.939   8.033
 1090POPC   C4A18006   2.056  25.955   7.600
 1090POPC   C1B18007   1.860  26.420   8.728
 1090POPC   C2B18008   2.098  26.377   8.345
 1090POPC   C3B18009   1.894  26.345   7.920
 1090POPC   C4B18010   1.708  26.302   7.489
 1091POPC   NC318011  13.274   3.603   9.690
 1091POPC   PO418012  12.657   3.764   9.515
 1091POPC   GL118013  12.849   3.503   9.221
 1091POPC   GL218014  13.165   3.667   9.183
 1091POPC   C1A18015  12.997   3.286   8.843
 1091POPC   D2A18016  12.795   3.161   8.483
 1091POPC   C3A18017  13.025   3.240   8.093
 1091POPC   C4A18018  12.909   3.368   7.717
 1091POPC   C1B18019  12.965   3.798   8.804
 1091POPC   C2B18020  12.954   3.628   8.426
 1091POPC   C3B18021  12.877   3.752   8.039
 1091POPC   C4B18022  13.063   3.959   7.704
 1092POPC   NC318023   9.565   9.732   9.531
 1092POPC   PO418024  10.275  10.077   9.571
 1092POPC   GL118025  10.031  10.068   9.154
 1092POPC   GL218026   9.868   9.718   9.107
 1092POPC   C1A18027   9.785  10.080   8.727
 1092POPC   D2A18028   9.764   9.736   8.439
 1092POPC   C3A18029   9.573   9.669   8.044
 1092POPC   C4A18030   9.699  10.013   7.785
 1092POPC   C1B18031   9.902   9.377   8.750
 1092POPC   C2B18032   9.824   9.237   8.308
 1092POPC   C3B18033   9.987   9.298   7.877
 1092POPC   C4B18034   9.935   9.438   7.425
 1093POPC   NC318035  29.044   3.538   9.463
 1093POPC   PO418036  29.725   3.763   9.447
 1093POPC   GL118037  29.410   3.788   9.091
 1093POPC   GL218038  29.012   3.817   9.043
 1093POPC   C1A18039  29.414   3.398   8.843
 1093POPC   D2A18040  29.475   3.139   8.458
 1093POPC   C3A18041  29.110   3.215   8.161
 1093POPC   C4A18042  29.122   3.417   7.737
 1093POPC   C1B18043  29.069   3.734   8.617
 1093POPC   C2B18044  28.930   3.701   8.203
 1093POPC   C3B18045  29.006   3.900   7.825
 1093POPC   C4B18046  28.870   3.798   7.401
 1094POPC   NC318047   3.178   3.665   9.662
 1094POPC   PO418048   2.534   3.516   9.555
 1094POPC   GL118049   2.797   3.450   9.189
 1094POPC   GL218050   3.029   3.762   9.161
 1094POPC   C1A18051   2.621   3.342   8.759
 1094POPC   D2A18052   2.732   3.516   8.332
 1094POPC   C3A18053   2.676   3.328   7.946
 1094POPC   C4A18054   2.480   3.674   7.770
 1094POPC   C1B18055   3.080   3.524   8.766
 1094POPC   C2B18056   3.180   3.321   8.390
 1094POPC   C3B18057   3.195   3.680   8.122
 1094POPC   C4B18058   2.989   3.701   7.738
 1095POPC   NC318059  14.006  29.128   9.509
 1095POPC   PO418060  13.320  28.844   9.413
 1095POPC   GL118061  13.642  28.934   9.092
 1095POPC   GL218062  13.745  29.273   9.091
 1095POPC   C1A18063  13.666  29.094   8.646
 1095POPC   D2A18064  13.811  29.299   8.329
 1095POPC   C3A18065  13.763  29.108   7.912
 1095POPC   C4A18066  13.438  28.921   7.683
 1095POPC   C1B18067  13.405  29.480   8.818
 1095POPC   C2B18068  13.339  29.567   8.380
 1095POPC   C3B18069  13.577  29.584   7.998
 1095POPC   C4B18070  13.442  29.462   7.609
 1096POPC   NC318071  11.626  33.639   9.512
 1096POPC   PO418072  11.077  33.921   9.658
 1096POPC   GL118073  11.273  33.948   9.259
 1096POPC   GL218074  10.924  33.854   9.148
 1096POPC   C1A18075  11.461  33.703   8.875
 1096POPC   D2A18076  11.584  33.490   8.476
 1096POPC   C3A18077  11.521  33.655   8.104
 1096POPC   C4A18078  11.276  33.709   7.758
 1096POPC   C1B18079  11.083  34.079   8.805
 1096POPC   C2B18080  11.162  33.881   8.420
 1096POPC   C3B18081  11.104  34.086   8.045
 1096POPC   C4B18082  10.970  34.286   7.712
 1097POPC   NC318083  17.914  21.633   9.640
 1097POPC   PO418084  17.426  21.111   9.499
 1097POPC   GL118085  17.493  21.208   9.065
 1097POPC   GL218086  17.755  21.414   9.126
 1097POPC   C1A18087  17.498  21.449   8.672
 1097POPC   D2A18088  17.247  21.579   8.313
 1097POPC   C3A18089  17.432  21.365   7.990
 1097POPC   C4A18090  17.430  21.286   7.576
 1097POPC   C1B18091  17.905  21.124   8.783
 1097POPC   C2B18092  17.920  21.151   8.333
 1097POPC   C3B18093  17.893  21.153   7.875
 1097POPC   C4B18094  17.840  21.568   7.659
 1098POPC   NC318095  37.120  29.889   9.755
 1098POPC   PO418096  36.630  29.705   9.310
 1098POPC   GL118097  37.048  29.820   9.144
 1098POPC   GL218098  37.137  30.166   9.123
 1098POPC   C1A18099  37.074  29.775   8.684
 1098POPC   D2A18100  37.029  30.096   8.403
 1098POPC   C3A18101  37.134  30.124   7.968
 1098POPC   C4A18102  37.006  29.905   7.546
 1098POPC   C1B18103  36.767  30.192   8.862
 1098POPC   C2B18104  36.518  30.122   8.472
 1098POPC   C3B18105  36.640  30.078   8.049
 1098POPC   C4B18106  36.727  30.335   7.674
 1099POPC   NC318107   6.856  21.227   9.618
 1099POPC   PO418108   6.125  21.465   9.595
 1099POPC   GL118109   6.446  21.401   9.250
 1099POPC   GL218110   6.776  21.554   9.241
 1099POPC   C1A18111   6.491  21.590   8.829
 1099POPC   D2A18112   6.509  21.440   8.405
 1099POPC   C3A18113   6.335  21.408   7.997
 1099POPC   C4A18114   6.575  21.251   7.663
 1099POPC   C1B18115   7.010  21.677   8.871
 1099POPC   C2B18116   6.829  21.816   8.491
 1099POPC   C3B18117   6.788  21.693   8.054
 1099POPC   C4B18118   7.057  21.570   7.717
 1100POPC   NC318119   2.887  12.434   9.566
 1100POPC   PO418120   2.935  13.137   9.558
 1100POPC   GL118121   2.787  13.015   9.198
 1100POPC   GL218122   2.686  12.671   9.158
 1100POPC   C1A18123   2.915  13.147   8.822
 1100POPC   D2A18124   2.675  13.126   8.462
 1100POPC   C3A18125   2.727  12.819   8.174
 1100POPC   C4A18126   2.799  12.835   7.757
 1100POPC   C1B18127   2.628  12.618   8.716
 1100POPC   C2B18128   2.489  12.320   8.399
 1100POPC   C3B18129   2.645  12.335   7.988
 1100POPC   C4B18130   2.515  12.474   7.563
 1101POPC   NC318131  19.457   9.000   9.527
 1101POPC   PO418132  18.871   9.286   9.559
 1101POPC   GL118133  19.006   9.032   9.155
 1101POPC   GL218134  19.297   8.835   9.084
 1101POPC   C1A18135  18.908   8.793   8.762
 1101POPC   D2A18136  18.691   8.841   8.376
 1101POPC   C3A18137  18.948   8.903   8.029
 1101POPC   C4A18138  19.092   9.272   7.865
 1101POPC   C1B18139  19.332   9.100   8.726
 1101POPC   C2B18140  19.325   9.124   8.291
 1101POPC   C3B18141  19.575   9.330   7.984
 1101POPC   C4B18142  19.549   8.984   7.826
 1102POPC   NC318143  29.181  18.554   9.432
 1102POPC   PO418144  29.334  17.817   9.415
 1102POPC   GL118145  29.237  18.109   9.107
 1102POPC   GL218146  29.513  18.345   9.069
 1102POPC   C1A18147  29.052  18.335   8.766
 1102POPC   D2A18148  29.214  18.437   8.373
 1102POPC   C3A18149  28.981  18.449   8.018
 1102POPC   C4A18150  29.085  18.152   7.728
 1102POPC   C1B18151  29.463  18.699   8.754
 1102POPC   C2B18152  29.597  18.768   8.306
 1102POPC   C3B18153  29.467  18.567   7.884
 1102POPC   C4B18154  29.133  18.596   7.520
 1103POPC   NC318155  42.058  34.220   9.485
 1103POPC   PO418156  42.257  33.604   9.470
 1103POPC   GL118157  42.254  33.852   9.124
 1103POPC   GL218158  42.625  33.881   9.128
 1103POPC   C1A18159  42.111  33.711   8.735
 1103POPC   D2A18160  41.850  33.565   8.400
 1103POPC   C3A18161  42.026  33.798   8.067
 1103POPC   C4A18162  42.050  33.971   7.659
 1103POPC   C1B18163  42.604  33.579   8.777
 1103POPC   C2B18164  42.455  33.664   8.340
 1103POPC   C3B18165  42.513  33.810   7.894
 1103POPC   C4B18166  42.764  34.111   7.613
 1104POPC   NC318167  43.918  42.440   9.929
 1104POPC   PO418168  43.777  42.062   9.425
 1104POPC   GL118169  44.168  42.206   9.229
 1104POPC   GL218170  43.942  42.438   9.105
 1104POPC   C1A18171  44.320  42.294   8.790
 1104POPC   D2A18172  44.044  42.341   8.419
 1104POPC   C3A18173  44.078  42.124   8.068
 1104POPC   C4A18174  44.086  42.179   7.617
 1104POPC   C1B18175  43.996  42.705   8.752
 1104POPC   C2B18176  43.751  42.831   8.426
 1104POPC   C3B18177  43.867  42.815   8.016
 1104POPC   C4B18178  43.913  42.648   7.613
 1105POPC   NC318179   0.275  17.000   9.520
 1105POPC   PO418180   0.601  16.342   9.479
 1105POPC   GL118181   0.559  16.688   9.202
 1105POPC   GL218182   0.210  16.747   9.092
 1105POPC   C1A18183   0.584  16.626   8.772
 1105POPC   D2A18184   0.374  16.430   8.489
 1105POPC   C3A18185   0.436  16.640   8.135
 1105POPC   C4A18186   0.487  16.609   7.681
 1105POPC   C1B18187   0.181  16.938   8.705
 1105POPC   C2B18188   0.125  17.038   8.299
 1105POPC   C3B18189   0.165  16.982   7.880
 1105POPC   C4B18190   0.103  16.922   7.483
 1106POPC   NC318191   4.303   2.893   9.484
 1106POPC   PO418192   4.530   2.312   9.298
 1106POPC   GL118193   4.337   2.605   9.039
 1106POPC   GL218194   4.495   2.946   9.008
 1106POPC   C1A18195   4.203   2.667   8.628
 1106POPC   D2A18196   3.996   2.682   8.225
 1106POPC   C3A18197   4.326   2.746   7.920
 1106POPC   C4A18198   4.436   2.429   7.617
 1106POPC   C1B18199   4.069   3.087   8.889
 1106POPC   C2B18200   3.968   3.121   8.465
 1106POPC   C3B18201   3.983   3.138   7.993
 1106POPC   C4B18202   3.946   2.934   7.570
 1107POPC   NC318203   8.847  17.662   9.404
 1107POPC   PO418204   8.937  17.033   9.482
 1107POPC   GL118205   9.089  17.277   9.116
 1107POPC   GL218206   8.769  17.385   8.963
 1107POPC   C1A18207   9.217  17.362   8.678
 1107POPC   D2A18208   8.912  17.488   8.357
 1107POPC   C3A18209   9.022  17.399   7.960
 1107POPC   C4A18210   9.330  17.487   7.681
 1107POPC   C1B18211   8.947  17.781   8.778
 1107POPC   C2B18212   8.917  18.016   8.407
 1107POPC   C3B18213   8.784  17.894   8.015
 1107POPC   C4B18214   8.881  17.811   7.594
 1108POPC   NC318215  32.900  18.831   9.405
 1108POPC   PO418216  33.292  19.450   9.526
 1108POPC   GL118217  33.201  19.169   9.149
 1108POPC   GL218218  32.809  19.136   9.010
 1108POPC   C1A18219  33.185  19.033   8.720
 1108POPC   D2A18220  32.951  19.274   8.467
 1108POPC   C3A18221  33.147  19.319   8.089
 1108POPC   C4A18222  33.290  18.994   7.834
 1108POPC   C1B18223  32.737  18.808   8.694
 1108POPC   C2B18224  32.952  18.801   8.274
 1108POPC   C3B18225  32.779  18.999   7.899
 1108POPC   C4B18226  32.753  18.901   7.465
 1109POPC   NC318227   0.134  15.342   9.604
 1109POPC   PO418228   0.815  15.365   9.491
 1109POPC   GL118229   0.592  15.094   9.165
 1109POPC   GL218230   0.221  15.008   9.201
 1109POPC   C1A18231   0.524  15.180   8.722
 1109POPC   D2A18232   0.552  15.457   8.414
 1109POPC   C3A18233   0.697  15.366   8.076
 1109POPC   C4A18234   0.438  15.402   7.750
 1109POPC   C1B18235   0.060  15.024   8.789
 1109POPC   C2B18236   0.104  15.221   8.387
 1109POPC   C3B18237  44.988  15.358   7.990
 1109POPC   C4B18238   0.099  15.038   7.665
 1110POPC   NC318239  19.118  11.911   9.518
 1110POPC   PO418240  19.248  12.527   9.446
 1110POPC   GL118241  19.033  12.281   9.139
 1110POPC   GL218242  18.771  12.020   9.186
 1110POPC   C1A18243  19.241  12.106   8.783
 1110POPC   D2A18244  19.479  12.090   8.413
 1110POPC   C3A18245  19.254  12.183   8.054
 1110POPC   C4A18246  19.309  11.910   7.726
 1110POPC   C1B18247  18.729  12.036   8.754
 1110POPC   C2B18248  18.934  11.980   8.381
 1110POPC   C3B18249  18.791  12.043   7.917
 1110POPC   C4B18250  18.879  12.470   7.779
 1111POPC   NC318251  27.528  13.448   9.516
 1111POPC   PO418252  27.460  14.060   9.704
 1111POPC   GL118253  27.763  13.822   9.309
 1111POPC   GL218254  27.498  13.654   9.054
 1111POPC   C1A18255  27.950  13.683   8.851
 1111POPC   D2A18256  27.924  13.704   8.380
 1111POPC   C3A18257  27.521  13.626   8.149
 1111POPC   C4A18258  27.504  13.423   7.741
 1111POPC   C1B18259  27.259  13.682   8.657
 1111POPC   C2B18260  27.085  13.897   8.305
 1111POPC   C3B18261  27.297  14.114   8.000
 1111POPC   C4B18262  27.509  13.944   7.651
 1112POPC   NC318263  37.477  20.311   9.365
 1112POPC   PO418264  37.169  20.869   9.544
 1112POPC   GL118265  37.395  20.803   9.145
 1112POPC   GL218266  37.173  20.581   8.984
 1112POPC   C1A18267  37.655  20.683   8.744
 1112POPC   D2A18268  37.712  20.837   8.257
 1112POPC   C3A18269  37.601  20.544   7.826
 1112POPC   C4A18270  37.548  20.408   7.326
 1112POPC   C1B18271  37.208  20.904   8.633
 1112POPC   C2B18272  37.230  21.155   8.247
 1112POPC   C3B18273  37.474  21.060   7.867
 1112POPC   C4B18274  37.398  20.862   7.461
 1113POPC   NC318275  41.276  12.718   9.434
 1113POPC   PO418276  41.899  13.029   9.509
 1113POPC   GL118277  41.639  12.966   9.169
 1113POPC   GL218278  41.651  12.586   9.124
 1113POPC   C1A18279  41.532  13.239   8.810
 1113POPC   D2A18280  41.328  13.255   8.414
 1113POPC   C3A18281  41.419  13.026   8.035
 1113POPC   C4A18282  41.716  13.054   7.674
 1113POPC   C1B18283  41.351  12.760   8.792
 1113POPC   C2B18284  41.434  12.659   8.385
 1113POPC   C3B18285  41.586  12.558   7.975
 1113POPC   C4B18286  41.333  12.679   7.654
 1114POPC   NC318287  34.138  27.269   9.565
 1114POPC   PO418288  34.780  27.261   9.753
 1114POPC   GL118289  34.611  27.307   9.282
 1114POPC   GL218290  34.342  27.564   9.200
 1114POPC   C1A18291  34.653  27.459   8.813
 1114POPC   D2A18292  34.854  27.641   8.431
 1114POPC   C3A18293  34.660  27.522   8.045
 1114POPC   C4A18294  34.584  27.237   7.693
 1114POPC   C1B18295  34.177  27.677   8.786
 1114POPC   C2B18296  34.076  27.725   8.323
 1114POPC   C3B18297  34.239  27.771   7.895
 1114POPC   C4B18298  34.400  28.096   7.630
 1115POPC   NC318299  38.754  26.497   9.482
 1115POPC   PO418300  38.181  26.845   9.612
 1115POPC   GL118301  38.249  26.783   9.176
 1115POPC   GL218302  38.209  27.142   9.126
 1115POPC   C1A18303  38.539  26.613   8.836
 1115POPC   D2A18304  38.594  26.401   8.426
 1115POPC   C3A18305  38.567  26.605   8.035
 1115POPC   C4A18306  38.653  26.404   7.631
 1115POPC   C1B18307  38.353  27.085   8.730
 1115POPC   C2B18308  38.265  26.807   8.419
 1115POPC   C3B18309  38.089  26.825   8.019
 1115POPC   C4B18310  38.287  26.782   7.606
 1116POPC   NC318311  29.707  28.402   9.380
 1116POPC   PO418312  30.312  28.241   9.469
 1116POPC   GL118313  30.158  28.213   9.115
 1116POPC   GL218314  30.083  28.559   9.035
 1116POPC   C1A18315  29.995  28.163   8.740
 1116POPC   D2A18316  29.695  28.106   8.452
 1116POPC   C3A18317  29.828  28.299   8.099
 1116POPC   C4A18318  29.914  28.173   7.730
 1116POPC   C1B18319  29.676  28.558   8.755
 1116POPC   C2B18320  29.470  28.572   8.347
 1116POPC   C3B18321  29.661  28.773   7.993
 1116POPC   C4B18322  29.971  28.675   7.670
 1117POPC   NC318323  26.578  14.054   9.575
 1117POPC   PO418324  27.088  13.560   9.376
 1117POPC   GL118325  26.751  13.591   9.119
 1117POPC   GL218326  26.794  13.934   9.121
 1117POPC   C1A18327  26.732  13.655   8.671
 1117POPC   D2A18328  26.868  13.432   8.354
 1117POPC   C3A18329  26.732  13.474   7.943
 1117POPC   C4A18330  27.066  13.703   7.742
 1117POPC   C1B18331  26.427  13.957   8.924
 1117POPC   C2B18332  26.305  13.962   8.513
 1117POPC   C3B18333  26.584  13.924   8.172
 1117POPC   C4B18334  26.588  13.944   7.732
 1118POPC   NC318335  28.444  13.055   9.437
 1118POPC   PO418336  28.130  12.477   9.659
 1118POPC   GL118337  28.098  12.739   9.223
 1118POPC   GL218338  28.410  12.719   9.016
 1118POPC   C1A18339  28.059  13.077   8.848
 1118POPC   D2A18340  27.836  13.185   8.439
 1118POPC   C3A18341  28.050  13.226   8.035
 1118POPC   C4A18342  28.461  13.070   7.909
 1118POPC   C1B18343  28.087  12.595   8.666
 1118POPC   C2B18344  28.018  12.677   8.194
 1118POPC   C3B18345  28.302  12.585   7.832
 1118POPC   C4B18346  28.686  12.588   7.614
 1119POPC   NC318347  38.673  23.210   9.503
 1119POPC   PO418348  38.004  23.180   9.470
 1119POPC   GL118349  38.322  22.916   9.272
 1119POPC   GL218350  38.343  23.235   9.083
 1119POPC   C1A18351  38.630  22.872   8.896
 1119POPC   D2A18352  38.756  22.760   8.475
 1119POPC   C3A18353  38.605  22.925   8.085
 1119POPC   C4A18354  38.499  22.663   7.752
 1119POPC   C1B18355  38.079  22.940   8.845
 1119POPC   C2B18356  38.236  22.821   8.490
 1119POPC   C3B18357  38.132  22.703   8.118
 1119POPC   C4B18358  38.038  22.883   7.719
 1120POPC   NC318359  39.658  39.427   9.502
 1120POPC   PO418360  38.971  39.446   9.452
 1120POPC   GL118361  39.242  39.374   9.143
 1120POPC   GL218362  39.483  39.087   9.187
 1120POPC   C1A18363  39.127  39.434   8.712
 1120POPC   D2A18364  39.267  39.563   8.303
 1120POPC   C3A18365  39.050  39.387   7.974
 1120POPC   C4A18366  39.114  39.129   7.641
 1120POPC   C1B18367  39.632  39.380   8.828
 1120POPC   C2B18368  39.611  39.223   8.421
 1120POPC   C3B18369  39.486  39.100   8.019
 1120POPC   C4B18370  39.596  38.966   7.601
 1121POPC   NC318371   6.882  16.338   9.589
 1121POPC   PO418372   6.694  15.729   9.508
 1121POPC   GL118373   6.693  15.874   9.124
 1121POPC   GL218374   6.982  15.698   9.054
 1121POPC   C1A18375   6.605  16.072   8.738
 1121POPC   D2A18376   6.344  16.345   8.512
 1121POPC   C3A18377   6.410  16.126   8.153
 1121POPC   C4A18378   6.629  16.074   7.758
 1121POPC   C1B18379   6.744  15.549   8.695
 1121POPC   C2B18380   6.448  15.536   8.354
 1121POPC   C3B18381   6.443  15.632   7.921
 1121POPC   C4B18382   6.795  15.571   7.625
 1122POPC   NC318383  37.004  41.159   9.391
 1122POPC   PO418384  37.398  40.591   9.119
 1122POPC   GL118385  37.041  40.781   9.047
 1122POPC   GL218386  36.770  40.671   9.192
 1122POPC   C1A18387  36.938  41.018   8.718
 1122POPC   D2A18388  36.889  40.797   8.357
 1122POPC   C3A18389  37.166  40.856   8.036
 1122POPC   C4A18390  37.001  41.010   7.663
 1122POPC   C1B18391  36.770  40.460   8.747
 1122POPC   C2B18392  36.692  40.340   8.339
 1122POPC   C3B18393  36.801  40.514   7.910
 1122POPC   C4B18394  36.699  40.626   7.467
 1123POPC   NC318395  11.651  27.134   9.345
 1123POPC   PO418396  12.097  27.690   9.531
 1123POPC   GL118397  11.999  27.664   9.122
 1123POPC   GL218398  12.317  27.536   9.053
 1123POPC   C1A18399  11.985  27.606   8.661
 1123POPC   D2A18400  11.947  27.242   8.359
 1123POPC   C3A18401  11.767  27.468   8.026
 1123POPC   C4A18402  11.833  27.860   7.770
 1123POPC   C1B18403  12.323  27.977   8.885
 1123POPC   C2B18404  12.327  27.985   8.467
 1123POPC   C3B18405  12.218  27.629   8.192
 1123POPC   C4B18406  12.202  27.484   7.751
 1124POPC   NC318407   4.511  19.793   9.386
 1124POPC   PO418408   3.896  19.664   9.605
 1124POPC   GL118409   4.005  19.869   9.212
 1124POPC   GL218410   4.175  20.156   9.181
 1124POPC   C1A18411   4.122  19.844   8.783
 1124POPC   D2A18412   4.081  19.603   8.416
 1124POPC   C3A18413   3.968  19.652   7.981
 1124POPC   C4A18414   4.126  19.771   7.559
 1124POPC   C1B18415   4.482  20.281   8.865
 1124POPC   C2B18416   4.295  20.208   8.476
 1124POPC   C3B18417   4.336  19.997   8.091
 1124POPC   C4B18418   4.557  19.998   7.697
 1125POPC   NC318419  12.386   4.944   9.625
 1125POPC   PO418420  11.799   5.318   9.405
 1125POPC   GL118421  11.887   5.130   9.046
 1125POPC   GL218422  12.096   4.926   9.189
 1125POPC   C1A18423  12.147   5.279   8.684
 1125POPC   D2A18424  12.279   5.322   8.259
 1125POPC   C3A18425  12.186   5.086   7.894
 1125POPC   C4A18426  12.190   5.153   7.437
 1125POPC   C1B18427  12.289   4.819   8.818
 1125POPC   C2B18428  12.133   4.819   8.389
 1125POPC   C3B18429  11.811   4.753   8.066
 1125POPC   C4B18430  11.788   4.865   7.641
 1126POPC   NC318431   7.457  31.595   9.484
 1126POPC   PO418432   6.788  31.412   9.529
 1126POPC   GL118433   7.050  31.557   9.131
 1126POPC   GL218434   7.346  31.358   9.074
 1126POPC   C1A18435   7.316  31.738   8.751
 1126POPC   D2A18436   7.218  31.778   8.306
 1126POPC   C3A18437   7.455  31.586   7.974
 1126POPC   C4A18438   7.428  31.605   7.550
 1126POPC   C1B18439   7.594  31.213   8.736
 1126POPC   C2B18440   7.498  31.187   8.303
 1126POPC   C3B18441   7.600  31.042   7.899
 1126POPC   C4B18442   7.760  31.175   7.510
 1127POPC   NC318443  21.039  23.210   9.404
 1127POPC   PO418444  21.541  22.886   9.571
 1127POPC   GL118445  21.401  22.783   9.148
 1127POPC   GL218446  21.060  22.826   9.084
 1127POPC   C1A18447  21.622  22.773   8.733
 1127POPC   D2A18448  21.380  22.657   8.396
 1127POPC   C3A18449  21.499  22.798   8.006
 1127POPC   C4A18450  21.295  22.796   7.625
 1127POPC   C1B18451  21.209  23.057   8.718
 1127POPC   C2B18452  21.431  23.195   8.347
 1127POPC   C3B18453  21.334  23.264   7.912
 1127POPC   C4B18454  21.226  23.272   7.458
 1128POPC   NC318455  17.058  22.994   9.353
 1128POPC   PO418456  16.446  23.215   9.534
 1128POPC   GL118457  16.384  23.026   9.152
 1128POPC   GL218458  16.665  22.891   9.060
 1128POPC   C1A18459  16.296  23.147   8.720
 1128POPC   D2A18460  16.355  23.114   8.264
 1128POPC   C3A18461  16.651  23.126   7.942
 1128POPC   C4A18462  16.550  22.960   7.540
 1128POPC   C1B18463  16.751  22.912   8.634
 1128POPC   C2B18464  16.944  22.696   8.297
 1128POPC   C3B18465  16.845  22.600   7.885
 1128POPC   C4B18466  16.987  22.736   7.472
 1129POPC   NC318467  42.591   9.248   9.410
 1129POPC   PO418468  42.258   9.836   9.646
 1129POPC   GL118469  42.241   9.834   9.195
 1129POPC   GL218470  42.556   9.684   9.164
 1129POPC   C1A18471  42.326   9.720   8.726
 1129POPC   D2A18472  42.227   9.497   8.365
 1129POPC   C3A18473  42.266   9.819   8.093
 1129POPC   C4A18474  42.298   9.845   7.669
 1129POPC   C1B18475  42.732   9.436   8.811
 1129POPC   C2B18476  42.784   9.536   8.385
 1129POPC   C3B18477  42.677   9.564   7.967
 1129POPC   C4B18478  42.561   9.417   7.570
 1130POPC   NC318479  40.182  14.987   9.323
 1130POPC   PO418480  39.885  15.468   9.629
 1130POPC   GL118481  39.843  15.401   9.152
 1130POPC   GL218482  40.155  15.328   8.915
 1130POPC   C1A18483  39.759  15.510   8.695
 1130POPC   D2A18484  40.062  15.420   8.376
 1130POPC   C3A18485  40.133  15.262   7.961
 1130POPC   C4A18486  39.942  15.338   7.559
 1130POPC   C1B18487  39.928  15.010   8.681
 1130POPC   C2B18488  39.688  15.063   8.297
 1130POPC   C3B18489  39.727  14.968   7.891
 1130POPC   C4B18490  40.090  14.854   7.647
 1131POPC   NC318491  37.059  16.358   9.380
 1131POPC   PO418492  36.886  16.977   9.537
 1131POPC   GL118493  37.089  16.849   9.148
 1131POPC   GL218494  36.748  16.713   9.072
 1131POPC   C1A18495  37.095  16.682   8.699
 1131POPC   D2A18496  36.764  16.559   8.389
 1131POPC   C3A18497  36.877  16.638   7.949
 1131POPC   C4A18498  37.020  16.889   7.574
 1131POPC   C1B18499  36.464  16.868   8.736
 1131POPC   C2B18500  36.469  17.013   8.309
 1131POPC   C3B18501  36.403  16.815   7.893
 1131POPC   C4B18502  36.611  16.634   7.486
 1132POPC   NC318503  42.070  32.502   9.796
 1132POPC   PO418504  41.517  32.978   9.625
 1132POPC   GL118505  41.550  33.007   9.185
 1132POPC   GL218506  41.250  32.920   9.039
 1132POPC   C1A18507  41.821  33.055   8.816
 1132POPC   D2A18508  41.970  32.890   8.410
 1132POPC   C3A18509  41.922  33.132   8.041
 1132POPC   C4A18510  41.741  32.818   7.799
 1132POPC   C1B18511  41.386  32.853   8.620
 1132POPC   C2B18512  41.447  33.024   8.222
 1132POPC   C3B18513  41.281  33.025   7.820
 1132POPC   C4B18514  41.022  33.231   7.654
 1133POPC   NC318515  36.539  44.997   9.923
 1133POPC   PO418516  35.968  44.706   9.617
 1133POPC   GL118517  35.990  44.661   9.154
 1133POPC   GL218518  35.939  44.327   9.008
 1133POPC   C1A18519  36.109  44.834   8.741
 1133POPC   D2A18520  36.416  44.679   8.437
 1133POPC   C3A18521  36.283  44.618   8.036
 1133POPC   C4A18522  36.204  44.843   7.675
 1133POPC   C1B18523  35.680  44.557   8.719
 1133POPC   C2B18524  35.840  44.680   8.308
 1133POPC   C3B18525  35.808  44.511   7.884
 1133POPC   C4B18526  35.809  44.639   7.426
 1134POPC   NC318527   9.791  32.646   9.762
 1134POPC   PO418528   9.480  32.107   9.708
 1134POPC   GL118529   9.698  32.282   9.305
 1134POPC   GL218530   9.974  32.190   9.162
 1134POPC   C1A18531   9.614  32.288   8.815
 1134POPC   D2A18532   9.772  32.175   8.410
 1134POPC   C3A18533   9.599  32.405   8.091
 1134POPC   C4A18534   9.390  32.274   7.741
 1134POPC   C1B18535  10.118  32.045   8.764
 1134POPC   C2B18536  10.029  31.713   8.452
 1134POPC   C3B18537  10.113  31.755   8.026
 1134POPC   C4B18538  10.003  32.155   7.857
 1135POPC   NC318539  41.136  22.472   9.468
 1135POPC   PO418540  41.636  22.995   9.647
 1135POPC   GL118541  41.783  23.054   9.199
 1135POPC   GL218542  41.628  23.360   9.119
 1135POPC   C1A18543  41.741  22.934   8.754
 1135POPC   D2A18544  41.965  22.851   8.360
 1135POPC   C3A18545  41.756  22.790   7.981
 1135POPC   C4A18546  41.549  22.730   7.608
 1135POPC   C1B18547  41.346  23.260   8.755
 1135POPC   C2B18548  41.441  23.098   8.319
 1135POPC   C3B18549  41.325  23.124   7.854
 1135POPC   C4B18550  41.328  23.278   7.410
 1136POPC   NC318551  31.615   0.597   9.493
 1136POPC   PO418552  31.347   0.095   9.286
 1136POPC   GL118553  31.627   0.333   9.043
 1136POPC   GL218554  31.600   0.703   8.995
 1136POPC   C1A18555  31.668   0.306   8.632
 1136POPC   D2A18556  31.610   0.592   8.294
 1136POPC   C3A18557  31.697   0.444   7.916
 1136POPC   C4A18558  31.814   0.053   7.855
 1136POPC   C1B18559  31.278   0.671   8.681
 1136POPC   C2B18560  31.215   0.907   8.296
 1136POPC   C3B18561  31.470   0.926   7.912
 1136POPC   C4B18562  31.635   0.752   7.510
 1137POPC   NC318563  30.516   2.087   9.616
 1137POPC   PO418564  31.069   1.758   9.589
 1137POPC   GL118565  30.825   1.952   9.223
 1137POPC   GL218566  30.468   1.893   9.155
 1137POPC   C1A18567  30.843   2.089   8.787
 1137POPC   D2A18568  30.727   2.322   8.424
 1137POPC   C3A18569  30.738   2.108   8.029
 1137POPC   C4A18570  30.493   2.188   7.658
 1137POPC   C1B18571  30.336   2.087   8.804
 1137POPC   C2B18572  30.373   1.910   8.423
 1137POPC   C3B18573  30.273   1.884   8.007
 1137POPC   C4B18574  30.089   1.876   7.604
 1138POPC   NC318575  20.776  35.535   9.423
 1138POPC   PO418576  20.413  34.979   9.366
 1138POPC   GL118577  20.629  35.214   9.086
 1138POPC   GL218578  20.349  35.455   9.049
 1138POPC   C1A18579  20.712  35.424   8.693
 1138POPC   D2A18580  20.584  35.390   8.298
 1138POPC   C3A18581  20.785  35.593   8.010
 1138POPC   C4A18582  20.502  35.479   7.712
 1138POPC   C1B18583  20.317  35.104   8.715
 1138POPC   C2B18584  20.185  35.063   8.344
 1138POPC   C3B18585  20.288  35.024   7.953
 1138POPC   C4B18586  20.211  35.118   7.530
 1139POPC   NC318587  31.891   3.588   9.749
 1139POPC   PO418588  31.236   3.305   9.660
 1139POPC   GL118589  31.379   3.429   9.163
 1139POPC   GL218590  31.472   3.758   9.051
 1139POPC   C1A18591  31.182   3.520   8.737
 1139POPC   D2A18592  31.434   3.707   8.394
 1139POPC   C3A18593  31.294   3.506   8.019
 1139POPC   C4A18594  31.394   3.361   7.600
 1139POPC   C1B18595  31.158   4.033   8.859
 1139POPC   C2B18596  30.983   3.966   8.474
 1139POPC   C3B18597  31.152   4.027   8.068
 1139POPC   C4B18598  31.186   3.825   7.654
 1140POPC   NC318599  27.273   5.822   9.558
 1140POPC   PO418600  26.641   6.075   9.444
 1140POPC   GL118601  26.741   5.798   9.105
 1140POPC   GL218602  27.071   5.647   9.136
 1140POPC   C1A18603  26.953   5.984   8.739
 1140POPC   D2A18604  27.039   6.211   8.370
 1140POPC   C3A18605  26.826   6.055   8.009
 1140POPC   C4A18606  26.578   6.216   7.677
 1140POPC   C1B18607  27.134   5.505   8.737
 1140POPC   C2B18608  27.108   5.677   8.320
 1140POPC   C3B18609  27.039   5.554   7.895
 1140POPC   C4B18610  26.975   5.554   7.459
 1141POPC   NC318611  22.995  20.415   9.613
 1141POPC   PO418612  22.927  21.032   9.666
 1141POPC   GL118613  23.039  20.767   9.249
 1141POPC   GL218614  22.805  20.476   9.155
 1141POPC   C1A18615  23.139  20.633   8.795
 1141POPC   D2A18616  23.312  20.531   8.370
 1141POPC   C3A18617  23.368  20.874   8.064
 1141POPC   C4A18618  23.099  20.857   7.696
 1141POPC   C1B18619  22.591  20.556   8.756
 1141POPC   C2B18620  22.662  20.362   8.322
 1141POPC   C3B18621  22.783  20.421   7.859
 1141POPC   C4B18622  22.642  20.615   7.458
 1142POPC   NC318623  10.153  42.978   9.822
 1142POPC   PO418624   9.647  42.703   9.462
 1142POPC   GL118625   9.556  42.915   9.081
 1142POPC   GL218626   9.793  43.159   8.951
 1142POPC   C1A18627   9.453  42.857   8.653
 1142POPC   D2A18628   9.515  43.145   8.301
 1142POPC   C3A18629   9.451  42.998   7.920
 1142POPC   C4A18630   9.733  42.728   7.726
 1142POPC   C1B18631   9.950  43.085   8.562
 1142POPC   C2B18632   9.962  43.426   8.290
 1142POPC   C3B18633   9.789  43.433   7.930
 1142POPC   C4B18634   9.724  43.226   7.568
 1143POPC   NC318635  26.743  38.812   9.520
 1143POPC   PO418636  26.755  39.449   9.617
 1143POPC   GL118637  26.737  39.486   9.158
 1143POPC   GL218638  27.060  39.421   9.100
 1143POPC   C1A18639  26.705  39.208   8.762
 1143POPC   D2A18640  26.752  38.806   8.487
 1143POPC   C3A18641  26.767  38.872   8.009
 1143POPC   C4A18642  26.515  39.198   7.769
 1143POPC   C1B18643  27.216  39.239   8.704
 1143POPC   C2B18644  27.036  39.286   8.306
 1143POPC   C3B18645  26.945  39.432   7.908
 1143POPC   C4B18646  26.632  39.684   7.860
 1144POPC   NC318647  36.404  13.370   9.407
 1144POPC   PO418648  36.094  12.795   9.446
 1144POPC   GL118649  36.257  12.834   9.049
 1144POPC   GL218650  36.577  12.777   9.187
 1144POPC   C1A18651  36.216  12.746   8.585
 1144POPC   D2A18652  36.477  12.627   8.192
 1144POPC   C3A18653  36.244  12.587   7.776
 1144POPC   C4A18654  36.315  12.740   7.313
 1144POPC   C1B18655  36.709  12.774   8.768
 1144POPC   C2B18656  36.587  13.066   8.452
 1144POPC   C3B18657  36.283  13.085   8.119
 1144POPC   C4B18658  36.463  13.046   7.709
 1145POPC   NC318659   9.376   3.630   9.764
 1145POPC   PO418660  10.007   3.426   9.680
 1145POPC   GL118661   9.925   3.345   9.212
 1145POPC   GL218662   9.624   3.398   9.151
 1145POPC   C1A18663   9.976   3.422   8.757
 1145POPC   D2A18664   9.770   3.403   8.358
 1145POPC   C3A18665   9.977   3.325   7.964
 1145POPC   C4A18666   9.994   3.472   7.523
 1145POPC   C1B18667   9.497   3.632   8.765
 1145POPC   C2B18668   9.364   3.703   8.339
 1145POPC   C3B18669   9.576   3.659   7.945
 1145POPC   C4B18670   9.380   3.842   7.596
 1146POPC   NC318671  10.140   7.129   9.481
 1146POPC   PO418672  10.563   7.583   9.494
 1146POPC   GL118673  10.281   7.464   9.122
 1146POPC   GL218674  10.083   7.110   8.987
 1146POPC   C1A18675  10.425   7.387   8.718
 1146POPC   D2A18676  10.664   7.308   8.359
 1146POPC   C3A18677  10.404   7.464   8.047
 1146POPC   C4A18678  10.430   7.577   7.620
 1146POPC   C1B18679  10.322   6.899   8.660
 1146POPC   C2B18680  10.308   6.949   8.197
 1146POPC   C3B18681   9.995   7.052   7.864
 1146POPC   C4B18682  10.063   7.222   7.443
 1147POPC   NC318683  11.238   0.142   9.639
 1147POPC   PO418684  11.508  44.540   9.545
 1147POPC   GL118685  11.168  44.680   9.249
 1147POPC   GL218686  11.106   0.031   9.157
 1147POPC   C1A18687  11.113  44.685   8.797
 1147POPC   D2A18688  11.232   0.012   8.510
 1147POPC   C3A18689  11.320  44.778   8.149
 1147POPC   C4A18690  11.245  44.346   7.930
 1147POPC   C1B18691  11.498   0.004   8.955
 1147POPC   C2B18692  11.785  44.956   8.608
 1147POPC   C3B18693  11.843  44.879   8.174
 1147POPC   C4B18694  11.661   0.079   7.842
 1148POPC   NC318695  38.942  13.892   9.492
 1148POPC   PO418696  39.409  13.434   9.584
 1148POPC   GL118697  39.215  13.523   9.204
 1148POPC   GL218698  38.848  13.498   9.203
 1148POPC   C1A18699  39.195  13.822   8.882
 1148POPC   D2A18700  39.136  13.737   8.470
 1148POPC   C3A18701  39.452  13.761   8.139
 1148POPC   C4A18702  39.318  13.699   7.712
 1148POPC   C1B18703  38.866  13.402   8.779
 1148POPC   C2B18704  38.788  13.333   8.355
 1148POPC   C3B18705  38.925  13.567   8.027
 1148POPC   C4B18706  38.855  13.453   7.627
 1149POPC   NC318707  19.338   3.147   9.437
 1149POPC   PO418708  18.942   3.637   9.544
 1149POPC   GL118709  19.040   3.465   9.174
 1149POPC   GL218710  19.169   3.773   9.053
 1149POPC   C1A18711  18.884   3.412   8.778
 1149POPC   D2A18712  19.015   3.628   8.443
 1149POPC   C3A18713  18.853   3.495   8.069
 1149POPC   C4A18714  18.985   3.291   7.695
 1149POPC   C1B18715  19.407   3.926   8.719
 1149POPC   C2B18716  19.309   4.008   8.306
 1149POPC   C3B18717  19.298   3.760   7.962
 1149POPC   C4B18718  18.991   3.818   7.671
 1150POPC   NC318719  19.281  19.616   9.485
 1150POPC   PO418720  18.912  20.105   9.871
 1150POPC   GL118721  18.875  19.933   9.393
 1150POPC   GL218722  18.916  20.186   9.150
 1150POPC   C1A18723  18.857  19.710   8.954
 1150POPC   D2A18724  18.809  19.838   8.500
 1150POPC   C3A18725  18.925  19.608   8.139
 1150POPC   C4A18726  18.994  19.789   7.731
 1150POPC   C1B18727  19.170  20.072   8.788
 1150POPC   C2B18728  19.492  19.940   8.518
 1150POPC   C3B18729  19.383  19.867   8.108
 1150POPC   C4B18730  19.481  19.992   7.730
 1151POPC   NC318731  37.315   8.691   9.412
 1151POPC   PO418732  37.723   8.124   9.488
 1151POPC   GL118733  37.665   8.377   9.166
 1151POPC   GL218734  37.894   8.622   9.255
 1151POPC   C1A18735  37.594   8.234   8.750
 1151POPC   D2A18736  37.394   8.244   8.354
 1151POPC   C3A18737  37.591   8.004   8.010
 1151POPC   C4A18738  37.458   7.987   7.587
 1151POPC   C1B18739  37.800   8.736   8.834
 1151POPC   C2B18740  37.848   8.542   8.429
 1151POPC   C3B18741  37.694   8.533   8.033
 1151POPC   C4B18742  37.777   8.377   7.683
 1152POPC   NC318743  12.859   9.269   9.610
 1152POPC   PO418744  13.362   8.845   9.800
 1152POPC   GL118745  13.058   8.802   9.373
 1152POPC   GL218746  12.824   9.051   9.167
 1152POPC   C1A18747  12.984   8.690   8.891
 1152POPC   D2A18748  12.759   8.828   8.479
 1152POPC   C3A18749  13.025   8.769   8.087
 1152POPC   C4A18750  12.809   8.647   7.719
 1152POPC   C1B18751  12.929   9.226   8.745
 1152POPC   C2B18752  13.120   9.187   8.348
 1152POPC   C3B18753  12.935   9.240   7.919
 1152POPC   C4B18754  12.947   9.091   7.449
 1153POPC   NC318755  10.375   3.513   9.414
 1153POPC   PO418756  11.010   3.773   9.413
 1153POPC   GL118757  10.726   3.557   9.057
 1153POPC   GL218758  10.378   3.730   8.944
 1153POPC   C1A18759  10.479   3.318   8.709
 1153POPC   D2A18760  10.311   3.510   8.322
 1153POPC   C3A18761  10.504   3.304   7.946
 1153POPC   C4A18762  10.503   3.192   7.524
 1153POPC   C1B18763  10.693   3.777   8.604
 1153POPC   C2B18764  10.807   4.100   8.318
 1153POPC   C3B18765  10.669   4.029   7.913
 1153POPC   C4B18766  10.385   3.739   7.703
 1154POPC   NC318767   9.235   2.768   9.553
 1154POPC   PO418768   8.650   2.440   9.500
 1154POPC   GL118769   8.873   2.675   9.198
 1154POPC   GL218770   9.147   2.450   9.163
 1154POPC   C1A18771   9.015   2.818   8.801
 1154POPC   D2A18772   8.886   2.766   8.375
 1154POPC   C3A18773   8.960   3.033   8.086
 1154POPC   C4A18774   9.027   2.874   7.743
 1154POPC   C1B18775   9.292   2.414   8.739
 1154POPC   C2B18776   9.380   2.704   8.447
 1154POPC   C3B18777   9.305   2.626   8.066
 1154POPC   C4B18778   9.233   2.420   7.674
 1155POPC   NC318779   6.258  15.881   9.521
 1155POPC   PO418780   5.592  16.005   9.714
 1155POPC   GL118781   5.835  16.054   9.267
 1155POPC   GL218782   6.205  16.155   9.100
 1155POPC   C1A18783   5.756  16.074   8.812
 1155POPC   D2A18784   5.822  16.203   8.402
 1155POPC   C3A18785   5.579  16.100   8.019
 1155POPC   C4A18786   5.594  16.194   7.568
 1155POPC   C1B18787   6.204  15.754   8.881
 1155POPC   C2B18788   6.007  15.712   8.510
 1155POPC   C3B18789   5.996  15.822   8.111
 1155POPC   C4B18790   6.080  16.105   7.785
 1156POPC   NC318791   4.218  12.787   9.517
 1156POPC   PO418792   4.518  13.325   9.456
 1156POPC   GL118793   4.368  13.091   9.121
 1156POPC   GL218794   4.080  13.258   9.068
 1156POPC   C1A18795   4.471  12.817   8.748
 1156POPC   D2A18796   4.652  12.649   8.358
 1156POPC   C3A18797   4.551  12.854   7.955
 1156POPC   C4A18798   4.187  12.756   7.786
 1156POPC   C1B18799   4.281  13.275   8.655
 1156POPC   C2B18800   4.219  13.109   8.259
 1156POPC   C3B18801   4.041  13.218   7.880
 1156POPC   C4B18802   4.233  13.134   7.459
 1157POPC   NC318803   0.022  39.585   9.404
 1157POPC   PO418804  44.683  38.894   9.476
 1157POPC   GL118805  44.739  39.213   9.186
 1157POPC   GL218806  44.726  38.955   8.962
 1157POPC   C1A18807  44.472  39.466   8.886
 1157POPC   D2A18808  44.334  39.460   8.419
 1157POPC   C3A18809  44.592  39.519   8.019
 1157POPC   C4A18810   0.077  39.509   7.921
 1157POPC   C1B18811  44.672  39.111   8.580
 1157POPC   C2B18812  44.866  39.171   8.249
 1157POPC   C3B18813  44.881  39.032   7.865
 1157POPC   C4B18814  44.500  39.050   7.651
 1158POPC   NC318815  12.801   1.092   9.409
 1158POPC   PO418816  13.485   1.286   9.523
 1158POPC   GL118817  13.220   1.208   9.101
 1158POPC   GL218818  12.852   1.166   8.937
 1158POPC   C1A18819  13.225   1.180   8.625
 1158POPC   D2A18820  13.325   1.262   8.224
 1158POPC   C3A18821  12.942   1.318   8.008
 1158POPC   C4A18822  13.039   1.203   7.612
 1158POPC   C1B18823  12.568   1.070   8.627
 1158POPC   C2B18824  12.475   1.148   8.195
 1158POPC   C3B18825  12.553   1.092   7.740
 1158POPC   C4B18826  12.708   0.924   7.325
 1159POPC   NC318827  25.381  16.182   9.449
 1159POPC   PO418828  24.917  15.724   9.515
 1159POPC   GL118829  25.240  15.737   9.192
 1159POPC   GL218830  25.224  16.024   9.005
 1159POPC   C1A18831  25.387  15.605   8.774
 1159POPC   D2A18832  25.355  15.724   8.332
 1159POPC   C3A18833  25.008  15.768   8.075
 1159POPC   C4A18834  24.990  15.878   7.658
 1159POPC   C1B18835  25.341  16.153   8.622
 1159POPC   C2B18836  25.589  16.228   8.276
 1159POPC   C3B18837  25.394  16.084   7.930
 1159POPC   C4B18838  25.430  16.089   7.486
 1160POPC   NC318839  43.152  32.916   9.599
 1160POPC   PO418840  42.790  32.485   9.264
 1160POPC   GL118841  42.841  32.933   9.167
 1160POPC   GL218842  42.914  33.306   9.106
 1160POPC   C1A18843  42.748  33.030   8.750
 1160POPC   D2A18844  43.035  32.984   8.430
 1160POPC   C3A18845  42.875  32.818   8.072
 1160POPC   C4A18846  43.076  32.919   7.664
 1160POPC   C1B18847  43.134  33.376   8.766
 1160POPC   C2B18848  42.966  33.489   8.375
 1160POPC   C3B18849  42.945  33.313   7.970
 1160POPC   C4B18850  43.122  33.435   7.573
 1161POPC   NC318851  12.542   1.964   9.324
 1161POPC   PO418852  12.023   2.275   9.630
 1161POPC   GL118853  12.056   2.140   9.204
 1161POPC   GL218854  12.085   1.784   9.071
 1161POPC   C1A18855  11.991   2.233   8.798
 1161POPC   D2A18856  11.828   2.364   8.414
 1161POPC   C3A18857  12.028   2.205   8.070
 1161POPC   C4A18858  11.864   2.185   7.665
 1161POPC   C1B18859  12.381   1.899   8.695
 1161POPC   C2B18860  12.539   1.681   8.314
 1161POPC   C3B18861  12.383   1.579   7.916
 1161POPC   C4B18862  12.098   1.720   7.582
 1162POPC   NC318863  43.770  25.625   9.416
 1162POPC   PO418864  43.680  24.989   9.542
 1162POPC   GL118865  43.730  24.986   9.118
 1162POPC   GL218866  43.522  25.267   9.108
 1162POPC   C1A18867  43.881  25.227   8.756
 1162POPC   D2A18868  44.148  25.382   8.451
 1162POPC   C3A18869  43.936  25.318   8.073
 1162POPC   C4A18870  44.083  25.288   7.702
 1162POPC   C1B18871  43.408  25.472   8.742
 1162POPC   C2B18872  43.654  25.590   8.407
 1162POPC   C3B18873  43.467  25.583   8.033
 1162POPC   C4B18874  43.590  25.407   7.662
 1163POPC   NC318875  25.307  33.976   9.852
 1163POPC   PO418876  25.427  33.441   9.379
 1163POPC   GL118877  25.267  33.608   9.038
 1163POPC   GL218878  25.102  33.932   9.127
 1163POPC   C1A18879  25.368  33.581   8.617
 1163POPC   D2A18880  25.367  33.697   8.195
 1163POPC   C3A18881  25.118  33.919   7.895
 1163POPC   C4A18882  25.054  33.701   7.468
 1163POPC   C1B18883  25.376  34.063   8.771
 1163POPC   C2B18884  25.511  34.189   8.372
 1163POPC   C3B18885  25.675  34.058   7.982
 1163POPC   C4B18886  25.465  34.113   7.578
 1164POPC   NC318887  25.022  40.516   9.519
 1164POPC   PO418888  25.597  40.984   9.558
 1164POPC   GL118889  25.323  40.908   9.187
 1164POPC   GL218890  25.147  40.635   9.068
 1164POPC   C1A18891  25.224  40.984   8.722
 1164POPC   D2A18892  24.991  41.094   8.401
 1164POPC   C3A18893  25.249  40.968   8.047
 1164POPC   C4A18894  25.203  41.047   7.579
 1164POPC   C1B18895  25.154  40.351   8.760
 1164POPC   C2B18896  25.070  40.557   8.422
 1164POPC   C3B18897  24.920  40.388   8.120
 1164POPC   C4B18898  25.097  40.581   7.775
 1165POPC   NC318899  39.818  31.704   9.788
 1165POPC   PO418900  40.006  32.323   9.454
 1165POPC   GL118901  40.061  32.496   9.089
 1165POPC   GL218902  39.787  32.729   9.114
 1165POPC   C1A18903  40.111  32.270   8.720
 1165POPC   D2A18904  39.812  32.055   8.491
 1165POPC   C3A18905  39.901  32.160   8.088
 1165POPC   C4A18906  40.165  32.137   7.732
 1165POPC   C1B18907  39.659  32.539   8.732
 1165POPC   C2B18908  39.499  32.500   8.323
 1165POPC   C3B18909  39.590  32.489   7.861
 1165POPC   C4B18910  39.882  32.757   7.637
 1166POPC   NC318911  44.575  41.782   9.562
 1166POPC   PO418912  44.471  41.369   9.230
 1166POPC   GL118913  44.800  41.365   8.968
 1166POPC   GL218914  44.831  41.711   9.046
 1166POPC   C1A18915  44.705  41.372   8.520
 1166POPC   D2A18916  44.361  41.497   8.236
 1166POPC   C3A18917  44.480  41.382   7.819
 1166POPC   C4A18918  44.302  41.470   7.382
 1166POPC   C1B18919  44.445  41.792   8.764
 1166POPC   C2B18920  44.479  41.974   8.375
 1166POPC   C3B18921  44.782  41.779   8.116
 1166POPC   C4B18922  44.804  41.738   7.682
 1167POPC   NC318923  22.975  16.436   9.512
 1167POPC   PO418924  23.107  15.821   9.580
 1167POPC   GL118925  23.147  16.019   9.194
 1167POPC   GL218926  22.812  16.042   9.199
 1167POPC   C1A18927  23.006  15.791   8.793
 1167POPC   D2A18928  22.794  15.644   8.428
 1167POPC   C3A18929  23.055  15.749   8.086
 1167POPC   C4A18930  23.194  15.959   7.719
 1167POPC   C1B18931  22.863  16.284   8.824
 1167POPC   C2B18932  22.944  16.130   8.422
 1167POPC   C3B18933  22.651  16.056   8.090
 1167POPC   C4B18934  22.681  16.188   7.655
 1168POPC   NC318935  35.454  21.641   9.529
 1168POPC   PO418936  34.951  21.220   9.686
 1168POPC   GL118937  35.106  21.431   9.233
 1168POPC   GL218938  35.440  21.348   9.117
 1168POPC   C1A18939  35.100  21.431   8.766
 1168POPC   D2A18940  35.322  21.538   8.393
 1168POPC   C3A18941  35.088  21.637   8.075
 1168POPC   C4A18942  35.157  21.603   7.662
 1168POPC   C1B18943  35.613  21.266   8.705
 1168POPC   C2B18944  35.768  21.270   8.287
 1168POPC   C3B18945  35.482  21.287   7.934
 1168POPC   C4B18946  35.580  21.375   7.515
 1169POPC   NC318947  40.129  38.230   9.465
 1169POPC   PO418948  39.802  38.910   9.599
 1169POPC   GL118949  39.938  38.643   9.225
 1169POPC   GL218950  39.758  38.363   9.109
 1169POPC   C1A18951  40.132  38.508   8.813
 1169POPC   D2A18952  39.962  38.243   8.490
 1169POPC   C3A18953  40.213  38.261   8.154
 1169POPC   C4A18954  40.048  38.337   7.764
 1169POPC   C1B18955  39.592  38.500   8.724
 1169POPC   C2B18956  39.601  38.703   8.344
 1169POPC   C3B18957  39.480  38.586   7.919
 1169POPC   C4B18958  39.659  38.478   7.486
 1170POPC   NC318959  31.404  13.936   9.504
 1170POPC   PO418960  31.155  13.232   9.508
 1170POPC   GL118961  31.203  13.539   9.208
 1170POPC   GL218962  31.549  13.638   9.118
 1170POPC   C1A18963  31.071  13.568   8.818
 1170POPC   D2A18964  31.310  13.719   8.488
 1170POPC   C3A18965  31.165  13.621   8.092
 1170POPC   C4A18966  31.192  14.033   7.922
 1170POPC   C1B18967  31.832  13.734   8.774
 1170POPC   C2B18968  31.808  13.603   8.375
 1170POPC   C3B18969  31.652  13.816   8.066
 1170POPC   C4B18970  31.498  13.661   7.708
 1171POPC   NC318971  33.567  19.726   9.281
 1171POPC   PO418972  33.924  20.219   9.344
 1171POPC   GL118973  33.801  20.107   8.952
 1171POPC   GL218974  33.442  20.078   8.966
 1171POPC   C1A18975  33.810  19.762   8.657
 1171POPC   D2A18976  33.539  19.646   8.312
 1171POPC   C3A18977  33.774  19.743   7.931
 1171POPC   C4A18978  34.003  19.668   7.534
 1171POPC   C1B18979  33.419  20.082   8.564
 1171POPC   C2B18980  33.433  20.173   8.180
 1171POPC   C3B18981  33.538  20.178   7.796
 1171POPC   C4B18982  33.577  19.927   7.448
 1172POPC   NC318983   8.527  21.739   9.283
 1172POPC   PO418984   8.150  21.301   9.521
 1172POPC   GL118985   8.089  21.392   9.095
 1172POPC   GL218986   8.408  21.293   9.039
 1172POPC   C1A18987   8.065  21.293   8.634
 1172POPC   D2A18988   7.899  21.436   8.253
 1172POPC   C3A18989   7.974  21.142   7.948
 1172POPC   C4A18990   8.233  21.428   7.763
 1172POPC   C1B18991   8.547  21.480   8.655
 1172POPC   C2B18992   8.493  21.399   8.221
 1172POPC   C3B18993   8.728  21.520   7.848
 1172POPC   C4B18994   8.531  21.912   7.706
 1173POPC   NC318995  31.202  26.091   9.570
 1173POPC   PO418996  30.561  25.849   9.438
 1173POPC   GL118997  30.892  25.885   9.149
 1173POPC   GL218998  30.978  26.227   9.122
 1173POPC   C1A18999  30.795  25.972   8.713
 1173POPC   D2A19000  30.591  26.298   8.466
 1173POPC   C3A19001  30.696  26.238   8.058
 1173POPC   C4A19002  30.816  25.807   7.920
 1173POPC   C1B19003  31.200  26.268   8.715
 1173POPC   C2B19004  31.125  26.093   8.275
 1173POPC   C3B19005  31.161  26.157   7.785
 1173POPC   C4B19006  31.165  26.329   7.332
 1174POPC   NC319007  25.453  27.738   9.677
 1174POPC   PO419008  24.915  27.299   9.541
 1174POPC   GL119009  25.050  27.228   9.088
 1174POPC   GL219010  25.223  27.473   8.869
 1174POPC   C1A19011  24.784  27.246   8.713
 1174POPC   D2A19012  24.798  27.462   8.337
 1174POPC   C3A19013  25.220  27.473   8.200
 1174POPC   C4A19014  25.324  27.334   7.785
 1174POPC   C1B19015  25.073  27.837   8.633
 1174POPC   C2B19016  24.970  27.998   8.227
 1174POPC   C3B19017  25.097  27.820   7.856
 1174POPC   C4B19018  25.515  27.796   7.704
 1175POPC   NC319019  21.096  23.997   9.384
 1175POPC   PO419020  20.624  23.445   9.553
 1175POPC   GL119021  20.756  23.558   9.112
 1175POPC   GL219022  20.987  23.807   8.935
 1175POPC   C1A19023  20.550  23.648   8.713
 1175POPC   D2A19024  20.689  23.740   8.294
 1175POPC   C3A19025  20.560  23.415   8.019
 1175POPC   C4A19026  20.265  23.286   7.729
 1175POPC   C1B19027  20.749  24.134   8.699
 1175POPC   C2B19028  20.590  24.269   8.287
 1175POPC   C3B19029  20.369  24.007   7.981
 1175POPC   C4B19030  20.555  23.792   7.646
 1176POPC   NC319031  23.795   5.574   9.841
 1176POPC   PO419032  24.331   5.639   9.408
 1176POPC   GL119033  24.562   5.530   9.059
 1176POPC   GL219034  24.800   5.769   9.120
 1176POPC   C1A19035  24.544   5.543   8.651
 1176POPC   D2A19036  24.554   5.682   8.252
 1176POPC   C3A19037  24.185   5.639   8.009
 1176POPC   C4A19038  24.085   5.837   7.627
 1176POPC   C1B19039  24.872   5.957   8.703
 1176POPC   C2B19040  25.044   6.148   8.309
 1176POPC   C3B19041  24.849   6.208   7.886
 1176POPC   C4B19042  24.645   5.819   7.779
 1177POPC   NC319043  29.755  43.006   9.455
 1177POPC   PO419044  30.093  43.474   9.357
 1177POPC   GL119045  29.887  43.250   9.022
 1177POPC   GL219046  29.581  43.358   9.122
 1177POPC   C1A19047  29.922  43.067   8.593
 1177POPC   D2A19048  30.265  42.983   8.272
 1177POPC   C3A19049  30.301  43.180   7.839
 1177POPC   C4A19050  30.306  43.330   7.391
 1177POPC   C1B19051  29.583  43.500   8.681
 1177POPC   C2B19052  29.609  43.311   8.280
 1177POPC   C3B19053  29.830  43.004   8.006
 1177POPC   C4B19054  29.888  43.063   7.528
 1178POPC   NC319055  11.823   8.921   9.383
 1178POPC   PO419056  12.453   9.045   9.536
 1178POPC   GL119057  12.316   8.988   9.108
 1178POPC   GL219058  12.197   8.667   9.155
 1178POPC   C1A19059  12.224   9.106   8.664
 1178POPC   D2A19060  11.885   9.140   8.360
 1178POPC   C3A19061  12.070   9.276   7.963
 1178POPC   C4A19062  12.092   9.245   7.499
 1178POPC   C1B19063  12.037   8.620   8.731
 1178POPC   C2B19064  12.216   8.707   8.317
 1178POPC   C3B19065  12.220   8.776   7.877
 1178POPC   C4B19066  11.972   8.715   7.507
 1179POPC   NC319067   9.965  25.820   9.468
 1179POPC   PO419068   9.378  26.195   9.372
 1179POPC   GL119069   9.673  25.989   9.064
 1179POPC   GL219070   9.742  25.619   9.020
 1179POPC   C1A19071   9.602  25.942   8.610
 1179POPC   D2A19072   9.390  25.707   8.269
 1179POPC   C3A19073   9.544  25.794   7.888
 1179POPC   C4A19074   9.706  26.212   7.893
 1179POPC   C1B19075  10.090  25.868   8.803
 1179POPC   C2B19076  10.287  25.976   8.416
 1179POPC   C3B19077  10.052  25.884   8.060
 1179POPC   C4B19078   9.970  25.831   7.616
 1180POPC   NC319079  22.762  14.640   9.375
 1180POPC   PO419080  23.179  14.086   9.537
 1180POPC   GL119081  23.083  14.182   9.124
 1180POPC   GL219082  22.737  14.233   9.062
 1180POPC   C1A19083  23.137  14.549   8.812
 1180POPC   D2A19084  23.044  14.827   8.441
 1180POPC   C3A19085  23.129  14.591   8.061
 1180POPC   C4A19086  22.866  14.400   7.726
 1180POPC   C1B19087  22.830  14.155   8.665
 1180POPC   C2B19088  22.716  13.906   8.333
 1180POPC   C3B19089  22.860  13.946   7.946
 1180POPC   C4B19090  22.683  13.950   7.552
 1181POPC   NC319091   3.423  39.579   9.395
 1181POPC   PO419092   3.856  39.105   9.561
 1181POPC   GL119093   3.594  39.145   9.164
 1181POPC   GL219094   3.232  39.035   9.231
 1181POPC   C1A19095   3.450  39.385   8.773
 1181POPC   D2A19096   3.164  39.467   8.415
 1181POPC   C3A19097   3.335  39.486   7.991
 1181POPC   C4A19098   3.596  39.324   7.661
 1181POPC   C1B19099   3.378  38.752   8.898
 1181POPC   C2B19100   3.591  38.806   8.503
 1181POPC   C3B19101   3.413  39.005   8.120
 1181POPC   C4B19102   3.174  39.038   7.720
 1182POPC   NC319103  33.469  32.898   9.600
 1182POPC   PO419104  32.864  33.217   9.495
 1182POPC   GL119105  32.981  33.058   9.118
 1182POPC   GL219106  33.227  32.777   9.108
 1182POPC   C1A19107  32.823  33.204   8.719
 1182POPC   D2A19108  33.014  33.354   8.355
 1182POPC   C3A19109  32.893  33.120   8.027
 1182POPC   C4A19110  33.078  33.055   7.625
 1182POPC   C1B19111  32.958  32.720   8.739
 1182POPC   C2B19112  32.767  32.705   8.322
 1182POPC   C3B19113  32.872  32.634   7.871
 1182POPC   C4B19114  32.848  32.586   7.451
 1183POPC   NC319115  38.197   1.876   9.418
 1183POPC   PO419116  38.780   1.822   9.370
 1183POPC   GL119117  38.496   1.856   9.012
 1183POPC   GL219118  38.179   2.114   8.964
 1183POPC   C1A19119  38.556   1.882   8.593
 1183POPC   D2A19120  38.831   1.877   8.287
 1183POPC   C3A19121  38.684   1.807   7.880
 1183POPC   C4A19122  38.664   2.145   7.590
 1183POPC   C1B19123  38.093   1.723   8.745
 1183POPC   C2B19124  38.230   1.618   8.348
 1183POPC   C3B19125  38.265   1.951   8.111
 1183POPC   C4B19126  38.201   1.991   7.688
 1184POPC   NC319127  14.408  28.592   9.246
 1184POPC   PO419128  14.725  28.087   9.659
 1184POPC   GL119129  14.586  28.050   9.116
 1184POPC   GL219130  14.343  28.289   8.864
 1184POPC   C1A19131  14.797  28.219   8.695
 1184POPC   D2A19132  14.557  28.230   8.336
 1184POPC   C3A19133  14.689  28.316   7.931
 1184POPC   C4A19134  14.530  28.270   7.539
 1184POPC   C1B19135  14.534  28.667   8.611
 1184POPC   C2B19136  14.550  28.723   8.177
 1184POPC   C3B19137  14.278  28.614   7.820
 1184POPC   C4B19138  14.635  28.781   7.616
 1185POPC   NC319139   3.706  20.086   9.592
 1185POPC   PO419140   3.450  19.406   9.427
 1185POPC   GL119141   3.446  19.580   9.058
 1185POPC   GL219142   3.501  19.884   9.170
 1185POPC   C1A19143   3.625  19.708   8.682
 1185POPC   D2A19144   3.548  19.553   8.277
 1185POPC   C3A19145   3.497  19.869   7.979
 1185POPC   C4A19146   3.113  20.004   7.787
 1185POPC   C1B19147   3.188  19.991   8.879
 1185POPC   C2B19148   3.302  20.047   8.463
 1185POPC   C3B19149   3.304  20.325   8.137
 1185POPC   C4B19150   3.569  20.318   7.744
 1186POPC   NC319151   5.466  25.452   9.549
 1186POPC   PO419152   4.861  25.156   9.481
 1186POPC   GL119153   4.935  25.347   9.148
 1186POPC   GL219154   5.266  25.194   9.108
 1186POPC   C1A19155   4.827  25.228   8.751
 1186POPC   D2A19156   5.089  25.080   8.449
 1186POPC   C3A19157   4.942  25.146   8.052
 1186POPC   C4A19158   5.018  25.369   7.694
 1186POPC   C1B19159   5.243  25.574   8.821
 1186POPC   C2B19160   5.047  25.590   8.424
 1186POPC   C3B19161   5.219  25.642   8.048
 1186POPC   C4B19162   5.467  25.622   7.701
 1187POPC   NC319163  44.154  32.611   9.848
 1187POPC   PO419164  43.586  32.807   9.603
 1187POPC   GL119165  43.646  32.878   9.177
 1187POPC   GL219166  43.373  33.077   9.149
 1187POPC   C1A19167  43.937  32.840   8.826
 1187POPC   D2A19168  44.059  33.118   8.494
 1187POPC   C3A19169  44.140  32.869   8.127
 1187POPC   C4A19170  43.809  32.732   7.847
 1187POPC   C1B19171  43.640  33.255   8.821
 1187POPC   C2B19172  43.511  33.303   8.416
 1187POPC   C3B19173  43.404  33.068   8.064
 1187POPC   C4B19174  43.557  33.143   7.671
 1188POPC   NC319175  40.778   0.897   9.465
 1188POPC   PO419176  40.712   1.593   9.427
 1188POPC   GL119177  40.863   1.268   9.121
 1188POPC   GL219178  41.189   1.204   9.188
 1188POPC   C1A19179  40.743   1.033   8.741
 1188POPC   D2A19180  40.544   1.250   8.389
 1188POPC   C3A19181  40.476   1.000   8.049
 1188POPC   C4A19182  40.561   0.974   7.613
 1188POPC   C1B19183  41.250   1.150   8.727
 1188POPC   C2B19184  41.100   1.146   8.260
 1188POPC   C3B19185  40.857   1.334   7.900
 1188POPC   C4B19186  40.766   1.785   7.764
 1189POPC   NC319187  32.583  16.069   9.420
 1189POPC   PO419188  33.280  16.195   9.513
 1189POPC   GL119189  33.062  15.947   9.219
 1189POPC   GL219190  32.840  15.656   9.222
 1189POPC   C1A19191  32.955  15.985   8.780
 1189POPC   D2A19192  33.087  16.337   8.492
 1189POPC   C3A19193  33.005  16.119   8.112
 1189POPC   C4A19194  32.715  15.983   7.751
 1189POPC   C1B19195  33.240  15.558   8.969
 1189POPC   C2B19196  33.226  15.550   8.529
 1189POPC   C3B19197  32.960  15.620   8.156
 1189POPC   C4B19198  33.054  15.624   7.704
 1190POPC   NC319199  22.677  21.405   9.624
 1190POPC   PO419200  21.969  21.280   9.545
 1190POPC   GL119201  22.022  21.462   9.172
 1190POPC   GL219202  22.350  21.482   9.211
 1190POPC   C1A19203  21.920  21.340   8.764
 1190POPC   D2A19204  22.076  21.424   8.362
 1190POPC   C3A19205  21.808  21.347   8.019
 1190POPC   C4A19206  21.913  21.570   7.661
 1190POPC   C1B19207  22.445  21.484   8.772
 1190POPC   C2B19208  22.575  21.261   8.391
 1190POPC   C3B19209  22.498  21.438   7.981
 1190POPC   C4B19210  22.668  21.737   7.691
 1191POPC   NC319211  29.136  34.939   9.662
 1191POPC   PO419212  29.038  35.565   9.479
 1191POPC   GL119213  29.189  35.382   9.137
 1191POPC   GL219214  29.312  35.085   9.211
 1191POPC   C1A19215  29.243  35.519   8.727
 1191POPC   D2A19216  28.944  35.442   8.396
 1191POPC   C3A19217  29.113  35.501   7.988
 1191POPC   C4A19218  29.091  35.847   7.689
 1191POPC   C1B19219  29.018  35.051   8.805
 1191POPC   C2B19220  29.069  34.935   8.367
 1191POPC   C3B19221  29.283  35.016   7.960
 1191POPC   C4B19222  29.182  34.969   7.539
 1192POPC   NC319223  38.794  40.834   9.409
 1192POPC   PO419224  38.108  40.935   9.389
 1192POPC   GL119225  38.372  40.632   9.143
 1192POPC   GL219226  38.555  40.897   8.967
 1192POPC   C1A19227  38.448  40.478   8.690
 1192POPC   D2A19228  38.458  40.776   8.305
 1192POPC   C3A19229  38.393  40.651   7.873
 1192POPC   C4A19230  38.015  40.483   7.769
 1192POPC   C1B19231  38.849  40.849   8.619
 1192POPC   C2B19232  38.958  41.120   8.285
 1192POPC   C3B19233  38.710  41.072   7.917
 1192POPC   C4B19234  38.780  41.014   7.492
 1193POPC   NC319235  24.018  42.038   9.412
 1193POPC   PO419236  24.455  42.493   9.409
 1193POPC   GL119237  24.272  42.339   9.027
 1193POPC   GL219238  24.287  41.965   8.990
 1193POPC   C1A19239  24.498  42.277   8.642
 1193POPC   D2A19240  24.832  42.020   8.530
 1193POPC   C3A19241  24.819  42.047   8.089
 1193POPC   C4A19242  24.566  42.259   7.786
 1193POPC   C1B19243  24.018  42.139   8.618
 1193POPC   C2B19244  24.114  42.401   8.238
 1193POPC   C3B19245  24.152  42.622   7.806
 1193POPC   C4B19246  24.045  42.428   7.410
 1194POPC   NC319247  44.207  44.128   9.737
 1194POPC   PO419248  43.703  43.729   9.648
 1194POPC   GL119249  43.853  44.051   9.301
 1194POPC   GL219250  44.248  44.114   9.210
 1194POPC   C1A19251  43.903  44.005   8.835
 1194POPC   D2A19252  44.044  43.688   8.526
 1194POPC   C3A19253  43.863  43.794   8.140
 1194POPC   C4A19254  43.777  43.733   7.742
 1194POPC   C1B19255  44.408  44.094   8.745
 1194POPC   C2B19256  44.192  44.159   8.331
 1194POPC   C3B19257  44.136  44.135   7.852
 1194POPC   C4B19258  44.308  44.090   7.419
 1195POPC   NC319259  27.159  32.480   9.439
 1195POPC   PO419260  26.714  32.021   9.694
 1195POPC   GL119261  26.739  31.979   9.195
 1195POPC   GL219262  27.085  32.092   9.107
 1195POPC   C1A19263  26.777  32.054   8.716
 1195POPC   D2A19264  27.051  32.048   8.362
 1195POPC   C3A19265  26.867  31.940   7.979
 1195POPC   C4A19266  26.527  32.081   7.721
 1195POPC   C1B19267  27.193  32.469   8.781
 1195POPC   C2B19268  27.084  32.582   8.359
 1195POPC   C3B19269  26.803  32.450   8.028
 1195POPC   C4B19270  26.884  32.439   7.582
 1196POPC   NC319271   4.390  37.347   9.360
 1196POPC   PO419272   4.390  36.698   9.532
 1196POPC   GL119273   4.260  36.774   9.108
 1196POPC   GL219274   4.106  37.082   9.021
 1196POPC   C1A19275   4.270  36.658   8.684
 1196POPC   D2A19276   4.436  36.792   8.286
 1196POPC   C3A19277   4.172  36.790   7.926
 1196POPC   C4A19278   4.211  36.772   7.427
 1196POPC   C1B19279   4.406  37.175   8.718
 1196POPC   C2B19280   4.516  37.427   8.387
 1196POPC   C3B19281   4.413  37.251   8.056
 1196POPC   C4B19282   4.446  37.127   7.693
 1197POPC   NC319283  22.565  27.998   9.545
 1197POPC   PO419284  22.706  28.745   9.545
 1197POPC   GL119285  22.770  28.412   9.276
 1197POPC   GL219286  22.442  28.486   9.176
 1197POPC   C1A19287  23.036  28.279   8.915
 1197POPC   D2A19288  22.876  28.160   8.508
 1197POPC   C3A19289  22.991  28.063   8.099
 1197POPC   C4A19290  23.082  28.219   7.687
 1197POPC   C1B19291  22.610  28.549   8.764
 1197POPC   C2B19292  22.761  28.616   8.346
 1197POPC   C3B19293  23.033  28.610   8.018
 1197POPC   C4B19294  22.746  28.613   7.706
 1198POPC   NC319295   4.516  22.280   9.468
 1198POPC   PO419296   3.873  22.079   9.712
 1198POPC   GL119297   4.032  22.158   9.270
 1198POPC   GL219298   4.144  22.507   9.139
 1198POPC   C1A19299   4.040  22.146   8.793
 1198POPC   D2A19300   4.254  22.237   8.388
 1198POPC   C3A19301   4.164  22.118   7.966
 1198POPC   C4A19302   4.026  22.308   7.577
 1198POPC   C1B19303   4.475  22.525   8.762
 1198POPC   C2B19304   4.618  22.563   8.284
 1198POPC   C3B19305   4.356  22.597   7.874
 1198POPC   C4B19306   4.408  22.580   7.367
 1199POPC   NC319307   0.242  13.177   9.747
 1199POPC   PO419308   0.479  13.786   9.466
 1199POPC   GL119309   0.444  13.477   9.129
 1199POPC   GL219310   0.126  13.252   9.110
 1199POPC   C1A19311   0.507  13.643   8.715
 1199POPC   D2A19312   0.655  13.865   8.364
 1199POPC   C3A19313   0.671  13.677   7.981
 1199POPC   C4A19314   0.359  13.789   7.697
 1199POPC   C1B19315   0.025  13.458   8.690
 1199POPC   C2B19316   0.196  13.572   8.263
 1199POPC   C3B19317   0.325  13.296   7.908
 1199POPC   C4B19318   0.192  13.193   7.491
 1200POPC   NC319319  20.243  16.049   9.954
 1200POPC   PO419320  20.702  16.154   9.461
 1200POPC   GL119321  20.726  16.002   9.074
 1200POPC   GL219322  20.862  15.679   9.058
 1200POPC   C1A19323  20.682  16.066   8.640
 1200POPC   D2A19324  20.486  16.203   8.288
 1200POPC   C3A19325  20.599  16.075   7.897
 1200POPC   C4A19326  20.305  15.862   7.605
 1200POPC   C1B19327  20.418  15.674   8.851
 1200POPC   C2B19328  20.353  15.721   8.433
 1200POPC   C3B19329  20.489  15.607   8.041
 1200POPC   C4B19330  20.763  15.659   7.679
 1201POPC   NC319331  26.359  36.429   9.512
 1201POPC   PO419332  26.174  35.814   9.363
 1201POPC   GL119333  26.247  36.027   9.017
 1201POPC   GL219334  26.024  36.314   9.093
 1201POPC   C1A19335  26.114  36.148   8.607
 1201POPC   D2A19336  26.169  36.299   8.203
 1201POPC   C3A19337  25.915  36.062   7.927
 1201POPC   C4A19338  25.908  35.645   7.802
 1201POPC   C1B19339  25.730  36.469   8.753
 1201POPC   C2B19340  25.701  36.573   8.291
 1201POPC   C3B19341  25.765  36.545   7.836
 1201POPC   C4B19342  25.850  36.483   7.414
 1202POPC   NC319343  23.782  11.799   9.476
 1202POPC   PO419344  23.984  12.528   9.383
 1202POPC   GL119345  23.958  12.155   9.123
 1202POPC   GL219346  23.621  12.079   9.096
 1202POPC   C1A19347  23.995  11.934   8.707
 1202POPC   D2A19348  23.803  11.820   8.309
 1202POPC   C3A19349  23.932  12.048   7.949
 1202POPC   C4A19350  23.687  12.324   7.719
 1202POPC   C1B19351  23.477  11.873   8.734
 1202POPC   C2B19352  23.298  11.871   8.294
 1202POPC   C3B19353  23.479  11.815   7.878
 1202POPC   C4B19354  23.872  11.558   7.812
 1203POPC   NC319355  38.871  15.622   9.342
 1203POPC   PO419356  39.212  16.117   9.627
 1203POPC   GL119357  39.198  15.965   9.161
 1203POPC   GL219358  38.921  16.060   8.914
 1203POPC   C1A19359  39.308  15.769   8.748
 1203POPC   D2A19360  39.420  15.631   8.330
 1203POPC   C3A19361  39.513  15.955   8.037
 1203POPC   C4A19362  39.342  15.980   7.656
 1203POPC   C1B19363  38.763  15.771   8.675
 1203POPC   C2B19364  38.699  15.640   8.285
 1203POPC   C3B19365  38.996  15.686   7.963
 1203POPC   C4B19366  38.838  15.931   7.629
 1204POPC   NC319367  42.676  11.367   9.331
 1204POPC   PO419368  43.361  11.258   9.437
 1204POPC   GL119369  43.364  11.382   9.039
 1204POPC   GL219370  43.345  11.025   8.930
 1204POPC   C1A19371  43.257  11.466   8.633
 1204POPC   D2A19372  43.362  11.274   8.232
 1204POPC   C3A19373  43.057  11.434   7.910
 1204POPC   C4A19374  42.831  11.227   7.613
 1204POPC   C1B19375  42.964  11.039   8.645
 1204POPC   C2B19376  42.906  11.001   8.191
 1204POPC   C3B19377  43.160  10.932   7.849
 1204POPC   C4B19378  43.233  10.888   7.410
 1205POPC   NC319379  19.166  20.419   9.619
 1205POPC   PO419380  19.044  21.058   9.600
 1205POPC   GL119381  19.008  20.723   9.192
 1205POPC   GL219382  19.315  20.503   9.122
 1205POPC   C1A19383  18.777  20.674   8.766
 1205POPC   D2A19384  18.664  20.747   8.311
 1205POPC   C3A19385  18.911  20.711   7.896
 1205POPC   C4A19386  18.835  20.746   7.415
 1205POPC   C1B19387  19.264  20.558   8.685
 1205POPC   C2B19388  18.970  20.333   8.385
 1205POPC   C3B19389  19.089  20.245   7.964
 1205POPC   C4B19390  19.256  20.458   7.572
 1206POPC   NC319391  10.740   4.406   9.608
 1206POPC   PO419392  10.244   3.980   9.357
 1206POPC   GL119393  10.330   4.419   9.226
 1206POPC   GL219394  10.716   4.420   9.106
 1206POPC   C1A19395  10.371   4.692   8.840
 1206POPC   D2A19396  10.674   4.602   8.513
 1206POPC   C3A19397  10.493   4.497   8.115
 1206POPC   C4A19398  10.623   4.670   7.728
 1206POPC   C1B19399  10.487   4.204   8.783
 1206POPC   C2B19400  10.293   4.065   8.432
 1206POPC   C3B19401  10.176   4.080   8.024
 1206POPC   C4B19402  10.292   4.271   7.644
 1207POPC   NC319403  29.823  25.295   9.516
 1207POPC   PO419404  30.233  24.949   9.170
 1207POPC   GL119405  29.786  25.071   9.052
 1207POPC   GL219406  29.700  25.432   9.050
 1207POPC   C1A19407  29.671  25.159   8.627
 1207POPC   D2A19408  29.929  25.004   8.331
 1207POPC   C3A19409  29.899  25.113   7.926
 1207POPC   C4A19410  30.011  25.203   7.489
 1207POPC   C1B19411  29.892  25.621   8.703
 1207POPC   C2B19412  29.934  25.515   8.308
 1207POPC   C3B19413  29.822  25.615   7.927
 1207POPC   C4B19414  29.969  25.749   7.574
 1208POPC   NC319415   4.505  43.198   9.472
 1208POPC   PO419416   5.055  43.120   9.697
 1208POPC   GL119417   5.057  43.149   9.250
 1208POPC   GL219418   4.810  42.941   9.168
 1208POPC   C1A19419   5.030  43.344   8.826
 1208POPC   D2A19420   5.302  43.311   8.438
 1208POPC   C3A19421   5.243  43.428   8.020
 1208POPC   C4A19422   5.548  43.369   7.673
 1208POPC   C1B19423   4.900  42.729   8.823
 1208POPC   C2B19424   4.945  42.639   8.400
 1208POPC   C3B19425   5.053  42.944   8.106
 1208POPC   C4B19426   5.182  42.993   7.715
 1209POPC   NC319427  18.935   9.749   9.626
 1209POPC   PO419428  18.419   9.865   9.262
 1209POPC   GL119429  18.863   9.881   9.141
 1209POPC   GL219430  18.863   9.530   9.076
 1209POPC   C1A19431  19.182   9.822   8.803
 1209POPC   D2A19432  19.092   9.948   8.385
 1209POPC   C3A19433  19.238   9.723   8.045
 1209POPC   C4A19434  19.139   9.793   7.628
 1209POPC   C1B19435  18.674   9.767   8.690
 1209POPC   C2B19436  18.523   9.805   8.288
 1209POPC   C3B19437  18.738   9.600   7.968
 1209POPC   C4B19438  18.768   9.485   7.518
 1210POPC   NC319439  22.164  20.866   9.631
 1210POPC   PO419440  22.489  20.329   9.588
 1210POPC   GL119441  22.323  20.610   9.233
 1210POPC   GL219442  22.546  20.943   9.280
 1210POPC   C1A19443  22.026  20.586   8.863
 1210POPC   D2A19444  21.840  20.362   8.482
 1210POPC   C3A19445  21.902  20.552   8.083
 1210POPC   C4A19446  22.257  20.578   7.802
 1210POPC   C1B19447  22.310  21.014   8.903
 1210POPC   C2B19448  22.121  20.920   8.487
 1210POPC   C3B19449  22.189  21.016   8.062
 1210POPC   C4B19450  22.241  21.181   7.618
 1211POPC   NC319451  11.886  31.175   9.376
 1211POPC   PO419452  12.122  31.827   9.459
 1211POPC   GL119453  12.101  31.564   9.111
 1211POPC   GL219454  12.352  31.268   9.073
 1211POPC   C1A19455  11.999  31.379   8.706
 1211POPC   D2A19456  12.250  31.296   8.341
 1211POPC   C3A19457  12.054  31.409   7.937
 1211POPC   C4A19458  11.943  31.565   7.521
 1211POPC   C1B19459  12.506  31.592   8.806
 1211POPC   C2B19460  12.616  31.696   8.415
 1211POPC   C3B19461  12.463  31.678   8.064
 1211POPC   C4B19462  12.430  31.670   7.686
 1212POPC   NC319463  34.235  11.894   9.402
 1212POPC   PO419464  34.879  11.911   9.552
 1212POPC   GL119465  34.737  11.866   9.138
 1212POPC   GL219466  34.820  12.217   9.128
 1212POPC   C1A19467  34.398  11.775   8.799
 1212POPC   D2A19468  34.165  11.741   8.404
 1212POPC   C3A19469  34.407  11.757   8.041
 1212POPC   C4A19470  34.612  12.077   7.826
 1212POPC   C1B19471  34.647  12.214   8.722
 1212POPC   C2B19472  34.821  12.188   8.303
 1212POPC   C3B19473  34.999  12.379   7.915
 1212POPC   C4B19474  34.857  12.439   7.489
 1213POPC   NC319475  27.416  28.625   9.496
 1213POPC   PO419476  27.538  27.934   9.512
 1213POPC   GL119477  27.490  28.208   9.181
 1213POPC   GL219478  27.790  28.431   9.172
 1213POPC   C1A19479  27.439  28.431   8.791
 1213POPC   D2A19480  27.644  28.444   8.403
 1213POPC   C3A19481  27.426  28.608   8.048
 1213POPC   C4A19482  27.625  28.590   7.658
 1213POPC   C1B19483  27.834  28.096   8.810
 1213POPC   C2B19484  27.836  27.931   8.366
 1213POPC   C3B19485  27.690  28.130   7.968
 1213POPC   C4B19486  27.680  28.099   7.528
 1214POPC   NC319487  44.976   1.524   9.558
 1214POPC   PO419488  44.565   1.016   9.489
 1214POPC   GL119489  44.694   1.260   9.168
 1214POPC   GL219490  44.438   1.512   9.238
 1214POPC   C1A19491  44.854   1.198   8.741
 1214POPC   D2A19492   0.023   0.948   8.369
 1214POPC   C3A19493  44.704   0.930   8.054
 1214POPC   C4A19494  44.679   1.146   7.680
 1214POPC   C1B19495  44.445   1.496   8.789
 1214POPC   C2B19496  44.511   1.302   8.383
 1214POPC   C3B19497  44.478   1.481   7.996
 1214POPC   C4B19498  44.343   1.525   7.560
 1215POPC   NC319499   4.894  17.177   9.535
 1215POPC   PO419500   5.456  17.685   9.532
 1215POPC   GL119501   5.191  17.559   9.241
 1215POPC   GL219502   5.287  17.225   9.185
 1215POPC   C1A19503   5.003  17.531   8.848
 1215POPC   D2A19504   5.137  17.504   8.427
 1215POPC   C3A19505   4.952  17.732   8.094
 1215POPC   C4A19506   4.842  17.498   7.731
 1215POPC   C1B19507   5.267  17.060   8.791
 1215POPC   C2B19508   5.401  17.055   8.367
 1215POPC   C3B19509   5.152  17.183   8.019
 1215POPC   C4B19510   5.279  17.165   7.587
 1216POPC   NC319511  41.072  28.810   9.394
 1216POPC   PO419512  40.841  28.163   9.295
 1216POPC   GL119513  40.721  28.336   8.956
 1216POPC   GL219514  40.799  28.680   8.972
 1216POPC   C1A19515  40.785  28.281   8.544
 1216POPC   D2A19516  40.807  28.573   8.244
 1216POPC   C3A19517  40.691  28.361   7.878
 1216POPC   C4A19518  40.927  28.012   7.770
 1216POPC   C1B19519  41.094  28.858   8.684
 1216POPC   C2B19520  41.086  29.027   8.265
 1216POPC   C3B19521  40.833  28.935   7.890
 1216POPC   C4B19522  40.799  28.715   7.521
 1217POPC   NC319523  30.153  11.326   9.388
 1217POPC   PO419524  29.448  11.217   9.501
 1217POPC   GL119525  29.674  11.396   9.149
 1217POPC   GL219526  29.834  11.123   9.027
 1217POPC   C1A19527  29.747  11.560   8.718
 1217POPC   D2A19528  29.887  11.477   8.291
 1217POPC   C3A19529  29.838  11.703   7.904
 1217POPC   C4A19530  29.994  11.520   7.521
 1217POPC   C1B19531  29.931  11.071   8.602
 1217POPC   C2B19532  29.782  10.959   8.213
 1217POPC   C3B19533  29.921  11.083   7.818
 1217POPC   C4B19534  30.220  10.859   7.553
 1218POPC   NC319535  21.127  37.202   9.487
 1218POPC   PO419536  21.670  37.635   9.689
 1218POPC   GL119537  21.489  37.698   9.213
 1218POPC   GL219538  21.139  37.818   9.214
 1218POPC   C1A19539  21.431  37.508   8.745
 1218POPC   D2A19540  21.462  37.333   8.327
 1218POPC   C3A19541  21.528  37.579   8.018
 1218POPC   C4A19542  21.281  37.824   7.736
 1218POPC   C1B19543  21.288  37.984   8.802
 1218POPC   C2B19544  21.257  37.844   8.362
 1218POPC   C3B19545  21.004  37.552   8.109
 1218POPC   C4B19546  21.000  37.360   7.690
 1219POPC   NC319547  34.688  31.671   9.527
 1219POPC   PO419548  34.265  31.126   9.447
 1219POPC   GL119549  34.645  31.253   9.198
 1219POPC   GL219550  34.580  31.582   9.038
 1219POPC   C1A19551  34.833  31.170   8.797
 1219POPC   D2A19552  34.908  31.319   8.367
 1219POPC   C3A19553  34.637  31.371   7.987
 1219POPC   C4A19554  34.246  31.328   7.719
 1219POPC   C1B19555  34.406  31.402   8.663
 1219POPC   C2B19556  34.192  31.420   8.271
 1219POPC   C3B19557  34.309  31.772   8.018
 1219POPC   C4B19558  34.672  31.840   7.767
 1220POPC   NC319559  11.661  11.686   9.367
 1220POPC   PO419560  11.028  11.495   9.590
 1220POPC   GL119561  11.187  11.549   9.188
 1220POPC   GL219562  11.175  11.224   9.100
 1220POPC   C1A19563  11.017  11.657   8.779
 1220POPC   D2A19564  11.038  11.497   8.339
 1220POPC   C3A19565  11.442  11.558   8.096
 1220POPC   C4A19566  11.504  11.393   7.670
 1220POPC   C1B19567  11.441  11.368   8.749
 1220POPC   C2B19568  11.545  11.153   8.382
 1220POPC   C3B19569  11.279  11.073   8.046
 1220POPC   C4B19570  11.198  10.946   7.647
 1221POPC   NC319571  28.159   2.320   9.590
 1221POPC   PO419572  28.329   1.668   9.515
 1221POPC   GL119573  28.368   1.897   9.156
 1221POPC   GL219574  28.366   2.240   9.151
 1221POPC   C1A19575  28.367   1.773   8.767
 1221POPC   D2A19576  28.485   1.901   8.408
 1221POPC   C3A19577  28.225   1.882   8.067
 1221POPC   C4A19578  28.299   2.051   7.655
 1221POPC   C1B19579  28.566   2.254   8.790
 1221POPC   C2B19580  28.700   2.359   8.391
 1221POPC   C3B19581  28.523   2.351   7.996
 1221POPC   C4B19582  28.283   2.565   7.675
 1222POPC   NC319583   8.096  18.465   9.491
 1222POPC   PO419584   8.496  17.940   9.525
 1222POPC   GL119585   8.385  18.171   9.179
 1222POPC   GL219586   8.397  18.539   9.064
 1222POPC   C1A19587   8.119  18.184   8.848
 1222POPC   D2A19588   7.998  18.239   8.439
 1222POPC   C3A19589   8.218  18.087   8.077
 1222POPC   C4A19590   8.068  18.098   7.635
 1222POPC   C1B19591   8.215  18.659   8.649
 1222POPC   C2B19592   8.228  18.608   8.186
 1222POPC   C3B19593   8.159  18.577   7.765
 1222POPC   C4B19594   8.294  18.460   7.333
 1223POPC   NC319595  28.878  37.479   9.450
 1223POPC   PO419596  29.110  36.820   9.496
 1223POPC   GL119597  29.243  37.094   9.162
 1223POPC   GL219598  28.922  37.140   9.064
 1223POPC   C1A19599  29.317  37.122   8.702
 1223POPC   D2A19600  29.333  37.191   8.294
 1223POPC   C3A19601  29.295  36.855   7.972
 1223POPC   C4A19602  29.286  37.231   7.778
 1223POPC   C1B19603  29.034  36.733   8.815
 1223POPC   C2B19604  28.980  36.833   8.377
 1223POPC   C3B19605  28.822  37.008   7.978
 1223POPC   C4B19606  28.898  36.655   7.685
 1224POPC   NC319607  32.518  22.078   9.509
 1224POPC   PO419608  31.875  22.291   9.491
 1224POPC   GL119609  32.090  21.966   9.137
 1224POPC   GL219610  32.475  21.793   9.098
 1224POPC   C1A19611  31.970  22.008   8.681
 1224POPC   D2A19612  32.065  22.438   8.505
 1224POPC   C3A19613  32.118  22.413   8.056
 1224POPC   C4A19614  32.174  22.032   7.859
 1224POPC   C1B19615  32.447  22.085   8.788
 1224POPC   C2B19616  32.430  22.118   8.350
 1224POPC   C3B19617  32.639  22.207   8.001
 1224POPC   C4B19618  32.603  22.546   7.761
 1225POPC   NC319619   2.557  27.037   9.422
 1225POPC   PO419620   3.083  26.644   9.510
 1225POPC   GL119621   2.837  26.693   9.163
 1225POPC   GL219622   3.090  26.565   8.999
 1225POPC   C1A19623   2.748  26.839   8.728
 1225POPC   D2A19624   2.897  26.842   8.300
 1225POPC   C3A19625   2.691  27.123   8.006
 1225POPC   C4A19626   2.401  27.062   7.667
 1225POPC   C1B19627   3.203  26.996   8.880
 1225POPC   C2B19628   3.330  27.102   8.477
 1225POPC   C3B19629   3.246  27.128   8.052
 1225POPC   C4B19630   3.090  26.840   7.779
 1226POPC   NC319631  44.610  21.855   9.540
 1226POPC   PO419632  44.706  22.546   9.526
 1226POPC   GL119633  44.502  22.284   9.212
 1226POPC   GL219634  44.778  22.042   9.095
 1226POPC   C1A19635  44.542  22.345   8.766
 1226POPC   D2A19636  44.692  22.088   8.415
 1226POPC   C3A19637  44.609  22.261   8.001
 1226POPC   C4A19638  44.599  22.185   7.545
 1226POPC   C1B19639   0.082  21.819   8.831
 1226POPC   C2B19640   0.170  21.906   8.420
 1226POPC   C3B19641   0.038  21.950   7.994
 1226POPC   C4B19642  44.994  21.862   7.573
 1227POPC   NC319643  20.281  39.454   9.445
 1227POPC   PO419644  20.849  39.118   9.561
 1227POPC   GL119645  20.670  39.284   9.188
 1227POPC   GL219646  20.488  39.029   9.051
 1227POPC   C1A19647  20.802  39.412   8.799
 1227POPC   D2A19648  20.920  39.480   8.385
 1227POPC   C3A19649  20.751  39.136   8.149
 1227POPC   C4A19650  20.421  39.178   7.869
 1227POPC   C1B19651  20.463  39.056   8.599
 1227POPC   C2B19652  20.261  38.821   8.244
 1227POPC   C3B19653  20.243  38.730   7.783
 1227POPC   C4B19654  20.284  38.950   7.385
 1228POPC   NC319655  32.753   3.339   9.972
 1228POPC   PO419656  33.200   3.630   9.554
 1228POPC   GL119657  33.229   3.612   9.131
 1228POPC   GL219658  32.909   3.417   9.149
 1228POPC   C1A19659  33.196   3.339   8.761
 1228POPC   D2A19660  32.882   3.378   8.458
 1228POPC   C3A19661  33.103   3.315   8.089
 1228POPC   C4A19662  32.948   3.398   7.708
 1228POPC   C1B19663  32.846   3.762   8.823
 1228POPC   C2B19664  32.542   3.867   8.453
 1228POPC   C3B19665  32.701   3.743   8.041
 1228POPC   C4B19666  33.139   3.848   7.872
 1229POPC   NC319667  35.527  34.213   9.578
 1229POPC   PO419668  35.022  33.794   9.492
 1229POPC   GL119669  35.334  33.818   9.160
 1229POPC   GL219670  35.557  33.495   9.169
 1229POPC   C1A19671  35.228  34.008   8.743
 1229POPC   D2A19672  34.892  34.093   8.426
 1229POPC   C3A19673  35.083  33.942   8.068
 1229POPC   C4A19674  35.478  34.001   7.909
 1229POPC   C1B19675  35.482  33.546   8.726
 1229POPC   C2B19676  35.379  33.567   8.292
 1229POPC   C3B19677  35.338  33.503   7.870
 1229POPC   C4B19678  35.119  33.235   7.596
 1230POPC   NC319679  24.331  38.066   9.596
 1230POPC   PO419680  24.777  37.521   9.602
 1230POPC   GL119681  24.603  37.756   9.288
 1230POPC   GL219682  24.290  37.567   9.277
 1230POPC   C1A19683  24.650  37.806   8.846
 1230POPC   D2A19684  24.606  37.577   8.450
 1230POPC   C3A19685  24.527  37.844   8.104
 1230POPC   C4A19686  24.558  37.766   7.698
 1230POPC   C1B19687  24.177  37.904   8.971
 1230POPC   C2B19688  24.216  37.904   8.535
 1230POPC   C3B19689  24.041  37.976   8.159
 1230POPC   C4B19690  23.949  37.966   7.730
 1231POPC   NC319691   7.152  18.793   9.456
 1231POPC   PO419692   7.096  19.430   9.472
 1231POPC   GL119693   7.352  19.262   9.112
 1231POPC   GL219694   7.535  18.966   9.095
 1231POPC   C1A19695   7.317  19.098   8.658
 1231POPC   D2A19696   7.236  19.418   8.344
 1231POPC   C3A19697   7.308  19.286   7.929
 1231POPC   C4A19698   7.022  18.948   7.816
 1231POPC   C1B19699   7.713  18.718   8.734
 1231POPC   C2B19700   7.706  18.628   8.295
 1231POPC   C3B19701   7.750  18.886   7.949
 1231POPC   C4B19702   7.820  18.853   7.503
 1232POPC   NC319703  44.555  11.922   9.767
 1232POPC   PO419704  44.863  11.361   9.458
 1232POPC   GL119705  44.621  11.357   9.069
 1232POPC   GL219706  44.392  11.671   9.007
 1232POPC   C1A19707  44.626  11.397   8.617
 1232POPC   D2A19708  44.472  11.155   8.264
 1232POPC   C3A19709  44.851  11.131   8.028
 1232POPC   C4A19710  44.976  11.293   7.649
 1232POPC   C1B19711  44.158  11.608   8.648
 1232POPC   C2B19712  44.364  11.688   8.266
 1232POPC   C3B19713  44.679  11.617   7.956
 1232POPC   C4B19714  44.599  11.617   7.517
 1233POPC   NC319715  17.452   0.361   9.728
 1233POPC   PO419716  16.866   0.559   9.388
 1233POPC   GL119717  16.643   0.538   9.045
 1233POPC   GL219718  16.755   0.231   8.985
 1233POPC   C1A19719  16.666   0.575   8.600
 1233POPC   D2A19720  16.370   0.614   8.288
 1233POPC   C3A19721  16.441   0.479   7.897
 1233POPC   C4A19722  16.793   0.428   7.687
 1233POPC   C1B19723  16.825   0.081   8.602
 1233POPC   C2B19724  16.659   0.136   8.206
 1233POPC   C3B19725  16.697  44.946   7.808
 1233POPC   C4B19726  16.892  44.990   7.409
 1234POPC   NC319727   7.015  27.295   9.768
 1234POPC   PO419728   7.510  27.655   9.458
 1234POPC   GL119729   7.301  27.544   9.127
 1234POPC   GL219730   7.052  27.294   9.232
 1234POPC   C1A19731   7.513  27.631   8.755
 1234POPC   D2A19732   7.620  27.838   8.384
 1234POPC   C3A19733   7.323  27.675   8.110
 1234POPC   C4A19734   7.485  27.497   7.746
 1234POPC   C1B19735   7.005  27.350   8.778
 1234POPC   C2B19736   7.012  27.269   8.317
 1234POPC   C3B19737   7.015  27.340   7.852
 1234POPC   C4B19738   7.091  27.501   7.404
 1235POPC   NC319739   7.424  19.755   9.483
 1235POPC   PO419740   8.031  19.543   9.329
 1235POPC   GL119741   7.689  19.765   9.051
 1235POPC   GL219742   7.450  20.112   9.101
 1235POPC   C1A19743   7.709  20.030   8.690
 1235POPC   D2A19744   7.503  19.888   8.342
 1235POPC   C3A19745   7.624  19.791   7.920
 1235POPC   C4A19746   7.381  19.654   7.531
 1235POPC   C1B19747   7.117  19.903   8.889
 1235POPC   C2B19748   6.994  19.862   8.465
 1235POPC   C3B19749   7.117  19.809   8.023
 1235POPC   C4B19750   7.056  20.060   7.689
 1236POPC   NC319751   0.432   2.284   9.908
 1236POPC   PO419752   0.389   2.802   9.459
 1236POPC   GL119753   0.473   2.752   9.076
 1236POPC   GL219754   0.692   2.948   8.955
 1236POPC   C1A19755   0.491   2.567   8.678
 1236POPC   D2A19756   0.215   2.391   8.397
 1236POPC   C3A19757   0.331   2.509   7.965
 1236POPC   C4A19758   0.064   2.626   7.639
 1236POPC   C1B19759   0.331   3.049   8.688
 1236POPC   C2B19760   0.363   2.913   8.279
 1236POPC   C3B19761   0.220   3.044   7.891
 1236POPC   C4B19762   0.441   2.975   7.508
 1237POPC   NC319763  36.349  42.719   9.528
 1237POPC   PO419764  35.915  42.216   9.471
 1237POPC   GL119765  36.193  42.378   9.141
 1237POPC   GL219766  36.224  42.082   8.905
 1237POPC   C1A19767  36.235  42.536   8.710
 1237POPC   D2A19768  36.182  42.328   8.311
 1237POPC   C3A19769  36.341  42.531   7.942
 1237POPC   C4A19770  36.171  42.555   7.537
 1237POPC   C1B19771  36.543  42.044   8.576
 1237POPC   C2B19772  36.561  42.068   8.085
 1237POPC   C3B19773  36.233  42.070   7.732
 1237POPC   C4B19774  36.197  42.087   7.273
 1238POPC   NC319775  27.306  24.290   9.507
 1238POPC   PO419776  27.720  24.815   9.538
 1238POPC   GL119777  27.847  24.680   9.167
 1238POPC   GL219778  27.531  24.554   9.114
 1238POPC   C1A19779  27.870  24.571   8.744
 1238POPC   D2A19780  27.557  24.555   8.424
 1238POPC   C3A19781  27.742  24.594   8.032
 1238POPC   C4A19782  27.555  24.530   7.671
 1238POPC   C1B19783  27.394  24.850   8.817
 1238POPC   C2B19784  27.158  24.899   8.452
 1238POPC   C3B19785  27.311  24.889   8.035
 1238POPC   C4B19786  27.157  24.923   7.616
 1239POPC   NC319787  44.608  30.275   9.560
 1239POPC   PO419788  44.306  29.673   9.461
 1239POPC   GL119789  44.564  29.930   9.188
 1239POPC   GL219790  44.461  30.257   9.087
 1239POPC   C1A19791  44.809  29.918   8.848
 1239POPC   D2A19792  44.690  29.814   8.486
 1239POPC   C3A19793  44.844  29.988   8.176
 1239POPC   C4A19794  44.629  29.930   7.810
 1239POPC   C1B19795  44.512  30.289   8.670
 1239POPC   C2B19796  44.385  30.180   8.264
 1239POPC   C3B19797  44.344  30.352   7.850
 1239POPC   C4B19798  44.562  30.294   7.446
 1240POPC   NC319799  42.595  15.049   9.716
 1240POPC   PO419800  42.124  15.376   9.369
 1240POPC   GL119801  42.462  15.239   9.114
 1240POPC   GL219802  42.513  14.906   9.122
 1240POPC   C1A19803  42.720  15.205   8.713
 1240POPC   D2A19804  42.644  15.074   8.272
 1240POPC   C3A19805  42.528  15.385   7.995
 1240POPC   C4A19806  42.372  15.469   7.610
 1240POPC   C1B19807  42.345  14.841   8.666
 1240POPC   C2B19808  42.207  14.765   8.237
 1240POPC   C3B19809  42.280  14.974   7.836
 1240POPC   C4B19810  42.701  15.046   7.645
 1241POPC   NC319811   8.415  19.831   9.373
 1241POPC   PO419812   7.756  20.066   9.486
 1241POPC   GL119813   8.082  20.085   9.089
 1241POPC   GL219814   8.204  19.754   8.929
 1241POPC   C1A19815   8.351  20.144   8.694
 1241POPC   D2A19816   8.260  20.119   8.267
 1241POPC   C3A19817   8.522  20.114   7.899
 1241POPC   C4A19818   8.386  19.948   7.511
 1241POPC   C1B19819   8.061  19.683   8.571
 1241POPC   C2B19820   8.275  19.547   8.273
 1241POPC   C3B19821   8.154  19.687   7.902
 1241POPC   C4B19822   7.919  19.759   7.495
 1242POPC   NC319823  16.655   7.429   9.508
 1242POPC   PO419824  17.155   7.098   9.279
 1242POPC   GL119825  16.855   7.269   9.059
 1242POPC   GL219826  16.872   7.630   9.058
 1242POPC   C1A19827  16.761   7.080   8.689
 1242POPC   D2A19828  16.970   7.159   8.307
 1242POPC   C3A19829  16.726   7.093   7.923
 1242POPC   C4A19830  16.765   7.262   7.512
 1242POPC   C1B19831  16.604   7.584   8.689
 1242POPC   C2B19832  16.648   7.548   8.235
 1242POPC   C3B19833  16.560   7.602   7.812
 1242POPC   C4B19834  16.441   7.696   7.368
 1243POPC   NC319835  44.752  32.957   9.592
 1243POPC   PO419836  44.063  32.919   9.508
 1243POPC   GL119837  44.348  32.987   9.172
 1243POPC   GL219838  44.608  33.262   9.157
 1243POPC   C1A19839  44.454  32.884   8.753
 1243POPC   D2A19840  44.589  33.066   8.362
 1243POPC   C3A19841  44.636  32.798   7.988
 1243POPC   C4A19842  44.536  32.449   7.709
 1243POPC   C1B19843  44.421  33.422   8.753
 1243POPC   C2B19844  44.315  33.507   8.301
 1243POPC   C3B19845  44.406  33.287   7.942
 1243POPC   C4B19846  44.573  33.374   7.586
 1244POPC   NC319847  25.174  29.975   9.461
 1244POPC   PO419848  25.638  29.575   9.441
 1244POPC   GL119849  25.486  29.796   9.099
 1244POPC   GL219850  25.114  29.732   9.008
 1244POPC   C1A19851  25.527  29.842   8.702
 1244POPC   D2A19852  25.180  29.805   8.430
 1244POPC   C3A19853  25.433  29.747   8.103
 1244POPC   C4A19854  25.655  29.699   7.747
 1244POPC   C1B19855  25.129  30.146   8.807
 1244POPC   C2B19856  25.067  30.310   8.390
 1244POPC   C3B19857  25.075  30.109   8.018
 1244POPC   C4B19858  25.407  30.147   7.754
 1245POPC   NC319859  30.876  12.003   9.470
 1245POPC   PO419860  30.379  12.579   9.429
 1245POPC   GL119861  30.469  12.187   9.203
 1245POPC   GL219862  30.761  12.366   9.145
 1245POPC   C1A19863  30.613  12.007   8.794
 1245POPC   D2A19864  30.618  12.161   8.361
 1245POPC   C3A19865  30.659  11.871   7.997
 1245POPC   C4A19866  30.813  11.981   7.569
 1245POPC   C1B19867  30.961  12.534   8.821
 1245POPC   C2B19868  31.025  12.470   8.413
 1245POPC   C3B19869  30.978  12.283   8.017
 1245POPC   C4B19870  31.236  12.272   7.699
 1246POPC   NC319871  32.099  21.056   9.571
 1246POPC   PO419872  32.269  21.661   9.537
 1246POPC   GL119873  32.103  21.429   9.177
 1246POPC   GL219874  32.346  21.161   9.108
 1246POPC   C1A19875  32.274  21.527   8.742
 1246POPC   D2A19876  32.661  21.698   8.492
 1246POPC   C3A19877  32.583  21.694   8.001
 1246POPC   C4A19878  32.249  21.603   7.643
 1246POPC   C1B19879  32.672  21.212   8.748
 1246POPC   C2B19880  32.640  21.247   8.294
 1246POPC   C3B19881  32.289  21.275   8.032
 1246POPC   C4B19882  32.508  21.175   7.680
 1247POPC   NC319883  29.498   4.898   9.636
 1247POPC   PO419884  30.045   5.231   9.481
 1247POPC   GL119885  29.886   4.958   9.167
 1247POPC   GL219886  29.556   5.097   9.132
 1247POPC   C1A19887  30.142   5.024   8.795
 1247POPC   D2A19888  30.365   5.192   8.417
 1247POPC   C3A19889  30.119   5.228   8.062
 1247POPC   C4A19890  30.040   4.897   7.812
 1247POPC   C1B19891  29.676   5.202   8.682
 1247POPC   C2B19892  29.658   5.060   8.230
 1247POPC   C3B19893  29.642   5.213   7.804
 1247POPC   C4B19894  29.780   5.603   7.731
 1248POPC   NC319895   3.624  12.497   9.405
 1248POPC   PO419896   3.824  13.102   9.552
 1248POPC   GL119897   3.693  12.949   9.203
 1248POPC   GL219898   3.328  12.968   9.238
 1248POPC   C1A19899   3.926  12.830   8.830
 1248POPC   D2A19900   4.030  12.653   8.430
 1248POPC   C3A19901   3.782  12.834   8.096
 1248POPC   C4A19902   3.627  13.003   7.692
 1248POPC   C1B19903   3.292  12.775   8.847
 1248POPC   C2B19904   3.219  12.946   8.446
 1248POPC   C3B19905   3.266  12.823   8.041
 1248POPC   C4B19906   3.258  12.671   7.621
 1249POPC   NC319907  30.746  29.622   9.433
 1249POPC   PO419908  30.219  30.063   9.693
 1249POPC   GL119909  30.551  30.221   9.272
 1249POPC   GL219910  30.856  30.092   9.193
 1249POPC   C1A19911  30.592  30.086   8.771
 1249POPC   D2A19912  30.670  30.169   8.346
 1249POPC   C3A19913  30.391  30.153   7.992
 1249POPC   C4A19914  30.366  29.930   7.614
 1249POPC   C1B19915  31.001  29.775   8.868
 1249POPC   C2B19916  30.951  29.692   8.430
 1249POPC   C3B19917  30.937  29.776   7.992
 1249POPC   C4B19918  31.320  29.763   7.739
 1250POPC   NC319919  42.907  30.232   9.538
 1250POPC   PO419920  43.217  30.778   9.653
 1250POPC   GL119921  43.061  30.734   9.206
 1250POPC   GL219922  42.932  30.403   9.066
 1250POPC   C1A19923  42.956  30.832   8.752
 1250POPC   D2A19924  43.237  30.814   8.371
 1250POPC   C3A19925  43.052  30.886   7.947
 1250POPC   C4A19926  42.746  31.167   7.769
 1250POPC   C1B19927  43.322  30.505   8.829
 1250POPC   C2B19928  43.513  30.379   8.454
 1250POPC   C3B19929  43.406  30.443   8.020
 1250POPC   C4B19930  43.388  30.676   7.615
 1251POPC   NC319931  33.790  41.826   9.486
 1251POPC   PO419932  33.670  41.176   9.294
 1251POPC   GL119933  33.931  41.432   9.065
 1251POPC   GL219934  33.643  41.638   9.041
 1251POPC   C1A19935  33.948  41.549   8.609
 1251POPC   D2A19936  33.534  41.591   8.402
 1251POPC   C3A19937  33.417  41.548   7.970
 1251POPC   C4A19938  33.522  41.257   7.665
 1251POPC   C1B19939  33.570  41.931   8.775
 1251POPC   C2B19940  33.878  42.084   8.509
 1251POPC   C3B19941  33.930  41.867   8.136
 1251POPC   C4B19942  33.700  41.901   7.752
 1252POPC   NC319943  17.719  40.134   9.483
 1252POPC   PO419944  17.158  39.767   9.673
 1252POPC   GL119945  17.239  39.877   9.215
 1252POPC   GL219946  17.575  39.789   9.108
 1252POPC   C1A19947  17.283  39.919   8.731
 1252POPC   D2A19948  17.140  40.019   8.306
 1252POPC   C3A19949  17.334  39.901   7.962
 1252POPC   C4A19950  17.434  40.125   7.617
 1252POPC   C1B19951  17.748  40.085   8.801
 1252POPC   C2B19952  17.631  40.181   8.381
 1252POPC   C3B19953  17.804  40.120   7.970
 1252POPC   C4B19954  18.041  40.259   7.638
 1253POPC   NC319955  16.397   1.869   9.459
 1253POPC   PO419956  16.905   2.297   9.364
 1253POPC   GL119957  16.604   2.170   9.076
 1253POPC   GL219958  16.735   1.839   9.073
 1253POPC   C1A19959  16.514   1.974   8.648
 1253POPC   D2A19960  16.762   1.715   8.355
 1253POPC   C3A19961  16.859   1.948   8.001
 1253POPC   C4A19962  16.532   2.212   7.815
 1253POPC   C1B19963  17.024   1.913   8.744
 1253POPC   C2B19964  17.134   2.156   8.423
 1253POPC   C3B19965  17.016   2.426   8.131
 1253POPC   C4B19966  16.993   2.379   7.723
 1254POPC   NC319967  32.885  30.315   9.484
 1254POPC   PO419968  33.208  29.680   9.597
 1254POPC   GL119969  33.057  29.869   9.151
 1254POPC   GL219970  32.768  29.669   9.010
 1254POPC   C1A19971  32.819  30.125   8.800
 1254POPC   D2A19972  32.798  29.990   8.353
 1254POPC   C3A19973  32.678  30.162   7.951
 1254POPC   C4A19974  32.754  30.278   7.517
 1254POPC   C1B19975  33.054  29.652   8.693
 1254POPC   C2B19976  33.186  29.430   8.334
 1254POPC   C3B19977  33.147  29.757   8.058
 1254POPC   C4B19978  33.016  29.877   7.685
 1255POPC   NC319979   7.072  39.916   9.388
 1255POPC   PO419980   7.715  40.121   9.482
 1255POPC   GL119981   7.528  39.909   9.130
 1255POPC   GL219982   7.306  40.204   9.028
 1255POPC   C1A19983   7.407  39.769   8.700
 1255POPC   D2A19984   7.347  40.064   8.342
 1255POPC   C3A19985   7.382  39.967   7.885
 1255POPC   C4A19986   7.795  39.785   7.795
 1255POPC   C1B19987   7.012  40.402   8.740
 1255POPC   C2B19988   6.913  40.319   8.336
 1255POPC   C3B19989   7.165  40.432   7.980
 1255POPC   C4B19990   7.149  40.317   7.557
 1256POPC   NC319991  36.255  18.685   9.472
 1256POPC   PO419992  36.079  18.088   9.498
 1256POPC   GL119993  36.223  18.279   9.149
 1256POPC   GL219994  35.931  18.464   9.055
 1256POPC   C1A19995  36.337  18.399   8.746
 1256POPC   D2A19996  36.125  18.427   8.361
 1256POPC   C3A19997  36.368  18.361   7.973
 1256POPC   C4A19998  36.352  18.604   7.581
 1256POPC   C1B19999  35.810  18.148   8.701
 1256POPC   C2B20000  35.819  18.040   8.238
 1256POPC   C3B20001  35.829  18.375   7.903
 1256POPC   C4B20002  35.774  18.853   7.881
 1257POPC   NC320003   5.509   9.374   9.386
 1257POPC   PO420004   5.425  10.088   9.461
 1257POPC   GL120005   5.690   9.865   9.116
 1257POPC   GL220006   6.032  10.037   9.048
 1257POPC   C1A20007   5.813   9.551   8.772
 1257POPC   D2A20008   6.075   9.520   8.357
 1257POPC   C3A20009   5.884   9.371   7.958
 1257POPC   C4A20010   5.717   9.592   7.587
 1257POPC   C1B20011   5.985  10.011   8.612
 1257POPC   C2B20012   5.663   9.820   8.362
 1257POPC   C3B20013   5.850   9.874   7.994
 1257POPC   C4B20014   5.920  10.107   7.639
 1258POPC   NC320015  10.124  24.156   9.309
 1258POPC   PO420016   9.871  24.640   9.663
 1258POPC   GL120017   9.867  24.577   9.245
 1258POPC   GL220018   9.543  24.541   9.214
 1258POPC   C1A20019   9.956  24.494   8.787
 1258POPC   D2A20020   9.961  24.199   8.452
 1258POPC   C3A20021   9.939  24.394   8.069
 1258POPC   C4A20022   9.734  24.462   7.709
 1258POPC   C1B20023   9.463  24.684   8.827
 1258POPC   C2B20024   9.521  24.464   8.450
 1258POPC   C3B20025   9.368  24.548   8.042
 1258POPC   C4B20026   9.475  24.902   7.778
 1259POPC   NC320027  20.666   2.130   9.759
 1259POPC   PO420028  21.236   2.055   9.486
 1259POPC   GL120029  21.491   2.139   9.121
 1259POPC   GL220030  21.726   2.437   9.098
 1259POPC   C1A20031  21.533   1.930   8.703
 1259POPC   D2A20032  21.378   1.685   8.359
 1259POPC   C3A20033  21.388   1.818   7.908
 1259POPC   C4A20034  21.032   2.006   7.660
 1259POPC   C1B20035  21.445   2.442   8.720
 1259POPC   C2B20036  21.235   2.213   8.376
 1259POPC   C3B20037  21.311   2.312   7.961
 1259POPC   C4B20038  21.624   2.543   7.797
 1260POPC   NC320039   7.249  23.261   9.484
 1260POPC   PO420040   7.176  22.570   9.432
 1260POPC   GL120041   7.185  22.919   9.116
 1260POPC   GL220042   7.532  23.088   9.087
 1260POPC   C1A20043   7.230  23.065   8.681
 1260POPC   D2A20044   7.431  23.120   8.290
 1260POPC   C3A20045   7.295  22.839   7.934
 1260POPC   C4A20046   7.227  22.937   7.508
 1260POPC   C1B20047   7.655  22.704   8.850
 1260POPC   C2B20048   7.889  22.565   8.472
 1260POPC   C3B20049   7.783  22.781   8.103
 1260POPC   C4B20050   7.712  23.175   7.861
 1261POPC   NC320051  36.621  34.445   9.576
 1261POPC   PO420052  37.223  34.769   9.661
 1261POPC   GL120053  36.984  34.759   9.276
 1261POPC   GL220054  36.948  34.391   9.176
 1261POPC   C1A20055  36.983  34.800   8.806
 1261POPC   D2A20056  37.204  34.685   8.401
 1261POPC   C3A20057  36.972  34.613   8.034
 1261POPC   C4A20058  36.949  34.851   7.663
 1261POPC   C1B20059  36.764  34.344   8.762
 1261POPC   C2B20060  36.568  34.501   8.392
 1261POPC   C3B20061  36.563  34.303   7.974
 1261POPC   C4B20062  36.827  34.352   7.606
 1262POPC   NC320063  12.782  26.430   9.566
 1262POPC   PO420064  12.681  25.847   9.236
 1262POPC   GL120065  12.683  26.093   8.963
 1262POPC   GL220066  12.898  26.365   9.068
 1262POPC   C1A20067  12.636  25.957   8.572
 1262POPC   D2A20068  12.512  26.160   8.288
 1262POPC   C3A20069  12.685  26.056   7.921
 1262POPC   C4A20070  12.701  26.385   7.676
 1262POPC   C1B20071  13.024  26.288   8.645
 1262POPC   C2B20072  13.259  26.405   8.279
 1262POPC   C3B20073  13.178  26.306   7.875
 1262POPC   C4B20074  13.156  26.651   7.641
 1263POPC   NC320075  10.858  15.604   9.677
 1263POPC   PO420076  10.493  15.046   9.578
 1263POPC   GL120077  10.580  15.139   9.172
 1263POPC   GL220078  10.877  15.284   9.258
 1263POPC   C1A20079  10.582  14.935   8.763
 1263POPC   D2A20080  10.499  14.781   8.326
 1263POPC   C3A20081  10.385  15.107   8.011
 1263POPC   C4A20082  10.527  15.160   7.592
 1263POPC   C1B20083  10.893  15.397   8.815
 1263POPC   C2B20084  10.647  15.338   8.443
 1263POPC   C3B20085  10.835  15.290   8.043
 1263POPC   C4B20086  10.800  15.563   7.706
 1264POPC   NC320087   1.966  43.702   9.640
 1264POPC   PO420088   1.961  44.376   9.721
 1264POPC   GL120089   1.922  44.156   9.289
 1264POPC   GL220090   2.024  43.811   9.166
 1264POPC   C1A20091   1.749  44.103   8.864
 1264POPC   D2A20092   1.870  43.977   8.509
 1264POPC   C3A20093   1.732  43.833   8.140
 1264POPC   C4A20094   1.830  43.900   7.721
 1264POPC   C1B20095   2.169  43.694   8.795
 1264POPC   C2B20096   2.103  43.556   8.391
 1264POPC   C3B20097   2.227  43.634   7.974
 1264POPC   C4B20098   2.202  43.565   7.549
 1265POPC   NC320099   3.846  30.551   9.294
 1265POPC   PO420100   4.302  30.751   9.737
 1265POPC   GL120101   4.300  30.673   9.140
 1265POPC   GL220102   4.225  30.392   8.948
 1265POPC   C1A20103   4.136  30.849   8.698
 1265POPC   D2A20104   4.081  31.125   8.299
 1265POPC   C3A20105   4.143  30.908   7.896
 1265POPC   C4A20106   4.396  30.802   7.492
 1265POPC   C1B20107   4.502  30.484   8.648
 1265POPC   C2B20108   4.384  30.649   8.275
 1265POPC   C3B20109   4.388  30.466   7.892
 1265POPC   C4B20110   4.719  30.361   7.715
 1266POPC   NC320111  25.884  19.314   9.435
 1266POPC   PO420112  26.491  19.149   9.595
 1266POPC   GL120113  26.266  19.039   9.213
 1266POPC   GL220114  26.177  18.728   9.067
 1266POPC   C1A20115  26.039  19.180   8.820
 1266POPC   D2A20116  26.162  19.330   8.411
 1266POPC   C3A20117  25.981  19.095   8.094
 1266POPC   C4A20118  25.886  19.227   7.686
 1266POPC   C1B20119  25.759  18.720   8.835
 1266POPC   C2B20120  25.638  18.882   8.417
 1266POPC   C3B20121  25.740  18.646   8.023
 1266POPC   C4B20122  26.030  18.721   7.664
 1267POPC   NC320123  16.531  30.477   9.509
 1267POPC   PO420124  17.129  30.773   9.467
 1267POPC   GL120125  16.949  30.543   9.158
 1267POPC   GL220126  17.210  30.324   9.034
 1267POPC   C1A20127  16.763  30.801   8.815
 1267POPC   D2A20128  16.900  30.888   8.356
 1267POPC   C3A20129  16.644  30.975   7.968
 1267POPC   C4A20130  16.393  30.679   7.708
 1267POPC   C1B20131  17.113  30.472   8.649
 1267POPC   C2B20132  16.697  30.416   8.504
 1267POPC   C3B20133  16.705  30.478   8.078
 1267POPC   C4B20134  16.819  30.322   7.660
 1268POPC   NC320135  37.903  29.006   9.674
 1268POPC   PO420136  37.411  29.535   9.622
 1268POPC   GL120137  37.614  29.308   9.282
 1268POPC   GL220138  37.563  28.923   9.276
 1268POPC   C1A20139  37.814  29.391   8.877
 1268POPC   D2A20140  37.736  29.246   8.455
 1268POPC   C3A20141  37.424  29.305   8.142
 1268POPC   C4A20142  37.617  29.423   7.730
 1268POPC   C1B20143  37.676  28.859   8.811
 1268POPC   C2B20144  37.551  28.773   8.342
 1268POPC   C3B20145  37.678  28.932   7.905
 1268POPC   C4B20146  37.603  29.024   7.420
 1269POPC   NC320147  20.370  12.739   9.530
 1269POPC   PO420148  20.955  12.607   9.269
 1269POPC   GL120149  20.677  12.820   9.092
 1269POPC   GL220150  20.475  12.546   9.075
 1269POPC   C1A20151  20.711  13.077   8.770
 1269POPC   D2A20152  20.566  13.045   8.353
 1269POPC   C3A20153  20.944  13.076   8.162
 1269POPC   C4A20154  21.000  13.242   7.771
 1269POPC   C1B20155  20.416  12.649   8.676
 1269POPC   C2B20156  20.236  12.608   8.312
 1269POPC   C3B20157  20.395  12.654   7.963
 1269POPC   C4B20158  20.747  12.799   7.776
 1270POPC   NC320159  10.208  15.399   9.500
 1270POPC   PO420160   9.667  15.090   9.507
 1270POPC   GL120161   9.787  15.313   9.203
 1270POPC   GL220162   9.852  15.657   9.240
 1270POPC   C1A20163   9.991  15.257   8.845
 1270POPC   D2A20164  10.160  15.124   8.486
 1270POPC   C3A20165   9.920  15.029   8.143
 1270POPC   C4A20166  10.017  14.909   7.708
 1270POPC   C1B20167   9.598  15.606   8.846
 1270POPC   C2B20168   9.673  15.393   8.467
 1270POPC   C3B20169   9.879  15.515   8.101
 1270POPC   C4B20170   9.755  15.340   7.694
 1271POPC   NC320171  26.447  44.644   9.615
 1271POPC   PO420172  25.836  44.805   9.745
 1271POPC   GL120173  26.015  44.514   9.369
 1271POPC   GL220174  25.824  44.322   9.117
 1271POPC   C1A20175  26.253  44.543   8.932
 1271POPC   D2A20176  26.427  44.548   8.477
 1271POPC   C3A20177  26.260  44.553   8.042
 1271POPC   C4A20178  26.044  44.791   7.707
 1271POPC   C1B20179  25.786  44.582   8.717
 1271POPC   C2B20180  25.799  44.666   8.238
 1271POPC   C3B20181  25.584  44.631   7.832
 1271POPC   C4B20182  25.618  44.820   7.411
 1272POPC   NC320183  32.873  36.050   9.549
 1272POPC   PO420184  33.069  36.730   9.647
 1272POPC   GL120185  33.078  36.362   9.199
 1272POPC   GL220186  33.178  36.010   9.121
 1272POPC   C1A20187  32.894  36.230   8.781
 1272POPC   D2A20188  32.878  35.976   8.395
 1272POPC   C3A20189  32.834  36.271   8.081
 1272POPC   C4A20190  32.982  36.323   7.683
 1272POPC   C1B20191  33.386  35.976   8.743
 1272POPC   C2B20192  33.381  35.808   8.347
 1272POPC   C3B20193  33.349  36.054   7.958
 1272POPC   C4B20194  33.384  36.064   7.484
 1273POPC   NC320195  35.067   5.238   9.559
 1273POPC   PO420196  35.352   4.704   9.407
 1273POPC   GL120197  35.216   4.944   9.099
 1273POPC   GL220198  35.430   5.211   9.132
 1273POPC   C1A20199  35.286   5.060   8.666
 1273POPC   D2A20200  35.303   5.422   8.387
 1273POPC   C3A20201  35.235   5.123   8.054
 1273POPC   C4A20202  35.508   4.797   7.901
 1273POPC   C1B20203  35.730   5.255   8.759
 1273POPC   C2B20204  35.746   5.143   8.326
 1273POPC   C3B20205  35.645   5.397   7.996
 1273POPC   C4B20206  35.368   5.471   7.666
 1274POPC   NC320207  43.851   4.534   9.412
 1274POPC   PO420208  43.603   3.994   9.262
 1274POPC   GL120209  43.914   4.208   8.994
 1274POPC   GL220210  43.806   4.562   8.908
 1274POPC   C1A20211  43.982   4.165   8.549
 1274POPC   D2A20212  43.703   4.372   8.275
 1274POPC   C3A20213  43.829   4.404   7.854
 1274POPC   C4A20214  44.220   4.312   7.736
 1274POPC   C1B20215  44.146   4.633   8.643
 1274POPC   C2B20216  44.201   4.532   8.201
 1274POPC   C3B20217  44.169   4.813   7.818
 1274POPC   C4B20218  44.262   4.679   7.376
 1275POPC   NC320219  42.939   2.120   9.551
 1275POPC   PO420220  42.811   1.479   9.385
 1275POPC   GL120221  43.013   1.817   9.142
 1275POPC   GL220222  42.861   2.170   9.047
 1275POPC   C1A20223  43.212   1.874   8.745
 1275POPC   D2A20224  43.148   1.694   8.345
 1275POPC   C3A20225  43.239   1.898   7.945
 1275POPC   C4A20226  43.084   1.706   7.592
 1275POPC   C1B20227  42.771   2.185   8.597
 1275POPC   C2B20228  42.789   2.050   8.163
 1275POPC   C3B20229  42.874   2.187   7.716
 1275POPC   C4B20230  42.770   2.440   7.332
 1276POPC   NC320231   3.475  10.856   9.648
 1276POPC   PO420232   3.591  11.461   9.482
 1276POPC   GL120233   3.325  11.316   9.174
 1276POPC   GL220234   3.460  10.997   9.164
 1276POPC   C1A20235   3.417  11.288   8.737
 1276POPC   D2A20236   3.516  11.488   8.351
 1276POPC   C3A20237   3.312  11.394   7.989
 1276POPC   C4A20238   3.564  11.499   7.698
 1276POPC   C1B20239   3.733  10.885   8.810
 1276POPC   C2B20240   3.789  11.040   8.425
 1276POPC   C3B20241   3.789  11.150   8.035
 1276POPC   C4B20242   3.567  10.991   7.719
 1277POPC   NC320243   9.289  28.399   9.461
 1277POPC   PO420244   8.604  28.184   9.563
 1277POPC   GL120245   8.902  28.135   9.219
 1277POPC   GL220246   9.173  27.896   9.285
 1277POPC   C1A20247   8.964  28.398   8.832
 1277POPC   D2A20248   9.052  28.597   8.432
 1277POPC   C3A20249   9.043  28.366   8.070
 1277POPC   C4A20250   8.986  28.303   7.645
 1277POPC   C1B20251   9.226  27.952   8.855
 1277POPC   C2B20252   9.245  28.061   8.418
 1277POPC   C3B20253   9.330  27.832   8.049
 1277POPC   C4B20254   9.361  27.896   7.576
 1278POPC   NC320255  18.807  31.972   9.441
 1278POPC   PO420256  19.130  31.376   9.556
 1278POPC   GL120257  19.191  31.539   9.186
 1278POPC   GL220258  19.099  31.235   9.030
 1278POPC   C1A20259  19.002  31.691   8.802
 1278POPC   D2A20260  19.090  31.393   8.458
 1278POPC   C3A20261  19.031  31.489   8.024
 1278POPC   C4A20262  19.154  31.261   7.619
 1278POPC   C1B20263  18.701  31.280   8.770
 1278POPC   C2B20264  18.666  31.143   8.308
 1278POPC   C3B20265  18.701  31.157   7.836
 1278POPC   C4B20266  18.731  31.123   7.350
 1279POPC   NC320267  17.957  20.802   9.371
 1279POPC   PO420268  18.599  20.495   9.395
 1279POPC   GL120269  18.345  20.573   9.063
 1279POPC   GL220270  18.044  20.401   9.065
 1279POPC   C1A20271  18.252  20.613   8.626
 1279POPC   D2A20272  18.143  20.681   8.212
 1279POPC   C3A20273  18.419  20.516   7.921
 1279POPC   C4A20274  18.455  20.862   7.727
 1279POPC   C1B20275  18.043  20.153   8.741
 1279POPC   C2B20276  17.885  20.248   8.363
 1279POPC   C3B20277  17.978  20.266   7.955
 1279POPC   C4B20278  17.971  20.597   7.667
 1280POPC   NC320279   0.606  19.573   9.776
 1280POPC   PO420280   0.172  19.976   9.508
 1280POPC   GL120281   0.503  19.900   9.242
 1280POPC   GL220282   0.594  20.195   9.152
 1280POPC   C1A20283   0.586  19.792   8.803
 1280POPC   D2A20284   0.749  19.694   8.407
 1280POPC   C3A20285   0.508  19.832   8.065
 1280POPC   C4A20286   0.376  19.632   7.697
 1280POPC   C1B20287   0.193  20.106   8.892
 1280POPC   C2B20288   0.234  20.023   8.458
 1280POPC   C3B20289  44.982  19.906   8.125
 1280POPC   C4B20290  44.961  19.957   7.689
 1281POPC   NC320291  30.290   9.659   9.442
 1281POPC   PO420292  29.655   9.598   9.462
 1281POPC   GL120293  29.903   9.771   9.100
 1281POPC   GL220294  30.251   9.981   9.055
 1281POPC   C1A20295  30.073   9.604   8.715
 1281POPC   D2A20296  30.244   9.490   8.320
 1281POPC   C3A20297  29.961   9.599   7.997
 1281POPC   C4A20298  29.914   9.554   7.548
 1281POPC   C1B20299  30.012  10.096   8.713
 1281POPC   C2B20300  29.822   9.951   8.341
 1281POPC   C3B20301  29.836  10.074   7.911
 1281POPC   C4B20302  29.709  10.040   7.486
 1282POPC   NC320303   5.025  37.888   9.510
 1282POPC   PO420304   4.914  37.297   9.388
 1282POPC   GL120305   5.126  37.602   9.105
 1282POPC   GL220306   4.889  37.816   9.002
 1282POPC   C1A20307   5.354  37.774   8.771
 1282POPC   D2A20308   5.070  37.918   8.482
 1282POPC   C3A20309   5.186  37.712   8.115
 1282POPC   C4A20310   5.254  37.890   7.709
 1282POPC   C1B20311   4.873  37.413   8.739
 1282POPC   C2B20312   5.245  37.309   8.561
 1282POPC   C3B20313   5.375  37.172   8.156
 1282POPC   C4B20314   5.329  37.383   7.739
 1283POPC   NC320315  12.882  33.105   9.418
 1283POPC   PO420316  13.231  32.825   8.981
 1283POPC   GL120317  12.754  32.983   8.936
 1283POPC   GL220318  12.588  33.337   9.069
 1283POPC   C1A20319  12.698  33.105   8.512
 1283POPC   D2A20320  13.063  33.034   8.240
 1283POPC   C3A20321  12.943  32.870   7.882
 1283POPC   C4A20322  12.546  32.986   7.792
 1283POPC   C1B20323  12.838  33.531   8.762
 1283POPC   C2B20324  12.704  33.615   8.346
 1283POPC   C3B20325  12.531  33.483   7.940
 1283POPC   C4B20326  12.734  33.365   7.530
 1284POPC   NC320327  13.422  30.152   9.737
 1284POPC   PO420328  13.792  29.559   9.525
 1284POPC   GL120329  13.655  29.757   9.147
 1284POPC   GL220330  13.888  29.971   9.071
 1284POPC   C1A20331  13.551  29.938   8.671
 1284POPC   D2A20332  13.367  30.110   8.309
 1284POPC   C3A20333  13.648  30.080   8.002
 1284POPC   C4A20334  13.684  29.906   7.599
 1284POPC   C1B20335  13.960  29.664   8.765
 1284POPC   C2B20336  13.942  29.803   8.342
 1284POPC   C3B20337  14.132  29.562   8.034
 1284POPC   C4B20338  14.002  29.501   7.615
 1285POPC   NC320339   3.473  16.089   9.425
 1285POPC   PO420340   4.005  15.782   9.696
 1285POPC   GL120341   3.941  15.724   9.227
 1285POPC   GL220342   3.577  15.685   9.138
 1285POPC   C1A20343   3.916  15.757   8.781
 1285POPC   D2A20344   3.756  15.685   8.372
 1285POPC   C3A20345   3.722  16.021   8.097
 1285POPC   C4A20346   3.800  15.973   7.671
 1285POPC   C1B20347   3.368  15.687   8.733
 1285POPC   C2B20348   3.307  15.969   8.398
 1285POPC   C3B20349   3.242  15.846   7.992
 1285POPC   C4B20350   2.892  15.880   7.741
 1286POPC   NC320351  44.637  26.830   9.797
 1286POPC   PO420352  44.975  26.798   9.320
 1286POPC   GL120353  44.725  26.560   9.141
 1286POPC   GL220354  44.469  26.783   9.170
 1286POPC   C1A20355  44.755  26.610   8.714
 1286POPC   D2A20356  44.772  26.809   8.344
 1286POPC   C3A20357  44.826  26.551   8.006
 1286POPC   C4A20358  44.754  26.848   7.716
 1286POPC   C1B20359  44.255  26.580   8.841
 1286POPC   C2B20360  44.234  26.700   8.408
 1286POPC   C3B20361  44.326  26.730   7.962
 1286POPC   C4B20362  44.308  26.763   7.504
 1287POPC   NC320363   7.784  14.917   9.911
 1287POPC   PO420364   7.601  14.369   9.551
 1287POPC   GL120365   7.374  14.431   9.168
 1287POPC   GL220366   7.616  14.610   9.061
 1287POPC   C1A20367   7.210  14.547   8.748
 1287POPC   D2A20368   6.987  14.304   8.470
 1287POPC   C3A20369   7.104  14.510   8.106
 1287POPC   C4A20370   7.351  14.466   7.750
 1287POPC   C1B20371   7.662  14.334   8.758
 1287POPC   C2B20372   7.546  14.422   8.365
 1287POPC   C3B20373   7.766  14.341   8.025
 1287POPC   C4B20374   8.002  14.388   7.646
 1288POPC   NC320375   0.624  12.402   9.835
 1288POPC   PO420376   0.187  11.961   9.476
 1288POPC   GL120377   0.308  11.985   9.061
 1288POPC   GL220378   0.589  12.221   8.986
 1288POPC   C1A20379   0.238  11.994   8.620
 1288POPC   D2A20380   0.549  12.072   8.309
 1288POPC   C3A20381   0.529  11.844   7.951
 1288POPC   C4A20382   0.173  11.776   7.660
 1288POPC   C1B20383   0.448  12.460   8.621
 1288POPC   C2B20384   0.478  12.548   8.173
 1288POPC   C3B20385   0.591  12.325   7.790
 1288POPC   C4B20386   0.798  12.378   7.403
 1289POPC   NC320387  26.176  12.441   9.470
 1289POPC   PO420388  25.761  11.862   9.438
 1289POPC   GL120389  26.058  12.006   9.120
 1289POPC   GL220390  26.287  12.288   9.009
 1289POPC   C1A20391  25.888  12.074   8.721
 1289POPC   D2A20392  25.657  11.884   8.421
 1289POPC   C3A20393  25.831  12.005   8.064
 1289POPC   C4A20394  25.986  12.183   7.694
 1289POPC   C1B20395  26.585  12.381   8.655
 1289POPC   C2B20396  26.573  12.495   8.202
 1289POPC   C3B20397  26.475  12.353   7.768
 1289POPC   C4B20398  26.317  12.339   7.320
 1290POPC   NC320399   8.244   2.725   9.427
 1290POPC   PO420400   8.385   3.400   9.412
 1290POPC   GL120401   8.119   3.148   9.153
 1290POPC   GL220402   8.441   2.990   9.053
 1290POPC   C1A20403   8.031   2.818   8.794
 1290POPC   D2A20404   7.761   2.524   8.588
 1290POPC   C3A20405   7.803   2.631   8.143
 1290POPC   C4A20406   8.047   2.744   7.793
 1290POPC   C1B20407   8.505   2.756   8.691
 1290POPC   C2B20408   8.362   2.727   8.260
 1290POPC   C3B20409   8.529   2.848   7.876
 1290POPC   C4B20410   8.452   2.759   7.452
 1291POPC   NC320411  35.415   9.893   9.124
 1291POPC   PO420412  35.526   9.236   9.370
 1291POPC   GL120413  35.430   9.412   9.037
 1291POPC   GL220414  35.042   9.561   9.089
 1291POPC   C1A20415  35.585   9.498   8.612
 1291POPC   D2A20416  35.412   9.841   8.368
 1291POPC   C3A20417  35.513  10.001   7.963
 1291POPC   C4A20418  35.614  10.067   7.518
 1291POPC   C1B20419  34.892   9.665   8.706
 1291POPC   C2B20420  35.017   9.522   8.329
 1291POPC   C3B20421  35.052   9.719   7.941
 1291POPC   C4B20422  34.960   9.566   7.536
 1292POPC   NC320423  11.502   9.740   9.525
 1292POPC   PO420424  11.928   9.330   9.191
 1292POPC   GL120425  11.551   9.547   9.064
 1292POPC   GL220426  11.473   9.952   9.065
 1292POPC   C1A20427  11.454   9.405   8.683
 1292POPC   D2A20428  11.598   9.573   8.318
 1292POPC   C3A20429  11.537   9.704   7.895
 1292POPC   C4A20430  11.541   9.991   7.545
 1292POPC   C1B20431  11.198   9.837   8.701
 1292POPC   C2B20432  11.120   9.749   8.236
 1292POPC   C3B20433  11.086   9.909   7.793
 1292POPC   C4B20434  11.074   9.978   7.330
 1293POPC   NC320435  29.452  26.133   9.392
 1293POPC   PO420436  28.829  25.856   9.552
 1293POPC   GL120437  29.035  25.907   9.186
 1293POPC   GL220438  29.259  25.652   9.212
 1293POPC   C1A20439  29.071  26.162   8.828
 1293POPC   D2A20440  28.870  26.066   8.446
 1293POPC   C3A20441  29.119  26.189   8.113
 1293POPC   C4A20442  29.049  26.193   7.674
 1293POPC   C1B20443  29.404  25.762   8.787
 1293POPC   C2B20444  29.508  25.821   8.332
 1293POPC   C3B20445  29.339  25.780   7.897
 1293POPC   C4B20446  29.393  25.839   7.458
 1294POPC   NC320447  42.229  11.808   9.596
 1294POPC   PO420448  42.403  12.380   9.741
 1294POPC   GL120449  42.335  12.253   9.273
 1294POPC   GL220450  41.979  12.145   9.243
 1294POPC   C1A20451  42.493  12.175   8.824
 1294POPC   D2A20452  42.402  12.269   8.370
 1294POPC   C3A20453  42.411  12.007   7.987
 1294POPC   C4A20454  42.797  11.897   7.777
 1294POPC   C1B20455  42.021  12.356   8.833
 1294POPC   C2B20456  41.892  12.439   8.396
 1294POPC   C3B20457  42.074  12.401   7.998
 1294POPC   C4B20458  42.025  12.215   7.614
 1295POPC   NC320459  13.955   5.349   9.371
 1295POPC   PO420460  13.431   5.683   9.637
 1295POPC   GL120461  13.575   5.702   9.202
 1295POPC   GL220462  13.595   6.084   9.164
 1295POPC   C1A20463  13.626   5.539   8.771
 1295POPC   D2A20464  13.489   5.764   8.402
 1295POPC   C3A20465  13.562   5.725   7.958
 1295POPC   C4A20466  13.361   6.028   7.715
 1295POPC   C1B20467  13.782   6.067   8.740
 1295POPC   C2B20468  13.958   6.243   8.360
 1295POPC   C3B20469  13.773   6.253   7.959
 1295POPC   C4B20470  13.860   6.093   7.558
 1296POPC   NC320471  36.324  35.868   9.677
 1296POPC   PO420472  36.321  36.449   9.459
 1296POPC   GL120473  36.160  36.088   9.227
 1296POPC   GL220474  36.314  35.770   9.172
 1296POPC   C1A20475  36.223  36.120   8.798
 1296POPC   D2A20476  36.012  36.191   8.424
 1296POPC   C3A20477  36.145  36.051   8.053
 1296POPC   C4A20478  36.086  36.338   7.752
 1296POPC   C1B20479  36.431  35.651   8.747
 1296POPC   C2B20480  36.270  35.579   8.326
 1296POPC   C3B20481  36.488  35.680   7.959
 1296POPC   C4B20482  36.486  36.016   7.672
 1297POPC   NC320483  12.439  23.070   9.492
 1297POPC   PO420484  11.850  22.698   9.569
 1297POPC   GL120485  12.104  22.776   9.185
 1297POPC   GL220486  12.471  22.637   9.204
 1297POPC   C1A20487  11.972  22.976   8.785
 1297POPC   D2A20488  11.741  23.010   8.386
 1297POPC   C3A20489  11.947  23.192   8.057
 1297POPC   C4A20490  12.239  23.178   7.693
 1297POPC   C1B20491  12.418  22.677   8.774
 1297POPC   C2B20492  12.354  22.983   8.412
 1297POPC   C3B20493  12.282  22.792   8.026
 1297POPC   C4B20494  12.430  22.725   7.616
 1298POPC   NC320495  15.597   1.151   9.515
 1298POPC   PO420496  16.000   1.639   9.508
 1298POPC   GL120497  15.919   1.387   9.160
 1298POPC   GL220498  15.619   1.526   9.129
 1298POPC   C1A20499  15.961   1.231   8.725
 1298POPC   D2A20500  16.071   1.050   8.298
 1298POPC   C3A20501  15.802   1.100   7.950
 1298POPC   C4A20502  15.592   0.821   7.675
 1298POPC   C1B20503  15.587   1.634   8.729
 1298POPC   C2B20504  15.725   1.473   8.330
 1298POPC   C3B20505  15.513   1.515   7.931
 1298POPC   C4B20506  15.640   1.342   7.517
 1299POPC   NC320507   7.087  37.689   9.680
 1299POPC   PO420508   6.550  37.342   9.483
 1299POPC   GL120509   6.517  37.643   9.187
 1299POPC   GL220510   6.816  37.802   9.258
 1299POPC   C1A20511   6.390  37.577   8.780
 1299POPC   D2A20512   6.265  37.695   8.373
 1299POPC   C3A20513   6.452  37.494   8.050
 1299POPC   C4A20514   6.292  37.718   7.732
 1299POPC   C1B20515   6.791  37.931   8.822
 1299POPC   C2B20516   6.775  37.742   8.447
 1299POPC   C3B20517   6.946  37.854   8.089
 1299POPC   C4B20518   6.807  37.689   7.725
 1300POPC   NC320519  31.296  26.872   9.458
 1300POPC   PO420520  31.979  26.884   9.534
 1300POPC   GL120521  31.705  26.749   9.201
 1300POPC   GL220522  31.624  27.103   9.092
 1300POPC   C1A20523  31.596  26.627   8.778
 1300POPC   D2A20524  31.511  26.809   8.363
 1300POPC   C3A20525  31.419  26.538   8.020
 1300POPC   C4A20526  31.500  26.606   7.593
 1300POPC   C1B20527  31.264  27.060   8.766
 1300POPC   C2B20528  31.071  27.157   8.338
 1300POPC   C3B20529  31.180  27.009   7.912
 1300POPC   C4B20530  31.510  27.116   7.625
 1301POPC   NC320531  17.885   1.904   9.551
 1301POPC   PO420532  18.519   2.009   9.698
 1301POPC   GL120533  18.288   2.163   9.245
 1301POPC   GL220534  18.116   2.438   9.344
 1301POPC   C1A20535  18.472   2.195   8.746
 1301POPC   D2A20536  18.635   2.344   8.319
 1301POPC   C3A20537  18.427   2.124   7.997
 1301POPC   C4A20538  18.425   1.811   7.675
 1301POPC   C1B20539  18.052   2.460   8.884
 1301POPC   C2B20540  18.044   2.299   8.472
 1301POPC   C3B20541  18.014   2.412   8.048
 1301POPC   C4B20542  18.225   2.357   7.595
 1302POPC   NC320543  17.869   2.903   9.508
 1302POPC   PO420544  18.584   2.721   9.481
 1302POPC   GL120545  18.501   2.667   9.069
 1302POPC   GL220546  18.228   2.878   9.124
 1302POPC   C1A20547  18.404   2.693   8.623
 1302POPC   D2A20548  18.305   2.806   8.234
 1302POPC   C3A20549  18.478   2.649   7.915
 1302POPC   C4A20550  18.545   3.063   7.789
 1302POPC   C1B20551  17.978   2.987   8.820
 1302POPC   C2B20552  17.875   2.790   8.479
 1302POPC   C3B20553  17.786   2.861   8.083
 1302POPC   C4B20554  18.039   2.811   7.728
 1303POPC   NC320555  41.023  14.988   9.481
 1303POPC   PO420556  40.484  15.347   9.276
 1303POPC   GL120557  40.818  15.182   9.058
 1303POPC   GL220558  40.662  14.874   9.109
 1303POPC   C1A20559  40.916  15.322   8.658
 1303POPC   D2A20560  40.572  15.371   8.388
 1303POPC   C3A20561  40.647  15.270   7.967
 1303POPC   C4A20562  41.052  15.352   7.803
 1303POPC   C1B20563  40.482  14.950   8.711
 1303POPC   C2B20564  40.306  14.943   8.319
 1303POPC   C3B20565  40.456  14.768   7.978
 1303POPC   C4B20566  40.600  14.848   7.580
 1304POPC   NC320567  41.812  29.060   9.606
 1304POPC   PO420568  41.335  29.481   9.489
 1304POPC   GL120569  41.577  29.174   9.173
 1304POPC   GL220570  41.803  28.840   9.154
 1304POPC   C1A20571  41.634  29.245   8.742
 1304POPC   D2A20572  41.494  29.439   8.350
 1304POPC   C3A20573  41.642  29.316   7.988
 1304POPC   C4A20574  41.577  29.274   7.573
 1304POPC   C1B20575  41.590  28.747   8.790
 1304POPC   C2B20576  41.576  28.910   8.348
 1304POPC   C3B20577  41.501  28.844   7.893
 1304POPC   C4B20578  41.766  28.815   7.507
 1305POPC   NC320579  38.339  36.154   9.881
 1305POPC   PO420580  38.838  35.968   9.422
 1305POPC   GL120581  38.483  36.092   9.147
 1305POPC   GL220582  38.195  36.086   9.325
 1305POPC   C1A20583  38.493  36.227   8.685
 1305POPC   D2A20584  38.667  36.242   8.257
 1305POPC   C3A20585  38.505  35.911   7.992
 1305POPC   C4A20586  38.449  35.863   7.557
 1305POPC   C1B20587  38.097  36.392   8.980
 1305POPC   C2B20588  37.977  36.349   8.534
 1305POPC   C3B20589  38.156  36.283   8.099
 1305POPC   C4B20590  38.206  36.494   7.677
 1306POPC   NC320591  38.082  39.681   9.557
 1306POPC   PO420592  37.657  39.161   9.545
 1306POPC   GL120593  37.652  39.261   9.130
 1306POPC   GL220594  37.747  39.575   9.193
 1306POPC   C1A20595  37.614  39.244   8.676
 1306POPC   D2A20596  37.343  39.426   8.348
 1306POPC   C3A20597  37.259  39.161   8.030
 1306POPC   C4A20598  37.554  39.151   7.715
 1306POPC   C1B20599  37.958  39.596   8.828
 1306POPC   C2B20600  37.824  39.644   8.392
 1306POPC   C3B20601  37.831  39.542   7.958
 1306POPC   C4B20602  38.208  39.475   7.739
 1307POPC   NC320603  12.200   5.560   9.297
 1307POPC   PO420604  11.848   6.087   9.466
 1307POPC   GL120605  12.056   6.042   9.072
 1307POPC   GL220606  12.381   6.025   9.106
 1307POPC   C1A20607  12.186   5.792   8.703
 1307POPC   D2A20608  12.192   5.831   8.309
 1307POPC   C3A20609  12.518   5.741   8.071
 1307POPC   C4A20610  12.393   5.544   7.699
 1307POPC   C1B20611  12.468   6.220   8.674
 1307POPC   C2B20612  12.453   6.240   8.185
 1307POPC   C3B20613  12.244   6.031   7.770
 1307POPC   C4B20614  12.493   5.960   7.371
 1308POPC   NC320615  34.639  13.416   9.678
 1308POPC   PO420616  34.191  13.894   9.461
 1308POPC   GL120617  34.542  13.679   9.216
 1308POPC   GL220618  34.449  13.355   9.162
 1308POPC   C1A20619  34.781  13.583   8.807
 1308POPC   D2A20620  34.949  13.829   8.467
 1308POPC   C3A20621  34.838  13.696   8.046
 1308POPC   C4A20622  34.729  13.497   7.645
 1308POPC   C1B20623  34.263  13.498   8.801
 1308POPC   C2B20624  34.239  13.310   8.411
 1308POPC   C3B20625  34.390  13.501   8.056
 1308POPC   C4B20626  34.209  13.614   7.700
 1309POPC   NC320627  37.293  31.436   9.381
 1309POPC   PO420628  37.938  31.717   9.394
 1309POPC   GL120629  37.853  31.343   9.093
 1309POPC   GL220630  37.527  31.224   8.948
 1309POPC   C1A20631  37.968  31.392   8.653
 1309POPC   D2A20632  37.879  31.628   8.270
 1309POPC   C3A20633  37.775  31.339   7.921
 1309POPC   C4A20634  37.849  31.177   7.495
 1309POPC   C1B20635  37.440  31.555   8.642
 1309POPC   C2B20636  37.378  31.655   8.206
 1309POPC   C3B20637  37.560  31.803   7.802
 1309POPC   C4B20638  37.584  31.595   7.391
 1310POPC   NC320639  24.463  32.374   9.467
 1310POPC   PO420640  24.336  31.719   9.591
 1310POPC   GL120641  24.450  31.964   9.169
 1310POPC   GL220642  24.227  32.190   9.051
 1310POPC   C1A20643  24.623  32.199   8.760
 1310POPC   D2A20644  24.485  32.367   8.355
 1310POPC   C3A20645  24.655  32.267   7.933
 1310POPC   C4A20646  24.561  32.460   7.502
 1310POPC   C1B20647  24.063  32.152   8.638
 1310POPC   C2B20648  23.986  32.270   8.193
 1310POPC   C3B20649  24.166  32.221   7.759
 1310POPC   C4B20650  24.208  32.153   7.279
 1311POPC   NC320651   8.975  41.118   9.687
 1311POPC   PO420652   8.489  40.720   9.447
 1311POPC   GL120653   8.735  40.879   9.105
 1311POPC   GL220654   9.101  40.915   9.192
 1311POPC   C1A20655   8.710  40.832   8.684
 1311POPC   D2A20656   8.573  40.599   8.337
 1311POPC   C3A20657   8.761  40.698   7.939
 1311POPC   C4A20658   9.138  40.502   7.752
 1311POPC   C1B20659   9.121  41.143   8.779
 1311POPC   C2B20660   9.025  41.062   8.346
 1311POPC   C3B20661   9.216  40.949   7.974
 1311POPC   C4B20662   9.101  41.015   7.542
 1312POPC   NC320663  28.566   1.260   9.538
 1312POPC   PO420664  27.901   1.058   9.499
 1312POPC   GL120665  28.126   1.242   9.192
 1312POPC   GL220666  28.325   0.954   9.172
 1312POPC   C1A20667  28.234   1.279   8.771
 1312POPC   D2A20668  28.478   1.383   8.445
 1312POPC   C3A20669  28.280   1.354   8.064
 1312POPC   C4A20670  28.450   1.569   7.719
 1312POPC   C1B20671  28.225   0.786   8.748
 1312POPC   C2B20672  28.378   0.857   8.304
 1312POPC   C3B20673  28.221   0.781   7.853
 1312POPC   C4B20674  28.414   0.760   7.404
 1313POPC   NC320675  37.853  12.086   9.480
 1313POPC   PO420676  37.198  12.211   9.362
 1313POPC   GL120677  37.508  11.957   9.082
 1313POPC   GL220678  37.889  12.025   8.990
 1313POPC   C1A20679  37.538  11.898   8.626
 1313POPC   D2A20680  37.704  12.120   8.269
 1313POPC   C3A20681  37.432  12.053   7.908
 1313POPC   C4A20682  37.550  12.106   7.495
 1313POPC   C1B20683  38.043  11.823   8.642
 1313POPC   C2B20684  37.874  11.647   8.262
 1313POPC   C3B20685  37.924  11.891   7.868
 1313POPC   C4B20686  37.904  11.746   7.457
 1314POPC   NC320687  36.351  14.085   9.473
 1314POPC   PO420688  35.937  13.527   9.439
 1314POPC   GL120689  36.049  13.301   9.059
 1314POPC   GL220690  36.229  13.615   8.989
 1314POPC   C1A20691  36.155  13.269   8.620
 1314POPC   D2A20692  36.204  13.575   8.287
 1314POPC   C3A20693  36.156  13.487   7.834
 1314POPC   C4A20694  36.140  13.461   7.376
 1314POPC   C1B20695  35.857  13.686   8.752
 1314POPC   C2B20696  35.724  13.808   8.353
 1314POPC   C3B20697  35.714  13.718   7.927
 1314POPC   C4B20698  35.638  13.971   7.593
 1315POPC   NC320699   5.907  43.011   9.545
 1315POPC   PO420700   5.673  43.560   9.291
 1315POPC   GL120701   5.993  43.306   9.134
 1315POPC   GL220702   5.700  43.079   9.085
 1315POPC   C1A20703   6.134  43.029   8.840
 1315POPC   D2A20704   5.809  43.167   8.511
 1315POPC   C3A20705   5.929  43.381   8.098
 1315POPC   C4A20706   6.036  43.094   7.753
 1315POPC   C1B20707   5.395  42.972   8.810
 1315POPC   C2B20708   5.454  42.814   8.399
 1315POPC   C3B20709   5.588  42.993   8.036
 1315POPC   C4B20710   5.637  42.822   7.627
 1316POPC   NC320711  38.535  21.773   9.386
 1316POPC   PO420712  38.066  22.182   9.474
 1316POPC   GL120713  38.433  22.371   9.209
 1316POPC   GL220714  38.746  22.181   9.096
 1316POPC   C1A20715  38.473  22.416   8.741
 1316POPC   D2A20716  38.709  22.265   8.367
 1316POPC   C3A20717  38.471  22.236   8.008
 1316POPC   C4A20718  38.432  22.152   7.544
 1316POPC   C1B20719  38.630  21.897   8.719
 1316POPC   C2B20720  38.528  21.780   8.254
 1316POPC   C3B20721  38.747  21.841   7.824
 1316POPC   C4B20722  39.041  21.788   7.454
 1317POPC   NC320723   6.870  12.516   9.470
 1317POPC   PO420724   6.323  12.998   9.551
 1317POPC   GL120725   6.653  12.960   9.278
 1317POPC   GL220726   6.426  12.968   9.033
 1317POPC   C1A20727   6.923  13.003   8.909
 1317POPC   D2A20728   6.943  13.186   8.491
 1317POPC   C3A20729   6.800  12.915   8.172
 1317POPC   C4A20730   6.920  12.670   7.808
 1317POPC   C1B20731   6.460  13.157   8.673
 1317POPC   C2B20732   6.307  13.001   8.316
 1317POPC   C3B20733   6.387  13.063   7.894
 1317POPC   C4B20734   6.816  13.155   7.685
 1318POPC   NC320735  38.762  10.301   9.383
 1318POPC   PO420736  38.187  10.711   9.282
 1318POPC   GL120737  38.559  10.632   9.045
 1318POPC   GL220738  38.813  10.805   9.229
 1318POPC   C1A20739  38.656  10.504   8.628
 1318POPC   D2A20740  38.390  10.280   8.340
 1318POPC   C3A20741  38.403  10.389   7.921
 1318POPC   C4A20742  38.181  10.136   7.622
 1318POPC   C1B20743  38.969  10.882   8.810
 1318POPC   C2B20744  39.000  10.793   8.363
 1318POPC   C3B20745  38.869  10.665   7.952
 1318POPC   C4B20746  38.736  10.850   7.587
 1319POPC   NC320747  19.224  42.006   9.512
 1319POPC   PO420748  19.260  42.648   9.429
 1319POPC   GL120749  19.012  42.348   9.136
 1319POPC   GL220750  18.951  41.946   9.094
 1319POPC   C1A20751  18.952  42.582   8.762
 1319POPC   D2A20752  19.127  42.709   8.374
 1319POPC   C3A20753  19.071  42.488   8.004
 1319POPC   C4A20754  19.090  42.669   7.564
 1319POPC   C1B20755  19.233  41.881   8.752
 1319POPC   C2B20756  19.150  42.039   8.349
 1319POPC   C3B20757  19.300  42.042   7.931
 1319POPC   C4B20758  19.036  42.154   7.621
 1320POPC   NC320759  38.592   5.508   9.399
 1320POPC   PO420760  38.421   6.028   9.590
 1320POPC   GL120761  38.260   5.919   9.142
 1320POPC   GL220762  38.562   5.815   8.995
 1320POPC   C1A20763  38.147   5.643   8.766
 1320POPC   D2A20764  38.241   5.485   8.373
 1320POPC   C3A20765  38.271   5.834   8.117
 1320POPC   C4A20766  38.144   5.947   7.733
 1320POPC   C1B20767  38.642   5.477   8.740
 1320POPC   C2B20768  38.744   5.353   8.369
 1320POPC   C3B20769  38.679   5.567   8.002
 1320POPC   C4B20770  38.512   5.647   7.618
 1321POPC   NC320771  17.954  16.309   9.535
 1321POPC   PO420772  18.434  15.842   9.591
 1321POPC   GL120773  18.632  16.032   9.219
 1321POPC   GL220774  18.508  16.376   9.144
 1321POPC   C1A20775  18.446  15.978   8.802
 1321POPC   D2A20776  18.079  15.989   8.529
 1321POPC   C3A20777  18.124  15.871   8.095
 1321POPC   C4A20778  17.922  15.967   7.695
 1321POPC   C1B20779  18.613  16.443   8.700
 1321POPC   C2B20780  18.556  16.166   8.320
 1321POPC   C3B20781  18.419  16.245   7.907
 1321POPC   C4B20782  18.563  16.378   7.514
 1322POPC   NC320783  43.886   8.500   9.739
 1322POPC   PO420784  43.763   9.022   9.408
 1322POPC   GL120785  44.120   9.050   9.108
 1322POPC   GL220786  44.270   8.736   9.056
 1322POPC   C1A20787  44.058   8.990   8.664
 1322POPC   D2A20788  43.732   8.844   8.429
 1322POPC   C3A20789  43.781   8.991   8.022
 1322POPC   C4A20790  43.687   9.228   7.674
 1322POPC   C1B20791  44.395   8.533   8.727
 1322POPC   C2B20792  44.241   8.608   8.330
 1322POPC   C3B20793  44.301   8.930   8.082
 1322POPC   C4B20794  44.188   8.924   7.665
 1323POPC   NC320795  40.163  12.576   9.404
 1323POPC   PO420796  39.901  11.972   9.489
 1323POPC   GL120797  39.889  12.080   9.097
 1323POPC   GL220798  40.239  11.962   9.055
 1323POPC   C1A20799  40.029  12.354   8.774
 1323POPC   D2A20800  40.424  12.402   8.519
 1323POPC   C3A20801  40.258  12.464   8.116
 1323POPC   C4A20802  39.923  12.241   7.911
 1323POPC   C1B20803  40.036  11.856   8.660
 1323POPC   C2B20804  39.939  11.817   8.234
 1323POPC   C3B20805  39.926  11.718   7.832
 1323POPC   C4B20806  40.297  11.762   7.568
 1324POPC   NC320807  19.965  35.924   9.635
 1324POPC   PO420808  19.773  36.468   9.266
 1324POPC   GL120809  19.861  36.071   9.142
 1324POPC   GL220810  20.217  35.960   9.163
 1324POPC   C1A20811  19.641  36.075   8.749
 1324POPC   D2A20812  19.492  36.373   8.473
 1324POPC   C3A20813  19.513  36.120   8.150
 1324POPC   C4A20814  19.684  36.018   7.762
 1324POPC   C1B20815  20.154  36.078   8.724
 1324POPC   C2B20816  19.951  35.957   8.344
 1324POPC   C3B20817  20.132  36.091   7.972
 1324POPC   C4B20818  20.296  35.941   7.605
 1325POPC   NC320819   3.409  44.407   9.524
 1325POPC   PO420820   3.144  43.772   9.476
 1325POPC   GL120821   3.408  43.913   9.145
 1325POPC   GL220822   3.767  43.908   9.106
 1325POPC   C1A20823   3.447  43.744   8.737
 1325POPC   D2A20824   3.642  43.926   8.385
 1325POPC   C3A20825   3.639  43.746   7.975
 1325POPC   C4A20826   3.537  43.780   7.515
 1325POPC   C1B20827   4.031  44.076   8.792
 1325POPC   C2B20828   3.999  44.341   8.454
 1325POPC   C3B20829   3.926  44.215   8.050
 1325POPC   C4B20830   3.936  44.066   7.635
 1326POPC   NC320831  33.415  19.846   9.759
 1326POPC   PO420832  32.801  20.003   9.551
 1326POPC   GL120833  33.077  19.815   9.222
 1326POPC   GL220834  32.941  19.603   9.129
 1326POPC   C1A20835  33.226  19.643   8.740
 1326POPC   D2A20836  33.026  19.781   8.352
 1326POPC   C3A20837  33.188  19.801   7.935
 1326POPC   C4A20838  32.956  19.937   7.611
 1326POPC   C1B20839  32.706  19.633   8.770
 1326POPC   C2B20840  32.552  19.552   8.341
 1326POPC   C3B20841  32.705  19.545   7.936
 1326POPC   C4B20842  32.928  19.399   7.604
 1327POPC   NC320843  14.678   9.316   9.298
 1327POPC   PO420844  14.200   8.892   9.294
 1327POPC   GL120845  14.253   9.236   9.019
 1327POPC   GL220846  14.141   9.503   9.232
 1327POPC   C1A20847  14.527   9.367   8.653
 1327POPC   D2A20848  14.771   9.186   8.306
 1327POPC   C3A20849  14.472   8.907   8.059
 1327POPC   C4A20850  14.029   8.763   7.880
 1327POPC   C1B20851  14.063   9.623   8.773
 1327POPC   C2B20852  14.034   9.680   8.334
 1327POPC   C3B20853  13.930   9.385   8.026
 1327POPC   C4B20854  14.205   9.233   7.745
 1328POPC   NC320855  12.865  24.843   9.564
 1328POPC   PO420856  12.802  24.185   9.393
 1328POPC   GL120857  12.896  24.521   9.118
 1328POPC   GL220858  12.607  24.765   9.106
 1328POPC   C1A20859  12.821  24.511   8.667
 1328POPC   D2A20860  12.964  24.552   8.261
 1328POPC   C3A20861  12.743  24.338   7.999
 1328POPC   C4A20862  12.532  24.380   7.594
 1328POPC   C1B20863  12.934  24.988   8.827
 1328POPC   C2B20864  13.202  24.989   8.441
 1328POPC   C3B20865  13.108  24.968   7.992
 1328POPC   C4B20866  12.959  24.678   7.695
 1329POPC   NC320867  27.951   6.081   9.344
 1329POPC   PO420868  28.469   5.721   9.683
 1329POPC   GL120869  28.376   5.784   9.253
 1329POPC   GL220870  28.439   6.035   8.999
 1329POPC   C1A20871  28.424   5.569   8.838
 1329POPC   D2A20872  28.484   5.806   8.493
 1329POPC   C3A20873  28.423   5.610   8.106
 1329POPC   C4A20874  28.323   5.834   7.739
 1329POPC   C1B20875  28.242   6.341   8.757
 1329POPC   C2B20876  27.966   6.355   8.426
 1329POPC   C3B20877  28.148   6.305   8.042
 1329POPC   C4B20878  28.007   6.406   7.674
 1330POPC   NC320879  36.632  25.419   9.545
 1330POPC   PO420880  36.764  24.750   9.555
 1330POPC   GL120881  36.792  25.021   9.165
 1330POPC   GL220882  37.028  25.295   9.191
 1330POPC   C1A20883  37.013  24.966   8.733
 1330POPC   D2A20884  37.023  25.227   8.355
 1330POPC   C3A20885  36.728  25.145   8.028
 1330POPC   C4A20886  36.639  25.145   7.604
 1330POPC   C1B20887  36.802  25.417   8.795
 1330POPC   C2B20888  36.664  25.599   8.391
 1330POPC   C3B20889  36.880  25.649   8.001
 1330POPC   C4B20890  37.087  25.403   7.689
 1331POPC   NC320891   2.501  41.337   9.385
 1331POPC   PO420892   2.915  41.848   9.535
 1331POPC   GL120893   2.713  41.758   9.160
 1331POPC   GL220894   2.950  41.520   9.084
 1331POPC   C1A20895   2.516  41.592   8.789
 1331POPC   D2A20896   2.335  41.733   8.427
 1331POPC   C3A20897   2.563  41.522   8.097
 1331POPC   C4A20898   2.832  41.717   7.826
 1331POPC   C1B20899   2.996  41.315   8.717
 1331POPC   C2B20900   3.020  41.480   8.322
 1331POPC   C3B20901   3.023  41.263   7.934
 1331POPC   C4B20902   2.722  41.237   7.686
 1332POPC   NC320903   2.263  38.810   9.698
 1332POPC   PO420904   1.610  38.587   9.527
 1332POPC   GL120905   2.009  38.510   9.297
 1332POPC   GL220906   2.326  38.688   9.199
 1332POPC   C1A20907   1.998  38.418   8.867
 1332POPC   D2A20908   1.757  38.562   8.530
 1332POPC   C3A20909   1.833  38.338   8.115
 1332POPC   C4A20910   1.966  38.370   7.685
 1332POPC   C1B20911   2.302  38.801   8.771
 1332POPC   C2B20912   2.234  38.557   8.365
 1332POPC   C3B20913   2.395  38.364   7.940
 1332POPC   C4B20914   2.407  38.539   7.472
 1333POPC   NC320915  38.888   9.338   9.621
 1333POPC   PO420916  39.368   8.814   9.479
 1333POPC   GL120917  39.323   8.994   9.087
 1333POPC   GL220918  39.198   9.308   9.171
 1333POPC   C1A20919  39.482   8.872   8.663
 1333POPC   D2A20920  39.640   8.786   8.235
 1333POPC   C3A20921  39.261   8.800   7.985
 1333POPC   C4A20922  38.980   9.204   7.929
 1333POPC   C1B20923  39.310   9.368   8.720
 1333POPC   C2B20924  39.399   9.230   8.273
 1333POPC   C3B20925  39.503   9.192   7.816
 1333POPC   C4B20926  39.559   9.256   7.364
 1334POPC   NC320927  43.404  22.674   9.758
 1334POPC   PO420928  43.099  22.076   9.582
 1334POPC   GL120929  43.122  22.325   9.217
 1334POPC   GL220930  42.810  22.427   9.019
 1334POPC   C1A20931  43.305  22.258   8.842
 1334POPC   D2A20932  43.254  22.094   8.461
 1334POPC   C3A20933  43.049  22.314   8.147
 1334POPC   C4A20934  43.191  22.347   7.728
 1334POPC   C1B20935  42.863  21.997   8.829
 1334POPC   C2B20936  42.798  21.895   8.389
 1334POPC   C3B20937  43.020  21.826   7.998
 1334POPC   C4B20938  42.904  21.939   7.568
 1335POPC   NC320939   0.836   9.973   9.515
 1335POPC   PO420940   1.225   9.401   9.668
 1335POPC   GL120941   1.354   9.703   9.304
 1335POPC   GL220942   1.052   9.703   9.139
 1335POPC   C1A20943   1.438   9.868   8.846
 1335POPC   D2A20944   1.211  10.016   8.436
 1335POPC   C3A20945   1.405   9.916   8.019
 1335POPC   C4A20946   1.386   9.745   7.610
 1335POPC   C1B20947   0.779   9.397   8.900
 1335POPC   C2B20948   0.762   9.394   8.466
 1335POPC   C3B20949   0.881   9.711   8.160
 1335POPC   C4B20950   0.851   9.694   7.716
 1336POPC   NC320951  15.846   4.517   9.390
 1336POPC   PO420952  15.931   3.841   9.628
 1336POPC   GL120953  15.857   3.971   9.216
 1336POPC   GL220954  16.104   4.195   9.106
 1336POPC   C1A20955  15.705   4.094   8.797
 1336POPC   D2A20956  15.868   4.075   8.389
 1336POPC   C3A20957  15.722   4.206   8.013
 1336POPC   C4A20958  15.915   4.092   7.657
 1336POPC   C1B20959  16.180   4.344   8.703
 1336POPC   C2B20960  15.992   4.609   8.400
 1336POPC   C3B20961  16.092   4.556   7.979
 1336POPC   C4B20962  16.371   4.300   7.722
 1337POPC   NC320963  15.951   9.465   9.577
 1337POPC   PO420964  15.914  10.103   9.613
 1337POPC   GL120965  16.067   9.802   9.226
 1337POPC   GL220966  16.324   9.528   9.224
 1337POPC   C1A20967  15.926   9.599   8.834
 1337POPC   D2A20968  15.752   9.566   8.403
 1337POPC   C3A20969  15.939   9.835   8.055
 1337POPC   C4A20970  15.683   9.842   7.694
 1337POPC   C1B20971  16.284   9.249   8.847
 1337POPC   C2B20972  16.192   9.141   8.406
 1337POPC   C3B20973  16.004   9.336   8.026
 1337POPC   C4B20974  16.102   9.538   7.634
 1338POPC   NC320975  21.130  27.334   9.778
 1338POPC   PO420976  21.376  27.796   9.513
 1338POPC   GL120977  21.455  27.449   9.252
 1338POPC   GL220978  21.191  27.215   9.252
 1338POPC   C1A20979  21.483  27.536   8.806
 1338POPC   D2A20980  21.530  27.559   8.355
 1338POPC   C3A20981  21.391  27.901   8.092
 1338POPC   C4A20982  21.346  27.857   7.651
 1338POPC   C1B20983  20.987  27.364   8.855
 1338POPC   C2B20984  21.056  27.322   8.377
 1338POPC   C3B20985  21.041  27.550   7.946
 1338POPC   C4B20986  21.034  27.486   7.482
 1339POPC   NC320987   3.539  40.238   9.819
 1339POPC   PO420988   3.855  39.839   9.431
 1339POPC   GL120989   3.494  40.024   9.167
 1339POPC   GL220990   3.719  40.218   8.989
 1339POPC   C1A20991   3.271  39.937   8.747
 1339POPC   D2A20992   3.285  40.160   8.318
 1339POPC   C3A20993   3.331  40.003   7.867
 1339POPC   C4A20994   3.359  40.093   7.359
 1339POPC   C1B20995   3.771  39.815   8.775
 1339POPC   C2B20996   3.597  39.747   8.366
 1339POPC   C3B20997   3.811  39.685   7.982
 1339POPC   C4B20998   3.740  39.828   7.577
 1340POPC   NC320999  36.845  21.402   9.730
 1340POPC   PO421000  36.424  21.450   9.218
 1340POPC   GL121001  36.811  21.335   9.122
 1340POPC   GL221002  36.948  21.624   9.141
 1340POPC   C1A21003  36.929  21.344   8.698
 1340POPC   D2A21004  36.632  21.270   8.399
 1340POPC   C3A21005  36.732  21.151   8.005
 1340POPC   C4A21006  37.013  21.119   7.687
 1340POPC   C1B21007  37.146  21.805   8.784
 1340POPC   C2B21008  37.154  21.661   8.360
 1340POPC   C3B21009  36.847  21.640   8.077
 1340POPC   C4B21010  36.769  21.573   7.659
 1341POPC   NC321011   4.553  10.407   9.474
 1341POPC   PO421012   3.889  10.714   9.481
 1341POPC   GL121013   4.092  10.406   9.220
 1341POPC   GL221014   4.207  10.717   9.078
 1341POPC   C1A21015   4.339  10.246   8.830
 1341POPC   D2A21016   4.601  10.357   8.437
 1341POPC   C3A21017   4.392  10.415   8.018
 1341POPC   C4A21018   4.346  10.559   7.585
 1341POPC   C1B21019   4.389  10.761   8.710
 1341POPC   C2B21020   4.283  10.936   8.329
 1341POPC   C3B21021   4.267  10.941   7.897
 1341POPC   C4B21022   4.043  10.947   7.506
 1342POPC   NC321023   1.341  19.160   9.408
 1342POPC   PO421024   0.710  19.191   9.497
 1342POPC   GL121025   0.990  18.955   9.125
 1342POPC   GL221026   1.284  19.209   8.925
 1342POPC   C1A21027   1.030  18.876   8.678
 1342POPC   D2A21028   1.313  19.145   8.396
 1342POPC   C3A21029   1.195  19.051   7.993
 1342POPC   C4A21030   1.223  19.304   7.635
 1342POPC   C1B21031   1.557  18.872   8.734
 1342POPC   C2B21032   1.790  18.862   8.371
 1342POPC   C3B21033   1.663  18.864   7.940
 1342POPC   C4B21034   1.669  18.898   7.455
 1343POPC   NC321035  13.770  24.601  10.109
 1343POPC   PO421036  13.186  24.530   9.742
 1343POPC   GL121037  13.342  24.767   9.322
 1343POPC   GL221038  13.728  24.676   9.228
 1343POPC   C1A21039  13.334  24.667   8.859
 1343POPC   D2A21040  13.415  24.421   8.479
 1343POPC   C3A21041  13.426  24.553   8.031
 1343POPC   C4A21042  13.374  24.329   7.641
 1343POPC   C1B21043  13.845  24.707   8.752
 1343POPC   C2B21044  13.889  24.523   8.302
 1343POPC   C3B21045  13.908  24.456   7.841
 1343POPC   C4B21046  13.830  24.596   7.452
 1344POPC   NC321047  44.967  24.283   9.430
 1344POPC   PO421048  44.591  24.825   9.592
 1344POPC   GL121049  44.602  24.781   9.143
 1344POPC   GL221050  44.855  24.950   8.945
 1344POPC   C1A21051  44.559  24.512   8.778
 1344POPC   D2A21052  44.335  24.474   8.375
 1344POPC   C3A21053  44.530  24.538   7.956
 1344POPC   C4A21054  44.623  24.329   7.564
 1344POPC   C1B21055   0.045  24.656   8.671
 1344POPC   C2B21056  44.873  24.605   8.326
 1344POPC   C3B21057  44.906  24.884   7.975
 1344POPC   C4B21058  44.944  24.712   7.535
 1345POPC   NC321059  43.795  11.298   9.585
 1345POPC   PO421060  44.199  11.801   9.480
 1345POPC   GL121061  44.139  11.318   9.229
 1345POPC   GL221062  43.821  11.155   9.091
 1345POPC   C1A21063  44.242  11.107   8.807
 1345POPC   D2A21064  44.022  10.905   8.454
 1345POPC   C3A21065  43.995  11.023   8.004
 1345POPC   C4A21066  43.626  11.146   7.744
 1345POPC   C1B21067  43.738  11.280   8.654
 1345POPC   C2B21068  43.884  11.457   8.239
 1345POPC   C3B21069  44.154  11.475   7.828
 1345POPC   C4B21070  44.039  11.224   7.436
 1346POPC   NC321071  12.031  32.837   9.677
 1346POPC   PO421072  12.662  32.668   9.485
 1346POPC   GL121073  12.329  32.928   9.240
 1346POPC   GL221074  11.964  32.847   9.152
 1346POPC   C1A21075  12.226  33.089   8.785
 1346POPC   D2A21076  11.839  33.036   8.504
 1346POPC   C3A21077  11.809  33.221   8.083
 1346POPC   C4A21078  12.098  33.200   7.720
 1346POPC   C1B21079  12.282  32.592   8.866
 1346POPC   C2B21080  12.391  32.705   8.445
 1346POPC   C3B21081  12.177  32.863   8.126
 1346POPC   C4B21082  12.134  32.676   7.749
 1347POPC   NC321083   7.546  43.363   9.350
 1347POPC   PO421084   6.990  42.982   9.520
 1347POPC   GL121085   7.231  43.001   9.176
 1347POPC   GL221086   7.055  43.327   9.109
 1347POPC   C1A21087   7.530  42.973   8.816
 1347POPC   D2A21088   7.622  43.165   8.426
 1347POPC   C3A21089   7.484  43.131   7.995
 1347POPC   C4A21090   7.661  43.384   7.651
 1347POPC   C1B21091   7.067  43.166   8.721
 1347POPC   C2B21092   7.150  43.371   8.362
 1347POPC   C3B21093   6.901  43.501   8.069
 1347POPC   C4B21094   7.131  43.402   7.736
 1348POPC   NC321095  23.619  14.227   9.524
 1348POPC   PO421096  23.940  14.810   9.511
 1348POPC   GL121097  23.928  14.453   9.176
 1348POPC   GL221098  23.567  14.426   9.065
 1348POPC   C1A21099  23.917  14.303   8.728
 1348POPC   D2A21100  23.642  14.442   8.401
 1348POPC   C3A21101  23.835  14.737   8.108
 1348POPC   C4A21102  23.877  14.663   7.686
 1348POPC   C1B21103  23.439  14.097   8.766
 1348POPC   C2B21104  23.677  13.909   8.440
 1348POPC   C3B21105  23.687  14.090   8.017
 1348POPC   C4B21106  23.381  14.274   7.725
 1349POPC   NC321107  23.611  15.163   9.443
 1349POPC   PO421108  24.292  15.255   9.198
 1349POPC   GL121109  23.902  15.299   9.056
 1349POPC   GL221110  23.823  14.942   9.041
 1349POPC   C1A21111  23.729  15.392   8.665
 1349POPC   D2A21112  23.927  15.224   8.304
 1349POPC   C3A21113  23.808  15.382   7.948
 1349POPC   C4A21114  23.395  15.462   7.845
 1349POPC   C1B21115  23.916  14.826   8.659
 1349POPC   C2B21116  23.541  14.935   8.494
 1349POPC   C3B21117  23.418  15.026   8.102
 1349POPC   C4B21118  23.433  14.888   7.703
 1350POPC   NC321119  34.712  14.140   9.407
 1350POPC   PO421120  34.612  14.763   9.201
 1350POPC   GL121121  34.837  14.426   8.977
 1350POPC   GL221122  34.993  14.073   8.981
 1350POPC   C1A21123  34.874  14.332   8.536
 1350POPC   D2A21124  34.819  14.191   8.117
 1350POPC   C3A21125  34.552  14.450   7.919
 1350POPC   C4A21126  34.432  14.689   7.594
 1350POPC   C1B21127  34.547  14.024   8.799
 1350POPC   C2B21128  34.433  13.856   8.430
 1350POPC   C3B21129  34.328  14.009   8.040
 1350POPC   C4B21130  34.571  13.975   7.690
 1351POPC   NC321131   7.109   5.686   9.837
 1351POPC   PO421132   6.567   5.861   9.487
 1351POPC   GL121133   6.581   5.911   9.063
 1351POPC   GL221134   6.448   6.223   9.103
 1351POPC   C1A21135   6.798   5.862   8.655
 1351POPC   D2A21136   7.091   5.756   8.290
 1351POPC   C3A21137   6.916   5.709   7.858
 1351POPC   C4A21138   6.560   5.766   7.546
 1351POPC   C1B21139   6.595   6.346   8.713
 1351POPC   C2B21140   6.676   6.253   8.330
 1351POPC   C3B21141   6.650   6.117   7.968
 1351POPC   C4B21142   6.851   6.177   7.605
 1352POPC   NC321143  35.895  38.125   9.476
 1352POPC   PO421144  36.461  38.382   9.739
 1352POPC   GL121145  36.303  38.434   9.311
 1352POPC   GL221146  36.491  38.265   9.069
 1352POPC   C1A21147  36.190  38.641   8.906
 1352POPC   D2A21148  35.924  38.556   8.535
 1352POPC   C3A21149  36.043  38.606   8.098
 1352POPC   C4A21150  36.342  38.750   7.829
 1352POPC   C1B21151  36.149  38.132   8.777
 1352POPC   C2B21152  36.086  38.119   8.307
 1352POPC   C3B21153  36.101  38.154   7.824
 1352POPC   C4B21154  36.278  37.992   7.410
 1353POPC   NC321155   8.537  33.857   9.499
 1353POPC   PO421156   7.937  33.671   9.712
 1353POPC   GL121157   8.099  33.651   9.299
 1353POPC   GL221158   8.189  33.989   9.162
 1353POPC   C1A21159   8.003  33.489   8.909
 1353POPC   D2A21160   8.234  33.392   8.553
 1353POPC   C3A21161   8.048  33.505   8.164
 1353POPC   C4A21162   8.010  33.573   7.707
 1353POPC   C1B21163   8.378  33.853   8.780
 1353POPC   C2B21164   8.262  33.950   8.372
 1353POPC   C3B21165   8.365  33.857   7.975
 1353POPC   C4B21166   8.537  33.924   7.589
 1354POPC   NC321167  33.334   9.735   9.374
 1354POPC   PO421168  32.862  10.092   9.708
 1354POPC   GL121169  32.846   9.922   9.235
 1354POPC   GL221170  32.883   9.523   9.157
 1354POPC   C1A21171  32.946   9.850   8.767
 1354POPC   D2A21172  32.840   9.537   8.440
 1354POPC   C3A21173  32.756   9.736   8.041
 1354POPC   C4A21174  33.104   9.953   7.838
 1354POPC   C1B21175  33.224   9.403   8.826
 1354POPC   C2B21176  33.425   9.543   8.447
 1354POPC   C3B21177  33.243   9.517   8.067
 1354POPC   C4B21178  33.232   9.224   7.764
 1355POPC   NC321179  17.798  41.091   9.436
 1355POPC   PO421180  17.420  40.532   9.467
 1355POPC   GL121181  17.548  40.584   9.097
 1355POPC   GL221182  17.433  40.919   9.097
 1355POPC   C1A21183  17.377  40.451   8.735
 1355POPC   D2A21184  17.435  40.673   8.380
 1355POPC   C3A21185  17.421  40.452   8.000
 1355POPC   C4A21186  17.630  40.593   7.611
 1355POPC   C1B21187  17.561  41.062   8.708
 1355POPC   C2B21188  17.853  41.061   8.376
 1355POPC   C3B21189  17.610  40.982   7.999
 1355POPC   C4B21190  17.293  41.262   7.843
 1356POPC   NC321191  33.159  31.352   9.798
 1356POPC   PO421192  33.035  30.727   9.638
 1356POPC   GL121193  32.962  30.698   9.173
 1356POPC   GL221194  32.612  30.564   9.129
 1356POPC   C1A21195  33.024  30.670   8.766
 1356POPC   D2A21196  32.868  30.481   8.416
 1356POPC   C3A21197  33.135  30.346   8.101
 1356POPC   C4A21198  33.174  30.462   7.698
 1356POPC   C1B21199  32.523  30.764   8.738
 1356POPC   C2B21200  32.718  30.969   8.401
 1356POPC   C3B21201  32.887  30.841   8.011
 1356POPC   C4B21202  32.657  30.932   7.655
 1357POPC   NC321203  32.830  23.042   9.485
 1357POPC   PO421204  33.372  22.678   9.314
 1357POPC   GL121205  32.993  22.617   9.111
 1357POPC   GL221206  32.985  22.898   8.982
 1357POPC   C1A21207  32.705  22.514   8.760
 1357POPC   D2A21208  32.549  22.653   8.318
 1357POPC   C3A21209  32.898  22.823   8.044
 1357POPC   C4A21210  33.021  22.753   7.565
 1357POPC   C1B21211  32.992  22.874   8.552
 1357POPC   C2B21212  33.183  23.182   8.284
 1357POPC   C3B21213  33.022  23.298   7.911
 1357POPC   C4B21214  33.114  23.235   7.502
 1358POPC   NC321215  21.125  16.382   9.478
 1358POPC   PO421216  21.205  15.682   9.477
 1358POPC   GL121217  21.354  15.913   9.144
 1358POPC   GL221218  21.522  16.226   9.195
 1358POPC   C1A21219  21.153  16.097   8.803
 1358POPC   D2A21220  21.144  16.164   8.347
 1358POPC   C3A21221  21.204  15.888   7.992
 1358POPC   C4A21222  21.133  15.957   7.546
 1358POPC   C1B21223  21.567  16.380   8.795
 1358POPC   C2B21224  21.574  16.521   8.372
 1358POPC   C3B21225  21.738  16.364   8.016
 1358POPC   C4B21226  21.499  16.239   7.718
 1359POPC   NC321227  28.692  31.688   9.416
 1359POPC   PO421228  28.067  31.402   9.493
 1359POPC   GL121229  28.246  31.361   9.098
 1359POPC   GL221230  28.596  31.263   9.102
 1359POPC   C1A21231  28.104  31.531   8.703
 1359POPC   D2A21232  28.298  31.782   8.378
 1359POPC   C3A21233  28.105  31.778   8.009
 1359POPC   C4A21234  28.193  31.436   7.729
 1359POPC   C1B21235  28.610  31.537   8.761
 1359POPC   C2B21236  28.717  31.479   8.355
 1359POPC   C3B21237  28.594  31.642   7.974
 1359POPC   C4B21238  28.667  31.712   7.568
 1360POPC   NC321239  18.883  37.533   9.617
 1360POPC   PO421240  19.548  37.732   9.648
 1360POPC   GL121241  19.210  37.760   9.268
 1360POPC   GL221242  18.956  37.489   9.128
 1360POPC   C1A21243  19.019  37.883   8.842
 1360POPC   D2A21244  18.941  37.955   8.415
 1360POPC   C3A21245  19.124  37.713   8.091
 1360POPC   C4A21246  19.419  37.771   7.779
 1360POPC   C1B21247  18.744  37.439   8.733
 1360POPC   C2B21248  18.694  37.500   8.279
 1360POPC   C3B21249  18.596  37.437   7.827
 1360POPC   C4B21250  18.794  37.437   7.409
 1361POPC   NC321251  14.117  22.863   9.461
 1361POPC   PO421252  14.380  23.442   9.604
 1361POPC   GL121253  14.496  23.180   9.204
 1361POPC   GL221254  14.214  23.089   9.029
 1361POPC   C1A21255  14.641  22.832   8.834
 1361POPC   D2A21256  14.786  22.638   8.402
 1361POPC   C3A21257  14.663  22.793   7.980
 1361POPC   C4A21258  14.458  22.662   7.599
 1361POPC   C1B21259  14.398  23.244   8.695
 1361POPC   C2B21260  14.366  22.923   8.387
 1361POPC   C3B21261  14.153  22.795   8.022
 1361POPC   C4B21262  14.341  23.208   7.920
 1362POPC   NC321263  25.278  17.948   9.793
 1362POPC   PO421264  25.409  17.366   9.453
 1362POPC   GL121265  25.266  17.361   9.010
 1362POPC   GL221266  25.127  17.004   8.885
 1362POPC   C1A21267  25.325  17.647   8.654
 1362POPC   D2A21268  25.236  17.986   8.368
 1362POPC   C3A21269  25.416  17.833   7.988
 1362POPC   C4A21270  25.398  17.418   7.771
 1362POPC   C1B21271  24.942  17.290   8.588
 1362POPC   C2B21272  25.057  17.506   8.210
 1362POPC   C3B21273  24.887  17.434   7.788
 1362POPC   C4B21274  25.048  17.335   7.364
 1363POPC   NC321275  29.370  37.986   9.478
 1363POPC   PO421276  28.762  37.919   9.490
 1363POPC   GL121277  29.031  37.784   9.103
 1363POPC   GL221278  29.275  37.961   8.956
 1363POPC   C1A21279  29.039  37.528   8.735
 1363POPC   D2A21280  28.804  37.337   8.392
 1363POPC   C3A21281  28.932  37.525   7.999
 1363POPC   C4A21282  28.996  37.595   7.547
 1363POPC   C1B21283  28.879  38.007   8.676
 1363POPC   C2B21284  28.855  37.985   8.216
 1363POPC   C3B21285  29.125  38.002   7.819
 1363POPC   C4B21286  29.000  38.058   7.353
 1364POPC   NC321287  10.032  34.273   9.564
 1364POPC   PO421288   9.602  34.712   9.786
 1364POPC   GL121289   9.587  34.666   9.301
 1364POPC   GL221290   9.760  34.402   9.159
 1364POPC   C1A21291   9.423  34.655   8.869
 1364POPC   D2A21292   9.618  34.542   8.464
 1364POPC   C3A21293   9.486  34.612   8.040
 1364POPC   C4A21294   9.679  34.411   7.717
 1364POPC   C1B21295  10.025  34.321   8.822
 1364POPC   C2B21296  10.037  34.224   8.389
 1364POPC   C3B21297  10.124  34.387   7.983
 1364POPC   C4B21298  10.121  34.200   7.577
 1365POPC   NC321299   9.258  10.400   9.522
 1365POPC   PO421300   8.574  10.744   9.451
 1365POPC   GL121301   8.807  10.649   9.080
 1365POPC   GL221302   9.162  10.661   9.093
 1365POPC   C1A21303   8.916  10.629   8.640
 1365POPC   D2A21304   9.229  10.501   8.356
 1365POPC   C3A21305   9.110  10.591   7.944
 1365POPC   C4A21306   8.835  10.530   7.605
 1365POPC   C1B21307   9.223  10.265   8.822
 1365POPC   C2B21308   9.333   9.996   8.480
 1365POPC   C3B21309   9.227  10.075   8.071
 1365POPC   C4B21310   9.220  10.161   7.666
 1366POPC   NC321311  13.148  36.221   9.579
 1366POPC   PO421312  12.574  35.786   9.431
 1366POPC   GL121313  12.649  36.025   9.052
 1366POPC   GL221314  12.800  36.372   9.184
 1366POPC   C1A21315  12.551  35.908   8.592
 1366POPC   D2A21316  12.502  35.827   8.124
 1366POPC   C3A21317  12.891  35.848   7.850
 1366POPC   C4A21318  13.003  36.071   7.472
 1366POPC   C1B21319  12.738  36.417   8.722
 1366POPC   C2B21320  12.796  36.268   8.290
 1366POPC   C3B21321  13.008  36.347   7.923
 1366POPC   C4B21322  13.243  36.497   7.584
 1367POPC   NC321323   4.422   8.260   9.598
 1367POPC   PO421324   3.756   8.324   9.547
 1367POPC   GL121325   3.948   8.268   9.140
 1367POPC   GL221326   4.322   8.319   9.112
 1367POPC   C1A21327   3.991   8.329   8.712
 1367POPC   D2A21328   4.080   8.486   8.314
 1367POPC   C3A21329   4.181   8.244   7.971
 1367POPC   C4A21330   4.611   8.352   7.877
 1367POPC   C1B21331   4.435   8.078   8.768
 1367POPC   C2B21332   4.481   8.143   8.356
 1367POPC   C3B21333   4.559   7.867   8.014
 1367POPC   C4B21334   4.431   7.776   7.599
 1368POPC   NC321335  15.820  24.230   9.445
 1368POPC   PO421336  15.391  24.745   9.447
 1368POPC   GL121337  15.559  24.563   9.111
 1368POPC   GL221338  15.521  24.217   9.038
 1368POPC   C1A21339  15.898  24.599   8.799
 1368POPC   D2A21340  15.880  24.564   8.339
 1368POPC   C3A21341  16.201  24.433   8.025
 1368POPC   C4A21342  16.445  24.040   7.971
 1368POPC   C1B21343  15.465  24.394   8.652
 1368POPC   C2B21344  15.535  24.190   8.320
 1368POPC   C3B21345  15.660  24.286   7.941
 1368POPC   C4B21346  15.780  24.674   7.843
 1369POPC   NC321347  34.738   1.727   9.450
 1369POPC   PO421348  34.058   1.805   9.423
 1369POPC   GL121349  34.359   1.877   9.110
 1369POPC   GL221350  34.685   2.075   9.098
 1369POPC   C1A21351  34.312   2.119   8.738
 1369POPC   D2A21352  34.547   2.196   8.393
 1369POPC   C3A21353  34.363   1.974   8.078
 1369POPC   C4A21354  34.518   1.932   7.664
 1369POPC   C1B21355  34.734   1.791   8.767
 1369POPC   C2B21356  34.655   1.656   8.385
 1369POPC   C3B21357  34.825   1.713   8.000
 1369POPC   C4B21358  35.017   1.929   7.690
 1370POPC   NC321359  21.097  17.907   9.521
 1370POPC   PO421360  20.428  17.713   9.440
 1370POPC   GL121361  20.500  18.128   9.190
 1370POPC   GL221362  20.747  18.320   9.269
 1370POPC   C1A21363  20.343  18.378   8.806
 1370POPC   D2A21364  20.366  18.678   8.457
 1370POPC   C3A21365  20.415  18.457   8.059
 1370POPC   C4A21366  20.533  18.348   7.646
 1370POPC   C1B21367  20.849  18.276   8.843
 1370POPC   C2B21368  20.779  18.378   8.413
 1370POPC   C3B21369  20.844  18.160   7.999
 1370POPC   C4B21370  20.665  17.859   7.689
 1371POPC   NC321371  18.471   7.567   9.496
 1371POPC   PO421372  17.950   7.178   9.546
 1371POPC   GL121373  18.115   7.399   9.181
 1371POPC   GL221374  18.490   7.349   9.041
 1371POPC   C1A21375  18.064   7.550   8.782
 1371POPC   D2A21376  18.028   7.283   8.404
 1371POPC   C3A21377  18.091   7.461   7.995
 1371POPC   C4A21378  17.968   7.465   7.566
 1371POPC   C1B21379  18.504   7.373   8.577
 1371POPC   C2B21380  18.500   7.172   8.172
 1371POPC   C3B21381  18.569   7.169   7.736
 1371POPC   C4B21382  18.549   7.521   7.448
 1372POPC   NC321383   0.058  39.743   9.950
 1372POPC   PO421384   0.528  40.040   9.587
 1372POPC   GL121385   0.435  39.948   9.201
 1372POPC   GL221386   0.652  39.715   9.194
 1372POPC   C1A21387   0.451  40.092   8.778
 1372POPC   D2A21388   0.241  39.919   8.424
 1372POPC   C3A21389   0.251  40.134   8.041
 1372POPC   C4A21390   0.313  39.990   7.631
 1372POPC   C1B21391   0.501  39.592   8.802
 1372POPC   C2B21392   0.683  39.636   8.382
 1372POPC   C3B21393   0.587  39.654   7.921
 1372POPC   C4B21394   0.718  39.731   7.445
 1373POPC   NC321395  23.242  31.490   9.626
 1373POPC   PO421396  22.585  31.273   9.503
 1373POPC   GL121397  22.817  31.539   9.190
 1373POPC   GL221398  23.171  31.577   9.138
 1373POPC   C1A21399  22.942  31.400   8.743
 1373POPC   D2A21400  23.108  31.236   8.359
 1373POPC   C3A21401  22.772  31.181   8.051
 1373POPC   C4A21402  22.822  31.284   7.626
 1373POPC   C1B21403  23.329  31.771   8.779
 1373POPC   C2B21404  23.103  31.785   8.420
 1373POPC   C3B21405  23.035  31.645   8.012
 1373POPC   C4B21406  23.360  31.832   7.759
 1374POPC   NC321407   6.279  42.081   9.473
 1374POPC   PO421408   6.798  42.356   9.396
 1374POPC   GL121409   6.632  42.372   8.997
 1374POPC   GL221410   6.256  42.366   9.039
 1374POPC   C1A21411   6.819  42.287   8.575
 1374POPC   D2A21412   6.859  42.542   8.198
 1374POPC   C3A21413   6.857  42.467   7.753
 1374POPC   C4A21414   6.954  42.187   7.379
 1374POPC   C1B21415   6.314  42.368   8.587
 1374POPC   C2B21416   6.363  42.668   8.258
 1374POPC   C3B21417   6.434  42.756   7.836
 1374POPC   C4B21418   6.310  42.393   7.616
 1375POPC   NC321419  22.403  32.711   9.297
 1375POPC   PO421420  22.012  33.175   9.527
 1375POPC   GL121421  22.143  33.338   9.132
 1375POPC   GL221422  22.049  33.016   9.035
 1375POPC   C1A21423  22.257  33.298   8.671
 1375POPC   D2A21424  22.331  33.052   8.303
 1375POPC   C3A21425  22.131  33.254   7.958
 1375POPC   C4A21426  22.116  33.222   7.512
 1375POPC   C1B21427  22.093  32.767   8.689
 1375POPC   C2B21428  21.851  32.707   8.361
 1375POPC   C3B21429  22.005  32.752   7.992
 1375POPC   C4B21430  22.337  32.813   7.730
 1376POPC   NC321431   9.161  41.794   9.365
 1376POPC   PO421432   8.797  41.322   9.325
 1376POPC   GL121433   8.685  41.399   8.958
 1376POPC   GL221434   8.752  41.736   9.018
 1376POPC   C1A21435   8.782  41.486   8.532
 1376POPC   D2A21436   9.205  41.556   8.357
 1376POPC   C3A21437   9.218  41.449   7.946
 1376POPC   C4A21438   8.817  41.257   7.917
 1376POPC   C1B21439   9.029  41.886   8.729
 1376POPC   C2B21440   8.960  42.025   8.327
 1376POPC   C3B21441   8.838  41.801   7.967
 1376POPC   C4B21442   9.054  41.780   7.581
 1377POPC   NC321443  31.447  24.930   9.575
 1377POPC   PO421444  31.276  25.564   9.477
 1377POPC   GL121445  31.278  25.238   9.168
 1377POPC   GL221446  31.650  25.174   9.173
 1377POPC   C1A21447  31.379  25.126   8.728
 1377POPC   D2A21448  31.513  25.120   8.295
 1377POPC   C3A21449  31.306  24.991   7.917
 1377POPC   C4A21450  31.397  25.154   7.523
 1377POPC   C1B21451  31.909  25.193   8.798
 1377POPC   C2B21452  31.998  25.284   8.381
 1377POPC   C3B21453  31.791  25.430   7.997
 1377POPC   C4B21454  31.887  25.125   7.708
 1378POPC   NC321455   9.262   6.057   9.182
 1378POPC   PO421456   9.081   5.528   9.524
 1378POPC   GL121457   9.002   5.647   9.095
 1378POPC   GL221458   9.334   5.693   8.852
 1378POPC   C1A21459   8.849   5.658   8.666
 1378POPC   D2A21460   9.037   5.673   8.259
 1378POPC   C3A21461   8.784   5.889   7.954
 1378POPC   C4A21462   8.744   6.191   7.631
 1378POPC   C1B21463   9.336   6.047   8.550
 1378POPC   C2B21464   9.108   6.211   8.247
 1378POPC   C3B21465   9.208   6.130   7.849
 1378POPC   C4B21466   9.224   5.924   7.481
 1379POPC   NC321467  42.675  22.205   9.457
 1379POPC   PO421468  42.257  22.728   9.601
 1379POPC   GL121469  42.278  22.525   9.186
 1379POPC   GL221470  42.327  22.170   9.076
 1379POPC   C1A21471  42.136  22.580   8.776
 1379POPC   D2A21472  42.422  22.621   8.413
 1379POPC   C3A21473  42.257  22.560   7.992
 1379POPC   C4A21474  42.369  22.199   7.757
 1379POPC   C1B21475  42.416  22.154   8.626
 1379POPC   C2B21476  42.334  21.953   8.199
 1379POPC   C3B21477  42.548  21.703   7.842
 1379POPC   C4B21478  42.568  21.613   7.377
 1380POPC   NC321479  43.944   9.436   9.393
 1380POPC   PO421480  43.736  10.071   9.498
 1380POPC   GL121481  43.802  10.027   9.095
 1380POPC   GL221482  44.097   9.847   9.081
 1380POPC   C1A21483  43.710   9.759   8.755
 1380POPC   D2A21484  43.892   9.836   8.378
 1380POPC   C3A21485  43.728   9.699   7.993
 1380POPC   C4A21486  43.981  10.045   7.844
 1380POPC   C1B21487  44.178   9.519   8.728
 1380POPC   C2B21488  44.092   9.359   8.289
 1380POPC   C3B21489  44.144   9.400   7.839
 1380POPC   C4B21490  44.314   9.529   7.424
 1381POPC   NC321491  12.158  16.577   9.409
 1381POPC   PO421492  11.587  17.026   9.487
 1381POPC   GL121493  11.802  16.866   9.124
 1381POPC   GL221494  12.184  16.940   9.055
 1381POPC   C1A21495  11.846  16.832   8.687
 1381POPC   D2A21496  11.922  16.609   8.354
 1381POPC   C3A21497  11.844  16.737   7.958
 1381POPC   C4A21498  11.759  16.433   7.624
 1381POPC   C1B21499  12.339  16.689   8.699
 1381POPC   C2B21500  12.378  16.443   8.325
 1381POPC   C3B21501  12.344  16.677   7.954
 1381POPC   C4B21502  12.332  16.530   7.548
 1382POPC   NC321503  12.148  19.434   9.563
 1382POPC   PO421504  11.852  20.099   9.504
 1382POPC   GL121505  12.057  20.017   9.127
 1382POPC   GL221506  12.189  19.706   9.140
 1382POPC   C1A21507  12.284  20.011   8.727
 1382POPC   D2A21508  12.308  20.251   8.346
 1382POPC   C3A21509  12.270  19.973   7.993
 1382POPC   C4A21510  12.195  20.054   7.589
 1382POPC   C1B21511  12.235  19.496   8.761
 1382POPC   C2B21512  12.145  19.660   8.375
 1382POPC   C3B21513  12.011  19.476   8.004
 1382POPC   C4B21514  11.941  19.599   7.594
 1383POPC   NC321515  10.139  37.803   9.560
 1383POPC   PO421516   9.492  37.749   9.414
 1383POPC   GL121517   9.733  37.808   9.068
 1383POPC   GL221518  10.069  37.632   9.070
 1383POPC   C1A21519   9.450  37.733   8.725
 1383POPC   D2A21520   9.312  37.553   8.340
 1383POPC   C3A21521   9.596  37.655   8.030
 1383POPC   C4A21522   9.577  37.875   7.641
 1383POPC   C1B21523   9.934  37.616   8.628
 1383POPC   C2B21524   9.999  37.889   8.281
 1383POPC   C3B21525  10.045  37.835   7.850
 1383POPC   C4B21526   9.990  37.609   7.465
 1384POPC   NC321527   9.693   0.648   9.434
 1384POPC   PO421528   9.390   0.070   9.316
 1384POPC   GL121529   9.631   0.352   9.033
 1384POPC   GL221530   9.971   0.322   9.150
 1384POPC   C1A21531   9.779   0.549   8.633
 1384POPC   D2A21532   9.628   0.564   8.186
 1384POPC   C3A21533   9.754   0.520   7.741
 1384POPC   C4A21534   9.805   0.162   7.425
 1384POPC   C1B21535  10.233   0.249   8.837
 1384POPC   C2B21536  10.275   0.374   8.451
 1384POPC   C3B21537  10.133   0.429   8.080
 1384POPC   C4B21538  10.215   0.273   7.700
 1385POPC   NC321539  23.694  32.025   9.546
 1385POPC   PO421540  24.014  32.524   9.371
 1385POPC   GL121541  23.734  32.315   9.047
 1385POPC   GL221542  23.775  31.956   9.047
 1385POPC   C1A21543  23.560  32.202   8.615
 1385POPC   D2A21544  23.417  32.129   8.186
 1385POPC   C3A21545  23.614  32.285   7.817
 1385POPC   C4A21546  23.572  32.347   7.357
 1385POPC   C1B21547  23.838  31.675   8.743
 1385POPC   C2B21548  23.791  31.801   8.345
 1385POPC   C3B21549  23.881  31.833   7.931
 1385POPC   C4B21550  23.801  31.928   7.500
 1386POPC   NC321551  23.140  28.616   9.613
 1386POPC   PO421552  23.729  28.265   9.478
 1386POPC   GL121553  23.768  28.381   9.094
 1386POPC   GL221554  23.487  28.627   9.096
 1386POPC   C1A21555  23.633  28.295   8.680
 1386POPC   D2A21556  23.345  28.375   8.347
 1386POPC   C3A21557  23.500  28.152   7.982
 1386POPC   C4A21558  23.843  28.225   7.683
 1386POPC   C1B21559  23.813  28.788   8.809
 1386POPC   C2B21560  23.742  28.813   8.403
 1386POPC   C3B21561  23.790  28.626   8.015
 1386POPC   C4B21562  23.485  28.609   7.701
 1387POPC   NC321563   9.361  27.073   9.693
 1387POPC   PO421564   8.833  26.667   9.670
 1387POPC   GL121565   9.072  26.859   9.311
 1387POPC   GL221566   8.791  27.012   9.124
 1387POPC   C1A21567   9.253  26.888   8.882
 1387POPC   D2A21568   8.986  27.012   8.558
 1387POPC   C3A21569   9.090  26.942   8.154
 1387POPC   C4A21570   8.880  27.016   7.768
 1387POPC   C1B21571   8.836  26.603   8.873
 1387POPC   C2B21572   8.882  26.492   8.441
 1387POPC   C3B21573   8.773  26.565   8.030
 1387POPC   C4B21574   8.922  26.529   7.630
 1388POPC   NC321575  33.469  10.726   9.399
 1388POPC   PO421576  34.095  10.476   9.586
 1388POPC   GL121577  33.901  10.555   9.199
 1388POPC   GL221578  33.904  10.934   9.183
 1388POPC   C1A21579  33.668  10.560   8.803
 1388POPC   D2A21580  33.436  10.325   8.523
 1388POPC   C3A21581  33.645  10.491   8.157
 1388POPC   C4A21582  33.730  10.458   7.748
 1388POPC   C1B21583  34.118  10.799   8.797
 1388POPC   C2B21584  34.113  10.613   8.382
 1388POPC   C3B21585  34.138  10.705   7.926
 1388POPC   C4B21586  34.033  10.727   7.444
 1389POPC   NC321587   2.193  21.703   9.522
 1389POPC   PO421588   1.792  21.202   9.694
 1389POPC   GL121589   1.952  21.233   9.273
 1389POPC   GL221590   1.801  21.541   9.155
 1389POPC   C1A21591   2.057  21.123   8.828
 1389POPC   D2A21592   2.247  21.191   8.390
 1389POPC   C3A21593   2.000  21.411   8.045
 1389POPC   C4A21594   2.075  21.315   7.623
 1389POPC   C1B21595   1.630  21.410   8.729
 1389POPC   C2B21596   1.447  21.480   8.349
 1389POPC   C3B21597   1.437  21.577   7.954
 1389POPC   C4B21598   1.648  21.578   7.615
 1390POPC   NC321599   4.878  41.755   9.476
 1390POPC   PO421600   5.177  41.152   9.420
 1390POPC   GL121601   5.101  41.452   9.143
 1390POPC   GL221602   5.352  41.710   9.240
 1390POPC   C1A21603   4.988  41.621   8.770
 1390POPC   D2A21604   4.863  41.410   8.369
 1390POPC   C3A21605   4.853  41.613   7.986
 1390POPC   C4A21606   4.842  41.632   7.523
 1390POPC   C1B21607   5.512  41.473   8.864
 1390POPC   C2B21608   5.317  41.249   8.558
 1390POPC   C3B21609   5.335  41.299   8.118
 1390POPC   C4B21610   5.319  41.633   7.809
 1391POPC   NC321611  13.333   8.402   9.712
 1391POPC   PO421612  12.833   8.029   9.596
 1391POPC   GL121613  12.736   8.088   9.179
 1391POPC   GL221614  12.665   8.449   9.213
 1391POPC   C1A21615  12.897   8.191   8.801
 1391POPC   D2A21616  13.051   8.417   8.454
 1391POPC   C3A21617  12.961   8.269   8.060
 1391POPC   C4A21618  12.784   8.133   7.699
 1391POPC   C1B21619  12.509   8.491   8.784
 1391POPC   C2B21620  12.549   8.288   8.388
 1391POPC   C3B21621  12.390   8.300   7.965
 1391POPC   C4B21622  12.387   8.395   7.508
 1392POPC   NC321623   7.275  32.656   9.357
 1392POPC   PO421624   7.178  32.008   9.413
 1392POPC   GL121625   7.382  32.222   9.066
 1392POPC   GL221626   7.695  32.420   9.179
 1392POPC   C1A21627   7.295  32.270   8.621
 1392POPC   D2A21628   7.562  32.178   8.298
 1392POPC   C3A21629   7.386  32.081   7.896
 1392POPC   C4A21630   7.671  32.107   7.567
 1392POPC   C1B21631   7.632  32.611   8.793
 1392POPC   C2B21632   7.591  32.710   8.363
 1392POPC   C3B21633   7.605  32.563   7.944
 1392POPC   C4B21634   7.283  32.523   7.662
 1393POPC   NC321635  36.925   0.315   9.519
 1393POPC   PO421636  36.611   0.860   9.276
 1393POPC   GL121637  36.711   0.487   9.081
 1393POPC   GL221638  37.070   0.514   9.070
 1393POPC   C1A21639  36.796   0.269   8.678
 1393POPC   D2A21640  36.855   0.303   8.228
 1393POPC   C3A21641  36.607   0.034   7.932
 1393POPC   C4A21642  36.609   0.034   7.434
 1393POPC   C1B21643  36.936   0.764   8.712
 1393POPC   C2B21644  37.054   0.833   8.286
 1393POPC   C3B21645  36.875   0.726   7.894
 1393POPC   C4B21646  36.943   0.346   7.714
 1394POPC   NC321647  26.587   4.122   9.618
 1394POPC   PO421648  27.135   4.502   9.657
 1394POPC   GL121649  27.018   4.419   9.220
 1394POPC   GL221650  26.964   4.078   9.252
 1394POPC   C1A21651  27.030   4.458   8.738
 1394POPC   D2A21652  26.766   4.465   8.329
 1394POPC   C3A21653  26.926   4.398   7.886
 1394POPC   C4A21654  26.875   4.251   7.431
 1394POPC   C1B21655  26.741   4.047   8.868
 1394POPC   C2B21656  26.479   4.071   8.518
 1394POPC   C3B21657  26.626   4.009   8.079
 1394POPC   C4B21658  26.546   3.935   7.637
 1395POPC   NC321659   5.310  20.340   9.528
 1395POPC   PO421660   4.877  20.913   9.566
 1395POPC   GL121661   4.966  20.632   9.215
 1395POPC   GL221662   5.328  20.703   9.154
 1395POPC   C1A21663   4.993  20.627   8.758
 1395POPC   D2A21664   5.271  20.847   8.478
 1395POPC   C3A21665   5.078  20.724   8.126
 1395POPC   C4A21666   5.001  20.742   7.725
 1395POPC   C1B21667   5.471  20.489   8.771
 1395POPC   C2B21668   5.300  20.343   8.370
 1395POPC   C3B21669   5.432  20.379   7.920
 1395POPC   C4B21670   5.326  20.136   7.545
 1396POPC   NC321671  32.810   1.500   9.275
 1396POPC   PO421672  33.364   1.159   9.459
 1396POPC   GL121673  33.158   1.175   9.067
 1396POPC   GL221674  33.336   1.466   9.009
 1396POPC   C1A21675  32.820   1.287   8.688
 1396POPC   D2A21676  32.685   1.434   8.265
 1396POPC   C3A21677  32.837   1.282   7.818
 1396POPC   C4A21678  32.829   1.451   7.356
 1396POPC   C1B21679  33.312   1.250   8.602
 1396POPC   C2B21680  33.199   1.288   8.205
 1396POPC   C3B21681  33.346   1.371   7.823
 1396POPC   C4B21682  33.240   1.143   7.461
 1397POPC   NC321683  37.862  43.210   9.515
 1397POPC   PO421684  37.529  42.706   9.200
 1397POPC   GL121685  37.649  43.026   8.982
 1397POPC   GL221686  37.698  43.320   9.053
 1397POPC   C1A21687  37.421  43.219   8.640
 1397POPC   D2A21688  37.546  42.892   8.339
 1397POPC   C3A21689  37.655  43.003   7.941
 1397POPC   C4A21690  37.469  42.845   7.652
 1397POPC   C1B21691  37.927  43.286   8.660
 1397POPC   C2B21692  37.770  43.361   8.277
 1397POPC   C3B21693  37.989  43.382   7.884
 1397POPC   C4B21694  37.820  43.501   7.490
 1398POPC   NC321695  29.153  12.535   9.386
 1398POPC   PO421696  28.889  13.224   9.472
 1398POPC   GL121697  29.077  12.960   9.109
 1398POPC   GL221698  28.945  12.618   8.941
 1398POPC   C1A21699  29.172  13.014   8.677
 1398POPC   D2A21700  29.328  13.141   8.269
 1398POPC   C3A21701  29.079  12.957   7.895
 1398POPC   C4A21702  28.840  13.064   7.522
 1398POPC   C1B21703  29.319  12.518   8.685
 1398POPC   C2B21704  29.250  12.631   8.274
 1398POPC   C3B21705  29.069  12.439   7.941
 1398POPC   C4B21706  29.324  12.220   7.705
 1399POPC   NC321707  14.271  29.703   9.484
 1399POPC   PO421708  14.887  29.903   9.513
 1399POPC   GL121709  14.695  29.675   9.173
 1399POPC   GL221710  14.389  29.841   9.026
 1399POPC   C1A21711  14.666  29.508   8.761
 1399POPC   D2A21712  14.439  29.719   8.437
 1399POPC   C3A21713  14.569  29.931   8.056
 1399POPC   C4A21714  14.491  29.760   7.659
 1399POPC   C1B21715  14.240  30.093   8.713
 1399POPC   C2B21716  14.322  30.377   8.434
 1399POPC   C3B21717  14.221  30.299   8.054
 1399POPC   C4B21718  14.107  30.007   7.829
 1400POPC   NC321719  42.995  27.992   9.628
 1400POPC   PO421720  42.855  27.430   9.486
 1400POPC   GL121721  43.145  27.648   9.209
 1400POPC   GL221722  43.301  27.340   9.153
 1400POPC   C1A21723  43.165  27.658   8.742
 1400POPC   D2A21724  42.831  27.601   8.414
 1400POPC   C3A21725  42.935  27.697   7.984
 1400POPC   C4A21726  43.079  27.944   7.604
 1400POPC   C1B21727  43.453  27.236   8.751
 1400POPC   C2B21728  43.586  27.456   8.366
 1400POPC   C3B21729  43.545  27.333   7.942
 1400POPC   C4B21730  43.202  27.417   7.677
 1401POPC   NC321731  14.547   7.515   9.390
 1401POPC   PO421732  15.034   7.089   9.344
 1401POPC   GL121733  14.643   7.163   9.013
 1401POPC   GL221734  14.318   7.097   9.183
 1401POPC   C1A21735  14.427   7.561   8.746
 1401POPC   D2A21736  14.135   7.607   8.343
 1401POPC   C3A21737  14.234   7.660   7.852
 1401POPC   C4A21738  14.513   7.589   7.447
 1401POPC   C1B21739  14.172   7.117   8.752
 1401POPC   C2B21740  14.539   7.155   8.470
 1401POPC   C3B21741  14.424   7.255   8.081
 1401POPC   C4B21742  14.253   7.036   7.726
 1402POPC   NC321743  42.355  32.366   9.349
 1402POPC   PO421744  42.178  31.949   9.845
 1402POPC   GL121745  42.267  31.876   9.315
 1402POPC   GL221746  42.609  31.943   9.194
 1402POPC   C1A21747  42.102  32.045   8.863
 1402POPC   D2A21748  42.235  32.296   8.504
 1402POPC   C3A21749  42.074  32.394   8.094
 1402POPC   C4A21750  42.156  32.570   7.665
 1402POPC   C1B21751  42.627  32.084   8.762
 1402POPC   C2B21752  42.763  32.292   8.390
 1402POPC   C3B21753  42.629  32.368   7.975
 1402POPC   C4B21754  42.727  32.003   7.742
 1403POPC   NC321755  15.530   0.405   9.531
 1403POPC   PO421756  15.965   0.846   9.523
 1403POPC   GL121757  16.177   0.710   9.163
 1403POPC   GL221758  15.943   0.445   9.050
 1403POPC   C1A21759  16.151   0.758   8.720
 1403POPC   D2A21760  15.870   0.569   8.439
 1403POPC   C3A21761  15.946   0.601   7.999
 1403POPC   C4A21762  16.018   0.500   7.583
 1403POPC   C1B21763  16.243   0.262   8.708
 1403POPC   C2B21764  16.146   0.158   8.250
 1403POPC   C3B21765  16.174   0.051   7.798
 1403POPC   C4B21766  16.407   0.193   7.442
 1404POPC   NC321767  17.241  42.835   9.828
 1404POPC   PO421768  17.853  43.062   9.661
 1404POPC   GL121769  17.590  43.012   9.251
 1404POPC   GL221770  17.507  43.355   9.083
 1404POPC   C1A21771  17.350  42.932   8.827
 1404POPC   D2A21772  17.276  43.227   8.448
 1404POPC   C3A21773  17.278  43.099   7.999
 1404POPC   C4A21774  17.103  43.178   7.565
 1404POPC   C1B21775  17.801  43.135   8.778
 1404POPC   C2B21776  17.712  42.965   8.364
 1404POPC   C3B21777  17.788  43.142   7.980
 1404POPC   C4B21778  17.612  43.299   7.608
 1405POPC   NC321779  37.339  44.599   9.725
 1405POPC   PO421780  37.942  44.604   9.579
 1405POPC   GL121781  37.638  44.646   9.259
 1405POPC   GL221782  37.778  44.929   9.078
 1405POPC   C1A21783  37.638  44.460   8.843
 1405POPC   D2A21784  37.599  44.212   8.467
 1405POPC   C3A21785  37.339  44.491   8.214
 1405POPC   C4A21786  37.308  44.460   7.766
 1405POPC   C1B21787  37.993  44.806   8.701
 1405POPC   C2B21788  37.814  44.664   8.326
 1405POPC   C3B21789  37.692  44.825   7.924
 1405POPC   C4B21790  37.931   0.020   7.595
 1406POPC   NC321791   2.253  36.112   9.413
 1406POPC   PO421792   2.854  36.307   9.379
 1406POPC   GL121793   2.544  36.351   9.055
 1406POPC   GL221794   2.579  35.980   9.042
 1406POPC   C1A21795   2.544  36.237   8.609
 1406POPC   D2A21796   2.969  36.114   8.454
 1406POPC   C3A21797   2.969  36.156   8.023
 1406POPC   C4A21798   3.295  36.035   7.684
 1406POPC   C1B21799   2.683  35.738   8.666
 1406POPC   C2B21800   2.594  35.845   8.219
 1406POPC   C3B21801   2.515  36.058   7.796
 1406POPC   C4B21802   2.508  36.157   7.330
 1407POPC   NC321803  24.733   5.430   9.524
 1407POPC   PO421804  24.093   5.230   9.754
 1407POPC   GL121805  24.304   5.147   9.286
 1407POPC   GL221806  24.583   5.007   9.244
 1407POPC   C1A21807  24.215   5.160   8.823
 1407POPC   D2A21808  24.169   5.300   8.403
 1407POPC   C3A21809  24.457   5.189   8.088
 1407POPC   C4A21810  24.439   5.368   7.667
 1407POPC   C1B21811  24.711   5.070   8.797
 1407POPC   C2B21812  24.858   4.921   8.414
 1407POPC   C3B21813  24.822   4.817   8.013
 1407POPC   C4B21814  24.715   4.957   7.666
 1408POPC   NC321815  42.552  42.076   9.604
 1408POPC   PO421816  41.979  42.407   9.550
 1408POPC   GL121817  42.220  42.399   9.166
 1408POPC   GL221818  42.593  42.357   9.181
 1408POPC   C1A21819  42.325  42.610   8.785
 1408POPC   D2A21820  42.489  42.513   8.395
 1408POPC   C3A21821  42.198  42.546   8.052
 1408POPC   C4A21822  42.113  42.291   7.688
 1408POPC   C1B21823  42.643  42.178   8.779
 1408POPC   C2B21824  42.786  42.069   8.372
 1408POPC   C3B21825  42.646  42.231   7.983
 1408POPC   C4B21826  42.613  42.299   7.539
 1409POPC   NC321827  32.060  16.921   9.442
 1409POPC   PO421828  32.527  16.449   9.693
 1409POPC   GL121829  32.382  16.510   9.251
 1409POPC   GL221830  32.404  16.853   9.067
 1409POPC   C1A21831  32.236  16.414   8.835
 1409POPC   D2A21832  32.365  16.740   8.559
 1409POPC   C3A21833  32.302  16.729   8.144
 1409POPC   C4A21834  32.379  16.746   7.690
 1409POPC   C1B21835  32.029  17.023   8.792
 1409POPC   C2B21836  31.924  17.034   8.332
 1409POPC   C3B21837  32.080  17.098   7.878
 1409POPC   C4B21838  32.036  17.040   7.410
 1410POPC   NC321839   0.317  11.507   9.512
 1410POPC   PO421840   0.910  11.287   9.626
 1410POPC   GL121841   0.719  11.430   9.218
 1410POPC   GL221842   0.805  11.784   9.197
 1410POPC   C1A21843   0.432  11.258   8.882
 1410POPC   D2A21844   0.174  11.188   8.512
 1410POPC   C3A21845   0.365  11.025   8.134
 1410POPC   C4A21846   0.317  10.837   7.758
 1410POPC   C1B21847   0.727  11.787   8.757
 1410POPC   C2B21848   0.531  11.558   8.422
 1410POPC   C3B21849   0.214  11.494   8.090
 1410POPC   C4B21850   0.465  11.360   7.709
 1411POPC   NC321851   7.642   1.486   9.424
 1411POPC   PO421852   7.307   0.827   9.536
 1411POPC   GL121853   7.271   0.896   9.138
 1411POPC   GL221854   7.192   1.237   9.156
 1411POPC   C1A21855   7.168   0.886   8.744
 1411POPC   D2A21856   7.198   1.105   8.389
 1411POPC   C3A21857   7.457   0.939   8.086
 1411POPC   C4A21858   7.452   1.124   7.707
 1411POPC   C1B21859   7.334   1.434   8.785
 1411POPC   C2B21860   7.262   1.638   8.409
 1411POPC   C3B21861   7.116   1.471   7.999
 1411POPC   C4B21862   7.093   1.455   7.535
 1412POPC   NC321863  43.222  31.176   9.440
 1412POPC   PO421864  42.807  31.695   9.598
 1412POPC   GL121865  43.014  31.598   9.204
 1412POPC   GL221866  42.910  31.255   9.059
 1412POPC   C1A21867  42.949  31.686   8.781
 1412POPC   D2A21868  42.737  31.753   8.375
 1412POPC   C3A21869  42.886  31.598   7.976
 1412POPC   C4A21870  42.885  31.577   7.488
 1412POPC   C1B21871  43.227  31.256   8.742
 1412POPC   C2B21872  43.158  31.419   8.371
 1412POPC   C3B21873  43.394  31.500   8.040
 1412POPC   C4B21874  43.291  31.299   7.655
 1413POPC   NC321875  14.899  28.703   9.651
 1413POPC   PO421876  14.498  29.224   9.475
 1413POPC   GL121877  14.261  29.339   9.097
 1413POPC   GL221878  14.176  28.997   9.042
 1413POPC   C1A21879  14.222  29.264   8.632
 1413POPC   D2A21880  14.532  29.182   8.373
 1413POPC   C3A21881  14.652  29.442   8.034
 1413POPC   C4A21882  14.672  29.285   7.609
 1413POPC   C1B21883  14.038  28.768   8.695
 1413POPC   C2B21884  14.086  28.875   8.267
 1413POPC   C3B21885  14.282  29.100   7.917
 1413POPC   C4B21886  14.215  29.059   7.476
 1414POPC   NC321887  25.295   9.650   9.594
 1414POPC   PO421888  24.824   9.935   9.310
 1414POPC   GL121889  25.175   9.730   9.068
 1414POPC   GL221890  25.531   9.708   9.146
 1414POPC   C1A21891  25.331   9.668   8.633
 1414POPC   D2A21892  25.307   9.889   8.218
 1414POPC   C3A21893  25.323   9.576   7.890
 1414POPC   C4A21894  25.278   9.301   7.485
 1414POPC   C1B21895  25.808   9.756   8.842
 1414POPC   C2B21896  25.761   9.899   8.464
 1414POPC   C3B21897  25.792   9.826   8.063
 1414POPC   C4B21898  25.572   9.986   7.717
 1415POPC   NC321899  16.621   9.192   9.502
 1415POPC   PO421900  16.777   8.620   9.564
 1415POPC   GL121901  16.657   8.810   9.179
 1415POPC   GL221902  17.014   8.914   9.198
 1415POPC   C1A21903  16.687   8.956   8.765
 1415POPC   D2A21904  16.680   9.330   8.507
 1415POPC   C3A21905  16.820   9.251   8.103
 1415POPC   C4A21906  16.628   9.131   7.721
 1415POPC   C1B21907  17.196   8.777   8.810
 1415POPC   C2B21908  17.043   8.835   8.418
 1415POPC   C3B21909  17.206   8.894   8.050
 1415POPC   C4B21910  17.184   9.156   7.746
 1416POPC   NC321911  27.874  14.597   9.290
 1416POPC   PO421912  28.324  14.282   9.780
 1416POPC   GL121913  28.292  14.284   9.322
 1416POPC   GL221914  28.453  14.581   9.275
 1416POPC   C1A21915  28.331  14.122   8.876
 1416POPC   D2A21916  28.609  14.023   8.471
 1416POPC   C3A21917  28.502  14.184   8.054
 1416POPC   C4A21918  28.172  14.138   7.749
 1416POPC   C1B21919  28.344  14.647   8.829
 1416POPC   C2B21920  28.224  14.405   8.451
 1416POPC   C3B21921  28.138  14.556   8.034
 1416POPC   C4B21922  28.488  14.637   7.750
 1417POPC   NC321923  16.647  20.844   9.503
 1417POPC   PO421924  17.085  20.454   9.723
 1417POPC   GL121925  17.015  20.528   9.264
 1417POPC   GL221926  16.648  20.529   9.110
 1417POPC   C1A21927  17.040  20.645   8.823
 1417POPC   D2A21928  16.747  20.480   8.491
 1417POPC   C3A21929  16.795  20.661   8.086
 1417POPC   C4A21930  17.067  20.578   7.768
 1417POPC   C1B21931  16.441  20.218   8.829
 1417POPC   C2B21932  16.282  20.243   8.396
 1417POPC   C3B21933  16.229  20.054   7.995
 1417POPC   C4B21934  16.492  20.340   7.788
 1418POPC   NC321935  32.445  15.437   9.619
 1418POPC   PO421936  32.172  14.852   9.496
 1418POPC   GL121937  32.117  14.991   9.132
 1418POPC   GL221938  32.110  15.336   9.249
 1418POPC   C1A21939  32.336  14.983   8.771
 1418POPC   D2A21940  32.146  15.039   8.436
 1418POPC   C3A21941  32.288  14.874   8.092
 1418POPC   C4A21942  32.252  15.023   7.711
 1418POPC   C1B21943  32.273  15.473   8.870
 1418POPC   C2B21944  32.067  15.557   8.477
 1418POPC   C3B21945  32.188  15.396   8.068
 1418POPC   C4B21946  32.559  15.503   7.853
 1419POPC   NC321947  14.308  37.698   9.585
 1419POPC   PO421948  13.935  37.825   9.124
 1419POPC   GL121949  14.388  37.866   9.075
 1419POPC   GL221950  14.554  37.540   9.146
 1419POPC   C1A21951  14.511  37.915   8.648
 1419POPC   D2A21952  14.195  37.891   8.329
 1419POPC   C3A21953  14.360  37.819   7.947
 1419POPC   C4A21954  14.666  37.889   7.662
 1419POPC   C1B21955  14.368  37.439   8.723
 1419POPC   C2B21956  14.561  37.498   8.295
 1419POPC   C3B21957  14.604  37.386   7.831
 1419POPC   C4B21958  14.247  37.405   7.541
 1420POPC   NC321959   6.187  30.174   9.509
 1420POPC   PO421960   6.592  30.733   9.517
 1420POPC   GL121961   6.602  30.544   9.154
 1420POPC   GL221962   6.293  30.433   9.088
 1420POPC   C1A21963   6.657  30.554   8.723
 1420POPC   D2A21964   6.749  30.903   8.477
 1420POPC   C3A21965   6.619  31.000   8.056
 1420POPC   C4A21966   6.913  30.792   7.794
 1420POPC   C1B21967   6.140  30.493   8.662
 1420POPC   C2B21968   6.370  30.563   8.260
 1420POPC   C3B21969   6.362  30.589   7.793
 1420POPC   C4B21970   6.430  30.496   7.316
 1421POPC   NC321971  34.605   6.071   9.495
 1421POPC   PO421972  34.903   5.510   9.219
 1421POPC   GL121973  34.633   5.802   9.076
 1421POPC   GL221974  34.306   5.681   9.087
 1421POPC   C1A21975  34.519   5.958   8.694
 1421POPC   D2A21976  34.784   5.779   8.373
 1421POPC   C3A21977  34.620   5.899   7.989
 1421POPC   C4A21978  34.448   6.233   7.824
 1421POPC   C1B21979  34.425   5.419   8.744
 1421POPC   C2B21980  34.322   5.230   8.369
 1421POPC   C3B21981  34.393   5.435   8.005
 1421POPC   C4B21982  34.176   5.699   7.760
 1422POPC   NC321983  41.738  16.408   9.426
 1422POPC   PO421984  41.885  17.016   9.390
 1422POPC   GL121985  41.826  16.741   9.022
 1422POPC   GL221986  41.555  16.484   8.958
 1422POPC   C1A21987  41.756  16.755   8.581
 1422POPC   D2A21988  41.496  16.457   8.380
 1422POPC   C3A21989  41.431  16.533   7.940
 1422POPC   C4A21990  41.436  16.818   7.576
 1422POPC   C1B21991  41.883  16.264   8.708
 1422POPC   C2B21992  41.917  16.176   8.257
 1422POPC   C3B21993  41.947  16.411   7.833
 1422POPC   C4B21994  41.909  16.672   7.422
 1423POPC   NC321995  24.381  27.348   9.584
 1423POPC   PO421996  24.205  26.643   9.540
 1423POPC   GL121997  24.391  26.937   9.274
 1423POPC   GL221998  24.742  26.885   9.267
 1423POPC   C1A21999  24.358  26.928   8.847
 1423POPC   D2A22000  24.288  26.652   8.496
 1423POPC   C3A22001  24.186  26.790   8.053
 1423POPC   C4A22002  24.306  26.651   7.606
 1423POPC   C1B22003  24.828  26.736   8.844
 1423POPC   C2B22004  24.753  26.838   8.408
 1423POPC   C3B22005  24.709  26.721   7.983
 1423POPC   C4B22006  24.958  26.898   7.657
 1424POPC   NC322007   2.773   7.818   9.459
 1424POPC   PO422008   2.515   7.185   9.546
 1424POPC   GL122009   2.643   7.405   9.156
 1424POPC   GL222010   3.013   7.444   9.132
 1424POPC   C1A22011   2.648   7.590   8.733
 1424POPC   D2A22012   2.793   7.503   8.304
 1424POPC   C3A22013   2.471   7.543   7.982
 1424POPC   C4A22014   2.436   7.502   7.531
 1424POPC   C1B22015   3.058   7.260   8.716
 1424POPC   C2B22016   3.112   7.073   8.291
 1424POPC   C3B22017   3.082   7.070   7.836
 1424POPC   C4B22018   2.762   7.119   7.501
 1425POPC   NC322019   1.620  40.029   9.615
 1425POPC   PO422020   2.253  40.113   9.562
 1425POPC   GL122021   1.938  40.101   9.223
 1425POPC   GL222022   1.754  39.790   9.159
 1425POPC   C1A22023   1.794  40.240   8.840
 1425POPC   D2A22024   1.916  40.025   8.474
 1425POPC   C3A22025   1.881  40.189   8.068
 1425POPC   C4A22026   2.081  40.160   7.675
 1425POPC   C1B22027   1.786  39.569   8.730
 1425POPC   C2B22028   1.918  39.542   8.287
 1425POPC   C3B22029   1.949  39.693   7.866
 1425POPC   C4B22030   2.247  39.504   7.651
 1426POPC   NC322031   2.450  29.424   9.866
 1426POPC   PO422032   2.943  29.592   9.407
 1426POPC   GL122033   2.865  29.240   9.186
 1426POPC   GL222034   3.211  29.217   9.119
 1426POPC   C1A22035   2.870  29.035   8.779
 1426POPC   D2A22036   2.786  29.131   8.347
 1426POPC   C3A22037   2.603  28.994   7.943
 1426POPC   C4A22038   2.207  29.024   7.670
 1426POPC   C1B22039   3.274  29.419   8.712
 1426POPC   C2B22040   3.056  29.568   8.332
 1426POPC   C3B22041   2.961  29.444   7.946
 1426POPC   C4B22042   2.990  29.135   7.649
 1427POPC   NC322043  43.466  42.412   9.381
 1427POPC   PO422044  42.983  41.928   9.517
 1427POPC   GL122045  43.098  42.158   9.130
 1427POPC   GL222046  43.463  42.071   9.007
 1427POPC   C1A22047  43.105  42.376   8.716
 1427POPC   D2A22048  43.246  42.762   8.509
 1427POPC   C3A22049  43.331  42.741   8.058
 1427POPC   C4A22050  43.075  42.466   7.792
 1427POPC   C1B22051  43.612  42.365   8.718
 1427POPC   C2B22052  43.526  42.359   8.311
 1427POPC   C3B22053  43.629  42.328   7.900
 1427POPC   C4B22054  43.487  42.080   7.581
 1428POPC   NC322055  44.686  25.671   9.617
 1428POPC   PO422056  44.721  26.377   9.651
 1428POPC   GL122057  44.785  26.074   9.284
 1428POPC   GL222058  44.457  25.932   9.230
 1428POPC   C1A22059  44.669  26.121   8.822
 1428POPC   D2A22060  44.811  26.197   8.399
 1428POPC   C3A22061  44.691  26.019   7.992
 1428POPC   C4A22062  44.478  26.306   7.702
 1428POPC   C1B22063  44.434  25.677   8.823
 1428POPC   C2B22064  44.575  25.693   8.404
 1428POPC   C3B22065  44.345  25.636   8.033
 1428POPC   C4B22066  44.450  25.609   7.597
 1429POPC   NC322067  21.960  37.244   9.662
 1429POPC   PO422068  21.976  36.578   9.609
 1429POPC   GL122069  22.026  36.775   9.215
 1429POPC   GL222070  21.756  36.864   8.989
 1429POPC   C1A22071  22.245  36.832   8.817
 1429POPC   D2A22072  22.156  36.661   8.419
 1429POPC   C3A22073  22.139  36.936   8.109
 1429POPC   C4A22074  22.493  36.974   7.855
 1429POPC   C1B22075  21.877  37.121   8.607
 1429POPC   C2B22076  21.961  37.405   8.277
 1429POPC   C3B22077  21.953  37.320   7.834
 1429POPC   C4B22078  21.931  36.873   7.609
 1430POPC   NC322079  39.326   4.846   9.546
 1430POPC   PO422080  38.756   5.085   9.479
 1430POPC   GL122081  38.982   5.258   9.107
 1430POPC   GL222082  39.355   5.154   9.104
 1430POPC   C1A22083  39.129   5.212   8.655
 1430POPC   D2A22084  39.183   4.971   8.267
 1430POPC   C3A22085  38.943   5.128   7.959
 1430POPC   C4A22086  39.012   5.454   7.644
 1430POPC   C1B22087  39.633   5.101   8.701
 1430POPC   C2B22088  39.682   5.094   8.225
 1430POPC   C3B22089  39.435   5.238   7.854
 1430POPC   C4B22090  39.579   5.515   7.537
 1431POPC   NC322091   2.769  10.274   9.371
 1431POPC   PO422092   2.247  10.622   9.186
 1431POPC   GL122093   2.664  10.679   9.005
 1431POPC   GL222094   2.954  10.840   9.130
 1431POPC   C1A22095   2.857  10.432   8.675
 1431POPC   D2A22096   2.953  10.084   8.374
 1431POPC   C3A22097   2.778  10.174   7.991
 1431POPC   C4A22098   2.769  10.541   7.759
 1431POPC   C1B22099   3.213  10.803   8.759
 1431POPC   C2B22100   3.226  11.013   8.335
 1431POPC   C3B22101   3.081  10.939   7.896
 1431POPC   C4B22102   3.218  10.673   7.524
 1432POPC   NC322103  44.051  12.316   9.453
 1432POPC   PO422104  43.341  12.249   9.422
 1432POPC   GL122105  43.713  12.036   9.184
 1432POPC   GL222106  43.777  11.676   9.181
 1432POPC   C1A22107  44.067  12.059   8.865
 1432POPC   D2A22108  44.143  12.136   8.423
 1432POPC   C3A22109  43.963  11.925   8.041
 1432POPC   C4A22110  43.997  12.088   7.628
 1432POPC   C1B22111  43.664  11.775   8.749
 1432POPC   C2B22112  43.504  11.811   8.342
 1432POPC   C3B22113  43.504  11.667   7.940
 1432POPC   C4B22114  43.729  11.660   7.612
 1433POPC   NC322115  40.174  29.227   9.347
 1433POPC   PO422116  39.749  28.757   9.475
 1433POPC   GL122117  39.819  28.903   9.065
 1433POPC   GL222118  39.768  29.255   9.025
 1433POPC   C1A22119  39.806  28.997   8.608
 1433POPC   D2A22120  39.665  29.034   8.194
 1433POPC   C3A22121  40.043  29.124   7.953
 1433POPC   C4A22122  40.067  28.969   7.557
 1433POPC   C1B22123  39.615  29.534   8.704
 1433POPC   C2B22124  39.498  29.521   8.244
 1433POPC   C3B22125  39.639  29.394   7.817
 1433POPC   C4B22126  39.703  29.400   7.331
 1434POPC   NC322127  32.339  12.401   9.465
 1434POPC   PO422128  32.100  13.022   9.762
 1434POPC   GL122129  32.163  12.909   9.298
 1434POPC   GL222130  32.513  12.777   9.168
 1434POPC   C1A22131  32.012  12.839   8.856
 1434POPC   D2A22132  31.990  12.543   8.489
 1434POPC   C3A22133  31.975  12.765   8.099
 1434POPC   C4A22134  31.950  13.009   7.727
 1434POPC   C1B22135  32.479  12.619   8.725
 1434POPC   C2B22136  32.429  12.861   8.324
 1434POPC   C3B22137  32.446  12.956   7.855
 1434POPC   C4B22138  32.689  12.734   7.550
 1435POPC   NC322139  38.983  24.036   9.462
 1435POPC   PO422140  39.511  23.655   9.565
 1435POPC   GL122141  39.331  23.790   9.167
 1435POPC   GL222142  39.118  23.491   9.257
 1435POPC   C1A22143  39.341  24.058   8.750
 1435POPC   D2A22144  39.237  24.157   8.282
 1435POPC   C3A22145  39.455  24.021   7.899
 1435POPC   C4A22146  39.194  23.818   7.583
 1435POPC   C1B22147  39.170  23.399   8.836
 1435POPC   C2B22148  39.201  23.643   8.464
 1435POPC   C3B22149  39.084  23.622   8.046
 1435POPC   C4B22150  39.095  23.318   7.715
 1436POPC   NC322151   8.078  17.596   9.574
 1436POPC   PO422152   8.365  17.059   9.578
 1436POPC   GL122153   8.239  17.266   9.154
 1436POPC   GL222154   8.350  17.625   9.146
 1436POPC   C1A22155   7.963  17.489   8.802
 1436POPC   D2A22156   7.887  17.751   8.410
 1436POPC   C3A22157   7.914  17.624   7.967
 1436POPC   C4A22158   8.082  17.346   7.668
 1436POPC   C1B22159   8.428  17.798   8.761
 1436POPC   C2B22160   8.441  17.713   8.358
 1436POPC   C3B22161   8.494  17.473   8.003
 1436POPC   C4B22162   8.391  17.733   7.720
 1437POPC   NC322163  18.480  17.961   9.266
 1437POPC   PO422164  17.940  17.943   9.681
 1437POPC   GL122165  17.962  18.051   9.217
 1437POPC   GL222166  18.147  18.377   9.181
 1437POPC   C1A22167  18.099  18.081   8.738
 1437POPC   D2A22168  18.360  18.247   8.357
 1437POPC   C3A22169  18.101  18.195   7.963
 1437POPC   C4A22170  17.941  17.812   7.753
 1437POPC   C1B22171  18.263  18.583   8.770
 1437POPC   C2B22172  18.621  18.735   8.530
 1437POPC   C3B22173  18.630  18.649   8.101
 1437POPC   C4B22174  18.519  18.409   7.731
 1438POPC   NC322175  26.821  25.585   9.474
 1438POPC   PO422176  26.869  24.908   9.544
 1438POPC   GL122177  26.791  25.149   9.201
 1438POPC   GL222178  27.079  25.151   9.066
 1438POPC   C1A22179  26.670  25.141   8.775
 1438POPC   D2A22180  26.819  25.281   8.402
 1438POPC   C3A22181  26.588  25.224   8.036
 1438POPC   C4A22182  26.807  25.293   7.669
 1438POPC   C1B22183  27.202  25.346   8.736
 1438POPC   C2B22184  27.208  25.630   8.416
 1438POPC   C3B22185  27.142  25.401   8.040
 1438POPC   C4B22186  27.342  25.425   7.675
 1439POPC   NC322187  24.011  25.051   9.460
 1439POPC   PO422188  23.603  25.568   9.365
 1439POPC   GL122189  23.803  25.285   9.050
 1439POPC   GL222190  24.094  25.137   8.924
 1439POPC   C1A22191  23.681  25.094   8.644
 1439POPC   D2A22192  23.880  25.115   8.240
 1439POPC   C3A22193  23.609  25.303   7.953
 1439POPC   C4A22194  23.283  25.046   7.809
 1439POPC   C1B22195  23.941  25.528   8.637
 1439POPC   C2B22196  24.006  25.617   8.234
 1439POPC   C3B22197  24.114  25.374   7.865
 1439POPC   C4B22198  24.127  25.378   7.412
 1440POPC   NC322199  28.349  30.934   9.387
 1440POPC   PO422200  27.985  30.411   9.601
 1440POPC   GL122201  28.111  30.411   9.113
 1440POPC   GL222202  28.357  30.702   8.951
 1440POPC   C1A22203  28.327  30.296   8.682
 1440POPC   D2A22204  28.571  30.618   8.433
 1440POPC   C3A22205  28.505  30.642   7.985
 1440POPC   C4A22206  28.604  30.368   7.642
 1440POPC   C1B22207  28.367  31.073   8.673
 1440POPC   C2B22208  28.271  31.263   8.264
 1440POPC   C3B22209  28.536  31.134   7.932
 1440POPC   C4B22210  28.458  30.894   7.535
 1441POPC   NC322211   7.399  25.532   9.510
 1441POPC   PO422212   7.283  24.828   9.557
 1441POPC   GL122213   7.399  25.112   9.226
 1441POPC   GL222214   7.135  25.353   9.109
 1441POPC   C1A22215   7.514  25.206   8.816
 1441POPC   D2A22216   7.387  25.064   8.443
 1441POPC   C3A22217   7.477  25.198   8.075
 1441POPC   C4A22218   7.561  24.933   7.816
 1441POPC   C1B22219   6.985  25.288   8.687
 1441POPC   C2B22220   7.081  25.466   8.263
 1441POPC   C3B22221   7.045  25.335   7.802
 1441POPC   C4B22222   7.080  25.442   7.351
 1442POPC   NC322223  33.501  17.355   9.403
 1442POPC   PO422224  33.003  17.753   9.500
 1442POPC   GL122225  33.110  17.613   9.113
 1442POPC   GL222226  33.094  17.259   9.121
 1442POPC   C1A22227  32.940  17.510   8.705
 1442POPC   D2A22228  32.966  17.270   8.348
 1442POPC   C3A22229  33.033  17.504   7.984
 1442POPC   C4A22230  32.749  17.686   7.712
 1442POPC   C1B22231  33.332  17.182   8.748
 1442POPC   C2B22232  33.373  16.958   8.365
 1442POPC   C3B22233  33.291  17.075   7.970
 1442POPC   C4B22234  33.488  17.351   7.735
 1443POPC   NC322235  31.013   6.542   9.398
 1443POPC   PO422236  30.415   6.856   9.434
 1443POPC   GL122237  30.700   6.788   9.066
 1443POPC   GL222238  30.816   6.437   8.947
 1443POPC   C1A22239  30.872   6.851   8.660
 1443POPC   D2A22240  31.045   6.589   8.349
 1443POPC   C3A22241  30.775   6.569   8.002
 1443POPC   C4A22242  30.928   6.677   7.601
 1443POPC   C1B22243  30.459   6.253   8.748
 1443POPC   C2B22244  30.267   6.248   8.347
 1443POPC   C3B22245  30.392   6.174   7.913
 1443POPC   C4B22246  30.756   6.210   7.631
 1444POPC   NC322247   3.279  24.607   9.352
 1444POPC   PO422248   3.782  24.276   9.670
 1444POPC   GL122249   3.688  24.276   9.191
 1444POPC   GL222250   3.657  24.558   8.939
 1444POPC   C1A22251   3.387  24.149   8.820
 1444POPC   D2A22252   3.442  24.024   8.381
 1444POPC   C3A22253   3.419  24.393   8.087
 1444POPC   C4A22254   3.469  24.430   7.639
 1444POPC   C1B22255   3.991  24.848   8.796
 1444POPC   C2B22256   3.999  24.967   8.405
 1444POPC   C3B22257   3.685  25.147   8.170
 1444POPC   C4B22258   3.601  24.862   7.862
 1445POPC   NC322259  20.891  40.345   9.592
 1445POPC   PO422260  20.607  39.787   9.352
 1445POPC   GL122261  20.598  39.827   8.975
 1445POPC   GL222262  20.285  39.660   8.956
 1445POPC   C1A22263  20.767  39.993   8.620
 1445POPC   D2A22264  20.493  40.076   8.285
 1445POPC   C3A22265  20.629  40.006   7.887
 1445POPC   C4A22266  20.967  40.278   7.739
 1445POPC   C1B22267  20.404  39.622   8.528
 1445POPC   C2B22268  20.228  39.659   8.112
 1445POPC   C3B22269  20.310  39.623   7.675
 1445POPC   C4B22270  20.268  39.893   7.313
 1446POPC   NC322271  20.407  37.072   9.659
 1446POPC   PO422272  20.986  36.698   9.537
 1446POPC   GL122273  20.745  36.963   9.234
 1446POPC   GL222274  20.637  36.656   9.156
 1446POPC   C1A22275  20.514  37.005   8.808
 1446POPC   D2A22276  20.427  36.736   8.424
 1446POPC   C3A22277  20.303  36.920   8.078
 1446POPC   C4A22278  20.667  37.057   7.918
 1446POPC   C1B22279  20.547  36.411   8.797
 1446POPC   C2B22280  20.752  36.320   8.431
 1446POPC   C3B22281  20.773  36.565   8.052
 1446POPC   C4B22282  20.400  36.534   7.776
 1447POPC   NC322283   5.767  27.962   9.541
 1447POPC   PO422284   5.961  28.654   9.392
 1447POPC   GL122285   5.777  28.319   9.178
 1447POPC   GL222286   6.080  28.311   9.011
 1447POPC   C1A22287   5.596  28.145   8.791
 1447POPC   D2A22288   5.578  28.403   8.415
 1447POPC   C3A22289   5.729  28.245   8.040
 1447POPC   C4A22290   5.665  28.489   7.687
 1447POPC   C1B22291   6.323  28.431   8.673
 1447POPC   C2B22292   6.234  28.372   8.251
 1447POPC   C3B22293   6.118  28.550   7.891
 1447POPC   C4B22294   6.167  28.546   7.430
 1448POPC   NC322295  10.023  38.578   9.518
 1448POPC   PO422296   9.417  38.423   9.641
 1448POPC   GL122297   9.560  38.429   9.216
 1448POPC   GL222298   9.678  38.783   9.208
 1448POPC   C1A22299   9.514  38.253   8.783
 1448POPC   D2A22300   9.500  38.071   8.357
 1448POPC   C3A22301   9.680  38.228   7.985
 1448POPC   C4A22302   9.540  38.413   7.602
 1448POPC   C1B22303   9.899  38.599   8.827
 1448POPC   C2B22304   9.919  38.439   8.387
 1448POPC   C3B22305   9.909  38.687   7.973
 1448POPC   C4B22306  10.020  38.653   7.509
 1449POPC   NC322307  27.410  22.073   9.520
 1449POPC   PO422308  27.666  22.635   9.414
 1449POPC   GL122309  27.702  22.241   9.123
 1449POPC   GL222310  27.747  21.841   9.226
 1449POPC   C1A22311  27.564  22.140   8.692
 1449POPC   D2A22312  27.350  22.341   8.320
 1449POPC   C3A22313  27.508  22.394   7.905
 1449POPC   C4A22314  27.440  22.373   7.467
 1449POPC   C1B22315  27.816  21.669   8.825
 1449POPC   C2B22316  27.772  21.732   8.377
 1449POPC   C3B22317  27.511  21.908   8.068
 1449POPC   C4B22318  27.496  21.901   7.632
 1450POPC   NC322319  41.968  23.331   9.579
 1450POPC   PO422320  41.489  23.785   9.507
 1450POPC   GL122321  41.635  23.873   9.139
 1450POPC   GL222322  41.869  24.157   9.173
 1450POPC   C1A22323  41.399  23.762   8.784
 1450POPC   D2A22324  41.252  23.831   8.372
 1450POPC   C3A22325  41.297  23.567   8.094
 1450POPC   C4A22326  41.407  23.690   7.710
 1450POPC   C1B22327  41.704  24.167   8.740
 1450POPC   C2B22328  41.743  23.881   8.404
 1450POPC   C3B22329  41.777  23.716   8.042
 1450POPC   C4B22330  41.790  24.024   7.641
 1451POPC   NC322331  43.678  20.994   9.462
 1451POPC   PO422332  44.038  20.492   9.467
 1451POPC   GL122333  43.870  20.693   9.074
 1451POPC   GL222334  44.017  21.014   8.968
 1451POPC   C1A22335  44.040  20.538   8.685
 1451POPC   D2A22336  44.249  20.294   8.359
 1451POPC   C3A22337  44.031  20.299   7.944
 1451POPC   C4A22338  43.943  20.515   7.549
 1451POPC   C1B22339  43.980  21.007   8.513
 1451POPC   C2B22340  43.762  20.688   8.275
 1451POPC   C3B22341  43.538  20.524   7.928
 1451POPC   C4B22342  43.415  20.491   7.509
 1452POPC   NC322343  21.581  36.510   9.382
 1452POPC   PO422344  21.610  37.222   9.352
 1452POPC   GL122345  21.318  37.123   9.035
 1452POPC   GL222346  21.244  36.799   9.115
 1452POPC   C1A22347  21.368  36.965   8.639
 1452POPC   D2A22348  21.648  36.769   8.368
 1452POPC   C3A22349  21.625  36.948   7.993
 1452POPC   C4A22350  21.473  37.218   7.689
 1452POPC   C1B22351  20.951  36.723   8.786
 1452POPC   C2B22352  20.878  36.967   8.422
 1452POPC   C3B22353  21.136  37.016   8.100
 1452POPC   C4B22354  21.149  36.825   7.731
 1453POPC   NC322355  40.153  11.578   9.503
 1453POPC   PO422356  40.305  10.893   9.473
 1453POPC   GL122357  40.097  11.158   9.148
 1453POPC   GL222358  39.931  11.542   9.065
 1453POPC   C1A22359  39.801  11.131   8.824
 1453POPC   D2A22360  39.772  11.436   8.527
 1453POPC   C3A22361  39.852  11.299   8.118
 1453POPC   C4A22362  39.651  11.177   7.736
 1453POPC   C1B22363  40.312  11.459   8.817
 1453POPC   C2B22364  40.277  11.292   8.429
 1453POPC   C3B22365  40.328  11.481   8.052
 1453POPC   C4B22366  40.175  11.283   7.718
 1454POPC   NC322367  31.082  16.724   9.498
 1454POPC   PO422368  30.410  16.486   9.553
 1454POPC   GL122369  30.425  16.526   9.134
 1454POPC   GL222370  30.764  16.511   9.157
 1454POPC   C1A22371  30.544  16.731   8.745
 1454POPC   D2A22372  30.584  16.540   8.360
 1454POPC   C3A22373  30.431  16.749   7.980
 1454POPC   C4A22374  30.563  16.892   7.568
 1454POPC   C1B22375  30.940  16.403   8.784
 1454POPC   C2B22376  31.083  16.588   8.420
 1454POPC   C3B22377  30.958  16.553   7.989
 1454POPC   C4B22378  31.151  16.226   7.762
 1455POPC   NC322379  40.473  39.161   9.345
 1455POPC   PO422380  40.875  39.560   9.643
 1455POPC   GL122381  41.044  39.415   9.200
 1455POPC   GL222382  40.861  39.108   9.019
 1455POPC   C1A22383  40.875  39.556   8.790
 1455POPC   D2A22384  40.662  39.301   8.508
 1455POPC   C3A22385  40.919  39.227   8.188
 1455POPC   C4A22386  40.961  39.508   7.860
 1455POPC   C1B22387  40.477  38.898   8.760
 1455POPC   C2B22388  40.460  38.700   8.365
 1455POPC   C3B22389  40.450  39.041   8.084
 1455POPC   C4B22390  40.732  39.049   7.728
 1456POPC   NC322391  35.079  30.878   9.489
 1456POPC   PO422392  35.648  30.637   9.217
 1456POPC   GL122393  35.305  30.514   9.012
 1456POPC   GL222394  35.084  30.758   8.992
 1456POPC   C1A22395  35.313  30.357   8.651
 1456POPC   D2A22396  35.561  30.582   8.366
 1456POPC   C3A22397  35.302  30.510   8.012
 1456POPC   C4A22398  35.195  30.654   7.578
 1456POPC   C1B22399  35.124  30.822   8.566
 1456POPC   C2B22400  35.287  31.005   8.219
 1456POPC   C3B22401  35.020  31.037   7.884
 1456POPC   C4B22402  34.953  31.059   7.431
 1457POPC   NC322403  24.456  15.680   9.379
 1457POPC   PO422404  24.041  16.226   9.503
 1457POPC   GL122405  24.340  16.101   9.117
 1457POPC   GL222406  24.721  16.053   9.132
 1457POPC   C1A22407  24.434  15.837   8.731
 1457POPC   D2A22408  24.557  15.763   8.303
 1457POPC   C3A22409  24.270  15.793   7.923
 1457POPC   C4A22410  24.162  15.932   7.476
 1457POPC   C1B22411  24.834  16.143   8.696
 1457POPC   C2B22412  24.951  16.254   8.275
 1457POPC   C3B22413  24.655  16.147   7.969
 1457POPC   C4B22414  24.574  16.205   7.570
 1458POPC   NC322415  21.598  24.839   9.502
 1458POPC   PO422416  21.223  25.328   9.440
 1458POPC   GL122417  21.250  25.129   9.051
 1458POPC   GL222418  21.555  25.039   9.006
 1458POPC   C1A22419  21.245  25.075   8.594
 1458POPC   D2A22420  21.049  25.392   8.312
 1458POPC   C3A22421  20.966  25.339   7.886
 1458POPC   C4A22422  21.319  25.307   7.641
 1458POPC   C1B22423  21.569  25.438   8.783
 1458POPC   C2B22424  21.564  25.400   8.359
 1458POPC   C3B22425  21.731  25.303   7.985
 1458POPC   C4B22426  21.865  25.524   7.675
 1459POPC   NC322427  28.146  32.612   9.531
 1459POPC   PO422428  28.618  32.130   9.543
 1459POPC   GL122429  28.454  32.075   9.127
 1459POPC   GL222430  28.308  32.410   9.095
 1459POPC   C1A22431  28.425  32.166   8.677
 1459POPC   D2A22432  28.486  32.416   8.321
 1459POPC   C3A22433  28.431  32.184   7.950
 1459POPC   C4A22434  28.591  32.270   7.548
 1459POPC   C1B22435  28.076  32.584   8.737
 1459POPC   C2B22436  28.122  32.798   8.341
 1459POPC   C3B22437  28.163  32.639   7.937
 1459POPC   C4B22438  27.921  32.625   7.559
 1460POPC   NC322439   2.173   1.830   9.623
 1460POPC   PO422440   1.677   2.218   9.612
 1460POPC   GL122441   1.692   2.236   9.172
 1460POPC   GL222442   1.967   2.443   9.132
 1460POPC   C1A22443   1.881   1.972   8.838
 1460POPC   D2A22444   2.007   1.798   8.412
 1460POPC   C3A22445   1.765   2.007   8.077
 1460POPC   C4A22446   1.795   1.991   7.640
 1460POPC   C1B22447   2.200   2.372   8.723
 1460POPC   C2B22448   2.182   2.281   8.269
 1460POPC   C3B22449   2.261   2.031   7.893
 1460POPC   C4B22450   2.253   2.162   7.456
 1461POPC   NC322451  21.409  17.228   9.297
 1461POPC   PO422452  21.591  16.600   9.565
 1461POPC   GL122453  21.576  16.744   9.151
 1461POPC   GL222454  21.239  16.790   9.028
 1461POPC   C1A22455  21.652  16.882   8.729
 1461POPC   D2A22456  21.375  17.059   8.440
 1461POPC   C3A22457  21.552  16.995   8.053
 1461POPC   C4A22458  21.401  16.721   7.746
 1461POPC   C1B22459  21.130  16.596   8.633
 1461POPC   C2B22460  20.853  16.583   8.261
 1461POPC   C3B22461  21.011  16.381   7.871
 1461POPC   C4B22462  21.048  16.460   7.424
 1462POPC   NC322463  44.414  14.669   9.435
 1462POPC   PO422464  44.807  14.102   9.477
 1462POPC   GL122465  44.682  14.353   9.121
 1462POPC   GL222466  44.780  14.704   9.086
 1462POPC   C1A22467  44.583  14.267   8.703
 1462POPC   D2A22468  44.652  13.970   8.419
 1462POPC   C3A22469  44.492  14.128   8.068
 1462POPC   C4A22470  44.590  14.481   7.836
 1462POPC   C1B22471   0.002  14.518   8.739
 1462POPC   C2B22472  44.875  14.500   8.314
 1462POPC   C3B22473   0.089  14.496   7.944
 1462POPC   C4B22474   0.133  14.242   7.565
 1463POPC   NC322475  11.346  25.477   9.519
 1463POPC   PO422476  11.404  24.817   9.501
 1463POPC   GL122477  11.318  25.115   9.100
 1463POPC   GL222478  11.084  25.403   9.086
 1463POPC   C1A22479  11.467  25.270   8.717
 1463POPC   D2A22480  11.623  25.191   8.309
 1463POPC   C3A22481  11.398  24.967   8.034
 1463POPC   C4A22482  11.489  25.031   7.600
 1463POPC   C1B22483  11.135  25.690   8.741
 1463POPC   C2B22484  11.149  25.497   8.337
 1463POPC   C3B22485  11.343  25.480   7.950
 1463POPC   C4B22486  11.203  25.523   7.551
 1464POPC   NC322487   4.041  23.159   9.432
 1464POPC   PO422488   4.609  22.734   9.541
 1464POPC   GL122489   4.484  22.914   9.170
 1464POPC   GL222490   4.730  23.164   9.185
 1464POPC   C1A22491   4.167  22.935   8.827
 1464POPC   D2A22492   4.271  22.909   8.386
 1464POPC   C3A22493   4.101  23.051   7.991
 1464POPC   C4A22494   4.026  22.871   7.585
 1464POPC   C1B22495   4.605  23.199   8.744
 1464POPC   C2B22496   4.791  23.053   8.383
 1464POPC   C3B22497   4.634  23.016   7.992
 1464POPC   C4B22498   4.510  23.029   7.578
 1465POPC   NC322499  32.953   2.440   9.583
 1465POPC   PO422500  33.067   3.102   9.680
 1465POPC   GL122501  32.947   2.890   9.288
 1465POPC   GL222502  32.630   2.720   9.273
 1465POPC   C1A22503  32.994   2.744   8.842
 1465POPC   D2A22504  33.139   2.917   8.441
 1465POPC   C3A22505  33.025   2.688   8.092
 1465POPC   C4A22506  32.979   2.414   7.732
 1465POPC   C1B22507  32.615   3.038   8.936
 1465POPC   C2B22508  32.608   2.944   8.492
 1465POPC   C3B22509  32.661   3.078   8.077
 1465POPC   C4B22510  32.740   2.911   7.704
 1466POPC   NC322511  36.238   1.041   9.518
 1466POPC   PO422512  36.070   1.698   9.346
 1466POPC   GL122513  35.937   1.351   9.091
 1466POPC   GL222514  36.100   1.022   9.046
 1466POPC   C1A22515  35.969   1.304   8.645
 1466POPC   D2A22516  36.245   1.139   8.319
 1466POPC   C3A22517  36.137   1.264   7.912
 1466POPC   C4A22518  35.895   1.635   7.827
 1466POPC   C1B22519  36.351   0.803   8.713
 1466POPC   C2B22520  36.546   0.695   8.356
 1466POPC   C3B22521  36.386   0.759   7.973
 1466POPC   C4B22522  36.492   0.991   7.616
 1467POPC   NC322523  36.445   7.327   9.483
 1467POPC   PO422524  35.764   7.524   9.501
 1467POPC   GL122525  36.013   7.536   9.117
 1467POPC   GL222526  36.295   7.738   9.192
 1467POPC   C1A22527  36.297   7.313   8.797
 1467POPC   D2A22528  36.298   6.947   8.498
 1467POPC   C3A22529  36.215   6.998   8.048
 1467POPC   C4A22530  36.122   7.177   7.636
 1467POPC   C1B22531  36.267   7.823   8.761
 1467POPC   C2B22532  36.079   7.646   8.392
 1467POPC   C3B22533  36.241   7.516   8.005
 1467POPC   C4B22534  36.446   7.753   7.660
 1468POPC   NC322535  16.398  10.205   9.592
 1468POPC   PO422536  16.743   9.625   9.557
 1468POPC   GL122537  16.807   9.839   9.144
 1468POPC   GL222538  16.536  10.014   9.150
 1468POPC   C1A22539  16.862  10.055   8.738
 1468POPC   D2A22540  16.779   9.818   8.363
 1468POPC   C3A22541  16.796  10.038   7.986
 1468POPC   C4A22542  17.165  10.034   7.732
 1468POPC   C1B22543  16.409   9.790   8.788
 1468POPC   C2B22544  16.270   9.651   8.405
 1468POPC   C3B22545  16.462   9.596   8.000
 1468POPC   C4B22546  16.844   9.607   7.720
 1469POPC   NC322547  44.042  28.807   9.433
 1469POPC   PO422548  43.585  29.302   9.534
 1469POPC   GL122549  43.699  29.048   9.139
 1469POPC   GL222550  44.059  29.113   9.040
 1469POPC   C1A22551  43.693  28.917   8.698
 1469POPC   D2A22552  43.603  29.180   8.344
 1469POPC   C3A22553  43.764  29.116   7.930
 1469POPC   C4A22554  43.911  28.930   7.587
 1469POPC   C1B22555  44.019  29.347   8.672
 1469POPC   C2B22556  44.126  29.179   8.270
 1469POPC   C3B22557  44.246  29.320   7.860
 1469POPC   C4B22558  44.426  29.037   7.560
 1470POPC   NC322559   4.537  40.269   9.872
 1470POPC   PO422560   4.185  40.772   9.617
 1470POPC   GL122561   4.402  40.991   9.268
 1470POPC   GL222562   4.563  40.742   9.089
 1470POPC   C1A22563   4.249  41.029   8.822
 1470POPC   D2A22564   4.158  40.732   8.510
 1470POPC   C3A22565   4.216  40.906   8.108
 1470POPC   C4A22566   3.933  40.692   7.818
 1470POPC   C1B22567   4.825  40.595   8.773
 1470POPC   C2B22568   4.778  40.410   8.368
 1470POPC   C3B22569   4.443  40.462   8.083
 1470POPC   C4B22570   4.464  40.717   7.703
 1471POPC   NC322571  12.012   1.145   9.511
 1471POPC   PO422572  12.580   1.496   9.345
 1471POPC   GL122573  12.317   1.297   9.056
 1471POPC   GL222574  12.325   0.940   9.137
 1471POPC   C1A22575  12.211   1.423   8.619
 1471POPC   D2A22576  11.972   1.264   8.268
 1471POPC   C3A22577  11.992   1.263   7.810
 1471POPC   C4A22578  11.825   0.956   7.543
 1471POPC   C1B22579  12.068   0.951   8.761
 1471POPC   C2B22580  12.151   0.772   8.381
 1471POPC   C3B22581  12.182   0.800   7.936
 1471POPC   C4B22582  12.275   0.703   7.501
 1472POPC   NC322583  28.955  25.378   9.571
 1472POPC   PO422584  29.528  24.942   9.613
 1472POPC   GL122585  29.321  25.139   9.292
 1472POPC   GL222586  28.981  24.970   9.257
 1472POPC   C1A22587  29.230  25.253   8.882
 1472POPC   D2A22588  29.174  25.134   8.458
 1472POPC   C3A22589  29.464  25.309   8.153
 1472POPC   C4A22590  29.478  25.319   7.689
 1472POPC   C1B22591  28.734  25.055   8.889
 1472POPC   C2B22592  28.656  25.208   8.454
 1472POPC   C3B22593  28.862  25.007   8.075
 1472POPC   C4B22594  29.052  25.003   7.682
 1473POPC   NC322595  11.359  26.461   9.698
 1473POPC   PO422596  11.206  25.881   9.681
 1473POPC   GL122597  11.350  25.967   9.270
 1473POPC   GL222598  11.617  26.244   9.250
 1473POPC   C1A22599  11.189  26.229   8.947
 1473POPC   D2A22600  11.122  26.269   8.518
 1473POPC   C3A22601  11.288  25.989   8.213
 1473POPC   C4A22602  11.261  25.976   7.778
 1473POPC   C1B22603  11.676  26.284   8.779
 1473POPC   C2B22604  11.570  26.434   8.334
 1473POPC   C3B22605  11.652  26.262   7.925
 1473POPC   C4B22606  11.601  26.322   7.466
 1474POPC   NC322607   6.877  20.591   9.527
 1474POPC   PO422608   6.269  20.661   9.345
 1474POPC   GL122609   6.558  20.681   9.052
 1474POPC   GL222610   6.802  20.957   9.168
 1474POPC   C1A22611   6.407  20.592   8.618
 1474POPC   D2A22612   6.626  20.377   8.267
 1474POPC   C3A22613   6.811  20.495   7.863
 1474POPC   C4A22614   6.777  20.384   7.396
 1474POPC   C1B22615   6.667  21.113   8.780
 1474POPC   C2B22616   6.659  20.948   8.373
 1474POPC   C3B22617   6.471  20.877   7.985
 1474POPC   C4B22618   6.470  20.761   7.553
 1475POPC   NC322619  28.802  20.340  10.050
 1475POPC   PO422620  29.338  20.510   9.801
 1475POPC   GL122621  29.159  20.480   9.295
 1475POPC   GL222622  28.871  20.296   9.154
 1475POPC   C1A22623  29.158  20.582   8.824
 1475POPC   D2A22624  29.040  20.644   8.362
 1475POPC   C3A22625  29.336  20.704   7.995
 1475POPC   C4A22626  29.235  20.722   7.540
 1475POPC   C1B22627  28.771  20.184   8.691
 1475POPC   C2B22628  28.776  20.179   8.221
 1475POPC   C3B22629  28.964  20.404   7.856
 1475POPC   C4B22630  29.042  20.269   7.398
 1476POPC   NC322631   6.134  37.538   9.523
 1476POPC   PO422632   5.471  37.781   9.429
 1476POPC   GL122633   5.759  37.616   9.136
 1476POPC   GL222634   6.028  37.866   9.121
 1476POPC   C1A22635   5.873  37.641   8.701
 1476POPC   D2A22636   5.664  37.538   8.355
 1476POPC   C3A22637   5.879  37.541   7.994
 1476POPC   C4A22638   5.759  37.810   7.667
 1476POPC   C1B22639   5.752  38.116   8.845
 1476POPC   C2B22640   5.636  38.060   8.395
 1476POPC   C3B22641   6.000  38.025   8.076
 1476POPC   C4B22642   6.102  38.183   7.664
 1477POPC   NC322643  41.412  29.939   9.467
 1477POPC   PO422644  41.993  29.545   9.531
 1477POPC   GL122645  41.774  29.662   9.129
 1477POPC   GL222646  41.396  29.650   9.032
 1477POPC   C1A22647  41.737  29.741   8.674
 1477POPC   D2A22648  41.901  29.872   8.294
 1477POPC   C3A22649  41.734  30.079   7.912
 1477POPC   C4A22650  41.730  29.813   7.541
 1477POPC   C1B22651  41.221  29.899   8.718
 1477POPC   C2B22652  41.376  29.944   8.326
 1477POPC   C3B22653  41.367  29.760   7.940
 1477POPC   C4B22654  41.244  30.030   7.623
 1478POPC   NC322655  26.875  13.154   9.509
 1478POPC   PO422656  26.382  12.786   9.224
 1478POPC   GL122657  26.611  13.092   9.080
 1478POPC   GL222658  26.949  12.907   9.089
 1478POPC   C1A22659  26.610  13.136   8.666
 1478POPC   D2A22660  26.864  12.912   8.367
 1478POPC   C3A22661  26.709  12.919   7.929
 1478POPC   C4A22662  26.864  12.633   7.604
 1478POPC   C1B22663  27.108  13.204   8.806
 1478POPC   C2B22664  27.324  13.204   8.426
 1478POPC   C3B22665  27.166  13.195   8.037
 1478POPC   C4B22666  27.147  13.050   7.669
 1479POPC   NC322667  28.068   0.552   9.467
 1479POPC   PO422668  28.783   0.617   9.520
 1479POPC   GL122669  28.605   0.549   9.052
 1479POPC   GL222670  28.285   0.376   9.051
 1479POPC   C1A22671  28.535   0.386   8.605
 1479POPC   D2A22672  28.731   0.208   8.234
 1479POPC   C3A22673  28.588   0.377   7.815
 1479POPC   C4A22674  28.688   0.277   7.368
 1479POPC   C1B22675  28.036   0.313   8.678
 1479POPC   C2B22676  28.019   0.470   8.264
 1479POPC   C3B22677  28.100   0.277   7.894
 1479POPC   C4B22678  28.223   0.140   7.514
 1480POPC   NC322679  33.059  31.895   9.365
 1480POPC   PO422680  33.210  32.502   9.541
 1480POPC   GL122681  32.872  32.396   9.208
 1480POPC   GL222682  33.120  32.240   9.012
 1480POPC   C1A22683  32.685  32.301   8.769
 1480POPC   D2A22684  32.916  32.222   8.425
 1480POPC   C3A22685  32.742  32.180   8.031
 1480POPC   C4A22686  33.033  32.137   7.724
 1480POPC   C1B22687  33.352  32.412   8.739
 1480POPC   C2B22688  33.396  32.698   8.456
 1480POPC   C3B22689  33.274  32.507   8.120
 1480POPC   C4B22690  33.387  32.497   7.686
 1481POPC   NC322691   8.630  14.770   9.569
 1481POPC   PO422692   9.224  14.273   9.552
 1481POPC   GL122693   8.934  14.418   9.231
 1481POPC   GL222694   8.734  14.169   9.026
 1481POPC   C1A22695   9.113  14.594   8.859
 1481POPC   D2A22696   8.952  14.738   8.488
 1481POPC   C3A22697   9.184  14.655   8.135
 1481POPC   C4A22698   9.144  14.467   7.747
 1481POPC   C1B22699   9.097  14.061   8.811
 1481POPC   C2B22700   9.064  14.201   8.412
 1481POPC   C3B22701   9.078  14.033   7.998
 1481POPC   C4B22702   9.155  13.978   7.559
 1482POPC   NC322703   7.491   6.515   9.537
 1482POPC   PO422704   7.007   6.199   9.190
 1482POPC   GL122705   7.314   6.491   9.051
 1482POPC   GL222706   7.700   6.398   9.095
 1482POPC   C1A22707   7.391   6.826   8.747
 1482POPC   D2A22708   7.262   7.085   8.392
 1482POPC   C3A22709   7.373   6.812   8.055
 1482POPC   C4A22710   7.527   6.705   7.676
 1482POPC   C1B22711   7.630   6.288   8.716
 1482POPC   C2B22712   7.556   6.469   8.367
 1482POPC   C3B22713   7.654   6.324   7.988
 1482POPC   C4B22714   7.868   6.315   7.600
 1483POPC   NC322715  41.599  13.368   9.509
 1483POPC   PO422716  41.685  13.999   9.630
 1483POPC   GL122717  41.514  13.919   9.174
 1483POPC   GL222718  41.732  13.657   9.064
 1483POPC   C1A22719  41.286  13.850   8.729
 1483POPC   D2A22720  41.272  13.729   8.242
 1483POPC   C3A22721  41.652  13.479   8.091
 1483POPC   C4A22722  42.069  13.428   7.929
 1483POPC   C1B22723  41.788  13.969   8.727
 1483POPC   C2B22724  41.644  14.062   8.377
 1483POPC   C3B22725  41.800  13.960   8.002
 1483POPC   C4B22726  41.531  13.822   7.724
 1484POPC   NC322727  39.489  29.952   9.405
 1484POPC   PO422728  39.063  29.482   9.540
 1484POPC   GL122729  39.081  29.749   9.165
 1484POPC   GL222730  38.873  30.013   9.105
 1484POPC   C1A22731  39.103  29.647   8.725
 1484POPC   D2A22732  39.121  29.882   8.347
 1484POPC   C3A22733  39.143  29.709   7.919
 1484POPC   C4A22734  39.477  29.818   7.617
 1484POPC   C1B22735  39.176  30.151   8.799
 1484POPC   C2B22736  39.370  30.352   8.455
 1484POPC   C3B22737  39.411  30.157   8.036
 1484POPC   C4B22738  39.601  30.298   7.708
 1485POPC   NC322739  24.506   7.674   9.553
 1485POPC   PO422740  24.746   8.113   9.776
 1485POPC   GL122741  24.710   8.050   9.285
 1485POPC   GL222742  24.980   7.988   9.071
 1485POPC   C1A22743  24.487   7.956   8.874
 1485POPC   D2A22744  24.560   7.937   8.396
 1485POPC   C3A22745  24.476   8.203   8.034
 1485POPC   C4A22746  24.490   8.015   7.638
 1485POPC   C1B22747  24.891   8.204   8.672
 1485POPC   C2B22748  24.959   8.274   8.209
 1485POPC   C3B22749  24.901   8.295   7.742
 1485POPC   C4B22750  25.035   8.541   7.343
 1486POPC   NC322751  28.215  24.706   9.552
 1486POPC   PO422752  28.174  24.080   9.534
 1486POPC   GL122753  28.223  24.278   9.159
 1486POPC   GL222754  28.345  24.565   9.082
 1486POPC   C1A22755  28.203  24.196   8.742
 1486POPC   D2A22756  28.257  24.449   8.396
 1486POPC   C3A22757  28.130  24.235   8.060
 1486POPC   C4A22758  27.960  24.204   7.676
 1486POPC   C1B22759  28.668  24.517   8.825
 1486POPC   C2B22760  28.748  24.691   8.465
 1486POPC   C3B22761  28.685  24.516   8.074
 1486POPC   C4B22762  28.660  24.647   7.678
 1487POPC   NC322763  17.917  43.420   9.381
 1487POPC   PO422764  17.430  43.955   9.506
 1487POPC   GL122765  17.564  43.884   9.102
 1487POPC   GL222766  17.589  44.223   9.021
 1487POPC   C1A22767  17.811  43.672   8.777
 1487POPC   D2A22768  17.939  43.449   8.395
 1487POPC   C3A22769  17.771  43.645   7.996
 1487POPC   C4A22770  17.635  43.865   7.626
 1487POPC   C1B22771  17.542  44.105   8.628
 1487POPC   C2B22772  17.428  43.947   8.250
 1487POPC   C3B22773  17.340  44.164   7.896
 1487POPC   C4B22774  17.180  44.057   7.491
 1488POPC   NC322775  38.625  43.477   9.510
 1488POPC   PO422776  38.227  44.030   9.453
 1488POPC   GL122777  38.552  43.884   9.161
 1488POPC   GL222778  38.589  43.537   9.015
 1488POPC   C1A22779  38.649  44.000   8.743
 1488POPC   D2A22780  38.508  43.925   8.331
 1488POPC   C3A22781  38.671  44.169   7.986
 1488POPC   C4A22782  38.727  43.953   7.585
 1488POPC   C1B22783  38.293  43.627   8.715
 1488POPC   C2B22784  38.296  43.429   8.303
 1488POPC   C3B22785  38.464  43.598   7.913
 1488POPC   C4B22786  38.279  43.720   7.533
 1489POPC   NC322787  29.506   4.172   9.511
 1489POPC   PO422788  28.865   4.040   9.501
 1489POPC   GL122789  29.138   4.284   9.176
 1489POPC   GL222790  29.438   4.561   9.182
 1489POPC   C1A22791  29.128   4.277   8.717
 1489POPC   D2A22792  29.258   4.108   8.296
 1489POPC   C3A22793  29.087   4.382   7.977
 1489POPC   C4A22794  28.844   4.336   7.599
 1489POPC   C1B22795  29.541   4.686   8.748
 1489POPC   C2B22796  29.517   4.559   8.289
 1489POPC   C3B22797  29.451   4.741   7.861
 1489POPC   C4B22798  29.314   4.938   7.440
 1490POPC   NC322799  25.314   4.639   9.713
 1490POPC   PO422800  25.120   4.092   9.407
 1490POPC   GL122801  25.170   4.403   9.078
 1490POPC   GL222802  25.484   4.570   8.934
 1490POPC   C1A22803  25.033   4.483   8.675
 1490POPC   D2A22804  24.797   4.413   8.327
 1490POPC   C3A22805  25.006   4.348   7.949
 1490POPC   C4A22806  24.999   4.567   7.543
 1490POPC   C1B22807  25.483   4.178   8.688
 1490POPC   C2B22808  25.472   3.995   8.291
 1490POPC   C3B22809  25.623   4.221   7.944
 1490POPC   C4B22810  25.427   4.607   7.831
 1491POPC   NC322811  36.339  43.491   9.444
 1491POPC   PO422812  35.918  42.965   9.473
 1491POPC   GL122813  36.168  43.055   9.133
 1491POPC   GL222814  35.964  43.344   9.072
 1491POPC   C1A22815  36.075  43.032   8.679
 1491POPC   D2A22816  36.279  42.886   8.306
 1491POPC   C3A22817  36.042  42.961   7.957
 1491POPC   C4A22818  36.069  43.082   7.536
 1491POPC   C1B22819  36.318  43.482   8.811
 1491POPC   C2B22820  36.478  43.370   8.434
 1491POPC   C3B22821  36.435  43.442   8.002
 1491POPC   C4B22822  36.053  43.585   7.776
 1492POPC   NC322823  33.694  35.791   9.331
 1492POPC   PO422824  33.853  35.080   9.409
 1492POPC   GL122825  33.566  35.161   9.093
 1492POPC   GL222826  33.462  35.515   8.969
 1492POPC   C1A22827  33.713  35.156   8.680
 1492POPC   D2A22828  33.702  35.379   8.312
 1492POPC   C3A22829  33.778  35.088   8.034
 1492POPC   C4A22830  33.640  35.251   7.677
 1492POPC   C1B22831  33.833  35.671   8.712
 1492POPC   C2B22832  33.895  35.875   8.321
 1492POPC   C3B22833  33.787  35.753   7.938
 1492POPC   C4B22834  34.086  35.447   7.839
 1493POPC   NC322835  13.187  26.943   9.363
 1493POPC   PO422836  12.528  26.806   9.474
 1493POPC   GL122837  12.736  26.874   9.134
 1493POPC   GL222838  12.725  27.223   9.130
 1493POPC   C1A22839  12.920  26.778   8.751
 1493POPC   D2A22840  12.726  26.621   8.408
 1493POPC   C3A22841  12.877  26.711   8.057
 1493POPC   C4A22842  12.644  26.879   7.716
 1493POPC   C1B22843  13.015  27.271   8.769
 1493POPC   C2B22844  12.967  27.211   8.290
 1493POPC   C3B22845  13.079  27.129   7.850
 1493POPC   C4B22846  13.119  27.190   7.412
 1494POPC   NC322847   3.660  43.671   9.539
 1494POPC   PO422848   3.462  43.044   9.605
 1494POPC   GL122849   3.346  43.309   9.235
 1494POPC   GL222850   3.648  43.412   9.104
 1494POPC   C1A22851   3.341  43.217   8.748
 1494POPC   D2A22852   3.366  43.018   8.316
 1494POPC   C3A22853   3.258  43.243   7.928
 1494POPC   C4A22854   3.367  43.099   7.511
 1494POPC   C1B22855   3.923  43.558   8.772
 1494POPC   C2B22856   3.704  43.422   8.415
 1494POPC   C3B22857   3.779  43.230   8.061
 1494POPC   C4B22858   3.761  43.353   7.668
 1495POPC   NC322859  30.953  44.075   9.283
 1495POPC   PO422860  31.250  43.582   9.681
 1495POPC   GL122861  31.399  43.641   9.180
 1495POPC   GL222862  31.784  43.526   9.108
 1495POPC   C1A22863  31.632  43.972   8.904
 1495POPC   D2A22864  31.675  44.058   8.466
 1495POPC   C3A22865  31.460  44.062   8.061
 1495POPC   C4A22866  31.133  43.977   7.773
 1495POPC   C1B22867  31.878  43.589   8.655
 1495POPC   C2B22868  31.696  43.619   8.223
 1495POPC   C3B22869  31.752  43.617   7.799
 1495POPC   C4B22870  31.730  43.561   7.291
 1496POPC   NC322871  17.591  13.724   9.593
 1496POPC   PO422872  17.127  14.034   9.491
 1496POPC   GL122873  17.457  13.863   9.120
 1496POPC   GL222874  17.810  13.975   9.189
 1496POPC   C1A22875  17.706  13.586   8.781
 1496POPC   D2A22876  17.758  13.389   8.344
 1496POPC   C3A22877  17.538  13.563   7.967
 1496POPC   C4A22878  17.541  13.657   7.516
 1496POPC   C1B22879  17.820  14.075   8.740
 1496POPC   C2B22880  17.640  13.917   8.348
 1496POPC   C3B22881  17.678  14.048   7.924
 1496POPC   C4B22882  17.667  14.276   7.553
 1497POPC   NC322883  11.682  15.708   9.275
 1497POPC   PO422884  11.216  16.102   9.577
 1497POPC   GL122885  11.164  16.023   9.173
 1497POPC   GL222886  11.192  15.693   9.119
 1497POPC   C1A22887  11.035  16.166   8.782
 1497POPC   D2A22888  11.311  16.183   8.430
 1497POPC   C3A22889  11.133  16.055   8.090
 1497POPC   C4A22890  11.304  16.067   7.685
 1497POPC   C1B22891  11.276  15.731   8.705
 1497POPC   C2B22892  11.112  15.582   8.346
 1497POPC   C3B22893  11.266  15.596   7.933
 1497POPC   C4B22894  11.461  15.592   7.535
 1498POPC   NC322895  43.715  33.265   9.513
 1498POPC   PO422896  44.043  33.904   9.568
 1498POPC   GL122897  43.855  33.924   9.148
 1498POPC   GL222898  43.537  34.123   9.104
 1498POPC   C1A22899  43.971  33.672   8.740
 1498POPC   D2A22900  43.844  33.680   8.309
 1498POPC   C3A22901  43.899  33.309   8.025
 1498POPC   C4A22902  44.032  33.333   7.561
 1498POPC   C1B22903  43.732  34.180   8.693
 1498POPC   C2B22904  43.726  34.170   8.238
 1498POPC   C3B22905  43.900  34.197   7.831
 1498POPC   C4B22906  43.789  34.366   7.423
 1499POPC   NC322907  44.123   0.038   9.816
 1499POPC   PO422908  43.643   0.356   9.520
 1499POPC   GL122909  43.773   0.497   9.136
 1499POPC   GL222910  44.096   0.422   9.100
 1499POPC   C1A22911  43.590   0.485   8.730
 1499POPC   D2A22912  43.445   0.297   8.352
 1499POPC   C3A22913  43.620   0.472   7.981
 1499POPC   C4A22914  43.843   0.322   7.587
 1499POPC   C1B22915  44.115   0.649   8.756
 1499POPC   C2B22916  43.952   0.575   8.364
 1499POPC   C3B22917  44.097   0.623   7.936
 1499POPC   C4B22918  44.426   0.706   7.647
 1500POPC   NC322919   6.108  12.551   9.645
 1500POPC   PO422920   5.808  11.958   9.458
 1500POPC   GL122921   5.907  12.341   9.227
 1500POPC   GL222922   5.627  12.480   9.072
 1500POPC   C1A22923   6.099  12.374   8.823
 1500POPC   D2A22924   6.060  12.043   8.479
 1500POPC   C3A22925   6.202  12.136   8.066
 1500POPC   C4A22926   6.041  12.199   7.635
 1500POPC   C1B22927   5.647  12.097   8.817
 1500POPC   C2B22928   5.516  12.057   8.390
 1500POPC   C3B22929   5.689  12.150   8.009
 1500POPC   C4B22930   5.615  12.436   7.696
 1501POPC   NC322931  33.209  11.397   9.553
 1501POPC   PO422932  32.669  10.959   9.507
 1501POPC   GL122933  32.849  11.241   9.211
 1501POPC   GL222934  32.781  11.559   9.284
 1501POPC   C1A22935  32.987  11.212   8.788
 1501POPC   D2A22936  32.941  11.088   8.406
 1501POPC   C3A22937  33.239  11.117   8.098
 1501POPC   C4A22938  33.193  10.999   7.722
 1501POPC   C1B22939  32.665  11.596   8.848
 1501POPC   C2B22940  32.812  11.597   8.408
 1501POPC   C3B22941  32.770  11.356   8.015
 1501POPC   C4B22942  32.926  11.410   7.607
 1502POPC   NC322943  23.914  37.176   9.427
 1502POPC   PO422944  23.956  37.807   9.575
 1502POPC   GL122945  23.716  37.821   9.194
 1502POPC   GL222946  23.822  37.512   9.051
 1502POPC   C1A22947  23.722  37.868   8.723
 1502POPC   D2A22948  23.803  37.581   8.415
 1502POPC   C3A22949  23.601  37.717   8.048
 1502POPC   C4A22950  23.451  37.804   7.655
 1502POPC   C1B22951  24.187  37.424   8.762
 1502POPC   C2B22952  24.207  37.283   8.309
 1502POPC   C3B22953  24.123  37.521   7.917
 1502POPC   C4B22954  23.865  37.516   7.534
 1503POPC   NC322955  36.041  31.987   9.457
 1503POPC   PO422956  36.056  31.397   9.723
 1503POPC   GL122957  36.305  31.492   9.312
 1503POPC   GL222958  36.214  31.236   9.073
 1503POPC   C1A22959  36.360  31.679   8.857
 1503POPC   D2A22960  36.231  31.892   8.414
 1503POPC   C3A22961  36.313  31.733   7.962
 1503POPC   C4A22962  36.086  31.730   7.540
 1503POPC   C1B22963  36.503  31.152   8.714
 1503POPC   C2B22964  36.524  31.003   8.296
 1503POPC   C3B22965  36.269  31.005   7.913
 1503POPC   C4B22966  35.952  31.316   7.785
 1504POPC   NC322967   2.298   4.967   9.693
 1504POPC   PO422968   2.045   4.366   9.614
 1504POPC   GL122969   2.152   4.290   9.161
 1504POPC   GL222970   2.292   4.648   9.102
 1504POPC   C1A22971   1.895   4.256   8.728
 1504POPC   D2A22972   1.858   4.613   8.427
 1504POPC   C3A22973   1.908   4.501   8.013
 1504POPC   C4A22974   1.689   4.103   7.938
 1504POPC   C1B22975   2.375   4.363   8.724
 1504POPC   C2B22976   2.210   4.191   8.307
 1504POPC   C3B22977   2.216   4.129   7.829
 1504POPC   C4B22978   2.323   4.200   7.381
 1505POPC   NC322979   9.657  35.126   9.579
 1505POPC   PO422980  10.015  35.617   9.239
 1505POPC   GL122981   9.816  35.244   9.097
 1505POPC   GL222982   9.998  34.939   9.205
 1505POPC   C1A22983   9.646  35.238   8.686
 1505POPC   D2A22984   9.846  35.446   8.330
 1505POPC   C3A22985   9.710  35.371   7.898
 1505POPC   C4A22986   9.987  35.569   7.588
 1505POPC   C1B22987   9.901  34.817   8.795
 1505POPC   C2B22988   9.969  34.926   8.344
 1505POPC   C3B22989   9.895  34.881   7.870
 1505POPC   C4B22990   9.765  35.092   7.453
 1506POPC   NC322991  38.621  11.849   9.715
 1506POPC   PO422992  38.261  12.208   9.319
 1506POPC   GL122993  38.589  12.092   9.109
 1506POPC   GL222994  38.699  12.344   8.888
 1506POPC   C1A22995  38.545  11.837   8.768
 1506POPC   D2A22996  38.808  11.787   8.439
 1506POPC   C3A22997  38.636  11.771   8.050
 1506POPC   C4A22998  38.612  11.939   7.660
 1506POPC   C1B22999  38.319  12.275   8.622
 1506POPC   C2B23000  38.249  12.069   8.243
 1506POPC   C3B23001  38.260  12.280   7.866
 1506POPC   C4B23002  38.056  12.215   7.490
 1507POPC   NC323003   0.993  22.055   9.444
 1507POPC   PO423004   1.302  22.652   9.601
 1507POPC   GL123005   1.313  22.344   9.193
 1507POPC   GL223006   1.167  22.027   8.982
 1507POPC   C1A23007   1.527  22.295   8.789
 1507POPC   D2A23008   1.480  22.554   8.426
 1507POPC   C3A23009   1.287  22.355   8.070
 1507POPC   C4A23010   1.321  22.285   7.636
 1507POPC   C1B23011   1.045  22.108   8.579
 1507POPC   C2B23012   1.115  21.883   8.242
 1507POPC   C3B23013   1.045  21.909   7.847
 1507POPC   C4B23014   1.241  21.810   7.464
 1508POPC   NC323015   1.942  10.972   9.389
 1508POPC   PO423016   1.707  11.607   9.618
 1508POPC   GL123017   1.898  11.485   9.184
 1508POPC   GL223018   2.189  11.657   9.022
 1508POPC   C1A23019   1.946  11.274   8.749
 1508POPC   D2A23020   1.807  11.295   8.314
 1508POPC   C3A23021   2.027  11.134   7.945
 1508POPC   C4A23022   1.986  10.846   7.573
 1508POPC   C1B23023   2.444  11.473   8.707
 1508POPC   C2B23024   2.344  11.336   8.307
 1508POPC   C3B23025   2.386  11.516   7.907
 1508POPC   C4B23026   2.325  11.649   7.441
 1509POPC   NC323027   3.784  17.279   9.540
 1509POPC   PO423028   4.477  17.482   9.500
 1509POPC   GL123029   4.550  17.691   9.117
 1509POPC   GL223030   4.209  17.735   9.034
 1509POPC   C1A23031   4.532  17.449   8.735
 1509POPC   D2A23032   4.774  17.164   8.516
 1509POPC   C3A23033   4.630  17.160   8.097
 1509POPC   C4A23034   4.507  17.128   7.678
 1509POPC   C1B23035   4.046  17.475   8.663
 1509POPC   C2B23036   4.214  17.604   8.273
 1509POPC   C3B23037   4.337  17.607   7.830
 1509POPC   C4B23038   4.110  17.404   7.529
 1510POPC   NC323039   5.387  30.281   9.407
 1510POPC   PO423040   5.889  29.824   9.414
 1510POPC   GL123041   5.862  29.839   8.987
 1510POPC   GL223042   5.859  30.185   9.018
 1510POPC   C1A23043   5.962  29.974   8.540
 1510POPC   D2A23044   6.321  30.053   8.252
 1510POPC   C3A23045   6.237  29.947   7.829
 1510POPC   C4A23046   5.956  29.589   7.903
 1510POPC   C1B23047   5.617  30.340   8.685
 1510POPC   C2B23048   5.632  30.305   8.250
 1510POPC   C3B23049   5.968  30.353   7.992
 1510POPC   C4B23050   5.993  30.301   7.518
 1511POPC   NC323051  38.530  38.094   9.540
 1511POPC   PO423052  38.327  38.818   9.538
 1511POPC   GL123053  38.418  38.513   9.218
 1511POPC   GL223054  38.771  38.520   9.147
 1511POPC   C1A23055  38.375  38.650   8.792
 1511POPC   D2A23056  38.192  38.704   8.402
 1511POPC   C3A23057  38.440  38.753   8.051
 1511POPC   C4A23058  38.351  38.618   7.651
 1511POPC   C1B23059  38.863  38.685   8.739
 1511POPC   C2B23060  38.654  38.443   8.390
 1511POPC   C3B23061  38.490  38.250   7.988
 1511POPC   C4B23062  38.714  38.209   7.593
 1512POPC   NC323063  36.610  10.956   9.551
 1512POPC   PO423064  37.083  10.450   9.436
 1512POPC   GL123065  36.795  10.555   9.136
 1512POPC   GL223066  36.555  10.263   9.131
 1512POPC   C1A23067  36.957  10.721   8.738
 1512POPC   D2A23068  37.302  10.689   8.477
 1512POPC   C3A23069  37.121  10.666   8.089
 1512POPC   C4A23070  37.094  10.700   7.654
 1512POPC   C1B23071  36.727  10.269   8.703
 1512POPC   C2B23072  36.902  10.162   8.297
 1512POPC   C3B23073  36.854  10.281   7.855
 1512POPC   C4B23074  36.592  10.682   7.722
 1513POPC   NC323075   6.863  34.088   9.513
 1513POPC   PO423076   6.543  34.696   9.539
 1513POPC   GL123077   6.651  34.409   9.189
 1513POPC   GL223078   6.996  34.513   9.265
 1513POPC   C1A23079   6.678  34.178   8.754
 1513POPC   D2A23080   6.801  34.308   8.288
 1513POPC   C3A23081   6.525  34.424   7.908
 1513POPC   C4A23082   6.280  34.602   7.540
 1513POPC   C1B23083   6.981  34.594   8.831
 1513POPC   C2B23084   7.162  34.711   8.458
 1513POPC   C3B23085   7.127  34.715   8.042
 1513POPC   C4B23086   7.030  34.352   7.815
 1514POPC   NC323087  21.430  31.215   9.854
 1514POPC   PO423088  21.661  31.620   9.342
 1514POPC   GL123089  21.582  31.682   9.009
 1514POPC   GL223090  21.539  32.046   9.074
 1514POPC   C1A23091  21.416  31.373   8.742
 1514POPC   D2A23092  21.214  31.395   8.354
 1514POPC   C3A23093  21.476  31.313   8.024
 1514POPC   C4A23094  21.221  31.281   7.690
 1514POPC   C1B23095  21.360  31.956   8.674
 1514POPC   C2B23096  21.615  31.726   8.404
 1514POPC   C3B23097  21.776  31.746   8.005
 1514POPC   C4B23098  21.548  31.653   7.631
 1515POPC   NC323099  15.566   8.723   9.315
 1515POPC   PO423100  16.172   9.062   9.490
 1515POPC   GL123101  15.887   9.130   9.158
 1515POPC   GL223102  16.012   8.802   9.054
 1515POPC   C1A23103  15.747   9.131   8.694
 1515POPC   D2A23104  15.746   8.928   8.246
 1515POPC   C3A23105  16.133   8.865   7.945
 1515POPC   C4A23106  15.910   9.075   7.568
 1515POPC   C1B23107  15.923   8.647   8.643
 1515POPC   C2B23108  15.936   8.449   8.219
 1515POPC   C3B23109  15.752   8.583   7.800
 1515POPC   C4B23110  16.037   8.634   7.399
 1516POPC   NC323111  39.144  22.460   9.346
 1516POPC   PO423112  39.003  21.842   9.389
 1516POPC   GL123113  39.270  22.014   9.090
 1516POPC   GL223114  39.566  22.172   9.231
 1516POPC   C1A23115  39.116  22.143   8.716
 1516POPC   D2A23116  39.175  22.458   8.450
 1516POPC   C3A23117  39.205  22.284   8.047
 1516POPC   C4A23118  38.906  22.328   7.730
 1516POPC   C1B23119  39.536  22.434   8.841
 1516POPC   C2B23120  39.612  22.701   8.503
 1516POPC   C3B23121  39.732  22.689   8.092
 1516POPC   C4B23122  39.490  22.601   7.757
 1517POPC   NC323123  28.672  36.951   9.494
 1517POPC   PO423124  28.105  36.705   9.535
 1517POPC   GL123125  28.269  36.817   9.142
 1517POPC   GL223126  28.593  36.693   9.072
 1517POPC   C1A23127  28.089  36.902   8.739
 1517POPC   D2A23128  27.915  37.010   8.340
 1517POPC   C3A23129  28.038  36.925   7.912
 1517POPC   C4A23130  27.987  36.890   7.432
 1517POPC   C1B23131  28.592  36.966   8.726
 1517POPC   C2B23132  28.456  36.915   8.326
 1517POPC   C3B23133  28.464  36.648   8.008
 1517POPC   C4B23134  28.205  36.486   7.720
 1518POPC   NC323135   2.855  43.377   9.491
 1518POPC   PO423136   2.833  42.791   9.210
 1518POPC   GL123137   2.621  43.119   9.050
 1518POPC   GL223138   2.892  43.309   8.986
 1518POPC   C1A23139   2.667  43.020   8.626
 1518POPC   D2A23140   2.884  43.171   8.320
 1518POPC   C3A23141   2.842  42.893   7.991
 1518POPC   C4A23142   3.196  42.670   7.777
 1518POPC   C1B23143   2.628  43.511   8.688
 1518POPC   C2B23144   2.640  43.610   8.298
 1518POPC   C3B23145   2.741  43.439   7.914
 1518POPC   C4B23146   2.466  43.176   7.752
 1519POPC   NC323147   2.244  44.706   9.556
 1519POPC   PO423148   2.908  44.545   9.447
 1519POPC   GL123149   2.603  44.770   9.199
 1519POPC   GL223150   2.706   0.055   9.048
 1519POPC   C1A23151   2.563  44.613   8.777
 1519POPC   D2A23152   2.584  44.452   8.351
 1519POPC   C3A23153   2.980  44.441   8.135
 1519POPC   C4A23154   2.954  44.295   7.731
 1519POPC   C1B23155   2.350   0.076   8.777
 1519POPC   C2B23156   2.278  44.849   8.394
 1519POPC   C3B23157   2.413  44.936   8.006
 1519POPC   C4B23158   2.819  44.820   7.800
 1520POPC   NC323159   4.070  24.741   9.668
 1520POPC   PO423160   4.605  24.270   9.513
 1520POPC   GL123161   4.493  24.373   9.115
 1520POPC   GL223162   4.157  24.565   9.177
 1520POPC   C1A23163   4.604  24.332   8.674
 1520POPC   D2A23164   4.349  24.369   8.326
 1520POPC   C3A23165   4.468  24.377   7.926
 1520POPC   C4A23166   4.366  24.668   7.670
 1520POPC   C1B23167   4.086  24.334   8.792
 1520POPC   C2B23168   3.835  24.456   8.442
 1520POPC   C3B23169   3.971  24.561   8.027
 1520POPC   C4B23170   4.008  24.238   7.732
 1521POPC   NC323171  15.658  18.816   9.547
 1521POPC   PO423172  15.984  19.444   9.589
 1521POPC   GL123173  16.070  19.241   9.202
 1521POPC   GL223174  15.817  19.060   9.136
 1521POPC   C1A23175  16.210  18.999   8.805
 1521POPC   D2A23176  16.068  18.871   8.377
 1521POPC   C3A23177  16.256  19.003   7.997
 1521POPC   C4A23178  16.030  19.108   7.625
 1521POPC   C1B23179  15.691  19.380   8.873
 1521POPC   C2B23180  15.793  19.347   8.472
 1521POPC   C3B23181  15.797  19.237   8.064
 1521POPC   C4B23182  15.597  19.429   7.736
 1522POPC   NC323183  33.833  39.709   9.527
 1522POPC   PO423184  33.965  40.307   9.337
 1522POPC   GL123185  33.806  40.133   9.042
 1522POPC   GL223186  33.559  39.935   9.081
 1522POPC   C1A23187  33.841  39.942   8.650
 1522POPC   D2A23188  34.168  39.783   8.408
 1522POPC   C3A23189  34.028  39.905   8.037
 1522POPC   C4A23190  33.849  39.763   7.669
 1522POPC   C1B23191  33.428  40.239   8.720
 1522POPC   C2B23192  33.606  40.252   8.292
 1522POPC   C3B23193  33.492  40.148   7.868
 1522POPC   C4B23194  33.503  40.024   7.428
 1523POPC   NC323195  28.326  10.148   9.441
 1523POPC   PO423196  28.588  10.729   9.653
 1523POPC   GL123197  28.468  10.733   9.219
 1523POPC   GL223198  28.116  10.637   9.209
 1523POPC   C1A23199  28.499  10.556   8.797
 1523POPC   D2A23200  28.746  10.646   8.429
 1523POPC   C3A23201  28.569  10.684   7.988
 1523POPC   C4A23202  28.168  10.737   7.738
 1523POPC   C1B23203  27.995  10.664   8.763
 1523POPC   C2B23204  28.213  10.548   8.356
 1523POPC   C3B23205  28.237  10.256   8.008
 1523POPC   C4B23206  28.022  10.224   7.572
 1524POPC   NC323207  27.231   0.122   9.356
 1524POPC   PO423208  27.569  44.494   9.405
 1524POPC   GL123209  27.689  44.691   9.014
 1524POPC   GL223210  27.919  44.985   9.029
 1524POPC   C1A23211  27.858  44.711   8.595
 1524POPC   D2A23212  27.665  44.512   8.264
 1524POPC   C3A23213  27.670  44.647   7.898
 1524POPC   C4A23214  27.912  44.292   7.748
 1524POPC   C1B23215  27.558   0.130   8.747
 1524POPC   C2B23216  27.334  44.824   8.511
 1524POPC   C3B23217  27.191  44.672   8.116
 1524POPC   C4B23218  27.179  44.786   7.729
 1525POPC   NC323219  26.286   4.777   9.523
 1525POPC   PO423220  25.616   4.763   9.391
 1525POPC   GL123221  25.958   5.014   9.222
 1525POPC   GL223222  25.922   5.366   9.116
 1525POPC   C1A23223  26.251   4.984   8.866
 1525POPC   D2A23224  26.249   5.216   8.472
 1525POPC   C3A23225  26.258   5.041   8.043
 1525POPC   C4A23226  26.177   5.332   7.692
 1525POPC   C1B23227  25.751   5.070   8.768
 1525POPC   C2B23228  25.804   4.993   8.353
 1525POPC   C3B23229  25.768   5.173   7.968
 1525POPC   C4B23230  25.746   5.019   7.557
 1526POPC   NC323231  36.229  21.799   9.439
 1526POPC   PO423232  35.923  22.388   9.347
 1526POPC   GL123233  36.069  22.064   9.013
 1526POPC   GL223234  36.410  21.889   8.978
 1526POPC   C1A23235  36.194  22.115   8.573
 1526POPC   D2A23236  36.081  22.391   8.242
 1526POPC   C3A23237  35.983  22.148   7.890
 1526POPC   C4A23238  36.042  22.108   7.454
 1526POPC   C1B23239  36.666  21.844   8.618
 1526POPC   C2B23240  36.571  22.042   8.201
 1526POPC   C3B23241  36.465  21.977   7.765
 1526POPC   C4B23242  36.402  21.757   7.358
 1527POPC   NC323243   1.301  40.959   9.419
 1527POPC   PO423244   0.614  40.833   9.483
 1527POPC   GL123245   0.876  40.855   9.126
 1527POPC   GL223246   1.096  40.555   9.168
 1527POPC   C1A23247   1.096  40.873   8.737
 1527POPC   D2A23248   1.293  40.921   8.346
 1527POPC   C3A23249   0.958  41.079   8.080
 1527POPC   C4A23250   0.980  41.185   7.672
 1527POPC   C1B23251   1.292  40.398   8.775
 1527POPC   C2B23252   1.137  40.441   8.363
 1527POPC   C3B23253   1.248  40.363   7.957
 1527POPC   C4B23254   1.245  40.766   7.760
 1528POPC   NC323255   8.799  11.192   9.435
 1528POPC   PO423256   9.333  11.666   9.314
 1528POPC   GL123257   9.105  11.397   9.094
 1528POPC   GL223258   8.753  11.479   9.026
 1528POPC   C1A23259   9.038  11.078   8.817
 1528POPC   D2A23260   9.194  11.006   8.405
 1528POPC   C3A23261   9.025  11.097   8.005
 1528POPC   C4A23262   9.295  11.009   7.666
 1528POPC   C1B23263   8.953  11.552   8.632
 1528POPC   C2B23264   9.127  11.540   8.232
 1528POPC   C3B23265   8.842  11.591   7.878
 1528POPC   C4B23266   8.592  11.428   7.522
 1529POPC   NC323267  10.974  19.150   9.497
 1529POPC   PO423268  11.682  19.295   9.520
 1529POPC   GL123269  11.448  19.160   9.161
 1529POPC   GL223270  11.155  19.344   9.085
 1529POPC   C1A23271  11.268  18.959   8.793
 1529POPC   D2A23272  10.942  18.848   8.472
 1529POPC   C3A23273  11.096  18.901   8.045
 1529POPC   C4A23274  11.239  18.931   7.621
 1529POPC   C1B23275  10.958  19.346   8.695
 1529POPC   C2B23276  11.189  19.344   8.301
 1529POPC   C3B23277  10.999  19.405   7.905
 1529POPC   C4B23278  10.793  19.650   7.585
 1530POPC   NC323279  35.876  32.657   9.393
 1530POPC   PO423280  36.405  33.031   9.632
 1530POPC   GL123281  36.242  32.992   9.215
 1530POPC   GL223282  35.881  33.084   9.161
 1530POPC   C1A23283  36.173  32.783   8.809
 1530POPC   D2A23284  35.973  32.838   8.391
 1530POPC   C3A23285  36.195  32.976   8.028
 1530POPC   C4A23286  36.297  32.894   7.630
 1530POPC   C1B23287  35.742  33.102   8.778
 1530POPC   C2B23288  35.856  33.340   8.426
 1530POPC   C3B23289  35.758  33.221   8.020
 1530POPC   C4B23290  35.993  33.303   7.662
 1531POPC   NC323291  22.576  21.929   9.344
 1531POPC   PO423292  22.962  22.474   9.348
 1531POPC   GL123293  22.936  22.143   9.061
 1531POPC   GL223294  23.187  21.904   9.022
 1531POPC   C1A23295  22.696  22.076   8.696
 1531POPC   D2A23296  22.758  22.373   8.349
 1531POPC   C3A23297  22.765  22.213   7.953
 1531POPC   C4A23298  22.448  22.188   7.623
 1531POPC   C1B23299  23.207  22.034   8.593
 1531POPC   C2B23300  23.375  21.943   8.176
 1531POPC   C3B23301  23.140  21.891   7.789
 1531POPC   C4B23302  22.953  22.165   7.479
 1532POPC   NC323303  28.773   8.523   9.634
 1532POPC   PO423304  28.279   8.076   9.713
 1532POPC   GL123305  28.362   8.186   9.280
 1532POPC   GL223306  28.688   8.199   9.249
 1532POPC   C1A23307  28.298   8.111   8.810
 1532POPC   D2A23308  28.132   8.161   8.361
 1532POPC   C3A23309  28.096   7.924   7.986
 1532POPC   C4A23310  28.141   8.291   7.731
 1532POPC   C1B23311  28.796   8.270   8.835
 1532POPC   C2B23312  28.601   8.375   8.443
 1532POPC   C3B23313  28.580   8.144   8.039
 1532POPC   C4B23314  28.616   8.217   7.600
 1533POPC   NC323315  24.473  13.016   9.620
 1533POPC   PO423316  24.669  13.284   9.128
 1533POPC   GL123317  24.370  12.938   9.112
 1533POPC   GL223318  24.557  12.674   8.926
 1533POPC   C1A23319  24.185  12.930   8.704
 1533POPC   D2A23320  24.428  12.814   8.321
 1533POPC   C3A23321  24.381  12.976   7.886
 1533POPC   C4A23322  24.510  12.904   7.459
 1533POPC   C1B23323  24.761  12.461   8.560
 1533POPC   C2B23324  25.085  12.657   8.288
 1533POPC   C3B23325  24.846  12.781   7.946
 1533POPC   C4B23326  24.638  12.492   7.713
 1534POPC   NC323327   6.002   0.436   9.590
 1534POPC   PO423328   5.344   0.024   9.555
 1534POPC   GL123329   5.653   0.312   9.226
 1534POPC   GL223330   5.931   0.623   9.149
 1534POPC   C1A23331   5.627   0.505   8.788
 1534POPC   D2A23332   5.754   0.335   8.388
 1534POPC   C3A23333   5.738   0.596   8.014
 1534POPC   C4A23334   5.545   0.520   7.587
 1534POPC   C1B23335   6.144   0.498   8.762
 1534POPC   C2B23336   6.256   0.556   8.318
 1534POPC   C3B23337   6.208   0.588   7.868
 1534POPC   C4B23338   6.418   0.745   7.552
 1535POPC   NC323339   0.438  29.774   9.371
 1535POPC   PO423340   0.431  29.151   9.459
 1535POPC   GL123341   0.592  29.094   9.084
 1535POPC   GL223342   0.790  29.389   9.141
 1535POPC   C1A23343   0.440  28.993   8.661
 1535POPC   D2A23344   0.095  29.084   8.353
 1535POPC   C3A23345   0.304  29.172   7.963
 1535POPC   C4A23346   0.582  28.871   7.751
 1535POPC   C1B23347   0.481  29.491   8.784
 1535POPC   C2B23348   0.603  29.367   8.360
 1535POPC   C3B23349   0.790  29.326   7.977
 1535POPC   C4B23350   0.657  29.558   7.652
 1536POPC   NC323351  19.137  34.413   9.482
 1536POPC   PO423352  18.845  35.058   9.569
 1536POPC   GL123353  18.895  34.790   9.220
 1536POPC   GL223354  19.241  34.763   9.129
 1536POPC   C1A23355  18.898  34.703   8.765
 1536POPC   D2A23356  18.789  34.517   8.378
 1536POPC   C3A23357  19.107  34.428   8.082
 1536POPC   C4A23358  18.973  34.596   7.721
 1536POPC   C1B23359  19.403  34.940   8.762
 1536POPC   C2B23360  19.453  34.848   8.320
 1536POPC   C3B23361  19.385  34.832   7.894
 1536POPC   C4B23362  19.134  35.067   7.581
 1537POPC   NC323363   1.093  26.879   9.477
 1537POPC   PO423364   0.648  26.404   9.115
 1537POPC   GL123365   1.004  26.677   9.018
 1537POPC   GL223366   1.268  26.521   8.972
 1537POPC   C1A23367   1.212  27.000   8.775
 1537POPC   D2A23368   1.245  26.959   8.310
 1537POPC   C3A23369   0.973  26.833   7.973
 1537POPC   C4A23370   0.814  27.158   7.706
 1537POPC   C1B23371   1.399  26.562   8.595
 1537POPC   C2B23372   1.667  26.643   8.274
 1537POPC   C3B23373   1.461  26.659   7.932
 1537POPC   C4B23374   1.368  27.079   7.804
 1538POPC   NC323375  38.848  16.487   9.541
 1538POPC   PO423376  38.173  16.558   9.575
 1538POPC   GL123377  38.294  16.609   9.165
 1538POPC   GL223378  38.614  16.490   9.069
 1538POPC   C1A23379  38.226  16.743   8.766
 1538POPC   D2A23380  38.484  16.722   8.412
 1538POPC   C3A23381  38.223  16.564   8.095
 1538POPC   C4A23382  37.966  16.659   7.741
 1538POPC   C1B23383  38.870  16.527   8.700
 1538POPC   C2B23384  39.022  16.671   8.324
 1538POPC   C3B23385  38.745  16.591   7.984
 1538POPC   C4B23386  38.477  16.876   7.767
 1539POPC   NC323387  31.277   7.498   9.513
 1539POPC   PO423388  31.887   7.315   9.468
 1539POPC   GL123389  31.542   7.362   9.100
 1539POPC   GL223390  31.239   7.643   9.041
 1539POPC   C1A23391  31.578   7.261   8.674
 1539POPC   D2A23392  31.772   7.363   8.298
 1539POPC   C3A23393  31.640   7.233   7.868
 1539POPC   C4A23394  31.592   7.251   7.415
 1539POPC   C1B23395  31.082   7.293   8.805
 1539POPC   C2B23396  31.182   7.132   8.374
 1539POPC   C3B23397  31.153   7.335   7.992
 1539POPC   C4B23398  30.955   7.452   7.648
 1540POPC   NC323399  30.683  11.028   9.396
 1540POPC   PO423400  30.493  11.662   9.435
 1540POPC   GL123401  30.820  11.607   9.093
 1540POPC   GL223402  31.057  11.284   9.089
 1540POPC   C1A23403  30.718  11.475   8.656
 1540POPC   D2A23404  30.372  11.297   8.378
 1540POPC   C3A23405  30.320  11.454   7.942
 1540POPC   C4A23406  30.603  11.498   7.569
 1540POPC   C1B23407  30.867  10.978   8.768
 1540POPC   C2B23408  30.790  10.962   8.314
 1540POPC   C3B23409  30.834  11.256   7.960
 1540POPC   C4B23410  31.091  11.304   7.572
 1541POPC   NC323411  35.146   2.276   9.810
 1541POPC   PO423412  35.167   1.833   9.297
 1541POPC   GL123413  35.298   2.024   8.990
 1541POPC   GL223414  35.137   2.341   9.066
 1541POPC   C1A23415  35.441   1.761   8.664
 1541POPC   D2A23416  35.569   1.883   8.274
 1541POPC   C3A23417  35.395   1.714   7.952
 1541POPC   C4A23418  35.503   1.866   7.593
 1541POPC   C1B23419  34.950   2.262   8.701
 1541POPC   C2B23420  35.061   2.014   8.359
 1541POPC   C3B23421  35.256   2.221   8.019
 1541POPC   C4B23422  35.200   2.393   7.605
 1542POPC   NC323423  22.815  12.258   9.609
 1542POPC   PO423424  23.282  11.816   9.405
 1542POPC   GL123425  23.015  12.066   9.141
 1542POPC   GL223426  23.196  12.354   9.111
 1542POPC   C1A23427  22.705  12.027   8.799
 1542POPC   D2A23428  22.778  11.891   8.370
 1542POPC   C3A23429  22.863  11.925   7.970
 1542POPC   C4A23430  22.665  12.188   7.689
 1542POPC   C1B23431  23.141  12.259   8.642
 1542POPC   C2B23432  23.089  12.314   8.188
 1542POPC   C3B23433  23.166  12.299   7.737
 1542POPC   C4B23434  23.308  12.510   7.352
 1543POPC   NC323435  13.636  34.624  10.187
 1543POPC   PO423436  13.334  34.548   9.639
 1543POPC   GL123437  13.535  34.406   9.253
 1543POPC   GL223438  13.561  34.691   9.021
 1543POPC   C1A23439  13.514  34.259   8.787
 1543POPC   D2A23440  13.487  34.250   8.314
 1543POPC   C3A23441  13.753  34.475   7.965
 1543POPC   C4A23442  13.704  34.409   7.489
 1543POPC   C1B23443  13.318  34.754   8.657
 1543POPC   C2B23444  13.441  34.756   8.282
 1543POPC   C3B23445  13.412  34.910   7.928
 1543POPC   C4B23446  13.767  34.903   7.652
 1544POPC   NC323447  30.280   4.801   9.492
 1544POPC   PO423448  30.846   5.304   9.459
 1544POPC   GL123449  30.718   5.031   9.128
 1544POPC   GL223450  30.522   4.713   9.056
 1544POPC   C1A23451  30.808   5.081   8.708
 1544POPC   D2A23452  31.018   5.125   8.317
 1544POPC   C3A23453  30.743   5.333   8.044
 1544POPC   C4A23454  30.517   5.097   7.762
 1544POPC   C1B23455  30.481   4.698   8.599
 1544POPC   C2B23456  30.474   4.743   8.147
 1544POPC   C3B23457  30.463   4.585   7.728
 1544POPC   C4B23458  30.325   4.814   7.355
 1545POPC   NC323459  19.991  34.927   9.557
 1545POPC   PO423460  19.667  35.565   9.681
 1545POPC   GL123461  19.859  35.533   9.284
 1545POPC   GL223462  19.675  35.231   9.241
 1545POPC   C1A23463  19.899  35.655   8.849
 1545POPC   D2A23464  20.190  35.561   8.555
 1545POPC   C3A23465  20.132  35.541   8.088
 1545POPC   C4A23466  19.945  35.565   7.670
 1545POPC   C1B23467  19.853  35.168   8.877
 1545POPC   C2B23468  19.743  35.278   8.459
 1545POPC   C3B23469  19.780  35.150   8.029
 1545POPC   C4B23470  19.621  35.182   7.602
 1546POPC   NC323471  20.801   3.858   9.561
 1546POPC   PO423472  20.362   3.423   9.400
 1546POPC   GL123473  20.486   3.709   9.122
 1546POPC   GL223474  20.821   3.617   9.134
 1546POPC   C1A23475  20.396   3.825   8.696
 1546POPC   D2A23476  20.177   3.778   8.317
 1546POPC   C3A23477  20.469   3.776   7.979
 1546POPC   C4A23478  20.719   3.431   7.804
 1546POPC   C1B23479  20.888   3.749   8.768
 1546POPC   C2B23480  20.797   3.635   8.369
 1546POPC   C3B23481  21.138   3.720   8.130
 1546POPC   C4B23482  21.128   3.838   7.752
 1547POPC   NC323483   0.783  15.887   9.454
 1547POPC   PO423484   0.225  15.766   9.758
 1547POPC   GL123485   0.348  15.897   9.241
 1547POPC   GL223486   0.293  16.238   9.098
 1547POPC   C1A23487   0.332  15.699   8.792
 1547POPC   D2A23488   0.097  15.721   8.389
 1547POPC   C3A23489   0.290  15.789   8.032
 1547POPC   C4A23490   0.089  15.797   7.649
 1547POPC   C1B23491   0.616  16.112   8.832
 1547POPC   C2B23492   0.587  15.969   8.415
 1547POPC   C3B23493   0.607  16.185   8.026
 1547POPC   C4B23494   0.739  16.167   7.609
 1548POPC   NC323495   0.973  40.019   9.503
 1548POPC   PO423496   1.520  40.451   9.467
 1548POPC   GL123497   1.354  40.102   9.177
 1548POPC   GL223498   0.986  40.066   9.016
 1548POPC   C1A23499   1.411  39.893   8.790
 1548POPC   D2A23500   1.429  40.040   8.389
 1548POPC   C3A23501   1.488  39.829   8.030
 1548POPC   C4A23502   1.607  40.041   7.643
 1548POPC   C1B23503   0.953  40.008   8.589
 1548POPC   C2B23504   0.981  39.968   8.156
 1548POPC   C3B23505   0.746  40.131   7.854
 1548POPC   C4B23506   0.789  40.230   7.430
 1549POPC   NC323507  28.052  26.701   9.868
 1549POPC   PO423508  27.461  26.937   9.561
 1549POPC   GL123509  27.309  27.112   9.173
 1549POPC   GL223510  27.628  27.179   9.063
 1549POPC   C1A23511  27.328  26.946   8.718
 1549POPC   D2A23512  27.398  26.526   8.513
 1549POPC   C3A23513  27.310  26.539   8.068
 1549POPC   C4A23514  27.396  26.699   7.650
 1549POPC   C1B23515  27.844  26.982   8.709
 1549POPC   C2B23516  27.758  26.979   8.266
 1549POPC   C3B23517  27.714  27.074   7.819
 1549POPC   C4B23518  27.353  27.309   7.722
 1550POPC   NC323519  43.611  39.786   9.522
 1550POPC   PO423520  44.030  40.282   9.713
 1550POPC   GL123521  43.887  40.106   9.225
 1550POPC   GL223522  43.882  39.715   9.109
 1550POPC   C1A23523  43.990  40.062   8.746
 1550POPC   D2A23524  43.946  40.222   8.289
 1550POPC   C3A23525  43.650  40.353   8.066
 1550POPC   C4A23526  43.641  40.261   7.679
 1550POPC   C1B23527  43.533  39.880   8.831
 1550POPC   C2B23528  43.612  39.861   8.366
 1550POPC   C3B23529  43.921  39.745   8.022
 1550POPC   C4B23530  43.927  39.490   7.611
 1551POPC   NC323531  23.516  18.525   9.788
 1551POPC   PO423532  24.011  18.051   9.627
 1551POPC   GL123533  23.918  18.110   9.184
 1551POPC   GL223534  23.576  18.267   9.178
 1551POPC   C1A23535  23.954  18.453   8.863
 1551POPC   D2A23536  23.964  18.633   8.414
 1551POPC   C3A23537  23.810  18.374   8.110
 1551POPC   C4A23538  23.959  18.035   7.902
 1551POPC   C1B23539  23.610  18.109   8.737
 1551POPC   C2B23540  23.587  17.943   8.305
 1551POPC   C3B23541  23.423  18.068   7.874
 1551POPC   C4B23542  23.369  18.344   7.499
 1552POPC   NC323543  44.797  43.384   9.422
 1552POPC   PO423544  44.645  44.061   9.604
 1552POPC   GL123545  44.778  44.144   9.205
 1552POPC   GL223546  44.680  43.817   9.118
 1552POPC   C1A23547  44.919  44.143   8.794
 1552POPC   D2A23548  44.862  43.861   8.428
 1552POPC   C3A23549  44.608  43.993   8.089
 1552POPC   C4A23550  44.730  43.956   7.690
 1552POPC   C1B23551  44.758  43.534   8.797
 1552POPC   C2B23552  44.555  43.422   8.433
 1552POPC   C3B23553  44.619  43.498   8.004
 1552POPC   C4B23554  44.309  43.668   7.770
 1553POPC   NC323555  13.212   4.924   9.542
 1553POPC   PO423556  13.894   4.847   9.339
 1553POPC   GL123557  13.762   5.048   9.007
 1553POPC   GL223558  13.467   5.183   9.146
 1553POPC   C1A23559  13.670   5.028   8.603
 1553POPC   D2A23560  13.487   4.869   8.235
 1553POPC   C3A23561  13.783   5.074   7.975
 1553POPC   C4A23562  13.992   4.981   7.595
 1553POPC   C1B23563  13.203   5.163   8.762
 1553POPC   C2B23564  13.234   5.317   8.342
 1553POPC   C3B23565  13.269   5.284   7.895
 1553POPC   C4B23566  13.539   5.213   7.537
 1554POPC   NC323567   9.109  16.195   9.441
 1554POPC   PO423568   8.467  16.263   9.379
 1554POPC   GL123569   8.756  15.902   9.159
 1554POPC   GL223570   9.110  15.772   9.151
 1554POPC   C1A23571   8.751  15.693   8.735
 1554POPC   D2A23572   8.837  15.972   8.354
 1554POPC   C3A23573   8.943  15.859   7.923
 1554POPC   C4A23574   8.919  15.885   7.486
 1554POPC   C1B23575   9.201  15.930   8.745
 1554POPC   C2B23576   9.277  15.705   8.369
 1554POPC   C3B23577   9.386  15.601   7.965
 1554POPC   C4B23578   9.355  15.613   7.541
 1555POPC   NC323579  23.859  34.651   9.600
 1555POPC   PO423580  23.214  34.341   9.499
 1555POPC   GL123581  23.596  34.398   9.215
 1555POPC   GL223582  23.955  34.284   9.282
 1555POPC   C1A23583  23.769  34.712   8.926
 1555POPC   D2A23584  23.759  34.985   8.567
 1555POPC   C3A23585  23.654  34.760   8.190
 1555POPC   C4A23586  23.873  34.812   7.806
 1555POPC   C1B23587  24.030  34.281   8.870
 1555POPC   C2B23588  24.016  34.506   8.482
 1555POPC   C3B23589  23.952  34.335   8.063
 1555POPC   C4B23590  23.758  34.337   7.695
 1556POPC   NC323591  37.863  29.657   9.594
 1556POPC   PO423592  37.426  30.233   9.607
 1556POPC   GL123593  37.546  29.944   9.322
 1556POPC   GL223594  37.833  30.096   9.192
 1556POPC   C1A23595  37.525  29.822   8.902
 1556POPC   D2A23596  37.521  30.031   8.500
 1556POPC   C3A23597  37.506  29.808   8.125
 1556POPC   C4A23598  37.500  29.907   7.690
 1556POPC   C1B23599  37.997  30.009   8.757
 1556POPC   C2B23600  37.988  29.918   8.329
 1556POPC   C3B23601  37.959  29.571   8.075
 1556POPC   C4B23602  38.135  29.471   7.695
 1557POPC   NC323603   7.080   3.716   9.142
 1557POPC   PO423604   7.551   3.572   9.553
 1557POPC   GL123605   7.504   3.422   9.115
 1557POPC   GL223606   7.744   3.696   9.070
 1557POPC   C1A23607   7.317   3.423   8.649
 1557POPC   D2A23608   7.419   3.728   8.334
 1557POPC   C3A23609   7.239   3.685   7.950
 1557POPC   C4A23610   7.230   3.297   7.732
 1557POPC   C1B23611   7.804   3.501   8.680
 1557POPC   C2B23612   7.936   3.618   8.273
 1557POPC   C3B23613   7.692   3.458   7.940
 1557POPC   C4B23614   7.575   3.635   7.554
 1558POPC   NC323615  44.492  33.918   9.690
 1558POPC   PO423616  44.914  33.413   9.577
 1558POPC   GL123617  44.782  33.759   9.292
 1558POPC   GL223618  44.409  33.741   9.204
 1558POPC   C1A23619  44.818  33.759   8.865
 1558POPC   D2A23620  44.624  33.843   8.495
 1558POPC   C3A23621  44.746  33.705   8.059
 1558POPC   C4A23622   0.006  33.640   7.677
 1558POPC   C1B23623  44.264  34.042   8.905
 1558POPC   C2B23624  44.190  34.101   8.462
 1558POPC   C3B23625  44.381  34.105   8.063
 1558POPC   C4B23626  44.286  33.767   7.774
 1559POPC   NC323627   9.034  31.998   9.823
 1559POPC   PO423628   9.216  32.389   9.305
 1559POPC   GL123629   8.824  32.316   9.141
 1559POPC   GL223630   8.720  31.942   9.202
 1559POPC   C1A23631   8.807  32.508   8.716
 1559POPC   D2A23632   9.121  32.561   8.376
 1559POPC   C3A23633   8.935  32.536   7.974
 1559POPC   C4A23634   8.528  32.413   7.810
 1559POPC   C1B23635   8.846  31.989   8.752
 1559POPC   C2B23636   8.697  32.121   8.315
 1559POPC   C3B23637   8.797  31.995   7.860
 1559POPC   C4B23638   8.694  31.910   7.392
 1560POPC   NC323639   6.280  32.751   9.353
 1560POPC   PO423640   6.937  32.978   9.385
 1560POPC   GL123641   6.671  33.107   9.074
 1560POPC   GL223642   6.642  32.761   9.000
 1560POPC   C1A23643   6.617  33.096   8.608
 1560POPC   D2A23644   6.677  33.355   8.263
 1560POPC   C3A23645   6.589  33.245   7.823
 1560POPC   C4A23646   6.193  33.088   7.648
 1560POPC   C1B23647   7.027  32.806   8.758
 1560POPC   C2B23648   7.101  32.885   8.343
 1560POPC   C3B23649   6.941  32.865   7.935
 1560POPC   C4B23650   6.564  32.719   7.730
 1561POPC   NC323651  36.973  29.431   9.471
 1561POPC   PO423652  36.883  28.745   9.360
 1561POPC   GL123653  37.116  29.050   9.081
 1561POPC   GL223654  36.922  29.356   8.969
 1561POPC   C1A23655  37.225  29.111   8.626
 1561POPC   D2A23656  36.911  29.349   8.384
 1561POPC   C3A23657  37.017  29.620   8.034
 1561POPC   C4A23658  37.118  29.369   7.682
 1561POPC   C1B23659  36.722  29.018   8.756
 1561POPC   C2B23660  36.773  28.802   8.385
 1561POPC   C3B23661  36.619  28.970   8.024
 1561POPC   C4B23662  36.666  29.122   7.606
 1562POPC   NC323663   7.435  44.690   9.891
 1562POPC   PO423664   7.709  44.252   9.391
 1562POPC   GL123665   7.512  44.572   9.154
 1562POPC   GL223666   7.743  44.825   9.120
 1562POPC   C1A23667   7.362  44.790   8.765
 1562POPC   D2A23668   7.249   0.030   8.379
 1562POPC   C3A23669   7.281  44.809   8.002
 1562POPC   C4A23670   7.303  44.607   7.594
 1562POPC   C1B23671   7.868  44.610   8.742
 1562POPC   C2B23672   7.832  44.677   8.304
 1562POPC   C3B23673   7.773  44.699   7.859
 1562POPC   C4B23674   7.702  44.849   7.447
 1563POPC   NC323675  37.330  24.356   9.713
 1563POPC   PO423676  37.549  24.592   9.125
 1563POPC   GL123677  37.694  24.385   8.882
 1563POPC   GL223678  37.499  24.091   9.148
 1563POPC   C1A23679  37.679  24.712   8.517
 1563POPC   D2A23680  37.414  24.919   8.270
 1563POPC   C3A23681  37.517  24.669   7.948
 1563POPC   C4A23682  37.791  24.300   7.902
 1563POPC   C1B23683  37.314  24.099   8.756
 1563POPC   C2B23684  37.527  24.219   8.370
 1563POPC   C3B23685  37.296  24.219   8.002
 1563POPC   C4B23686  37.127  24.420   7.653
 1564POPC   NC323687  29.807   0.445   9.600
 1564POPC   PO423688  30.352   0.161   9.366
 1564POPC   GL123689  30.067   0.310   9.098
 1564POPC   GL223690  29.815   0.596   9.102
 1564POPC   C1A23691  29.991   0.183   8.699
 1564POPC   D2A23692  29.906   0.393   8.317
 1564POPC   C3A23693  30.104   0.186   7.983
 1564POPC   C4A23694  29.982   0.131   7.564
 1564POPC   C1B23695  30.129   0.842   8.823
 1564POPC   C2B23696  30.293   0.800   8.378
 1564POPC   C3B23697  30.059   0.764   7.971
 1564POPC   C4B23698  30.137   0.762   7.525
 1565POPC   NC323699  25.585   4.224   9.322
 1565POPC   PO423700  26.168   4.313   9.558
 1565POPC   GL123701  26.430   4.328   9.182
 1565POPC   GL223702  26.255   4.045   9.028
 1565POPC   C1A23703  26.510   4.534   8.792
 1565POPC   D2A23704  26.257   4.670   8.439
 1565POPC   C3A23705  26.236   4.341   8.148
 1565POPC   C4A23706  26.395   4.407   7.769
 1565POPC   C1B23707  26.003   4.342   8.774
 1565POPC   C2B23708  25.786   4.472   8.381
 1565POPC   C3B23709  25.905   4.671   7.970
 1565POPC   C4B23710  25.861   4.516   7.565
 1566POPC   NC323711   0.251  37.920   9.696
 1566POPC   PO423712  44.563  37.673   9.573
 1566POPC   GL123713  44.447  37.732   9.122
 1566POPC   GL223714  44.308  38.050   9.006
 1566POPC   C1A23715  44.641  37.713   8.719
 1566POPC   D2A23716  44.748  37.826   8.292
 1566POPC   C3A23717  44.881  37.497   8.077
 1566POPC   C4A23718  44.793  37.466   7.691
 1566POPC   C1B23719  44.143  37.823   8.652
 1566POPC   C2B23720  44.119  37.876   8.214
 1566POPC   C3B23721  44.406  37.725   7.919
 1566POPC   C4B23722  44.401  37.677   7.482
 1567POPC   NC323723   2.484  37.678   9.474
 1567POPC   PO423724   3.104  37.817   9.549
 1567POPC   GL123725   2.858  37.856   9.147
 1567POPC   GL223726   2.628  37.537   9.012
 1567POPC   C1A23727   2.809  37.883   8.700
 1567POPC   D2A23728   2.757  37.653   8.317
 1567POPC   C3A23729   2.601  37.868   7.946
 1567POPC   C4A23730   2.812  37.767   7.547
 1567POPC   C1B23731   2.340  37.660   8.642
 1567POPC   C2B23732   2.304  37.495   8.169
 1567POPC   C3B23733   2.576  37.391   7.775
 1567POPC   C4B23734   2.559  37.421   7.280
 1568POPC   NC323735  14.505  17.261   9.398
 1568POPC   PO423736  14.676  17.847   9.386
 1568POPC   GL123737  14.353  17.666   9.099
 1568POPC   GL223738  14.068  17.871   9.013
 1568POPC   C1A23739  14.226  17.472   8.711
 1568POPC   D2A23740  14.340  17.321   8.305
 1568POPC   C3A23741  14.562  17.509   7.938
 1568POPC   C4A23742  14.867  17.386   7.603
 1568POPC   C1B23743  13.910  17.871   8.624
 1568POPC   C2B23744  13.934  17.641   8.269
 1568POPC   C3B23745  14.103  17.757   7.865
 1568POPC   C4B23746  14.162  17.784   7.414
 1569POPC   NC323747   7.805   7.979   9.744
 1569POPC   PO423748   8.351   8.237   9.518
 1569POPC   GL123749   8.110   8.198   9.192
 1569POPC   GL223750   8.177   7.865   9.143
 1569POPC   C1A23751   8.087   8.288   8.777
 1569POPC   D2A23752   7.777   8.454   8.535
 1569POPC   C3A23753   7.925   8.616   8.147
 1569POPC   C4A23754   8.001   8.351   7.796
 1569POPC   C1B23755   8.326   7.855   8.728
 1569POPC   C2B23756   8.081   8.037   8.329
 1569POPC   C3B23757   7.871   7.866   7.937
 1569POPC   C4B23758   7.941   7.952   7.465
 1570POPC   NC323759  35.878   4.631   9.445
 1570POPC   PO423760  35.841   5.315   9.504
 1570POPC   GL123761  35.973   5.034   9.143
 1570POPC   GL223762  35.703   4.799   9.022
 1570POPC   C1A23763  36.221   5.062   8.731
 1570POPC   D2A23764  36.461   5.098   8.326
 1570POPC   C3A23765  36.140   5.178   7.987
 1570POPC   C4A23766  35.840   5.119   7.642
 1570POPC   C1B23767  35.802   4.746   8.643
 1570POPC   C2B23768  36.087   4.729   8.326
 1570POPC   C3B23769  36.011   4.688   7.907
 1570POPC   C4B23770  36.248   4.799   7.558
 1571POPC   NC323771  10.566  42.494   9.653
 1571POPC   PO423772  10.851  41.988   9.584
 1571POPC   GL123773  10.495  42.188   9.245
 1571POPC   GL223774  10.414  42.571   9.179
 1571POPC   C1A23775  10.282  42.214   8.799
 1571POPC   D2A23776  10.104  42.159   8.333
 1571POPC   C3A23777  10.420  42.200   7.971
 1571POPC   C4A23778  10.705  42.449   7.698
 1571POPC   C1B23779  10.243  42.717   8.793
 1571POPC   C2B23780  10.271  42.650   8.400
 1571POPC   C3B23781  10.489  42.710   8.063
 1571POPC   C4B23782  10.234  42.647   7.705
 1572POPC   NC323783  11.897  29.007   9.593
 1572POPC   PO423784  12.113  29.604   9.481
 1572POPC   GL123785  11.961  29.331   9.180
 1572POPC   GL223786  12.227  29.076   9.196
 1572POPC   C1A23787  11.936  29.118   8.757
 1572POPC   D2A23788  11.680  29.062   8.364
 1572POPC   C3A23789  11.981  28.975   8.099
 1572POPC   C4A23790  12.143  29.165   7.785
 1572POPC   C1B23791  12.375  29.401   8.878
 1572POPC   C2B23792  12.313  29.371   8.426
 1572POPC   C3B23793  12.431  29.495   8.002
 1572POPC   C4B23794  12.523  29.350   7.517
 1573POPC   NC323795  37.233  42.388   9.347
 1573POPC   PO423796  36.600  42.234   9.504
 1573POPC   GL123797  36.699  42.203   9.115
 1573POPC   GL223798  36.967  41.999   9.205
 1573POPC   C1A23799  36.796  42.447   8.775
 1573POPC   D2A23800  36.655  42.512   8.374
 1573POPC   C3A23801  36.972  42.557   8.084
 1573POPC   C4A23802  36.802  42.403   7.750
 1573POPC   C1B23803  37.100  42.021   8.790
 1573POPC   C2B23804  37.006  42.103   8.367
 1573POPC   C3B23805  37.064  42.000   7.945
 1573POPC   C4B23806  37.243  41.773   7.595
 1574POPC   NC323807  22.386  31.768   9.410
 1574POPC   PO423808  21.857  31.453   9.771
 1574POPC   GL123809  22.106  31.394   9.271
 1574POPC   GL223810  22.377  31.306   9.049
 1574POPC   C1A23811  22.013  31.549   8.796
 1574POPC   D2A23812  22.144  31.758   8.392
 1574POPC   C3A23813  22.190  31.436   8.057
 1574POPC   C4A23814  21.915  31.321   7.718
 1574POPC   C1B23815  22.507  31.655   8.772
 1574POPC   C2B23816  22.634  31.594   8.354
 1574POPC   C3B23817  22.503  31.835   8.015
 1574POPC   C4B23818  22.433  31.615   7.628
 1575POPC   NC323819  15.701  30.598   9.648
 1575POPC   PO423820  16.205  30.800   9.455
 1575POPC   GL123821  15.972  30.502   9.165
 1575POPC   GL223822  15.588  30.385   9.201
 1575POPC   C1A23823  16.085  30.672   8.727
 1575POPC   D2A23824  16.303  30.722   8.303
 1575POPC   C3A23825  16.097  31.005   7.980
 1575POPC   C4A23826  16.036  31.088   7.536
 1575POPC   C1B23827  15.671  30.344   8.769
 1575POPC   C2B23828  15.817  30.444   8.360
 1575POPC   C3B23829  15.958  30.505   7.967
 1575POPC   C4B23830  15.706  30.714   7.660
 1576POPC   NC323831   0.978  10.760   9.534
 1576POPC   PO423832   1.300  10.100   9.627
 1576POPC   GL123833   1.294  10.271   9.187
 1576POPC   GL223834   1.258  10.658   9.133
 1576POPC   C1A23835   1.385  10.382   8.736
 1576POPC   D2A23836   1.478  10.422   8.302
 1576POPC   C3A23837   1.115  10.325   8.021
 1576POPC   C4A23838   1.068  10.145   7.652
 1576POPC   C1B23839   1.239  10.885   8.746
 1576POPC   C2B23840   1.423  10.938   8.354
 1576POPC   C3B23841   1.250  10.811   7.972
 1576POPC   C4B23842   1.172  10.633   7.534
 1577POPC   NC323843  25.184   3.643   9.532
 1577POPC   PO423844  25.326   3.095   9.761
 1577POPC   GL123845  25.249   3.271   9.208
 1577POPC   GL223846  25.312   3.664   9.041
 1577POPC   C1A23847  25.480   3.243   8.810
 1577POPC   D2A23848  25.278   3.285   8.435
 1577POPC   C3A23849  25.449   3.503   8.112
 1577POPC   C4A23850  25.272   3.404   7.732
 1577POPC   C1B23851  25.022   3.955   8.738
 1577POPC   C2B23852  24.928   3.925   8.264
 1577POPC   C3B23853  25.192   3.889   7.866
 1577POPC   C4B23854  25.596   3.807   7.657
 1578POPC   NC323855   3.796  28.599   9.523
 1578POPC   PO423856   3.606  27.970   9.643
 1578POPC   GL123857   3.485  28.254   9.286
 1578POPC   GL223858   3.825  28.258   9.165
 1578POPC   C1A23859   3.303  28.443   8.883
 1578POPC   D2A23860   3.053  28.634   8.547
 1578POPC   C3A23861   3.110  28.545   8.135
 1578POPC   C4A23862   3.252  28.377   7.763
 1578POPC   C1B23863   3.818  28.545   8.821
 1578POPC   C2B23864   3.675  28.555   8.396
 1578POPC   C3B23865   3.719  28.251   8.088
 1578POPC   C4B23866   3.882  28.179   7.709
 1579POPC   NC323867   9.604  14.026   9.706
 1579POPC   PO423868   9.801  13.428   9.572
 1579POPC   GL123869   9.616  13.573   9.193
 1579POPC   GL223870   9.940  13.497   9.065
 1579POPC   C1A23871   9.573  13.774   8.764
 1579POPC   D2A23872   9.754  13.792   8.352
 1579POPC   C3A23873   9.539  13.727   7.934
 1579POPC   C4A23874   9.448  13.548   7.512
 1579POPC   C1B23875  10.113  13.631   8.715
 1579POPC   C2B23876  10.081  13.402   8.351
 1579POPC   C3B23877  10.080  13.535   7.964
 1579POPC   C4B23878   9.936  13.617   7.581
 1580POPC   NC323879  38.715  39.076   9.558
 1580POPC   PO423880  38.496  39.781   9.749
 1580POPC   GL123881  38.500  39.576   9.303
 1580POPC   GL223882  38.239  39.280   9.280
 1580POPC   C1A23883  38.496  39.475   8.850
 1580POPC   D2A23884  38.612  39.124   8.561
 1580POPC   C3A23885  38.559  39.248   8.136
 1580POPC   C4A23886  38.579  39.116   7.720
 1580POPC   C1B23887  38.106  39.094   8.888
 1580POPC   C2B23888  38.107  39.217   8.456
 1580POPC   C3B23889  38.048  39.079   8.036
 1580POPC   C4B23890  38.037  38.998   7.595
 1581POPC   NC323891  18.445  23.201   9.416
 1581POPC   PO423892  18.081  22.649   9.369
 1581POPC   GL123893  18.203  22.899   9.055
 1581POPC   GL223894  17.999  23.177   9.102
 1581POPC   C1A23895  18.270  22.761   8.648
 1581POPC   D2A23896  18.257  22.481   8.334
 1581POPC   C3A23897  18.328  22.667   7.951
 1581POPC   C4A23898  17.934  22.786   7.800
 1581POPC   C1B23899  18.072  23.241   8.658
 1581POPC   C2B23900  18.082  23.033   8.244
 1581POPC   C3B23901  18.236  23.195   7.854
 1581POPC   C4B23902  18.371  23.443   7.506
 1582POPC   NC323903  11.059   8.844   9.534
 1582POPC   PO423904  10.474   9.208   9.620
 1582POPC   GL123905  10.583   9.159   9.203
 1582POPC   GL223906  10.453   8.821   9.166
 1582POPC   C1A23907  10.418   9.262   8.791
 1582POPC   D2A23908  10.293   9.035   8.411
 1582POPC   C3A23909  10.454   9.134   8.004
 1582POPC   C4A23910  10.399   9.237   7.556
 1582POPC   C1B23911  10.632   8.785   8.742
 1582POPC   C2B23912  10.811   8.909   8.314
 1582POPC   C3B23913  10.773   8.721   7.888
 1582POPC   C4B23914  10.719   8.850   7.440
 1583POPC   NC323915  10.771  16.224   9.460
 1583POPC   PO423916  10.400  15.730   9.752
 1583POPC   GL123917  10.381  15.845   9.293
 1583POPC   GL223918  10.695  15.752   9.202
 1583POPC   C1A23919  10.485  16.038   8.856
 1583POPC   D2A23920  10.697  15.867   8.493
 1583POPC   C3A23921  10.610  16.112   8.110
 1583POPC   C4A23922  10.786  16.056   7.709
 1583POPC   C1B23923  10.413  15.538   8.885
 1583POPC   C2B23924  10.217  15.638   8.501
 1583POPC   C3B23925  10.408  15.624   8.090
 1583POPC   C4B23926  10.231  15.566   7.701
 1584POPC   NC323927  25.140  10.993   9.317
 1584POPC   PO423928  25.297  11.543   9.661
 1584POPC   GL123929  25.455  11.456   9.240
 1584POPC   GL223930  25.603  11.120   9.111
 1584POPC   C1A23931  25.469  11.572   8.815
 1584POPC   D2A23932  25.612  11.367   8.432
 1584POPC   C3A23933  25.413  11.555   8.095
 1584POPC   C4A23934  25.278  11.449   7.695
 1584POPC   C1B23935  25.648  10.854   8.705
 1584POPC   C2B23936  25.668  10.821   8.246
 1584POPC   C3B23937  25.618  11.116   7.908
 1584POPC   C4B23938  25.375  10.987   7.504
 1585POPC   NC323939  10.892   7.224   9.471
 1585POPC   PO423940  11.492   7.522   9.292
 1585POPC   GL123941  11.142   7.379   9.029
 1585POPC   GL223942  10.801   7.479   9.045
 1585POPC   C1A23943  11.195   7.260   8.621
 1585POPC   D2A23944  11.549   7.280   8.350
 1585POPC   C3A23945  11.473   7.439   7.951
 1585POPC   C4A23946  11.254   7.089   7.798
 1585POPC   C1B23947  10.859   7.690   8.665
 1585POPC   C2B23948  11.080   7.617   8.261
 1585POPC   C3B23949  10.908   7.453   7.865
 1585POPC   C4B23950  10.908   7.531   7.405
 1586POPC   NC323951  38.575  32.743   9.455
 1586POPC   PO423952  38.530  33.363   9.679
 1586POPC   GL123953  38.727  33.247   9.248
 1586POPC   GL223954  38.468  33.031   9.062
 1586POPC   C1A23955  38.837  33.186   8.777
 1586POPC   D2A23956  38.545  32.956   8.467
 1586POPC   C3A23957  38.627  33.080   8.007
 1586POPC   C4A23958  38.915  33.011   7.651
 1586POPC   C1B23959  38.139  33.158   8.789
 1586POPC   C2B23960  38.098  33.156   8.326
 1586POPC   C3B23961  38.132  33.202   7.880
 1586POPC   C4B23962  38.197  32.870   7.587
 1587POPC   NC323963  25.303  41.382   9.532
 1587POPC   PO423964  24.835  41.093   9.200
 1587POPC   GL123965  25.158  41.386   9.035
 1587POPC   GL223966  25.557  41.354   9.113
 1587POPC   C1A23967  25.055  41.565   8.640
 1587POPC   D2A23968  24.778  41.563   8.252
 1587POPC   C3A23969  24.953  41.358   7.950
 1587POPC   C4A23970  25.376  41.451   7.859
 1587POPC   C1B23971  25.565  41.564   8.744
 1587POPC   C2B23972  25.450  41.369   8.368
 1587POPC   C3B23973  25.718  41.172   8.098
 1587POPC   C4B23974  25.895  41.394   7.752
 1588POPC   NC323975  17.401  19.102   9.480
 1588POPC   PO423976  17.273  18.491   9.176
 1588POPC   GL123977  17.306  18.858   9.034
 1588POPC   GL223978  17.620  18.879   9.066
 1588POPC   C1A23979  17.249  19.108   8.679
 1588POPC   D2A23980  17.097  19.020   8.245
 1588POPC   C3A23981  17.255  19.133   7.815
 1588POPC   C4A23982  17.671  18.986   7.634
 1588POPC   C1B23983  17.787  18.917   8.690
 1588POPC   C2B23984  17.787  19.297   8.451
 1588POPC   C3B23985  17.675  19.349   8.034
 1588POPC   C4B23986  17.845  19.456   7.657
 1589POPC   NC323987   9.827  19.840   9.929
 1589POPC   PO423988   9.569  20.431   9.598
 1589POPC   GL123989   9.752  20.210   9.203
 1589POPC   GL223990   9.786  19.826   9.181
 1589POPC   C1A23991   9.732  20.090   8.761
 1589POPC   D2A23992   9.470  19.997   8.410
 1589POPC   C3A23993   9.692  20.154   8.062
 1589POPC   C4A23994   9.630  20.057   7.637
 1589POPC   C1B23995  10.001  19.652   8.783
 1589POPC   C2B23996   9.965  19.803   8.353
 1589POPC   C3B23997  10.094  19.810   7.911
 1589POPC   C4B23998   9.971  19.719   7.472
 1590POPC   NC323999  26.695  30.851   9.455
 1590POPC   PO424000  27.003  30.244   9.567
 1590POPC   GL124001  27.090  30.475   9.193
 1590POPC   GL224002  27.023  30.819   9.054
 1590POPC   C1A24003  26.884  30.403   8.803
 1590POPC   D2A24004  27.021  30.286   8.415
 1590POPC   C3A24005  27.146  30.585   8.112
 1590POPC   C4A24006  26.989  30.387   7.743
 1590POPC   C1B24007  26.836  30.957   8.695
 1590POPC   C2B24008  26.545  30.833   8.388
 1590POPC   C3B24009  26.629  30.725   7.977
 1590POPC   C4B24010  26.949  30.905   7.748
 1591POPC   NC324011  24.982  18.747   9.617
 1591POPC   PO424012  25.512  19.020   9.448
 1591POPC   GL124013  25.183  18.871   9.169
 1591POPC   GL224014  24.947  19.165   9.162
 1591POPC   C1A24015  25.227  18.814   8.752
 1591POPC   D2A24016  25.128  19.031   8.378
 1591POPC   C3A24017  25.271  18.843   8.008
 1591POPC   C4A24018  25.077  18.713   7.647
 1591POPC   C1B24019  25.242  19.325   8.818
 1591POPC   C2B24020  25.537  19.403   8.460
 1591POPC   C3B24021  25.506  19.284   8.032
 1591POPC   C4B24022  25.168  19.253   7.751
 1592POPC   NC324023  22.211  24.222   9.823
 1592POPC   PO424024  21.759  24.638   9.925
 1592POPC   GL124025  21.917  24.451   9.447
 1592POPC   GL224026  22.253  24.312   9.325
 1592POPC   C1A24027  21.884  24.444   8.970
 1592POPC   D2A24028  21.942  24.436   8.497
 1592POPC   C3A24029  21.719  24.470   8.078
 1592POPC   C4A24030  21.911  24.484   7.686
 1592POPC   C1B24031  22.359  24.211   8.898
 1592POPC   C2B24032  22.480  24.335   8.474
 1592POPC   C3B24033  22.260  24.386   8.070
 1592POPC   C4B24034  22.318  24.150   7.690
 1593POPC   NC324035  35.593  37.568   9.542
 1593POPC   PO424036  35.049  37.198   9.209
 1593POPC   GL124037  35.394  37.436   9.070
 1593POPC   GL224038  35.358  37.804   9.120
 1593POPC   C1A24039  35.346  37.571   8.654
 1593POPC   D2A24040  35.297  37.640   8.243
 1593POPC   C3A24041  35.131  37.324   7.974
 1593POPC   C4A24042  35.369  37.562   7.711
 1593POPC   C1B24043  35.142  38.020   8.778
 1593POPC   C2B24044  34.974  38.041   8.367
 1593POPC   C3B24045  35.110  38.015   7.942
 1593POPC   C4B24046  35.494  38.061   7.758
 1594POPC   NC324047  31.914  23.442   9.447
 1594POPC   PO424048  31.316  23.715   9.592
 1594POPC   GL124049  31.308  23.910   9.201
 1594POPC   GL224050  31.664  23.814   9.123
 1594POPC   C1A24051  31.246  23.812   8.790
 1594POPC   D2A24052  31.547  23.770   8.483
 1594POPC   C3A24053  31.363  23.745   8.116
 1594POPC   C4A24054  31.287  23.849   7.729
 1594POPC   C1B24055  31.815  23.515   8.820
 1594POPC   C2B24056  32.021  23.565   8.440
 1594POPC   C3B24057  31.871  23.717   8.090
 1594POPC   C4B24058  31.727  23.610   7.696
 1595POPC   NC324059  10.923  31.331   9.411
 1595POPC   PO424060  10.306  31.597   9.522
 1595POPC   GL124061  10.432  31.360   9.203
 1595POPC   GL224062  10.666  31.576   9.047
 1595POPC   C1A24063  10.394  31.195   8.805
 1595POPC   D2A24064  10.468  31.447   8.454
 1595POPC   C3A24065  10.394  31.249   8.072
 1595POPC   C4A24066  10.097  31.335   7.736
 1595POPC   C1B24067  10.910  31.382   8.731
 1595POPC   C2B24068  10.951  31.438   8.298
 1595POPC   C3B24069  10.664  31.674   8.017
 1595POPC   C4B24070  10.594  31.446   7.621
 1596POPC   NC324071   2.328   0.843   9.368
 1596POPC   PO424072   1.985   1.420   9.514
 1596POPC   GL124073   2.076   1.230   9.131
 1596POPC   GL224074   1.834   1.042   9.034
 1596POPC   C1A24075   2.165   1.294   8.687
 1596POPC   D2A24076   2.257   1.286   8.241
 1596POPC   C3A24077   2.011   1.537   7.910
 1596POPC   C4A24078   2.122   1.652   7.471
 1596POPC   C1B24079   1.878   0.864   8.663
 1596POPC   C2B24080   1.752   0.708   8.299
 1596POPC   C3B24081   1.738   0.993   7.981
 1596POPC   C4B24082   2.129   1.003   7.843
 1597POPC   NC324083  28.693  28.445   9.475
 1597POPC   PO424084  29.314  28.236   9.530
 1597POPC   GL124085  29.262  28.434   9.127
 1597POPC   GL224086  28.975  28.619   9.087
 1597POPC   C1A24087  29.231  28.283   8.711
 1597POPC   D2A24088  29.211  27.974   8.393
 1597POPC   C3A24089  29.328  28.144   8.009
 1597POPC   C4A24090  28.990  28.326   7.802
 1597POPC   C1B24091  29.058  28.768   8.677
 1597POPC   C2B24092  28.950  28.602   8.267
 1597POPC   C3B24093  28.690  28.728   7.889
 1597POPC   C4B24094  28.908  28.694   7.461
 1598POPC   NC324095  29.340  24.424   9.598
 1598POPC   PO424096  28.660  24.599   9.489
 1598POPC   GL124097  29.007  24.442   9.202
 1598POPC   GL224098  29.356  24.639   9.156
 1598POPC   C1A24099  29.087  24.194   8.825
 1598POPC   D2A24100  29.121  24.362   8.415
 1598POPC   C3A24101  29.081  24.182   8.030
 1598POPC   C4A24102  29.133  24.496   7.722
 1598POPC   C1B24103  29.189  24.728   8.781
 1598POPC   C2B24104  29.484  24.722   8.436
 1598POPC   C3B24105  29.399  24.809   8.048
 1598POPC   C4B24106  29.537  24.795   7.662
 1599POPC   NC324107  30.999  28.606   9.476
 1599POPC   PO424108  30.573  29.147   9.502
 1599POPC   GL124109  30.577  29.256   9.110
 1599POPC   GL224110  30.430  28.959   9.026
 1599POPC   C1A24111  30.656  29.317   8.682
 1599POPC   D2A24112  30.861  29.155   8.321
 1599POPC   C3A24113  30.629  29.256   7.989
 1599POPC   C4A24114  30.627  29.494   7.621
 1599POPC   C1B24115  30.445  28.718   8.676
 1599POPC   C2B24116  30.494  28.802   8.261
 1599POPC   C3B24117  30.650  28.758   7.869
 1599POPC   C4B24118  30.830  29.016   7.527
 1600POPC   NC324119   7.221  35.798   9.440
 1600POPC   PO424120   7.406  35.140   9.430
 1600POPC   GL124121   7.561  35.294   9.036
 1600POPC   GL224122   7.551  35.622   9.077
 1600POPC   C1A24123   7.501  35.406   8.619
 1600POPC   D2A24124   7.327  35.183   8.309
 1600POPC   C3A24125   7.472  35.234   7.928
 1600POPC   C4A24126   7.245  35.411   7.590
 1600POPC   C1B24127   7.695  35.867   8.742
 1600POPC   C2B24128   7.767  35.742   8.321
 1600POPC   C3B24129   7.505  35.764   7.975
 1600POPC   C4B24130   7.427  35.888   7.580
 1601POPC   NC324131   4.393   2.269   9.725
 1601POPC   PO424132   4.189   1.687   9.565
 1601POPC   GL124133   4.302   1.886   9.136
 1601POPC   GL224134   4.645   1.901   9.010
 1601POPC   C1A24135   4.088   2.148   8.816
 1601POPC   D2A24136   4.105   2.220   8.403
 1601POPC   C3A24137   4.051   1.896   8.140
 1601POPC   C4A24138   3.969   1.963   7.739
 1601POPC   C1B24139   4.563   2.195   8.669
 1601POPC   C2B24140   4.527   1.912   8.376
 1601POPC   C3B24141   4.648   1.704   8.041
 1601POPC   C4B24142   4.503   1.919   7.706
 1602POPC   NC324143  25.219  17.834   9.286
 1602POPC   PO424144  25.288  18.399   9.685
 1602POPC   GL124145  25.260  18.354   9.258
 1602POPC   GL224146  24.895  18.324   9.309
 1602POPC   C1A24147  25.365  18.317   8.788
 1602POPC   D2A24148  25.319  18.500   8.369
 1602POPC   C3A24149  25.282  18.328   7.959
 1602POPC   C4A24150  25.620  18.269   7.692
 1602POPC   C1B24151  24.889  18.443   8.893
 1602POPC   C2B24152  24.849  18.375   8.475
 1602POPC   C3B24153  24.853  18.586   8.117
 1602POPC   C4B24154  24.702  18.411   7.779
 1603POPC   NC324155  16.889  18.414   9.400
 1603POPC   PO424156  16.413  17.982   9.305
 1603POPC   GL124157  16.577  18.283   9.026
 1603POPC   GL224158  16.443  18.616   9.093
 1603POPC   C1A24159  16.871  18.242   8.695
 1603POPC   D2A24160  17.020  17.863   8.513
 1603POPC   C3A24161  17.180  18.007   8.140
 1603POPC   C4A24162  16.982  18.133   7.768
 1603POPC   C1B24163  16.380  18.529   8.640
 1603POPC   C2B24164  16.578  18.341   8.259
 1603POPC   C3B24165  16.528  18.348   7.810
 1603POPC   C4B24166  16.348  18.692   7.603
 1604POPC   NC324167  25.929  21.782   9.505
 1604POPC   PO424168  26.343  21.312   9.391
 1604POPC   GL124169  25.935  21.413   9.155
 1604POPC   GL224170  25.645  21.168   9.207
 1604POPC   C1A24171  26.008  21.578   8.749
 1604POPC   D2A24172  26.307  21.427   8.422
 1604POPC   C3A24173  26.170  21.441   7.997
 1604POPC   C4A24174  26.108  21.137   7.630
 1604POPC   C1B24175  25.804  21.081   8.789
 1604POPC   C2B24176  25.767  21.282   8.399
 1604POPC   C3B24177  25.751  21.152   8.003
 1604POPC   C4B24178  25.552  21.179   7.658
 1605POPC   NC324179  42.876  43.227   9.494
 1605POPC   PO424180  43.476  42.859   9.501
 1605POPC   GL124181  43.302  43.197   9.208
 1605POPC   GL224182  43.076  42.961   9.018
 1605POPC   C1A24183  43.045  43.443   8.864
 1605POPC   D2A24184  43.109  43.550   8.427
 1605POPC   C3A24185  43.100  43.185   8.194
 1605POPC   C4A24186  43.050  43.027   7.749
 1605POPC   C1B24187  42.781  42.970   8.642
 1605POPC   C2B24188  42.659  42.944   8.188
 1605POPC   C3B24189  42.630  42.730   7.801
 1605POPC   C4B24190  42.819  42.745   7.377
 1606POPC   NC324191  13.132   5.917   9.364
 1606POPC   PO424192  12.610   5.439   9.489
 1606POPC   GL124193  12.770   5.686   9.116
 1606POPC   GL224194  12.855   6.046   8.976
 1606POPC   C1A24195  13.088   5.663   8.762
 1606POPC   D2A24196  12.997   5.950   8.431
 1606POPC   C3A24197  13.051   5.737   8.061
 1606POPC   C4A24198  12.848   5.780   7.685
 1606POPC   C1B24199  12.967   6.380   8.744
 1606POPC   C2B24200  12.933   6.513   8.346
 1606POPC   C3B24201  12.935   6.247   7.981
 1606POPC   C4B24202  12.614   6.345   7.721
 1607POPC   NC324203   5.291  18.111   9.524
 1607POPC   PO424204   4.672  18.306   9.503
 1607POPC   GL124205   4.872  18.133   9.159
 1607POPC   GL224206   4.800  18.476   9.037
 1607POPC   C1A24207   5.234  17.980   8.890
 1607POPC   D2A24208   5.302  17.983   8.431
 1607POPC   C3A24209   5.382  18.279   8.075
 1607POPC   C4A24210   5.123  18.166   7.759
 1607POPC   C1B24211   4.928  18.295   8.658
 1607POPC   C2B24212   4.912  18.261   8.240
 1607POPC   C3B24213   4.827  18.527   7.932
 1607POPC   C4B24214   4.666  18.545   7.489
 1608POPC   NC324215  25.324  12.962   9.527
 1608POPC   PO424216  24.744  12.635   9.706
 1608POPC   GL124217  24.913  12.830   9.253
 1608POPC   GL224218  25.264  12.673   9.128
 1608POPC   C1A24219  24.990  12.888   8.748
 1608POPC   D2A24220  24.976  13.169   8.365
 1608POPC   C3A24221  25.236  13.090   8.002
 1608POPC   C4A24222  25.119  12.988   7.560
 1608POPC   C1B24223  25.464  12.985   8.876
 1608POPC   C2B24224  25.474  13.018   8.472
 1608POPC   C3B24225  25.710  12.881   8.148
 1608POPC   C4B24226  25.606  12.903   7.712
 1609POPC   NC324227   9.419  17.078   9.453
 1609POPC   PO424228   9.288  17.809   9.414
 1609POPC   GL124229   9.565  17.531   9.241
 1609POPC   GL224230   9.825  17.753   9.153
 1609POPC   C1A24231   9.683  17.304   8.881
 1609POPC   D2A24232   9.743  17.498   8.515
 1609POPC   C3A24233   9.533  17.424   8.152
 1609POPC   C4A24234   9.792  17.312   7.821
 1609POPC   C1B24235  10.033  17.838   8.780
 1609POPC   C2B24236   9.888  17.962   8.374
 1609POPC   C3B24237   9.816  17.811   7.955
 1609POPC   C4B24238  10.164  17.699   7.694
 1610POPC   NC324239  27.146   4.944   9.502
 1610POPC   PO424240  26.490   5.231   9.525
 1610POPC   GL124241  26.779   5.221   9.210
 1610POPC   GL224242  26.751   4.861   9.136
 1610POPC   C1A24243  26.662   5.289   8.793
 1610POPC   D2A24244  26.677   4.971   8.463
 1610POPC   C3A24245  26.695   5.269   8.151
 1610POPC   C4A24246  26.683   5.209   7.728
 1610POPC   C1B24247  27.055   4.979   8.793
 1610POPC   C2B24248  27.148   5.145   8.347
 1610POPC   C3B24249  27.057   4.915   7.946
 1610POPC   C4B24250  27.226   4.693   7.555
 1611POPC   NC324251  30.287   6.399   9.418
 1611POPC   PO424252  29.866   6.940   9.525
 1611POPC   GL124253  29.903   6.694   9.152
 1611POPC   GL224254  30.214   6.649   9.000
 1611POPC   C1A24255  29.787   6.528   8.743
 1611POPC   D2A24256  29.751   6.269   8.383
 1611POPC   C3A24257  29.914   6.437   7.998
 1611POPC   C4A24258  29.797   6.740   7.704
 1611POPC   C1B24259  30.367   6.753   8.633
 1611POPC   C2B24260  30.095   6.781   8.318
 1611POPC   C3B24261  30.189   6.968   7.945
 1611POPC   C4B24262  30.363   6.643   7.659
 1612POPC   NC324263  35.080  27.038   9.445
 1612POPC   PO424264  35.354  26.458   9.598
 1612POPC   GL124265  35.427  26.657   9.177
 1612POPC   GL224266  35.574  26.973   9.157
 1612POPC   C1A24267  35.310  26.811   8.741
 1612POPC   D2A24268  35.468  26.599   8.360
 1612POPC   C3A24269  35.317  26.634   7.934
 1612POPC   C4A24270  35.563  26.503   7.540
 1612POPC   C1B24271  35.618  27.224   8.801
 1612POPC   C2B24272  35.696  27.059   8.417
 1612POPC   C3B24273  35.580  27.127   8.037
 1612POPC   C4B24274  35.448  27.033   7.665
 1613POPC   NC324275  14.910   4.249   9.595
 1613POPC   PO424276  15.381   4.643   9.396
 1613POPC   GL124277  15.073   4.387   9.111
 1613POPC   GL224278  14.812   4.102   9.131
 1613POPC   C1A24279  15.049   4.326   8.668
 1613POPC   D2A24280  15.371   4.312   8.374
 1613POPC   C3A24281  15.261   4.451   7.956
 1613POPC   C4A24282  15.513   4.417   7.576
 1613POPC   C1B24283  14.727   3.888   8.757
 1613POPC   C2B24284  14.887   3.934   8.352
 1613POPC   C3B24285  14.775   3.828   7.929
 1613POPC   C4B24286  14.947   4.124   7.720
 1614POPC   NC324287  22.421  25.478   9.506
 1614POPC   PO424288  21.834  25.230   9.359
 1614POPC   GL124289  22.219  25.188   9.119
 1614POPC   GL224290  22.189  24.836   9.098
 1614POPC   C1A24291  22.372  25.248   8.694
 1614POPC   D2A24292  22.121  25.311   8.312
 1614POPC   C3A24293  22.324  25.346   7.902
 1614POPC   C4A24294  22.536  25.218   7.484
 1614POPC   C1B24295  21.945  24.954   8.721
 1614POPC   C2B24296  21.752  24.914   8.336
 1614POPC   C3B24297  22.046  24.886   7.997
 1614POPC   C4B24298  22.052  25.065   7.579
 1615POPC   NC324299  29.743  30.002   9.529
 1615POPC   PO424300  30.346  29.779   9.270
 1615POPC   GL124301  29.985  29.860   9.050
 1615POPC   GL224302  29.932  30.199   9.097
 1615POPC   C1A24303  30.118  29.779   8.614
 1615POPC   D2A24304  30.444  29.663   8.308
 1615POPC   C3A24305  30.208  29.541   7.959
 1615POPC   C4A24306  29.898  29.778   7.797
 1615POPC   C1B24307  30.138  30.305   8.748
 1615POPC   C2B24308  30.021  30.224   8.346
 1615POPC   C3B24309  29.710  30.206   8.046
 1615POPC   C4B24310  29.967  30.263   7.686
 1616POPC   NC324311  31.393  11.149   9.544
 1616POPC   PO424312  31.286  11.775   9.409
 1616POPC   GL124313  31.521  11.547   9.097
 1616POPC   GL224314  31.612  11.195   9.095
 1616POPC   C1A24315  31.441  11.601   8.658
 1616POPC   D2A24316  31.184  11.264   8.483
 1616POPC   C3A24317  31.309  11.097   8.095
 1616POPC   C4A24318  31.527  11.392   7.841
 1616POPC   C1B24319  31.693  11.155   8.681
 1616POPC   C2B24320  31.925  11.403   8.376
 1616POPC   C3B24321  32.023  11.413   7.940
 1616POPC   C4B24322  31.905  10.996   7.785
 1617POPC   NC324323  13.363  29.308   9.442
 1617POPC   PO424324  12.663  29.178   9.556
 1617POPC   GL124325  12.729  29.170   9.159
 1617POPC   GL224326  12.961  29.433   9.148
 1617POPC   C1A24327  12.562  28.924   8.801
 1617POPC   D2A24328  12.743  28.857   8.402
 1617POPC   C3A24329  12.598  29.011   8.033
 1617POPC   C4A24330  12.502  28.821   7.645
 1617POPC   C1B24331  13.031  29.150   8.769
 1617POPC   C2B24332  13.221  29.043   8.401
 1617POPC   C3B24333  13.211  29.213   8.020
 1617POPC   C4B24334  12.949  29.138   7.681
 1618POPC   NC324335  21.961  39.421   9.435
 1618POPC   PO424336  22.412  39.007   9.271
 1618POPC   GL124337  22.254  39.274   9.013
 1618POPC   GL224338  21.915  39.203   8.989
 1618POPC   C1A24339  22.231  39.293   8.593
 1618POPC   D2A24340  22.482  39.470   8.307
 1618POPC   C3A24341  22.328  39.260   7.980
 1618POPC   C4A24342  22.380  39.356   7.579
 1618POPC   C1B24343  21.777  39.522   8.726
 1618POPC   C2B24344  21.931  39.626   8.313
 1618POPC   C3B24345  21.871  39.491   7.915
 1618POPC   C4B24346  21.554  39.482   7.642
 1619POPC   NC324347  43.828  29.780   9.520
 1619POPC   PO424348  44.163  30.456   9.612
 1619POPC   GL124349  43.871  30.248   9.309
 1619POPC   GL224350  44.052  29.972   9.117
 1619POPC   C1A24351  43.651  30.136   8.899
 1619POPC   D2A24352  43.851  29.982   8.519
 1619POPC   C3A24353  43.626  29.885   8.137
 1619POPC   C4A24354  43.669  30.076   7.748
 1619POPC   C1B24355  44.271  29.826   8.759
 1619POPC   C2B24356  44.223  29.687   8.315
 1619POPC   C3B24357  44.131  29.882   7.927
 1619POPC   C4B24358  44.260  29.790   7.504
 1620POPC   NC324359  34.758  22.317   9.458
 1620POPC   PO424360  34.344  21.847   9.619
 1620POPC   GL124361  34.487  21.958   9.215
 1620POPC   GL224362  34.320  22.278   9.143
 1620POPC   C1A24363  34.705  22.065   8.840
 1620POPC   D2A24364  34.878  21.827   8.515
 1620POPC   C3A24365  34.806  22.057   8.169
 1620POPC   C4A24366  35.095  22.094   7.823
 1620POPC   C1B24367  34.494  22.527   8.763
 1620POPC   C2B24368  34.685  22.722   8.356
 1620POPC   C3B24369  34.625  22.481   7.955
 1620POPC   C4B24370  34.310  22.379   7.653
 1621POPC   NC324371  43.861  19.613   9.639
 1621POPC   PO424372  43.957  18.885   9.699
 1621POPC   GL124373  43.999  19.146   9.357
 1621POPC   GL224374  43.719  18.955   9.206
 1621POPC   C1A24375  43.931  19.320   8.932
 1621POPC   D2A24376  43.949  19.166   8.520
 1621POPC   C3A24377  43.798  19.280   8.122
 1621POPC   C4A24378  43.912  19.280   7.715
 1621POPC   C1B24379  43.521  18.992   8.794
 1621POPC   C2B24380  43.558  18.882   8.357
 1621POPC   C3B24381  43.371  18.879   7.955
 1621POPC   C4B24382  43.574  18.883   7.575
 1622POPC   NC324383  30.807  25.445   9.426
 1622POPC   PO424384  30.524  24.880   9.682
 1622POPC   GL124385  30.733  24.990   9.249
 1622POPC   GL224386  30.541  25.316   9.030
 1622POPC   C1A24387  30.884  24.999   8.824
 1622POPC   D2A24388  31.005  24.931   8.391
 1622POPC   C3A24389  30.862  25.232   8.074
 1622POPC   C4A24390  30.922  25.382   7.645
 1622POPC   C1B24391  30.289  25.302   8.641
 1622POPC   C2B24392  30.368  25.249   8.221
 1622POPC   C3B24393  30.422  25.242   7.787
 1622POPC   C4B24394  30.509  25.258   7.332
 1623POPC   NC324395  42.003  34.815   9.348
 1623POPC   PO424396  42.518  34.336   9.544
 1623POPC   GL124397  42.361  34.369   9.095
 1623POPC   GL224398  42.679  34.541   8.935
 1623POPC   C1A24399  42.258  34.642   8.698
 1623POPC   D2A24400  42.398  34.716   8.263
 1623POPC   C3A24401  42.105  34.730   7.888
 1623POPC   C4A24402  41.941  34.688   7.430
 1623POPC   C1B24403  42.553  34.157   8.699
 1623POPC   C2B24404  42.311  34.141   8.336
 1623POPC   C3B24405  42.359  34.283   7.963
 1623POPC   C4B24406  42.653  34.558   7.831
 1624POPC   NC324407  17.173  16.827   9.426
 1624POPC   PO424408  16.551  17.004   9.461
 1624POPC   GL124409  16.804  16.832   9.079
 1624POPC   GL224410  17.067  17.052   8.972
 1624POPC   C1A24411  16.949  16.690   8.620
 1624POPC   D2A24412  16.931  16.575   8.142
 1624POPC   C3A24413  16.609  16.667   7.821
 1624POPC   C4A24414  16.625  16.598   7.346
 1624POPC   C1B24415  16.688  17.123   8.691
 1624POPC   C2B24416  16.705  17.029   8.287
 1624POPC   C3B24417  16.864  17.095   7.901
 1624POPC   C4B24418  16.745  17.075   7.474
 1625POPC   NC324419  20.163  41.547   9.652
 1625POPC   PO424420  20.758  41.468   9.419
 1625POPC   GL124421  20.542  41.417   9.044
 1625POPC   GL224422  20.421  41.685   9.092
 1625POPC   C1A24423  20.492  41.351   8.608
 1625POPC   D2A24424  20.571  41.627   8.295
 1625POPC   C3A24425  20.558  41.471   7.912
 1625POPC   C4A24426  20.917  41.318   7.729
 1625POPC   C1B24427  20.613  41.846   8.756
 1625POPC   C2B24428  20.395  42.102   8.474
 1625POPC   C3B24429  20.428  42.051   8.053
 1625POPC   C4B24430  20.761  41.918   7.779
 1626POPC   NC324431  19.657   8.458   9.660
 1626POPC   PO424432  19.536   7.910   9.695
 1626POPC   GL124433  19.566   8.063   9.263
 1626POPC   GL224434  19.459   8.370   9.200
 1626POPC   C1A24435  19.803   8.224   8.877
 1626POPC   D2A24436  19.846   8.379   8.449
 1626POPC   C3A24437  19.608   8.185   8.121
 1626POPC   C4A24438  19.621   8.336   7.658
 1626POPC   C1B24439  19.286   8.409   8.800
 1626POPC   C2B24440  19.352   8.633   8.439
 1626POPC   C3B24441  19.331   8.579   8.025
 1626POPC   C4B24442  19.234   8.646   7.614
 1627POPC   NC324443   7.367  10.037   9.608
 1627POPC   PO424444   7.621   9.470   9.702
 1627POPC   GL124445   7.377   9.613   9.298
 1627POPC   GL224446   7.192   9.913   9.143
 1627POPC   C1A24447   7.287   9.505   8.862
 1627POPC   D2A24448   7.482   9.424   8.444
 1627POPC   C3A24449   7.262   9.413   8.040
 1627POPC   C4A24450   7.494   9.391   7.682
 1627POPC   C1B24451   7.357   9.982   8.680
 1627POPC   C2B24452   7.404   9.894   8.189
 1627POPC   C3B24453   7.274   9.844   7.717
 1627POPC   C4B24454   7.079   9.896   7.267
 1628POPC   NC324455  41.003  38.448   9.478
 1628POPC   PO424456  40.391  38.699   9.483
 1628POPC   GL124457  40.674  38.623   9.123
 1628POPC   GL224458  41.045  38.626   8.986
 1628POPC   C1A24459  40.645  38.393   8.733
 1628POPC   D2A24460  40.735  38.101   8.398
 1628POPC   C3A24461  40.696  38.264   7.975
 1628POPC   C4A24462  40.482  38.605   7.842
 1628POPC   C1B24463  40.955  38.828   8.575
 1628POPC   C2B24464  40.921  38.709   8.132
 1628POPC   C3B24465  40.969  38.590   7.681
 1628POPC   C4B24466  40.799  38.718   7.261
 1629POPC   NC324467   6.733  10.928   9.331
 1629POPC   PO424468   6.452  11.341   9.825
 1629POPC   GL124469   6.812  11.466   9.293
 1629POPC   GL224470   6.746  11.237   8.964
 1629POPC   C1A24471   6.860  11.667   8.801
 1629POPC   D2A24472   6.887  11.323   8.454
 1629POPC   C3A24473   6.787  11.418   8.028
 1629POPC   C4A24474   6.905  11.251   7.605
 1629POPC   C1B24475   6.409  11.306   8.660
 1629POPC   C2B24476   6.382  11.046   8.298
 1629POPC   C3B24477   6.247  11.088   7.890
 1629POPC   C4B24478   6.407  11.449   7.691
 1630POPC   NC324479  38.131  13.290   9.466
 1630POPC   PO424480  38.492  13.809   9.521
 1630POPC   GL124481  38.346  13.594   9.119
 1630POPC   GL224482  37.986  13.572   9.050
 1630POPC   C1A24483  38.360  13.439   8.671
 1630POPC   D2A24484  38.279  13.186   8.289
 1630POPC   C3A24485  38.413  13.456   7.970
 1630POPC   C4A24486  38.387  13.726   7.629
 1630POPC   C1B24487  38.142  13.906   8.744
 1630POPC   C2B24488  38.176  14.025   8.294
 1630POPC   C3B24489  38.016  13.952   7.865
 1630POPC   C4B24490  37.826  14.179   7.471
 1631POPC   NC324491  18.441  34.866   9.494
 1631POPC   PO424492  18.678  34.323   9.451
 1631POPC   GL124493  18.482  34.535   9.042
 1631POPC   GL224494  18.193  34.769   9.054
 1631POPC   C1A24495  18.301  34.572   8.575
 1631POPC   D2A24496  17.990  34.404   8.246
 1631POPC   C3A24497  18.196  34.350   7.862
 1631POPC   C4A24498  18.635  34.229   7.955
 1631POPC   C1B24499  18.482  35.002   8.781
 1631POPC   C2B24500  18.428  35.151   8.343
 1631POPC   C3B24501  18.318  35.177   7.885
 1631POPC   C4B24502  18.178  34.814   7.599
 1632POPC   NC324503  38.077  25.798   9.322
 1632POPC   PO424504  38.724  26.017   9.474
 1632POPC   GL124505  38.659  26.161   9.086
 1632POPC   GL224506  38.326  26.253   9.152
 1632POPC   C1A24507  38.450  26.018   8.713
 1632POPC   D2A24508  38.317  25.916   8.308
 1632POPC   C3A24509  38.471  25.977   7.907
 1632POPC   C4A24510  38.314  26.042   7.477
 1632POPC   C1B24511  38.086  26.395   8.757
 1632POPC   C2B24512  38.058  26.345   8.312
 1632POPC   C3B24513  38.153  26.350   7.865
 1632POPC   C4B24514  37.942  26.412   7.480
 1633POPC   NC324515  31.980  26.454   9.717
 1633POPC   PO424516  32.550  26.846   9.608
 1633POPC   GL124517  32.476  26.949   9.168
 1633POPC   GL224518  32.176  26.848   9.080
 1633POPC   C1A24519  32.488  26.801   8.708
 1633POPC   D2A24520  32.590  26.504   8.424
 1633POPC   C3A24521  32.345  26.673   8.099
 1633POPC   C4A24522  32.467  26.772   7.727
 1633POPC   C1B24523  31.987  27.003   8.718
 1633POPC   C2B24524  31.984  27.057   8.281
 1633POPC   C3B24525  31.870  26.851   7.899
 1633POPC   C4B24526  31.984  26.786   7.467
 1634POPC   NC324527  33.567  27.071   9.527
 1634POPC   PO424528  33.729  26.451   9.548
 1634POPC   GL124529  33.829  26.744   9.212
 1634POPC   GL224530  33.511  26.904   9.044
 1634POPC   C1A24531  33.936  26.774   8.787
 1634POPC   D2A24532  33.949  26.942   8.374
 1634POPC   C3A24533  33.827  26.624   8.096
 1634POPC   C4A24534  33.794  26.634   7.704
 1634POPC   C1B24535  33.470  26.768   8.599
 1634POPC   C2B24536  33.403  26.904   8.181
 1634POPC   C3B24537  33.711  27.087   7.933
 1634POPC   C4B24538  33.856  27.280   7.599
 1635POPC   NC324539  10.831  41.544   9.491
 1635POPC   PO424540  10.318  41.142   9.621
 1635POPC   GL124541  10.404  41.304   9.214
 1635POPC   GL224542  10.580  41.054   9.067
 1635POPC   C1A24543  10.408  41.473   8.768
 1635POPC   D2A24544  10.535  41.389   8.312
 1635POPC   C3A24545  10.235  41.531   7.981
 1635POPC   C4A24546  10.333  41.813   7.587
 1635POPC   C1B24547  10.821  41.159   8.714
 1635POPC   C2B24548  11.092  41.201   8.369
 1635POPC   C3B24549  10.987  41.488   8.040
 1635POPC   C4B24550  10.662  41.442   7.744
 1636POPC   NC324551   0.008   6.529   9.364
 1636POPC   PO424552  44.354   6.541   9.462
 1636POPC   GL124553  44.535   6.818   9.125
 1636POPC   GL224554  44.820   7.011   9.215
 1636POPC   C1A24555  44.514   7.107   8.748
 1636POPC   D2A24556  44.549   7.032   8.288
 1636POPC   C3A24557  44.504   6.621   8.115
 1636POPC   C4A24558  44.783   6.545   7.790
 1636POPC   C1B24559  44.950   6.843   8.788
 1636POPC   C2B24560  44.965   6.689   8.355
 1636POPC   C3B24561   0.016   6.940   7.995
 1636POPC   C4B24562   0.080   7.264   7.693
 1637POPC   NC324563  34.852  23.944   9.559
 1637POPC   PO424564  34.187  23.646   9.575
 1637POPC   GL124565  34.484  23.704   9.238
 1637POPC   GL224566  34.798  23.481   9.273
 1637POPC   C1A24567  34.417  23.907   8.846
 1637POPC   D2A24568  34.714  24.039   8.518
 1637POPC   C3A24569  34.593  23.888   8.120
 1637POPC   C4A24570  34.277  23.720   7.873
 1637POPC   C1B24571  34.811  23.587   8.858
 1637POPC   C2B24572  34.544  23.536   8.521
 1637POPC   C3B24573  34.613  23.377   8.139
 1637POPC   C4B24574  34.724  23.439   7.704
 1638POPC   NC324575  20.829  34.780   9.337
 1638POPC   PO424576  20.272  34.491   9.627
 1638POPC   GL124577  20.496  34.390   9.182
 1638POPC   GL224578  20.415  34.684   8.962
 1638POPC   C1A24579  20.756  34.409   8.748
 1638POPC   D2A24580  20.519  34.664   8.423
 1638POPC   C3A24581  20.566  34.559   8.021
 1638POPC   C4A24582  20.326  34.579   7.664
 1638POPC   C1B24583  20.796  34.925   8.728
 1638POPC   C2B24584  20.935  35.045   8.328
 1638POPC   C3B24585  20.988  34.886   7.956
 1638POPC   C4B24586  20.689  34.938   7.654
 1639POPC   NC324587   3.747  25.486   9.442
 1639POPC   PO424588   3.712  24.773   9.380
 1639POPC   GL124589   3.594  25.065   9.078
 1639POPC   GL224590   3.771  25.355   8.942
 1639POPC   C1A24591   3.480  24.980   8.642
 1639POPC   D2A24592   3.172  25.081   8.311
 1639POPC   C3A24593   3.236  25.472   8.117
 1639POPC   C4A24594   3.390  25.299   7.757
 1639POPC   C1B24595   3.988  25.706   8.740
 1639POPC   C2B24596   3.974  25.867   8.312
 1639POPC   C3B24597   3.883  25.591   7.953
 1639POPC   C4B24598   3.697  25.641   7.550
 1640POPC   NC324599  12.404  33.775   9.458
 1640POPC   PO424600  11.840  34.069   9.565
 1640POPC   GL124601  11.940  33.901   9.179
 1640POPC   GL224602  12.037  33.531   9.192
 1640POPC   C1A24603  12.091  34.036   8.791
 1640POPC   D2A24604  11.889  33.934   8.390
 1640POPC   C3A24605  12.111  34.180   8.076
 1640POPC   C4A24606  12.323  34.212   7.706
 1640POPC   C1B24607  11.989  33.538   8.765
 1640POPC   C2B24608  12.172  33.489   8.350
 1640POPC   C3B24609  12.048  33.680   7.949
 1640POPC   C4B24610  11.744  33.548   7.650
 1641POPC   NC324611  25.906   8.541   9.268
 1641POPC   PO424612  25.848   8.005   9.643
 1641POPC   GL124613  25.955   8.033   9.172
 1641POPC   GL224614  26.283   8.211   9.122
 1641POPC   C1A24615  25.881   8.210   8.711
 1641POPC   D2A24616  26.005   8.054   8.295
 1641POPC   C3A24617  25.892   8.220   7.866
 1641POPC   C4A24618  26.147   8.067   7.490
 1641POPC   C1B24619  26.325   7.960   8.748
 1641POPC   C2B24620  26.513   8.029   8.356
 1641POPC   C3B24621  26.404   8.098   7.951
 1641POPC   C4B24622  26.635   8.145   7.607
 1642POPC   NC324623   5.423  33.259   9.269
 1642POPC   PO424624   5.540  33.860   9.447
 1642POPC   GL124625   5.297  33.805   9.062
 1642POPC   GL224626   5.347  33.523   8.840
 1642POPC   C1A24627   5.190  33.999   8.649
 1642POPC   D2A24628   5.150  33.827   8.241
 1642POPC   C3A24629   4.932  33.810   7.861
 1642POPC   C4A24630   5.074  34.041   7.545
 1642POPC   C1B24631   4.935  33.549   8.646
 1642POPC   C2B24632   4.849  33.415   8.227
 1642POPC   C3B24633   5.217  33.397   7.980
 1642POPC   C4B24634   5.296  33.543   7.605
 1643POPC   NC324635  35.370  31.873   9.752
 1643POPC   PO424636  35.070  31.389   9.531
 1643POPC   GL124637  35.086  31.558   9.164
 1643POPC   GL224638  35.259  31.250   9.037
 1643POPC   C1A24639  35.005  31.654   8.753
 1643POPC   D2A24640  35.294  31.648   8.424
 1643POPC   C3A24641  35.055  31.693   8.065
 1643POPC   C4A24642  35.088  31.499   7.679
 1643POPC   C1B24643  35.547  31.098   8.692
 1643POPC   C2B24644  35.705  31.325   8.335
 1643POPC   C3B24645  35.489  31.408   7.976
 1643POPC   C4B24646  35.469  31.124   7.629
 1644POPC   NC324647  44.470  10.979   9.444
 1644POPC   PO424648  44.669  10.297   9.501
 1644POPC   GL124649  44.681  10.589   9.175
 1644POPC   GL224650  44.935  10.867   9.242
 1644POPC   C1A24651  44.630  10.475   8.750
 1644POPC   D2A24652  44.922  10.239   8.483
 1644POPC   C3A24653  44.776  10.126   8.088
 1644POPC   C4A24654  44.467  10.308   7.798
 1644POPC   C1B24655  44.817  10.951   8.807
 1644POPC   C2B24656  44.935  10.753   8.401
 1644POPC   C3B24657  44.808  10.640   7.982
 1644POPC   C4B24658  44.458  10.893   7.772
 1645POPC   NC324659  29.349  19.896   9.351
 1645POPC   PO424660  28.797  19.679   9.672
 1645POPC   GL124661  28.850  19.576   9.199
 1645POPC   GL224662  29.023  19.837   8.971
 1645POPC   C1A24663  28.946  19.394   8.763
 1645POPC   D2A24664  29.196  19.627   8.502
 1645POPC   C3A24665  29.207  19.655   8.083
 1645POPC   C4A24666  29.036  19.922   7.816
 1645POPC   C1B24667  29.289  20.101   8.660
 1645POPC   C2B24668  29.305  20.211   8.202
 1645POPC   C3B24669  29.441  20.237   7.761
 1645POPC   C4B24670  29.574  20.350   7.357
 1646POPC   NC324671   8.084  36.075   9.556
 1646POPC   PO424672   8.511  36.594   9.407
 1646POPC   GL124673   8.259  36.311   9.159
 1646POPC   GL224674   8.284  35.927   9.018
 1646POPC   C1A24675   8.005  36.272   8.817
 1646POPC   D2A24676   8.165  36.036   8.451
 1646POPC   C3A24677   7.989  36.131   8.014
 1646POPC   C4A24678   7.942  35.905   7.635
 1646POPC   C1B24679   8.534  36.260   8.751
 1646POPC   C2B24680   8.671  36.398   8.348
 1646POPC   C3B24681   8.505  36.122   8.047
 1646POPC   C4B24682   8.366  36.180   7.623
 1647POPC   NC324683  13.835   4.395   9.452
 1647POPC   PO424684  14.463   4.299   9.678
 1647POPC   GL124685  14.316   4.242   9.285
 1647POPC   GL224686  14.297   4.572   9.189
 1647POPC   C1A24687  14.285   4.165   8.853
 1647POPC   D2A24688  14.130   4.257   8.455
 1647POPC   C3A24689  14.347   4.081   8.122
 1647POPC   C4A24690  14.399   4.218   7.719
 1647POPC   C1B24691  14.623   4.530   8.849
 1647POPC   C2B24692  14.629   4.467   8.375
 1647POPC   C3B24693  14.711   4.564   7.917
 1647POPC   C4B24694  14.483   4.655   7.472
 1648POPC   NC324695   0.473  21.740   9.515
 1648POPC   PO424696   0.695  22.420   9.440
 1648POPC   GL124697   0.722  22.276   9.015
 1648POPC   GL224698   0.668  21.908   9.072
 1648POPC   C1A24699   0.550  22.342   8.579
 1648POPC   D2A24700   0.239  22.356   8.214
 1648POPC   C3A24701   0.347  22.359   7.766
 1648POPC   C4A24702   0.092  22.387   7.391
 1648POPC   C1B24703   0.614  21.828   8.656
 1648POPC   C2B24704   0.614  21.975   8.201
 1648POPC   C3B24705   0.531  21.861   7.775
 1648POPC   C4B24706   0.767  21.630   7.468
 1649POPC   NC324707  19.933  34.338   9.371
 1649POPC   PO424708  19.534  34.835   9.527
 1649POPC   GL124709  19.758  34.726   9.101
 1649POPC   GL224710  19.659  34.396   8.947
 1649POPC   C1A24711  19.876  34.736   8.626
 1649POPC   D2A24712  20.047  34.585   8.238
 1649POPC   C3A24713  19.783  34.470   7.906
 1649POPC   C4A24714  19.875  34.781   7.702
 1649POPC   C1B24715  20.104  34.292   8.757
 1649POPC   C2B24716  20.337  34.186   8.409
 1649POPC   C3B24717  20.212  34.184   7.968
 1649POPC   C4B24718  20.091  34.131   7.563
 1650POPC   NC324719  41.917  41.250   9.550
 1650POPC   PO424720  42.227  41.783   9.481
 1650POPC   GL124721  42.362  41.891   9.098
 1650POPC   GL224722  42.691  41.820   9.133
 1650POPC   C1A24723  42.305  41.826   8.647
 1650POPC   D2A24724  42.347  41.840   8.198
 1650POPC   C3A24725  42.285  41.430   7.958
 1650POPC   C4A24726  41.913  41.167   7.844
 1650POPC   C1B24727  42.675  41.502   8.834
 1650POPC   C2B24728  42.750  41.541   8.412
 1650POPC   C3B24729  42.773  41.665   8.001
 1650POPC   C4B24730  42.491  41.840   7.703
 1651POPC   NC324731  30.674  24.459   9.517
 1651POPC   PO424732  31.228  24.659   9.278
 1651POPC   GL124733  30.907  24.511   9.049
 1651POPC   GL224734  30.555  24.574   9.028
 1651POPC   C1A24735  30.921  24.484   8.643
 1651POPC   D2A24736  30.785  24.455   8.245
 1651POPC   C3A24737  30.857  24.734   7.946
 1651POPC   C4A24738  30.955  24.555   7.598
 1651POPC   C1B24739  30.482  24.767   8.602
 1651POPC   C2B24740  30.373  24.744   8.192
 1651POPC   C3B24741  30.429  24.469   7.857
 1651POPC   C4B24742  30.513  24.793   7.550
 1652POPC   NC324743  15.752  38.612   9.633
 1652POPC   PO424744  15.701  38.020   9.419
 1652POPC   GL124745  15.898  38.306   9.105
 1652POPC   GL224746  15.934  38.661   9.159
 1652POPC   C1A24747  15.841  38.522   8.695
 1652POPC   D2A24748  15.944  38.680   8.349
 1652POPC   C3A24749  15.911  38.408   8.019
 1652POPC   C4A24750  15.642  38.405   7.716
 1652POPC   C1B24751  16.309  38.683   8.877
 1652POPC   C2B24752  16.459  38.782   8.444
 1652POPC   C3B24753  16.327  38.715   8.047
 1652POPC   C4B24754  16.370  38.454   7.721
 1653POPC   NC324755   7.461  40.511   9.450
 1653POPC   PO424756   7.320  41.184   9.510
 1653POPC   GL124757   7.520  40.968   9.175
 1653POPC   GL224758   7.211  40.772   9.076
 1653POPC   C1A24759   7.638  40.713   8.799
 1653POPC   D2A24760   7.414  40.592   8.429
 1653POPC   C3A24761   7.669  40.753   8.078
 1653POPC   C4A24762   7.539  40.667   7.641
 1653POPC   C1B24763   7.259  41.102   8.752
 1653POPC   C2B24764   7.390  41.099   8.336
 1653POPC   C3B24765   7.228  40.973   7.951
 1653POPC   C4B24766   7.101  41.219   7.644
 1654POPC   NC324767   3.471   2.946   9.438
 1654POPC   PO424768   3.986   2.512   9.543
 1654POPC   GL124769   3.809   2.499   9.108
 1654POPC   GL224770   3.439   2.507   9.144
 1654POPC   C1A24771   3.677   2.685   8.676
 1654POPC   D2A24772   3.518   2.928   8.296
 1654POPC   C3A24773   3.588   2.737   7.885
 1654POPC   C4A24774   3.944   2.461   7.756
 1654POPC   C1B24775   3.170   2.471   8.778
 1654POPC   C2B24776   3.147   2.577   8.355
 1654POPC   C3B24777   3.148   2.449   7.949
 1654POPC   C4B24778   3.154   2.660   7.579
 1655POPC   NC324779  14.903  18.241   9.392
 1655POPC   PO424780  15.509  18.400   9.370
 1655POPC   GL124781  15.212  18.361   8.989
 1655POPC   GL224782  14.874  18.593   9.011
 1655POPC   C1A24783  15.340  18.457   8.555
 1655POPC   D2A24784  15.606  18.365   8.179
 1655POPC   C3A24785  15.390  18.141   7.873
 1655POPC   C4A24786  14.973  18.245   7.764
 1655POPC   C1B24787  14.833  18.314   8.629
 1655POPC   C2B24788  15.089  18.068   8.303
 1655POPC   C3B24789  15.042  17.763   7.950
 1655POPC   C4B24790  15.132  17.814   7.526
 1656POPC   NC324791  31.216  18.158   9.289
 1656POPC   PO424792  31.729  18.493   9.071
 1656POPC   GL124793  31.594  18.088   8.977
 1656POPC   GL224794  31.732  17.844   9.215
 1656POPC   C1A24795  31.451  18.083   8.587
 1656POPC   D2A24796  31.391  18.453   8.346
 1656POPC   C3A24797  31.036  18.421   8.087
 1656POPC   C4A24798  31.325  18.273   7.770
 1656POPC   C1B24799  32.032  17.918   8.846
 1656POPC   C2B24800  31.936  17.981   8.400
 1656POPC   C3B24801  31.595  17.985   8.113
 1656POPC   C4B24802  31.562  17.788   7.746
 1657POPC   NC324803   8.799   3.652   9.360
 1657POPC   PO424804   9.313   3.226   9.552
 1657POPC   GL124805   9.136   3.383   9.103
 1657POPC   GL224806   8.887   3.202   9.112
 1657POPC   C1A24807   8.993   3.665   8.721
 1657POPC   D2A24808   8.891   3.539   8.286
 1657POPC   C3A24809   9.100   3.502   7.909
 1657POPC   C4A24810   8.859   3.803   7.737
 1657POPC   C1B24811   8.760   3.215   8.661
 1657POPC   C2B24812   8.527   3.198   8.285
 1657POPC   C3B24813   8.609   3.356   7.877
 1657POPC   C4B24814   8.741   3.186   7.507
 1658POPC   NC324815  35.323  15.799   9.514
 1658POPC   PO424816  35.517  15.046   9.488
 1658POPC   GL124817  35.380  15.378   9.213
 1658POPC   GL224818  35.038  15.506   9.180
 1658POPC   C1A24819  35.424  15.381   8.788
 1658POPC   D2A24820  35.693  15.165   8.494
 1658POPC   C3A24821  35.545  15.214   8.079
 1658POPC   C4A24822  35.391  14.922   7.792
 1658POPC   C1B24823  34.928  15.481   8.738
 1658POPC   C2B24824  35.161  15.469   8.337
 1658POPC   C3B24825  35.053  15.315   7.910
 1658POPC   C4B24826  34.983  15.518   7.534
 1659POPC   NC324827  26.532  24.833   9.854
 1659POPC   PO424828  26.854  24.318   9.599
 1659POPC   GL124829  26.820  24.392   9.163
 1659POPC   GL224830  27.032  24.649   9.132
 1659POPC   C1A24831  26.716  24.585   8.731
 1659POPC   D2A24832  26.634  24.813   8.355
 1659POPC   C3A24833  26.810  24.752   7.958
 1659POPC   C4A24834  26.671  24.458   7.623
 1659POPC   C1B24835  27.188  24.378   8.766
 1659POPC   C2B24836  27.083  24.395   8.311
 1659POPC   C3B24837  27.130  24.361   7.861
 1659POPC   C4B24838  27.126  24.460   7.393
 1660POPC   NC324839  43.359  12.712   9.500
 1660POPC   PO424840  44.023  12.785   9.519
 1660POPC   GL124841  43.907  12.741   9.146
 1660POPC   GL224842  43.629  12.534   9.102
 1660POPC   C1A24843  43.978  12.990   8.804
 1660POPC   D2A24844  43.781  13.163   8.455
 1660POPC   C3A24845  43.933  13.009   8.046
 1660POPC   C4A24846  43.833  12.972   7.624
 1660POPC   C1B24847  43.859  12.496   8.718
 1660POPC   C2B24848  44.039  12.662   8.396
 1660POPC   C3B24849  44.120  12.475   8.025
 1660POPC   C4B24850  44.199  12.568   7.630
 1661POPC   NC324851   5.562  38.232   9.505
 1661POPC   PO424852   6.207  38.034   9.561
 1661POPC   GL124853   6.024  38.385   9.247
 1661POPC   GL224854   5.697  38.569   9.142
 1661POPC   C1A24855   6.095  38.544   8.806
 1661POPC   D2A24856   6.005  38.406   8.407
 1661POPC   C3A24857   6.187  38.538   8.011
 1661POPC   C4A24858   6.186  38.683   7.566
 1661POPC   C1B24859   5.594  38.576   8.690
 1661POPC   C2B24860   5.555  38.605   8.270
 1661POPC   C3B24861   5.697  38.405   7.923
 1661POPC   C4B24862   5.548  38.294   7.542
 1662POPC   NC324863   7.839  37.736   9.531
 1662POPC   PO424864   7.423  37.504   9.927
 1662POPC   GL124865   7.395  37.482   9.363
 1662POPC   GL224866   7.511  37.781   9.133
 1662POPC   C1A24867   7.119  37.529   8.949
 1662POPC   D2A24868   7.257  37.824   8.611
 1662POPC   C3A24869   7.412  37.687   8.204
 1662POPC   C4A24870   7.338  37.746   7.734
 1662POPC   C1B24871   7.591  37.442   8.794
 1662POPC   C2B24872   7.736  37.316   8.389
 1662POPC   C3B24873   7.822  37.487   7.972
 1662POPC   C4B24874   7.691  37.387   7.584
 1663POPC   NC324875  26.490  26.096   9.583
 1663POPC   PO424876  27.018  26.039   9.554
 1663POPC   GL124877  26.927  25.918   9.124
 1663POPC   GL224878  26.602  25.959   9.123
 1663POPC   C1A24879  26.790  25.657   8.764
 1663POPC   D2A24880  26.723  25.778   8.343
 1663POPC   C3A24881  26.465  25.730   8.010
 1663POPC   C4A24882  26.571  25.737   7.615
 1663POPC   C1B24883  26.659  26.174   8.733
 1663POPC   C2B24884  26.580  26.261   8.313
 1663POPC   C3B24885  26.755  26.148   7.922
 1663POPC   C4B24886  26.436  26.214   7.669
 1664POPC   NC324887  30.385  22.958   9.258
 1664POPC   PO424888  30.944  22.787   9.610
 1664POPC   GL124889  30.924  22.993   9.200
 1664POPC   GL224890  30.792  22.676   9.087
 1664POPC   C1A24891  30.814  23.158   8.759
 1664POPC   D2A24892  30.459  23.139   8.428
 1664POPC   C3A24893  30.580  23.184   7.948
 1664POPC   C4A24894  30.451  23.090   7.496
 1664POPC   C1B24895  30.679  22.659   8.654
 1664POPC   C2B24896  30.860  22.865   8.289
 1664POPC   C3B24897  31.074  22.872   7.899
 1664POPC   C4B24898  30.857  22.750   7.514
 1665POPC   NC324899   3.520  37.712   9.692
 1665POPC   PO424900   3.989  37.566   9.238
 1665POPC   GL124901   3.818  37.869   9.001
 1665POPC   GL224902   3.530  37.860   9.205
 1665POPC   C1A24903   3.705  37.864   8.550
 1665POPC   D2A24904   3.526  37.555   8.263
 1665POPC   C3A24905   3.634  37.750   7.904
 1665POPC   C4A24906   3.838  38.131   7.800
 1665POPC   C1B24907   3.295  37.883   8.830
 1665POPC   C2B24908   3.193  37.943   8.355
 1665POPC   C3B24909   3.123  37.704   7.942
 1665POPC   C4B24910   3.329  37.695   7.501
 1666POPC   NC324911  44.985   8.565   9.501
 1666POPC   PO424912   0.698   8.730   9.517
 1666POPC   GL124913   0.606   8.936   9.085
 1666POPC   GL224914   0.243   9.031   9.056
 1666POPC   C1A24915   0.491   8.949   8.633
 1666POPC   D2A24916   0.219   8.806   8.313
 1666POPC   C3A24917   0.476   8.877   7.989
 1666POPC   C4A24918   0.755   8.614   7.793
 1666POPC   C1B24919   0.021   9.129   8.649
 1666POPC   C2B24920   0.232   9.319   8.277
 1666POPC   C3B24921   0.166   9.244   7.831
 1666POPC   C4B24922   0.040   9.162   7.396
 1667POPC   NC324923  37.801   0.960   9.488
 1667POPC   PO424924  37.267   1.389   9.417
 1667POPC   GL124925  37.606   1.314   9.152
 1667POPC   GL224926  37.524   0.979   9.044
 1667POPC   C1A24927  37.697   1.404   8.726
 1667POPC   D2A24928  37.880   1.279   8.338
 1667POPC   C3A24929  37.809   1.477   7.962
 1667POPC   C4A24930  37.638   1.296   7.602
 1667POPC   C1B24931  37.779   0.901   8.654
 1667POPC   C2B24932  37.744   0.814   8.206
 1667POPC   C3B24933  37.988   1.005   7.865
 1667POPC   C4B24934  38.018   0.991   7.395
 1668POPC   NC324935  28.557  27.295   9.511
 1668POPC   PO424936  28.529  27.995   9.390
 1668POPC   GL124937  28.337  27.652   9.164
 1668POPC   GL224938  28.456  27.319   9.022
 1668POPC   C1A24939  28.142  27.661   8.779
 1668POPC   D2A24940  28.035  27.385   8.466
 1668POPC   C3A24941  28.231  27.322   8.068
 1668POPC   C4A24942  28.166  27.363   7.618
 1668POPC   C1B24943  28.531  27.298   8.596
 1668POPC   C2B24944  28.724  27.474   8.265
 1668POPC   C3B24945  28.650  27.555   7.861
 1668POPC   C4B24946  28.868  27.826   7.620
 1669POPC   NC324947  11.739  37.552   9.493
 1669POPC   PO424948  12.410  37.466   9.542
 1669POPC   GL124949  12.162  37.580   9.216
 1669POPC   GL224950  12.137  37.908   9.311
 1669POPC   C1A24951  11.870  37.758   8.880
 1669POPC   D2A24952  11.875  37.656   8.451
 1669POPC   C3A24953  11.805  37.893   8.095
 1669POPC   C4A24954  12.049  37.768   7.745
 1669POPC   C1B24955  12.367  37.909   8.895
 1669POPC   C2B24956  12.251  38.028   8.506
 1669POPC   C3B24957  12.268  38.104   8.065
 1669POPC   C4B24958  12.251  38.227   7.629
 1670POPC   NC324959  31.898  32.130   9.319
 1670POPC   PO424960  31.200  32.134   9.392
 1670POPC   GL124961  31.475  32.324   9.098
 1670POPC   GL224962  31.707  32.613   9.187
 1670POPC   C1A24963  31.596  32.145   8.697
 1670POPC   D2A24964  31.312  32.195   8.360
 1670POPC   C3A24965  31.554  32.225   7.989
 1670POPC   C4A24966  31.388  32.161   7.595
 1670POPC   C1B24967  31.585  32.668   8.739
 1670POPC   C2B24968  31.784  32.527   8.369
 1670POPC   C3B24969  31.820  32.692   7.967
 1670POPC   C4B24970  31.820  32.454   7.571
 1671POPC   NC324971   7.251  44.303   9.517
 1671POPC   PO424972   7.218  43.645   9.470
 1671POPC   GL124973   7.308  43.789   9.105
 1671POPC   GL224974   7.666  43.834   9.090
 1671POPC   C1A24975   7.429  43.539   8.759
 1671POPC   D2A24976   7.749  43.646   8.529
 1671POPC   C3A24977   7.604  43.624   8.122
 1671POPC   C4A24978   7.477  43.847   7.770
 1671POPC   C1B24979   7.449  44.177   8.803
 1671POPC   C2B24980   7.390  44.409   8.409
 1671POPC   C3B24981   7.454  44.314   7.983
 1671POPC   C4B24982   7.725  44.265   7.621
 1672POPC   NC324983   0.731   3.112   9.433
 1672POPC   PO424984   1.100   2.508   9.446
 1672POPC   GL124985   1.148   2.824   9.173
 1672POPC   GL224986   1.443   2.669   9.000
 1672POPC   C1A24987   1.132   3.070   8.785
 1672POPC   D2A24988   1.279   2.976   8.390
 1672POPC   C3A24989   1.165   3.168   8.024
 1672POPC   C4A24990   1.302   2.984   7.671
 1672POPC   C1B24991   1.098   2.543   8.747
 1672POPC   C2B24992   0.930   2.543   8.369
 1672POPC   C3B24993   1.145   2.622   8.015
 1672POPC   C4B24994   0.787   2.785   7.838
 1673POPC   NC324995   7.305  28.092   9.538
 1673POPC   PO424996   6.960  28.678   9.434
 1673POPC   GL124997   7.144  28.401   9.118
 1673POPC   GL224998   7.153  28.029   9.042
 1673POPC   C1A24999   7.342  28.376   8.707
 1673POPC   D2A25000   7.713  28.357   8.418
 1673POPC   C3A25001   7.670  28.581   8.012
 1673POPC   C4A25002   7.318  28.574   7.768
 1673POPC   C1B25003   7.122  27.907   8.566
 1673POPC   C2B25004   7.253  28.196   8.229
 1673POPC   C3B25005   7.472  28.100   7.872
 1673POPC   C4B25006   7.088  27.916   7.697
 1674POPC   NC325007  31.604  24.099   9.585
 1674POPC   PO425008  31.465  24.646   9.926
 1674POPC   GL125009  31.749  24.583   9.403
 1674POPC   GL225010  31.653  24.329   9.155
 1674POPC   C1A25011  31.723  24.729   8.887
 1674POPC   D2A25012  31.438  24.654   8.491
 1674POPC   C3A25013  31.626  24.603   8.059
 1674POPC   C4A25014  31.764  24.641   7.627
 1674POPC   C1B25015  31.545  24.223   8.747
 1674POPC   C2B25016  31.248  24.179   8.391
 1674POPC   C3B25017  31.219  24.312   7.967
 1674POPC   C4B25018  31.418  24.290   7.557
 1675POPC   NC325019  36.638  11.716   9.682
 1675POPC   PO425020  37.074  11.229   9.505
 1675POPC   GL125021  36.718  11.337   9.198
 1675POPC   GL225022  36.696  11.568   8.866
 1675POPC   C1A25023  36.607  11.090   8.820
 1675POPC   D2A25024  36.897  11.157   8.443
 1675POPC   C3A25025  36.791  11.073   8.014
 1675POPC   C4A25026  36.773  11.155   7.588
 1675POPC   C1B25027  37.092  11.609   8.613
 1675POPC   C2B25028  37.235  11.644   8.185
 1675POPC   C3B25029  37.096  11.538   7.753
 1675POPC   C4B25030  36.911  11.565   7.331
 1676POPC   NC325031  44.303  16.545   9.485
 1676POPC   PO425032  44.951  16.645   9.560
 1676POPC   GL125033  44.718  16.678   9.212
 1676POPC   GL225034  44.810  16.406   9.068
 1676POPC   C1A25035  44.694  16.951   8.879
 1676POPC   D2A25036  44.637  17.039   8.437
 1676POPC   C3A25037  44.688  16.868   8.043
 1676POPC   C4A25038  44.648  16.810   7.634
 1676POPC   C1B25039  44.868  16.566   8.618
 1676POPC   C2B25040  44.960  16.484   8.201
 1676POPC   C3B25041   0.000  16.461   7.771
 1676POPC   C4B25042  44.745  16.227   7.481
 1677POPC   NC325043  14.290  21.215   9.552
 1677POPC   PO425044  14.644  21.811   9.518
 1677POPC   GL125045  14.406  21.535   9.185
 1677POPC   GL225046  14.576  21.239   9.097
 1677POPC   C1A25047  14.131  21.223   8.899
 1677POPC   D2A25048  14.036  21.327   8.499
 1677POPC   C3A25049  14.297  21.238   8.141
 1677POPC   C4A25050  14.161  21.285   7.723
 1677POPC   C1B25051  14.522  21.504   8.702
 1677POPC   C2B25052  14.485  21.699   8.309
 1677POPC   C3B25053  14.774  21.476   8.060
 1677POPC   C4B25054  14.667  21.182   7.727
 1678POPC   NC325055  16.743  39.942   9.582
 1678POPC   PO425056  16.488  40.330   9.190
 1678POPC   GL125057  16.746  40.010   9.056
 1678POPC   GL225058  16.650  39.646   9.189
 1678POPC   C1A25059  16.897  40.225   8.703
 1678POPC   D2A25060  16.968  40.496   8.392
 1678POPC   C3A25061  16.723  40.315   8.128
 1678POPC   C4A25062  16.946  40.208   7.810
 1678POPC   C1B25063  16.533  39.658   8.762
 1678POPC   C2B25064  16.666  39.872   8.407
 1678POPC   C3B25065  16.702  39.795   8.011
 1678POPC   C4B25066  16.473  39.614   7.702
 1679POPC   NC325067  16.497  39.069   9.548
 1679POPC   PO425068  17.064  39.147   9.429
 1679POPC   GL125069  16.778  39.020   9.124
 1679POPC   GL225070  16.922  39.289   8.958
 1679POPC   C1A25071  16.479  39.159   8.776
 1679POPC   D2A25072  16.592  39.349   8.350
 1679POPC   C3A25073  16.407  39.207   7.979
 1679POPC   C4A25074  16.471  39.101   7.542
 1679POPC   C1B25075  16.998  39.529   8.607
 1679POPC   C2B25076  17.080  39.511   8.194
 1679POPC   C3B25077  16.892  39.319   7.828
 1679POPC   C4B25078  16.897  39.323   7.355
 1680POPC   NC325079  30.656  10.473   9.530
 1680POPC   PO425080  30.304  10.971   9.142
 1680POPC   GL125081  30.596  10.626   9.045
 1680POPC   GL225082  30.938  10.512   9.103
 1680POPC   C1A25083  30.457  10.394   8.718
 1680POPC   D2A25084  30.274  10.640   8.360
 1680POPC   C3A25085  30.521  10.680   7.958
 1680POPC   C4A25086  30.970  10.733   7.861
 1680POPC   C1B25087  30.940  10.175   8.782
 1680POPC   C2B25088  30.800  10.227   8.360
 1680POPC   C3B25089  30.856  10.216   7.934
 1680POPC   C4B25090  30.996   9.999   7.594
 1681POPC   NC325091  18.818  44.826   9.490
 1681POPC   PO425092  19.520  44.879   9.538
 1681POPC   GL125093  19.210  44.636   9.186
 1681POPC   GL225094  18.826  44.508   9.100
 1681POPC   C1A25095  19.176  44.540   8.720
 1681POPC   D2A25096  19.080  44.822   8.329
 1681POPC   C3A25097  19.120  44.633   7.913
 1681POPC   C4A25098  19.109  44.823   7.492
 1681POPC   C1B25099  18.734  44.797   8.733
 1681POPC   C2B25100  18.567  44.890   8.297
 1681POPC   C3B25101  18.757   0.015   7.871
 1681POPC   C4B25102  18.652   0.007   7.371
 1682POPC   NC325103  28.916  23.308   9.495
 1682POPC   PO425104  29.130  24.010   9.489
 1682POPC   GL125105  29.073  23.708   9.179
 1682POPC   GL225106  29.276  23.413   9.153
 1682POPC   C1A25107  28.972  23.625   8.771
 1682POPC   D2A25108  29.119  23.834   8.431
 1682POPC   C3A25109  28.945  23.649   8.089
 1682POPC   C4A25110  28.895  23.812   7.720
 1682POPC   C1B25111  29.471  23.501   8.774
 1682POPC   C2B25112  29.626  23.712   8.401
 1682POPC   C3B25113  29.433  23.787   8.012
 1682POPC   C4B25114  29.344  23.409   7.779
 1683POPC   NC325115  34.455  15.876   9.454
 1683POPC   PO425116  34.786  16.358   9.755
 1683POPC   GL125117  34.684  16.327   9.277
 1683POPC   GL225118  34.379  16.437   9.135
 1683POPC   C1A25119  34.710  16.129   8.864
 1683POPC   D2A25120  34.563  16.063   8.434
 1683POPC   C3A25121  34.827  15.838   8.125
 1683POPC   C4A25122  34.775  15.965   7.693
 1683POPC   C1B25123  34.364  16.477   8.710
 1683POPC   C2B25124  34.192  16.442   8.316
 1683POPC   C3B25125  34.315  16.206   7.959
 1683POPC   C4B25126  34.189  16.323   7.506
 1684POPC   NC325127   0.270  27.091   9.506
 1684POPC   PO425128   0.728  26.611   9.616
 1684POPC   GL125129   0.586  26.888   9.195
 1684POPC   GL225130   0.309  26.736   8.951
 1684POPC   C1A25131   0.692  27.003   8.748
 1684POPC   D2A25132   0.595  27.007   8.287
 1684POPC   C3A25133   0.525  26.617   8.004
 1684POPC   C4A25134   0.690  26.622   7.563
 1684POPC   C1B25135   0.089  27.064   8.748
 1684POPC   C2B25136   0.117  27.220   8.359
 1684POPC   C3B25137   0.163  26.975   8.000
 1684POPC   C4B25138   0.329  27.070   7.605
 1685POPC   NC325139  44.442  39.244   9.644
 1685POPC   PO425140  43.755  39.263   9.534
 1685POPC   GL125141  43.892  39.187   9.152
 1685POPC   GL225142  44.239  39.076   9.201
 1685POPC   C1A25143  43.702  39.238   8.776
 1685POPC   D2A25144  43.832  39.403   8.415
 1685POPC   C3A25145  43.612  39.297   8.073
 1685POPC   C4A25146  43.603  39.114   7.682
 1685POPC   C1B25147  44.178  39.043   8.758
 1685POPC   C2B25148  44.167  38.998   8.329
 1685POPC   C3B25149  44.063  39.087   7.917
 1685POPC   C4B25150  44.053  38.923   7.476
 1686POPC   NC325151  42.555  24.808   9.438
 1686POPC   PO425152  42.154  25.445   9.371
 1686POPC   GL125153  42.365  25.384   9.052
 1686POPC   GL225154  42.326  25.064   9.084
 1686POPC   C1A25155  42.235  25.311   8.649
 1686POPC   D2A25156  42.052  25.415   8.308
 1686POPC   C3A25157  42.269  25.157   8.120
 1686POPC   C4A25158  42.312  25.094   7.729
 1686POPC   C1B25159  42.493  24.896   8.771
 1686POPC   C2B25160  42.699  25.064   8.431
 1686POPC   C3B25161  42.733  24.993   8.008
 1686POPC   C4B25162  42.780  25.214   7.606
 1687POPC   NC325163  10.650   0.419   9.612
 1687POPC   PO425164  10.139   0.724   9.425
 1687POPC   GL125165  10.505   0.641   9.140
 1687POPC   GL225166  10.663   0.295   9.118
 1687POPC   C1A25167  10.659   0.597   8.709
 1687POPC   D2A25168  10.789   0.318   8.384
 1687POPC   C3A25169  10.877   0.559   8.030
 1687POPC   C4A25170  10.531   0.674   7.852
 1687POPC   C1B25171  10.698   0.002   8.761
 1687POPC   C2B25172  10.797  44.793   8.351
 1687POPC   C3B25173  10.907   0.043   7.984
 1687POPC   C4B25174  10.729   0.265   7.621
 1688POPC   NC325175  14.087   2.795   9.749
 1688POPC   PO425176  14.557   2.520   9.370
 1688POPC   GL125177  14.380   2.760   9.112
 1688POPC   GL225178  14.045   2.752   9.202
 1688POPC   C1A25179  14.496   2.692   8.698
 1688POPC   D2A25180  14.328   2.574   8.325
 1688POPC   C3A25181  14.587   2.707   7.973
 1688POPC   C4A25182  14.496   2.692   7.555
 1688POPC   C1B25183  14.007   2.856   8.750
 1688POPC   C2B25184  13.840   2.915   8.349
 1688POPC   C3B25185  14.127   2.928   8.018
 1688POPC   C4B25186  14.244   3.131   7.664
 1689POPC   NC325187  35.845  16.349   9.392
 1689POPC   PO425188  35.169  16.243   9.382
 1689POPC   GL125189  35.175  15.983   9.033
 1689POPC   GL225190  35.494  15.864   9.044
 1689POPC   C1A25191  35.100  15.929   8.587
 1689POPC   D2A25192  35.317  16.005   8.218
 1689POPC   C3A25193  35.405  15.698   7.941
 1689POPC   C4A25194  35.399  15.912   7.624
 1689POPC   C1B25195  35.574  16.103   8.671
 1689POPC   C2B25196  35.766  16.227   8.318
 1689POPC   C3B25197  35.828  16.034   7.939
 1689POPC   C4B25198  35.856  16.085   7.477
 1690POPC   NC325199   0.396  30.486   9.530
 1690POPC   PO425200  44.996  29.922   9.470
 1690POPC   GL125201   0.160  30.192   9.131
 1690POPC   GL225202   0.524  30.290   9.068
 1690POPC   C1A25203   0.300  29.989   8.733
 1690POPC   D2A25204   0.575  29.865   8.427
 1690POPC   C3A25205   0.393  29.777   8.026
 1690POPC   C4A25206   0.113  30.001   7.747
 1690POPC   C1B25207   0.716  30.293   8.645
 1690POPC   C2B25208   0.790  30.297   8.179
 1690POPC   C3B25209   0.587  30.179   7.754
 1690POPC   C4B25210   0.693  30.263   7.312
 1691POPC   NC325211  36.010  34.538   9.318
 1691POPC   PO425212  36.531  34.945   9.501
 1691POPC   GL125213  36.497  34.684   9.118
 1691POPC   GL225214  36.429  34.322   9.131
 1691POPC   C1A25215  36.254  34.730   8.749
 1691POPC   D2A25216  35.992  34.544   8.452
 1691POPC   C3A25217  36.182  34.626   8.084
 1691POPC   C4A25218  35.957  34.680   7.760
 1691POPC   C1B25219  36.273  34.203   8.744
 1691POPC   C2B25220  36.218  34.079   8.329
 1691POPC   C3B25221  35.925  34.205   8.027
 1691POPC   C4B25222  36.151  34.196   7.680
 1692POPC   NC325223  26.943  10.015   9.499
 1692POPC   PO425224  26.603   9.487   9.571
 1692POPC   GL125225  26.770   9.663   9.149
 1692POPC   GL225226  27.063   9.451   9.038
 1692POPC   C1A25227  26.789   9.854   8.715
 1692POPC   D2A25228  27.046  10.060   8.353
 1692POPC   C3A25229  26.848  10.017   7.924
 1692POPC   C4A25230  26.646   9.753   7.629
 1692POPC   C1B25231  27.099   9.450   8.594
 1692POPC   C2B25232  26.823   9.600   8.266
 1692POPC   C3B25233  26.937   9.464   7.903
 1692POPC   C4B25234  27.263   9.184   7.940
 1693POPC   NC325235  27.867  16.157   9.405
 1693POPC   PO425236  27.400  15.706   9.516
 1693POPC   GL125237  27.473  15.775   9.063
 1693POPC   GL225238  27.334  16.081   8.928
 1693POPC   C1A25239  27.567  15.700   8.609
 1693POPC   D2A25240  27.874  15.848   8.319
 1693POPC   C3A25241  27.638  16.048   8.021
 1693POPC   C4A25242  27.582  15.903   7.666
 1693POPC   C1B25243  27.753  16.144   8.741
 1693POPC   C2B25244  27.816  16.373   8.361
 1693POPC   C3B25245  28.072  16.328   7.985
 1693POPC   C4B25246  28.017  16.272   7.520
 1694POPC   NC325247  20.128  21.603   9.605
 1694POPC   PO425248  19.928  20.995   9.419
 1694POPC   GL125249  20.065  21.253   9.159
 1694POPC   GL225250  19.855  21.550   9.107
 1694POPC   C1A25251  20.032  21.244   8.721
 1694POPC   D2A25252  19.634  21.303   8.511
 1694POPC   C3A25253  19.570  21.170   8.090
 1694POPC   C4A25254  19.929  21.121   7.848
 1694POPC   C1B25255  19.861  21.747   8.653
 1694POPC   C2B25256  19.990  21.991   8.267
 1694POPC   C3B25257  20.039  21.931   7.827
 1694POPC   C4B25258  19.881  21.593   7.585
 1695POPC   NC325259   2.529  16.108   9.316
 1695POPC   PO425260   2.780  16.651   9.717
 1695POPC   GL125261   2.749  16.697   9.258
 1695POPC   GL225262   3.058  16.796   9.074
 1695POPC   C1A25263   2.623  16.614   8.849
 1695POPC   D2A25264   2.421  16.820   8.471
 1695POPC   C3A25265   2.627  16.748   8.051
 1695POPC   C4A25266   2.769  16.871   7.614
 1695POPC   C1B25267   3.188  16.989   8.718
 1695POPC   C2B25268   3.101  16.876   8.288
 1695POPC   C3B25269   3.197  16.818   7.856
 1695POPC   C4B25270   3.221  17.043   7.445
 1696POPC   NC325271   2.592  16.231   9.875
 1696POPC   PO425272   3.030  16.258   9.377
 1696POPC   GL125273   3.100  16.010   9.028
 1696POPC   GL225274   3.412  16.148   8.917
 1696POPC   C1A25275   2.866  15.903   8.638
 1696POPC   D2A25276   2.457  15.954   8.438
 1696POPC   C3A25277   2.380  15.962   7.991
 1696POPC   C4A25278   2.466  16.066   7.580
 1696POPC   C1B25279   3.112  16.434   8.699
 1696POPC   C2B25280   2.780  16.399   8.432
 1696POPC   C3B25281   2.831  16.181   8.128
 1696POPC   C4B25282   2.847  16.380   7.754
 1697POPC   NC325283  22.325   5.467   9.444
 1697POPC   PO425284  22.645   4.784   9.412
 1697POPC   GL125285  22.496   5.089   9.080
 1697POPC   GL225286  22.156   5.097   9.087
 1697POPC   C1A25287  22.311   5.197   8.633
 1697POPC   D2A25288  21.968   5.033   8.336
 1697POPC   C3A25289  22.115   5.125   7.937
 1697POPC   C4A25290  22.167   5.447   7.608
 1697POPC   C1B25291  22.086   4.754   8.777
 1697POPC   C2B25292  21.925   4.520   8.367
 1697POPC   C3B25293  21.757   4.656   7.956
 1697POPC   C4B25294  21.703   4.828   7.534
 1698POPC   NC325295   2.207  24.980   9.482
 1698POPC   PO425296   2.323  25.717   9.453
 1698POPC   GL125297   2.021  25.610   9.095
 1698POPC   GL225298   2.058  25.248   9.080
 1698POPC   C1A25299   1.924  25.459   8.653
 1698POPC   D2A25300   1.747  25.442   8.217
 1698POPC   C3A25301   2.055  25.476   7.854
 1698POPC   C4A25302   2.069  25.465   7.380
 1698POPC   C1B25303   1.917  24.953   8.722
 1698POPC   C2B25304   1.717  24.938   8.336
 1698POPC   C3B25305   1.799  25.001   7.906
 1698POPC   C4B25306   1.731  24.959   7.474
 1699POPC   NC325307  23.422  10.866   9.497
 1699POPC   PO425308  23.995  11.262   9.553
 1699POPC   GL125309  23.682  11.321   9.211
 1699POPC   GL225310  23.841  11.585   9.032
 1699POPC   C1A25311  23.467  11.074   8.844
 1699POPC   D2A25312  23.465  11.002   8.388
 1699POPC   C3A25313  23.547  11.340   8.144
 1699POPC   C4A25314  23.376  11.309   7.759
 1699POPC   C1B25315  23.801  11.423   8.641
 1699POPC   C2B25316  24.036  11.367   8.279
 1699POPC   C3B25317  23.979  11.063   7.969
 1699POPC   C4B25318  23.827  11.102   7.559
 1700POPC   NC325319  32.709  14.832   9.513
 1700POPC   PO425320  33.328  14.428   9.517
 1700POPC   GL125321  33.085  14.645   9.184
 1700POPC   GL225322  32.948  14.392   9.000
 1700POPC   C1A25323  32.802  14.824   8.829
 1700POPC   D2A25324  32.693  14.756   8.393
 1700POPC   C3A25325  33.074  14.678   8.101
 1700POPC   C4A25326  33.044  14.401   7.740
 1700POPC   C1B25327  33.192  14.523   8.663
 1700POPC   C2B25328  33.176  14.239   8.345
 1700POPC   C3B25329  33.320  14.062   7.997
 1700POPC   C4B25330  33.238  13.950   7.670
 1701POPC   NC325331  31.671  38.151   9.407
 1701POPC   PO425332  31.401  37.672   9.675
 1701POPC   GL125333  31.555  37.669   9.230
 1701POPC   GL225334  31.285  37.474   9.165
 1701POPC   C1A25335  31.697  37.752   8.764
 1701POPC   D2A25336  31.880  37.608   8.336
 1701POPC   C3A25337  31.618  37.682   7.947
 1701POPC   C4A25338  31.415  37.816   7.545
 1701POPC   C1B25339  31.420  37.334   8.781
 1701POPC   C2B25340  31.372  37.459   8.373
 1701POPC   C3B25341  31.294  37.303   7.990
 1701POPC   C4B25342  31.046  37.454   7.658
 1702POPC   NC325343  35.016  14.973   9.254
 1702POPC   PO425344  34.594  15.429   9.438
 1702POPC   GL125345  34.557  15.324   9.063
 1702POPC   GL225346  34.507  15.665   8.970
 1702POPC   C1A25347  34.475  15.219   8.662
 1702POPC   D2A25348  34.664  15.337   8.285
 1702POPC   C3A25349  34.614  15.021   7.963
 1702POPC   C4A25350  34.658  15.118   7.541
 1702POPC   C1B25351  34.246  15.682   8.602
 1702POPC   C2B25352  34.322  15.693   8.143
 1702POPC   C3B25353  34.555  15.521   7.808
 1702POPC   C4B25354  34.486  15.531   7.319
 1703POPC   NC325355  21.604  43.629   9.952
 1703POPC   PO425356  21.145  43.543   9.628
 1703POPC   GL125357  21.216  43.310   9.170
 1703POPC   GL225358  21.449  43.027   9.128
 1703POPC   C1A25359  21.213  43.112   8.701
 1703POPC   D2A25360  21.427  42.898   8.346
 1703POPC   C3A25361  21.354  42.995   7.875
 1703POPC   C4A25362  21.330  43.356   7.514
 1703POPC   C1B25363  21.703  43.220   8.744
 1703POPC   C2B25364  21.750  43.287   8.253
 1703POPC   C3B25365  21.779  43.267   7.760
 1703POPC   C4B25366  22.175  43.288   7.505
 1704POPC   NC325367  13.661  37.524   9.322
 1704POPC   PO425368  13.217  38.054   9.482
 1704POPC   GL125369  13.408  37.881   9.064
 1704POPC   GL225370  13.412  37.500   8.885
 1704POPC   C1A25371  13.544  37.926   8.638
 1704POPC   D2A25372  13.651  37.753   8.265
 1704POPC   C3A25373  13.452  37.493   7.969
 1704POPC   C4A25374  13.435  37.799   7.609
 1704POPC   C1B25375  13.801  37.409   8.605
 1704POPC   C2B25376  14.017  37.428   8.162
 1704POPC   C3B25377  13.892  37.699   7.798
 1704POPC   C4B25378  13.802  37.573   7.330
 1705POPC   NC325379  20.618  44.650   9.705
 1705POPC   PO425380  21.090  44.526   9.453
 1705POPC   GL125381  20.744  44.563   9.129
 1705POPC   GL225382  20.586  44.881   9.149
 1705POPC   C1A25383  20.552  44.519   8.678
 1705POPC   D2A25384  20.580  44.480   8.192
 1705POPC   C3A25385  20.321  44.746   7.910
 1705POPC   C4A25386  19.996  44.653   7.559
 1705POPC   C1B25387  20.774  44.975   8.717
 1705POPC   C2B25388  20.727  44.966   8.244
 1705POPC   C3B25389  20.788  44.957   7.789
 1705POPC   C4B25390  20.819   0.275   7.468
 1706POPC   NC325391  18.572  28.981   9.654
 1706POPC   PO425392  18.079  29.210   9.512
 1706POPC   GL125393  18.256  29.162   9.092
 1706POPC   GL225394  18.440  28.873   9.139
 1706POPC   C1A25395  18.277  29.295   8.641
 1706POPC   D2A25396  18.034  29.319   8.253
 1706POPC   C3A25397  18.214  29.371   7.847
 1706POPC   C4A25398  18.036  29.125   7.500
 1706POPC   C1B25399  18.497  28.828   8.683
 1706POPC   C2B25400  18.233  28.835   8.325
 1706POPC   C3B25401  18.274  28.867   7.891
 1706POPC   C4B25402  18.625  29.040   7.668
 1707POPC   NC325403  27.489  38.244   9.546
 1707POPC   PO425404  28.037  38.605   9.524
 1707POPC   GL125405  27.847  38.359   9.192
 1707POPC   GL225406  27.512  38.501   9.100
 1707POPC   C1A25407  27.877  38.431   8.745
 1707POPC   D2A25408  27.581  38.464   8.404
 1707POPC   C3A25409  27.849  38.376   8.046
 1707POPC   C4A25410  27.841  38.104   7.698
 1707POPC   C1B25411  27.209  38.673   8.794
 1707POPC   C2B25412  27.246  38.827   8.380
 1707POPC   C3B25413  27.207  38.536   8.045
 1707POPC   C4B25414  27.442  38.447   7.683
 1708POPC   NC325415   0.108  36.407   9.353
 1708POPC   PO425416   0.339  35.833   9.611
 1708POPC   GL125417   0.275  35.969   9.170
 1708POPC   GL225418   0.579  35.875   9.046
 1708POPC   C1A25419   0.363  36.270   8.771
 1708POPC   D2A25420   0.226  36.446   8.346
 1708POPC   C3A25421   0.382  36.243   7.971
 1708POPC   C4A25422   0.751  36.078   7.789
 1708POPC   C1B25423   0.278  35.769   8.694
 1708POPC   C2B25424   0.089  35.935   8.313
 1708POPC   C3B25425   0.178  35.783   7.890
 1708POPC   C4B25426   0.458  35.481   7.635
 1709POPC   NC325427  15.205  28.179   9.687
 1709POPC   PO425428  14.826  28.446   9.287
 1709POPC   GL125429  15.089  28.158   9.194
 1709POPC   GL225430  15.351  28.421   9.223
 1709POPC   C1A25431  15.182  27.937   8.841
 1709POPC   D2A25432  15.289  28.178   8.482
 1709POPC   C3A25433  15.167  28.176   8.075
 1709POPC   C4A25434  15.441  28.179   7.705
 1709POPC   C1B25435  15.193  28.578   8.801
 1709POPC   C2B25436  15.033  28.643   8.386
 1709POPC   C3B25437  15.262  28.670   7.983
 1709POPC   C4B25438  15.062  28.507   7.642
 1710POPC   NC325439  33.961  33.780   9.658
 1710POPC   PO425440  33.457  34.004   9.325
 1710POPC   GL125441  33.768  33.655   9.191
 1710POPC   GL225442  34.105  33.448   9.322
 1710POPC   C1A25443  33.696  33.549   8.775
 1710POPC   D2A25444  33.890  33.712   8.409
 1710POPC   C3A25445  33.852  33.561   7.985
 1710POPC   C4A25446  33.701  33.844   7.661
 1710POPC   C1B25447  34.187  33.514   8.899
 1710POPC   C2B25448  34.179  33.300   8.509
 1710POPC   C3B25449  34.339  33.337   8.107
 1710POPC   C4B25450  34.297  33.573   7.717
 1711POPC   NC325451  37.852  32.172   9.320
 1711POPC   PO425452  37.257  31.870   9.209
 1711POPC   GL125453  37.414  32.234   9.061
 1711POPC   GL225454  37.665  31.973   8.894
 1711POPC   C1A25455  37.522  32.405   8.672
 1711POPC   D2A25456  37.648  32.080   8.388
 1711POPC   C3A25457  37.693  32.255   8.009
 1711POPC   C4A25458  37.494  32.514   7.732
 1711POPC   C1B25459  38.066  32.135   8.703
 1711POPC   C2B25460  38.245  32.301   8.311
 1711POPC   C3B25461  38.183  32.378   7.864
 1711POPC   C4B25462  37.943  32.141   7.572
 1712POPC   NC325463  26.642  41.757   9.565
 1712POPC   PO425464  27.283  41.675   9.463
 1712POPC   GL125465  26.982  41.846   9.173
 1712POPC   GL225466  26.615  41.741   9.060
 1712POPC   C1A25467  27.001  41.894   8.740
 1712POPC   D2A25468  26.940  41.590   8.402
 1712POPC   C3A25469  26.765  41.735   8.037
 1712POPC   C4A25470  27.072  41.948   7.787
 1712POPC   C1B25471  26.475  41.627   8.608
 1712POPC   C2B25472  26.510  41.312   8.258
 1712POPC   C3B25473  26.880  41.236   7.984
 1712POPC   C4B25474  26.823  41.447   7.589
 1713POPC   NC325475  33.669  16.491   9.394
 1713POPC   PO425476  34.170  16.951   9.471
 1713POPC   GL125477  33.988  16.772   9.102
 1713POPC   GL225478  33.714  16.992   9.022
 1713POPC   C1A25479  33.932  16.734   8.648
 1713POPC   D2A25480  33.921  16.932   8.250
 1713POPC   C3A25481  34.134  16.698   7.881
 1713POPC   C4A25482  34.154  16.826   7.430
 1713POPC   C1B25483  33.455  16.656   8.769
 1713POPC   C2B25484  33.573  16.484   8.360
 1713POPC   C3B25485  33.616  16.677   7.951
 1713POPC   C4B25486  33.722  16.531   7.583
 1714POPC   NC325487   3.370  13.308   9.615
 1714POPC   PO425488   3.708  13.908   9.528
 1714POPC   GL125489   3.518  13.831   9.163
 1714POPC   GL225490   3.623  13.488   9.183
 1714POPC   C1A25491   3.597  13.971   8.763
 1714POPC   D2A25492   3.537  13.701   8.453
 1714POPC   C3A25493   3.537  13.862   8.091
 1714POPC   C4A25494   3.671  14.006   7.730
 1714POPC   C1B25495   3.565  13.236   8.829
 1714POPC   C2B25496   3.731  13.164   8.472
 1714POPC   C3B25497   3.595  13.324   8.099
 1714POPC   C4B25498   3.560  13.511   7.697
 1715POPC   NC325499  24.011  16.967   9.346
 1715POPC   PO425500  23.442  16.545   9.483
 1715POPC   GL125501  23.613  16.777   9.087
 1715POPC   GL225502  23.834  17.033   8.885
 1715POPC   C1A25503  23.402  16.892   8.683
 1715POPC   D2A25504  23.618  16.906   8.278
 1715POPC   C3A25505  23.394  16.779   7.909
 1715POPC   C4A25506  23.238  16.925   7.509
 1715POPC   C1B25507  23.844  16.604   8.664
 1715POPC   C2B25508  23.806  16.432   8.260
 1715POPC   C3B25509  23.905  16.717   7.885
 1715POPC   C4B25510  23.710  16.701   7.508
 1716POPC   NC325511  28.651  24.133   9.481
 1716POPC   PO425512  28.475  23.519   9.608
 1716POPC   GL125513  28.578  23.549   9.190
 1716POPC   GL225514  28.316  23.773   9.151
 1716POPC   C1A25515  28.454  23.484   8.764
 1716POPC   D2A25516  28.295  23.764   8.446
 1716POPC   C3A25517  28.394  23.561   8.036
 1716POPC   C4A25518  28.180  23.631   7.662
 1716POPC   C1B25519  28.623  23.969   8.875
 1716POPC   C2B25520  28.675  24.136   8.481
 1716POPC   C3B25521  28.596  24.020   8.097
 1716POPC   C4B25522  28.457  24.075   7.701
 1717POPC   NC325523   5.636  42.052   9.573
 1717POPC   PO425524   6.086  42.556   9.507
 1717POPC   GL125525   5.791  42.583   9.182
 1717POPC   GL225526   5.611  42.280   9.124
 1717POPC   C1A25527   5.830  42.622   8.736
 1717POPC   D2A25528   5.851  42.378   8.363
 1717POPC   C3A25529   5.926  42.579   7.989
 1717POPC   C4A25530   5.805  42.346   7.658
 1717POPC   C1B25531   5.419  41.981   8.814
 1717POPC   C2B25532   5.577  41.824   8.419
 1717POPC   C3B25533   5.580  42.025   8.012
 1717POPC   C4B25534   5.416  42.065   7.588
 1718POPC   NC325535  30.226  16.971   9.278
 1718POPC   PO425536  29.996  17.529   9.541
 1718POPC   GL125537  29.974  17.558   9.108
 1718POPC   GL225538  29.958  17.244   8.958
 1718POPC   C1A25539  30.186  17.692   8.750
 1718POPC   D2A25540  30.098  17.997   8.442
 1718POPC   C3A25541  29.840  17.791   8.146
 1718POPC   C4A25542  30.021  17.691   7.757
 1718POPC   C1B25543  29.579  17.169   8.776
 1718POPC   C2B25544  29.579  17.464   8.479
 1718POPC   C3B25545  29.547  17.356   8.059
 1718POPC   C4B25546  29.762  17.256   7.679
 1719POPC   NC325547  24.123  40.565   9.469
 1719POPC   PO425548  24.696  40.826   9.719
 1719POPC   GL125549  24.602  40.663   9.258
 1719POPC   GL225550  24.328  40.833   9.095
 1719POPC   C1A25551  24.713  40.641   8.798
 1719POPC   D2A25552  24.554  40.651   8.396
 1719POPC   C3A25553  24.727  40.859   8.044
 1719POPC   C4A25554  24.619  40.708   7.683
 1719POPC   C1B25555  24.207  40.514   8.783
 1719POPC   C2B25556  24.049  40.585   8.363
 1719POPC   C3B25557  24.205  40.784   8.036
 1719POPC   C4B25558  24.132  40.598   7.663
 1720POPC   NC325559  20.516   4.740   9.465
 1720POPC   PO425560  21.191   4.884   9.401
 1720POPC   GL125561  20.827   5.016   9.125
 1720POPC   GL225562  20.479   5.186   9.167
 1720POPC   C1A25563  20.599   4.831   8.753
 1720POPC   D2A25564  20.363   4.876   8.354
 1720POPC   C3A25565  20.596   4.960   7.953
 1720POPC   C4A25566  20.784   4.679   7.680
 1720POPC   C1B25567  20.479   5.310   8.730
 1720POPC   C2B25568  20.691   5.555   8.423
 1720POPC   C3B25569  20.703   5.475   8.012
 1720POPC   C4B25570  20.417   5.364   7.694
 1721POPC   NC325571  14.677  25.248   9.607
 1721POPC   PO425572  14.065  24.917   9.642
 1721POPC   GL125573  14.292  25.008   9.235
 1721POPC   GL225574  14.279  25.361   9.145
 1721POPC   C1A25575  14.458  25.019   8.785
 1721POPC   D2A25576  14.365  25.198   8.361
 1721POPC   C3A25577  14.472  25.228   7.926
 1721POPC   C4A25578  14.197  25.365   7.589
 1721POPC   C1B25579  14.365  25.567   8.730
 1721POPC   C2B25580  14.530  25.769   8.357
 1721POPC   C3B25581  14.798  25.642   8.038
 1721POPC   C4B25582  14.664  25.617   7.612
 1722POPC   NC325583  29.345   9.238   9.456
 1722POPC   PO425584  28.702   8.984   9.724
 1722POPC   GL125585  28.843   8.874   9.242
 1722POPC   GL225586  29.065   9.133   9.048
 1722POPC   C1A25587  28.860   8.778   8.776
 1722POPC   D2A25588  29.099   9.061   8.504
 1722POPC   C3A25589  29.005   9.009   8.089
 1722POPC   C4A25590  28.888   9.015   7.704
 1722POPC   C1B25591  29.494   9.064   8.832
 1722POPC   C2B25592  29.702   8.776   8.573
 1722POPC   C3B25593  29.495   8.843   8.202
 1722POPC   C4B25594  29.369   8.792   7.780
 1723POPC   NC325595  19.600  31.406   9.516
 1723POPC   PO425596  20.280  31.172   9.464
 1723POPC   GL125597  19.974  31.374   9.184
 1723POPC   GL225598  19.629  31.204   9.057
 1723POPC   C1A25599  19.987  31.453   8.779
 1723POPC   D2A25600  20.160  31.589   8.434
 1723POPC   C3A25601  19.945  31.499   8.088
 1723POPC   C4A25602  19.939  31.535   7.662
 1723POPC   C1B25603  19.486  31.514   8.765
 1723POPC   C2B25604  19.492  31.671   8.329
 1723POPC   C3B25605  19.496  31.594   7.887
 1723POPC   C4B25606  19.629  31.155   7.793
 1724POPC   NC325607   4.523  28.679   9.345
 1724POPC   PO425608   4.269  29.218   9.631
 1724POPC   GL125609   4.166  29.045   9.219
 1724POPC   GL225610   4.293  29.308   9.021
 1724POPC   C1A25611   4.226  28.892   8.764
 1724POPC   D2A25612   4.272  29.169   8.401
 1724POPC   C3A25613   4.404  29.003   8.033
 1724POPC   C4A25614   4.349  28.761   7.695
 1724POPC   C1B25615   4.549  29.471   8.705
 1724POPC   C2B25616   4.542  29.587   8.294
 1724POPC   C3B25617   4.630  29.455   7.876
 1724POPC   C4B25618   4.563  29.505   7.416
 1725POPC   NC325619  23.507  39.813   9.508
 1725POPC   PO425620  23.658  40.450   9.490
 1725POPC   GL125621  23.548  40.228   9.099
 1725POPC   GL225622  23.441  39.863   9.002
 1725POPC   C1A25623  23.720  40.263   8.681
 1725POPC   D2A25624  23.720  40.057   8.296
 1725POPC   C3A25625  23.908  40.259   7.983
 1725POPC   C4A25626  24.107  40.096   7.635
 1725POPC   C1B25627  23.910  39.851   8.920
 1725POPC   C2B25628  24.068  39.727   8.496
 1725POPC   C3B25629  24.129  39.792   8.037
 1725POPC   C4B25630  24.078  39.576   7.627
 1726POPC   NC325631  21.194  24.084   9.865
 1726POPC   PO425632  21.320  23.578   9.390
 1726POPC   GL125633  21.458  23.323   9.075
 1726POPC   GL225634  21.775  23.112   9.070
 1726POPC   C1A25635  21.378  23.564   8.707
 1726POPC   D2A25636  21.212  23.680   8.307
 1726POPC   C3A25637  21.410  23.765   7.909
 1726POPC   C4A25638  21.010  23.621   7.761
 1726POPC   C1B25639  21.871  23.435   8.762
 1726POPC   C2B25640  21.747  23.607   8.370
 1726POPC   C3B25641  21.810  23.444   8.003
 1726POPC   C4B25642  21.837  23.553   7.610
 1727POPC   NC325643  37.889  30.495   9.549
 1727POPC   PO425644  37.523  31.009   9.414
 1727POPC   GL125645  37.761  30.786   9.139
 1727POPC   GL225646  37.523  30.508   9.185
 1727POPC   C1A25647  37.867  30.882   8.713
 1727POPC   D2A25648  37.628  30.967   8.331
 1727POPC   C3A25649  37.759  30.797   7.928
 1727POPC   C4A25650  37.514  30.813   7.555
 1727POPC   C1B25651  37.678  30.406   8.802
 1727POPC   C2B25652  37.841  30.445   8.391
 1727POPC   C3B25653  37.661  30.290   8.001
 1727POPC   C4B25654  37.733  30.348   7.552
 1728POPC   NC325655  26.191  15.598   9.390
 1728POPC   PO425656  25.697  15.099   9.465
 1728POPC   GL125657  25.971  15.099   9.143
 1728POPC   GL225658  26.038  14.755   9.132
 1728POPC   C1A25659  25.910  15.336   8.772
 1728POPC   D2A25660  25.930  15.220   8.353
 1728POPC   C3A25661  26.212  15.427   8.081
 1728POPC   C4A25662  25.957  15.457   7.718
 1728POPC   C1B25663  26.121  14.847   8.685
 1728POPC   C2B25664  26.115  14.750   8.266
 1728POPC   C3B25665  26.086  14.955   7.911
 1728POPC   C4B25666  26.444  14.852   7.784
 1729POPC   NC325667  10.985  12.717   9.530
 1729POPC   PO425668  11.471  13.105   9.640
 1729POPC   GL125669  11.333  13.162   9.183
 1729POPC   GL225670  11.069  12.955   9.073
 1729POPC   C1A25671  11.436  13.025   8.733
 1729POPC   D2A25672  11.299  12.851   8.345
 1729POPC   C3A25673  11.338  13.121   7.981
 1729POPC   C4A25674  11.198  13.105   7.548
 1729POPC   C1B25675  10.930  12.728   8.719
 1729POPC   C2B25676  10.797  12.620   8.329
 1729POPC   C3B25677  10.875  12.813   7.924
 1729POPC   C4B25678  10.944  12.633   7.529
 1730POPC   NC325679  16.236  22.801   9.628
 1730POPC   PO425680  15.594  23.082   9.691
 1730POPC   GL125681  15.877  23.049   9.303
 1730POPC   GL225682  15.989  22.719   9.187
 1730POPC   C1A25683  15.790  23.000   8.829
 1730POPC   D2A25684  15.966  22.830   8.443
 1730POPC   C3A25685  15.810  22.835   8.006
 1730POPC   C4A25686  16.098  23.116   7.783
 1730POPC   C1B25687  16.290  22.657   8.787
 1730POPC   C2B25688  16.420  22.608   8.314
 1730POPC   C3B25689  16.297  22.656   7.864
 1730POPC   C4B25690  16.185  22.654   7.392
 1731POPC   NC325691  44.293  27.265   9.381
 1731POPC   PO425692  44.897  27.361   9.657
 1731POPC   GL125693  44.697  27.579   9.270
 1731POPC   GL225694  44.327  27.763   9.273
 1731POPC   C1A25695  44.839  27.550   8.841
 1731POPC   D2A25696   0.096  27.726   8.516
 1731POPC   C3A25697  44.991  27.641   8.107
 1731POPC   C4A25698  44.907  27.345   7.776
 1731POPC   C1B25699  44.375  27.830   8.818
 1731POPC   C2B25700  44.574  27.677   8.408
 1731POPC   C3B25701  44.466  27.560   7.959
 1731POPC   C4B25702  44.354  27.725   7.526
 1732POPC   NC325703   4.896  44.505   9.484
 1732POPC   PO425704   5.450  44.303   9.310
 1732POPC   GL125705   5.171  44.492   9.066
 1732POPC   GL225706   5.092  44.840   9.148
 1732POPC   C1A25707   5.033  44.331   8.705
 1732POPC   D2A25708   5.087  44.553   8.330
 1732POPC   C3A25709   4.819  44.457   8.020
 1732POPC   C4A25710   5.008  44.549   7.659
 1732POPC   C1B25711   4.895  44.837   8.737
 1732POPC   C2B25712   4.738  44.991   8.361
 1732POPC   C3B25713   4.943  44.948   7.999
 1732POPC   C4B25714   4.772  44.983   7.606
 1733POPC   NC325715  28.989  20.781   9.647
 1733POPC   PO425716  28.728  21.444   9.605
 1733POPC   GL125717  28.731  21.496   9.162
 1733POPC   GL225718  28.993  21.241   9.060
 1733POPC   C1A25719  28.806  21.586   8.714
 1733POPC   D2A25720  29.154  21.573   8.465
 1733POPC   C3A25721  29.172  21.566   8.027
 1733POPC   C4A25722  29.283  21.210   7.810
 1733POPC   C1B25723  28.913  21.074   8.656
 1733POPC   C2B25724  28.890  21.156   8.242
 1733POPC   C3B25725  28.870  20.910   7.903
 1733POPC   C4B25726  28.816  21.086   7.534
 1734POPC   NC325727  28.453  21.857   9.533
 1734POPC   PO425728  28.447  22.520   9.621
 1734POPC   GL125729  28.386  22.365   9.171
 1734POPC   GL225730  28.201  22.062   9.121
 1734POPC   C1A25731  28.553  22.191   8.761
 1734POPC   D2A25732  28.703  22.412   8.430
 1734POPC   C3A25733  28.376  22.453   8.181
 1734POPC   C4A25734  28.406  22.339   7.784
 1734POPC   C1B25735  28.058  22.284   8.718
 1734POPC   C2B25736  27.888  22.247   8.277
 1734POPC   C3B25737  27.943  22.125   7.835
 1734POPC   C4B25738  27.943  22.078   7.371
 1735POPC   NC325739   9.359  37.285   9.540
 1735POPC   PO425740   9.969  37.248   9.908
 1735POPC   GL125741   9.873  37.291   9.409
 1735POPC   GL225742   9.881  36.957   9.234
 1735POPC   C1A25743   9.665  37.303   8.945
 1735POPC   D2A25744   9.595  37.178   8.510
 1735POPC   C3A25745   9.469  37.133   8.075
 1735POPC   C4A25746   9.666  37.272   7.696
 1735POPC   C1B25747   9.824  36.805   8.790
 1735POPC   C2B25748   9.726  36.710   8.336
 1735POPC   C3B25749   9.943  36.828   7.965
 1735POPC   C4B25750  10.345  36.700   7.768
 1736POPC   NC325751  15.525  19.503   9.490
 1736POPC   PO425752  15.223  18.942   9.694
 1736POPC   GL125753  15.315  19.085   9.251
 1736POPC   GL225754  15.356  18.824   9.099
 1736POPC   C1A25755  15.179  19.249   8.828
 1736POPC   D2A25756  15.286  19.247   8.380
 1736POPC   C3A25757  14.941  19.064   8.169
 1736POPC   C4A25758  14.750  18.939   7.789
 1736POPC   C1B25759  15.554  18.921   8.710
 1736POPC   C2B25760  15.560  18.847   8.275
 1736POPC   C3B25761  15.366  18.964   7.862
 1736POPC   C4B25762  15.487  18.999   7.428
 1737POPC   NC325763   2.536  22.392   9.583
 1737POPC   PO425764   3.150  22.180   9.697
 1737POPC   GL125765   2.810  22.155   9.248
 1737POPC   GL225766   2.590  22.426   9.078
 1737POPC   C1A25767   2.902  22.099   8.789
 1737POPC   D2A25768   3.112  22.142   8.367
 1737POPC   C3A25769   2.825  22.115   8.041
 1737POPC   C4A25770   2.497  22.073   7.723
 1737POPC   C1B25771   2.439  22.338   8.655
 1737POPC   C2B25772   2.365  22.330   8.187
 1737POPC   C3B25773   2.474  22.574   7.816
 1737POPC   C4B25774   2.446  22.471   7.378
 1738POPC   NC325775  12.192  34.462   9.556
 1738POPC   PO425776  11.645  34.734   9.640
 1738POPC   GL125777  11.914  34.767   9.248
 1738POPC   GL225778  12.260  34.626   9.099
 1738POPC   C1A25779  11.821  34.635   8.845
 1738POPC   D2A25780  11.955  34.436   8.493
 1738POPC   C3A25781  11.816  34.599   8.135
 1738POPC   C4A25782  11.878  34.488   7.704
 1738POPC   C1B25783  12.301  34.736   8.695
 1738POPC   C2B25784  12.158  34.947   8.311
 1738POPC   C3B25785  12.275  34.747   7.918
 1738POPC   C4B25786  12.401  34.672   7.494
 1739POPC   NC325787  27.123  35.966   9.879
 1739POPC   PO425788  27.448  36.336   9.424
 1739POPC   GL125789  27.594  36.105   9.104
 1739POPC   GL225790  27.301  35.994   8.969
 1739POPC   C1A25791  27.747  35.963   8.713
 1739POPC   D2A25792  27.787  36.145   8.315
 1739POPC   C3A25793  27.736  35.843   8.002
 1739POPC   C4A25794  27.489  35.821   7.637
 1739POPC   C1B25795  27.289  36.275   8.645
 1739POPC   C2B25796  27.287  36.228   8.213
 1739POPC   C3B25797  27.271  36.317   7.831
 1739POPC   C4B25798  27.145  36.612   7.604
 1740POPC   NC325799  38.730  25.545   9.508
 1740POPC   PO425800  38.037  25.383   9.494
 1740POPC   GL125801  38.343  25.326   9.168
 1740POPC   GL225802  38.498  25.655   9.071
 1740POPC   C1A25803  38.373  25.090   8.758
 1740POPC   D2A25804  38.139  24.941   8.381
 1740POPC   C3A25805  38.328  25.110   7.990
 1740POPC   C4A25806  38.586  24.938   7.702
 1740POPC   C1B25807  38.178  25.568   8.746
 1740POPC   C2B25808  38.206  25.434   8.374
 1740POPC   C3B25809  38.060  25.562   8.011
 1740POPC   C4B25810  38.282  25.563   7.650
 1741POPC   NC325811   4.172   3.876   9.610
 1741POPC   PO425812   4.526   3.320   9.483
 1741POPC   GL125813   4.353   3.502   9.119
 1741POPC   GL225814   3.988   3.513   9.204
 1741POPC   C1A25815   4.454   3.377   8.696
 1741POPC   D2A25816   4.453   3.057   8.360
 1741POPC   C3A25817   4.519   3.222   7.970
 1741POPC   C4A25818   4.374   3.501   7.679
 1741POPC   C1B25819   3.966   3.592   8.740
 1741POPC   C2B25820   4.171   3.569   8.316
 1741POPC   C3B25821   3.959   3.644   7.941
 1741POPC   C4B25822   3.984   3.854   7.572
 1742POPC   NC325823  13.346  30.950   9.673
 1742POPC   PO425824  13.742  31.507   9.477
 1742POPC   GL125825  13.477  31.517   9.095
 1742POPC   GL225826  13.428  31.166   9.189
 1742POPC   C1A25827  13.521  31.699   8.661
 1742POPC   D2A25828  13.611  31.559   8.236
 1742POPC   C3A25829  13.500  31.712   7.874
 1742POPC   C4A25830  13.945  31.712   7.778
 1742POPC   C1B25831  13.655  31.193   8.775
 1742POPC   C2B25832  13.325  31.249   8.501
 1742POPC   C3B25833  13.308  31.206   8.052
 1742POPC   C4B25834  13.325  31.283   7.624
 1743POPC   NC325835  15.618   1.914   9.482
 1743POPC   PO425836  16.162   2.297   9.417
 1743POPC   GL125837  15.984   2.020   9.131
 1743POPC   GL225838  15.700   2.258   9.103
 1743POPC   C1A25839  16.083   1.728   8.788
 1743POPC   D2A25840  16.266   1.520   8.403
 1743POPC   C3A25841  16.083   1.566   7.959
 1743POPC   C4A25842  16.155   1.901   7.642
 1743POPC   C1B25843  15.747   2.117   8.684
 1743POPC   C2B25844  15.936   1.942   8.309
 1743POPC   C3B25845  15.732   1.987   7.911
 1743POPC   C4B25846  15.513   2.384   7.798
 1744POPC   NC325847   0.763   0.927   9.421
 1744POPC   PO425848   0.337   0.381   9.513
 1744POPC   GL125849   0.497   0.495   9.151
 1744POPC   GL225850   0.142   0.506   9.056
 1744POPC   C1A25851   0.514   0.265   8.769
 1744POPC   D2A25852   0.379   0.029   8.433
 1744POPC   C3A25853   0.527   0.178   8.042
 1744POPC   C4A25854   0.575   0.395   7.650
 1744POPC   C1B25855   0.341   0.769   8.750
 1744POPC   C2B25856   0.481   0.597   8.352
 1744POPC   C3B25857   0.330   0.729   7.960
 1744POPC   C4B25858   0.273   0.765   7.501
 1745POPC   NC325859  41.039  41.595   9.572
 1745POPC   PO425860  40.413  41.582   9.526
 1745POPC   GL125861  40.727  41.462   9.193
 1745POPC   GL225862  41.111  41.346   9.140
 1745POPC   C1A25863  40.729  41.401   8.797
 1745POPC   D2A25864  40.589  41.696   8.550
 1745POPC   C3A25865  40.614  41.666   8.121
 1745POPC   C4A25866  40.575  41.472   7.719
 1745POPC   C1B25867  41.098  41.720   8.875
 1745POPC   C2B25868  41.086  41.759   8.427
 1745POPC   C3B25869  41.097  41.560   8.009
 1745POPC   C4B25870  41.004  41.812   7.688
 1746POPC   NC325871  17.899  19.951   9.350
 1746POPC   PO425872  17.290  19.583   9.478
 1746POPC   GL125873  17.530  19.658   9.143
 1746POPC   GL225874  17.326  19.951   9.111
 1746POPC   C1A25875  17.652  19.797   8.730
 1746POPC   D2A25876  17.471  19.971   8.379
 1746POPC   C3A25877  17.682  19.852   8.008
 1746POPC   C4A25878  17.800  19.973   7.581
 1746POPC   C1B25879  17.166  19.637   8.781
 1746POPC   C2B25880  17.309  19.503   8.373
 1746POPC   C3B25881  17.181  19.648   7.987
 1746POPC   C4B25882  17.390  19.688   7.598
 1747POPC   NC325883  27.432  19.698   9.578
 1747POPC   PO425884  27.642  20.328   9.491
 1747POPC   GL125885  27.487  20.002   9.150
 1747POPC   GL225886  27.644  19.680   9.124
 1747POPC   C1A25887  27.492  19.914   8.705
 1747POPC   D2A25888  27.695  20.040   8.344
 1747POPC   C3A25889  27.360  19.957   8.058
 1747POPC   C4A25890  27.424  20.065   7.663
 1747POPC   C1B25891  27.804  19.472   8.761
 1747POPC   C2B25892  27.673  19.508   8.345
 1747POPC   C3B25893  27.803  19.670   7.966
 1747POPC   C4B25894  27.750  19.672   7.528
 1748POPC   NC325895  15.850  36.757   9.579
 1748POPC   PO425896  16.301  36.496   9.394
 1748POPC   GL125897  16.093  36.885   9.140
 1748POPC   GL225898  15.709  36.857   9.101
 1748POPC   C1A25899  15.958  37.138   8.753
 1748POPC   D2A25900  15.876  36.978   8.337
 1748POPC   C3A25901  15.885  37.179   7.984
 1748POPC   C4A25902  16.276  37.171   7.728
 1748POPC   C1B25903  15.681  36.684   8.697
 1748POPC   C2B25904  15.701  36.505   8.266
 1748POPC   C3B25905  15.825  36.667   7.844
 1748POPC   C4B25906  15.774  36.570   7.375
 1749POPC   NC325907  15.157  25.119   9.339
 1749POPC   PO425908  14.741  25.560   9.278
 1749POPC   GL125909  14.814  25.330   8.956
 1749POPC   GL225910  15.174  25.248   8.863
 1749POPC   C1A25911  14.834  25.387   8.524
 1749POPC   D2A25912  15.171  25.175   8.359
 1749POPC   C3A25913  14.978  24.987   8.102
 1749POPC   C4A25914  14.960  25.245   7.767
 1749POPC   C1B25915  15.476  24.924   8.691
 1749POPC   C2B25916  15.668  25.024   8.269
 1749POPC   C3B25917  15.435  25.049   7.881
 1749POPC   C4B25918  15.414  25.354   7.552
 1750POPC   NC325919  27.473   6.880   9.648
 1750POPC   PO425920  27.583   6.183   9.631
 1750POPC   GL125921  27.693   6.483   9.221
 1750POPC   GL225922  27.837   6.789   9.300
 1750POPC   C1A25923  27.574   6.426   8.751
 1750POPC   D2A25924  27.449   6.556   8.372
 1750POPC   C3A25925  27.627   6.399   8.016
 1750POPC   C4A25926  27.553   6.653   7.680
 1750POPC   C1B25927  27.944   6.743   8.857
 1750POPC   C2B25928  27.876   6.876   8.449
 1750POPC   C3B25929  27.885   6.833   8.041
 1750POPC   C4B25930  27.983   6.935   7.645
 1751POPC   NC325931  36.542  17.965   9.450
 1751POPC   PO425932  36.274  17.375   9.293
 1751POPC   GL125933  36.118  17.499   8.931
 1751POPC   GL225934  35.986  17.813   9.058
 1751POPC   C1A25935  35.870  17.608   8.578
 1751POPC   D2A25936  35.855  17.518   8.167
 1751POPC   C3A25937  36.245  17.360   7.967
 1751POPC   C4A25938  36.423  17.206   7.587
 1751POPC   C1B25939  36.252  17.916   8.682
 1751POPC   C2B25940  36.270  17.800   8.267
 1751POPC   C3B25941  36.199  17.888   7.821
 1751POPC   C4B25942  36.427  18.098   7.466
 1752POPC   NC325943  24.167  19.287   9.407
 1752POPC   PO425944  23.561  18.975   9.615
 1752POPC   GL125945  23.798  18.937   9.226
 1752POPC   GL225946  23.758  19.256   9.128
 1752POPC   C1A25947  23.742  18.909   8.762
 1752POPC   D2A25948  23.571  18.992   8.355
 1752POPC   C3A25949  23.757  18.874   7.968
 1752POPC   C4A25950  23.603  18.934   7.549
 1752POPC   C1B25951  23.891  19.440   8.760
 1752POPC   C2B25952  23.708  19.607   8.413
 1752POPC   C3B25953  23.694  19.386   8.053
 1752POPC   C4B25954  23.874  19.347   7.660
 1753POPC   NC325955  36.189  32.673   9.831
 1753POPC   PO425956  35.658  32.272   9.576
 1753POPC   GL125957  35.713  32.241   9.144
 1753POPC   GL225958  35.486  32.502   9.126
 1753POPC   C1A25959  36.065  32.204   8.830
 1753POPC   D2A25960  36.255  32.405   8.489
 1753POPC   C3A25961  36.176  32.449   8.075
 1753POPC   C4A25962  36.239  32.200   7.702
 1753POPC   C1B25963  35.702  32.559   8.731
 1753POPC   C2B25964  35.783  32.254   8.376
 1753POPC   C3B25965  35.772  32.193   7.905
 1753POPC   C4B25966  35.903  32.582   7.653
 1754POPC   NC325967  31.791  21.798   9.513
 1754POPC   PO425968  31.114  22.090   9.594
 1754POPC   GL125969  31.377  22.200   9.248
 1754POPC   GL225970  31.289  22.546   9.157
 1754POPC   C1A25971  31.502  22.002   8.882
 1754POPC   D2A25972  31.501  21.831   8.457
 1754POPC   C3A25973  31.783  22.014   8.183
 1754POPC   C4A25974  31.646  22.068   7.780
 1754POPC   C1B25975  31.622  22.521   8.871
 1754POPC   C2B25976  31.559  22.358   8.480
 1754POPC   C3B25977  31.440  22.438   8.050
 1754POPC   C4B25978  31.281  22.458   7.637
 1755POPC   NC325979  23.082  26.575   9.427
 1755POPC   PO425980  22.460  26.886   9.448
 1755POPC   GL125981  22.781  26.885   9.139
 1755POPC   GL225982  22.836  26.532   8.992
 1755POPC   C1A25983  22.900  27.042   8.766
 1755POPC   D2A25984  22.685  26.701   8.546
 1755POPC   C3A25985  22.844  26.602   8.172
 1755POPC   C4A25986  22.812  26.786   7.804
 1755POPC   C1B25987  23.200  26.637   8.716
 1755POPC   C2B25988  23.322  26.454   8.299
 1755POPC   C3B25989  23.300  26.609   7.884
 1755POPC   C4B25990  23.122  26.484   7.504
 1756POPC   NC325991  41.267  34.139   9.366
 1756POPC   PO425992  40.869  34.738   9.538
 1756POPC   GL125993  40.701  34.614   9.107
 1756POPC   GL225994  40.901  34.343   9.084
 1756POPC   C1A25995  40.669  34.521   8.644
 1756POPC   D2A25996  40.766  34.712   8.257
 1756POPC   C3A25997  40.824  34.422   7.998
 1756POPC   C4A25998  40.684  34.150   7.705
 1756POPC   C1B25999  41.117  34.655   8.809
 1756POPC   C2B26000  41.166  34.415   8.433
 1756POPC   C3B26001  41.345  34.418   8.035
 1756POPC   C4B26002  41.160  34.392   7.625
 1757POPC   NC326003   1.539  28.594   9.305
 1757POPC   PO426004   1.077  28.249   9.660
 1757POPC   GL126005   0.986  28.306   9.209
 1757POPC   GL226006   1.092  28.657   9.067
 1757POPC   C1A26007   1.087  28.256   8.765
 1757POPC   D2A26008   1.010  28.558   8.433
 1757POPC   C3A26009   0.960  28.362   8.050
 1757POPC   C4A26010   1.161  28.017   7.873
 1757POPC   C1B26011   1.389  28.786   8.691
 1757POPC   C2B26012   1.476  28.738   8.234
 1757POPC   C3B26013   1.391  28.496   7.815
 1757POPC   C4B26014   1.048  28.552   7.519
 1758POPC   NC326015  43.670  30.632   9.611
 1758POPC   PO426016  43.990  31.259   9.672
 1758POPC   GL126017  43.985  30.872   9.276
 1758POPC   GL226018  43.644  30.745   9.129
 1758POPC   C1A26019  44.050  30.518   8.942
 1758POPC   D2A26020  44.058  30.483   8.518
 1758POPC   C3A26021  43.911  30.329   8.138
 1758POPC   C4A26022  43.861  30.567   7.794
 1758POPC   C1B26023  43.717  30.870   8.703
 1758POPC   C2B26024  43.610  31.159   8.378
 1758POPC   C3B26025  43.587  31.004   7.970
 1758POPC   C4B26026  43.854  31.047   7.610
 1759POPC   NC326027  11.121  43.107   9.607
 1759POPC   PO426028  11.630  42.746   9.628
 1759POPC   GL126029  11.399  42.954   9.195
 1759POPC   GL226030  11.356  43.320   9.168
 1759POPC   C1A26031  11.211  43.070   8.727
 1759POPC   D2A26032  10.918  42.905   8.352
 1759POPC   C3A26033  11.055  42.790   7.925
 1759POPC   C4A26034  11.019  42.755   7.460
 1759POPC   C1B26035  11.283  43.581   8.769
 1759POPC   C2B26036  11.294  43.471   8.353
 1759POPC   C3B26037  11.326  43.230   8.024
 1759POPC   C4B26038  11.150  43.244   7.662
 1760POPC   NC326039  22.855  11.627   9.366
 1760POPC   PO426040  22.994  11.021   9.468
 1760POPC   GL126041  22.862  11.197   9.065
 1760POPC   GL226042  23.181  11.448   9.020
 1760POPC   C1A26043  22.497  11.113   8.719
 1760POPC   D2A26044  22.590  11.198   8.282
 1760POPC   C3A26045  22.396  11.319   7.900
 1760POPC   C4A26046  22.554  11.234   7.447
 1760POPC   C1B26047  23.285  11.451   8.575
 1760POPC   C2B26048  23.042  11.430   8.215
 1760POPC   C3B26049  22.898  11.423   7.821
 1760POPC   C4B26050  23.081  11.730   7.556
 1761POPC   NC326051   2.508  24.496   9.566
 1761POPC   PO426052   3.042  24.167   9.426
 1761POPC   GL126053   2.808  24.444   9.171
 1761POPC   GL226054   2.540  24.244   9.079
 1761POPC   C1A26055   2.809  24.724   8.833
 1761POPC   D2A26056   3.060  24.618   8.496
 1761POPC   C3A26057   2.839  24.710   8.117
 1761POPC   C4A26058   3.109  24.807   7.790
 1761POPC   C1B26059   2.818  24.189   8.717
 1761POPC   C2B26060   2.947  24.183   8.254
 1761POPC   C3B26061   2.970  24.314   7.809
 1761POPC   C4B26062   2.681  24.208   7.466
 1762POPC   NC326063  33.048  13.101   9.560
 1762POPC   PO426064  32.871  12.447   9.490
 1762POPC   GL126065  33.060  12.740   9.171
 1762POPC   GL226066  33.295  13.037   9.120
 1762POPC   C1A26067  33.018  12.814   8.744
 1762POPC   D2A26068  32.915  12.527   8.444
 1762POPC   C3A26069  32.889  12.716   8.047
 1762POPC   C4A26070  33.170  12.655   7.711
 1762POPC   C1B26071  33.492  13.040   8.749
 1762POPC   C2B26072  33.302  13.176   8.372
 1762POPC   C3B26073  33.352  13.066   7.938
 1762POPC   C4B26074  33.425  13.240   7.520
 1763POPC   NC326075  43.302  11.772   9.383
 1763POPC   PO426076  42.637  11.842   9.376
 1763POPC   GL126077  42.934  12.094   9.116
 1763POPC   GL226078  43.235  11.986   8.934
 1763POPC   C1A26079  43.011  12.473   8.856
 1763POPC   D2A26080  43.062  12.623   8.446
 1763POPC   C3A26081  43.178  12.347   8.139
 1763POPC   C4A26082  43.049  12.345   7.730
 1763POPC   C1B26083  43.428  12.264   8.630
 1763POPC   C2B26084  43.676  12.277   8.242
 1763POPC   C3B26085  43.529  12.156   7.794
 1763POPC   C4B26086  43.256  11.889   7.517
 1764POPC   NC326087   6.859   9.040   9.323
 1764POPC   PO426088   6.434   8.606   9.622
 1764POPC   GL126089   6.417   8.796   9.193
 1764POPC   GL226090   6.416   9.183   9.127
 1764POPC   C1A26091   6.527   8.786   8.754
 1764POPC   D2A26092   6.846   8.675   8.474
 1764POPC   C3A26093   6.687   8.914   8.144
 1764POPC   C4A26094   6.736   8.898   7.752
 1764POPC   C1B26095   6.681   9.301   8.745
 1764POPC   C2B26096   6.595   9.397   8.312
 1764POPC   C3B26097   6.638   9.378   7.867
 1764POPC   C4B26098   6.488   9.187   7.447
 1765POPC   NC326099  28.501  12.003   9.836
 1765POPC   PO426100  28.660  12.323   9.267
 1765POPC   GL126101  28.541  11.958   9.014
 1765POPC   GL226102  28.183  11.884   8.947
 1765POPC   C1A26103  28.498  11.964   8.561
 1765POPC   D2A26104  28.309  12.248   8.289
 1765POPC   C3A26105  28.363  12.086   7.902
 1765POPC   C4A26106  28.312  12.066   7.480
 1765POPC   C1B26107  28.126  11.609   8.602
 1765POPC   C2B26108  28.035  11.802   8.215
 1765POPC   C3B26109  28.016  11.740   7.768
 1765POPC   C4B26110  28.145  11.590   7.348
 1766POPC   NC326111  31.426  20.859   9.536
 1766POPC   PO426112  31.386  20.319   9.078
 1766POPC   GL126113  31.578  20.726   9.020
 1766POPC   GL226114  31.826  20.950   9.152
 1766POPC   C1A26115  31.618  20.754   8.574
 1766POPC   D2A26116  31.231  20.723   8.354
 1766POPC   C3A26117  31.190  20.514   7.977
 1766POPC   C4A26118  30.972  20.820   7.736
 1766POPC   C1B26119  31.965  21.090   8.740
 1766POPC   C2B26120  31.908  21.037   8.260
 1766POPC   C3B26121  31.682  20.738   8.039
 1766POPC   C4B26122  31.493  20.740   7.652
 1767POPC   NC326123  37.770  36.785   9.514
 1767POPC   PO426124  38.373  37.221   9.339
 1767POPC   GL126125  37.962  37.077   9.151
 1767POPC   GL226126  37.536  37.007   9.128
 1767POPC   C1A26127  37.904  36.840   8.800
 1767POPC   D2A26128  37.806  36.944   8.425
 1767POPC   C3A26129  37.862  36.703   8.095
 1767POPC   C4A26130  37.692  36.473   7.790
 1767POPC   C1B26131  37.382  36.936   8.716
 1767POPC   C2B26132  37.328  37.051   8.276
 1767POPC   C3B26133  37.470  36.974   7.833
 1767POPC   C4B26134  37.481  37.177   7.367
 1768POPC   NC326135  27.324  42.102   9.586
 1768POPC   PO426136  27.737  42.571   9.624
 1768POPC   GL126137  27.554  42.518   9.178
 1768POPC   GL226138  27.543  42.873   9.075
 1768POPC   C1A26139  27.412  42.220   8.799
 1768POPC   D2A26140  27.283  42.099   8.344
 1768POPC   C3A26141  27.470  42.252   7.920
 1768POPC   C4A26142  27.504  42.019   7.503
 1768POPC   C1B26143  27.422  42.705   8.681
 1768POPC   C2B26144  27.257  42.603   8.253
 1768POPC   C3B26145  27.424  42.778   7.811
 1768POPC   C4B26146  27.452  42.945   7.366
 1769POPC   NC326147  33.452  43.958   9.225
 1769POPC   PO426148  33.019  44.434   9.595
 1769POPC   GL126149  32.990  44.143   9.212
 1769POPC   GL226150  32.939  43.825   9.041
 1769POPC   C1A26151  33.091  44.158   8.711
 1769POPC   D2A26152  32.913  43.890   8.375
 1769POPC   C3A26153  32.869  43.991   7.920
 1769POPC   C4A26154  32.878  44.155   7.477
 1769POPC   C1B26155  33.220  43.611   8.705
 1769POPC   C2B26156  33.319  43.321   8.316
 1769POPC   C3B26157  33.090  43.481   7.950
 1769POPC   C4B26158  32.983  43.652   7.550
 1770POPC   NC326159  43.475  35.649   9.373
 1770POPC   PO426160  42.969  35.270   9.500
 1770POPC   GL126161  43.229  35.255   9.148
 1770POPC   GL226162  43.056  35.583   9.079
 1770POPC   C1A26163  43.479  35.194   8.765
 1770POPC   D2A26164  43.276  35.081   8.377
 1770POPC   C3A26165  43.036  35.281   8.023
 1770POPC   C4A26166  43.295  35.244   7.614
 1770POPC   C1B26167  43.010  35.387   8.692
 1770POPC   C2B26168  43.273  35.603   8.384
 1770POPC   C3B26169  43.383  35.621   7.952
 1770POPC   C4B26170  43.045  35.659   7.593
 1771POPC   NC326171   8.760  39.625   9.236
 1771POPC   PO426172   9.160  39.305   9.741
 1771POPC   GL126173   9.154  39.285   9.270
 1771POPC   GL226174   8.808  39.131   9.134
 1771POPC   C1A26175   9.204  39.260   8.793
 1771POPC   D2A26176   9.061  38.963   8.450
 1771POPC   C3A26177   8.977  39.052   8.009
 1771POPC   C4A26178   8.907  39.261   7.610
 1771POPC   C1B26179   8.646  39.206   8.695
 1771POPC   C2B26180   8.550  39.165   8.259
 1771POPC   C3B26181   8.462  39.282   7.842
 1771POPC   C4B26182   8.457  39.160   7.397
 1772POPC   NC326183  43.406  44.084   9.617
 1772POPC   PO426184  42.951  43.672   9.483
 1772POPC   GL126185  43.326  43.737   9.214
 1772POPC   GL226186  43.338  44.098   9.104
 1772POPC   C1A26187  43.504  43.687   8.782
 1772POPC   D2A26188  43.467  43.981   8.418
 1772POPC   C3A26189  43.303  43.837   8.021
 1772POPC   C4A26190  43.009  43.545   7.823
 1772POPC   C1B26191  43.067  43.952   8.762
 1772POPC   C2B26192  42.898  44.013   8.352
 1772POPC   C3B26193  42.798  44.003   7.934
 1772POPC   C4B26194  42.835  43.857   7.463
 1773POPC   NC326195  14.929   6.643   9.357
 1773POPC   PO426196  15.544   6.459   9.575
 1773POPC   GL126197  15.359   6.434   9.173
 1773POPC   GL226198  15.311   6.808   9.036
 1773POPC   C1A26199  15.400   6.431   8.745
 1773POPC   D2A26200  15.487   6.709   8.425
 1773POPC   C3A26201  15.265   6.615   8.069
 1773POPC   C4A26202  15.092   6.680   7.686
 1773POPC   C1B26203  14.979   6.885   8.709
 1773POPC   C2B26204  14.804   6.701   8.356
 1773POPC   C3B26205  14.681   6.830   7.988
 1773POPC   C4B26206  14.604   6.713   7.560
 1774POPC   NC326207   5.471  19.534   9.433
 1774POPC   PO426208   4.906  20.011   9.487
 1774POPC   GL126209   5.146  19.839   9.159
 1774POPC   GL226210   5.320  20.122   9.067
 1774POPC   C1A26211   5.181  19.639   8.729
 1774POPC   D2A26212   5.392  19.588   8.318
 1774POPC   C3A26213   5.320  19.869   7.990
 1774POPC   C4A26214   5.007  19.758   7.663
 1774POPC   C1B26215   4.992  20.122   8.742
 1774POPC   C2B26216   4.804  20.210   8.319
 1774POPC   C3B26217   4.936  20.265   7.886
 1774POPC   C4B26218   4.878  20.359   7.420
 1775POPC   NC326219   8.776  43.618   9.511
 1775POPC   PO426220   9.275  44.102   9.544
 1775POPC   GL126221   8.942  43.991   9.209
 1775POPC   GL226222   8.644  44.229   9.188
 1775POPC   C1A26223   9.006  43.727   8.802
 1775POPC   D2A26224   8.896  43.599   8.367
 1775POPC   C3A26225   8.995  43.913   8.054
 1775POPC   C4A26226   9.131  43.901   7.616
 1775POPC   C1B26227   8.561  43.951   8.858
 1775POPC   C2B26228   8.677  44.067   8.458
 1775POPC   C3B26229   8.500  44.038   8.047
 1775POPC   C4B26230   8.630  43.854   7.665
 1776POPC   NC326231  31.950   8.923   9.888
 1776POPC   PO426232  32.326   9.302   9.413
 1776POPC   GL126233  32.221   8.963   9.107
 1776POPC   GL226234  31.939   8.719   9.184
 1776POPC   C1A26235  32.422   8.870   8.743
 1776POPC   D2A26236  32.436   9.120   8.383
 1776POPC   C3A26237  32.393   8.878   8.010
 1776POPC   C4A26238  32.363   9.108   7.664
 1776POPC   C1B26239  31.918   8.720   8.790
 1776POPC   C2B26240  32.047   8.723   8.381
 1776POPC   C3B26241  31.933   9.055   8.105
 1776POPC   C4B26242  31.900   8.911   7.683
 1777POPC   NC326243  44.633  44.522   9.532
 1777POPC   PO426244   0.254  44.574   9.455
 1777POPC   GL126245  44.917  44.634   9.128
 1777POPC   GL226246  44.646  44.911   9.187
 1777POPC   C1A26247  44.633  44.588   8.759
 1777POPC   D2A26248  44.775  44.383   8.366
 1777POPC   C3A26249  44.779  44.461   7.914
 1777POPC   C4A26250  44.410  44.552   7.703
 1777POPC   C1B26251  44.950   0.052   8.859
 1777POPC   C2B26252  44.843  44.943   8.437
 1777POPC   C3B26253  44.554  44.869   8.115
 1777POPC   C4B26254  44.769   0.001   7.749
 1778POPC   NC326255  10.843  11.930   9.888
 1778POPC   PO426256  11.347  12.138   9.426
 1778POPC   GL126257  11.222  12.084   9.016
 1778POPC   GL226258  11.057  12.412   9.090
 1778POPC   C1A26259  11.386  11.961   8.622
 1778POPC   D2A26260  11.198  11.995   8.241
 1778POPC   C3A26261  11.479  12.037   7.887
 1778POPC   C4A26262  11.193  11.796   7.720
 1778POPC   C1B26263  11.359  12.462   8.728
 1778POPC   C2B26264  11.536  12.369   8.325
 1778POPC   C3B26265  11.230  12.453   8.020
 1778POPC   C4B26266  11.391  12.659   7.731
 1779POPC   NC326267  29.636  31.641   9.416
 1779POPC   PO426268  29.850  30.962   9.459
 1779POPC   GL126269  29.920  31.276   9.173
 1779POPC   GL226270  29.596  31.227   9.084
 1779POPC   C1A26271  30.012  31.607   8.862
 1779POPC   D2A26272  29.838  31.849   8.501
 1779POPC   C3A26273  29.966  31.719   8.085
 1779POPC   C4A26274  29.890  31.548   7.688
 1779POPC   C1B26275  29.669  31.294   8.680
 1779POPC   C2B26276  29.612  31.439   8.308
 1779POPC   C3B26277  29.509  31.349   7.927
 1779POPC   C4B26278  29.364  31.231   7.518
 1780POPC   NC326279  31.672  17.340   9.651
 1780POPC   PO426280  31.216  17.784   9.555
 1780POPC   GL126281  31.338  17.499   9.214
 1780POPC   GL226282  31.588  17.188   9.168
 1780POPC   C1A26283  31.306  17.634   8.797
 1780POPC   D2A26284  31.495  17.549   8.411
 1780POPC   C3A26285  31.262  17.427   8.019
 1780POPC   C4A26286  31.146  17.568   7.574
 1780POPC   C1B26287  31.784  17.464   8.855
 1780POPC   C2B26288  32.052  17.497   8.482
 1780POPC   C3B26289  31.836  17.497   8.054
 1780POPC   C4B26290  31.611  17.228   7.701
 1781POPC   NC326291  20.880   6.222   9.404
 1781POPC   PO426292  20.298   5.993   9.397
 1781POPC   GL126293  20.423   5.724   9.062
 1781POPC   GL226294  20.769   5.614   9.019
 1781POPC   C1A26295  20.265   5.757   8.670
 1781POPC   D2A26296  20.378   5.953   8.347
 1781POPC   C3A26297  20.338   5.797   7.990
 1781POPC   C4A26298  20.320   5.888   7.568
 1781POPC   C1B26299  20.761   5.979   8.703
 1781POPC   C2B26300  20.866   6.042   8.238
 1781POPC   C3B26301  20.781   5.943   7.781
 1781POPC   C4B26302  20.994   5.978   7.350
 1782POPC   NC326303  12.349  24.010   9.336
 1782POPC   PO426304  12.023  23.352   9.417
 1782POPC   GL126305  11.850  23.530   9.042
 1782POPC   GL226306  11.898  23.889   8.981
 1782POPC   C1A26307  12.105  23.487   8.676
 1782POPC   D2A26308  12.438  23.510   8.378
 1782POPC   C3A26309  12.245  23.589   7.980
 1782POPC   C4A26310  11.887  23.534   7.669
 1782POPC   C1B26311  12.261  24.003   8.705
 1782POPC   C2B26312  12.522  24.028   8.368
 1782POPC   C3B26313  12.317  24.085   7.969
 1782POPC   C4B26314  12.253  23.918   7.586
 1783POPC   NC326315   3.362  27.113   9.504
 1783POPC   PO426316   3.834  26.647   9.450
 1783POPC   GL126317   3.547  26.733   9.173
 1783POPC   GL226318   3.690  27.046   9.084
 1783POPC   C1A26319   3.552  26.646   8.741
 1783POPC   D2A26320   3.344  26.597   8.369
 1783POPC   C3A26321   3.596  26.706   8.011
 1783POPC   C4A26322   3.728  26.635   7.588
 1783POPC   C1B26323   3.824  27.092   8.650
 1783POPC   C2B26324   3.747  27.167   8.181
 1783POPC   C3B26325   3.626  27.113   7.699
 1783POPC   C4B26326   3.877  27.058   7.307
 1784POPC   NC326327  19.117   6.806   9.546
 1784POPC   PO426328  18.915   7.437   9.506
 1784POPC   GL126329  19.070   7.315   9.111
 1784POPC   GL226330  19.240   6.965   9.058
 1784POPC   C1A26331  18.997   7.302   8.682
 1784POPC   D2A26332  18.957   7.403   8.258
 1784POPC   C3A26333  19.064   7.118   7.899
 1784POPC   C4A26334  18.979   7.213   7.446
 1784POPC   C1B26335  19.488   7.272   8.807
 1784POPC   C2B26336  19.447   7.497   8.418
 1784POPC   C3B26337  19.520   7.355   8.005
 1784POPC   C4B26338  19.445   7.337   7.572
 1785POPC   NC326339  14.845  22.690   9.446
 1785POPC   PO426340  15.267  22.138   9.650
 1785POPC   GL126341  15.145  22.171   9.226
 1785POPC   GL226342  14.818  22.204   9.255
 1785POPC   C1A26343  15.358  22.173   8.812
 1785POPC   D2A26344  15.185  22.323   8.423
 1785POPC   C3A26345  15.385  22.185   8.055
 1785POPC   C4A26346  15.432  22.013   7.659
 1785POPC   C1B26347  14.851  22.351   8.830
 1785POPC   C2B26348  14.721  22.133   8.450
 1785POPC   C3B26349  14.872  22.022   8.047
 1785POPC   C4B26350  14.897  22.252   7.658
 1786POPC   NC326351  25.683  43.022   9.393
 1786POPC   PO426352  25.268  42.549   9.458
 1786POPC   GL126353  25.264  42.906   9.127
 1786POPC   GL226354  25.348  43.299   9.131
 1786POPC   C1A26355  25.385  43.035   8.706
 1786POPC   D2A26356  25.375  42.860   8.322
 1786POPC   C3A26357  25.116  43.047   8.016
 1786POPC   C4A26358  25.221  42.925   7.631
 1786POPC   C1B26359  25.545  43.513   8.748
 1786POPC   C2B26360  25.369  43.402   8.311
 1786POPC   C3B26361  25.485  43.362   7.864
 1786POPC   C4B26362  25.446  43.667   7.523
 1787POPC   NC326363  34.517   5.399   9.445
 1787POPC   PO426364  34.875   4.818   9.695
 1787POPC   GL126365  34.733   4.957   9.257
 1787POPC   GL226366  34.420   5.035   9.092
 1787POPC   C1A26367  34.796   5.012   8.783
 1787POPC   D2A26368  34.822   5.251   8.403
 1787POPC   C3A26369  34.701   5.019   8.040
 1787POPC   C4A26370  34.970   4.775   7.799
 1787POPC   C1B26371  34.265   4.871   8.726
 1787POPC   C2B26372  34.183   4.724   8.305
 1787POPC   C3B26373  34.175   4.973   7.938
 1787POPC   C4B26374  34.435   5.128   7.585
 1788POPC   NC326375  36.063  30.711   9.427
 1788POPC   PO426376  36.668  30.606   9.741
 1788POPC   GL126377  36.495  30.464   9.261
 1788POPC   GL226378  36.323  30.731   8.997
 1788POPC   C1A26379  36.253  30.283   8.872
 1788POPC   D2A26380  36.068  30.401   8.478
 1788POPC   C3A26381  36.324  30.527   8.152
 1788POPC   C4A26382  36.221  30.521   7.734
 1788POPC   C1B26383  36.040  30.863   8.731
 1788POPC   C2B26384  35.999  30.906   8.334
 1788POPC   C3B26385  35.748  30.903   8.002
 1788POPC   C4B26386  35.674  30.636   7.702
 1789POPC   NC326387  17.025  43.792   9.635
 1789POPC   PO426388  16.512  43.575   9.626
 1789POPC   GL126389  16.660  43.757   9.224
 1789POPC   GL226390  17.034  43.786   9.107
 1789POPC   C1A26391  16.582  43.767   8.769
 1789POPC   D2A26392  16.742  43.754   8.340
 1789POPC   C3A26393  16.437  43.771   7.982
 1789POPC   C4A26394  16.304  43.628   7.596
 1789POPC   C1B26395  17.040  44.034   8.695
 1789POPC   C2B26396  16.977  44.211   8.255
 1789POPC   C3B26397  16.880  43.961   7.878
 1789POPC   C4B26398  16.856  43.666   7.532
 1790POPC   NC326399  37.263  21.287   9.381
 1790POPC   PO426400  37.994  21.372   9.455
 1790POPC   GL126401  37.726  21.407   9.141
 1790POPC   GL226402  37.480  21.643   9.114
 1790POPC   C1A26403  37.918  21.564   8.781
 1790POPC   D2A26404  38.251  21.402   8.506
 1790POPC   C3A26405  38.142  21.453   8.080
 1790POPC   C4A26406  37.931  21.269   7.781
 1790POPC   C1B26407  37.442  21.387   8.717
 1790POPC   C2B26408  37.681  21.433   8.341
 1790POPC   C3B26409  37.601  21.695   8.022
 1790POPC   C4B26410  37.278  21.536   7.786
 1791POPC   NC326411   8.923  13.921   9.438
 1791POPC   PO426412   8.900  13.227   9.489
 1791POPC   GL126413   8.987  13.479   9.153
 1791POPC   GL226414   8.699  13.659   9.040
 1791POPC   C1A26415   9.125  13.531   8.751
 1791POPC   D2A26416   9.211  13.692   8.350
 1791POPC   C3A26417   9.105  13.464   7.935
 1791POPC   C4A26418   8.962  13.502   7.469
 1791POPC   C1B26419   8.694  13.785   8.608
 1791POPC   C2B26420   8.687  13.563   8.215
 1791POPC   C3B26421   8.692  13.760   7.794
 1791POPC   C4B26422   8.689  13.932   7.340
 1792POPC   NC326423  39.828  35.443   9.695
 1792POPC   PO426424  40.310  35.117   9.435
 1792POPC   GL126425  40.001  35.395   9.210
 1792POPC   GL226426  40.170  35.268   8.945
 1792POPC   C1A26427  39.790  35.535   8.796
 1792POPC   D2A26428  40.024  35.372   8.445
 1792POPC   C3A26429  39.934  35.432   8.022
 1792POPC   C4A26430  39.766  35.527   7.642
 1792POPC   C1B26431  39.813  35.018   8.762
 1792POPC   C2B26432  39.666  34.999   8.348
 1792POPC   C3B26433  40.000  34.935   8.076
 1792POPC   C4B26434  40.096  35.068   7.676
 1793POPC   NC326435  19.298  18.079   9.510
 1793POPC   PO426436  18.694  18.375   9.461
 1793POPC   GL126437  19.025  18.389   9.162
 1793POPC   GL226438  18.951  18.062   9.112
 1793POPC   C1A26439  19.308  18.339   8.839
 1793POPC   D2A26440  19.418  18.419   8.422
 1793POPC   C3A26441  19.306  18.129   8.114
 1793POPC   C4A26442  19.197  18.366   7.782
 1793POPC   C1B26443  18.729  18.288   8.777
 1793POPC   C2B26444  18.915  18.244   8.432
 1793POPC   C3B26445  18.797  18.156   8.056
 1793POPC   C4B26446  18.831  17.993   7.676
 1794POPC   NC326447  12.361   3.382   9.528
 1794POPC   PO426448  11.743   3.728   9.665
 1794POPC   GL126449  11.956   3.618   9.248
 1794POPC   GL226450  12.312   3.699   9.138
 1794POPC   C1A26451  12.012   3.365   8.848
 1794POPC   D2A26452  11.858   3.436   8.423
 1794POPC   C3A26453  12.006   3.235   8.060
 1794POPC   C4A26454  12.015   3.343   7.640
 1794POPC   C1B26455  12.520   3.526   8.763
 1794POPC   C2B26456  12.403   3.477   8.321
 1794POPC   C3B26457  12.433   3.525   7.867
 1794POPC   C4B26458  12.642   3.750   7.507
 1795POPC   NC326459   7.308  22.114   9.525
 1795POPC   PO426460   7.946  22.279   9.550
 1795POPC   GL126461   7.604  22.269   9.142
 1795POPC   GL226462   7.179  22.211   9.053
 1795POPC   C1A26463   7.517  22.194   8.689
 1795POPC   D2A26464   7.349  21.808   8.482
 1795POPC   C3A26465   7.273  21.868   8.067
 1795POPC   C4A26466   7.438  21.936   7.646
 1795POPC   C1B26467   7.151  22.560   8.764
 1795POPC   C2B26468   7.389  22.615   8.385
 1795POPC   C3B26469   7.479  22.362   7.980
 1795POPC   C4B26470   7.278  22.412   7.548
 1796POPC   NC326471  33.879  26.394  10.010
 1796POPC   PO426472  33.767  25.767   9.682
 1796POPC   GL126473  33.897  25.720   9.236
 1796POPC   GL226474  33.853  26.072   9.208
 1796POPC   C1A26475  33.818  25.797   8.776
 1796POPC   D2A26476  33.611  25.805   8.366
 1796POPC   C3A26477  33.861  25.829   7.977
 1796POPC   C4A26478  33.864  25.693   7.538
 1796POPC   C1B26479  33.604  26.311   8.906
 1796POPC   C2B26480  33.670  26.309   8.470
 1796POPC   C3B26481  33.503  26.217   8.054
 1796POPC   C4B26482  33.593  26.121   7.631
 1797POPC   NC326483   2.548  42.130   9.483
 1797POPC   PO426484   2.764  42.644   9.700
 1797POPC   GL126485   2.960  42.308   9.256
 1797POPC   GL226486   3.160  42.013   9.118
 1797POPC   C1A26487   2.980  42.361   8.757
 1797POPC   D2A26488   3.000  42.513   8.296
 1797POPC   C3A26489   2.659  42.353   7.993
 1797POPC   C4A26490   2.383  41.969   7.957
 1797POPC   C1B26491   2.996  41.857   8.689
 1797POPC   C2B26492   3.062  41.988   8.238
 1797POPC   C3B26493   3.069  42.153   7.812
 1797POPC   C4B26494   3.043  42.005   7.376
 1798POPC   NC326495  25.788  14.666   9.602
 1798POPC   PO426496  26.148  14.146   9.727
 1798POPC   GL126497  26.175  14.240   9.275
 1798POPC   GL226498  25.817  14.290   9.161
 1798POPC   C1A26499  26.220  14.386   8.837
 1798POPC   D2A26500  25.922  14.377   8.590
 1798POPC   C3A26501  25.967  14.244   8.197
 1798POPC   C4A26502  25.816  14.517   7.892
 1798POPC   C1B26503  25.909  13.943   8.883
 1798POPC   C2B26504  25.809  13.834   8.454
 1798POPC   C3B26505  25.600  13.876   8.056
 1798POPC   C4B26506  25.836  14.034   7.731
 1799POPC   NC326507  24.906  35.727   9.383
 1799POPC   PO426508  25.081  36.335   9.141
 1799POPC   GL126509  25.508  36.134   9.117
 1799POPC   GL226510  25.331  35.855   9.117
 1799POPC   C1A26511  25.663  35.934   8.743
 1799POPC   D2A26512  25.376  36.163   8.477
 1799POPC   C3A26513  25.377  36.179   8.043
 1799POPC   C4A26514  25.092  36.373   7.754
 1799POPC   C1B26515  25.049  35.833   8.751
 1799POPC   C2B26516  25.022  35.718   8.350
 1799POPC   C3B26517  24.878  35.843   7.957
 1799POPC   C4B26518  25.167  35.798   7.673
 1800POPC   NC326519  26.324  34.678   9.565
 1800POPC   PO426520  25.855  34.236   9.417
 1800POPC   GL126521  26.169  34.468   9.104
 1800POPC   GL226522  26.227  34.839   9.105
 1800POPC   C1A26523  26.169  34.613   8.645
 1800POPC   D2A26524  26.037  34.272   8.383
 1800POPC   C3A26525  26.168  34.320   7.994
 1800POPC   C4A26526  25.938  34.319   7.636
 1800POPC   C1B26527  26.346  35.102   8.791
 1800POPC   C2B26528  26.146  35.106   8.413
 1800POPC   C3B26529  26.210  34.830   8.090
 1800POPC   C4B26530  26.123  34.785   7.658
 1801POPC   NC326531  42.092  14.187   9.804
 1801POPC   PO426532  41.682  14.480   9.327
 1801POPC   GL126533  41.634  14.397   8.973
 1801POPC   GL226534  41.644  14.770   8.904
 1801POPC   C1A26535  41.366  14.408   8.651
 1801POPC   D2A26536  41.135  14.463   8.300
 1801POPC   C3A26537  41.314  14.203   8.003
 1801POPC   C4A26538  41.671  14.334   7.714
 1801POPC   C1B26539  41.856  14.605   8.577
 1801POPC   C2B26540  41.697  14.530   8.192
 1801POPC   C3B26541  41.815  14.778   7.900
 1801POPC   C4B26542  41.922  14.784   7.500
 1802POPC   NC326543  22.658  39.378   9.379
 1802POPC   PO426544  22.829  38.710   9.460
 1802POPC   GL126545  22.890  39.004   9.111
 1802POPC   GL226546  23.095  39.269   9.037
 1802POPC   C1A26547  22.733  39.153   8.690
 1802POPC   D2A26548  22.826  39.024   8.264
 1802POPC   C3A26549  22.817  39.326   7.904
 1802POPC   C4A26550  22.878  39.170   7.459
 1802POPC   C1B26551  23.259  39.197   8.641
 1802POPC   C2B26552  23.265  39.300   8.220
 1802POPC   C3B26553  23.239  39.066   7.876
 1802POPC   C4B26554  23.383  39.123   7.476
 1803POPC   NC326555  21.739  35.524   9.434
 1803POPC   PO426556  21.113  35.167   9.382
 1803POPC   GL126557  21.375  35.369   9.123
 1803POPC   GL226558  21.091  35.588   9.012
 1803POPC   C1A26559  21.682  35.193   8.800
 1803POPC   D2A26560  21.701  34.892   8.423
 1803POPC   C3A26561  21.679  35.091   8.024
 1803POPC   C4A26562  21.683  35.519   7.848
 1803POPC   C1B26563  21.200  35.307   8.674
 1803POPC   C2B26564  21.443  35.380   8.354
 1803POPC   C3B26565  21.232  35.341   8.002
 1803POPC   C4B26566  21.022  35.327   7.636
 1804POPC   NC326567  11.951  21.206   9.664
 1804POPC   PO426568  12.452  21.275   9.221
 1804POPC   GL126569  12.121  21.421   9.036
 1804POPC   GL226570  11.808  21.440   9.203
 1804POPC   C1A26571  12.101  21.362   8.604
 1804POPC   D2A26572  12.348  21.197   8.274
 1804POPC   C3A26573  12.208  21.375   7.872
 1804POPC   C4A26574  12.374  21.301   7.462
 1804POPC   C1B26575  11.638  21.225   8.835
 1804POPC   C2B26576  11.692  21.155   8.382
 1804POPC   C3B26577  11.783  21.007   7.967
 1804POPC   C4B26578  11.879  21.085   7.506
 1805POPC   NC326579   3.598   6.115   9.640
 1805POPC   PO426580   3.207   5.650   9.450
 1805POPC   GL126581   3.429   5.853   9.142
 1805POPC   GL226582   3.206   6.026   8.932
 1805POPC   C1A26583   3.523   5.711   8.738
 1805POPC   D2A26584   3.397   5.989   8.420
 1805POPC   C3A26585   3.331   5.785   8.045
 1805POPC   C4A26586   3.580   5.943   7.805
 1805POPC   C1B26587   3.717   6.162   8.792
 1805POPC   C2B26588   3.958   6.246   8.368
 1805POPC   C3B26589   3.844   6.401   7.906
 1805POPC   C4B26590   3.868   6.185   7.459
 1806POPC   NC326591  37.849  19.029   9.552
 1806POPC   PO426592  37.576  18.470   9.468
 1806POPC   GL126593  37.400  18.943   9.300
 1806POPC   GL226594  37.641  19.271   9.152
 1806POPC   C1A26595  37.249  19.127   8.896
 1806POPC   D2A26596  37.509  19.173   8.528
 1806POPC   C3A26597  37.291  19.048   8.134
 1806POPC   C4A26598  37.341  19.043   7.702
 1806POPC   C1B26599  37.936  19.355   8.761
 1806POPC   C2B26600  38.008  19.228   8.291
 1806POPC   C3B26601  38.186  19.245   7.845
 1806POPC   C4B26602  38.151  19.181   7.357
 1807POPC   NC326603   8.522  41.967   9.417
 1807POPC   PO426604   9.161  42.247   9.435
 1807POPC   GL126605   8.982  42.395   9.085
 1807POPC   GL226606   8.702  42.250   9.031
 1807POPC   C1A26607   9.123  42.375   8.707
 1807POPC   D2A26608   9.358  42.407   8.409
 1807POPC   C3A26609   9.174  42.648   8.146
 1807POPC   C4A26610   9.290  42.471   7.769
 1807POPC   C1B26611   8.592  42.245   8.606
 1807POPC   C2B26612   8.695  42.470   8.217
 1807POPC   C3B26613   8.810  42.298   7.791
 1807POPC   C4B26614   8.626  42.068   7.403
 1808POPC   NC326615   1.320  28.538   9.929
 1808POPC   PO426616   1.398  29.068   9.496
 1808POPC   GL126617   1.250  29.145   9.120
 1808POPC   GL226618   1.600  29.138   9.015
 1808POPC   C1A26619   0.960  29.047   8.760
 1808POPC   D2A26620   1.053  29.079   8.337
 1808POPC   C3A26621   1.064  28.869   7.937
 1808POPC   C4A26622   1.370  28.927   7.565
 1808POPC   C1B26623   1.400  29.297   8.671
 1808POPC   C2B26624   1.546  29.258   8.333
 1808POPC   C3B26625   1.407  29.241   7.968
 1808POPC   C4B26626   1.196  29.556   7.758
 1809POPC   NC326627  38.703  14.862   9.532
 1809POPC   PO426628  38.459  15.466   9.508
 1809POPC   GL126629  38.521  15.317   9.098
 1809POPC   GL226630  38.403  15.010   9.105
 1809POPC   C1A26631  38.606  15.272   8.647
 1809POPC   D2A26632  38.595  14.943   8.344
 1809POPC   C3A26633  38.675  15.208   8.012
 1809POPC   C4A26634  38.642  15.456   7.652
 1809POPC   C1B26635  38.142  15.167   8.755
 1809POPC   C2B26636  38.221  15.325   8.287
 1809POPC   C3B26637  38.183  15.249   7.819
 1809POPC   C4B26638  38.391  14.904   7.722
 1810POPC   NC326639  39.854  13.467   9.738
 1810POPC   PO426640  40.315  13.781   9.479
 1810POPC   GL126641  40.082  13.551   9.188
 1810POPC   GL226642  39.736  13.686   9.107
 1810POPC   C1A26643  40.147  13.662   8.756
 1810POPC   D2A26644  40.293  13.515   8.371
 1810POPC   C3A26645  40.058  13.690   8.027
 1810POPC   C4A26646  40.156  13.447   7.721
 1810POPC   C1B26647  39.622  13.583   8.665
 1810POPC   C2B26648  39.803  13.340   8.317
 1810POPC   C3B26649  39.671  13.350   7.867
 1810POPC   C4B26650  39.720  13.562   7.428
 1811POPC   NC326651  24.462  25.631  10.138
 1811POPC   PO426652  24.457  25.128   9.642
 1811POPC   GL126653  24.457  25.298   9.246
 1811POPC   GL226654  24.733  25.476   9.200
 1811POPC   C1A26655  24.579  25.194   8.815
 1811POPC   D2A26656  24.353  25.286   8.447
 1811POPC   C3A26657  24.568  25.276   8.087
 1811POPC   C4A26658  24.566  25.271   7.681
 1811POPC   C1B26659  24.884  25.615   8.832
 1811POPC   C2B26660  24.883  25.440   8.450
 1811POPC   C3B26661  24.910  25.648   8.077
 1811POPC   C4B26662  24.933  25.620   7.694
 1812POPC   NC326663   1.599   1.099   9.504
 1812POPC   PO426664   1.002   1.355   9.341
 1812POPC   GL126665   1.357   1.266   9.089
 1812POPC   GL226666   1.352   0.908   9.086
 1812POPC   C1A26667   1.448   1.166   8.661
 1812POPC   D2A26668   1.077   1.143   8.418
 1812POPC   C3A26669   1.090   1.435   8.087
 1812POPC   C4A26670   0.950   1.387   7.700
 1812POPC   C1B26671   1.396   0.651   8.718
 1812POPC   C2B26672   1.259   0.700   8.277
 1812POPC   C3B26673   1.225   0.939   7.869
 1812POPC   C4B26674   1.376   0.872   7.422
 1813POPC   NC326675  21.508  34.856   9.398
 1813POPC   PO426676  21.008  34.336   9.394
 1813POPC   GL126677  21.261  34.526   9.051
 1813POPC   GL226678  21.237  34.884   8.977
 1813POPC   C1A26679  21.613  34.463   8.729
 1813POPC   D2A26680  21.497  34.332   8.350
 1813POPC   C3A26681  21.457  34.631   8.043
 1813POPC   C4A26682  21.628  34.685   7.649
 1813POPC   C1B26683  21.242  34.747   8.574
 1813POPC   C2B26684  21.007  34.512   8.312
 1813POPC   C3B26685  21.048  34.356   7.921
 1813POPC   C4B26686  20.808  34.443   7.577
 1814POPC   NC326687   0.325  12.418   9.365
 1814POPC   PO426688   0.641  12.872   9.742
 1814POPC   GL126689   0.563  12.974   9.215
 1814POPC   GL226690   0.327  12.753   9.000
 1814POPC   C1A26691   0.542  13.124   8.758
 1814POPC   D2A26692   0.636  13.310   8.346
 1814POPC   C3A26693   0.816  13.118   7.985
 1814POPC   C4A26694   0.549  12.835   7.773
 1814POPC   C1B26695   0.046  12.928   8.710
 1814POPC   C2B26696  44.930  13.048   8.318
 1814POPC   C3B26697   0.088  12.836   7.998
 1814POPC   C4B26698   0.089  12.619   7.642
 1815POPC   NC326699  34.770   7.867   9.355
 1815POPC   PO426700  34.525   8.325   9.783
 1815POPC   GL126701  34.478   8.291   9.294
 1815POPC   GL226702  34.777   8.308   9.101
 1815POPC   C1A26703  34.385   8.210   8.804
 1815POPC   D2A26704  34.268   8.022   8.397
 1815POPC   C3A26705  34.296   8.324   8.063
 1815POPC   C4A26706  34.371   8.229   7.659
 1815POPC   C1B26707  34.948   8.239   8.725
 1815POPC   C2B26708  34.793   7.977   8.434
 1815POPC   C3B26709  34.695   8.012   8.026
 1815POPC   C4B26710  34.856   8.336   7.806
 1816POPC   NC326711   0.279  37.112   9.586
 1816POPC   PO426712   0.645  36.587   9.360
 1816POPC   GL126713   0.428  36.840   9.087
 1816POPC   GL226714   0.430  37.218   9.128
 1816POPC   C1A26715   0.436  36.776   8.659
 1816POPC   D2A26716   0.603  36.969   8.302
 1816POPC   C3A26717   0.426  36.755   7.972
 1816POPC   C4A26718   0.731  36.592   7.697
 1816POPC   C1B26719   0.433  37.263   8.719
 1816POPC   C2B26720   0.139  37.135   8.372
 1816POPC   C3B26721   0.326  37.249   7.962
 1816POPC   C4B26722   0.384  37.023   7.547
 1817POPC   NC326723  25.390  36.601   9.332
 1817POPC   PO426724  24.797  36.863   9.447
 1817POPC   GL126725  25.038  36.894   9.058
 1817POPC   GL226726  25.346  37.053   9.104
 1817POPC   C1A26727  25.297  36.776   8.671
 1817POPC   D2A26728  25.179  36.626   8.248
 1817POPC   C3A26729  25.343  36.819   7.877
 1817POPC   C4A26730  25.100  36.931   7.540
 1817POPC   C1B26731  25.369  37.316   8.803
 1817POPC   C2B26732  25.539  37.413   8.456
 1817POPC   C3B26733  25.404  37.278   8.101
 1817POPC   C4B26734  25.363  37.379   7.695
 1818POPC   NC326735  39.187  37.914   9.578
 1818POPC   PO426736  39.242  37.249   9.489
 1818POPC   GL126737  39.123  37.579   9.183
 1818POPC   GL226738  39.429  37.748   9.154
 1818POPC   C1A26739  39.151  37.711   8.717
 1818POPC   D2A26740  39.284  37.593   8.268
 1818POPC   C3A26741  39.239  37.818   7.889
 1818POPC   C4A26742  38.975  37.771   7.521
 1818POPC   C1B26743  39.573  38.004   8.822
 1818POPC   C2B26744  39.459  38.075   8.409
 1818POPC   C3B26745  39.672  38.118   8.041
 1818POPC   C4B26746  39.686  37.987   7.631
 1819POPC   NC326747  28.061  39.879   9.483
 1819POPC   PO426748  28.669  39.698   9.326
 1819POPC   GL126749  28.371  40.002   9.061
 1819POPC   GL226750  28.068  40.200   9.101
 1819POPC   C1A26751  28.201  40.100   8.630
 1819POPC   D2A26752  28.182  39.892   8.245
 1819POPC   C3A26753  28.400  40.162   8.048
 1819POPC   C4A26754  28.192  40.466   7.828
 1819POPC   C1B26755  27.778  39.935   8.864
 1819POPC   C2B26756  27.708  39.960   8.419
 1819POPC   C3B26757  27.815  40.226   8.052
 1819POPC   C4B26758  27.863  40.199   7.553
 1820POPC   NC326759  28.471  17.107   9.533
 1820POPC   PO426760  28.206  16.486   9.439
 1820POPC   GL126761  28.404  16.728   9.139
 1820POPC   GL226762  28.215  17.028   9.112
 1820POPC   C1A26763  28.484  16.557   8.739
 1820POPC   D2A26764  28.243  16.623   8.387
 1820POPC   C3A26765  28.399  16.737   8.039
 1820POPC   C4A26766  28.293  16.687   7.661
 1820POPC   C1B26767  28.205  17.001   8.709
 1820POPC   C2B26768  28.242  17.135   8.321
 1820POPC   C3B26769  28.020  17.071   7.967
 1820POPC   C4B26770  28.102  17.141   7.554
 1821POPC   NC326771  12.075  42.825   9.599
 1821POPC   PO426772  12.560  43.090   9.497
 1821POPC   GL126773  12.222  43.094   9.149
 1821POPC   GL226774  11.868  43.170   9.241
 1821POPC   C1A26775  12.158  43.072   8.672
 1821POPC   D2A26776  12.123  42.833   8.264
 1821POPC   C3A26777  12.165  43.041   7.842
 1821POPC   C4A26778  12.546  43.240   7.664
 1821POPC   C1B26779  11.707  43.279   8.807
 1821POPC   C2B26780  11.694  43.130   8.378
 1821POPC   C3B26781  11.695  42.874   7.995
 1821POPC   C4B26782  11.477  42.832   7.629
 1822POPC   NC326783  31.893   9.126   9.443
 1822POPC   PO426784  31.348   8.802   9.914
 1822POPC   GL126785  31.490   8.796   9.376
 1822POPC   GL226786  31.568   9.044   9.051
 1822POPC   C1A26787  31.412   8.601   8.904
 1822POPC   D2A26788  31.531   8.806   8.474
 1822POPC   C3A26789  31.572   8.680   8.020
 1822POPC   C4A26790  31.407   8.848   7.600
 1822POPC   C1B26791  31.665   9.307   8.685
 1822POPC   C2B26792  31.608   9.491   8.255
 1822POPC   C3B26793  31.537   9.266   7.864
 1822POPC   C4B26794  31.651   9.237   7.384
 1823POPC   NC326795  11.681  29.698   9.563
 1823POPC   PO426796  12.323  30.116   9.490
 1823POPC   GL126797  12.198  29.979   9.092
 1823POPC   GL226798  11.875  29.851   9.100
 1823POPC   C1A26799  12.248  29.852   8.661
 1823POPC   D2A26800  12.020  29.988   8.290
 1823POPC   C3A26801  12.207  29.942   7.928
 1823POPC   C4A26802  12.480  29.834   7.627
 1823POPC   C1B26803  11.743  29.968   8.722
 1823POPC   C2B26804  11.793  29.569   8.514
 1823POPC   C3B26805  11.917  29.498   8.118
 1823POPC   C4B26806  11.753  29.721   7.801
 1824POPC   NC326807   3.940  30.207   9.784
 1824POPC   PO426808   3.372  30.411   9.442
 1824POPC   GL126809   3.448  30.588   8.995
 1824POPC   GL226810   3.728  30.519   8.803
 1824POPC   C1A26811   3.243  30.642   8.574
 1824POPC   D2A26812   3.227  30.567   8.104
 1824POPC   C3A26813   3.536  30.808   7.849
 1824POPC   C4A26814   3.745  31.224   7.880
 1824POPC   C1B26815   3.987  30.329   8.519
 1824POPC   C2B26816   3.944  30.383   8.118
 1824POPC   C3B26817   3.619  30.304   7.860
 1824POPC   C4B26818   3.509  30.416   7.488
 1825POPC   NC326819  28.542  15.425   9.563
 1825POPC   PO426820  28.106  14.907   9.551
 1825POPC   GL126821  28.243  15.177   9.218
 1825POPC   GL226822  28.583  15.064   9.197
 1825POPC   C1A26823  28.284  15.153   8.759
 1825POPC   D2A26824  28.166  14.914   8.403
 1825POPC   C3A26825  28.177  15.074   7.974
 1825POPC   C4A26826  28.034  15.365   7.662
 1825POPC   C1B26827  28.754  14.985   8.798
 1825POPC   C2B26828  28.671  15.032   8.352
 1825POPC   C3B26829  28.673  15.177   7.901
 1825POPC   C4B26830  28.808  15.103   7.448
 1826POPC   NC326831  17.053   8.247   9.528
 1826POPC   PO426832  17.674   7.881   9.621
 1826POPC   GL126833  17.597   7.965   9.197
 1826POPC   GL226834  17.264   8.025   9.134
 1826POPC   C1A26835  17.811   8.045   8.816
 1826POPC   D2A26836  17.928   8.287   8.453
 1826POPC   C3A26837  17.840   8.073   8.056
 1826POPC   C4A26838  17.810   8.302   7.670
 1826POPC   C1B26839  17.371   8.293   8.782
 1826POPC   C2B26840  17.431   8.137   8.400
 1826POPC   C3B26841  17.368   8.283   8.003
 1826POPC   C4B26842  17.364   8.001   7.679
 1827POPC   NC326843   6.118   7.404   9.733
 1827POPC   PO426844   5.678   7.710   9.397
 1827POPC   GL126845   5.849   7.569   9.011
 1827POPC   GL226846   6.081   7.309   8.931
 1827POPC   C1A26847   5.756   7.491   8.572
 1827POPC   D2A26848   5.657   7.779   8.224
 1827POPC   C3A26849   5.846   7.675   7.831
 1827POPC   C4A26850   5.749   7.359   7.537
 1827POPC   C1B26851   6.097   7.095   8.559
 1827POPC   C2B26852   5.858   7.082   8.200
 1827POPC   C3B26853   6.087   7.167   7.841
 1827POPC   C4B26854   6.181   7.190   7.357
 1828POPC   NC326855  21.623   3.323   9.358
 1828POPC   PO426856  21.253   3.875   9.449
 1828POPC   GL126857  21.337   3.650   9.049
 1828POPC   GL226858  21.214   3.300   9.048
 1828POPC   C1A26859  21.374   3.768   8.607
 1828POPC   D2A26860  21.642   3.933   8.302
 1828POPC   C3A26861  21.633   3.722   7.910
 1828POPC   C4A26862  21.522   3.806   7.476
 1828POPC   C1B26863  21.143   3.309   8.616
 1828POPC   C2B26864  21.360   3.258   8.226
 1828POPC   C3B26865  21.237   3.342   7.792
 1828POPC   C4B26866  21.456   3.314   7.401
 1829POPC   NC326867  26.820  31.598   9.520
 1829POPC   PO426868  27.164  30.973   9.503
 1829POPC   GL126869  27.103  31.319   9.194
 1829POPC   GL226870  26.767  31.299   9.080
 1829POPC   C1A26871  27.071  31.588   8.787
 1829POPC   D2A26872  26.832  31.581   8.391
 1829POPC   C3A26873  26.785  31.244   8.101
 1829POPC   C4A26874  26.902  31.404   7.690
 1829POPC   C1B26875  26.542  31.609   8.814
 1829POPC   C2B26876  26.387  31.820   8.405
 1829POPC   C3B26877  26.472  31.631   7.971
 1829POPC   C4B26878  26.501  31.618   7.487
 1830POPC   NC326879  34.324  30.523   9.588
 1830POPC   PO426880  34.956  30.408   9.371
 1830POPC   GL126881  34.625  30.737   9.197
 1830POPC   GL226882  34.395  30.558   9.092
 1830POPC   C1A26883  34.412  30.897   8.745
 1830POPC   D2A26884  34.633  30.901   8.328
 1830POPC   C3A26885  34.503  30.889   7.872
 1830POPC   C4A26886  34.459  30.959   7.404
 1830POPC   C1B26887  34.715  30.491   8.728
 1830POPC   C2B26888  34.608  30.388   8.271
 1830POPC   C3B26889  34.557  30.374   7.796
 1830POPC   C4B26890  34.754  30.487   7.393
 1831POPC   NC326891  26.824  29.838   9.418
 1831POPC   PO426892  27.496  29.868   9.535
 1831POPC   GL126893  27.611  29.957   9.157
 1831POPC   GL226894  27.277  29.994   9.030
 1831POPC   C1A26895  27.915  30.032   8.815
 1831POPC   D2A26896  28.079  29.946   8.374
 1831POPC   C3A26897  27.783  30.002   8.024
 1831POPC   C4A26898  27.496  30.255   7.784
 1831POPC   C1B26899  27.544  29.695   8.734
 1831POPC   C2B26900  27.742  29.538   8.349
 1831POPC   C3B26901  27.567  29.534   7.948
 1831POPC   C4B26902  27.532  29.734   7.565
 1832POPC   NC326903  32.426  16.296  10.131
 1832POPC   PO426904  32.198  15.849   9.572
 1832POPC   GL126905  32.171  15.974   9.128
 1832POPC   GL226906  31.903  15.778   9.020
 1832POPC   C1A26907  32.407  15.933   8.715
 1832POPC   D2A26908  32.396  15.870   8.242
 1832POPC   C3A26909  32.175  16.225   8.048
 1832POPC   C4A26910  32.301  16.249   7.631
 1832POPC   C1B26911  31.886  16.042   8.686
 1832POPC   C2B26912  31.765  15.955   8.284
 1832POPC   C3B26913  31.944  15.804   7.921
 1832POPC   C4B26914  32.199  15.728   7.602
 1833POPC   NC326915   6.738   4.745   9.851
 1833POPC   PO426916   6.833   5.368   9.641
 1833POPC   GL126917   6.590   5.356   9.264
 1833POPC   GL226918   6.723   5.043   9.206
 1833POPC   C1A26919   6.554   5.442   8.816
 1833POPC   D2A26920   6.675   5.473   8.359
 1833POPC   C3A26921   6.450   5.505   7.971
 1833POPC   C4A26922   6.525   5.239   7.589
 1833POPC   C1B26923   6.574   4.908   8.798
 1833POPC   C2B26924   6.472   4.802   8.391
 1833POPC   C3B26925   6.632   4.855   7.984
 1833POPC   C4B26926   6.538   4.698   7.598
 1834POPC   NC326927  17.139   9.887   9.523
 1834POPC   PO426928  17.633   9.440   9.426
 1834POPC   GL126929  17.352   9.601   9.135
 1834POPC   GL226930  17.086   9.414   9.246
 1834POPC   C1A26931  17.272   9.753   8.718
 1834POPC   D2A26932  17.450  10.038   8.414
 1834POPC   C3A26933  17.637   9.959   8.016
 1834POPC   C4A26934  17.797   9.668   7.758
 1834POPC   C1B26935  17.092   9.278   8.818
 1834POPC   C2B26936  17.223   9.346   8.391
 1834POPC   C3B26937  17.250   9.610   8.024
 1834POPC   C4B26938  17.350   9.589   7.553
 1835POPC   NC326939  35.152  23.147   9.562
 1835POPC   PO426940  35.746  23.025   9.362
 1835POPC   GL126941  35.501  23.083   9.021
 1835POPC   GL226942  35.149  23.028   9.059
 1835POPC   C1A26943  35.423  22.870   8.651
 1835POPC   D2A26944  35.631  22.639   8.353
 1835POPC   C3A26945  35.480  22.899   8.031
 1835POPC   C4A26946  35.623  23.001   7.636
 1835POPC   C1B26947  34.999  22.645   8.785
 1835POPC   C2B26948  35.138  22.545   8.329
 1835POPC   C3B26949  35.110  22.595   7.891
 1835POPC   C4B26950  35.136  22.825   7.516
 1836POPC   NC326951  26.999   1.661   9.951
 1836POPC   PO426952  26.741   2.266   9.638
 1836POPC   GL126953  26.726   2.180   9.214
 1836POPC   GL226954  27.029   2.329   9.148
 1836POPC   C1A26955  26.752   2.043   8.787
 1836POPC   D2A26956  26.662   2.143   8.369
 1836POPC   C3A26957  26.732   1.783   8.080
 1836POPC   C4A26958  26.537   1.693   7.675
 1836POPC   C1B26959  27.164   2.331   8.720
 1836POPC   C2B26960  27.168   2.071   8.350
 1836POPC   C3B26961  27.021   2.246   7.966
 1836POPC   C4B26962  26.862   2.062   7.589
 1837POPC   NC326963   3.783  21.638   9.558
 1837POPC   PO426964   4.291  21.172   9.656
 1837POPC   GL126965   4.290  21.373   9.240
 1837POPC   GL226966   3.914  21.302   9.188
 1837POPC   C1A26967   4.578  21.373   8.831
 1837POPC   D2A26968   4.730  21.566   8.414
 1837POPC   C3A26969   4.466  21.417   8.072
 1837POPC   C4A26970   4.329  21.636   7.722
 1837POPC   C1B26971   4.119  21.120   8.827
 1837POPC   C2B26972   4.310  21.089   8.441
 1837POPC   C3B26973   4.086  21.044   8.060
 1837POPC   C4B26974   3.902  21.341   7.758
 1838POPC   NC326975  33.972  31.492   9.438
 1838POPC   PO426976  33.403  31.115   9.479
 1838POPC   GL126977  33.715  31.172   9.145
 1838POPC   GL226978  33.993  30.980   9.020
 1838POPC   C1A26979  33.902  31.463   8.794
 1838POPC   D2A26980  34.124  31.831   8.600
 1838POPC   C3A26981  33.864  31.846   8.274
 1838POPC   C4A26982  33.818  31.571   7.916
 1838POPC   C1B26983  33.636  31.022   8.685
 1838POPC   C2B26984  33.716  31.169   8.282
 1838POPC   C3B26985  33.873  31.017   7.895
 1838POPC   C4B26986  33.541  31.129   7.633
 1839POPC   NC326987  28.223  28.982   9.628
 1839POPC   PO426988  28.457  29.612   9.641
 1839POPC   GL126989  28.379  29.301   9.239
 1839POPC   GL226990  28.102  29.129   9.151
 1839POPC   C1A26991  28.503  29.243   8.786
 1839POPC   D2A26992  28.715  29.065   8.407
 1839POPC   C3A26993  28.680  29.271   8.007
 1839POPC   C4A26994  28.484  29.137   7.636
 1839POPC   C1B26995  28.014  28.801   8.857
 1839POPC   C2B26996  28.116  28.988   8.483
 1839POPC   C3B26997  28.255  28.964   8.069
 1839POPC   C4B26998  28.017  28.928   7.690
 1840POPC   NC326999   1.375  12.455   9.441
 1840POPC   PO427000   1.223  13.142   9.230
 1840POPC   GL127001   1.238  12.784   9.103
 1840POPC   GL227002   0.932  12.652   9.312
 1840POPC   C1A27003   1.325  12.667   8.701
 1840POPC   D2A27004   1.661  12.713   8.417
 1840POPC   C3A27005   1.509  12.611   8.033
 1840POPC   C4A27006   1.552  12.697   7.608
 1840POPC   C1B27007   0.820  12.675   8.877
 1840POPC   C2B27008   0.869  12.701   8.441
 1840POPC   C3B27009   0.980  12.611   8.015
 1840POPC   C4B27010   1.027  12.789   7.612
 1841POPC   NC327011   0.264  14.177   9.606
 1841POPC   PO427012   0.804  14.485   9.446
 1841POPC   GL127013   0.545  14.257   9.180
 1841POPC   GL227014   0.248  14.465   9.180
 1841POPC   C1A27015   0.537  14.171   8.758
 1841POPC   D2A27016   0.674  14.378   8.380
 1841POPC   C3A27017   0.532  14.204   7.974
 1841POPC   C4A27018   0.671  14.196   7.544
 1841POPC   C1B27019   0.486  14.676   8.840
 1841POPC   C2B27020   0.316  14.756   8.429
 1841POPC   C3B27021   0.394  14.940   8.055
 1841POPC   C4B27022   0.507  14.683   7.727
 1842POPC   NC327023  10.064  16.008   9.911
 1842POPC   PO427024   9.474  15.913   9.505
 1842POPC   GL127025   9.563  16.050   9.105
 1842POPC   GL227026   9.369  16.320   9.023
 1842POPC   C1A27027   9.948  15.985   8.852
 1842POPC   D2A27028   9.793  15.925   8.445
 1842POPC   C3A27029  10.059  16.000   8.094
 1842POPC   C4A27030   9.815  15.864   7.735
 1842POPC   C1B27031   9.704  16.420   8.743
 1842POPC   C2B27032   9.890  16.458   8.339
 1842POPC   C3B27033   9.776  16.382   7.911
 1842POPC   C4B27034   9.805  16.328   7.486
 1843POPC   NC327035  41.961  26.660   9.702
 1843POPC   PO427036  41.355  26.789   9.585
 1843POPC   GL127037  41.368  26.763   9.140
 1843POPC   GL227038  41.705  26.630   9.075
 1843POPC   C1A27039  41.502  26.892   8.697
 1843POPC   D2A27040  41.616  26.705   8.296
 1843POPC   C3A27041  41.463  26.881   7.925
 1843POPC   C4A27042  41.533  27.098   7.518
 1843POPC   C1B27043  41.919  26.551   8.679
 1843POPC   C2B27044  42.064  26.405   8.261
 1843POPC   C3B27045  41.811  26.433   7.901
 1843POPC   C4B27046  41.773  26.656   7.516
 1844POPC   NC327047  24.969  21.924   9.572
 1844POPC   PO427048  24.380  22.270   9.684
 1844POPC   GL127049  24.441  22.186   9.266
 1844POPC   GL227050  24.612  21.887   9.204
 1844POPC   C1A27051  24.386  22.240   8.836
 1844POPC   D2A27052  24.656  22.317   8.450
 1844POPC   C3A27053  24.412  22.397   8.069
 1844POPC   C4A27054  24.272  22.648   7.709
 1844POPC   C1B27055  24.720  21.856   8.768
 1844POPC   C2B27056  24.376  21.879   8.458
 1844POPC   C3B27057  24.397  21.871   8.021
 1844POPC   C4B27058  24.183  22.112   7.719
 1845POPC   NC327059  24.434  11.423   9.636
 1845POPC   PO427060  24.669  10.846   9.317
 1845POPC   GL127061  24.644  11.264   9.127
 1845POPC   GL227062  24.289  11.358   9.148
 1845POPC   C1A27063  24.894  11.499   8.778
 1845POPC   D2A27064  24.899  11.667   8.325
 1845POPC   C3A27065  24.931  11.322   8.032
 1845POPC   C4A27066  24.865  11.117   7.627
 1845POPC   C1B27067  24.304  11.282   8.724
 1845POPC   C2B27068  24.531  11.293   8.349
 1845POPC   C3B27069  24.431  11.422   7.917
 1845POPC   C4B27070  24.313  11.797   7.713
 1846POPC   NC327071   2.409  42.835   9.412
 1846POPC   PO427072   2.003  43.257   9.767
 1846POPC   GL127073   2.049  43.234   9.263
 1846POPC   GL227074   1.718  43.387   9.197
 1846POPC   C1A27075   2.192  43.182   8.764
 1846POPC   D2A27076   2.339  43.149   8.261
 1846POPC   C3A27077   1.990  43.180   7.907
 1846POPC   C4A27078   2.030  43.105   7.402
 1846POPC   C1B27079   1.687  43.536   8.755
 1846POPC   C2B27080   1.617  43.366   8.327
 1846POPC   C3B27081   1.456  43.411   7.917
 1846POPC   C4B27082   1.703  43.440   7.572
 1847POPC   NC327083  28.042  42.748   9.331
 1847POPC   PO427084  28.336  43.192   9.756
 1847POPC   GL127085  28.335  43.169   9.231
 1847POPC   GL227086  27.992  43.176   9.087
 1847POPC   C1A27087  28.370  43.254   8.773
 1847POPC   D2A27088  28.621  43.242   8.398
 1847POPC   C3A27089  28.415  43.449   8.062
 1847POPC   C4A27090  28.322  43.322   7.634
 1847POPC   C1B27091  27.919  42.961   8.699
 1847POPC   C2B27092  28.159  43.026   8.318
 1847POPC   C3B27093  28.343  42.894   7.932
 1847POPC   C4B27094  28.128  42.829   7.515
 1848POPC   NC327095  12.985  35.568   9.365
 1848POPC   PO427096  13.170  34.985   9.233
 1848POPC   GL127097  12.803  35.178   9.073
 1848POPC   GL227098  12.822  35.551   8.895
 1848POPC   C1A27099  12.552  35.168   8.699
 1848POPC   D2A27100  12.631  35.401   8.385
 1848POPC   C3A27101  12.519  35.216   8.028
 1848POPC   C4A27102  12.548  35.491   7.727
 1848POPC   C1B27103  13.072  35.265   8.653
 1848POPC   C2B27104  13.036  35.066   8.305
 1848POPC   C3B27105  13.018  35.291   7.946
 1848POPC   C4B27106  13.146  35.187   7.589
 1849POPC   NC327107   0.126   5.629   9.513
 1849POPC   PO427108   0.660   5.955   9.286
 1849POPC   GL127109   0.301   5.858   9.067
 1849POPC   GL227110   0.210   6.194   9.037
 1849POPC   C1A27111   0.315   5.700   8.642
 1849POPC   D2A27112   0.623   5.649   8.331
 1849POPC   C3A27113   0.503   5.846   7.943
 1849POPC   C4A27114   0.644   6.207   7.678
 1849POPC   C1B27115   0.095   6.151   8.629
 1849POPC   C2B27116   0.280   6.265   8.247
 1849POPC   C3B27117   0.146   6.199   7.844
 1849POPC   C4B27118   0.001   5.813   7.725
 1850POPC   NC327119  13.387  21.339   9.456
 1850POPC   PO427120  13.976  21.550   9.443
 1850POPC   GL127121  13.732  21.523   9.057
 1850POPC   GL227122  13.395  21.661   9.070
 1850POPC   C1A27123  13.619  21.180   8.776
 1850POPC   D2A27124  13.602  21.022   8.367
 1850POPC   C3A27125  13.775  21.315   8.070
 1850POPC   C4A27126  13.691  21.533   7.709
 1850POPC   C1B27127  13.224  21.514   8.713
 1850POPC   C2B27128  13.370  21.503   8.316
 1850POPC   C3B27129  13.209  21.656   7.921
 1850POPC   C4B27130  13.309  21.851   7.554
 1851POPC   NC327131  25.909  23.371   9.584
 1851POPC   PO427132  26.067  22.671   9.526
 1851POPC   GL127133  25.846  22.834   9.183
 1851POPC   GL227134  25.686  23.156   9.197
 1851POPC   C1A27135  25.902  22.773   8.752
 1851POPC   D2A27136  26.189  22.711   8.430
 1851POPC   C3A27137  26.014  22.715   8.067
 1851POPC   C4A27138  26.207  22.758   7.709
 1851POPC   C1B27139  25.731  23.256   8.788
 1851POPC   C2B27140  25.705  23.151   8.402
 1851POPC   C3B27141  25.746  23.344   8.039
 1851POPC   C4B27142  25.822  23.074   7.716
 1852POPC   NC327143  10.008  31.205   9.468
 1852POPC   PO427144  10.031  30.532   9.596
 1852POPC   GL127145   9.773  30.567   9.204
 1852POPC   GL227146   9.657  30.929   9.199
 1852POPC   C1A27147   9.694  30.416   8.761
 1852POPC   D2A27148   9.554  30.290   8.345
 1852POPC   C3A27149   9.772  30.476   8.031
 1852POPC   C4A27150  10.233  30.452   7.956
 1852POPC   C1B27151   9.521  30.915   8.777
 1852POPC   C2B27152   9.607  30.846   8.364
 1852POPC   C3B27153   9.360  30.792   8.021
 1852POPC   C4B27154   9.487  30.668   7.630
 1853POPC   NC327155  30.776  16.188   9.568
 1853POPC   PO427156  30.490  15.646   9.394
 1853POPC   GL127157  30.474  16.013   9.162
 1853POPC   GL227158  30.806  15.994   9.086
 1853POPC   C1A27159  30.470  16.178   8.741
 1853POPC   D2A27160  30.407  15.973   8.352
 1853POPC   C3A27161  30.513  16.208   7.986
 1853POPC   C4A27162  30.621  16.353   7.588
 1853POPC   C1B27163  30.961  15.911   8.678
 1853POPC   C2B27164  30.944  16.080   8.255
 1853POPC   C3B27165  30.843  15.844   7.855
 1853POPC   C4B27166  31.059  15.644   7.496
 1854POPC   NC327167  19.977   6.298   9.485
 1854POPC   PO427168  19.471   6.550   9.694
 1854POPC   GL127169  19.588   6.590   9.254
 1854POPC   GL227170  19.453   6.284   9.129
 1854POPC   C1A27171  19.982   6.668   8.966
 1854POPC   D2A27172  20.133   6.699   8.551
 1854POPC   C3A27173  20.025   6.904   8.173
 1854POPC   C4A27174  20.195   6.783   7.805
 1854POPC   C1B27175  19.568   6.502   8.734
 1854POPC   C2B27176  19.614   6.641   8.317
 1854POPC   C3B27177  19.764   6.440   7.949
 1854POPC   C4B27178  19.613   6.402   7.540
 1855POPC   NC327179  41.370  11.578   9.466
 1855POPC   PO427180  41.444  12.267   9.480
 1855POPC   GL127181  41.482  12.036   9.128
 1855POPC   GL227182  41.152  11.887   9.110
 1855POPC   C1A27183  41.535  12.263   8.732
 1855POPC   D2A27184  41.413  12.147   8.317
 1855POPC   C3A27185  41.658  12.057   7.969
 1855POPC   C4A27186  41.500  12.184   7.546
 1855POPC   C1B27187  41.177  11.919   8.719
 1855POPC   C2B27188  41.011  11.824   8.343
 1855POPC   C3B27189  41.221  11.776   7.955
 1855POPC   C4B27190  41.267  11.734   7.514
 1856POPC   NC327191   9.977  10.515   9.540
 1856POPC   PO427192   9.570  10.130   9.318
 1856POPC   GL127193   9.654  10.523   9.136
 1856POPC   GL227194   9.994  10.633   9.055
 1856POPC   C1A27195   9.556  10.736   8.769
 1856POPC   D2A27196   9.729  10.561   8.423
 1856POPC   C3A27197   9.597  10.768   8.067
 1856POPC   C4A27198   9.582  10.523   7.738
 1856POPC   C1B27199  10.169  10.422   8.705
 1856POPC   C2B27200  10.104  10.189   8.318
 1856POPC   C3B27201  10.161  10.234   7.856
 1856POPC   C4B27202  10.036  10.403   7.447
 1857POPC   NC327203  11.182  44.223   9.490
 1857POPC   PO427204  11.094  43.559   9.539
 1857POPC   GL127205  11.324  43.831   9.207
 1857POPC   GL227206  11.026  43.863   9.127
 1857POPC   C1A27207  11.393  44.219   8.866
 1857POPC   D2A27208  11.568  44.455   8.458
 1857POPC   C3A27209  11.699  44.163   8.079
 1857POPC   C4A27210  11.574  43.711   7.942
 1857POPC   C1B27211  10.940  44.016   8.766
 1857POPC   C2B27212  10.906  43.854   8.380
 1857POPC   C3B27213  11.067  43.747   7.969
 1857POPC   C4B27214  10.786  43.617   7.618
 1858POPC   NC327215   5.562  10.687   9.969
 1858POPC   PO427216   4.985  10.497   9.622
 1858POPC   GL127217   4.995  10.588   9.181
 1858POPC   GL227218   5.084  10.258   9.126
 1858POPC   C1A27219   5.213  10.636   8.765
 1858POPC   D2A27220   5.267  10.520   8.308
 1858POPC   C3A27221   5.211  10.815   7.986
 1858POPC   C4A27222   4.778  10.769   7.812
 1858POPC   C1B27223   5.005  10.141   8.721
 1858POPC   C2B27224   5.171  10.008   8.327
 1858POPC   C3B27225   4.903  10.175   8.030
 1858POPC   C4B27226   5.141  10.379   7.767
 1859POPC   NC327227  24.921  25.076   9.445
 1859POPC   PO427228  25.363  25.526   9.505
 1859POPC   GL127229  25.257  25.393   9.100
 1859POPC   GL227230  25.268  25.034   9.065
 1859POPC   C1A27231  25.332  25.318   8.641
 1859POPC   D2A27232  25.360  25.520   8.238
 1859POPC   C3A27233  25.432  25.282   7.835
 1859POPC   C4A27234  25.535  25.093   7.415
 1859POPC   C1B27235  24.937  24.806   8.818
 1859POPC   C2B27236  24.759  24.924   8.412
 1859POPC   C3B27237  25.047  25.080   8.097
 1859POPC   C4B27238  25.310  24.786   7.844
 1860POPC   NC327239   7.696  34.074   9.785
 1860POPC   PO427240   7.113  33.682   9.584
 1860POPC   GL127241   7.375  33.842   9.190
 1860POPC   GL227242   7.689  33.951   9.281
 1860POPC   C1A27243   7.501  33.586   8.814
 1860POPC   D2A27244   7.529  33.753   8.394
 1860POPC   C3A27245   7.551  33.553   7.997
 1860POPC   C4A27246   7.493  33.751   7.638
 1860POPC   C1B27247   7.801  34.000   8.839
 1860POPC   C2B27248   7.810  34.176   8.426
 1860POPC   C3B27249   7.849  33.974   8.021
 1860POPC   C4B27250   8.051  34.106   7.644
 1861POPC   NC327251  19.627  12.241   9.327
 1861POPC   PO427252  19.852  11.661   9.653
 1861POPC   GL127253  19.989  11.865   9.214
 1861POPC   GL227254  20.148  12.212   9.287
 1861POPC   C1A27255  19.841  11.825   8.745
 1861POPC   D2A27256  19.954  11.676   8.327
 1861POPC   C3A27257  19.751  11.882   8.003
 1861POPC   C4A27258  19.683  12.307   7.862
 1861POPC   C1B27259  20.141  12.234   8.820
 1861POPC   C2B27260  19.976  12.187   8.386
 1861POPC   C3B27261  20.154  12.199   7.962
 1861POPC   C4B27262  20.128  12.440   7.579
 1862POPC   NC327263  41.278  30.928   9.397
 1862POPC   PO427264  41.665  30.372   9.488
 1862POPC   GL127265  41.833  30.446   9.115
 1862POPC   GL227266  41.740  30.809   9.070
 1862POPC   C1A27267  41.701  30.239   8.752
 1862POPC   D2A27268  41.761  30.352   8.353
 1862POPC   C3A27269  41.395  30.425   8.140
 1862POPC   C4A27270  41.488  30.518   7.747
 1862POPC   C1B27271  41.535  30.703   8.663
 1862POPC   C2B27272  41.681  30.853   8.260
 1862POPC   C3B27273  41.804  30.917   7.835
 1862POPC   C4B27274  41.716  31.240   7.484
 1863POPC   NC327275  41.281  14.261   9.479
 1863POPC   PO427276  40.715  14.640   9.585
 1863POPC   GL127277  40.907  14.451   9.178
 1863POPC   GL227278  41.198  14.644   9.128
 1863POPC   C1A27279  40.863  14.329   8.740
 1863POPC   D2A27280  40.613  14.460   8.362
 1863POPC   C3A27281  40.794  14.385   7.935
 1863POPC   C4A27282  40.860  14.011   7.752
 1863POPC   C1B27283  41.038  14.822   8.753
 1863POPC   C2B27284  40.854  14.919   8.345
 1863POPC   C3B27285  40.964  14.861   7.943
 1863POPC   C4B27286  41.262  14.639   7.754
 1864POPC   NC327287  30.262  13.802   9.483
 1864POPC   PO427288  29.762  13.364   9.485
 1864POPC   GL127289  29.852  13.676   9.207
 1864POPC   GL227290  29.592  13.888   9.324
 1864POPC   C1A27291  30.049  13.714   8.779
 1864POPC   D2A27292  30.254  13.524   8.402
 1864POPC   C3A27293  30.110  13.678   8.054
 1864POPC   C4A27294  30.181  13.513   7.660
 1864POPC   C1B27295  29.597  13.950   8.877
 1864POPC   C2B27296  29.731  13.921   8.440
 1864POPC   C3B27297  29.525  13.964   8.068
 1864POPC   C4B27298  29.763  13.850   7.725
 1865POPC   NC327299  24.944  25.749   9.554
 1865POPC   PO427300  25.120  26.426   9.401
 1865POPC   GL127301  25.245  25.977   9.197
 1865POPC   GL227302  25.605  25.857   9.216
 1865POPC   C1A27303  25.329  25.844   8.776
 1865POPC   D2A27304  25.075  25.951   8.451
 1865POPC   C3A27305  25.275  26.023   8.067
 1865POPC   C4A27306  25.212  26.042   7.619
 1865POPC   C1B27307  25.716  25.543   8.920
 1865POPC   C2B27308  25.822  25.553   8.513
 1865POPC   C3B27309  25.759  25.810   8.155
 1865POPC   C4B27310  25.574  25.741   7.780
 1866POPC   NC327311  13.247  23.329   9.301
 1866POPC   PO427312  12.844  22.805   9.563
 1866POPC   GL127313  12.907  22.964   9.173
 1866POPC   GL227314  13.244  22.823   9.167
 1866POPC   C1A27315  12.775  23.018   8.736
 1866POPC   D2A27316  12.757  22.652   8.405
 1866POPC   C3A27317  12.781  22.828   8.009
 1866POPC   C4A27318  12.654  23.235   7.994
 1866POPC   C1B27319  13.255  22.861   8.731
 1866POPC   C2B27320  13.114  23.028   8.349
 1866POPC   C3B27321  13.267  23.108   7.963
 1866POPC   C4B27322  12.995  23.145   7.615
 1867POPC   NC327323   0.934  20.424   9.446
 1867POPC   PO427324   1.471  20.794   9.471
 1867POPC   GL127325   1.254  20.655   9.069
 1867POPC   GL227326   0.890  20.647   9.000
 1867POPC   C1A27327   1.237  20.550   8.614
 1867POPC   D2A27328   1.469  20.609   8.225
 1867POPC   C3A27329   1.243  20.594   7.846
 1867POPC   C4A27330   0.923  20.903   7.756
 1867POPC   C1B27331   0.798  20.798   8.616
 1867POPC   C2B27332   0.889  20.668   8.208
 1867POPC   C3B27333   0.773  20.374   7.872
 1867POPC   C4B27334   0.961  20.163   7.526
 1868POPC   NC327335  19.384  39.886   9.377
 1868POPC   PO427336  18.807  40.199   9.540
 1868POPC   GL127337  18.680  40.140   9.107
 1868POPC   GL227338  18.940  39.903   9.060
 1868POPC   C1A27339  18.614  39.983   8.669
 1868POPC   D2A27340  18.529  39.681   8.358
 1868POPC   C3A27341  18.821  39.764   8.083
 1868POPC   C4A27342  18.883  39.910   7.675
 1868POPC   C1B27343  19.120  39.827   8.647
 1868POPC   C2B27344  19.255  40.050   8.286
 1868POPC   C3B27345  19.316  39.800   7.955
 1868POPC   C4B27346  19.325  39.778   7.538
 1869POPC   NC327347   0.156   7.269   9.595
 1869POPC   PO427348   0.792   7.492   9.645
 1869POPC   GL127349   0.576   7.290   9.261
 1869POPC   GL227350   0.330   7.537   9.178
 1869POPC   C1A27351   0.411   7.099   8.817
 1869POPC   D2A27352   0.158   7.203   8.440
 1869POPC   C3A27353   0.420   7.259   8.067
 1869POPC   C4A27354   0.587   7.393   7.658
 1869POPC   C1B27355   0.380   7.601   8.734
 1869POPC   C2B27356   0.402   7.804   8.328
 1869POPC   C3B27357   0.236   7.719   7.908
 1869POPC   C4B27358   0.215   7.710   7.468
 1870POPC   NC327359  25.021  33.203   9.494
 1870POPC   PO427360  25.487  32.724   9.657
 1870POPC   GL127361  25.451  32.755   9.231
 1870POPC   GL227362  25.272  33.018   9.117
 1870POPC   C1A27363  25.338  32.628   8.809
 1870POPC   D2A27364  25.277  32.840   8.437
 1870POPC   C3A27365  25.176  32.715   8.032
 1870POPC   C4A27366  25.425  32.648   7.652
 1870POPC   C1B27367  25.060  33.190   8.765
 1870POPC   C2B27368  25.052  33.288   8.324
 1870POPC   C3B27369  25.254  33.241   7.943
 1870POPC   C4B27370  25.266  33.194   7.510
 1871POPC   NC327371  25.275  15.345   9.527
 1871POPC   PO427372  25.377  14.777   9.811
 1871POPC   GL127373  25.247  14.887   9.307
 1871POPC   GL227374  25.512  14.740   9.157
 1871POPC   C1A27375  25.202  15.126   8.873
 1871POPC   D2A27376  25.408  15.209   8.441
 1871POPC   C3A27377  25.207  15.301   8.030
 1871POPC   C4A27378  25.421  15.608   7.762
 1871POPC   C1B27379  25.635  14.880   8.776
 1871POPC   C2B27380  25.640  14.771   8.358
 1871POPC   C3B27381  25.571  14.960   7.947
 1871POPC   C4B27382  25.197  14.885   7.699
 1872POPC   NC327383   1.736  41.491   9.629
 1872POPC   PO427384   2.216  41.828   9.370
 1872POPC   GL127385   2.045  41.573   9.072
 1872POPC   GL227386   1.708  41.441   9.122
 1872POPC   C1A27387   1.821  41.701   8.690
 1872POPC   D2A27388   1.858  41.876   8.291
 1872POPC   C3A27389   2.021  41.533   8.072
 1872POPC   C4A27390   2.239  41.489   7.684
 1872POPC   C1B27391   1.931  41.190   8.756
 1872POPC   C2B27392   1.918  40.985   8.309
 1872POPC   C3B27393   1.858  41.119   7.839
 1872POPC   C4B27394   2.000  41.062   7.408
 1873POPC   NC327395  21.185   4.341   9.418
 1873POPC   PO427396  20.560   4.271   9.530
 1873POPC   GL127397  20.665   4.199   9.127
 1873POPC   GL227398  20.834   4.505   9.079
 1873POPC   C1A27399  20.452   4.335   8.742
 1873POPC   D2A27400  20.437   4.215   8.311
 1873POPC   C3A27401  20.408   4.494   7.961
 1873POPC   C4A27402  20.358   4.334   7.528
 1873POPC   C1B27403  21.049   4.223   8.779
 1873POPC   C2B27404  20.952   4.130   8.369
 1873POPC   C3B27405  20.827   4.193   7.943
 1873POPC   C4B27406  21.060   4.299   7.555
 1874POPC   NC327407  23.765   4.689   9.376
 1874POPC   PO427408  24.121   4.137   9.424
 1874POPC   GL127409  23.893   4.357   9.009
 1874POPC   GL227410  23.994   4.666   8.814
 1874POPC   C1A27411  23.595   4.331   8.714
 1874POPC   D2A27412  23.465   3.964   8.521
 1874POPC   C3A27413  23.453   3.939   8.087
 1874POPC   C4A27414  23.535   4.191   7.800
 1874POPC   C1B27415  24.075   4.351   8.548
 1874POPC   C2B27416  23.847   4.239   8.240
 1874POPC   C3B27417  23.781   4.585   7.999
 1874POPC   C4B27418  23.420   4.699   7.826
 1875POPC   NC327419  35.978  11.575   9.384
 1875POPC   PO427420  35.459  11.108   9.594
 1875POPC   GL127421  35.422  11.266   9.203
 1875POPC   GL227422  35.171  11.525   9.114
 1875POPC   C1A27423  35.269  11.120   8.809
 1875POPC   D2A27424  35.145  11.312   8.484
 1875POPC   C3A27425  35.261  11.065   8.179
 1875POPC   C4A27426  35.266  11.060   7.771
 1875POPC   C1B27427  35.501  11.585   8.813
 1875POPC   C2B27428  35.621  11.509   8.405
 1875POPC   C3B27429  35.433  11.512   7.998
 1875POPC   C4B27430  35.649  11.493   7.615
 1876POPC   NC327431  28.439   9.157   9.362
 1876POPC   PO427432  28.264   9.778   9.709
 1876POPC   GL127433  28.440   9.659   9.321
 1876POPC   GL227434  28.161   9.572   9.153
 1876POPC   C1A27435  28.545   9.764   8.872
 1876POPC   D2A27436  28.325   9.886   8.490
 1876POPC   C3A27437  28.513   9.793   8.091
 1876POPC   C4A27438  28.365   9.860   7.708
 1876POPC   C1B27439  28.155   9.410   8.781
 1876POPC   C2B27440  27.959   9.483   8.388
 1876POPC   C3B27441  28.069   9.494   7.984
 1876POPC   C4B27442  28.170   9.287   7.644
 1877POPC   NC327443   0.566  44.933   9.464
 1877POPC   PO427444   0.919  44.244   9.469
 1877POPC   GL127445   0.692  44.507   9.186
 1877POPC   GL227446   0.368  44.356   9.013
 1877POPC   C1A27447   0.630  44.750   8.832
 1877POPC   D2A27448   0.618  44.528   8.471
 1877POPC   C3A27449   0.746  44.720   8.132
 1877POPC   C4A27450   0.630  44.557   7.744
 1877POPC   C1B27451   0.156  44.591   8.663
 1877POPC   C2B27452   0.195  44.629   8.183
 1877POPC   C3B27453   0.231  44.840   7.792
 1877POPC   C4B27454   0.079  44.744   7.367
 1878POPC   NC327455   0.234  26.388   9.332
 1878POPC   PO427456   0.151  25.652   9.550
 1878POPC   GL127457   0.305  25.859   9.205
 1878POPC   GL227458   0.665  25.921   9.296
 1878POPC   C1A27459   0.125  25.867   8.779
 1878POPC   D2A27460   0.092  25.775   8.314
 1878POPC   C3A27461   0.189  26.163   8.042
 1878POPC   C4A27462   0.470  26.185   7.710
 1878POPC   C1B27463   0.726  25.649   8.941
 1878POPC   C2B27464   0.834  25.773   8.518
 1878POPC   C3B27465   0.654  25.918   8.127
 1878POPC   C4B27466   0.650  25.694   7.743
 1879POPC   NC327467   8.521  34.664   9.493
 1879POPC   PO427468   7.929  34.480   9.747
 1879POPC   GL127469   8.014  34.460   9.265
 1879POPC   GL227470   8.306  34.630   9.057
 1879POPC   C1A27471   7.908  34.511   8.805
 1879POPC   D2A27472   8.093  34.612   8.391
 1879POPC   C3A27473   7.966  34.473   8.010
 1879POPC   C4A27474   8.117  34.603   7.640
 1879POPC   C1B27475   8.428  34.375   8.696
 1879POPC   C2B27476   8.593  34.508   8.322
 1879POPC   C3B27477   8.471  34.354   7.957
 1879POPC   C4B27478   8.618  34.452   7.588
 1880POPC   NC327479   6.727   1.886   9.475
 1880POPC   PO427480   6.061   1.893   9.644
 1880POPC   GL127481   6.292   1.785   9.238
 1880POPC   GL227482   6.555   2.009   9.032
 1880POPC   C1A27483   6.386   1.646   8.774
 1880POPC   D2A27484   6.204   1.862   8.401
 1880POPC   C3A27485   6.451   2.091   8.114
 1880POPC   C4A27486   6.700   2.120   7.764
 1880POPC   C1B27487   6.875   1.812   8.794
 1880POPC   C2B27488   6.774   1.795   8.395
 1880POPC   C3B27489   7.025   2.015   8.130
 1880POPC   C4B27490   7.161   1.913   7.737
 1881POPC   NC327491  24.411  13.792   9.361
 1881POPC   PO427492  24.822  13.453   9.650
 1881POPC   GL127493  24.807  13.732   9.070
 1881POPC   GL227494  24.434  13.668   8.887
 1881POPC   C1A27495  24.813  13.615   8.587
 1881POPC   D2A27496  24.650  13.815   8.261
 1881POPC   C3A27497  24.698  13.652   7.894
 1881POPC   C4A27498  24.749  13.278   7.725
 1881POPC   C1B27499  24.190  13.886   8.583
 1881POPC   C2B27500  24.160  13.910   8.152
 1881POPC   C3B27501  24.220  13.698   7.745
 1881POPC   C4B27502  24.118  13.824   7.311
 1882POPC   NC327503   3.205  41.496   9.536
 1882POPC   PO427504   3.813  41.415   9.650
 1882POPC   GL127505   3.640  41.503   9.241
 1882POPC   GL227506   3.452  41.212   9.154
 1882POPC   C1A27507   3.419  41.630   8.855
 1882POPC   D2A27508   3.503  41.765   8.429
 1882POPC   C3A27509   3.454  41.527   8.051
 1882POPC   C4A27510   3.304  41.662   7.653
 1882POPC   C1B27511   3.799  41.299   8.795
 1882POPC   C2B27512   3.823  41.112   8.390
 1882POPC   C3B27513   3.879  41.244   7.979
 1882POPC   C4B27514   3.687  41.343   7.604
 1883POPC   NC327515  43.536  14.200   9.534
 1883POPC   PO427516  43.972  14.723   9.539
 1883POPC   GL127517  43.896  14.416   9.236
 1883POPC   GL227518  44.169  14.459   9.036
 1883POPC   C1A27519  43.761  14.189   8.863
 1883POPC   D2A27520  43.958  14.262   8.452
 1883POPC   C3A27521  43.630  14.310   8.142
 1883POPC   C4A27522  43.581  14.495   7.738
 1883POPC   C1B27523  44.323  14.693   8.731
 1883POPC   C2B27524  44.379  14.569   8.306
 1883POPC   C3B27525  44.088  14.465   7.971
 1883POPC   C4B27526  44.178  14.283   7.588
 1884POPC   NC327527  25.315  11.964   9.480
 1884POPC   PO427528  24.898  12.327   9.187
 1884POPC   GL127529  25.257  12.148   8.996
 1884POPC   GL227530  25.588  12.258   9.141
 1884POPC   C1A27531  25.199  12.016   8.581
 1884POPC   D2A27532  25.089  12.154   8.162
 1884POPC   C3A27533  25.344  11.994   7.848
 1884POPC   C4A27534  25.662  11.780   7.641
 1884POPC   C1B27535  25.543  12.486   8.737
 1884POPC   C2B27536  25.555  12.385   8.325
 1884POPC   C3B27537  25.564  12.441   7.903
 1884POPC   C4B27538  25.165  12.469   7.686
 1885POPC   NC327539   5.617  17.263   9.591
 1885POPC   PO427540   6.251  17.289   9.438
 1885POPC   GL127541   6.072  17.333   9.087
 1885POPC   GL227542   5.752  17.469   9.152
 1885POPC   C1A27543   6.011  17.524   8.714
 1885POPC   D2A27544   6.157  17.823   8.480
 1885POPC   C3A27545   6.127  17.743   8.059
 1885POPC   C4A27546   6.016  17.441   7.737
 1885POPC   C1B27547   5.507  17.514   8.793
 1885POPC   C2B27548   5.637  17.595   8.368
 1885POPC   C3B27549   5.569  17.467   7.968
 1885POPC   C4B27550   5.297  17.683   7.701
 1886POPC   NC327551  24.188  29.793   9.405
 1886POPC   PO427552  24.742  30.094   9.531
 1886POPC   GL127553  24.627  29.909   9.135
 1886POPC   GL227554  24.366  30.159   9.096
 1886POPC   C1A27555  24.704  29.837   8.683
 1886POPC   D2A27556  24.631  30.053   8.285
 1886POPC   C3A27557  24.448  29.912   7.932
 1886POPC   C4A27558  24.688  29.617   7.813
 1886POPC   C1B27559  24.143  30.316   8.765
 1886POPC   C2B27560  24.136  30.196   8.332
 1886POPC   C3B27561  24.254  30.380   7.935
 1886POPC   C4B27562  24.236  30.341   7.486
 1887POPC   NC327563  27.660  35.108   9.317
 1887POPC   PO427564  27.428  35.658   9.696
 1887POPC   GL127565  27.563  35.601   9.235
 1887POPC   GL227566  27.928  35.513   9.148
 1887POPC   C1A27567  27.378  35.512   8.809
 1887POPC   D2A27568  27.338  35.779   8.446
 1887POPC   C3A27569  27.283  35.609   8.044
 1887POPC   C4A27570  27.600  35.356   7.820
 1887POPC   C1B27571  27.852  35.363   8.708
 1887POPC   C2B27572  27.906  35.377   8.264
 1887POPC   C3B27573  28.012  35.075   7.921
 1887POPC   C4B27574  27.908  35.063   7.477
 1888POPC   NC327575  42.481  40.619   9.497
 1888POPC   PO427576  41.807  40.824   9.661
 1888POPC   GL127577  42.062  40.868   9.222
 1888POPC   GL227578  42.417  40.823   9.045
 1888POPC   C1A27579  42.004  40.834   8.750
 1888POPC   D2A27580  42.185  40.647   8.380
 1888POPC   C3A27581  42.364  40.895   8.053
 1888POPC   C4A27582  42.269  40.879   7.621
 1888POPC   C1B27583  42.497  40.462   8.777
 1888POPC   C2B27584  42.536  40.273   8.361
 1888POPC   C3B27585  42.380  40.393   7.915
 1888POPC   C4B27586  42.724  40.554   7.613
 1889POPC   NC327587  44.741  20.088   9.647
 1889POPC   PO427588  44.316  19.553   9.672
 1889POPC   GL127589  44.558  19.711   9.269
 1889POPC   GL227590  44.924  19.733   9.154
 1889POPC   C1A27591  44.563  19.784   8.780
 1889POPC   D2A27592  44.349  19.733   8.352
 1889POPC   C3A27593  44.471  20.010   8.001
 1889POPC   C4A27594  44.475  19.998   7.566
 1889POPC   C1B27595   0.056  19.648   8.736
 1889POPC   C2B27596  44.810  19.489   8.396
 1889POPC   C3B27597  44.665  19.545   7.971
 1889POPC   C4B27598  44.888  19.446   7.634
 1890POPC   NC327599   1.961  16.909   9.497
 1890POPC   PO427600   2.083  16.271   9.381
 1890POPC   GL127601   1.900  16.620   9.101
 1890POPC   GL227602   2.206  16.822   9.039
 1890POPC   C1A27603   1.812  16.865   8.717
 1890POPC   D2A27604   1.734  16.644   8.325
 1890POPC   C3A27605   1.932  16.820   7.979
 1890POPC   C4A27606   1.700  17.021   7.673
 1890POPC   C1B27607   2.149  16.463   8.696
 1890POPC   C2B27608   2.256  16.388   8.259
 1890POPC   C3B27609   2.260  16.451   7.813
 1890POPC   C4B27610   2.266  16.787   7.544
 1891POPC   NC327611  17.885   8.310   9.486
 1891POPC   PO427612  18.565   8.015   9.482
 1891POPC   GL127613  18.386   8.250   9.129
 1891POPC   GL227614  18.115   8.530   9.091
 1891POPC   C1A27615  18.316   8.040   8.746
 1891POPC   D2A27616  18.202   7.828   8.373
 1891POPC   C3A27617  18.356   8.054   8.036
 1891POPC   C4A27618  18.191   7.916   7.647
 1891POPC   C1B27619  18.391   8.653   8.782
 1891POPC   C2B27620  18.421   8.418   8.404
 1891POPC   C3B27621  18.389   8.596   8.009
 1891POPC   C4B27622  18.389   8.392   7.632
 1892POPC   NC327623   0.555  28.715   9.435
 1892POPC   PO427624   0.101  28.219   9.443
 1892POPC   GL127625   0.425  28.276   9.095
 1892POPC   GL227626   0.596  28.570   8.952
 1892POPC   C1A27627   0.314  28.166   8.631
 1892POPC   D2A27628  44.999  28.153   8.237
 1892POPC   C3A27629   0.224  28.183   7.847
 1892POPC   C4A27630   0.608  28.346   7.672
 1892POPC   C1B27631   0.158  28.609   8.821
 1892POPC   C2B27632   0.233  28.594   8.368
 1892POPC   C3B27633   0.162  28.680   7.963
 1892POPC   C4B27634   0.202  28.605   7.513
 1893POPC   NC327635  26.212  33.932   9.429
 1893POPC   PO427636  25.674  33.695   9.766
 1893POPC   GL127637  25.888  33.596   9.270
 1893POPC   GL227638  25.886  33.941   9.015
 1893POPC   C1A27639  25.884  33.504   8.806
 1893POPC   D2A27640  25.840  33.759   8.417
 1893POPC   C3A27641  25.819  33.541   8.014
 1893POPC   C4A27642  25.525  33.605   7.690
 1893POPC   C1B27643  26.251  33.892   8.717
 1893POPC   C2B27644  26.341  33.832   8.263
 1893POPC   C3B27645  26.174  33.846   7.819
 1893POPC   C4B27646  26.338  34.074   7.428
 1894POPC   NC327647  34.640  37.321   9.369
 1894POPC   PO427648  34.436  37.918   9.534
 1894POPC   GL127649  34.427  37.741   9.163
 1894POPC   GL227650  34.204  37.455   9.148
 1894POPC   C1A27651  34.720  37.705   8.791
 1894POPC   D2A27652  34.852  37.456   8.434
 1894POPC   C3A27653  34.754  37.669   8.051
 1894POPC   C4A27654  34.892  37.701   7.588
 1894POPC   C1B27655  34.214  37.630   8.734
 1894POPC   C2B27656  34.331  37.473   8.380
 1894POPC   C3B27657  34.219  37.450   8.008
 1894POPC   C4B27658  34.401  37.602   7.699
 1895POPC   NC327659  13.408  27.417   9.882
 1895POPC   PO427660  13.761  27.961   9.574
 1895POPC   GL127661  13.605  27.659   9.277
 1895POPC   GL227662  13.765  27.854   9.051
 1895POPC   C1A27663  13.593  27.396   8.875
 1895POPC   D2A27664  13.376  27.475   8.483
 1895POPC   C3A27665  13.457  27.383   8.067
 1895POPC   C4A27666  13.536  27.399   7.651
 1895POPC   C1B27667  13.705  27.841   8.624
 1895POPC   C2B27668  13.848  27.687   8.248
 1895POPC   C3B27669  13.982  27.585   7.841
 1895POPC   C4B27670  13.890  27.709   7.426
 1896POPC   NC327671  29.190  11.566   9.258
 1896POPC   PO427672  28.982  11.974   9.808
 1896POPC   GL127673  29.068  12.041   9.289
 1896POPC   GL227674  29.361  12.195   9.082
 1896POPC   C1A27675  28.983  11.999   8.796
 1896POPC   D2A27676  28.919  12.235   8.416
 1896POPC   C3A27677  28.849  11.976   8.039
 1896POPC   C4A27678  28.815  12.083   7.613
 1896POPC   C1B27679  29.468  11.994   8.679
 1896POPC   C2B27680  29.313  11.941   8.256
 1896POPC   C3B27681  29.309  11.754   7.855
 1896POPC   C4B27682  29.493  11.802   7.410
 1897POPC   NC327683  12.549  37.017   9.494
 1897POPC   PO427684  13.023  36.656   9.633
 1897POPC   GL127685  13.072  36.854   9.219
 1897POPC   GL227686  12.865  37.112   9.135
 1897POPC   C1A27687  13.173  37.017   8.778
 1897POPC   D2A27688  12.937  37.119   8.423
 1897POPC   C3A27689  12.908  36.806   8.117
 1897POPC   C4A27690  12.788  36.753   7.702
 1897POPC   C1B27691  12.606  36.908   8.817
 1897POPC   C2B27692  12.451  36.831   8.395
 1897POPC   C3B27693  12.531  37.131   8.070
 1897POPC   C4B27694  12.949  37.332   7.951
 1898POPC   NC327695  29.057  44.217   9.411
 1898POPC   PO427696  28.786  43.613   9.472
 1898POPC   GL127697  28.933  43.786   9.103
 1898POPC   GL227698  29.301  43.787   9.184
 1898POPC   C1A27699  28.922  43.635   8.674
 1898POPC   D2A27700  29.250  43.703   8.376
 1898POPC   C3A27701  29.205  43.862   8.001
 1898POPC   C4A27702  28.792  43.730   7.828
 1898POPC   C1B27703  29.322  43.966   8.792
 1898POPC   C2B27704  29.506  44.326   8.610
 1898POPC   C3B27705  29.662  44.347   8.210
 1898POPC   C4B27706  29.515  44.288   7.797
 1899POPC   NC327707   1.604   9.268   9.389
 1899POPC   PO427708   1.684   8.565   9.561
 1899POPC   GL127709   2.025   8.759   9.237
 1899POPC   GL227710   2.063   9.113   9.142
 1899POPC   C1A27711   2.192   8.694   8.831
 1899POPC   D2A27712   2.155   8.962   8.455
 1899POPC   C3A27713   2.094   8.766   8.046
 1899POPC   C4A27714   1.958   8.922   7.631
 1899POPC   C1B27715   1.837   9.355   8.781
 1899POPC   C2B27716   1.775   9.343   8.352
 1899POPC   C3B27717   1.674   9.101   8.007
 1899POPC   C4B27718   1.649   9.315   7.607
 1900POPC   NC327719  32.900  28.532   9.646
 1900POPC   PO427720  32.988  27.950   9.736
 1900POPC   GL127721  32.848  28.215   9.271
 1900POPC   GL227722  32.553  28.099   9.096
 1900POPC   C1A27723  33.038  28.298   8.829
 1900POPC   D2A27724  33.093  28.087   8.416
 1900POPC   C3A27725  33.179  28.368   8.063
 1900POPC   C4A27726  33.359  28.585   7.731
 1900POPC   C1B27727  32.538  28.328   8.716
 1900POPC   C2B27728  32.796  28.507   8.379
 1900POPC   C3B27729  32.739  28.643   7.946
 1900POPC   C4B27730  32.559  28.546   7.534
 1901POPC   NC327731  21.574  38.075   9.590
 1901POPC   PO427732  20.974  38.380   9.543
 1901POPC   GL127733  21.298  38.307   9.199
 1901POPC   GL227734  21.402  38.583   9.161
 1901POPC   C1A27735  21.618  38.357   8.791
 1901POPC   D2A27736  21.460  38.407   8.404
 1901POPC   C3A27737  21.596  38.543   8.002
 1901POPC   C4A27738  21.477  38.301   7.655
 1901POPC   C1B27739  21.162  38.643   8.773
 1901POPC   C2B27740  21.249  38.885   8.384
 1901POPC   C3B27741  21.132  38.805   7.987
 1901POPC   C4B27742  21.101  38.611   7.589
 1902POPC   NC327743  25.464   6.187   9.466
 1902POPC   PO427744  25.183   5.596   9.443
 1902POPC   GL127745  25.309   5.839   9.112
 1902POPC   GL227746  25.670   5.845   9.138
 1902POPC   C1A27747  25.383   6.030   8.725
 1902POPC   D2A27748  25.538   5.893   8.358
 1902POPC   C3A27749  25.435   6.027   7.993
 1902POPC   C4A27750  25.156   5.824   7.770
 1902POPC   C1B27751  25.579   5.556   8.791
 1902POPC   C2B27752  25.454   5.354   8.446
 1902POPC   C3B27753  25.401   5.502   8.051
 1902POPC   C4B27754  25.531   5.484   7.619
 1903POPC   NC327755  22.751  41.641   9.837
 1903POPC   PO427756  23.062  41.199   9.470
 1903POPC   GL127757  22.872  41.428   9.147
 1903POPC   GL227758  23.182  41.377   8.959
 1903POPC   C1A27759  22.768  41.596   8.718
 1903POPC   D2A27760  22.935  41.433   8.331
 1903POPC   C3A27761  22.784  41.607   7.929
 1903POPC   C4A27762  22.920  41.917   7.602
 1903POPC   C1B27763  23.225  41.065   8.625
 1903POPC   C2B27764  23.320  41.080   8.190
 1903POPC   C3B27765  23.205  41.344   7.858
 1903POPC   C4B27766  22.951  41.197   7.494
 1904POPC   NC327767  21.753  21.718   9.558
 1904POPC   PO427768  21.422  22.276   9.792
 1904POPC   GL127769  21.383  22.290   9.339
 1904POPC   GL227770  21.289  21.949   9.201
 1904POPC   C1A27771  21.417  22.332   8.869
 1904POPC   D2A27772  21.592  22.125   8.496
 1904POPC   C3A27773  21.537  22.300   8.074
 1904POPC   C4A27774  21.403  22.275   7.658
 1904POPC   C1B27775  21.098  21.950   8.771
 1904POPC   C2B27776  21.088  22.140   8.364
 1904POPC   C3B27777  21.108  21.986   7.955
 1904POPC   C4B27778  20.883  22.025   7.553
 1905POPC   NC327779  10.768  10.297   9.497
 1905POPC   PO427780  10.298  10.861   9.475
 1905POPC   GL127781  10.539  10.671   9.151
 1905POPC   GL227782  10.459  10.326   9.102
 1905POPC   C1A27783  10.640  10.699   8.708
 1905POPC   D2A27784  10.531  10.503   8.324
 1905POPC   C3A27785  10.470  10.656   7.912
 1905POPC   C4A27786  10.054  10.762   7.805
 1905POPC   C1B27787  10.807  10.221   8.814
 1905POPC   C2B27788  10.940  10.198   8.384
 1905POPC   C3B27789  10.690  10.153   7.986
 1905POPC   C4B27790  10.838  10.347   7.617
 1906POPC   NC327791  15.549   5.019   9.601
 1906POPC   PO427792  15.243   5.552   9.788
 1906POPC   GL127793  15.246   5.316   9.328
 1906POPC   GL227794  14.923   5.257   9.125
 1906POPC   C1A27795  15.375   5.092   8.917
 1906POPC   D2A27796  15.231   4.870   8.526
 1906POPC   C3A27797  15.249   5.204   8.211
 1906POPC   C4A27798  15.487   5.199   7.832
 1906POPC   C1B27799  14.845   5.195   8.645
 1906POPC   C2B27800  14.786   4.992   8.231
 1906POPC   C3B27801  14.991   5.005   7.799
 1906POPC   C4B27802  14.850   5.003   7.356
 1907POPC   NC327803  32.355   4.531   9.711
 1907POPC   PO427804  32.227   3.879   9.588
 1907POPC   GL127805  32.257   4.234   9.248
 1907POPC   GL227806  32.491   4.567   9.226
 1907POPC   C1A27807  32.175   4.181   8.769
 1907POPC   D2A27808  32.387   4.399   8.445
 1907POPC   C3A27809  32.246   4.239   8.063
 1907POPC   C4A27810  32.173   3.960   7.720
 1907POPC   C1B27811  32.145   4.650   8.941
 1907POPC   C2B27812  31.921   4.605   8.528
 1907POPC   C3B27813  31.936   4.663   8.077
 1907POPC   C4B27814  31.851   4.373   7.741
 1908POPC   NC327815  20.947  36.230   9.639
 1908POPC   PO427816  21.578  36.017   9.506
 1908POPC   GL127817  21.526  35.876   9.114
 1908POPC   GL227818  21.560  36.166   8.995
 1908POPC   C1A27819  21.568  35.747   8.683
 1908POPC   D2A27820  21.854  35.770   8.300
 1908POPC   C3A27821  21.610  36.012   7.990
 1908POPC   C4A27822  21.251  35.795   7.757
 1908POPC   C1B27823  21.410  36.472   8.743
 1908POPC   C2B27824  21.196  36.543   8.379
 1908POPC   C3B27825  21.384  36.490   8.047
 1908POPC   C4B27826  21.516  36.469   7.654
 1909POPC   NC327827  19.526  28.983   9.915
 1909POPC   PO427828  19.837  29.276   9.399
 1909POPC   GL127829  20.070  29.357   9.070
 1909POPC   GL227830  20.248  29.682   9.137
 1909POPC   C1A27831  19.903  29.278   8.646
 1909POPC   D2A27832  19.540  29.426   8.368
 1909POPC   C3A27833  19.568  29.364   7.931
 1909POPC   C4A27834  19.744  28.991   7.783
 1909POPC   C1B27835  20.114  29.754   8.714
 1909POPC   C2B27836  20.010  29.654   8.325
 1909POPC   C3B27837  20.038  29.270   8.133
 1909POPC   C4B27838  20.045  29.425   7.754
 1910POPC   NC327839  16.636  22.074   9.510
 1910POPC   PO427840  17.095  22.505   9.289
 1910POPC   GL127841  16.743  22.381   9.097
 1910POPC   GL227842  16.445  22.469   9.221
 1910POPC   C1A27843  16.714  22.399   8.681
 1910POPC   D2A27844  16.764  22.191   8.328
 1910POPC   C3A27845  17.164  22.201   8.133
 1910POPC   C4A27846  16.914  22.076   7.823
 1910POPC   C1B27847  16.308  22.155   8.868
 1910POPC   C2B27848  16.219  22.148   8.407
 1910POPC   C3B27849  16.408  22.172   7.952
 1910POPC   C4B27850  16.527  21.838   7.591
 1911POPC   NC327851  10.692   1.854   9.465
 1911POPC   PO427852  10.390   2.509   9.565
 1911POPC   GL127853  10.409   2.175   9.201
 1911POPC   GL227854  10.746   2.211   9.076
 1911POPC   C1A27855  10.500   1.901   8.790
 1911POPC   D2A27856  10.400   1.957   8.367
 1911POPC   C3A27857  10.638   1.778   8.051
 1911POPC   C4A27858  10.358   1.645   7.759
 1911POPC   C1B27859  10.883   2.331   8.676
 1911POPC   C2B27860  10.921   2.171   8.268
 1911POPC   C3B27861  10.801   2.283   7.868
 1911POPC   C4B27862  10.468   2.132   7.658
 1912POPC   NC327863   1.624  27.723   9.560
 1912POPC   PO427864   2.190  27.328   9.420
 1912POPC   GL127865   1.837  27.433   9.184
 1912POPC   GL227866   1.906  27.807   9.155
 1912POPC   C1A27867   1.773  27.460   8.739
 1912POPC   D2A27868   2.133  27.271   8.508
 1912POPC   C3A27869   2.152  27.316   8.055
 1912POPC   C4A27870   1.755  27.407   7.759
 1912POPC   C1B27871   2.099  27.860   8.767
 1912POPC   C2B27872   1.928  27.886   8.377
 1912POPC   C3B27873   2.027  27.798   7.953
 1912POPC   C4B27874   2.206  27.554   7.590
 1913POPC   NC327875  26.630  19.564   9.401
 1913POPC   PO427876  27.044  20.070   9.638
 1913POPC   GL127877  26.923  19.964   9.212
 1913POPC   GL227878  26.602  20.030   9.163
 1913POPC   C1A27879  26.944  19.814   8.758
 1913POPC   D2A27880  26.831  19.998   8.347
 1913POPC   C3A27881  26.789  19.735   7.998
 1913POPC   C4A27882  27.033  19.749   7.642
 1913POPC   C1B27883  26.525  20.107   8.776
 1913POPC   C2B27884  26.426  19.758   8.566
 1913POPC   C3B27885  26.307  19.871   8.217
 1913POPC   C4B27886  26.414  20.077   7.863
 1914POPC   NC327887  27.847   9.746   9.507
 1914POPC   PO427888  27.195   9.598   9.507
 1914POPC   GL127889  27.430   9.798   9.189
 1914POPC   GL227890  27.639   9.501   9.060
 1914POPC   C1A27891  27.323   9.886   8.772
 1914POPC   D2A27892  27.484   9.727   8.384
 1914POPC   C3A27893  27.318   9.784   7.996
 1914POPC   C4A27894  27.532   9.550   7.712
 1914POPC   C1B27895  27.838   9.817   8.756
 1914POPC   C2B27896  27.854  10.090   8.365
 1914POPC   C3B27897  27.818   9.933   7.928
 1914POPC   C4B27898  27.937   9.723   7.501
 1915POPC   NC327899  41.860  40.252   9.571
 1915POPC   PO427900  42.507  40.189   9.653
 1915POPC   GL127901  42.481  40.173   9.201
 1915POPC   GL227902  42.176  40.358   9.156
 1915POPC   C1A27903  42.422  39.950   8.780
 1915POPC   D2A27904  42.245  39.690   8.431
 1915POPC   C3A27905  42.404  39.853   8.042
 1915POPC   C4A27906  42.165  39.807   7.692
 1915POPC   C1B27907  42.015  40.290   8.730
 1915POPC   C2B27908  42.042  40.155   8.324
 1915POPC   C3B27909  41.842  40.088   7.973
 1915POPC   C4B27910  41.952  40.263   7.617
 1916POPC   NC327911  24.154   3.266   9.518
 1916POPC   PO427912  24.795   3.403   9.438
 1916POPC   GL127913  24.812   3.666   9.119
 1916POPC   GL227914  24.504   3.802   9.038
 1916POPC   C1A27915  24.900   3.467   8.727
 1916POPC   D2A27916  24.784   3.438   8.296
 1916POPC   C3A27917  24.799   3.541   7.870
 1916POPC   C4A27918  24.634   3.247   7.575
 1916POPC   C1B27919  24.394   3.589   8.695
 1916POPC   C2B27920  24.358   3.695   8.284
 1916POPC   C3B27921  24.291   3.446   7.935
 1916POPC   C4B27922  24.217   3.580   7.526
 1917POPC   NC327923  37.662  33.082   9.683
 1917POPC   PO427924  37.240  32.543   9.545
 1917POPC   GL127925  37.609  32.674   9.264
 1917POPC   GL227926  37.527  32.982   9.077
 1917POPC   C1A27927  37.877  32.713   8.856
 1917POPC   D2A27928  37.668  32.902   8.474
 1917POPC   C3A27929  37.831  32.789   8.046
 1917POPC   C4A27930  37.721  32.968   7.641
 1917POPC   C1B27931  37.322  33.228   8.740
 1917POPC   C2B27932  37.320  33.277   8.298
 1917POPC   C3B27933  37.339  32.968   7.990
 1917POPC   C4B27934  37.217  32.949   7.562
 1918POPC   NC327935  22.030  20.191   9.476
 1918POPC   PO427936  21.347  19.929   9.451
 1918POPC   GL127937  21.620  19.757   9.132
 1918POPC   GL227938  21.373  19.460   9.164
 1918POPC   C1A27939  21.750  19.871   8.711
 1918POPC   D2A27940  21.424  20.069   8.463
 1918POPC   C3A27941  21.539  20.147   8.047
 1918POPC   C4A27942  21.301  19.989   7.732
 1918POPC   C1B27943  21.290  19.632   8.772
 1918POPC   C2B27944  21.443  19.556   8.399
 1918POPC   C3B27945  21.367  19.547   7.999
 1918POPC   C4B27946  21.658  19.636   7.715
 1919POPC   NC327947  41.873   0.460   9.552
 1919POPC   PO427948  41.223   0.725   9.506
 1919POPC   GL127949  41.491   0.500   9.167
 1919POPC   GL227950  41.704   0.189   9.145
 1919POPC   C1A27951  41.720   0.552   8.770
 1919POPC   D2A27952  41.624   0.359   8.347
 1919POPC   C3A27953  41.592   0.549   7.919
 1919POPC   C4A27954  41.318   0.644   7.540
 1919POPC   C1B27955  42.008   0.128   8.750
 1919POPC   C2B27956  42.034   0.043   8.308
 1919POPC   C3B27957  41.845   0.029   7.870
 1919POPC   C4B27958  41.878   0.340   7.515
 1920POPC   NC327959  12.937   5.594   9.786
 1920POPC   PO427960  12.839   4.905   9.833
 1920POPC   GL127961  12.772   4.912   9.321
 1920POPC   GL227962  12.944   5.198   9.192
 1920POPC   C1A27963  12.807   4.813   8.874
 1920POPC   D2A27964  12.654   4.955   8.465
 1920POPC   C3A27965  12.907   4.820   8.142
 1920POPC   C4A27966  12.672   4.784   7.771
 1920POPC   C1B27967  12.669   5.302   8.829
 1920POPC   C2B27968  12.749   5.464   8.425
 1920POPC   C3B27969  12.750   5.289   8.005
 1920POPC   C4B27970  12.754   5.235   7.563
 1921POPC   NC327971  23.948  20.179   9.801
 1921POPC   PO427972  23.459  20.552   9.497
 1921POPC   GL127973  23.546  20.657   9.102
 1921POPC   GL227974  23.883  20.609   9.140
 1921POPC   C1A27975  23.702  20.459   8.698
 1921POPC   D2A27976  23.895  20.623   8.332
 1921POPC   C3A27977  23.687  20.466   8.011
 1921POPC   C4A27978  23.518  20.580   7.656
 1921POPC   C1B27979  23.857  20.931   8.794
 1921POPC   C2B27980  23.677  21.080   8.444
 1921POPC   C3B27981  23.859  21.069   8.040
 1921POPC   C4B27982  23.652  21.078   7.662
 1922POPC   NC327983  29.101   2.541   9.511
 1922POPC   PO427984  29.305   3.155   9.507
 1922POPC   GL127985  29.101   2.946   9.166
 1922POPC   GL227986  29.132   2.581   9.021
 1922POPC   C1A27987  29.086   3.008   8.751
 1922POPC   D2A27988  29.082   2.700   8.457
 1922POPC   C3A27989  29.340   2.761   8.140
 1922POPC   C4A27990  29.221   2.888   7.758
 1922POPC   C1B27991  29.091   2.266   8.731
 1922POPC   C2B27992  29.130   2.104   8.327
 1922POPC   C3B27993  29.048   2.366   7.996
 1922POPC   C4B27994  29.248   2.390   7.600
 1923POPC   NC327995  13.063  20.073   9.381
 1923POPC   PO427996  12.597  19.583   9.447
 1923POPC   GL127997  12.715  19.762   9.116
 1923POPC   GL227998  12.575  20.062   9.139
 1923POPC   C1A27999  12.711  19.682   8.719
 1923POPC   D2A28000  12.646  19.876   8.356
 1923POPC   C3A28001  12.962  19.691   8.140
 1923POPC   C4A28002  13.034  19.700   7.731
 1923POPC   C1B28003  12.751  20.231   8.751
 1923POPC   C2B28004  12.902  20.333   8.335
 1923POPC   C3B28005  12.803  20.151   7.936
 1923POPC   C4B28006  12.714  20.041   7.513
 1924POPC   NC328007  14.042  32.326   9.519
 1924POPC   PO428008  14.522  31.945   9.524
 1924POPC   GL128009  14.391  31.996   9.120
 1924POPC   GL228010  14.389  32.348   9.082
 1924POPC   C1A28011  14.323  32.034   8.665
 1924POPC   D2A28012  14.268  32.336   8.301
 1924POPC   C3A28013  14.249  32.166   7.878
 1924POPC   C4A28014  14.368  32.307   7.432
 1924POPC   C1B28015  14.637  32.438   8.685
 1924POPC   C2B28016  14.779  32.499   8.276
 1924POPC   C3B28017  14.517  32.597   7.907
 1924POPC   C4B28018  14.255  32.806   7.610
 1925POPC   NC328019  18.158   0.147   9.419
 1925POPC   PO428020  18.404  44.560   9.449
 1925POPC   GL128021  18.340  44.782   9.079
 1925POPC   GL228022  18.422   0.138   8.979
 1925POPC   C1A28023  18.260  44.627   8.672
 1925POPC   D2A28024  18.113  44.444   8.318
 1925POPC   C3A28025  18.473  44.456   8.048
 1925POPC   C4A28026  18.676  44.556   7.682
 1925POPC   C1B28027  17.988   0.052   8.783
 1925POPC   C2B28028  17.847  44.975   8.352
 1925POPC   C3B28029  18.110  44.849   8.031
 1925POPC   C4B28030  18.270  44.964   7.677
 1926POPC   NC328031   0.037  23.299   9.416
 1926POPC   PO428032  44.716  23.833   9.574
 1926POPC   GL128033  44.536  23.690   9.183
 1926POPC   GL228034  44.437  24.050   9.157
 1926POPC   C1A28035  44.559  23.536   8.728
 1926POPC   D2A28036  44.666  23.616   8.267
 1926POPC   C3A28037  44.709  23.340   7.875
 1926POPC   C4A28038  44.554  23.452   7.423
 1926POPC   C1B28039  44.740  24.022   8.841
 1926POPC   C2B28040  44.682  24.114   8.443
 1926POPC   C3B28041  44.734  24.082   8.026
 1926POPC   C4B28042  44.703  23.835   7.721
 1927POPC   NC328043  10.086   2.931   9.677
 1927POPC   PO428044   9.583   2.477   9.658
 1927POPC   GL128045   9.622   2.682   9.221
 1927POPC   GL228046   9.396   2.926   9.116
 1927POPC   C1A28047   9.765   2.638   8.788
 1927POPC   D2A28048   9.843   2.915   8.441
 1927POPC   C3A28049   9.908   2.795   8.015
 1927POPC   C4A28050  10.043   2.970   7.598
 1927POPC   C1B28051   9.477   3.114   8.761
 1927POPC   C2B28052   9.285   3.213   8.416
 1927POPC   C3B28053   9.468   3.130   8.008
 1927POPC   C4B28054   9.535   2.840   7.660
 1928POPC   NC328055   3.139  30.010   9.438
 1928POPC   PO428056   3.773  29.781   9.631
 1928POPC   GL128057   3.579  29.906   9.218
 1928POPC   GL228058   3.832  30.078   9.063
 1928POPC   C1A28059   3.372  30.131   8.810
 1928POPC   D2A28060   3.485  30.180   8.361
 1928POPC   C3A28061   3.195  30.016   8.014
 1928POPC   C4A28062   3.194  30.032   7.535
 1928POPC   C1B28063   3.687  29.746   8.747
 1928POPC   C2B28064   3.560  29.626   8.307
 1928POPC   C3B28065   3.655  29.804   7.904
 1928POPC   C4B28066   3.678  29.936   7.455
 1929POPC   NC328067  27.613  11.611   9.592
 1929POPC   PO428068  27.880  10.991   9.516
 1929POPC   GL128069  27.568  11.191   9.233
 1929POPC   GL228070  27.495  11.552   9.115
 1929POPC   C1A28071  27.530  11.182   8.785
 1929POPC   D2A28072  27.603  11.486   8.466
 1929POPC   C3A28073  27.810  11.345   8.108
 1929POPC   C4A28074  28.003  11.242   7.723
 1929POPC   C1B28075  27.174  11.587   8.793
 1929POPC   C2B28076  27.088  11.462   8.359
 1929POPC   C3B28077  27.108  11.623   7.924
 1929POPC   C4B28078  27.474  11.437   7.718
 1930POPC   NC328079  35.046  20.730   9.463
 1930POPC   PO428080  35.670  20.535   9.572
 1930POPC   GL128081  35.437  20.503   9.200
 1930POPC   GL228082  35.360  20.849   9.080
 1930POPC   C1A28083  35.410  20.437   8.774
 1930POPC   D2A28084  35.148  20.472   8.431
 1930POPC   C3A28085  35.357  20.354   8.072
 1930POPC   C4A28086  35.529  20.438   7.676
 1930POPC   C1B28087  35.203  20.930   8.672
 1930POPC   C2B28088  35.191  20.981   8.237
 1930POPC   C3B28089  35.229  20.855   7.814
 1930POPC   C4B28090  35.098  21.137   7.479
 1931POPC   NC328091  42.766  39.830   9.558
 1931POPC   PO428092  43.347  40.168   9.419
 1931POPC   GL128093  42.996  40.119   9.169
 1931POPC   GL228094  43.065  39.781   9.145
 1931POPC   C1A28095  42.969  40.057   8.723
 1931POPC   D2A28096  43.312  40.258   8.470
 1931POPC   C3A28097  43.225  40.101   8.069
 1931POPC   C4A28098  42.832  40.179   7.950
 1931POPC   C1B28099  42.753  39.570   8.904
 1931POPC   C2B28100  42.722  39.518   8.482
 1931POPC   C3B28101  42.745  39.438   8.048
 1931POPC   C4B28102  42.939  39.711   7.793
 1932POPC   NC328103   4.438  15.847   9.532
 1932POPC   PO428104   3.889  16.207   9.296
 1932POPC   GL128105   4.277  16.130   9.087
 1932POPC   GL228106   4.497  15.857   9.042
 1932POPC   C1A28107   4.311  16.056   8.625
 1932POPC   D2A28108   4.215  16.255   8.241
 1932POPC   C3A28109   4.212  15.903   7.973
 1932POPC   C4A28110   4.303  15.756   7.556
 1932POPC   C1B28111   4.765  15.802   8.697
 1932POPC   C2B28112   4.611  15.779   8.281
 1932POPC   C3B28113   4.702  15.757   7.857
 1932POPC   C4B28114   4.833  15.662   7.461
 1933POPC   NC328115  24.153  31.268   9.557
 1933POPC   PO428116  23.604  31.612   9.385
 1933POPC   GL128117  23.577  31.246   9.190
 1933POPC   GL228118  23.902  31.259   9.101
 1933POPC   C1A28119  23.447  31.263   8.774
 1933POPC   D2A28120  23.670  31.298   8.414
 1933POPC   C3A28121  23.511  31.456   8.077
 1933POPC   C4A28122  23.323  31.319   7.711
 1933POPC   C1B28123  24.138  31.264   8.741
 1933POPC   C2B28124  24.156  31.431   8.377
 1933POPC   C3B28125  24.111  31.366   7.997
 1933POPC   C4B28126  23.831  31.400   7.672
 1934POPC   NC328127  19.514  15.836   9.516
 1934POPC   PO428128  20.036  16.286   9.611
 1934POPC   GL128129  20.175  16.036   9.224
 1934POPC   GL228130  19.872  15.862   9.136
 1934POPC   C1A28131  20.139  16.107   8.765
 1934POPC   D2A28132  19.875  15.872   8.468
 1934POPC   C3A28133  20.049  15.905   8.052
 1934POPC   C4A28134  19.839  16.024   7.662
 1934POPC   C1B28135  19.519  15.740   8.858
 1934POPC   C2B28136  19.384  15.729   8.435
 1934POPC   C3B28137  19.552  15.795   8.024
 1934POPC   C4B28138  19.344  15.875   7.622
 1935POPC   NC328139  21.002  13.025   9.423
 1935POPC   PO428140  21.585  12.699   9.542
 1935POPC   GL128141  21.410  12.851   9.152
 1935POPC   GL228142  21.343  12.571   8.942
 1935POPC   C1A28143  21.266  13.009   8.729
 1935POPC   D2A28144  21.425  12.909   8.340
 1935POPC   C3A28145  21.445  13.262   8.104
 1935POPC   C4A28146  21.505  13.273   7.695
 1935POPC   C1B28147  20.942  12.627   8.651
 1935POPC   C2B28148  20.774  12.570   8.291
 1935POPC   C3B28149  21.122  12.590   8.043
 1935POPC   C4B28150  21.460  12.771   7.817
 1936POPC   NC328151  41.017   9.478   9.465
 1936POPC   PO428152  40.646   9.985   9.717
 1936POPC   GL128153  40.662   9.853   9.274
 1936POPC   GL228154  40.433  10.096   9.159
 1936POPC   C1A28155  40.850   9.613   8.880
 1936POPC   D2A28156  40.734   9.577   8.447
 1936POPC   C3A28157  41.044   9.522   8.109
 1936POPC   C4A28158  40.895   9.550   7.674
 1936POPC   C1B28159  40.580  10.003   8.743
 1936POPC   C2B28160  40.441  10.008   8.326
 1936POPC   C3B28161  40.700   9.890   8.023
 1936POPC   C4B28162  40.894  10.078   7.710
 1937POPC   NC328163  18.590  14.427   9.302
 1937POPC   PO428164  19.158  14.170   9.467
 1937POPC   GL128165  19.109  14.347   9.078
 1937POPC   GL228166  19.331  14.621   9.083
 1937POPC   C1A28167  19.186  14.369   8.636
 1937POPC   D2A28168  19.045  14.151   8.234
 1937POPC   C3A28169  19.220  14.187   7.794
 1937POPC   C4A28170  19.005  14.183   7.354
 1937POPC   C1B28171  19.010  14.817   8.819
 1937POPC   C2B28172  18.875  14.690   8.407
 1937POPC   C3B28173  19.080  14.641   8.026
 1937POPC   C4B28174  18.936  14.601   7.623
 1938POPC   NC328175  12.862  28.777   9.465
 1938POPC   PO428176  12.600  28.182   9.488
 1938POPC   GL128177  12.673  28.424   9.120
 1938POPC   GL228178  13.051  28.425   9.153
 1938POPC   C1A28179  12.583  28.393   8.673
 1938POPC   D2A28180  12.379  28.502   8.280
 1938POPC   C3A28181  12.643  28.407   7.918
 1938POPC   C4A28182  13.019  28.167   7.831
 1938POPC   C1B28183  13.017  28.634   8.780
 1938POPC   C2B28184  13.119  28.512   8.361
 1938POPC   C3B28185  13.074  28.709   7.985
 1938POPC   C4B28186  12.989  28.640   7.566
 1939POPC   NC328187   4.890  39.665   9.559
 1939POPC   PO428188   4.906  40.317   9.578
 1939POPC   GL128189   4.942  40.266   9.144
 1939POPC   GL228190   4.983  39.899   9.111
 1939POPC   C1A28191   5.110  40.175   8.716
 1939POPC   D2A28192   5.348  40.161   8.332
 1939POPC   C3A28193   5.051  40.086   8.016
 1939POPC   C4A28194   4.769  40.286   7.743
 1939POPC   C1B28195   5.280  39.697   8.792
 1939POPC   C2B28196   5.331  39.478   8.409
 1939POPC   C3B28197   5.252  39.591   7.970
 1939POPC   C4B28198   5.164  39.818   7.597
 1940POPC   NC328199   6.735  15.285   9.595
 1940POPC   PO428200   7.226  14.880   9.312
 1940POPC   GL128201   6.761  14.896   9.184
 1940POPC   GL228202   6.826  15.221   9.101
 1940POPC   C1A28203   6.455  15.049   8.826
 1940POPC   D2A28204   6.298  15.017   8.384
 1940POPC   C3A28205   6.506  15.115   7.948
 1940POPC   C4A28206   6.373  15.297   7.526
 1940POPC   C1B28207   6.940  14.973   8.724
 1940POPC   C2B28208   6.783  15.129   8.384
 1940POPC   C3B28209   6.906  15.451   8.128
 1940POPC   C4B28210   7.142  15.260   7.828
 1941POPC   NC328211  42.083  30.016   9.496
 1941POPC   PO428212  42.749  29.781   9.546
 1941POPC   GL128213  42.612  29.946   9.191
 1941POPC   GL228214  42.319  29.722   9.134
 1941POPC   C1A28215  42.620  29.959   8.772
 1941POPC   D2A28216  42.370  29.729   8.493
 1941POPC   C3A28217  42.494  29.813   8.120
 1941POPC   C4A28218  42.678  29.977   7.770
 1941POPC   C1B28219  42.129  30.008   8.855
 1941POPC   C2B28220  42.237  30.210   8.481
 1941POPC   C3B28221  42.197  30.212   8.060
 1941POPC   C4B28222  42.184  30.007   7.682
 1942POPC   NC328223   4.061  36.402   9.418
 1942POPC   PO428224   3.825  35.931   9.227
 1942POPC   GL128225   4.069  36.206   8.933
 1942POPC   GL228226   4.421  36.287   9.058
 1942POPC   C1A28227   4.040  36.223   8.476
 1942POPC   D2A28228   4.309  36.327   8.135
 1942POPC   C3A28229   4.179  36.338   7.704
 1942POPC   C4A28230   3.799  36.346   7.473
 1942POPC   C1B28231   4.557  36.234   8.623
 1942POPC   C2B28232   4.711  36.030   8.241
 1942POPC   C3B28233   4.584  36.027   7.794
 1942POPC   C4B28234   4.621  35.999   7.332
 1943POPC   NC328235  11.053  29.694   9.419
 1943POPC   PO428236  10.545  30.065   9.649
 1943POPC   GL128237  10.555  29.974   9.215
 1943POPC   GL228238  10.580  29.604   9.198
 1943POPC   C1A28239  10.332  30.159   8.836
 1943POPC   D2A28240  10.097  30.158   8.449
 1943POPC   C3A28241  10.379  29.971   8.123
 1943POPC   C4A28242  10.302  30.047   7.684
 1943POPC   C1B28243  10.731  29.783   8.792
 1943POPC   C2B28244  10.854  29.896   8.389
 1943POPC   C3B28245  10.907  29.638   8.044
 1943POPC   C4B28246  10.766  29.869   7.709
 1944POPC   NC328247  11.473  21.663   9.682
 1944POPC   PO428248  11.096  22.244   9.609
 1944POPC   GL128249  11.416  22.175   9.334
 1944POPC   GL228250  11.149  22.245   9.094
 1944POPC   C1A28251  11.608  22.169   8.937
 1944POPC   D2A28252  11.370  22.077   8.575
 1944POPC   C3A28253  11.489  22.143   8.139
 1944POPC   C4A28254  11.341  21.942   7.782
 1944POPC   C1B28255  11.070  22.486   8.724
 1944POPC   C2B28256  11.085  22.466   8.277
 1944POPC   C3B28257  11.160  22.410   7.852
 1944POPC   C4B28258  11.092  22.688   7.585
 1945POPC   NC328259  27.719  14.436   9.763
 1945POPC   PO428260  27.634  14.241   9.095
 1945POPC   GL128261  27.542  14.580   8.909
 1945POPC   GL228262  27.352  14.823   9.040
 1945POPC   C1A28263  27.752  14.617   8.549
 1945POPC   D2A28264  27.591  14.201   8.433
 1945POPC   C3A28265  27.799  14.115   8.097
 1945POPC   C4A28266  27.722  14.376   7.784
 1945POPC   C1B28267  27.264  14.791   8.558
 1945POPC   C2B28268  27.421  14.642   8.165
 1945POPC   C3B28269  27.289  14.599   7.788
 1945POPC   C4B28270  27.369  14.859   7.406
 1946POPC   NC328271   8.854   0.173   9.527
 1946POPC   PO428272   8.861   0.834   9.684
 1946POPC   GL128273   8.990   0.761   9.256
 1946POPC   GL228274   9.077   0.418   9.094
 1946POPC   C1A28275   8.959   0.852   8.815
 1946POPC   D2A28276   9.213   0.685   8.469
 1946POPC   C3A28277   8.977   0.485   8.160
 1946POPC   C4A28278   8.889   0.455   7.735
 1946POPC   C1B28279   9.272   0.209   8.692
 1946POPC   C2B28280   9.336   0.113   8.262
 1946POPC   C3B28281   9.338   0.264   7.863
 1946POPC   C4B28282   9.292   0.229   7.440
 1947POPC   NC328283  40.307  36.574   9.459
 1947POPC   PO428284  40.888  36.760   9.557
 1947POPC   GL128285  40.919  36.920   9.153
 1947POPC   GL228286  40.579  36.978   9.167
 1947POPC   C1A28287  40.733  36.811   8.738
 1947POPC   D2A28288  40.874  36.750   8.354
 1947POPC   C3A28289  40.580  36.752   8.061
 1947POPC   C4A28290  40.829  36.963   7.789
 1947POPC   C1B28291  40.409  37.198   8.832
 1947POPC   C2B28292  40.517  37.140   8.421
 1947POPC   C3B28293  40.560  37.279   8.047
 1947POPC   C4B28294  40.438  37.462   7.684
 1948POPC   NC328295  44.785  36.445   9.953
 1948POPC   PO428296  44.811  36.041   9.444
 1948POPC   GL128297  44.597  35.796   9.150
 1948POPC   GL228298  44.866  35.685   8.972
 1948POPC   C1A28299  44.398  35.857   8.743
 1948POPC   D2A28300  44.558  35.881   8.327
 1948POPC   C3A28301  44.361  36.157   8.001
 1948POPC   C4A28302  44.431  36.187   7.547
 1948POPC   C1B28303  44.869  36.102   8.767
 1948POPC   C2B28304  44.738  36.344   8.404
 1948POPC   C3B28305  44.863  36.255   7.972
 1948POPC   C4B28306  44.800  36.520   7.647
 1949POPC   NC328307  30.251   8.815   9.483
 1949POPC   PO428308  29.582   8.747   9.381
 1949POPC   GL128309  29.943   8.756   9.064
 1949POPC   GL228310  30.351   8.680   9.028
 1949POPC   C1A28311  30.030   9.112   8.788
 1949POPC   D2A28312  29.785   9.269   8.412
 1949POPC   C3A28313  29.840   9.121   7.969
 1949POPC   C4A28314  29.602   9.171   7.546
 1949POPC   C1B28315  30.229   8.680   8.655
 1949POPC   C2B28316  30.243   8.951   8.312
 1949POPC   C3B28317  30.267   8.773   7.916
 1949POPC   C4B28318  29.906   8.715   7.694
 1950POPC   NC328319  33.725  14.170   9.441
 1950POPC   PO428320  33.830  14.807   9.268
 1950POPC   GL128321  33.562  14.527   9.037
 1950POPC   GL228322  33.395  14.193   9.068
 1950POPC   C1A28323  33.725  14.474   8.632
 1950POPC   D2A28324  34.109  14.386   8.346
 1950POPC   C3A28325  34.122  14.713   8.012
 1950POPC   C4A28326  33.940  14.739   7.602
 1950POPC   C1B28327  33.470  14.019   8.709
 1950POPC   C2B28328  33.680  14.093   8.323
 1950POPC   C3B28329  33.747  14.354   7.960
 1950POPC   C4B28330  33.651  14.226   7.541
 1951POPC   NC328331  42.510  15.650   9.505
 1951POPC   PO428332  41.988  16.028   9.498
 1951POPC   GL128333  42.170  15.833   9.128
 1951POPC   GL228334  42.513  15.974   9.077
 1951POPC   C1A28335  42.369  15.595   8.780
 1951POPC   D2A28336  42.263  15.417   8.420
 1951POPC   C3A28337  42.202  15.758   8.149
 1951POPC   C4A28338  42.085  15.884   7.753
 1951POPC   C1B28339  42.383  16.084   8.615
 1951POPC   C2B28340  42.428  16.232   8.160
 1951POPC   C3B28341  42.438  16.328   7.691
 1951POPC   C4B28342  42.535  16.363   7.216
 1952POPC   NC328343   4.105  31.135   9.953
 1952POPC   PO428344   4.084  31.098   9.314
 1952POPC   GL128345   4.329  31.335   9.043
 1952POPC   GL228346   4.193  31.681   9.043
 1952POPC   C1A28347   4.453  31.283   8.618
 1952POPC   D2A28348   4.379  31.588   8.283
 1952POPC   C3A28349   4.354  31.387   7.896
 1952POPC   C4A28350   4.647  31.043   7.858
 1952POPC   C1B28351   4.005  31.527   8.671
 1952POPC   C2B28352   3.877  31.629   8.260
 1952POPC   C3B28353   4.034  31.815   7.886
 1952POPC   C4B28354   4.272  31.705   7.486
 1953POPC   NC328355  21.580  17.212   9.765
 1953POPC   PO428356  21.414  17.697   9.260
 1953POPC   GL128357  21.682  17.619   9.032
 1953POPC   GL228358  21.548  17.354   8.835
 1953POPC   C1A28359  21.677  17.801   8.663
 1953POPC   D2A28360  21.327  17.717   8.424
 1953POPC   C3A28361  21.509  17.537   8.092
 1953POPC   C4A28362  21.635  17.778   7.734
 1953POPC   C1B28363  21.091  17.369   8.749
 1953POPC   C2B28364  20.829  17.454   8.416
 1953POPC   C3B28365  20.973  17.650   8.041
 1953POPC   C4B28366  21.203  17.438   7.715
 1954POPC   NC328367  30.852  12.800   9.466
 1954POPC   PO428368  30.446  13.322   9.507
 1954POPC   GL128369  30.763  13.206   9.174
 1954POPC   GL228370  30.588  12.861   9.042
 1954POPC   C1A28371  30.965  13.058   8.778
 1954POPC   D2A28372  30.653  12.847   8.504
 1954POPC   C3A28373  30.716  12.740   8.091
 1954POPC   C4A28374  30.827  12.815   7.676
 1954POPC   C1B28375  30.431  12.485   8.775
 1954POPC   C2B28376  30.208  12.484   8.394
 1954POPC   C3B28377  30.231  12.606   7.989
 1954POPC   C4B28378  30.547  12.379   7.746
 1955POPC   NC328379  24.229  23.478   9.528
 1955POPC   PO428380  24.862  23.720   9.711
 1955POPC   GL128381  24.697  23.624   9.264
 1955POPC   GL228382  24.430  23.809   9.161
 1955POPC   C1A28383  24.779  23.646   8.833
 1955POPC   D2A28384  24.512  23.629   8.515
 1955POPC   C3A28385  24.487  23.909   8.210
 1955POPC   C4A28386  24.540  23.863   7.779
 1955POPC   C1B28387  24.147  23.772   8.835
 1955POPC   C2B28388  24.007  23.733   8.409
 1955POPC   C3B28389  24.088  23.568   7.979
 1955POPC   C4B28390  24.152  23.628   7.538
 1956POPC   NC328391  35.510  13.818   9.392
 1956POPC   PO428392  35.000  13.465   9.407
 1956POPC   GL128393  35.215  13.402   9.040
 1956POPC   GL228394  35.551  13.372   9.091
 1956POPC   C1A28395  35.346  13.567   8.662
 1956POPC   D2A28396  35.305  13.535   8.242
 1956POPC   C3A28397  35.279  13.931   8.046
 1956POPC   C4A28398  35.225  13.704   7.694
 1956POPC   C1B28399  35.660  13.156   8.690
 1956POPC   C2B28400  35.779  13.267   8.245
 1956POPC   C3B28401  35.531  13.263   7.853
 1956POPC   C4B28402  35.654  13.426   7.479
 1957POPC   NC328403  41.115  24.966   9.349
 1957POPC   PO428404  40.542  25.388   9.499
 1957POPC   GL128405  40.673  25.273   9.115
 1957POPC   GL228406  40.977  25.400   9.098
 1957POPC   C1A28407  40.619  25.283   8.664
 1957POPC   D2A28408  40.462  24.945   8.378
 1957POPC   C3A28409  40.735  24.994   8.014
 1957POPC   C4A28410  40.664  25.444   7.886
 1957POPC   C1B28411  41.120  25.332   8.683
 1957POPC   C2B28412  41.027  25.368   8.241
 1957POPC   C3B28413  41.161  25.498   7.805
 1957POPC   C4B28414  41.144  25.574   7.316
 1958POPC   NC328415  34.061  25.383   9.618
 1958POPC   PO428416  33.693  24.770   9.696
 1958POPC   GL128417  33.739  25.096   9.319
 1958POPC   GL228418  34.046  25.147   9.142
 1958POPC   C1A28419  33.612  25.264   8.903
 1958POPC   D2A28420  33.509  25.287   8.450
 1958POPC   C3A28421  33.720  25.308   8.038
 1958POPC   C4A28422  33.790  25.207   7.598
 1958POPC   C1B28423  34.101  25.344   8.754
 1958POPC   C2B28424  34.049  25.541   8.356
 1958POPC   C3B28425  34.213  25.453   7.914
 1958POPC   C4B28426  34.275  25.358   7.474
 1959POPC   NC328427  36.178  24.597   9.506
 1959POPC   PO428428  35.640  24.075   9.523
 1959POPC   GL128429  35.898  24.345   9.174
 1959POPC   GL228430  36.276  24.381   9.054
 1959POPC   C1A28431  35.890  24.624   8.777
 1959POPC   D2A28432  36.213  24.711   8.437
 1959POPC   C3A28433  36.174  24.657   8.000
 1959POPC   C4A28434  35.862  24.695   7.705
 1959POPC   C1B28435  36.213  24.256   8.638
 1959POPC   C2B28436  35.891  24.289   8.341
 1959POPC   C3B28437  35.931  24.207   7.927
 1959POPC   C4B28438  36.331  24.047   7.771
 1960POPC   NC328439  14.837  18.956   9.460
 1960POPC   PO428440  14.203  19.261   9.547
 1960POPC   GL128441  14.397  19.074   9.199
 1960POPC   GL228442  14.705  19.275   9.091
 1960POPC   C1A28443  14.358  18.802   8.839
 1960POPC   D2A28444  14.581  18.821   8.466
 1960POPC   C3A28445  14.288  18.815   8.142
 1960POPC   C4A28446  14.216  18.973   7.762
 1960POPC   C1B28447  14.468  19.318   8.727
 1960POPC   C2B28448  14.575  19.439   8.311
 1960POPC   C3B28449  14.540  19.375   7.877
 1960POPC   C4B28450  14.498  19.297   7.458
 1961POPC   NC328451  38.148   8.155   9.271
 1961POPC   PO428452  38.659   8.442   9.636
 1961POPC   GL128453  38.699   8.352   9.217
 1961POPC   GL228454  38.432   8.591   9.155
 1961POPC   C1A28455  38.634   8.103   8.827
 1961POPC   D2A28456  38.317   8.115   8.489
 1961POPC   C3A28457  38.459   8.144   8.049
 1961POPC   C4A28458  38.636   8.373   7.709
 1961POPC   C1B28459  38.321   8.611   8.727
 1961POPC   C2B28460  38.337   8.606   8.291
 1961POPC   C3B28461  38.199   8.599   7.857
 1961POPC   C4B28462  38.208   8.436   7.418
 1962POPC   NC328463  41.616  37.779   9.460
 1962POPC   PO428464  41.223  37.265   9.459
 1962POPC   GL128465  41.518  37.306   9.130
 1962POPC   GL228466  41.867  37.508   9.109
 1962POPC   C1A28467  41.505  37.435   8.729
 1962POPC   D2A28468  41.727  37.587   8.398
 1962POPC   C3A28469  41.578  37.439   8.031
 1962POPC   C4A28470  41.384  37.791   7.802
 1962POPC   C1B28471  41.991  37.834   8.795
 1962POPC   C2B28472  41.966  38.037   8.354
 1962POPC   C3B28473  41.887  37.875   7.980
 1962POPC   C4B28474  41.901  37.605   7.659
 1963POPC   NC328475  26.088  26.570   9.945
 1963POPC   PO428476  25.726  26.795   9.382
 1963POPC   GL128477  25.961  26.693   9.029
 1963POPC   GL228478  25.733  26.506   8.822
 1963POPC   C1A28479  25.989  26.901   8.630
 1963POPC   D2A28480  25.753  26.970   8.268
 1963POPC   C3A28481  26.047  27.066   7.956
 1963POPC   C4A28482  26.228  27.020   7.559
 1963POPC   C1B28483  26.077  26.391   8.554
 1963POPC   C2B28484  26.221  26.638   8.218
 1963POPC   C3B28485  26.112  26.582   7.798
 1963POPC   C4B28486  25.828  26.702   7.506
 1964POPC   NC328487  24.298  39.581   9.514
 1964POPC   PO428488  24.442  40.221   9.435
 1964POPC   GL128489  24.744  40.163   9.098
 1964POPC   GL228490  24.721  39.790   9.207
 1964POPC   C1A28491  24.672  40.176   8.625
 1964POPC   D2A28492  24.313  40.159   8.372
 1964POPC   C3A28493  24.423  40.323   7.980
 1964POPC   C4A28494  24.755  40.223   7.686
 1964POPC   C1B28495  24.451  39.758   8.857
 1964POPC   C2B28496  24.608  39.695   8.452
 1964POPC   C3B28497  24.627  39.872   8.079
 1964POPC   C4B28498  24.527  39.796   7.666
 1965POPC   NC328499  14.053   6.301   9.308
 1965POPC   PO428500  14.669   6.314   9.552
 1965POPC   GL128501  14.531   6.439   9.118
 1965POPC   GL228502  14.857   6.454   8.911
 1965POPC   C1A28503  14.454   6.695   8.724
 1965POPC   D2A28504  14.235   6.783   8.295
 1965POPC   C3A28505  14.262   6.507   7.914
 1965POPC   C4A28506  14.342   6.257   7.506
 1965POPC   C1B28507  14.579   6.192   8.687
 1965POPC   C2B28508  14.477   6.265   8.300
 1965POPC   C3B28509  14.733   6.341   7.952
 1965POPC   C4B28510  14.850   6.257   7.546
 1966POPC   NC328511  19.084   4.114   9.451
 1966POPC   PO428512  19.359   4.801   9.656
 1966POPC   GL128513  19.308   4.551   9.269
 1966POPC   GL228514  19.051   4.666   9.031
 1966POPC   C1A28515  19.485   4.430   8.862
 1966POPC   D2A28516  19.463   4.486   8.431
 1966POPC   C3A28517  19.100   4.440   8.109
 1966POPC   C4A28518  18.975   4.351   7.672
 1966POPC   C1B28519  18.984   4.298   8.764
 1966POPC   C2B28520  18.801   4.097   8.404
 1966POPC   C3B28521  18.691   4.041   7.993
 1966POPC   C4B28522  18.564   4.069   7.528
 1967POPC   NC328523   3.680  18.497   9.466
 1967POPC   PO428524   3.808  17.803   9.506
 1967POPC   GL128525   3.521  17.986   9.133
 1967POPC   GL228526   3.540  18.319   8.997
 1967POPC   C1A28527   3.305  17.989   8.703
 1967POPC   D2A28528   3.532  18.274   8.469
 1967POPC   C3A28529   3.569  18.242   8.064
 1967POPC   C4A28530   3.452  17.976   7.785
 1967POPC   C1B28531   3.525  18.682   8.772
 1967POPC   C2B28532   3.540  18.774   8.356
 1967POPC   C3B28533   3.874  18.648   8.138
 1967POPC   C4B28534   3.780  18.577   7.714
 1968POPC   NC328535  23.503  35.624   9.447
 1968POPC   PO428536  23.634  35.031   9.501
 1968POPC   GL128537  23.857  35.170   9.156
 1968POPC   GL228538  24.033  35.465   9.256
 1968POPC   C1A28539  23.652  35.415   8.839
 1968POPC   D2A28540  23.388  35.657   8.571
 1968POPC   C3A28541  23.360  35.350   8.261
 1968POPC   C4A28542  23.478  35.145   7.877
 1968POPC   C1B28543  24.185  35.428   8.849
 1968POPC   C2B28544  24.010  35.472   8.467
 1968POPC   C3B28545  23.924  35.229   8.137
 1968POPC   C4B28546  23.925  35.349   7.742
 1969POPC   NC328547  14.156  21.971   9.356
 1969POPC   PO428548  13.483  22.061   9.368
 1969POPC   GL128549  13.746  22.051   9.044
 1969POPC   GL228550  13.885  22.386   9.147
 1969POPC   C1A28551  13.569  21.917   8.650
 1969POPC   D2A28552  13.277  22.009   8.297
 1969POPC   C3A28553  13.483  22.148   7.914
 1969POPC   C4A28554  13.793  22.021   7.557
 1969POPC   C1B28555  13.646  22.457   8.764
 1969POPC   C2B28556  13.720  22.314   8.347
 1969POPC   C3B28557  13.958  22.284   7.955
 1969POPC   C4B28558  13.985  22.501   7.594
 1970POPC   NC328559  44.353  42.715   9.278
 1970POPC   PO428560  44.688  42.254   9.641
 1970POPC   GL128561  44.716  42.290   9.193
 1970POPC   GL228562  44.996  42.543   9.154
 1970POPC   C1A28563  44.812  42.140   8.768
 1970POPC   D2A28564   0.104  42.319   8.463
 1970POPC   C3A28565  44.931  42.265   8.060
 1970POPC   C4A28566  44.551  42.152   7.840
 1970POPC   C1B28567  44.794  42.624   8.746
 1970POPC   C2B28568  44.566  42.469   8.386
 1970POPC   C3B28569  44.324  42.572   8.031
 1970POPC   C4B28570  44.678  42.649   7.816
 1971POPC   NC328571  17.023   6.767   9.581
 1971POPC   PO428572  16.430   6.405   9.704
 1971POPC   GL128573  16.423   6.621   9.260
 1971POPC   GL228574  16.755   6.759   9.148
 1971POPC   C1A28575  16.364   6.684   8.776
 1971POPC   D2A28576  16.358   6.411   8.373
 1971POPC   C3A28577  16.378   6.645   7.961
 1971POPC   C4A28578  16.370   6.917   7.582
 1971POPC   C1B28579  16.870   6.567   8.760
 1971POPC   C2B28580  16.787   6.684   8.337
 1971POPC   C3B28581  16.901   6.589   7.930
 1971POPC   C4B28582  16.845   6.734   7.508
 1972POPC   NC328583  33.419  26.089   9.646
 1972POPC   PO428584  32.750  26.247   9.545
 1972POPC   GL128585  33.070  26.129   9.231
 1972POPC   GL228586  33.365  25.884   9.173
 1972POPC   C1A28587  32.966  26.030   8.812
 1972POPC   D2A28588  32.750  25.989   8.422
 1972POPC   C3A28589  32.967  26.014   8.074
 1972POPC   C4A28590  33.064  26.123   7.682
 1972POPC   C1B28591  33.309  25.664   8.774
 1972POPC   C2B28592  33.133  25.621   8.350
 1972POPC   C3B28593  33.353  25.728   7.920
 1972POPC   C4B28594  33.330  25.715   7.442
 1973POPC   NC328595  29.780  17.930   9.502
 1973POPC   PO428596  29.927  18.616   9.480
 1973POPC   GL128597  30.034  18.443   9.061
 1973POPC   GL228598  30.097  18.093   9.073
 1973POPC   C1A28599  29.857  18.397   8.660
 1973POPC   D2A28600  29.724  18.282   8.234
 1973POPC   C3A28601  30.042  18.250   7.887
 1973POPC   C4A28602  30.110  18.547   7.501
 1973POPC   C1B28603  29.734  17.931   8.834
 1973POPC   C2B28604  29.397  17.975   8.558
 1973POPC   C3B28605  29.330  17.971   8.132
 1973POPC   C4B28606  29.590  18.039   7.753
 1974POPC   NC328607   2.882   6.148   9.311
 1974POPC   PO428608   2.378   5.702   9.653
 1974POPC   GL128609   2.489   5.555   9.182
 1974POPC   GL228610   2.808   5.679   9.127
 1974POPC   C1A28611   2.538   5.718   8.701
 1974POPC   D2A28612   2.641   6.149   8.477
 1974POPC   C3A28613   2.967   6.156   8.143
 1974POPC   C4A28614   3.016   6.034   7.707
 1974POPC   C1B28615   3.042   5.542   8.806
 1974POPC   C2B28616   2.990   5.670   8.408
 1974POPC   C3B28617   2.848   5.536   8.015
 1974POPC   C4B28618   2.949   5.535   7.601
 1975POPC   NC328619   1.335  21.235   9.574
 1975POPC   PO428620   1.411  21.852   9.383
 1975POPC   GL128621   1.264  21.508   9.111
 1975POPC   GL228622   1.466  21.147   9.107
 1975POPC   C1A28623   1.075  21.586   8.687
 1975POPC   D2A28624   0.787  21.504   8.304
 1975POPC   C3A28625   0.960  21.410   7.925
 1975POPC   C4A28626   1.213  21.302   7.564
 1975POPC   C1B28627   1.157  21.093   8.816
 1975POPC   C2B28628   1.098  21.112   8.379
 1975POPC   C3B28629   1.324  21.068   8.031
 1975POPC   C4B28630   1.651  21.085   7.778
 1976POPC   NC328631  30.304   7.284   9.594
 1976POPC   PO428632  30.870   7.745   9.501
 1976POPC   GL128633  30.705   7.657   9.138
 1976POPC   GL228634  30.675   7.300   9.180
 1976POPC   C1A28635  30.840   7.746   8.727
 1976POPC   D2A28636  30.838   7.515   8.367
 1976POPC   C3A28637  30.625   7.639   8.005
 1976POPC   C4A28638  30.409   7.541   7.648
 1976POPC   C1B28639  30.485   7.348   8.769
 1976POPC   C2B28640  30.399   7.232   8.371
 1976POPC   C3B28641  30.707   7.076   8.106
 1976POPC   C4B28642  30.643   7.075   7.689
 1977POPC   NC328643  20.852  32.521   9.416
 1977POPC   PO428644  20.775  31.854   9.294
 1977POPC   GL128645  20.517  32.144   9.038
 1977POPC   GL228646  20.623  32.503   8.952
 1977POPC   C1A28647  20.357  32.090   8.596
 1977POPC   D2A28648  20.320  31.972   8.140
 1977POPC   C3A28649  20.669  31.920   7.843
 1977POPC   C4A28650  20.655  31.912   7.336
 1977POPC   C1B28651  21.012  32.612   8.730
 1977POPC   C2B28652  21.161  32.416   8.361
 1977POPC   C3B28653  21.065  32.274   7.957
 1977POPC   C4B28654  20.818  32.346   7.591
 1978POPC   NC328655   3.154  23.032   9.447
 1978POPC   PO428656   3.758  22.796   9.425
 1978POPC   GL128657   3.440  22.777   9.127
 1978POPC   GL228658   3.677  22.681   8.899
 1978POPC   C1A28659   3.321  23.009   8.758
 1978POPC   D2A28660   3.720  23.075   8.502
 1978POPC   C3A28661   3.608  22.997   8.092
 1978POPC   C4A28662   3.303  23.017   7.797
 1978POPC   C1B28663   3.906  22.585   8.549
 1978POPC   C2B28664   3.913  22.576   8.119
 1978POPC   C3B28665   3.656  22.583   7.756
 1978POPC   C4B28666   3.757  22.592   7.253
 1979POPC   NC328667   4.151  41.191   9.868
 1979POPC   PO428668   4.411  41.743   9.534
 1979POPC   GL128669   4.522  41.512   9.178
 1979POPC   GL228670   4.164  41.437   9.144
 1979POPC   C1A28671   4.497  41.459   8.747
 1979POPC   D2A28672   4.183  41.464   8.481
 1979POPC   C3A28673   4.373  41.412   8.123
 1979POPC   C4A28674   4.535  41.293   7.759
 1979POPC   C1B28675   3.976  41.769   8.895
 1979POPC   C2B28676   3.988  41.949   8.481
 1979POPC   C3B28677   3.935  41.739   8.091
 1979POPC   C4B28678   4.134  41.603   7.708
 1980POPC   NC328679   7.483   7.514   9.489
 1980POPC   PO428680   7.079   7.025   9.367
 1980POPC   GL128681   7.267   7.304   9.045
 1980POPC   GL228682   7.195   7.666   9.121
 1980POPC   C1A28683   7.586   7.341   8.703
 1980POPC   D2A28684   7.599   7.485   8.269
 1980POPC   C3A28685   7.394   7.296   7.920
 1980POPC   C4A28686   7.760   7.162   7.758
 1980POPC   C1B28687   7.248   7.718   8.714
 1980POPC   C2B28688   7.115   7.620   8.312
 1980POPC   C3B28689   7.325   7.794   7.958
 1980POPC   C4B28690   7.142   7.833   7.586
 1981POPC   NC328691   9.765  26.435   9.298
 1981POPC   PO428692   9.810  27.079   9.563
 1981POPC   GL128693   9.628  26.936   9.213
 1981POPC   GL228694   9.495  27.261   9.215
 1981POPC   C1A28695   9.749  26.775   8.775
 1981POPC   D2A28696   9.970  26.861   8.420
 1981POPC   C3A28697   9.744  26.765   8.060
 1981POPC   C4A28698  10.009  26.833   7.716
 1981POPC   C1B28699   9.650  27.281   8.813
 1981POPC   C2B28700   9.510  27.106   8.449
 1981POPC   C3B28701   9.472  27.285   8.077
 1981POPC   C4B28702   9.411  27.016   7.758
 1982POPC   NC328703  28.586  35.534   9.381
 1982POPC   PO428704  28.020  35.158   9.591
 1982POPC   GL128705  28.292  35.109   9.212
 1982POPC   GL228706  28.673  35.059   9.200
 1982POPC   C1A28707  28.353  35.332   8.791
 1982POPC   D2A28708  28.408  35.583   8.402
 1982POPC   C3A28709  28.321  35.472   7.982
 1982POPC   C4A28710  28.382  35.223   7.596
 1982POPC   C1B28711  28.546  34.873   8.780
 1982POPC   C2B28712  28.569  35.070   8.354
 1982POPC   C3B28713  28.760  35.005   7.909
 1982POPC   C4B28714  28.699  34.864   7.441
 1983POPC   NC328715   8.314  10.334   9.485
 1983POPC   PO428716   7.759  10.666   9.568
 1983POPC   GL128717   7.919  10.497   9.178
 1983POPC   GL228718   7.716  10.175   9.212
 1983POPC   C1A28719   8.221  10.558   8.819
 1983POPC   D2A28720   8.465  10.626   8.426
 1983POPC   C3A28721   8.268  10.535   8.043
 1983POPC   C4A28722   8.159  10.725   7.677
 1983POPC   C1B28723   7.953  10.084   8.826
 1983POPC   C2B28724   8.224  10.161   8.452
 1983POPC   C3B28725   8.196  10.012   8.013
 1983POPC   C4B28726   7.971  10.248   7.691
 1984POPC   NC328727  22.781  32.376   9.677
 1984POPC   PO428728  23.283  31.938   9.751
 1984POPC   GL128729  23.021  32.007   9.372
 1984POPC   GL228730  23.299  32.079   9.196
 1984POPC   C1A28731  22.876  31.997   8.905
 1984POPC   D2A28732  22.665  32.086   8.479
 1984POPC   C3A28733  22.908  32.149   8.088
 1984POPC   C4A28734  22.842  31.955   7.660
 1984POPC   C1B28735  23.208  32.439   8.919
 1984POPC   C2B28736  23.128  32.486   8.467
 1984POPC   C3B28737  23.151  32.616   8.024
 1984POPC   C4B28738  23.140  32.366   7.643
 1985POPC   NC328739  11.737  17.483   9.457
 1985POPC   PO428740  12.308  17.753   9.370
 1985POPC   GL128741  12.022  17.603   9.043
 1985POPC   GL228742  11.730  17.851   9.118
 1985POPC   C1A28743  12.057  17.304   8.693
 1985POPC   D2A28744  12.228  17.029   8.331
 1985POPC   C3A28745  12.177  17.213   7.902
 1985POPC   C4A28746  12.236  17.351   7.466
 1985POPC   C1B28747  11.617  17.727   8.742
 1985POPC   C2B28748  11.849  17.666   8.363
 1985POPC   C3B28749  11.727  17.703   7.944
 1985POPC   C4B28750  11.937  17.737   7.562
 1986POPC   NC328751   7.664  14.970   9.402
 1986POPC   PO428752   7.182  15.261   9.721
 1986POPC   GL128753   7.314  15.340   9.171
 1986POPC   GL228754   7.633  15.276   9.003
 1986POPC   C1A28755   7.238  15.367   8.704
 1986POPC   D2A28756   7.283  15.073   8.333
 1986POPC   C3A28757   7.589  15.198   8.053
 1986POPC   C4A28758   7.746  15.294   7.635
 1986POPC   C1B28759   7.641  14.936   8.678
 1986POPC   C2B28760   7.876  14.818   8.295
 1986POPC   C3B28761   7.804  14.810   7.823
 1986POPC   C4B28762   7.869  14.847   7.364
 1987POPC   NC328763   8.688  16.841   9.815
 1987POPC   PO428764   9.308  16.606   9.488
 1987POPC   GL128765   9.043  16.687   9.139
 1987POPC   GL228766   8.838  16.412   9.054
 1987POPC   C1A28767   8.883  16.913   8.794
 1987POPC   D2A28768   9.012  16.977   8.399
 1987POPC   C3A28769   8.702  17.020   8.123
 1987POPC   C4A28770   8.918  16.863   7.803
 1987POPC   C1B28771   8.966  16.424   8.635
 1987POPC   C2B28772   8.824  16.496   8.201
 1987POPC   C3B28773   8.931  16.346   7.776
 1987POPC   C4B28774   8.789  16.368   7.354
 1988POPC   NC328775   4.881  42.705   9.629
 1988POPC   PO428776   5.184  42.123   9.523
 1988POPC   GL128777   5.075  42.329   9.157
 1988POPC   GL228778   5.250  42.653   9.198
 1988POPC   C1A28779   4.932  42.173   8.730
 1988POPC   D2A28780   5.068  41.901   8.364
 1988POPC   C3A28781   5.055  42.102   7.974
 1988POPC   C4A28782   4.925  42.121   7.564
 1988POPC   C1B28783   5.341  42.478   8.761
 1988POPC   C2B28784   5.349  42.316   8.367
 1988POPC   C3B28785   5.376  42.515   7.962
 1988POPC   C4B28786   5.238  42.522   7.538
 1989POPC   NC328787   1.497   0.286   9.370
 1989POPC   PO428788   1.196   0.859   9.573
 1989POPC   GL128789   1.020   0.555   9.204
 1989POPC   GL228790   1.057   0.243   9.030
 1989POPC   C1A28791   0.877   0.630   8.751
 1989POPC   D2A28792   0.914   0.319   8.403
 1989POPC   C3A28793   0.891   0.533   7.999
 1989POPC   C4A28794   1.100   0.479   7.603
 1989POPC   C1B28795   1.400   0.126   8.758
 1989POPC   C2B28796   1.471   0.251   8.386
 1989POPC   C3B28797   1.284   0.194   8.022
 1989POPC   C4B28798   1.495   0.069   7.654
 1990POPC   NC328799  27.744  44.027   9.370
 1990POPC   PO428800  27.124  43.875   9.611
 1990POPC   GL128801  27.290  43.833   9.174
 1990POPC   GL228802  27.342  44.174   9.087
 1990POPC   C1A28803  27.543  43.826   8.763
 1990POPC   D2A28804  27.752  44.003   8.396
 1990POPC   C3A28805  27.569  43.811   8.024
 1990POPC   C4A28806  27.696  43.825   7.601
 1990POPC   C1B28807  27.436  44.337   8.680
 1990POPC   C2B28808  27.277  44.175   8.248
 1990POPC   C3B28809  27.409  44.230   7.795
 1990POPC   C4B28810  27.290  44.134   7.327
 1991POPC   NC328811  32.457  28.981   9.659
 1991POPC   PO428812  32.023  29.422   9.465
 1991POPC   GL128813  32.063  29.263   9.097
 1991POPC   GL228814  32.437  29.261   9.129
 1991POPC   C1A28815  32.006  29.457   8.716
 1991POPC   D2A28816  32.199  29.369   8.335
 1991POPC   C3A28817  32.007  29.051   8.110
 1991POPC   C4A28818  32.073  29.101   7.686
 1991POPC   C1B28819  32.413  29.075   8.714
 1991POPC   C2B28820  32.664  29.011   8.347
 1991POPC   C3B28821  32.514  29.123   7.975
 1991POPC   C4B28822  32.562  29.090   7.558
 1992POPC   NC328823   5.235  22.087   9.376
 1992POPC   PO428824   4.623  21.846   9.311
 1992POPC   GL128825   4.847  22.236   9.071
 1992POPC   GL228826   5.221  22.347   8.951
 1992POPC   C1A28827   4.885  22.186   8.622
 1992POPC   D2A28828   5.063  22.016   8.253
 1992POPC   C3A28829   4.768  22.177   7.968
 1992POPC   C4A28830   4.791  22.481   7.691
 1992POPC   C1B28831   5.434  22.273   8.568
 1992POPC   C2B28832   5.479  22.427   8.137
 1992POPC   C3B28833   5.305  22.365   7.711
 1992POPC   C4B28834   5.411  22.163   7.281
 1993POPC   NC328835  20.235  24.458   9.558
 1993POPC   PO428836  20.856  24.323   9.633
 1993POPC   GL128837  20.859  24.370   9.151
 1993POPC   GL228838  20.535  24.453   9.103
 1993POPC   C1A28839  20.976  24.590   8.735
 1993POPC   D2A28840  20.835  24.867   8.378
 1993POPC   C3A28841  20.801  24.654   7.995
 1993POPC   C4A28842  20.738  24.288   7.741
 1993POPC   C1B28843  20.470  24.614   8.682
 1993POPC   C2B28844  20.345  24.733   8.256
 1993POPC   C3B28845  20.297  24.522   7.860
 1993POPC   C4B28846  20.248  24.208   7.509
 1994POPC   NC328847  32.905  12.149   9.835
 1994POPC   PO428848  32.270  11.874   9.560
 1994POPC   GL128849  32.420  11.942   9.149
 1994POPC   GL228850  32.621  12.238   9.078
 1994POPC   C1A28851  32.118  12.069   8.826
 1994POPC   D2A28852  31.849  11.943   8.465
 1994POPC   C3A28853  32.049  12.126   8.095
 1994POPC   C4A28854  32.242  12.042   7.681
 1994POPC   C1B28855  32.633  12.077   8.652
 1994POPC   C2B28856  32.638  12.161   8.222
 1994POPC   C3B28857  32.410  12.466   7.981
 1994POPC   C4B28858  32.124  12.542   7.648
 1995POPC   NC328859  27.220   8.223   9.451
 1995POPC   PO428860  26.836   7.676   9.502
 1995POPC   GL128861  26.844   8.002   9.143
 1995POPC   GL228862  26.780   8.397   9.193
 1995POPC   C1A28863  27.127   7.989   8.758
 1995POPC   D2A28864  27.197   7.757   8.362
 1995POPC   C3A28865  26.943   7.921   8.024
 1995POPC   C4A28866  27.102   8.276   7.804
 1995POPC   C1B28867  26.727   8.305   8.742
 1995POPC   C2B28868  26.899   8.375   8.327
 1995POPC   C3B28869  26.720   8.532   7.953
 1995POPC   C4B28870  26.831   8.594   7.475
 1996POPC   NC328871   1.786  41.990   9.273
 1996POPC   PO428872   1.974  42.654   9.325
 1996POPC   GL128873   2.179  42.303   9.130
 1996POPC   GL228874   2.500  42.418   9.067
 1996POPC   C1A28875   2.108  42.160   8.695
 1996POPC   D2A28876   1.945  42.437   8.354
 1996POPC   C3A28877   1.950  42.267   7.954
 1996POPC   C4A28878   1.929  41.902   7.726
 1996POPC   C1B28879   2.321  42.652   8.743
 1996POPC   C2B28880   2.455  42.656   8.337
 1996POPC   C3B28881   2.301  42.723   7.944
 1996POPC   C4B28882   1.946  42.709   7.709
 1997POPC   NC328883  16.033   6.654   9.621
 1997POPC   PO428884  16.192   6.133   9.242
 1997POPC   GL128885  15.952   6.454   9.068
 1997POPC   GL228886  15.803   6.741   9.178
 1997POPC   C1A28887  15.902   6.482   8.660
 1997POPC   D2A28888  15.993   6.754   8.354
 1997POPC   C3A28889  15.853   6.519   8.032
 1997POPC   C4A28890  15.918   6.668   7.656
 1997POPC   C1B28891  15.768   6.968   8.791
 1997POPC   C2B28892  15.749   7.194   8.392
 1997POPC   C3B28893  15.627   7.002   7.999
 1997POPC   C4B28894  15.510   6.945   7.578
 1998POPC   NC328895  23.546  12.660   9.501
 1998POPC   PO428896  23.981  13.132   9.596
 1998POPC   GL128897  23.792  12.980   9.161
 1998POPC   GL228898  23.662  12.620   9.014
 1998POPC   C1A28899  23.681  13.019   8.717
 1998POPC   D2A28900  23.817  12.742   8.401
 1998POPC   C3A28901  23.915  12.883   8.027
 1998POPC   C4A28902  23.951  13.223   7.727
 1998POPC   C1B28903  23.666  12.340   8.674
 1998POPC   C2B28904  23.590  12.299   8.253
 1998POPC   C3B28905  23.460  12.655   8.025
 1998POPC   C4B28906  23.628  12.835   7.612
 1999POPC   NC328907  28.547  13.913   9.588
 1999POPC   PO428908  28.133  13.399   9.420
 1999POPC   GL128909  28.494  13.519   9.190
 1999POPC   GL228910  28.660  13.243   9.003
 1999POPC   C1A28911  28.454  13.640   8.772
 1999POPC   D2A28912  28.382  13.437   8.384
 1999POPC   C3A28913  28.316  13.683   8.009
 1999POPC   C4A28914  27.921  13.705   7.820
 1999POPC   C1B28915  28.878  13.415   8.622
 1999POPC   C2B28916  28.838  13.274   8.215
 1999POPC   C3B28917  28.761  13.471   7.841
 1999POPC   C4B28918  28.490  13.431   7.473
 2000POPC   NC328919  28.420   9.348   9.819
 2000POPC   PO428920  28.384   8.700   9.408
 2000POPC   GL128921  28.419   8.610   9.002
 2000POPC   GL228922  28.397   8.944   8.908
 2000POPC   C1A28923  28.131   8.606   8.643
 2000POPC   D2A28924  28.125   8.983   8.389
 2000POPC   C3A28925  28.177   8.887   7.960
 2000POPC   C4A28926  28.483   8.691   7.728
 2000POPC   C1B28927  28.662   9.269   8.750
 2000POPC   C2B28928  28.476   9.392   8.397
 2000POPC   C3B28929  28.535   9.254   8.005
 2000POPC   C4B28930  28.653   9.450   7.647
 2001POPC   NC328931   5.624  23.645   9.464
 2001POPC   PO428932   6.237  23.941   9.425
 2001POPC   GL128933   5.945  23.863   9.106
 2001POPC   GL228934   5.768  23.559   8.992
 2001POPC   C1A28935   5.800  24.026   8.730
 2001POPC   D2A28936   5.942  24.145   8.286
 2001POPC   C3A28937   5.748  23.901   8.018
 2001POPC   C4A28938   5.859  23.851   7.635
 2001POPC   C1B28939   5.645  23.405   8.613
 2001POPC   C2B28940   5.611  23.443   8.167
 2001POPC   C3B28941   5.791  23.314   7.790
 2001POPC   C4B28942   6.129  23.334   7.502
 2002POPC   NC328943  27.797  17.726   9.552
 2002POPC   PO428944  27.201  17.336   9.496
 2002POPC   GL128945  27.500  17.474   9.208
 2002POPC   GL228946  27.816  17.317   9.232
 2002POPC   C1A28947  27.471  17.517   8.795
 2002POPC   D2A28948  27.338  17.281   8.463
 2002POPC   C3A28949  27.487  17.518   8.120
 2002POPC   C4A28950  27.507  17.829   7.810
 2002POPC   C1B28951  28.019  17.454   8.865
 2002POPC   C2B28952  27.862  17.431   8.456
 2002POPC   C3B28953  28.020  17.569   8.049
 2002POPC   C4B28954  27.943  17.613   7.611
 2003POPC   NC328955  16.107  19.889   9.656
 2003POPC   PO428956  15.581  20.029   9.393
 2003POPC   GL128957  15.865  19.754   9.179
 2003POPC   GL228958  16.256  19.728   9.189
 2003POPC   C1A28959  15.831  19.873   8.766
 2003POPC   D2A28960  15.997  19.808   8.404
 2003POPC   C3A28961  15.740  19.753   8.104
 2003POPC   C4A28962  15.748  20.010   7.781
 2003POPC   C1B28963  16.210  19.512   8.796
 2003POPC   C2B28964  16.306  19.329   8.405
 2003POPC   C3B28965  16.227  19.521   8.030
 2003POPC   C4B28966  16.060  19.634   7.646
 2004POPC   NC328967   4.163  24.151   9.457
 2004POPC   PO428968   3.855  23.587   9.477
 2004POPC   GL128969   4.143  23.712   9.185
 2004POPC   GL228970   4.298  23.425   9.085
 2004POPC   C1A28971   4.366  23.899   8.857
 2004POPC   D2A28972   4.261  23.885   8.435
 2004POPC   C3A28973   4.552  23.876   8.097
 2004POPC   C4A28974   4.468  23.935   7.660
 2004POPC   C1B28975   4.149  23.424   8.674
 2004POPC   C2B28976   4.385  23.402   8.281
 2004POPC   C3B28977   4.354  23.460   7.833
 2004POPC   C4B28978   4.092  23.357   7.473
 2005POPC   NC328979  28.390  19.980   9.623
 2005POPC   PO428980  27.879  19.522   9.589
 2005POPC   GL128981  28.116  19.806   9.228
 2005POPC   GL228982  28.470  19.957   9.122
 2005POPC   C1A28983  28.035  19.939   8.787
 2005POPC   D2A28984  28.151  19.693   8.405
 2005POPC   C3A28985  28.225  19.955   8.066
 2005POPC   C4A28986  27.928  20.151   7.813
 2005POPC   C1B28987  28.538  19.702   8.757
 2005POPC   C2B28988  28.698  19.624   8.329
 2005POPC   C3B28989  28.609  19.671   7.889
 2005POPC   C4B28990  28.565  20.116   7.710
 2006POPC   NC328991  37.893  16.304   9.305
 2006POPC   PO428992  37.826  15.622   9.518
 2006POPC   GL128993  37.556  15.715   9.134
 2006POPC   GL228994  37.441  16.053   9.142
 2006POPC   C1A28995  37.371  15.758   8.702
 2006POPC   D2A28996  37.613  16.011   8.374
 2006POPC   C3A28997  37.694  15.841   8.010
 2006POPC   C4A28998  37.878  15.648   7.685
 2006POPC   C1B28999  37.374  16.273   8.730
 2006POPC   C2B29000  37.255  16.363   8.275
 2006POPC   C3B29001  37.540  16.320   7.892
 2006POPC   C4B29002  37.569  16.188   7.462
 2007POPC   NC329003  17.172   1.862   9.356
 2007POPC   PO429004  17.630   2.419   9.490
 2007POPC   GL129005  17.485   2.198   9.135
 2007POPC   GL229006  17.793   2.109   9.094
 2007POPC   C1A29007  17.551   1.996   8.678
 2007POPC   D2A29008  17.698   1.992   8.251
 2007POPC   C3A29009  17.385   2.045   7.916
 2007POPC   C4A29010  17.149   1.811   7.600
 2007POPC   C1B29011  18.063   1.858   8.842
 2007POPC   C2B29012  17.976   1.578   8.495
 2007POPC   C3B29013  18.117   1.706   8.104
 2007POPC   C4B29014  17.954   1.975   7.812
 2008POPC   NC329015  27.827   3.256   9.480
 2008POPC   PO429016  27.356   3.728   9.392
 2008POPC   GL129017  27.538   3.475   9.086
 2008POPC   GL229018  27.889   3.547   9.095
 2008POPC   C1A29019  27.694   3.439   8.654
 2008POPC   D2A29020  27.612   3.191   8.325
 2008POPC   C3A29021  27.517   3.523   8.060
 2008POPC   C4A29022  27.607   3.765   7.703
 2008POPC   C1B29023  28.115   3.210   8.890
 2008POPC   C2B29024  28.176   3.198   8.477
 2008POPC   C3B29025  28.042   3.408   8.150
 2008POPC   C4B29026  27.968   3.389   7.750
 2009POPC   NC329027  32.526   9.769   9.927
 2009POPC   PO429028  31.999   9.375   9.816
 2009POPC   GL129029  31.971   9.574   9.238
 2009POPC   GL229030  32.223   9.867   9.225
 2009POPC   C1A29031  32.119   9.571   8.801
 2009POPC   D2A29032  32.338   9.673   8.412
 2009POPC   C3A29033  32.070   9.656   8.066
 2009POPC   C4A29034  31.971   9.444   7.705
 2009POPC   C1B29035  32.444  10.001   8.814
 2009POPC   C2B29036  32.468  10.163   8.346
 2009POPC   C3B29037  32.232  10.131   7.957
 2009POPC   C4B29038  32.166   9.900   7.585
 2010POPC   NC329039  44.323  20.778   9.279
 2010POPC   PO429040  44.828  20.578   9.620
 2010POPC   GL129041  44.849  20.536   9.156
 2010POPC   GL229042  44.794  20.855   9.053
 2010POPC   C1A29043   0.014  20.530   8.705
 2010POPC   D2A29044  44.834  20.338   8.380
 2010POPC   C3A29045  44.836  20.590   8.055
 2010POPC   C4A29046  44.513  20.485   7.792
 2010POPC   C1B29047  44.539  20.657   8.693
 2010POPC   C2B29048  44.402  20.776   8.310
 2010POPC   C3B29049  44.144  20.811   7.975
 2010POPC   C4B29050  44.293  20.915   7.609
 2011POPC   NC329051   5.044  26.393   9.407
 2011POPC   PO429052   5.067  25.850   9.766
 2011POPC   GL129053   4.915  25.877   9.288
 2011POPC   GL229054   5.167  26.051   9.047
 2011POPC   C1A29055   4.771  25.775   8.839
 2011POPC   D2A29056   4.834  26.056   8.455
 2011POPC   C3A29057   4.769  25.890   8.033
 2011POPC   C4A29058   5.023  25.896   7.652
 2011POPC   C1B29059   5.315  26.400   8.760
 2011POPC   C2B29060   5.222  26.377   8.337
 2011POPC   C3B29061   5.031  26.339   7.954
 2011POPC   C4B29062   5.014  26.713   7.759
 2012POPC   NC329063  31.674  43.741   9.572
 2012POPC   PO429064  32.298  43.950   9.518
 2012POPC   GL129065  32.273  43.830   9.100
 2012POPC   GL229066  32.504  44.101   9.038
 2012POPC   C1A29067  32.384  43.760   8.666
 2012POPC   D2A29068  32.152  43.840   8.294
 2012POPC   C3A29069  32.372  43.769   7.913
 2012POPC   C4A29070  32.167  43.668   7.527
 2012POPC   C1B29071  32.597  44.269   8.645
 2012POPC   C2B29072  32.517  44.188   8.242
 2012POPC   C3B29073  32.487  44.321   7.844
 2012POPC   C4B29074  32.365  44.121   7.515
 2013POPC   NC329075   8.374  41.178   9.406
 2013POPC   PO429076   7.871  40.752   9.517
 2013POPC   GL129077   8.033  40.632   9.125
 2013POPC   GL229078   8.222  40.897   9.012
 2013POPC   C1A29079   8.229  40.473   8.747
 2013POPC   D2A29080   8.093  40.778   8.460
 2013POPC   C3A29081   8.203  40.784   8.035
 2013POPC   C4A29082   7.979  40.935   7.696
 2013POPC   C1B29083   8.333  41.178   8.693
 2013POPC   C2B29084   8.480  41.130   8.300
 2013POPC   C3B29085   8.314  41.269   7.924
 2013POPC   C4B29086   8.480  41.025   7.589
 2014POPC   NC329087  21.215  29.424   9.471
 2014POPC   PO429088  21.811  29.118   9.303
 2014POPC   GL129089  21.582  29.434   8.988
 2014POPC   GL229090  21.239  29.607   9.000
 2014POPC   C1A29091  21.394  29.459   8.545
 2014POPC   D2A29092  21.444  29.152   8.233
 2014POPC   C3A29093  21.568  29.181   7.814
 2014POPC   C4A29094  21.509  28.992   7.426
 2014POPC   C1B29095  20.983  29.295   8.830
 2014POPC   C2B29096  20.923  29.162   8.423
 2014POPC   C3B29097  20.969  29.049   7.992
 2014POPC   C4B29098  21.082  29.267   7.633
 2015POPC   NC329099  15.065  44.522   9.599
 2015POPC   PO429100  15.406  44.970   9.535
 2015POPC   GL129101  15.301  44.708   9.143
 2015POPC   GL229102  15.080  44.413   9.084
 2015POPC   C1A29103  15.231  44.692   8.667
 2015POPC   D2A29104  15.146  44.469   8.252
 2015POPC   C3A29105  15.179  44.632   7.808
 2015POPC   C4A29106  15.533  44.765   7.518
 2015POPC   C1B29107  14.889  44.295   8.681
 2015POPC   C2B29108  14.708  44.206   8.276
 2015POPC   C3B29109  14.836  44.210   7.845
 2015POPC   C4B29110  14.773  44.516   7.497
 2016POPC   NC329111  22.592  36.851   9.371
 2016POPC   PO429112  23.294  37.077   9.447
 2016POPC   GL129113  23.063  37.026   9.099
 2016POPC   GL229114  23.237  36.749   9.025
 2016POPC   C1A29115  23.046  37.090   8.642
 2016POPC   D2A29116  22.845  36.909   8.263
 2016POPC   C3A29117  23.022  37.035   7.869
 2016POPC   C4A29118  23.270  36.807   7.583
 2016POPC   C1B29119  23.139  36.570   8.696
 2016POPC   C2B29120  23.310  36.667   8.316
 2016POPC   C3B29121  23.157  36.494   7.978
 2016POPC   C4B29122  22.790  36.578   7.763
 2017POPC   NC329123  14.228  27.971   9.645
 2017POPC   PO429124  14.521  27.325   9.447
 2017POPC   GL129125  14.386  27.450   9.078
 2017POPC   GL229126  14.216  27.699   9.216
 2017POPC   C1A29127  14.168  27.323   8.701
 2017POPC   D2A29128  14.303  27.151   8.320
 2017POPC   C3A29129  14.491  27.423   8.052
 2017POPC   C4A29130  14.370  27.280   7.711
 2017POPC   C1B29131  14.203  27.824   8.790
 2017POPC   C2B29132  14.345  27.759   8.400
 2017POPC   C3B29133  14.302  27.941   8.001
 2017POPC   C4B29134  14.452  27.786   7.624
 2018POPC   NC329135  11.331  32.696   9.610
 2018POPC   PO429136  11.839  33.232   9.554
 2018POPC   GL129137  11.534  33.158   9.185
 2018POPC   GL229138  11.225  32.925   9.175
 2018POPC   C1A29139  11.285  33.215   8.779
 2018POPC   D2A29140  11.237  33.055   8.359
 2018POPC   C3A29141  11.221  33.218   7.943
 2018POPC   C4A29142  11.535  33.064   7.680
 2018POPC   C1B29143  11.018  32.650   8.852
 2018POPC   C2B29144  10.909  32.611   8.391
 2018POPC   C3B29145  11.124  32.657   7.969
 2018POPC   C4B29146  11.064  32.857   7.565
 2019POPC   NC329147  34.990  11.454   9.574
 2019POPC   PO429148  34.242  11.465   9.590
 2019POPC   GL129149  34.561  11.373   9.259
 2019POPC   GL229150  34.465  11.059   9.088
 2019POPC   C1A29151  34.763  11.413   8.840
 2019POPC   D2A29152  34.723  11.628   8.436
 2019POPC   C3A29153  34.844  11.395   8.072
 2019POPC   C4A29154  34.668  11.465   7.703
 2019POPC   C1B29155  34.191  11.304   8.860
 2019POPC   C2B29156  34.312  11.188   8.463
 2019POPC   C3B29157  34.281  11.239   8.046
 2019POPC   C4B29158  34.368  11.054   7.656
 2020POPC   NC329159  33.445  14.923   9.488
 2020POPC   PO429160  32.871  15.285   9.585
 2020POPC   GL129161  32.981  15.151   9.206
 2020POPC   GL229162  32.613  15.182   9.150
 2020POPC   C1A29163  33.248  15.052   8.856
 2020POPC   D2A29164  33.094  15.065   8.446
 2020POPC   C3A29165  33.295  15.257   8.089
 2020POPC   C4A29166  33.199  15.133   7.680
 2020POPC   C1B29167  32.775  15.357   8.773
 2020POPC   C2B29168  32.608  15.301   8.369
 2020POPC   C3B29169  32.786  15.095   8.015
 2020POPC   C4B29170  32.675  14.735   7.778
 2021POPC   NC329171   9.716  21.770   9.516
 2021POPC   PO429172   9.647  21.117   9.785
 2021POPC   GL129173   9.726  21.322   9.303
 2021POPC   GL229174  10.066  21.454   9.275
 2021POPC   C1A29175   9.667  21.193   8.851
 2021POPC   D2A29176   9.660  21.411   8.493
 2021POPC   C3A29177   9.770  21.297   8.087
 2021POPC   C4A29178   9.683  21.492   7.686
 2021POPC   C1B29179   9.998  21.612   8.852
 2021POPC   C2B29180  10.134  21.583   8.390
 2021POPC   C3B29181   9.935  21.801   8.008
 2021POPC   C4B29182   9.818  21.974   7.578
 2022POPC   NC329183  13.178  23.243   9.801
 2022POPC   PO429184  13.664  23.043   9.419
 2022POPC   GL129185  13.752  22.885   9.048
 2022POPC   GL229186  13.585  23.164   8.924
 2022POPC   C1A29187  13.919  22.867   8.634
 2022POPC   D2A29188  13.597  22.833   8.354
 2022POPC   C3A29189  13.639  22.670   7.979
 2022POPC   C4A29190  13.625  22.876   7.669
 2022POPC   C1B29191  13.893  23.365   8.741
 2022POPC   C2B29192  14.029  23.315   8.349
 2022POPC   C3B29193  13.816  23.180   8.031
 2022POPC   C4B29194  13.732  23.368   7.679
 2023POPC   NC329195  11.605  10.353   9.466
 2023POPC   PO429196  12.257  10.596   9.513
 2023POPC   GL129197  12.121  10.418   9.171
 2023POPC   GL229198  11.889  10.686   9.087
 2023POPC   C1A29199  12.320  10.552   8.780
 2023POPC   D2A29200  12.512  10.462   8.379
 2023POPC   C3A29201  12.377  10.636   8.005
 2023POPC   C4A29202  12.235  10.507   7.620
 2023POPC   C1B29203  11.835  10.357   8.750
 2023POPC   C2B29204  12.008  10.254   8.327
 2023POPC   C3B29205  11.866  10.233   7.861
 2023POPC   C4B29206  11.794  10.411   7.406
 2024POPC   NC329207  32.309  31.854   9.655
 2024POPC   PO429208  32.178  32.493   9.422
 2024POPC   GL129209  32.319  32.329   9.097
 2024POPC   GL229210  32.465  32.015   9.192
 2024POPC   C1A29211  32.169  32.272   8.692
 2024POPC   D2A29212  32.353  32.358   8.324
 2024POPC   C3A29213  32.097  32.253   7.974
 2024POPC   C4A29214  32.154  32.055   7.568
 2024POPC   C1B29215  32.540  31.810   8.810
 2024POPC   C2B29216  32.508  31.891   8.398
 2024POPC   C3B29217  32.384  31.823   7.989
 2024POPC   C4B29218  32.684  31.735   7.703
 2025POPC   NC329219  34.743  18.308   9.535
 2025POPC   PO429220  34.187  18.685   9.434
 2025POPC   GL129221  34.410  18.398   9.155
 2025POPC   GL229222  34.713  18.549   9.054
 2025POPC   C1A29223  34.523  18.086   8.847
 2025POPC   D2A29224  34.360  18.026   8.461
 2025POPC   C3A29225  34.571  18.164   8.133
 2025POPC   C4A29226  34.514  18.001   7.739
 2025POPC   C1B29227  34.467  18.654   8.678
 2025POPC   C2B29228  34.486  18.674   8.222
 2025POPC   C3B29229  34.664  18.543   7.793
 2025POPC   C4B29230  34.977  18.278   7.795
 2026POPC   NC329231   8.028  31.170   9.336
 2026POPC   PO429232   8.556  30.841   9.541
 2026POPC   GL129233   8.361  30.674   9.196
 2026POPC   GL229234   8.505  30.885   8.973
 2026POPC   C1A29235   8.291  30.398   8.834
 2026POPC   D2A29236   8.178  30.516   8.405
 2026POPC   C3A29237   8.477  30.555   8.067
 2026POPC   C4A29238   8.269  30.361   7.733
 2026POPC   C1B29239   8.072  30.877   8.770
 2026POPC   C2B29240   8.026  31.168   8.454
 2026POPC   C3B29241   8.316  31.117   8.130
 2026POPC   C4B29242   8.118  30.878   7.801
 2027POPC   NC329243  27.263  14.048   9.285
 2027POPC   PO429244  26.712  14.485   9.401
 2027POPC   GL129245  26.673  14.422   9.019
 2027POPC   GL229246  26.907  14.645   8.903
 2027POPC   C1A29247  26.789  14.192   8.651
 2027POPC   D2A29248  26.999  14.405   8.339
 2027POPC   C3A29249  26.840  14.366   7.948
 2027POPC   C4A29250  27.004  14.202   7.600
 2027POPC   C1B29251  26.617  14.694   8.582
 2027POPC   C2B29252  26.460  14.403   8.306
 2027POPC   C3B29253  26.332  14.356   7.877
 2027POPC   C4B29254  26.577  14.446   7.504
 2028POPC   NC329255  28.654  33.414   9.255
 2028POPC   PO429256  28.239  33.880   9.603
 2028POPC   GL129257  28.357  33.838   9.163
 2028POPC   GL229258  28.570  34.095   9.079
 2028POPC   C1A29259  28.212  33.716   8.728
 2028POPC   D2A29260  28.031  33.876   8.321
 2028POPC   C3A29261  28.229  34.041   7.911
 2028POPC   C4A29262  28.207  34.133   7.432
 2028POPC   C1B29263  28.594  34.035   8.616
 2028POPC   C2B29264  28.710  33.756   8.265
 2028POPC   C3B29265  28.609  33.666   7.836
 2028POPC   C4B29266  28.837  33.984   7.623
 2029POPC   NC329267  37.134  23.010   9.564
 2029POPC   PO429268  36.627  22.604   9.557
 2029POPC   GL129269  36.854  22.635   9.155
 2029POPC   GL229270  37.141  22.768   9.129
 2029POPC   C1A29271  36.948  22.683   8.685
 2029POPC   D2A29272  36.827  22.983   8.417
 2029POPC   C3A29273  37.015  22.935   8.046
 2029POPC   C4A29274  36.813  22.842   7.659
 2029POPC   C1B29275  37.010  23.139   8.879
 2029POPC   C2B29276  37.223  23.285   8.483
 2029POPC   C3B29277  37.375  23.311   8.087
 2029POPC   C4B29278  37.068  23.308   7.717
 2030POPC   NC329279   9.757  27.605   9.549
 2030POPC   PO429280  10.196  28.105   9.515
 2030POPC   GL129281   9.993  27.878   9.158
 2030POPC   GL229282   9.638  27.739   9.071
 2030POPC   C1A29283  10.064  27.607   8.794
 2030POPC   D2A29284   9.829  27.534   8.387
 2030POPC   C3A29285   9.970  27.253   8.049
 2030POPC   C4A29286   9.780  27.341   7.654
 2030POPC   C1B29287   9.709  27.955   8.687
 2030POPC   C2B29288   9.768  28.058   8.274
 2030POPC   C3B29289   9.806  27.808   7.882
 2030POPC   C4B29290   9.845  27.787   7.411
 2031POPC   NC329291  14.040  23.753   9.653
 2031POPC   PO429292  14.643  24.082   9.484
 2031POPC   GL129293  14.416  23.769   9.184
 2031POPC   GL229294  14.104  23.562   9.187
 2031POPC   C1A29295  14.504  23.753   8.726
 2031POPC   D2A29296  14.514  23.534   8.305
 2031POPC   C3A29297  14.465  23.736   7.909
 2031POPC   C4A29298  14.740  23.567   7.596
 2031POPC   C1B29299  14.030  23.825   8.850
 2031POPC   C2B29300  14.079  23.833   8.408
 2031POPC   C3B29301  13.979  23.694   7.995
 2031POPC   C4B29302  14.060  23.986   7.649
 2032POPC   NC329303  26.584  28.784   9.265
 2032POPC   PO429304  26.893  29.365   9.391
 2032POPC   GL129305  26.820  29.161   9.037
 2032POPC   GL229306  27.053  28.932   9.144
 2032POPC   C1A29307  26.793  29.297   8.591
 2032POPC   D2A29308  26.744  29.610   8.246
 2032POPC   C3A29309  26.553  29.393   7.918
 2032POPC   C4A29310  26.642  29.278   7.492
 2032POPC   C1B29311  27.097  28.830   8.716
 2032POPC   C2B29312  27.041  28.926   8.294
 2032POPC   C3B29313  26.907  28.684   7.950
 2032POPC   C4B29314  27.125  28.785   7.622
 2033POPC   NC329315  29.605  36.822   9.454
 2033POPC   PO429316  30.108  37.255   9.725
 2033POPC   GL129317  30.044  37.216   9.234
 2033POPC   GL229318  29.764  37.071   9.051
 2033POPC   C1A29319  30.219  37.031   8.818
 2033POPC   D2A29320  30.050  36.694   8.570
 2033POPC   C3A29321  30.112  36.708   8.138
 2033POPC   C4A29322  30.180  36.859   7.748
 2033POPC   C1B29323  29.591  36.723   8.795
 2033POPC   C2B29324  29.608  36.740   8.338
 2033POPC   C3B29325  29.760  37.057   8.012
 2033POPC   C4B29326  29.732  37.142   7.577
 2034POPC   NC329327  31.180   1.356   9.368
 2034POPC   PO429328  30.564   0.976   9.445
 2034POPC   GL129329  30.510   1.158   9.085
 2034POPC   GL229330  30.691   1.438   9.207
 2034POPC   C1A29331  30.650   1.045   8.698
 2034POPC   D2A29332  30.755   1.156   8.288
 2034POPC   C3A29333  30.509   1.046   7.923
 2034POPC   C4A29334  30.568   1.216   7.509
 2034POPC   C1B29335  30.707   1.585   8.792
 2034POPC   C2B29336  30.836   1.706   8.375
 2034POPC   C3B29337  30.689   1.571   7.965
 2034POPC   C4B29338  30.556   1.702   7.567
 2035POPC   NC329339   9.433  44.691   9.564
 2035POPC   PO429340   9.976  44.322   9.628
 2035POPC   GL129341   9.924  44.494   9.239
 2035POPC   GL229342   9.828  44.826   9.230
 2035POPC   C1A29343   9.605  44.457   8.926
 2035POPC   D2A29344   9.378  44.685   8.598
 2035POPC   C3A29345   9.535  44.647   8.166
 2035POPC   C4A29346   9.438  44.782   7.722
 2035POPC   C1B29347   9.783  44.938   8.792
 2035POPC   C2B29348   9.830   0.094   8.404
 2035POPC   C3B29349   9.794   0.068   7.988
 2035POPC   C4B29350   9.969  44.791   7.755
 2036POPC   NC329351   6.209  20.200   9.318
 2036POPC   PO429352   5.609  19.979   9.475
 2036POPC   GL129353   5.854  19.841   9.152
 2036POPC   GL229354   5.605  19.697   8.982
 2036POPC   C1A29355   6.026  19.781   8.737
 2036POPC   D2A29356   5.902  19.716   8.317
 2036POPC   C3A29357   5.776  19.498   7.960
 2036POPC   C4A29358   5.918  19.577   7.535
 2036POPC   C1B29359   5.561  19.985   8.636
 2036POPC   C2B29360   5.767  20.193   8.276
 2036POPC   C3B29361   5.826  20.029   7.857
 2036POPC   C4B29362   5.840  20.081   7.415
 2037POPC   NC329363  11.058  17.180   9.515
 2037POPC   PO429364  11.356  17.743   9.449
 2037POPC   GL129365  11.133  17.565   9.138
 2037POPC   GL229366  11.378  17.330   9.108
 2037POPC   C1A29367  11.100  17.489   8.702
 2037POPC   D2A29368  11.354  17.542   8.350
 2037POPC   C3A29369  11.143  17.482   8.023
 2037POPC   C4A29370  11.309  17.527   7.688
 2037POPC   C1B29371  11.547  17.226   8.727
 2037POPC   C2B29372  11.721  17.162   8.320
 2037POPC   C3B29373  11.645  17.208   7.926
 2037POPC   C4B29374  11.717  17.297   7.520
 2038POPC   NC329375  37.921  28.021   9.500
 2038POPC   PO429376  37.656  28.567   9.653
 2038POPC   GL129377  37.710  28.416   9.230
 2038POPC   GL229378  37.460  28.189   9.121
 2038POPC   C1A29379  37.947  28.279   8.873
 2038POPC   D2A29380  37.977  28.514   8.476
 2038POPC   C3A29381  37.863  28.464   8.034
 2038POPC   C4A29382  37.883  28.173   7.707
 2038POPC   C1B29383  37.488  28.391   8.721
 2038POPC   C2B29384  37.578  28.182   8.340
 2038POPC   C3B29385  37.409  28.211   7.926
 2038POPC   C4B29386  37.463  28.559   7.633
 2039POPC   NC329387   4.302  17.968   9.500
 2039POPC   PO429388   4.154  18.701   9.510
 2039POPC   GL129389   4.280  18.424   9.173
 2039POPC   GL229390   4.008  18.198   9.151
 2039POPC   C1A29391   4.454  18.141   8.844
 2039POPC   D2A29392   4.649  17.889   8.509
 2039POPC   C3A29393   4.494  18.003   8.103
 2039POPC   C4A29394   4.545  18.085   7.688
 2039POPC   C1B29395   3.995  18.346   8.710
 2039POPC   C2B29396   4.025  18.138   8.294
 2039POPC   C3B29397   4.024  18.112   7.826
 2039POPC   C4B29398   4.179  18.400   7.470
 2040POPC   NC329399  34.689  35.866   9.455
 2040POPC   PO429400  34.084  36.212   9.588
 2040POPC   GL129401  34.395  36.273   9.264
 2040POPC   GL229402  34.295  35.951   9.135
 2040POPC   C1A29403  34.584  36.248   8.833
 2040POPC   D2A29404  34.772  36.389   8.436
 2040POPC   C3A29405  34.780  36.171   8.045
 2040POPC   C4A29406  34.623  36.285   7.616
 2040POPC   C1B29407  34.389  35.771   8.739
 2040POPC   C2B29408  34.625  35.779   8.349
 2040POPC   C3B29409  34.402  35.832   7.945
 2040POPC   C4B29410  34.356  35.750   7.474
 2041POPC   NC329411  14.723  20.624   9.539
 2041POPC   PO429412  14.058  20.797   9.533
 2041POPC   GL129413  14.351  20.797   9.205
 2041POPC   GL229414  14.445  20.465   9.130
 2041POPC   C1A29415  14.471  20.826   8.768
 2041POPC   D2A29416  14.515  20.584   8.379
 2041POPC   C3A29417  14.429  20.741   7.970
 2041POPC   C4A29418  14.657  20.579   7.666
 2041POPC   C1B29419  14.319  20.278   8.751
 2041POPC   C2B29420  14.155  20.219   8.334
 2041POPC   C3B29421  14.342  20.219   7.914
 2041POPC   C4B29422  14.225  20.335   7.487
 2042POPC   NC329423  17.437  31.095   9.413
 2042POPC   PO429424  17.501  31.726   9.457
 2042POPC   GL129425  17.604  31.472   9.101
 2042POPC   GL229426  17.304  31.369   8.969
 2042POPC   C1A29427  17.714  31.468   8.647
 2042POPC   D2A29428  17.770  31.594   8.205
 2042POPC   C3A29429  17.481  31.511   7.857
 2042POPC   C4A29430  17.213  31.701   7.568
 2042POPC   C1B29431  17.295  31.169   8.563
 2042POPC   C2B29432  17.303  31.117   8.122
 2042POPC   C3B29433  17.060  31.225   7.732
 2042POPC   C4B29434  16.996  31.324   7.287
 2043POPC   NC329435  21.733   3.969   9.572
 2043POPC   PO429436  22.246   4.392   9.662
 2043POPC   GL129437  22.149   4.318   9.229
 2043POPC   GL229438  22.384   4.512   9.098
 2043POPC   C1A29439  22.135   4.238   8.746
 2043POPC   D2A29440  22.146   4.050   8.307
 2043POPC   C3A29441  21.942   4.181   7.915
 2043POPC   C4A29442  22.041   4.467   7.563
 2043POPC   C1B29443  22.599   4.678   8.743
 2043POPC   C2B29444  22.404   4.759   8.359
 2043POPC   C3B29445  22.272   4.626   7.991
 2043POPC   C4B29446  22.545   4.678   7.677
 2044POPC   NC329447  39.247  33.238   9.622
 2044POPC   PO429448  39.019  32.567   9.518
 2044POPC   GL129449  39.242  32.751   9.152
 2044POPC   GL229450  39.233  33.118   9.137
 2044POPC   C1A29451  39.251  32.854   8.699
 2044POPC   D2A29452  39.018  32.988   8.337
 2044POPC   C3A29453  39.244  32.835   8.021
 2044POPC   C4A29454  39.396  32.878   7.589
 2044POPC   C1B29455  39.334  33.363   8.786
 2044POPC   C2B29456  39.410  33.266   8.366
 2044POPC   C3B29457  39.172  33.327   7.981
 2044POPC   C4B29458  39.276  33.369   7.576
 2045POPC   NC329459  27.304  25.118   9.513
 2045POPC   PO429460  27.891  25.639   9.585
 2045POPC   GL129461  27.819  25.518   9.138
 2045POPC   GL229462  27.617  25.201   9.122
 2045POPC   C1A29463  27.666  25.546   8.720
 2045POPC   D2A29464  27.542  25.267   8.368
 2045POPC   C3A29465  27.638  25.564   8.063
 2045POPC   C4A29466  27.860  25.529   7.684
 2045POPC   C1B29467  27.843  25.078   8.779
 2045POPC   C2B29468  27.903  24.923   8.381
 2045POPC   C3B29469  27.884  25.090   7.991
 2045POPC   C4B29470  27.660  25.025   7.670
 2046POPC   NC329471  13.063  14.543   9.529
 2046POPC   PO429472  12.470  14.538   9.583
 2046POPC   GL129473  12.548  14.376   9.167
 2046POPC   GL229474  12.892  14.392   9.058
 2046POPC   C1A29475  12.489  14.503   8.732
 2046POPC   D2A29476  12.866  14.610   8.481
 2046POPC   C3A29477  12.922  14.522   8.038
 2046POPC   C4A29478  12.895  14.636   7.590
 2046POPC   C1B29479  12.773  14.099   8.703
 2046POPC   C2B29480  12.663  14.112   8.237
 2046POPC   C3B29481  12.862  14.052   7.804
 2046POPC   C4B29482  13.196  14.230   7.509
 2047POPC   NC329483  15.751   2.643   9.502
 2047POPC   PO429484  16.284   3.011   9.546
 2047POPC   GL129485  16.049   2.946   9.152
 2047POPC   GL229486  15.759   2.778   9.032
 2047POPC   C1A29487  15.965   3.129   8.724
 2047POPC   D2A29488  16.145   2.957   8.337
 2047POPC   C3A29489  15.851   2.884   8.027
 2047POPC   C4A29490  15.820   2.767   7.627
 2047POPC   C1B29491  15.878   2.619   8.656
 2047POPC   C2B29492  15.724   2.443   8.273
 2047POPC   C3B29493  16.032   2.392   7.941
 2047POPC   C4B29494  16.156   2.394   7.524
 2048POPC   NC329495  19.639  16.537   9.531
 2048POPC   PO429496  20.146  16.978   9.351
 2048POPC   GL129497  20.100  16.729   8.992
 2048POPC   GL229498  19.920  16.456   9.111
 2048POPC   C1A29499  19.797  16.659   8.645
 2048POPC   D2A29500  19.612  16.941   8.328
 2048POPC   C3A29501  19.728  16.987   7.863
 2048POPC   C4A29502  20.137  16.818   7.655
 2048POPC   C1B29503  19.580  16.257   8.909
 2048POPC   C2B29504  19.499  16.234   8.481
 2048POPC   C3B29505  19.678  16.299   8.084
 2048POPC   C4B29506  19.740  16.521   7.708
 2049POPC   NC329507  22.184  28.873   9.472
 2049POPC   PO429508  22.155  28.223   9.586
 2049POPC   GL129509  22.098  28.130   9.144
 2049POPC   GL229510  22.368  27.925   9.093
 2049POPC   C1A29511  22.086  28.459   8.797
 2049POPC   D2A29512  22.277  28.440   8.367
 2049POPC   C3A29513  22.215  28.637   7.955
 2049POPC   C4A29514  22.289  28.557   7.510
 2049POPC   C1B29515  22.400  28.068   8.708
 2049POPC   C2B29516  22.451  27.952   8.303
 2049POPC   C3B29517  22.515  28.201   7.953
 2049POPC   C4B29518  22.569  28.119   7.547
 2050POPC   NC329519  12.334  25.555   9.385
 2050POPC   PO429520  11.719  25.276   9.342
 2050POPC   GL129521  11.972  25.340   9.031
 2050POPC   GL229522  12.194  25.113   9.075
 2050POPC   C1A29523  12.156  25.636   8.759
 2050POPC   D2A29524  12.257  25.704   8.341
 2050POPC   C3A29525  12.053  25.407   8.138
 2050POPC   C4A29526  11.820  25.373   7.753
 2050POPC   C1B29527  12.413  25.033   8.714
 2050POPC   C2B29528  12.668  24.952   8.367
 2050POPC   C3B29529  12.538  24.845   7.963
 2050POPC   C4B29530  12.286  25.165   7.770
 2051POPC   NC329531  27.181   7.358   9.404
 2051POPC   PO429532  27.823   7.187   9.683
 2051POPC   GL129533  27.942   7.286   9.237
 2051POPC   GL229534  27.744   7.568   9.172
 2051POPC   C1A29535  27.766   7.223   8.803
 2051POPC   D2A29536  27.497   7.301   8.425
 2051POPC   C3A29537  27.385   6.993   8.107
 2051POPC   C4A29538  27.521   7.155   7.749
 2051POPC   C1B29539  27.555   7.696   8.769
 2051POPC   C2B29540  27.717   7.775   8.331
 2051POPC   C3B29541  27.518   7.642   7.940
 2051POPC   C4B29542  27.286   7.853   7.615
 2052POPC   NC329543  13.315  25.718   9.279
 2052POPC   PO429544  13.266  26.352   9.462
 2052POPC   GL129545  13.396  26.166   9.045
 2052POPC   GL229546  13.765  26.147   8.970
 2052POPC   C1A29547  13.475  26.074   8.595
 2052POPC   D2A29548  13.800  26.139   8.317
 2052POPC   C3A29549  13.580  26.025   7.968
 2052POPC   C4A29550  13.431  25.899   7.555
 2052POPC   C1B29551  13.846  25.737   8.705
 2052POPC   C2B29552  13.986  25.576   8.282
 2052POPC   C3B29553  13.830  25.619   7.836
 2052POPC   C4B29554  13.920  26.029   7.550
 2053POPC   NC329555   0.639  43.024   9.555
 2053POPC   PO429556  44.954  42.957   9.542
 2053POPC   GL129557   0.284  43.126   9.194
 2053POPC   GL229558   0.533  42.834   9.109
 2053POPC   C1A29559   0.306  43.431   8.795
 2053POPC   D2A29560   0.334  43.632   8.336
 2053POPC   C3A29561   0.403  43.332   7.957
 2053POPC   C4A29562   0.564  42.895   7.890
 2053POPC   C1B29563   0.320  42.721   8.778
 2053POPC   C2B29564   0.358  42.899   8.391
 2053POPC   C3B29565   0.087  42.749   8.135
 2053POPC   C4B29566   0.156  42.619   7.732
 2054POPC   NC329567   5.867  26.148   9.607
 2054POPC   PO429568   6.352  26.338   9.270
 2054POPC   GL129569   6.014  26.103   9.109
 2054POPC   GL229570   5.645  26.258   9.160
 2054POPC   C1A29571   6.034  25.709   8.867
 2054POPC   D2A29572   6.044  25.563   8.479
 2054POPC   C3A29573   5.932  25.917   8.260
 2054POPC   C4A29574   6.018  26.044   7.886
 2054POPC   C1B29575   5.645  26.014   8.763
 2054POPC   C2B29576   5.446  25.929   8.388
 2054POPC   C3B29577   5.495  26.096   7.944
 2054POPC   C4B29578   5.418  26.399   7.589
 2055POPC   NC329579  12.464  18.213   9.392
 2055POPC   PO429580  11.838  18.396   9.386
 2055POPC   GL129581  12.135  18.461   9.080
 2055POPC   GL229582  12.159  18.096   9.010
 2055POPC   C1A29583  12.352  18.387   8.678
 2055POPC   D2A29584  12.149  18.104   8.390
 2055POPC   C3A29585  12.265  18.321   8.028
 2055POPC   C4A29586  12.249  18.669   7.694
 2055POPC   C1B29587  11.792  18.217   8.759
 2055POPC   C2B29588  11.597  18.110   8.384
 2055POPC   C3B29589  11.758  18.210   7.990
 2055POPC   C4B29590  11.626  18.123   7.597
 2056POPC   NC329591  37.097   2.591   9.496
 2056POPC   PO429592  36.675   3.083   9.443
 2056POPC   GL129593  36.811   2.844   9.116
 2056POPC   GL229594  37.131   2.827   9.053
 2056POPC   C1A29595  36.801   2.557   8.786
 2056POPC   D2A29596  36.968   2.456   8.413
 2056POPC   C3A29597  36.948   2.683   8.028
 2056POPC   C4A29598  36.746   2.593   7.621
 2056POPC   C1B29599  37.345   2.755   8.681
 2056POPC   C2B29600  37.411   3.027   8.351
 2056POPC   C3B29601  37.328   3.041   7.919
 2056POPC   C4B29602  36.984   3.047   7.655
 2057POPC   NC329603  44.472  12.886   9.587
 2057POPC   PO429604   0.148  12.843   9.451
 2057POPC   GL129605  44.782  12.809   9.140
 2057POPC   GL229606  44.423  12.655   9.152
 2057POPC   C1A29607  44.535  13.001   8.778
 2057POPC   D2A29608  44.292  13.144   8.407
 2057POPC   C3A29609  44.459  13.046   8.009
 2057POPC   C4A29610  44.755  13.061   7.699
 2057POPC   C1B29611  44.392  12.502   8.742
 2057POPC   C2B29612  44.547  12.667   8.342
 2057POPC   C3B29613  44.643  12.563   7.893
 2057POPC   C4B29614  44.646  12.579   7.391
 2058POPC   NC329615  41.641  33.462   9.672
 2058POPC   PO429616  41.551  34.159   9.731
 2058POPC   GL129617  41.696  33.855   9.315
 2058POPC   GL229618  41.753  33.493   9.174
 2058POPC   C1A29619  41.627  33.828   8.826
 2058POPC   D2A29620  41.582  34.108   8.466
 2058POPC   C3A29621  41.529  33.924   8.126
 2058POPC   C4A29622  41.381  33.952   7.739
 2058POPC   C1B29623  41.416  33.369   8.833
 2058POPC   C2B29624  41.313  33.524   8.419
 2058POPC   C3B29625  41.356  33.489   7.976
 2058POPC   C4B29626  41.725  33.548   7.744
 2059POPC   NC329627  12.444  32.209   9.489
 2059POPC   PO429628  11.718  32.368   9.619
 2059POPC   GL129629  12.011  32.355   9.246
 2059POPC   GL229630  12.199  32.112   9.060
 2059POPC   C1A29631  11.844  32.346   8.798
 2059POPC   D2A29632  11.934  32.517   8.427
 2059POPC   C3A29633  11.968  32.294   8.050
 2059POPC   C4A29634  12.283  32.140   7.782
 2059POPC   C1B29635  12.065  31.891   8.701
 2059POPC   C2B29636  12.028  31.807   8.286
 2059POPC   C3B29637  11.779  31.834   7.922
 2059POPC   C4B29638  11.840  32.081   7.533
 2060POPC   NC329639  37.784  26.606   9.696
 2060POPC   PO429640  37.611  27.197   9.627
 2060POPC   GL129641  37.740  26.920   9.288
 2060POPC   GL229642  37.431  26.692   9.294
 2060POPC   C1A29643  37.867  26.886   8.838
 2060POPC   D2A29644  37.753  26.743   8.418
 2060POPC   C3A29645  37.626  27.037   8.073
 2060POPC   C4A29646  37.679  26.790   7.694
 2060POPC   C1B29647  37.346  26.944   8.923
 2060POPC   C2B29648  37.292  26.937   8.468
 2060POPC   C3B29649  37.307  26.664   8.093
 2060POPC   C4B29650  37.203  26.648   7.647
 2061POPC   NC329651   1.126  15.496   9.797
 2061POPC   PO429652   1.151  16.116   9.615
 2061POPC   GL129653   1.226  16.039   9.190
 2061POPC   GL229654   1.415  15.740   9.162
 2061POPC   C1A29655   1.104  15.913   8.766
 2061POPC   D2A29656   1.006  15.672   8.403
 2061POPC   C3A29657   1.024  15.889   8.011
 2061POPC   C4A29658   1.241  16.133   7.695
 2061POPC   C1B29659   1.620  15.715   8.757
 2061POPC   C2B29660   1.507  15.693   8.320
 2061POPC   C3B29661   1.548  15.782   7.888
 2061POPC   C4B29662   1.489  15.682   7.444
 2062POPC   NC329663  28.062  28.014   9.434
 2062POPC   PO429664  28.307  28.543   9.709
 2062POPC   GL129665  28.301  28.657   9.247
 2062POPC   GL229666  28.291  28.345   9.084
 2062POPC   C1A29667  28.531  28.724   8.833
 2062POPC   D2A29668  28.459  28.616   8.408
 2062POPC   C3A29669  28.572  28.265   8.157
 2062POPC   C4A29670  28.355  28.319   7.788
 2062POPC   C1B29671  28.346  28.149   8.671
 2062POPC   C2B29672  28.340  27.822   8.335
 2062POPC   C3B29673  28.168  27.835   7.931
 2062POPC   C4B29674  28.371  27.852   7.536
 2063POPC   NC329675   6.757  26.539   9.302
 2063POPC   PO429676   6.622  27.133   9.585
 2063POPC   GL129677   6.644  26.996   9.108
 2063POPC   GL229678   6.434  26.707   8.946
 2063POPC   C1A29679   6.581  27.078   8.652
 2063POPC   D2A29680   6.379  26.761   8.400
 2063POPC   C3A29681   6.602  26.687   8.023
 2063POPC   C4A29682   6.344  26.686   7.692
 2063POPC   C1B29683   6.697  26.438   8.656
 2063POPC   C2B29684   6.983  26.457   8.320
 2063POPC   C3B29685   6.994  26.296   7.909
 2063POPC   C4B29686   6.803  26.507   7.552
 2064POPC   NC329687   6.857   8.294   9.479
 2064POPC   PO429688   6.291   8.295   9.121
 2064POPC   GL129689   6.660   8.294   8.963
 2064POPC   GL229690   6.814   7.993   9.065
 2064POPC   C1A29691   6.573   8.246   8.543
 2064POPC   D2A29692   6.381   8.524   8.294
 2064POPC   C3A29693   6.583   8.447   7.956
 2064POPC   C4A29694   6.297   8.529   7.691
 2064POPC   C1B29695   6.750   7.777   8.678
 2064POPC   C2B29696   6.605   7.813   8.248
 2064POPC   C3B29697   6.667   7.966   7.815
 2064POPC   C4B29698   6.461   8.126   7.439
 2065POPC   NC329699  22.054  27.144   9.449
 2065POPC   PO429700  21.890  26.477   9.352
 2065POPC   GL129701  22.068  26.737   9.081
 2065POPC   GL229702  22.353  26.661   8.980
 2065POPC   C1A29703  22.005  26.769   8.633
 2065POPC   D2A29704  22.129  26.975   8.277
 2065POPC   C3A29705  21.996  26.839   7.869
 2065POPC   C4A29706  22.133  26.751   7.479
 2065POPC   C1B29707  22.394  27.063   8.786
 2065POPC   C2B29708  22.589  27.178   8.371
 2065POPC   C3B29709  22.457  27.169   7.916
 2065POPC   C4B29710  22.531  27.070   7.481
 2066POPC   NC329711  33.485   3.270   9.414
 2066POPC   PO429712  33.866   2.723   9.597
 2066POPC   GL129713  33.783   2.721   9.187
 2066POPC   GL229714  33.414   2.699   9.226
 2066POPC   C1A29715  33.993   2.945   8.835
 2066POPC   D2A29716  34.096   3.147   8.420
 2066POPC   C3A29717  34.023   2.905   8.077
 2066POPC   C4A29718  33.884   2.904   7.697
 2066POPC   C1B29719  33.481   2.894   8.827
 2066POPC   C2B29720  33.670   2.870   8.447
 2066POPC   C3B29721  33.505   2.963   8.059
 2066POPC   C4B29722  33.421   2.659   7.770
 2067POPC   NC329723   3.654  10.192   9.453
 2067POPC   PO429724   3.113  10.583   9.523
 2067POPC   GL129725   3.234  10.360   9.133
 2067POPC   GL229726   3.553  10.509   9.090
 2067POPC   C1A29727   3.353  10.296   8.681
 2067POPC   D2A29728   3.530  10.593   8.409
 2067POPC   C3A29729   3.386  10.519   7.999
 2067POPC   C4A29730   3.229  10.199   7.716
 2067POPC   C1B29731   3.848  10.392   8.787
 2067POPC   C2B29732   4.049  10.498   8.434
 2067POPC   C3B29733   3.901  10.635   8.056
 2067POPC   C4B29734   3.784  10.543   7.663
 2068POPC   NC329735  35.203   4.483   9.805
 2068POPC   PO429736  34.563   4.234   9.494
 2068POPC   GL129737  34.505   4.127   9.101
 2068POPC   GL229738  34.832   4.190   8.995
 2068POPC   C1A29739  34.428   4.389   8.735
 2068POPC   D2A29740  34.670   4.648   8.434
 2068POPC   C3A29741  34.578   4.509   8.022
 2068POPC   C4A29742  34.360   4.575   7.646
 2068POPC   C1B29743  34.883   4.200   8.601
 2068POPC   C2B29744  34.578   4.069   8.333
 2068POPC   C3B29745  34.803   4.046   7.985
 2068POPC   C4B29746  34.864   4.285   7.632
 2069POPC   NC329747  15.131  26.129   9.736
 2069POPC   PO429748  14.778  25.676   9.773
 2069POPC   GL129749  14.970  25.986   9.278
 2069POPC   GL229750  15.245  26.215   9.237
 2069POPC   C1A29751  14.882  25.883   8.779
 2069POPC   D2A29752  15.138  25.803   8.414
 2069POPC   C3A29753  15.169  26.018   8.000
 2069POPC   C4A29754  15.159  25.804   7.586
 2069POPC   C1B29755  15.187  26.288   8.792
 2069POPC   C2B29756  15.400  26.265   8.397
 2069POPC   C3B29757  15.501  26.415   8.000
 2069POPC   C4B29758  15.423  26.293   7.601
 2070POPC   NC329759   2.478  29.634   9.324
 2070POPC   PO429760   2.807  30.027   9.747
 2070POPC   GL129761   2.689  30.074   9.249
 2070POPC   GL229762   2.986  29.870   8.994
 2070POPC   C1A29763   2.567  30.028   8.812
 2070POPC   D2A29764   2.882  30.011   8.489
 2070POPC   C3A29765   2.685  29.933   8.101
 2070POPC   C4A29766   2.771  29.841   7.684
 2070POPC   C1B29767   2.780  29.545   8.762
 2070POPC   C2B29768   2.517  29.556   8.453
 2070POPC   C3B29769   2.467  29.475   8.045
 2070POPC   C4B29770   2.524  29.402   7.616
 2071POPC   NC329771   0.704   1.529   9.628
 2071POPC   PO429772   0.231   1.115   9.514
 2071POPC   GL129773   0.490   1.287   9.190
 2071POPC   GL229774   0.199   1.375   9.067
 2071POPC   C1A29775   0.706   1.142   8.792
 2071POPC   D2A29776   0.535   1.092   8.374
 2071POPC   C3A29777   0.746   1.032   8.029
 2071POPC   C4A29778   0.512   1.153   7.699
 2071POPC   C1B29779   0.292   1.407   8.666
 2071POPC   C2B29780   0.092   1.455   8.303
 2071POPC   C3B29781   0.090   1.306   7.904
 2071POPC   C4B29782   0.103   1.256   7.408
 2072POPC   NC329783  37.969   5.913   9.562
 2072POPC   PO429784  37.417   5.590   9.663
 2072POPC   GL129785  37.639   5.729   9.244
 2072POPC   GL229786  37.757   6.121   9.143
 2072POPC   C1A29787  37.648   5.750   8.815
 2072POPC   D2A29788  37.520   5.569   8.490
 2072POPC   C3A29789  37.788   5.696   8.191
 2072POPC   C4A29790  37.680   5.740   7.779
 2072POPC   C1B29791  37.503   6.241   8.757
 2072POPC   C2B29792  37.501   6.103   8.320
 2072POPC   C3B29793  37.796   6.188   7.997
 2072POPC   C4B29794  37.800   6.216   7.505
 2073POPC   NC329795  30.754  17.704   9.491
 2073POPC   PO429796  30.645  16.966   9.482
 2073POPC   GL129797  30.594  17.294   9.126
 2073POPC   GL229798  30.843  17.574   9.018
 2073POPC   C1A29799  30.434  17.242   8.693
 2073POPC   D2A29800  30.105  17.298   8.355
 2073POPC   C3A29801  30.324  17.279   7.940
 2073POPC   C4A29802  30.672  17.561   7.773
 2073POPC   C1B29803  31.027  17.190   8.860
 2073POPC   C2B29804  30.898  17.046   8.457
 2073POPC   C3B29805  30.840  17.071   8.011
 2073POPC   C4B29806  31.086  17.074   7.655
 2074POPC   NC329807  18.048  10.517   9.566
 2074POPC   PO429808  17.430  10.701   9.686
 2074POPC   GL129809  17.371  10.389   9.324
 2074POPC   GL229810  17.651  10.534   9.207
 2074POPC   C1A29811  17.299  10.328   8.836
 2074POPC   D2A29812  17.156  10.447   8.378
 2074POPC   C3A29813  17.436  10.423   8.005
 2074POPC   C4A29814  17.463  10.578   7.541
 2074POPC   C1B29815  17.803  10.395   8.841
 2074POPC   C2B29816  17.717  10.471   8.463
 2074POPC   C3B29817  17.936  10.437   8.113
 2074POPC   C4B29818  17.881  10.346   7.722
 2075POPC   NC329819  25.812  31.538   9.501
 2075POPC   PO429820  26.470  31.251   9.490
 2075POPC   GL129821  26.269  31.560   9.230
 2075POPC   GL229822  26.011  31.349   9.073
 2075POPC   C1A29823  26.061  31.799   8.858
 2075POPC   D2A29824  25.786  31.647   8.525
 2075POPC   C3A29825  25.982  31.568   8.141
 2075POPC   C4A29826  26.046  31.598   7.707
 2075POPC   C1B29827  25.717  31.183   8.782
 2075POPC   C2B29828  25.597  31.162   8.375
 2075POPC   C3B29829  25.702  30.990   8.014
 2075POPC   C4B29830  25.921  31.103   7.677
 2076POPC   NC329831  31.037  21.582   9.519
 2076POPC   PO429832  31.687  21.310   9.526
 2076POPC   GL129833  31.519  21.363   9.150
 2076POPC   GL229834  31.213  21.155   9.173
 2076POPC   C1A29835  31.735  21.533   8.792
 2076POPC   D2A29836  31.947  21.556   8.372
 2076POPC   C3A29837  31.747  21.507   7.993
 2076POPC   C4A29838  31.769  21.160   7.724
 2076POPC   C1B29839  31.288  21.090   8.761
 2076POPC   C2B29840  31.468  21.244   8.388
 2076POPC   C3B29841  31.326  21.131   7.974
 2076POPC   C4B29842  31.261  21.191   7.522
 2077POPC   NC329843  33.588  38.744   9.427
 2077POPC   PO429844  33.854  38.110   9.541
 2077POPC   GL129845  33.828  38.358   9.192
 2077POPC   GL229846  33.526  38.225   9.045
 2077POPC   C1A29847  34.031  38.501   8.821
 2077POPC   D2A29848  34.158  38.361   8.408
 2077POPC   C3A29849  33.835  38.313   8.123
 2077POPC   C4A29850  33.796  38.349   7.697
 2077POPC   C1B29851  33.530  38.427   8.613
 2077POPC   C2B29852  33.471  38.645   8.184
 2077POPC   C3B29853  33.679  38.831   7.804
 2077POPC   C4B29854  33.666  39.156   7.449
 2078POPC   NC329855  22.793  29.954   9.517
 2078POPC   PO429856  23.389  29.817   9.420
 2078POPC   GL129857  23.082  29.875   9.072
 2078POPC   GL229858  22.905  30.170   9.060
 2078POPC   C1A29859  22.895  29.946   8.622
 2078POPC   D2A29860  22.729  30.189   8.282
 2078POPC   C3A29861  22.877  29.925   7.973
 2078POPC   C4A29862  23.309  29.948   7.825
 2078POPC   C1B29863  23.295  30.227   8.762
 2078POPC   C2B29864  23.276  30.318   8.282
 2078POPC   C3B29865  23.018  30.415   7.903
 2078POPC   C4B29866  22.616  30.282   7.719
 2079POPC   NC329867  15.153   9.786   9.453
 2079POPC   PO429868  15.524   9.270   9.560
 2079POPC   GL129869  15.585   9.573   9.212
 2079POPC   GL229870  15.576   9.951   9.164
 2079POPC   C1A29871  15.408   9.599   8.793
 2079POPC   D2A29872  15.106   9.642   8.442
 2079POPC   C3A29873  15.309   9.729   8.039
 2079POPC   C4A29874  15.169   9.672   7.593
 2079POPC   C1B29875  15.240  10.086   8.857
 2079POPC   C2B29876  15.033  10.148   8.475
 2079POPC   C3B29877  15.026  10.154   8.042
 2079POPC   C4B29878  15.284  10.151   7.672
 2080POPC   NC329879  38.034  20.912   9.472
 2080POPC   PO429880  37.936  20.254   9.390
 2080POPC   GL129881  38.043  20.321   8.953
 2080POPC   GL229882  38.201  20.629   9.067
 2080POPC   C1A29883  38.132  20.616   8.564
 2080POPC   D2A29884  38.201  20.925   8.212
 2080POPC   C3A29885  38.257  20.657   7.846
 2080POPC   C4A29886  38.611  20.396   7.721
 2080POPC   C1B29887  38.378  20.988   8.827
 2080POPC   C2B29888  38.649  20.938   8.468
 2080POPC   C3B29889  38.674  20.940   8.014
 2080POPC   C4B29890  38.605  21.357   7.899
 2081POPC   NC329891  35.249   0.900   9.461
 2081POPC   PO429892  35.493   0.237   9.577
 2081POPC   GL129893  35.270   0.316   9.192
 2081POPC   GL229894  35.007   0.608   9.098
 2081POPC   C1A29895  35.415   0.503   8.826
 2081POPC   D2A29896  35.259   0.438   8.444
 2081POPC   C3A29897  35.502   0.499   8.086
 2081POPC   C4A29898  35.296   0.289   7.745
 2081POPC   C1B29899  35.059   0.869   8.701
 2081POPC   C2B29900  35.178   0.885   8.228
 2081POPC   C3B29901  34.941   0.701   7.842
 2081POPC   C4B29902  34.951   0.804   7.378
 2082POPC   NC329903  20.508  15.743   9.462
 2082POPC   PO429904  20.553  15.077   9.487
 2082POPC   GL129905  20.657  15.209   9.075
 2082POPC   GL229906  20.946  14.989   8.995
 2082POPC   C1A29907  20.647  15.304   8.613
 2082POPC   D2A29908  20.243  15.231   8.403
 2082POPC   C3A29909  20.292  15.157   7.959
 2082POPC   C4A29910  20.381  15.338   7.579
 2082POPC   C1B29911  20.589  14.829   8.731
 2082POPC   C2B29912  20.530  14.833   8.270
 2082POPC   C3B29913  20.742  14.940   7.832
 2082POPC   C4B29914  21.179  14.943   7.621
 2083POPC   NC329915  40.061  37.516   9.538
 2083POPC   PO429916  39.671  38.072   9.509
 2083POPC   GL129917  39.937  37.835   9.159
 2083POPC   GL229918  39.907  37.431   9.064
 2083POPC   C1A29919  40.079  37.800   8.726
 2083POPC   D2A29920  40.286  37.660   8.329
 2083POPC   C3A29921  40.145  37.815   7.916
 2083POPC   C4A29922  40.405  38.034   7.602
 2083POPC   C1B29923  39.647  37.529   8.706
 2083POPC   C2B29924  39.779  37.678   8.312
 2083POPC   C3B29925  39.689  37.580   7.904
 2083POPC   C4B29926  39.580  37.501   7.453
 2084POPC   NC329927  32.165   2.646   9.555
 2084POPC   PO429928  32.257   3.290   9.732
 2084POPC   GL129929  32.222   3.071   9.243
 2084POPC   GL229930  32.137   2.696   9.068
 2084POPC   C1A29931  32.151   3.065   8.745
 2084POPC   D2A29932  32.117   2.730   8.459
 2084POPC   C3A29933  32.081   2.982   8.120
 2084POPC   C4A29934  32.245   2.917   7.763
 2084POPC   C1B29935  32.490   2.548   8.811
 2084POPC   C2B29936  32.645   2.428   8.418
 2084POPC   C3B29937  32.521   2.593   8.059
 2084POPC   C4B29938  32.475   2.481   7.655
 2085POPC   NC329939  19.081   7.877   9.567
 2085POPC   PO429940  19.199   8.617   9.546
 2085POPC   GL129941  18.932   8.393   9.211
 2085POPC   GL229942  19.055   8.052   9.104
 2085POPC   C1A29943  18.770   8.295   8.769
 2085POPC   D2A29944  18.926   8.406   8.349
 2085POPC   C3A29945  18.857   8.423   7.879
 2085POPC   C4A29946  19.170   8.129   7.645
 2085POPC   C1B29947  18.777   7.766   8.874
 2085POPC   C2B29948  18.706   7.844   8.446
 2085POPC   C3B29949  18.890   7.982   8.083
 2085POPC   C4B29950  18.697   7.985   7.635
 2086POPC   NC329951  44.932   9.546   9.507
 2086POPC   PO429952  44.359   9.295   9.522
 2086POPC   GL129953  44.470   9.514   9.161
 2086POPC   GL229954  44.599   9.863   9.210
 2086POPC   C1A29955  44.803   9.523   8.862
 2086POPC   D2A29956  44.924   9.722   8.473
 2086POPC   C3A29957  44.846   9.607   8.070
 2086POPC   C4A29958  44.717   9.436   7.697
 2086POPC   C1B29959  44.533   9.927   8.742
 2086POPC   C2B29960  44.413   9.773   8.304
 2086POPC   C3B29961  44.429   9.819   7.835
 2086POPC   C4B29962  44.394  10.022   7.375
 2087POPC   NC329963  31.753  15.983   9.461
 2087POPC   PO429964  31.225  16.256   9.689
 2087POPC   GL129965  31.289  16.006   9.248
 2087POPC   GL229966  31.509  16.166   9.029
 2087POPC   C1A29967  31.414  15.709   8.845
 2087POPC   D2A29968  31.280  15.566   8.410
 2087POPC   C3A29969  31.334  15.810   8.029
 2087POPC   C4A29970  31.532  15.743   7.634
 2087POPC   C1B29971  31.396  16.211   8.598
 2087POPC   C2B29972  31.438  16.338   8.172
 2087POPC   C3B29973  31.658  16.204   7.822
 2087POPC   C4B29974  31.869  16.081   7.439
 2088POPC   NC329975  31.659  12.913   9.945
 2088POPC   PO429976  31.884  12.473   9.441
 2088POPC   GL129977  31.631  12.792   9.211
 2088POPC   GL229978  31.679  13.155   9.313
 2088POPC   C1A29979  31.421  12.788   8.789
 2088POPC   D2A29980  31.485  12.673   8.339
 2088POPC   C3A29981  31.245  12.759   7.991
 2088POPC   C4A29982  31.601  12.637   7.773
 2088POPC   C1B29983  31.662  13.233   8.849
 2088POPC   C2B29984  31.737  13.095   8.429
 2088POPC   C3B29985  31.577  13.217   8.014
 2088POPC   C4B29986  31.225  13.233   7.709
 2089POPC   NC329987  23.811  24.157   9.460
 2089POPC   PO429988  23.524  24.814   9.442
 2089POPC   GL129989  23.731  24.585   9.151
 2089POPC   GL229990  24.070  24.598   9.207
 2089POPC   C1A29991  23.592  24.428   8.770
 2089POPC   D2A29992  23.639  24.653   8.403
 2089POPC   C3A29993  23.875  24.572   8.067
 2089POPC   C4A29994  23.653  24.356   7.787
 2089POPC   C1B29995  24.074  24.297   8.855
 2089POPC   C2B29996  24.128  24.253   8.424
 2089POPC   C3B29997  24.026  24.082   8.040
 2089POPC   C4B29998  24.112  24.113   7.648
 2090POPC   NC329999  27.207  20.377   9.322
 2090POPC   PO430000  27.707  20.910   9.538
 2090POPC   GL130001  27.603  20.710   9.165
 2090POPC   GL230002  27.299  20.857   9.177
 2090POPC   C1A30003  27.653  20.413   8.801
 2090POPC   D2A30004  27.654  20.601   8.384
 2090POPC   C3A30005  27.536  20.426   8.011
 2090POPC   C4A30006  27.276  20.537   7.650
 2090POPC   C1B30007  27.286  20.758   8.741
 2090POPC   C2B30008  27.222  20.870   8.317
 2090POPC   C3B30009  27.451  20.920   7.942
 2090POPC   C4B30010  27.236  21.069   7.595
 2091POPC   NC330011  28.608  33.583   9.743
 2091POPC   PO430012  28.154  33.089   9.504
 2091POPC   GL130013  28.264  32.938   9.113
 2091POPC   GL230014  28.615  32.871   9.163
 2091POPC   C1A30015  28.315  33.110   8.710
 2091POPC   D2A30016  28.384  33.361   8.348
 2091POPC   C3A30017  28.402  33.115   7.975
 2091POPC   C4A30018  28.060  33.089   7.690
 2091POPC   C1B30019  28.615  32.693   8.739
 2091POPC   C2B30020  28.788  32.831   8.317
 2091POPC   C3B30021  28.704  32.645   7.906
 2091POPC   C4B30022  28.484  32.764   7.550
 2092POPC   NC330023  41.397  39.434   9.613
 2092POPC   PO430024  41.257  38.823   9.405
 2092POPC   GL130025  41.397  39.014   9.096
 2092POPC   GL230026  41.591  39.280   9.161
 2092POPC   C1A30027  41.277  39.221   8.733
 2092POPC   D2A30028  41.258  39.514   8.436
 2092POPC   C3A30029  41.426  39.423   8.064
 2092POPC   C4A30030  41.771  39.573   7.883
 2092POPC   C1B30031  41.797  39.139   8.788
 2092POPC   C2B30032  41.871  39.291   8.394
 2092POPC   C3B30033  41.812  39.091   8.035
 2092POPC   C4B30034  41.709  38.929   7.695
 2093POPC   NC330035   7.685  29.960   9.705
 2093POPC   PO430036   7.153  30.205   9.450
 2093POPC   GL130037   7.418  30.044   9.127
 2093POPC   GL230038   7.673  29.809   9.208
 2093POPC   C1A30039   7.277  30.001   8.733
 2093POPC   D2A30040   7.239  29.840   8.331
 2093POPC   C3A30041   7.462  29.997   7.994
 2093POPC   C4A30042   7.205  29.945   7.680
 2093POPC   C1B30043   7.844  29.960   8.845
 2093POPC   C2B30044   7.740  29.958   8.446
 2093POPC   C3B30045   7.958  30.109   8.114
 2093POPC   C4B30046   7.901  29.991   7.697
 2094POPC   NC330047  28.937  34.262   9.442
 2094POPC   PO430048  29.486  34.674   9.552
 2094POPC   GL130049  29.328  34.556   9.172
 2094POPC   GL230050  29.010  34.677   9.143
 2094POPC   C1A30051  29.282  34.585   8.728
 2094POPC   D2A30052  29.477  34.373   8.455
 2094POPC   C3A30053  29.253  34.499   8.123
 2094POPC   C4A30054  29.401  34.573   7.734
 2094POPC   C1B30055  28.817  34.450   8.832
 2094POPC   C2B30056  28.754  34.515   8.434
 2094POPC   C3B30057  28.725  34.263   8.071
 2094POPC   C4B30058  28.905  34.504   7.745
 2095POPC   NC330059  33.741  23.469   9.518
 2095POPC   PO430060  33.585  24.152   9.731
 2095POPC   GL130061  33.873  24.088   9.297
 2095POPC   GL230062  33.966  23.750   9.133
 2095POPC   C1A30063  33.948  24.121   8.786
 2095POPC   D2A30064  34.087  23.941   8.344
 2095POPC   C3A30065  33.781  23.968   7.951
 2095POPC   C4A30066  33.626  23.951   7.509
 2095POPC   C1B30067  34.087  23.505   8.760
 2095POPC   C2B30068  34.110  23.356   8.317
 2095POPC   C3B30069  33.863  23.454   7.982
 2095POPC   C4B30070  33.876  23.493   7.509
 2096POPC   NC330071   7.408  12.372   9.644
 2096POPC   PO430072   6.956  12.055   9.323
 2096POPC   GL130073   7.275  12.218   9.089
 2096POPC   GL230074   7.077  12.502   8.994
 2096POPC   C1A30075   7.547  12.017   8.748
 2096POPC   D2A30076   7.695  11.803   8.400
 2096POPC   C3A30077   7.566  12.008   8.056
 2096POPC   C4A30078   7.399  11.778   7.738
 2096POPC   C1B30079   7.011  12.250   8.643
 2096POPC   C2B30080   7.088  12.077   8.259
 2096POPC   C3B30081   7.062  12.177   7.835
 2096POPC   C4B30082   6.793  12.272   7.464
 2097POPC   NC330083  18.640  10.200   9.479
 2097POPC   PO430084  18.680  10.902   9.432
 2097POPC   GL130085  18.450  10.611   9.238
 2097POPC   GL230086  18.134  10.683   9.083
 2097POPC   C1A30087  18.519  10.475   8.857
 2097POPC   D2A30088  18.232  10.505   8.536
 2097POPC   C3A30089  18.437  10.343   8.197
 2097POPC   C4A30090  18.398  10.382   7.758
 2097POPC   C1B30091  17.881  10.892   8.761
 2097POPC   C2B30092  17.989  10.954   8.335
 2097POPC   C3B30093  18.242  10.815   7.983
 2097POPC   C4B30094  18.098  10.800   7.534
 2098POPC   NC330095  35.878   6.545   9.357
 2098POPC   PO430096  36.495   6.887   9.310
 2098POPC   GL130097  36.257   6.712   9.001
 2098POPC   GL230098  36.260   6.358   9.018
 2098POPC   C1A30099  35.960   6.588   8.671
 2098POPC   D2A30100  35.799   6.724   8.264
 2098POPC   C3A30101  36.002   6.562   7.882
 2098POPC   C4A30102  35.975   6.697   7.447
 2098POPC   C1B30103  36.494   6.474   8.618
 2098POPC   C2B30104  36.479   6.513   8.143
 2098POPC   C3B30105  36.498   6.288   7.722
 2098POPC   C4B30106  36.394   6.351   7.273
 2099POPC   NC330107  37.226  28.464   9.487
 2099POPC   PO430108  36.584  28.350   9.678
 2099POPC   GL130109  36.676  28.330   9.203
 2099POPC   GL230110  36.927  28.104   9.175
 2099POPC   C1A30111  36.923  28.511   8.782
 2099POPC   D2A30112  37.114  28.404   8.366
 2099POPC   C3A30113  37.124  28.677   8.014
 2099POPC   C4A30114  36.802  28.604   7.722
 2099POPC   C1B30115  37.123  28.054   8.764
 2099POPC   C2B30116  37.165  27.890   8.403
 2099POPC   C3B30117  36.839  27.928   8.123
 2099POPC   C4B30118  36.948  28.097   7.739
 2100POPC   NC330119  42.889  34.057   9.537
 2100POPC   PO430120  43.165  33.376   9.524
 2100POPC   GL130121  43.162  33.736   9.197
 2100POPC   GL230122  43.468  33.595   9.151
 2100POPC   C1A30123  43.001  33.870   8.745
 2100POPC   D2A30124  42.844  34.008   8.313
 2100POPC   C3A30125  43.008  33.809   7.946
 2100POPC   C4A30126  43.303  33.929   7.616
 2100POPC   C1B30127  43.482  33.749   8.741
 2100POPC   C2B30128  43.345  33.819   8.342
 2100POPC   C3B30129  43.441  33.574   7.981
 2100POPC   C4B30130  43.769  33.724   7.784
 2101POPC   NC330131   9.555  20.870   9.395
 2101POPC   PO430132   8.958  20.960   9.656
 2101POPC   GL130133   9.011  20.635   9.256
 2101POPC   GL230134   9.281  20.457   9.156
 2101POPC   C1A30135   8.910  20.473   8.800
 2101POPC   D2A30136   8.809  20.219   8.431
 2101POPC   C3A30137   8.733  20.535   8.098
 2101POPC   C4A30138   8.861  20.591   7.689
 2101POPC   C1B30139   9.217  20.878   8.850
 2101POPC   C2B30140   9.336  21.011   8.410
 2101POPC   C3B30141   9.432  20.929   7.972
 2101POPC   C4B30142   9.308  20.887   7.526
 2102POPC   NC330143   9.915  22.486   9.580
 2102POPC   PO430144   9.444  22.076   9.766
 2102POPC   GL130145   9.608  22.187   9.276
 2102POPC   GL230146   9.982  22.233   9.163
 2102POPC   C1A30147   9.664  22.053   8.817
 2102POPC   D2A30148   9.450  22.268   8.480
 2102POPC   C3A30149   9.649  22.256   8.076
 2102POPC   C4A30150   9.559  22.395   7.717
 2102POPC   C1B30151  10.096  22.335   8.766
 2102POPC   C2B30152  10.000  22.106   8.412
 2102POPC   C3B30153  10.166  22.282   8.037
 2102POPC   C4B30154  10.073  22.397   7.638
 2103POPC   NC330155  17.698  24.836   9.860
 2103POPC   PO430156  18.061  24.492   9.632
 2103POPC   GL130157  17.851  24.450   9.169
 2103POPC   GL230158  17.917  24.179   8.904
 2103POPC   C1A30159  17.522  24.574   8.821
 2103POPC   D2A30160  17.459  24.765   8.378
 2103POPC   C3A30161  17.242  24.576   7.991
 2103POPC   C4A30162  17.364  24.265   7.680
 2103POPC   C1B30163  17.912  24.451   8.519
 2103POPC   C2B30164  18.165  24.634   8.179
 2103POPC   C3B30165  18.147  24.659   7.732
 2103POPC   C4B30166  17.818  24.435   7.509
 2104POPC   NC330167  21.089   2.478   9.342
 2104POPC   PO430168  21.550   2.887   9.453
 2104POPC   GL130169  21.381   2.822   9.079
 2104POPC   GL230170  21.692   2.981   8.980
 2104POPC   C1A30171  21.093   2.810   8.719
 2104POPC   D2A30172  21.292   2.720   8.289
 2104POPC   C3A30173  21.187   2.807   7.875
 2104POPC   C4A30174  21.100   2.489   7.526
 2104POPC   C1B30175  21.580   2.955   8.621
 2104POPC   C2B30176  21.803   2.686   8.409
 2104POPC   C3B30177  21.911   2.854   8.080
 2104POPC   C4B30178  21.638   3.060   7.826
 2105POPC   NC330179   8.391   1.758   9.464
 2105POPC   PO430180   7.802   1.916   9.573
 2105POPC   GL130181   8.020   1.987   9.168
 2105POPC   GL230182   8.349   2.190   9.150
 2105POPC   C1A30183   8.057   2.141   8.737
 2105POPC   D2A30184   8.138   2.282   8.318
 2105POPC   C3A30185   7.934   2.128   7.979
 2105POPC   C4A30186   8.101   1.724   7.921
 2105POPC   C1B30187   8.507   1.883   8.796
 2105POPC   C2B30188   8.682   1.780   8.374
 2105POPC   C3B30189   8.562   1.970   7.975
 2105POPC   C4B30190   8.354   2.328   7.751
 2106POPC   NC330191  34.087   8.407   9.629
 2106POPC   PO430192  33.618   7.890   9.677
 2106POPC   GL130193  33.914   8.066   9.263
 2106POPC   GL230194  34.005   8.367   9.127
 2106POPC   C1A30195  33.894   7.984   8.797
 2106POPC   D2A30196  33.778   7.822   8.398
 2106POPC   C3A30197  33.855   8.067   8.050
 2106POPC   C4A30198  33.863   8.050   7.609
 2106POPC   C1B30199  33.753   8.475   8.791
 2106POPC   C2B30200  33.919   8.430   8.420
 2106POPC   C3B30201  33.899   8.658   8.074
 2106POPC   C4B30202  33.967   8.536   7.710
 2107POPC   NC330203  33.382  44.122   9.708
 2107POPC   PO430204  33.854  43.736   9.323
 2107POPC   GL130205  33.931  44.098   9.071
 2107POPC   GL230206  33.628  44.256   8.862
 2107POPC   C1A30207  34.136  44.164   8.659
 2107POPC   D2A30208  34.153  43.850   8.320
 2107POPC   C3A30209  33.867  43.876   7.993
 2107POPC   C4A30210  34.044  44.124   7.690
 2107POPC   C1B30211  33.688  43.888   8.600
 2107POPC   C2B30212  33.420  43.804   8.258
 2107POPC   C3B30213  33.366  43.913   7.859
 2107POPC   C4B30214  33.555  44.259   7.724
 2108POPC   NC330215   4.810   4.591   9.899
 2108POPC   PO430216   5.342   4.469   9.503
 2108POPC   GL130217   5.034   4.180   9.318
 2108POPC   GL230218   5.196   3.897   9.185
 2108POPC   C1A30219   4.792   4.171   8.929
 2108POPC   D2A30220   4.715   4.255   8.486
 2108POPC   C3A30221   4.938   4.489   8.180
 2108POPC   C4A30222   4.991   4.476   7.709
 2108POPC   C1B30223   5.307   4.183   8.848
 2108POPC   C2B30224   5.231   4.134   8.418
 2108POPC   C3B30225   5.391   4.224   8.001
 2108POPC   C4B30226   5.319   3.989   7.617
 2109POPC   NC330227  41.235  23.363   9.488
 2109POPC   PO430228  40.763  22.759   9.455
 2109POPC   GL130229  40.959  23.006   9.158
 2109POPC   GL230230  41.306  22.896   9.157
 2109POPC   C1A30231  40.773  23.070   8.756
 2109POPC   D2A30232  40.533  23.138   8.378
 2109POPC   C3A30233  40.666  23.078   7.939
 2109POPC   C4A30234  40.400  23.137   7.555
 2109POPC   C1B30235  41.195  22.778   8.713
 2109POPC   C2B30236  40.992  22.845   8.287
 2109POPC   C3B30237  41.054  22.688   7.835
 2109POPC   C4B30238  40.965  22.524   7.378
 2110POPC   NC330239  33.252  37.173   9.682
 2110POPC   PO430240  33.076  36.863   9.120
 2110POPC   GL130241  33.378  36.886   8.873
 2110POPC   GL230242  33.393  37.241   9.074
 2110POPC   C1A30243  33.170  36.607   8.524
 2110POPC   D2A30244  32.702  36.666   8.388
 2110POPC   C3A30245  32.767  36.824   7.983
 2110POPC   C4A30246  33.207  36.748   7.850
 2110POPC   C1B30247  33.221  37.331   8.680
 2110POPC   C2B30248  33.202  37.077   8.316
 2110POPC   C3B30249  33.069  37.231   7.945
 2110POPC   C4B30250  33.263  37.544   7.830
 2111POPC   NC330251  11.340   1.095   9.407
 2111POPC   PO430252  11.063   0.580   9.778
 2111POPC   GL130253  11.081   0.540   9.304
 2111POPC   GL230254  11.027   0.841   9.083
 2111POPC   C1A30255  11.106   0.409   8.841
 2111POPC   D2A30256  11.158   0.642   8.459
 2111POPC   C3A30257  11.327   0.358   8.149
 2111POPC   C4A30258  11.234   0.309   7.728
 2111POPC   C1B30259  11.431   0.906   8.805
 2111POPC   C2B30260  11.602   0.914   8.386
 2111POPC   C3B30261  11.341   0.864   8.017
 2111POPC   C4B30262  11.364   0.756   7.582
 2112POPC   NC330263   7.475   9.047   9.703
 2112POPC   PO430264   7.168   8.659   9.331
 2112POPC   GL130265   7.366   9.038   9.178
 2112POPC   GL230266   7.683   9.223   9.214
 2112POPC   C1A30267   7.227   9.026   8.763
 2112POPC   D2A30268   7.052   9.142   8.413
 2112POPC   C3A30269   7.182   8.851   8.106
 2112POPC   C4A30270   7.235   8.979   7.709
 2112POPC   C1B30271   7.754   9.046   8.820
 2112POPC   C2B30272   7.599   8.929   8.428
 2112POPC   C3B30273   7.642   9.043   8.030
 2112POPC   C4B30274   7.669   8.726   7.701
 2113POPC   NC330275   1.045  22.960   9.866
 2113POPC   PO430276   1.346  23.168   9.317
 2113POPC   GL130277   1.316  22.982   8.998
 2113POPC   GL230278   1.535  22.747   8.992
 2113POPC   C1A30279   1.243  23.013   8.597
 2113POPC   D2A30280   1.224  23.223   8.267
 2113POPC   C3A30281   1.204  22.885   7.990
 2113POPC   C4A30282   1.555  22.722   7.773
 2113POPC   C1B30283   1.112  22.565   8.790
 2113POPC   C2B30284   0.971  22.594   8.400
 2113POPC   C3B30285   0.748  22.459   8.101
 2113POPC   C4B30286   0.843  22.564   7.726
 2114POPC   NC330287   5.422  10.545   9.462
 2114POPC   PO430288   5.975  10.647   9.767
 2114POPC   GL130289   5.892  10.470   9.284
 2114POPC   GL230290   5.598  10.364   9.046
 2114POPC   C1A30291   6.011  10.496   8.806
 2114POPC   D2A30292   6.183  10.582   8.385
 2114POPC   C3A30293   6.132  10.452   7.957
 2114POPC   C4A30294   6.024  10.687   7.566
 2114POPC   C1B30295   5.530  10.233   8.651
 2114POPC   C2B30296   5.730  10.316   8.248
 2114POPC   C3B30297   5.625  10.482   7.841
 2114POPC   C4B30298   5.572  10.438   7.391
 2115POPC   NC330299  37.257  43.072   9.301
 2115POPC   PO430300  36.698  43.228   9.550
 2115POPC   GL130301  36.679  43.188   9.146
 2115POPC   GL230302  36.671  42.811   9.140
 2115POPC   C1A30303  36.893  43.283   8.774
 2115POPC   D2A30304  36.972  43.475   8.438
 2115POPC   C3A30305  37.204  43.241   8.175
 2115POPC   C4A30306  37.101  43.159   7.767
 2115POPC   C1B30307  36.572  42.914   8.722
 2115POPC   C2B30308  36.790  42.992   8.324
 2115POPC   C3B30309  36.641  42.954   7.896
 2115POPC   C4B30310  36.539  42.880   7.461
 2116POPC   NC330311  36.590   6.427   9.380
 2116POPC   PO430312  37.020   6.762   9.643
 2116POPC   GL130313  37.045   6.600   9.195
 2116POPC   GL230314  36.810   6.769   8.951
 2116POPC   C1A30315  36.980   6.325   8.810
 2116POPC   D2A30316  37.007   6.333   8.345
 2116POPC   C3A30317  36.962   6.419   7.892
 2116POPC   C4A30318  36.847   6.540   7.454
 2116POPC   C1B30319  36.781   7.114   8.655
 2116POPC   C2B30320  36.701   7.080   8.195
 2116POPC   C3B30321  36.910   6.914   7.846
 2116POPC   C4B30322  37.235   6.856   7.558
 2117POPC   NC330323  44.374  40.209   9.388
 2117POPC   PO430324  44.656  39.663   9.700
 2117POPC   GL130325  44.637  39.827   9.221
 2117POPC   GL230326  44.923  40.068   9.178
 2117POPC   C1A30327  44.538  40.015   8.787
 2117POPC   D2A30328  44.343  39.955   8.383
 2117POPC   C3A30329  44.433  40.026   7.963
 2117POPC   C4A30330  44.825  39.933   7.798
 2117POPC   C1B30331  44.967  40.299   8.779
 2117POPC   C2B30332  44.792  40.230   8.347
 2117POPC   C3B30333  44.814  40.431   7.941
 2117POPC   C4B30334  44.970  40.346   7.518
 2118POPC   NC330335  21.798  27.952   9.513
 2118POPC   PO430336  22.344  27.546   9.466
 2118POPC   GL130337  22.192  27.451   9.062
 2118POPC   GL230338  21.909  27.640   9.092
 2118POPC   C1A30339  22.374  27.556   8.654
 2118POPC   D2A30340  22.182  27.490   8.246
 2118POPC   C3A30341  22.300  27.715   7.872
 2118POPC   C4A30342  22.382  27.607   7.468
 2118POPC   C1B30343  21.931  27.800   8.655
 2118POPC   C2B30344  21.921  27.927   8.206
 2118POPC   C3B30345  21.786  27.681   7.852
 2118POPC   C4B30346  21.532  27.379   7.584
 2119POPC   NC330347  31.164   4.207   9.521
 2119POPC   PO430348  30.529   4.356   9.475
 2119POPC   GL130349  30.798   4.275   9.153
 2119POPC   GL230350  31.016   4.571   9.184
 2119POPC   C1A30351  30.605   4.201   8.755
 2119POPC   D2A30352  30.314   4.240   8.411
 2119POPC   C3A30353  30.541   4.169   8.043
 2119POPC   C4A30354  30.804   4.129   7.708
 2119POPC   C1B30355  30.955   4.573   8.754
 2119POPC   C2B30356  30.841   4.443   8.345
 2119POPC   C3B30357  30.941   4.556   7.937
 2119POPC   C4B30358  30.904   4.553   7.457
 2120POPC   NC330359  40.097   0.583   9.414
 2120POPC   PO430360  40.566   0.050   9.498
 2120POPC   GL130361  40.370   0.118   9.094
 2120POPC   GL230362  40.030   0.157   9.148
 2120POPC   C1A30363  40.221   0.432   8.748
 2120POPC   D2A30364  39.901   0.506   8.474
 2120POPC   C3A30365  40.051   0.487   8.100
 2120POPC   C4A30366  39.947   0.397   7.719
 2120POPC   C1B30367  39.693   0.219   8.865
 2120POPC   C2B30368  39.494   0.187   8.477
 2120POPC   C3B30369  39.589   0.273   8.072
 2120POPC   C4B30370  39.707  44.948   7.778
 2121POPC   NC330371  13.756  20.411   9.505
 2121POPC   PO430372  13.233  20.881   9.478
 2121POPC   GL130373  13.560  20.815   9.144
 2121POPC   GL230374  13.889  20.603   9.067
 2121POPC   C1A30375  13.498  20.628   8.728
 2121POPC   D2A30376  13.659  20.443   8.340
 2121POPC   C3A30377  13.480  20.674   7.996
 2121POPC   C4A30378  13.668  20.986   7.708
 2121POPC   C1B30379  13.987  20.745   8.673
 2121POPC   C2B30380  14.031  20.790   8.253
 2121POPC   C3B30381  13.960  20.570   7.865
 2121POPC   C4B30382  13.649  20.334   7.643
 2122POPC   NC330383   9.150  38.093   9.456
 2122POPC   PO430384   8.900  37.450   9.590
 2122POPC   GL130385   8.907  37.668   9.210
 2122POPC   GL230386   8.683  37.950   9.260
 2122POPC   C1A30387   9.000  37.512   8.782
 2122POPC   D2A30388   8.800  37.354   8.414
 2122POPC   C3A30389   8.892  37.554   8.021
 2122POPC   C4A30390   9.210  37.525   7.680
 2122POPC   C1B30391   8.794  38.003   8.821
 2122POPC   C2B30392   8.987  37.926   8.401
 2122POPC   C3B30393   9.186  37.978   7.962
 2122POPC   C4B30394   9.093  37.998   7.497
 2123POPC   NC330395  14.140   2.297   9.442
 2123POPC   PO430396  13.660   2.858   9.559
 2123POPC   GL130397  13.528   2.710   9.180
 2123POPC   GL230398  13.623   2.378   9.260
 2123POPC   C1A30399  13.488   2.803   8.751
 2123POPC   D2A30400  13.256   2.897   8.388
 2123POPC   C3A30401  13.470   2.772   8.008
 2123POPC   C4A30402  13.439   2.824   7.574
 2123POPC   C1B30403  13.828   2.406   8.858
 2123POPC   C2B30404  13.715   2.434   8.423
 2123POPC   C3B30405  13.915   2.462   7.992
 2123POPC   C4B30406  13.949   2.707   7.590
 2124POPC   NC330407  43.444  28.858   9.579
 2124POPC   PO430408  42.858  29.130   9.501
 2124POPC   GL130409  43.187  29.114   9.193
 2124POPC   GL230410  43.249  28.764   9.105
 2124POPC   C1A30411  43.264  29.188   8.757
 2124POPC   D2A30412  43.092  29.126   8.325
 2124POPC   C3A30413  43.323  29.392   7.966
 2124POPC   C4A30414  43.473  29.238   7.528
 2124POPC   C1B30415  43.173  28.685   8.684
 2124POPC   C2B30416  43.170  28.575   8.264
 2124POPC   C3B30417  43.340  28.842   7.974
 2124POPC   C4B30418  43.053  29.016   7.766
 2125POPC   NC330419  44.483  19.125   9.711
 2125POPC   PO430420   0.199  19.301   9.738
 2125POPC   GL130421  44.848  19.270   9.340
 2125POPC   GL230422  44.526  19.042   9.226
 2125POPC   C1A30423  44.794  19.238   8.857
 2125POPC   D2A30424  44.916  18.941   8.498
 2125POPC   C3A30425  44.855  19.077   8.076
 2125POPC   C4A30426  44.784  18.908   7.692
 2125POPC   C1B30427  44.358  18.994   8.812
 2125POPC   C2B30428  44.436  19.117   8.375
 2125POPC   C3B30429  44.355  19.155   7.934
 2125POPC   C4B30430  44.331  18.994   7.507
 2126POPC   NC330431  41.368  24.221   9.415
 2126POPC   PO430432  41.557  24.856   9.309
 2126POPC   GL130433  41.529  24.558   9.043
 2126POPC   GL230434  41.167  24.558   9.013
 2126POPC   C1A30435  41.560  24.623   8.622
 2126POPC   D2A30436  41.806  24.413   8.296
 2126POPC   C3A30437  41.620  24.594   7.960
 2126POPC   C4A30438  41.682  24.682   7.571
 2126POPC   C1B30439  41.147  24.244   8.731
 2126POPC   C2B30440  41.288  24.324   8.326
 2126POPC   C3B30441  41.460  24.121   8.004
 2126POPC   C4B30442  41.328  24.216   7.574
 2127POPC   NC330443  18.211  30.465   9.429
 2127POPC   PO430444  18.574  30.929   9.710
 2127POPC   GL130445  18.452  30.918   9.203
 2127POPC   GL230446  18.114  30.801   9.057
 2127POPC   C1A30447  18.503  30.828   8.744
 2127POPC   D2A30448  18.229  30.874   8.427
 2127POPC   C3A30449  18.399  30.780   8.029
 2127POPC   C4A30450  18.312  30.956   7.614
 2127POPC   C1B30451  18.130  30.469   8.746
 2127POPC   C2B30452  18.255  30.364   8.322
 2127POPC   C3B30453  18.098  30.372   7.901
 2127POPC   C4B30454  18.203  30.123   7.514
 2128POPC   NC330455   7.287  18.047   9.343
 2128POPC   PO430456   7.682  18.687   9.484
 2128POPC   GL130457   7.557  18.441   9.149
 2128POPC   GL230458   7.283  18.539   8.922
 2128POPC   C1A30459   7.627  18.192   8.788
 2128POPC   D2A30460   7.496  18.130   8.379
 2128POPC   C3A30461   7.707  18.097   8.026
 2128POPC   C4A30462   7.689  18.411   7.767
 2128POPC   C1B30463   7.112  18.143   8.716
 2128POPC   C2B30464   7.001  18.147   8.313
 2128POPC   C3B30465   7.141  18.436   8.021
 2128POPC   C4B30466   7.253  18.139   7.770
 2129POPC   NC330467  34.930  25.572   9.363
 2129POPC   PO430468  34.440  25.160   9.477
 2129POPC   GL130469  34.640  25.182   9.111
 2129POPC   GL230470  34.750  24.871   8.949
 2129POPC   C1A30471  34.627  25.386   8.761
 2129POPC   D2A30472  34.548  25.476   8.355
 2129POPC   C3A30473  34.634  25.172   8.068
 2129POPC   C4A30474  34.735  25.375   7.735
 2129POPC   C1B30475  34.399  24.938   8.638
 2129POPC   C2B30476  34.190  25.057   8.263
 2129POPC   C3B30477  34.111  24.915   7.828
 2129POPC   C4B30478  34.217  24.859   7.362
 2130POPC   NC330479   7.920  19.116   9.458
 2130POPC   PO430480   8.510  18.713   9.518
 2130POPC   GL130481   8.387  19.042   9.173
 2130POPC   GL230482   8.056  18.965   9.009
 2130POPC   C1A30483   8.375  19.201   8.708
 2130POPC   D2A30484   8.086  19.054   8.358
 2130POPC   C3A30485   8.227  19.143   7.950
 2130POPC   C4A30486   8.636  19.369   7.953
 2130POPC   C1B30487   7.802  19.263   8.721
 2130POPC   C2B30488   7.749  19.400   8.230
 2130POPC   C3B30489   7.798  19.339   7.740
 2130POPC   C4B30490   7.904  19.293   7.274
 2131POPC   NC330491  40.630  42.508   9.582
 2131POPC   PO430492  41.144  42.057   9.609
 2131POPC   GL130493  40.898  42.225   9.197
 2131POPC   GL230494  40.538  42.410   9.100
 2131POPC   C1A30495  40.834  42.166   8.742
 2131POPC   D2A30496  40.627  42.167   8.362
 2131POPC   C3A30497  40.884  42.106   8.075
 2131POPC   C4A30498  41.102  42.310   7.773
 2131POPC   C1B30499  40.391  42.479   8.683
 2131POPC   C2B30500  40.215  42.469   8.273
 2131POPC   C3B30501  40.470  42.365   7.907
 2131POPC   C4B30502  40.505  41.967   7.730
 2132POPC   NC330503  12.777  25.680   9.648
 2132POPC   PO430504  12.412  25.096   9.524
 2132POPC   GL130505  12.671  25.285   9.139
 2132POPC   GL230506  12.972  25.455   9.040
 2132POPC   C1A30507  12.649  25.460   8.684
 2132POPC   D2A30508  12.927  25.432   8.359
 2132POPC   C3A30509  12.671  25.562   8.074
 2132POPC   C4A30510  12.766  25.294   7.809
 2132POPC   C1B30511  13.086  25.766   8.699
 2132POPC   C2B30512  13.060  25.931   8.273
 2132POPC   C3B30513  13.121  25.728   7.907
 2132POPC   C4B30514  12.969  25.657   7.489
 2133POPC   NC330515   5.945   2.344   9.592
 2133POPC   PO430516   6.098   3.005   9.550
 2133POPC   GL130517   5.792   2.781   9.265
 2133POPC   GL230518   5.495   2.987   9.177
 2133POPC   C1A30519   5.685   2.655   8.817
 2133POPC   D2A30520   5.490   2.550   8.369
 2133POPC   C3A30521   5.707   2.711   7.966
 2133POPC   C4A30522   6.071   2.882   7.723
 2133POPC   C1B30523   5.779   3.172   8.894
 2133POPC   C2B30524   5.922   3.207   8.483
 2133POPC   C3B30525   5.853   3.248   8.063
 2133POPC   C4B30526   5.691   3.196   7.665
 2134POPC   NC330527  12.466   2.500   9.757
 2134POPC   PO430528  12.132   2.982   9.409
 2134POPC   GL130529  12.187   2.658   9.115
 2134POPC   GL230530  12.441   2.476   9.250
 2134POPC   C1A30531  12.074   2.741   8.726
 2134POPC   D2A30532  12.302   2.954   8.448
 2134POPC   C3A30533  12.176   2.747   8.099
 2134POPC   C4A30534  12.255   2.913   7.708
 2134POPC   C1B30535  12.515   2.378   8.834
 2134POPC   C2B30536  12.343   2.383   8.447
 2134POPC   C3B30537  12.533   2.385   8.061
 2134POPC   C4B30538  12.345   2.414   7.726
 2135POPC   NC330539  26.320  16.360   9.422
 2135POPC   PO430540  25.756  15.906   9.406
 2135POPC   GL130541  26.001  16.066   9.150
 2135POPC   GL230542  25.739  16.181   8.939
 2135POPC   C1A30543  26.244  16.017   8.810
 2135POPC   D2A30544  26.274  16.298   8.484
 2135POPC   C3A30545  26.154  16.123   8.109
 2135POPC   C4A30546  26.330  15.831   7.786
 2135POPC   C1B30547  25.798  15.862   8.599
 2135POPC   C2B30548  25.816  15.746   8.148
 2135POPC   C3B30549  25.834  15.934   7.740
 2135POPC   C4B30550  25.780  15.740   7.310
 2136POPC   NC330551  36.138  12.341   9.513
 2136POPC   PO430552  36.454  11.805   9.266
 2136POPC   GL130553  36.066  11.992   9.048
 2136POPC   GL230554  35.835  12.287   9.123
 2136POPC   C1A30555  36.023  12.278   8.643
 2136POPC   D2A30556  36.048  12.335   8.199
 2136POPC   C3A30557  36.297  11.997   8.030
 2136POPC   C4A30558  36.104  11.628   7.821
 2136POPC   C1B30559  35.599  12.081   8.801
 2136POPC   C2B30560  35.580  12.123   8.408
 2136POPC   C3B30561  35.755  11.914   8.079
 2136POPC   C4B30562  35.901  12.124   7.718
 2137POPC   NC330563  18.184  42.535   9.960
 2137POPC   PO430564  17.945  41.976   9.618
 2137POPC   GL130565  18.137  42.078   9.227
 2137POPC   GL230566  18.495  42.184   9.267
 2137POPC   C1A30567  18.096  42.334   8.867
 2137POPC   D2A30568  18.239  42.296   8.449
 2137POPC   C3A30569  18.047  42.489   8.100
 2137POPC   C4A30570  18.105  42.298   7.713
 2137POPC   C1B30571  18.598  42.178   8.818
 2137POPC   C2B30572  18.735  42.323   8.396
 2137POPC   C3B30573  18.549  42.422   8.013
 2137POPC   C4B30574  18.628  42.454   7.595
 2138POPC   NC330575  43.777   2.508   9.538
 2138POPC   PO430576  44.406   2.682   9.599
 2138POPC   GL130577  44.172   2.521   9.201
 2138POPC   GL230578  43.904   2.725   9.088
 2138POPC   C1A30579  44.123   2.412   8.761
 2138POPC   D2A30580  44.003   2.587   8.370
 2138POPC   C3A30581  44.093   2.484   7.951
 2138POPC   C4A30582  43.830   2.541   7.593
 2138POPC   C1B30583  44.043   2.973   8.720
 2138POPC   C2B30584  43.936   3.098   8.288
 2138POPC   C3B30585  43.810   2.978   7.864
 2138POPC   C4B30586  43.499   3.010   7.524
 2139POPC   NC330587  18.256  43.237   9.833
 2139POPC   PO430588  18.280  42.625   9.511
 2139POPC   GL130589  18.381  42.970   9.233
 2139POPC   GL230590  18.655  42.719   9.145
 2139POPC   C1A30591  18.300  43.240   8.838
 2139POPC   D2A30592  18.463  43.321   8.406
 2139POPC   C3A30593  18.242  43.435   7.987
 2139POPC   C4A30594  18.119  43.299   7.559
 2139POPC   C1B30595  18.434  42.681   8.806
 2139POPC   C2B30596  18.167  42.826   8.504
 2139POPC   C3B30597  18.257  42.944   8.076
 2139POPC   C4B30598  18.422  42.917   7.661
 2140POPC   NC330599   6.230  41.324   9.687
 2140POPC   PO430600   6.787  41.507   9.482
 2140POPC   GL130601   6.559  41.400   9.122
 2140POPC   GL230602   6.338  41.661   9.175
 2140POPC   C1A30603   6.519  41.377   8.669
 2140POPC   D2A30604   6.278  41.441   8.286
 2140POPC   C3A30605   6.466  41.595   7.920
 2140POPC   C4A30606   6.549  41.574   7.448
 2140POPC   C1B30607   6.451  41.887   8.814
 2140POPC   C2B30608   6.622  41.843   8.414
 2140POPC   C3B30609   6.544  42.153   8.125
 2140POPC   C4B30610   6.632  42.025   7.731
 2141POPC   NC330611  36.845   1.583   9.482
 2141POPC   PO430612  36.896   2.189   9.581
 2141POPC   GL130613  36.679   2.209   9.195
 2141POPC   GL230614  36.533   1.882   9.201
 2141POPC   C1A30615  36.800   2.042   8.791
 2141POPC   D2A30616  36.992   1.900   8.418
 2141POPC   C3A30617  36.944   2.131   8.029
 2141POPC   C4A30618  36.672   2.069   7.708
 2141POPC   C1B30619  36.348   1.799   8.781
 2141POPC   C2B30620  36.543   1.640   8.432
 2141POPC   C3B30621  36.614   1.703   8.045
 2141POPC   C4B30622  36.401   1.628   7.644
 2142POPC   NC330623  40.183  44.793   9.489
 2142POPC   PO430624  39.543  44.546   9.544
 2142POPC   GL130625  39.747  44.736   9.181
 2142POPC   GL230626  40.125  44.633   9.020
 2142POPC   C1A30627  39.704  44.720   8.753
 2142POPC   D2A30628  39.984  44.498   8.486
 2142POPC   C3A30629  39.970  44.546   8.064
 2142POPC   C4A30630  40.132  44.335   7.742
 2142POPC   C1B30631  40.150  44.941   8.685
 2142POPC   C2B30632  39.970   0.015   8.294
 2142POPC   C3B30633  40.192  44.992   7.897
 2142POPC   C4B30634  40.419  44.725   7.594
 2143POPC   NC330635  26.937  14.931   9.385
 2143POPC   PO430636  26.594  15.460   9.212
 2143POPC   GL130637  26.786  15.164   8.965
 2143POPC   GL230638  26.503  14.955   9.015
 2143POPC   C1A30639  26.910  15.143   8.559
 2143POPC   D2A30640  26.859  15.438   8.214
 2143POPC   C3A30641  26.775  15.291   7.834
 2143POPC   C4A30642  26.447  15.320   7.595
 2143POPC   C1B30643  26.412  15.239   8.619
 2143POPC   C2B30644  26.515  15.058   8.242
 2143POPC   C3B30645  26.882  14.857   8.090
 2143POPC   C4B30646  26.909  14.842   7.626
 2144POPC   NC330647  17.793   3.661   9.520
 2144POPC   PO430648  17.227   3.984   9.214
 2144POPC   GL130649  17.483   3.611   9.098
 2144POPC   GL230650  17.251   3.413   8.892
 2144POPC   C1A30651  17.767   3.461   8.767
 2144POPC   D2A30652  17.882   3.720   8.355
 2144POPC   C3A30653  17.767   3.631   7.878
 2144POPC   C4A30654  17.562   3.421   7.469
 2144POPC   C1B30655  17.371   3.730   8.584
 2144POPC   C2B30656  17.324   3.709   8.147
 2144POPC   C3B30657  17.094   3.551   7.803
 2144POPC   C4B30658  17.103   3.250   7.467
 2145POPC   NC330659  21.692  31.162   9.354
 2145POPC   PO430660  21.189  30.776   9.601
 2145POPC   GL130661  21.253  30.665   9.168
 2145POPC   GL230662  21.617  30.661   9.208
 2145POPC   C1A30663  21.253  30.446   8.763
 2145POPC   D2A30664  21.053  30.567   8.378
 2145POPC   C3A30665  21.177  30.889   8.070
 2145POPC   C4A30666  20.998  30.550   7.778
 2145POPC   C1B30667  21.609  30.817   8.777
 2145POPC   C2B30668  21.692  30.616   8.364
 2145POPC   C3B30669  21.474  30.501   7.987
 2145POPC   C4B30670  21.388  30.815   7.587
 2146POPC   NC330671   6.475  18.383   9.674
 2146POPC   PO430672   6.986  18.400   9.293
 2146POPC   GL130673   6.587  18.502   9.182
 2146POPC   GL230674   6.459  18.160   9.134
 2146POPC   C1A30675   6.498  18.565   8.763
 2146POPC   D2A30676   6.717  18.548   8.383
 2146POPC   C3A30677   6.633  18.327   7.984
 2146POPC   C4A30678   6.764  18.543   7.632
 2146POPC   C1B30679   6.603  18.083   8.681
 2146POPC   C2B30680   6.624  17.814   8.291
 2146POPC   C3B30681   6.851  17.852   7.922
 2146POPC   C4B30682   6.834  18.044   7.510
 2147POPC   NC330683  20.638  34.221   9.654
 2147POPC   PO430684  20.300  33.579   9.549
 2147POPC   GL130685  20.571  33.855   9.288
 2147POPC   GL230686  20.913  33.778   9.208
 2147POPC   C1A30687  20.585  33.951   8.848
 2147POPC   D2A30688  20.634  33.772   8.419
 2147POPC   C3A30689  20.680  34.023   8.057
 2147POPC   C4A30690  20.567  34.011   7.646
 2147POPC   C1B30691  20.891  33.528   8.794
 2147POPC   C2B30692  20.905  33.364   8.313
 2147POPC   C3B30693  20.688  33.520   7.879
 2147POPC   C4B30694  20.776  33.607   7.406
 2148POPC   NC330695  18.506  20.147   9.668
 2148POPC   PO430696  18.168  19.594   9.440
 2148POPC   GL130697  18.437  19.717   9.207
 2148POPC   GL230698  18.408  20.055   9.174
 2148POPC   C1A30699  18.368  19.725   8.768
 2148POPC   D2A30700  18.074  19.736   8.448
 2148POPC   C3A30701  18.189  19.504   8.149
 2148POPC   C4A30702  18.185  19.772   7.860
 2148POPC   C1B30703  18.563  20.201   8.771
 2148POPC   C2B30704  18.414  20.175   8.344
 2148POPC   C3B30705  18.607  20.039   7.958
 2148POPC   C4B30706  18.760  20.279   7.591
 2149POPC   NC330707  29.896   2.253   9.419
 2149POPC   PO430708  30.133   2.854   9.521
 2149POPC   GL130709  29.932   2.884   9.142
 2149POPC   GL230710  29.593   2.776   9.238
 2149POPC   C1A30711  30.006   2.914   8.707
 2149POPC   D2A30712  29.835   2.756   8.324
 2149POPC   C3A30713  30.117   2.860   8.019
 2149POPC   C4A30714  30.064   3.215   7.811
 2149POPC   C1B30715  29.538   2.729   8.784
 2149POPC   C2B30716  29.514   2.391   8.488
 2149POPC   C3B30717  29.571   2.322   8.058
 2149POPC   C4B30718  29.698   2.668   7.770
 2150POPC   NC330719   5.969  21.009   9.481
 2150POPC   PO430720   5.580  21.558   9.267
 2150POPC   GL130721   5.953  21.574   9.073
 2150POPC   GL230722   5.994  21.259   9.068
 2150POPC   C1A30723   6.038  21.503   8.643
 2150POPC   D2A30724   6.044  21.691   8.313
 2150POPC   C3A30725   5.798  21.496   8.037
 2150POPC   C4A30726   5.654  21.371   7.671
 2150POPC   C1B30727   6.163  21.017   8.779
 2150POPC   C2B30728   6.171  21.063   8.371
 2150POPC   C3B30729   5.961  21.017   8.030
 2150POPC   C4B30730   6.055  21.053   7.636
 2151POPC   NC330731  33.595  32.238   9.645
 2151POPC   PO430732  34.245  31.950   9.466
 2151POPC   GL130733  33.856  32.114   9.197
 2151POPC   GL230734  33.619  32.445   9.195
 2151POPC   C1A30735  33.672  32.017   8.785
 2151POPC   D2A30736  33.380  32.020   8.403
 2151POPC   C3A30737  33.529  32.090   7.981
 2151POPC   C4A30738  33.957  32.126   7.857
 2151POPC   C1B30739  33.811  32.558   8.837
 2151POPC   C2B30740  33.828  32.358   8.422
 2151POPC   C3B30741  33.773  32.569   8.038
 2151POPC   C4B30742  33.938  32.590   7.653
 2152POPC   NC330743   2.501  10.865   9.484
 2152POPC   PO430744   2.542  11.550   9.414
 2152POPC   GL130745   2.619  11.235   9.131
 2152POPC   GL230746   2.309  11.126   9.069
 2152POPC   C1A30747   2.879  11.194   8.773
 2152POPC   D2A30748   3.019  11.490   8.487
 2152POPC   C3A30749   2.835  11.351   8.143
 2152POPC   C4A30750   2.839  11.380   7.734
 2152POPC   C1B30751   2.405  10.959   8.659
 2152POPC   C2B30752   2.697  10.896   8.330
 2152POPC   C3B30753   2.547  10.987   7.913
 2152POPC   C4B30754   2.372  11.159   7.542
 2153POPC   NC330755   6.611   7.073   9.438
 2153POPC   PO430756   6.418   7.723   9.599
 2153POPC   GL130757   6.447   7.622   9.115
 2153POPC   GL230758   6.745   7.432   9.092
 2153POPC   C1A30759   6.248   7.708   8.665
 2153POPC   D2A30760   6.135   7.552   8.232
 2153POPC   C3A30761   6.427   7.529   7.865
 2153POPC   C4A30762   6.894   7.465   7.865
 2153POPC   C1B30763   6.564   7.240   8.740
 2153POPC   C2B30764   6.576   7.281   8.302
 2153POPC   C3B30765   6.600   7.038   7.929
 2153POPC   C4B30766   6.657   7.139   7.491
 2154POPC   NC330767  30.960   8.993   9.773
 2154POPC   PO430768  30.541   9.275   9.455
 2154POPC   GL130769  30.695   9.032   9.165
 2154POPC   GL230770  31.025   8.929   9.242
 2154POPC   C1A30771  30.580   9.056   8.734
 2154POPC   D2A30772  30.762   8.898   8.364
 2154POPC   C3A30773  30.647   9.115   7.973
 2154POPC   C4A30774  30.287   9.271   7.767
 2154POPC   C1B30775  31.104   9.086   8.820
 2154POPC   C2B30776  31.209   9.199   8.409
 2154POPC   C3B30777  31.142   8.988   8.024
 2154POPC   C4B30778  31.062   9.258   7.684
 2155POPC   NC330779   4.415  43.787   9.714
 2155POPC   PO430780   3.829  44.170   9.553
 2155POPC   GL130781   4.207  44.076   9.312
 2155POPC   GL230782   4.445  44.331   9.261
 2155POPC   C1A30783   4.369  43.766   9.015
 2155POPC   D2A30784   4.411  43.679   8.576
 2155POPC   C3A30785   4.107  43.763   8.292
 2155POPC   C4A30786   4.148  43.678   7.868
 2155POPC   C1B30787   4.515  44.294   8.816
 2155POPC   C2B30788   4.646  44.134   8.405
 2155POPC   C3B30789   4.427  44.090   8.035
 2155POPC   C4B30790   4.323  44.401   7.753
 2156POPC   NC330791  43.875  38.798   9.471
 2156POPC   PO430792  44.027  38.140   9.434
 2156POPC   GL130793  43.849  38.386   9.116
 2156POPC   GL230794  44.116  38.595   9.045
 2156POPC   C1A30795  43.658  38.653   8.785
 2156POPC   D2A30796  43.673  38.894   8.401
 2156POPC   C3A30797  43.592  38.687   8.017
 2156POPC   C4A30798  43.664  38.615   7.600
 2156POPC   C1B30799  44.070  38.345   8.660
 2156POPC   C2B30800  44.033  38.515   8.271
 2156POPC   C3B30801  44.121  38.565   7.864
 2156POPC   C4B30802  44.244  38.171   7.723
 2157POPC   NC330803  38.172  31.315   9.501
 2157POPC   PO430804  38.722  31.649   9.690
 2157POPC   GL130805  38.633  31.503   9.290
 2157POPC   GL230806  38.804  31.180   9.329
 2157POPC   C1A30807  38.459  31.621   8.876
 2157POPC   D2A30808  38.380  31.712   8.445
 2157POPC   C3A30809  38.290  31.339   8.178
 2157POPC   C4A30810  38.283  31.334   7.741
 2157POPC   C1B30811  38.870  31.297   8.886
 2157POPC   C2B30812  38.700  31.256   8.464
 2157POPC   C3B30813  38.827  31.201   8.032
 2157POPC   C4B30814  38.728  31.143   7.588
 2158POPC   NC330815  33.570   5.028   9.536
 2158POPC   PO430816  34.224   5.053   9.541
 2158POPC   GL130817  33.934   5.179   9.187
 2158POPC   GL230818  33.697   4.900   9.057
 2158POPC   C1A30819  33.926   5.263   8.743
 2158POPC   D2A30820  33.820   5.094   8.338
 2158POPC   C3A30821  33.588   5.344   8.045
 2158POPC   C4A30822  33.794   5.383   7.689
 2158POPC   C1B30823  33.793   4.679   8.670
 2158POPC   C2B30824  33.691   4.591   8.233
 2158POPC   C3B30825  33.673   4.861   7.854
 2158POPC   C4B30826  33.967   4.917   7.479
 2159POPC   NC330827   2.794  44.094   9.418
 2159POPC   PO430828   2.412  43.545   9.449
 2159POPC   GL130829   2.566  43.765   9.107
 2159POPC   GL230830   2.914  43.809   9.017
 2159POPC   C1A30831   2.516  44.060   8.742
 2159POPC   D2A30832   2.337  44.014   8.322
 2159POPC   C3A30833   2.625  43.972   7.953
 2159POPC   C4A30834   2.667  43.759   7.523
 2159POPC   C1B30835   2.981  43.885   8.587
 2159POPC   C2B30836   3.180  43.662   8.258
 2159POPC   C3B30837   3.128  43.776   7.836
 2159POPC   C4B30838   3.085  43.500   7.495
 2160POPC   NC330839   3.922   2.053   9.420
 2160POPC   PO430840   3.259   1.837   9.421
 2160POPC   GL130841   3.498   1.989   9.128
 2160POPC   GL230842   3.785   1.762   9.029
 2160POPC   C1A30843   3.584   2.167   8.774
 2160POPC   D2A30844   3.668   1.952   8.466
 2160POPC   C3A30845   3.647   2.260   8.145
 2160POPC   C4A30846   3.514   2.199   7.743
 2160POPC   C1B30847   3.463   1.578   8.777
 2160POPC   C2B30848   3.302   1.563   8.354
 2160POPC   C3B30849   3.529   1.765   8.009
 2160POPC   C4B30850   3.390   1.745   7.581
 2161POPC   NC330851  14.167  17.985   9.480
 2161POPC   PO430852  14.530  18.595   9.432
 2161POPC   GL130853  14.237  18.395   9.164
 2161POPC   GL230854  14.490  18.198   9.066
 2161POPC   C1A30855  14.113  18.322   8.752
 2161POPC   D2A30856  14.363  18.351   8.405
 2161POPC   C3A30857  14.227  18.307   7.990
 2161POPC   C4A30858  14.512  18.498   7.774
 2161POPC   C1B30859  14.471  17.946   8.715
 2161POPC   C2B30860  14.389  17.841   8.340
 2161POPC   C3B30861  14.624  18.019   8.076
 2161POPC   C4B30862  14.547  17.971   7.685
 2162POPC   NC330863  38.901  33.984   9.445
 2162POPC   PO430864  39.448  33.652   9.552
 2162POPC   GL130865  39.336  33.728   9.146
 2162POPC   GL230866  39.490  34.027   9.166
 2162POPC   C1A30867  39.136  33.829   8.731
 2162POPC   D2A30868  38.945  33.566   8.388
 2162POPC   C3A30869  38.919  33.757   7.944
 2162POPC   C4A30870  38.904  33.690   7.448
 2162POPC   C1B30871  39.560  34.149   8.767
 2162POPC   C2B30872  39.386  34.173   8.366
 2162POPC   C3B30873  39.517  34.126   7.951
 2162POPC   C4B30874  39.329  33.856   7.673
 2163POPC   NC330875  31.163  36.472   9.468
 2163POPC   PO430876  30.621  36.139   9.556
 2163POPC   GL130877  30.629  36.113   9.113
 2163POPC   GL230878  30.738  36.461   9.127
 2163POPC   C1A30879  30.722  36.055   8.644
 2163POPC   D2A30880  31.002  35.915   8.292
 2163POPC   C3A30881  31.030  36.011   7.838
 2163POPC   C4A30882  31.109  36.017   7.385
 2163POPC   C1B30883  30.407  36.430   8.793
 2163POPC   C2B30884  30.360  36.295   8.328
 2163POPC   C3B30885  30.552  36.300   7.879
 2163POPC   C4B30886  30.815  36.417   7.491
 2164POPC   NC330887   7.800  35.389   9.486
 2164POPC   PO430888   8.405  35.150   9.469
 2164POPC   GL130889   8.119  35.213   9.148
 2164POPC   GL230890   7.899  34.939   9.131
 2164POPC   C1A30891   8.025  35.491   8.805
 2164POPC   D2A30892   8.352  35.518   8.487
 2164POPC   C3A30893   8.247  35.663   8.089
 2164POPC   C4A30894   8.201  35.469   7.715
 2164POPC   C1B30895   8.084  35.000   8.706
 2164POPC   C2B30896   7.924  35.207   8.327
 2164POPC   C3B30897   7.972  35.048   7.899
 2164POPC   C4B30898   8.019  35.056   7.429
 2165POPC   NC330899   3.898   8.732   9.383
 2165POPC   PO430900   3.220   8.850   9.482
 2165POPC   GL130901   3.495   8.986   9.137
 2165POPC   GL230902   3.584   9.322   9.210
 2165POPC   C1A30903   3.688   9.027   8.705
 2165POPC   D2A30904   3.802   8.908   8.300
 2165POPC   C3A30905   3.445   8.851   8.040
 2165POPC   C4A30906   3.343   9.031   7.679
 2165POPC   C1B30907   3.408   9.428   8.784
 2165POPC   C2B30908   3.495   9.330   8.300
 2165POPC   C3B30909   3.767   9.216   7.892
 2165POPC   C4B30910   3.689   9.264   7.395
 2166POPC   NC330911  16.309   4.104   9.708
 2166POPC   PO430912  16.295   4.618   9.323
 2166POPC   GL130913  16.567   4.288   9.287
 2166POPC   GL230914  16.779   4.491   9.142
 2166POPC   C1A30915  16.594   4.090   8.885
 2166POPC   D2A30916  16.846   4.013   8.513
 2166POPC   C3A30917  16.686   4.204   8.147
 2166POPC   C4A30918  16.987   4.189   7.839
 2166POPC   C1B30919  16.876   4.668   8.766
 2166POPC   C2B30920  17.033   4.588   8.390
 2166POPC   C3B30921  16.949   4.805   8.062
 2166POPC   C4B30922  16.762   4.625   7.753
 2167POPC   NC330923  43.314   8.896   9.420
 2167POPC   PO430924  42.648   8.718   9.372
 2167POPC   GL130925  42.828   8.976   9.010
 2167POPC   GL230926  43.165   9.136   8.983
 2167POPC   C1A30927  42.926   9.026   8.543
 2167POPC   D2A30928  43.230   8.795   8.282
 2167POPC   C3A30929  43.217   8.797   7.829
 2167POPC   C4A30930  43.309   8.996   7.415
 2167POPC   C1B30931  43.578   9.234   8.795
 2167POPC   C2B30932  43.600   9.356   8.381
 2167POPC   C3B30933  43.331   9.276   8.048
 2167POPC   C4B30934  42.994   9.237   7.760
 2168POPC   NC330935  24.316  17.694   9.692
 2168POPC   PO430936  24.249  17.078   9.737
 2168POPC   GL130937  24.266  17.386   9.313
 2168POPC   GL230938  24.616  17.471   9.302
 2168POPC   C1A30939  24.228  17.374   8.869
 2168POPC   D2A30940  24.394  17.490   8.485
 2168POPC   C3A30941  24.439  17.259   8.103
 2168POPC   C4A30942  24.363  17.472   7.694
 2168POPC   C1B30943  24.706  17.632   8.901
 2168POPC   C2B30944  24.704  17.883   8.531
 2168POPC   C3B30945  24.633  17.759   8.109
 2168POPC   C4B30946  24.926  17.951   7.850
 2169POPC   NC330947  27.230   6.363   9.313
 2169POPC   PO430948  27.005   6.978   9.636
 2169POPC   GL130949  26.820   6.705   9.256
 2169POPC   GL230950  26.496   6.839   9.118
 2169POPC   C1A30951  26.943   6.597   8.771
 2169POPC   D2A30952  26.956   6.733   8.324
 2169POPC   C3A30953  27.123   6.512   7.956
 2169POPC   C4A30954  27.060   6.770   7.601
 2169POPC   C1B30955  26.448   6.512   8.774
 2169POPC   C2B30956  26.520   6.419   8.313
 2169POPC   C3B30957  26.632   6.656   7.916
 2169POPC   C4B30958  26.552   6.797   7.468
 2170POPC   NC330959   4.214   1.261   9.732
 2170POPC   PO430960   4.823   1.456   9.604
 2170POPC   GL130961   4.537   1.422   9.218
 2170POPC   GL230962   4.162   1.395   9.139
 2170POPC   C1A30963   4.544   1.324   8.747
 2170POPC   D2A30964   4.570   1.042   8.342
 2170POPC   C3A30965   4.390   1.057   7.898
 2170POPC   C4A30966   4.529   0.864   7.477
 2170POPC   C1B30967   4.153   1.641   8.698
 2170POPC   C2B30968   4.278   1.459   8.281
 2170POPC   C3B30969   4.199   1.523   7.819
 2170POPC   C4B30970   3.834   1.537   7.506
 2171POPC   NC330971   5.117   8.860   9.670
 2171POPC   PO430972   5.141   9.225   9.113
 2171POPC   GL130973   4.837   8.954   8.960
 2171POPC   GL230974   4.854   8.717   9.204
 2171POPC   C1A30975   4.798   8.941   8.573
 2171POPC   D2A30976   5.144   8.943   8.326
 2171POPC   C3A30977   4.950   9.147   8.013
 2171POPC   C4A30978   5.095   9.347   7.657
 2171POPC   C1B30979   4.848   8.460   8.813
 2171POPC   C2B30980   4.836   8.507   8.328
 2171POPC   C3B30981   5.088   8.588   7.947
 2171POPC   C4B30982   4.990   8.861   7.578
 2172POPC   NC330983  44.794  11.783   9.282
 2172POPC   PO430984  44.496  12.335   9.576
 2172POPC   GL130985  44.492  12.161   9.158
 2172POPC   GL230986  44.847  12.278   9.172
 2172POPC   C1A30987  44.573  12.024   8.695
 2172POPC   D2A30988  44.641  12.162   8.257
 2172POPC   C3A30989  44.431  12.064   7.878
 2172POPC   C4A30990  44.445  12.096   7.410
 2172POPC   C1B30991  44.919  12.432   8.783
 2172POPC   C2B30992   0.017  12.483   8.365
 2172POPC   C3B30993   0.111  12.229   8.002
 2172POPC   C4B30994  44.872  12.166   7.642
 2173POPC   NC330995  43.354  39.022   9.510
 2173POPC   PO430996  42.787  39.355   9.555
 2173POPC   GL130997  43.062  39.251   9.161
 2173POPC   GL230998  43.410  39.413   9.143
 2173POPC   C1A30999  43.233  39.007   8.792
 2173POPC   D2A31000  43.053  39.139   8.375
 2173POPC   C3A31001  43.190  39.022   7.960
 2173POPC   C4A31002  43.034  38.759   7.605
 2173POPC   C1B31003  43.227  39.509   8.692
 2173POPC   C2B31004  43.214  39.598   8.217
 2173POPC   C3B31005  43.447  39.699   7.791
 2173POPC   C4B31006  43.398  39.492   7.377
 2174POPC   NC331007   2.156  11.834   9.496
 2174POPC   PO431008   1.506  12.026   9.319
 2174POPC   GL131009   1.836  12.125   9.119
 2174POPC   GL231010   1.657  12.424   9.011
 2174POPC   C1A31011   2.129  12.123   8.792
 2174POPC   D2A31012   2.191  11.857   8.484
 2174POPC   C3A31013   2.229  11.990   8.052
 2174POPC   C4A31014   1.954  11.749   7.803
 2174POPC   C1B31015   1.614  12.238   8.630
 2174POPC   C2B31016   1.857  12.265   8.271
 2174POPC   C3B31017   1.770  12.224   7.822
 2174POPC   C4B31018   1.677  12.252   7.368
 2175POPC   NC331019  10.151  17.613   9.518
 2175POPC   PO431020  10.631  17.255   9.674
 2175POPC   GL131021  10.608  17.324   9.218
 2175POPC   GL231022  10.846  17.135   9.068
 2175POPC   C1A31023  10.633  17.657   8.858
 2175POPC   D2A31024  10.451  17.892   8.475
 2175POPC   C3A31025  10.217  17.583   8.194
 2175POPC   C4A31026  10.296  17.213   7.874
 2175POPC   C1B31027  10.666  17.149   8.660
 2175POPC   C2B31028  10.711  17.469   8.335
 2175POPC   C3B31029  10.657  17.582   7.898
 2175POPC   C4B31030  10.854  17.297   7.617
 2176POPC   NC331031  28.239  12.128   9.378
 2176POPC   PO431032  27.480  12.056   9.492
 2176POPC   GL131033  27.765  11.982   9.222
 2176POPC   GL231034  27.827  12.317   9.160
 2176POPC   C1A31035  27.691  11.880   8.785
 2176POPC   D2A31036  27.356  11.951   8.464
 2176POPC   C3A31037  27.539  11.838   8.079
 2176POPC   C4A31038  27.578  11.958   7.668
 2176POPC   C1B31039  27.628  12.381   8.789
 2176POPC   C2B31040  27.773  12.245   8.401
 2176POPC   C3B31041  27.633  12.350   8.020
 2176POPC   C4B31042  27.884  12.352   7.664
 2177POPC   NC331043  13.727   8.942   9.475
 2177POPC   PO431044  13.181   9.400   9.311
 2177POPC   GL131045  13.362   9.089   9.049
 2177POPC   GL231046  13.472   8.747   9.074
 2177POPC   C1A31047  13.757   9.114   8.793
 2177POPC   D2A31048  13.859   8.970   8.378
 2177POPC   C3A31049  13.541   8.977   8.077
 2177POPC   C4A31050  13.669   9.113   7.683
 2177POPC   C1B31051  13.388   8.807   8.610
 2177POPC   C2B31052  13.538   8.523   8.316
 2177POPC   C3B31053  13.452   8.489   7.903
 2177POPC   C4B31054  13.297   8.773   7.604
 2178POPC   NC331055   8.563  20.752   9.440
 2178POPC   PO431056   7.949  20.872   9.122
 2178POPC   GL131057   8.119  20.564   8.904
 2178POPC   GL231058   8.449  20.544   8.982
 2178POPC   C1A31059   7.944  20.459   8.535
 2178POPC   D2A31060   7.809  20.734   8.225
 2178POPC   C3A31061   8.139  20.575   7.974
 2178POPC   C4A31062   8.013  20.164   7.811
 2178POPC   C1B31063   8.457  20.605   8.531
 2178POPC   C2B31064   8.296  20.929   8.322
 2178POPC   C3B31065   8.459  20.979   7.928
 2178POPC   C4B31066   8.315  20.975   7.543
 2179POPC   NC331067   9.320   5.126   9.468
 2179POPC   PO431068   8.752   4.803   9.464
 2179POPC   GL131069   8.828   4.923   9.062
 2179POPC   GL231070   8.718   5.253   8.963
 2179POPC   C1A31071   8.931   4.841   8.638
 2179POPC   D2A31072   8.868   5.198   8.389
 2179POPC   C3A31073   8.744   5.152   7.969
 2179POPC   C4A31074   8.901   4.988   7.605
 2179POPC   C1B31075   9.170   5.229   8.841
 2179POPC   C2B31076   9.404   5.231   8.471
 2179POPC   C3B31077   9.274   5.239   8.037
 2179POPC   C4B31078   9.062   5.506   7.744
 2180POPC   NC331079  23.520  41.360   9.414
 2180POPC   PO431080  23.623  42.004   9.667
 2180POPC   GL131081  23.923  41.596   9.255
 2180POPC   GL231082  23.804  41.324   9.020
 2180POPC   C1A31083  24.037  41.628   8.728
 2180POPC   D2A31084  24.001  41.530   8.279
 2180POPC   C3A31085  23.808  41.823   7.994
 2180POPC   C4A31086  24.063  42.128   7.814
 2180POPC   C1B31087  23.687  41.264   8.624
 2180POPC   C2B31088  23.835  41.071   8.264
 2180POPC   C3B31089  23.720  41.274   7.841
 2180POPC   C4B31090  23.452  41.261   7.424
 2181POPC   NC331091   6.728  31.853   9.406
 2181POPC   PO431092   6.212  32.309   9.546
 2181POPC   GL131093   6.491  32.204   9.133
 2181POPC   GL231094   6.671  31.862   8.908
 2181POPC   C1A31095   6.838  32.325   8.861
 2181POPC   D2A31096   6.810  32.455   8.438
 2181POPC   C3A31097   6.907  32.159   8.125
 2181POPC   C4A31098   6.859  32.276   7.703
 2181POPC   C1B31099   6.404  32.086   8.638
 2181POPC   C2B31100   6.254  31.955   8.261
 2181POPC   C3B31101   6.473  31.994   7.901
 2181POPC   C4B31102   6.363  32.243   7.622
 2182POPC   NC331103  15.561  27.016   9.570
 2182POPC   PO431104  16.177  26.835   9.544
 2182POPC   GL131105  15.866  26.853   9.164
 2182POPC   GL231106  15.521  26.663   9.201
 2182POPC   C1A31107  15.896  27.029   8.724
 2182POPC   D2A31108  16.190  27.012   8.348
 2182POPC   C3A31109  16.143  27.161   7.901
 2182POPC   C4A31110  16.073  26.915   7.529
 2182POPC   C1B31111  15.606  26.594   8.767
 2182POPC   C2B31112  15.819  26.635   8.385
 2182POPC   C3B31113  15.825  26.794   7.985
 2182POPC   C4B31114  15.597  26.782   7.603
 2183POPC   NC331115  11.669  15.705   9.790
 2183POPC   PO431116  11.837  16.243   9.417
 2183POPC   GL131117  11.654  16.202   9.072
 2183POPC   GL231118  11.935  16.403   8.922
 2183POPC   C1A31119  11.717  15.995   8.688
 2183POPC   D2A31120  11.876  16.108   8.329
 2183POPC   C3A31121  11.686  15.921   7.997
 2183POPC   C4A31122  11.914  15.762   7.663
 2183POPC   C1B31123  12.238  16.132   8.723
 2183POPC   C2B31124  12.526  15.953   8.412
 2183POPC   C3B31125  12.506  16.058   7.989
 2183POPC   C4B31126  12.118  16.214   7.899
 2184POPC   NC331127   7.080  29.755   9.358
 2184POPC   PO431128   6.495  29.745   9.651
 2184POPC   GL131129   6.506  29.938   9.193
 2184POPC   GL231130   6.835  30.098   9.058
 2184POPC   C1A31131   6.433  30.067   8.755
 2184POPC   D2A31132   6.812  30.138   8.465
 2184POPC   C3A31133   6.782  30.034   8.039
 2184POPC   C4A31134   6.747  30.289   7.689
 2184POPC   C1B31135   6.815  29.734   8.781
 2184POPC   C2B31136   6.800  29.600   8.374
 2184POPC   C3B31137   6.970  29.581   7.951
 2184POPC   C4B31138   6.746  29.766   7.587
 2185POPC   NC331139  12.161  22.369   9.514
 2185POPC   PO431140  11.938  21.703   9.617
 2185POPC   GL131141  12.022  21.920   9.201
 2185POPC   GL231142  12.249  22.156   8.999
 2185POPC   C1A31143  11.928  21.812   8.777
 2185POPC   D2A31144  11.890  22.054   8.440
 2185POPC   C3A31145  12.068  21.912   8.044
 2185POPC   C4A31146  11.843  21.917   7.710
 2185POPC   C1B31147  11.997  22.429   8.794
 2185POPC   C2B31148  12.030  22.595   8.421
 2185POPC   C3B31149  11.943  22.400   8.066
 2185POPC   C4B31150  12.131  22.330   7.720
 2186POPC   NC331151  10.237  36.808   9.574
 2186POPC   PO431152  10.844  36.969   9.388
 2186POPC   GL131153  10.694  37.029   9.013
 2186POPC   GL231154  10.385  36.840   9.076
 2186POPC   C1A31155  10.572  37.023   8.585
 2186POPC   D2A31156  10.389  36.815   8.261
 2186POPC   C3A31157  10.548  37.106   7.968
 2186POPC   C4A31158  10.655  37.093   7.537
 2186POPC   C1B31159  10.184  37.186   8.864
 2186POPC   C2B31160  10.084  37.173   8.427
 2186POPC   C3B31161  10.073  37.350   8.026
 2186POPC   C4B31162  10.152  37.152   7.625
 2187POPC   NC331163   3.397  29.515   9.556
 2187POPC   PO431164   3.376  28.838   9.440
 2187POPC   GL131165   3.655  28.969   9.096
 2187POPC   GL231166   3.735  29.356   9.141
 2187POPC   C1A31167   3.465  28.942   8.668
 2187POPC   D2A31168   3.274  29.071   8.249
 2187POPC   C3A31169   3.459  28.844   7.899
 2187POPC   C4A31170   3.888  28.698   7.918
 2187POPC   C1B31171   3.864  29.272   8.698
 2187POPC   C2B31172   3.787  29.145   8.246
 2187POPC   C3B31173   3.668  29.301   7.832
 2187POPC   C4B31174   3.332  29.539   7.611
 2188POPC   NC331175  13.140  38.627   9.440
 2188POPC   PO431176  12.530  38.286   9.423
 2188POPC   GL131177  12.874  38.216   9.155
 2188POPC   GL231178  12.762  38.499   9.008
 2188POPC   C1A31179  13.209  38.307   8.828
 2188POPC   D2A31180  13.187  38.165   8.402
 2188POPC   C3A31181  13.032  38.413   8.062
 2188POPC   C4A31182  13.163  38.295   7.666
 2188POPC   C1B31183  12.714  38.222   8.675
 2188POPC   C2B31184  12.721  38.039   8.290
 2188POPC   C3B31185  12.704  38.112   7.820
 2188POPC   C4B31186  12.698  38.501   7.608
 2189POPC   NC331187   0.118  16.198   9.579
 2189POPC   PO431188  44.959  15.603   9.275
 2189POPC   GL131189  44.892  15.904   9.023
 2189POPC   GL231190  44.579  15.959   8.893
 2189POPC   C1A31191   0.031  16.106   8.693
 2189POPC   D2A31192  44.711  16.096   8.418
 2189POPC   C3A31193  44.814  16.005   8.035
 2189POPC   C4A31194  44.571  15.850   7.749
 2189POPC   C1B31195  44.428  16.366   8.760
 2189POPC   C2B31196  44.437  16.523   8.333
 2189POPC   C3B31197  44.498  16.399   7.916
 2189POPC   C4B31198  44.206  16.199   7.664
 2190POPC   NC331199  14.722   0.968   9.705
 2190POPC   PO431200  14.321   1.473   9.447
 2190POPC   GL131201  14.371   1.253   9.076
 2190POPC   GL231202  14.411   0.921   9.155
 2190POPC   C1A31203  14.247   1.214   8.651
 2190POPC   D2A31204  14.141   1.269   8.218
 2190POPC   C3A31205  14.476   1.240   7.916
 2190POPC   C4A31206  14.433   1.160   7.482
 2190POPC   C1B31207  14.407   0.734   8.726
 2190POPC   C2B31208  14.389   0.822   8.258
 2190POPC   C3B31209  14.364   0.747   7.793
 2190POPC   C4B31210  14.409   0.690   7.300
 2191POPC   NC331211  25.520  33.920   9.381
 2191POPC   PO431212  25.169  34.491   9.499
 2191POPC   GL131213  25.352  34.469   9.120
 2191POPC   GL231214  25.686  34.648   9.162
 2191POPC   C1A31215  25.230  34.557   8.676
 2191POPC   D2A31216  25.162  34.695   8.259
 2191POPC   C3A31217  25.276  34.414   7.969
 2191POPC   C4A31218  25.098  34.495   7.615
 2191POPC   C1B31219  25.724  34.440   8.783
 2191POPC   C2B31220  25.703  34.687   8.419
 2191POPC   C3B31221  25.735  34.639   8.000
 2191POPC   C4B31222  25.448  34.862   7.767
 2192POPC   NC331223  19.739   2.262   9.553
 2192POPC   PO431224  19.146   2.042   9.514
 2192POPC   GL131225  19.497   1.896   9.230
 2192POPC   GL231226  19.765   2.100   9.070
 2192POPC   C1A31227  19.471   1.870   8.737
 2192POPC   D2A31228  19.385   1.769   8.276
 2192POPC   C3A31229  19.664   1.955   7.940
 2192POPC   C4A31230  19.733   1.751   7.519
 2192POPC   C1B31231  19.977   2.210   8.671
 2192POPC   C2B31232  20.040   2.147   8.232
 2192POPC   C3B31233  20.166   2.163   7.821
 2192POPC   C4B31234  20.215   2.580   7.641
 2193POPC   NC331235  28.769  43.128   9.566
 2193POPC   PO431236  29.377  42.814   9.587
 2193POPC   GL131237  29.107  42.946   9.235
 2193POPC   GL231238  29.086  43.295   9.183
 2193POPC   C1A31239  28.801  43.015   8.870
 2193POPC   D2A31240  28.831  42.759   8.498
 2193POPC   C3A31241  28.898  42.897   8.082
 2193POPC   C4A31242  28.774  43.179   7.804
 2193POPC   C1B31243  29.292  43.103   8.799
 2193POPC   C2B31244  29.125  43.205   8.429
 2193POPC   C3B31245  29.180  43.351   8.020
 2193POPC   C4B31246  29.436  43.165   7.736
 2194POPC   NC331247  11.911  39.346   9.543
 2194POPC   PO431248  12.524  39.167   9.247
 2194POPC   GL131249  12.099  39.098   9.120
 2194POPC   GL231250  11.990  39.389   8.995
 2194POPC   C1A31251  11.943  38.939   8.725
 2194POPC   D2A31252  12.121  38.883   8.329
 2194POPC   C3A31253  11.868  39.015   7.985
 2194POPC   C4A31254  11.975  39.347   7.683
 2194POPC   C1B31255  12.272  39.300   8.601
 2194POPC   C2B31256  12.301  39.310   8.120
 2194POPC   C3B31257  12.475  39.299   7.705
 2194POPC   C4B31258  12.341  39.475   7.290
 2195POPC   NC331259  14.061  30.758   9.686
 2195POPC   PO431260  14.192  30.174   9.405
 2195POPC   GL131261  14.359  30.430   9.050
 2195POPC   GL231262  14.541  30.731   9.124
 2195POPC   C1A31263  14.187  30.742   8.768
 2195POPC   D2A31264  14.342  30.986   8.440
 2195POPC   C3A31265  14.262  30.788   8.106
 2195POPC   C4A31266  14.287  30.853   7.714
 2195POPC   C1B31267  14.706  30.609   8.704
 2195POPC   C2B31268  14.737  30.640   8.258
 2195POPC   C3B31269  14.739  30.630   7.814
 2195POPC   C4B31270  14.800  30.553   7.352
 2196POPC   NC331271   7.574  13.161   9.766
 2196POPC   PO431272   8.158  13.063   9.373
 2196POPC   GL131273   8.367  12.955   9.024
 2196POPC   GL231274   8.684  13.065   9.064
 2196POPC   C1A31275   8.153  13.079   8.651
 2196POPC   D2A31276   8.080  13.190   8.229
 2196POPC   C3A31277   8.144  12.848   7.961
 2196POPC   C4A31278   7.830  12.724   7.621
 2196POPC   C1B31279   8.655  13.264   8.701
 2196POPC   C2B31280   8.557  13.056   8.340
 2196POPC   C3B31281   8.741  13.057   7.992
 2196POPC   C4B31282   8.635  13.160   7.631
 2197POPC   NC331283  29.287   0.814   9.453
 2197POPC   PO431284  29.007   1.489   9.528
 2197POPC   GL131285  28.909   1.428   9.136
 2197POPC   GL231286  28.593   1.446   9.075
 2197POPC   C1A31287  29.176   1.357   8.785
 2197POPC   D2A31288  29.365   0.977   8.604
 2197POPC   C3A31289  29.332   0.964   8.166
 2197POPC   C4A31290  29.194   1.110   7.763
 2197POPC   C1B31291  28.711   1.075   8.810
 2197POPC   C2B31292  28.907   1.123   8.403
 2197POPC   C3B31293  28.808   1.315   8.030
 2197POPC   C4B31294  28.607   1.092   7.735
 2198POPC   NC331295   6.498  38.412   9.544
 2198POPC   PO431296   7.201  38.101   9.469
 2198POPC   GL131297   6.834  38.303   9.181
 2198POPC   GL231298   6.464  38.154   9.123
 2198POPC   C1A31299   6.635  38.501   8.803
 2198POPC   D2A31300   6.448  38.704   8.443
 2198POPC   C3A31301   6.675  38.601   8.078
 2198POPC   C4A31302   6.679  38.520   7.626
 2198POPC   C1B31303   6.288  38.080   8.721
 2198POPC   C2B31304   6.458  38.174   8.322
 2198POPC   C3B31305   6.551  38.119   7.900
 2198POPC   C4B31306   6.538  38.047   7.423
 2199POPC   NC331307  17.324   5.237   9.553
 2199POPC   PO431308  17.823   4.868   9.346
 2199POPC   GL131309  17.499   5.035   9.102
 2199POPC   GL231310  17.281   5.345   9.060
 2199POPC   C1A31311  17.682   5.202   8.748
 2199POPC   D2A31312  17.832   4.983   8.428
 2199POPC   C3A31313  17.766   5.143   8.069
 2199POPC   C4A31314  17.711   4.939   7.753
 2199POPC   C1B31315  17.196   5.073   8.692
 2199POPC   C2B31316  17.275   5.171   8.287
 2199POPC   C3B31317  17.269   5.139   7.849
 2199POPC   C4B31318  17.262   5.253   7.430
 2200POPC   NC331319  18.119  39.035   9.527
 2200POPC   PO431320  18.620  39.435   9.535
 2200POPC   GL131321  18.436  39.204   9.155
 2200POPC   GL231322  18.081  39.361   9.152
 2200POPC   C1A31323  18.284  39.297   8.710
 2200POPC   D2A31324  18.083  39.418   8.342
 2200POPC   C3A31325  18.343  39.210   8.063
 2200POPC   C4A31326  18.454  39.065   7.661
 2200POPC   C1B31327  17.797  39.456   8.803
 2200POPC   C2B31328  17.641  39.679   8.447
 2200POPC   C3B31329  17.709  39.577   8.023
 2200POPC   C4B31330  17.969  39.345   7.741
 2201POPC   NC331331  30.888  34.283   9.476
 2201POPC   PO431332  30.484  34.703   9.509
 2201POPC   GL131333  30.654  34.558   9.121
 2201POPC   GL231334  30.442  34.255   9.168
 2201POPC   C1A31335  30.801  34.517   8.674
 2201POPC   D2A31336  30.736  34.573   8.230
 2201POPC   C3A31337  30.990  34.397   7.904
 2201POPC   C4A31338  30.965  34.534   7.498
 2201POPC   C1B31339  30.602  34.058   8.800
 2201POPC   C2B31340  30.792  34.042   8.376
 2201POPC   C3B31341  30.593  34.109   7.973
 2201POPC   C4B31342  30.613  34.164   7.517
 2202POPC   NC331343  42.961  32.137   9.527
 2202POPC   PO431344  43.654  32.155   9.646
 2202POPC   GL131345  43.396  32.156   9.271
 2202POPC   GL231346  43.297  32.516   9.272
 2202POPC   C1A31347  43.178  32.160   8.850
 2202POPC   D2A31348  43.195  31.961   8.439
 2202POPC   C3A31349  43.128  32.096   8.066
 2202POPC   C4A31350  43.223  31.880   7.710
 2202POPC   C1B31351  43.269  32.688   8.836
 2202POPC   C2B31352  43.241  32.508   8.415
 2202POPC   C3B31353  43.298  32.574   7.975
 2202POPC   C4B31354  43.056  32.399   7.656
 2203POPC   NC331355  41.151  43.110   9.394
 2203POPC   PO431356  41.651  43.417   9.521
 2203POPC   GL131357  41.652  43.109   9.141
 2203POPC   GL231358  41.380  42.870   9.016
 2203POPC   C1A31359  41.842  42.849   8.817
 2203POPC   D2A31360  41.773  43.049   8.410
 2203POPC   C3A31361  41.758  42.866   8.000
 2203POPC   C4A31362  41.697  43.094   7.613
 2203POPC   C1B31363  41.319  43.158   8.729
 2203POPC   C2B31364  41.190  43.041   8.346
 2203POPC   C3B31365  41.288  43.056   7.952
 2203POPC   C4B31366  41.319  42.756   7.662
 2204POPC   NC331367  23.929  22.524   9.526
 2204POPC   PO431368  23.956  23.125   9.386
 2204POPC   GL131369  23.778  22.812   9.118
 2204POPC   GL231370  23.972  22.489   9.028
 2204POPC   C1A31371  23.584  22.887   8.733
 2204POPC   D2A31372  23.371  22.977   8.342
 2204POPC   C3A31373  23.521  22.829   7.965
 2204POPC   C4A31374  23.429  22.868   7.497
 2204POPC   C1B31375  24.101  22.748   8.721
 2204POPC   C2B31376  23.913  22.813   8.337
 2204POPC   C3B31377  24.015  23.007   7.976
 2204POPC   C4B31378  23.936  23.012   7.551
 2205POPC   NC331379   4.891  28.491   9.759
 2205POPC   PO431380   4.236  28.330   9.480
 2205POPC   GL131381   4.459  28.061   9.231
 2205POPC   GL231382   4.782  28.234   9.225
 2205POPC   C1A31383   4.553  28.011   8.804
 2205POPC   D2A31384   4.574  28.143   8.376
 2205POPC   C3A31385   4.261  28.411   8.127
 2205POPC   C4A31386   4.378  28.265   7.724
 2205POPC   C1B31387   4.788  28.465   8.801
 2205POPC   C2B31388   4.579  28.664   8.434
 2205POPC   C3B31389   4.728  28.560   7.994
 2205POPC   C4B31390   4.794  28.538   7.530
 2206POPC   NC331391  15.607  23.495   9.480
 2206POPC   PO431392  16.171  23.926   9.439
 2206POPC   GL131393  15.859  23.823   9.115
 2206POPC   GL231394  15.838  23.483   9.039
 2206POPC   C1A31395  15.844  24.004   8.695
 2206POPC   D2A31396  16.015  24.050   8.281
 2206POPC   C3A31397  15.938  23.846   7.892
 2206POPC   C4A31398  16.002  23.618   7.491
 2206POPC   C1B31399  15.918  23.459   8.633
 2206POPC   C2B31400  15.871  23.285   8.225
 2206POPC   C3B31401  15.676  23.406   7.837
 2206POPC   C4B31402  15.593  23.324   7.388
 2207POPC   NC331403   1.091  18.410   9.494
 2207POPC   PO431404   1.558  17.913   9.337
 2207POPC   GL131405   1.212  18.112   9.098
 2207POPC   GL231406   0.886  17.989   9.177
 2207POPC   C1A31407   1.147  18.398   8.751
 2207POPC   D2A31408   1.321  18.621   8.350
 2207POPC   C3A31409   1.361  18.435   7.956
 2207POPC   C4A31410   1.708  18.426   7.688
 2207POPC   C1B31411   0.916  17.926   8.711
 2207POPC   C2B31412   1.143  18.112   8.336
 2207POPC   C3B31413   1.252  17.924   7.953
 2207POPC   C4B31414   0.862  17.914   7.719
 2208POPC   NC331415  12.540  11.788   9.601
 2208POPC   PO431416  13.115  12.010   9.555
 2208POPC   GL131417  12.965  11.869   9.161
 2208POPC   GL231418  12.631  11.881   9.127
 2208POPC   C1A31419  12.941  11.993   8.735
 2208POPC   D2A31420  13.127  12.146   8.388
 2208POPC   C3A31421  12.953  12.011   8.002
 2208POPC   C4A31422  13.157  12.078   7.607
 2208POPC   C1B31423  12.494  12.183   8.852
 2208POPC   C2B31424  12.519  12.089   8.405
 2208POPC   C3B31425  12.428  11.980   7.962
 2208POPC   C4B31426  12.645  12.205   7.608
 2209POPC   NC331427  23.541  27.783   9.501
 2209POPC   PO431428  23.921  27.254   9.647
 2209POPC   GL131429  23.958  27.465   9.227
 2209POPC   GL231430  23.902  27.857   9.152
 2209POPC   C1A31431  23.744  27.499   8.833
 2209POPC   D2A31432  23.635  27.424   8.417
 2209POPC   C3A31433  23.945  27.385   8.121
 2209POPC   C4A31434  23.692  27.471   7.789
 2209POPC   C1B31435  24.030  27.917   8.720
 2209POPC   C2B31436  23.860  27.901   8.290
 2209POPC   C3B31437  24.067  27.823   7.888
 2209POPC   C4B31438  23.964  27.739   7.472
 2210POPC   NC331439  37.360   5.120   9.572
 2210POPC   PO431440  37.931   4.650   9.616
 2210POPC   GL131441  37.804   5.016   9.296
 2210POPC   GL231442  37.482   4.942   9.105
 2210POPC   C1A31443  37.826   5.249   8.859
 2210POPC   D2A31444  37.808   5.171   8.385
 2210POPC   C3A31445  37.540   5.293   8.040
 2210POPC   C4A31446  37.615   5.268   7.609
 2210POPC   C1B31447  37.354   5.115   8.688
 2210POPC   C2B31448  37.134   5.099   8.276
 2210POPC   C3B31449  37.128   5.097   7.799
 2210POPC   C4B31450  37.292   4.815   7.512
 2211POPC   NC331451   5.353  39.055   9.517
 2211POPC   PO431452   5.354  39.710   9.454
 2211POPC   GL131453   5.156  39.404   9.195
 2211POPC   GL231454   5.444  39.294   9.073
 2211POPC   C1A31455   4.920  39.266   8.843
 2211POPC   D2A31456   4.752  39.391   8.456
 2211POPC   C3A31457   4.936  39.220   8.111
 2211POPC   C4A31458   5.097  39.192   7.703
 2211POPC   C1B31459   5.299  38.923   8.898
 2211POPC   C2B31460   5.208  38.960   8.490
 2211POPC   C3B31461   5.417  39.063   8.119
 2211POPC   C4B31462   5.372  38.776   7.774
 2212POPC   NC331463  37.620  34.473   9.621
 2212POPC   PO431464  37.980  34.899   9.226
 2212POPC   GL131465  37.749  34.565   9.150
 2212POPC   GL231466  37.964  34.278   9.258
 2212POPC   C1A31467  37.518  34.607   8.790
 2212POPC   D2A31468  37.700  34.909   8.467
 2212POPC   C3A31469  37.646  34.833   8.043
 2212POPC   C4A31470  37.426  34.607   7.741
 2212POPC   C1B31471  37.908  34.227   8.804
 2212POPC   C2B31472  37.698  34.299   8.392
 2212POPC   C3B31473  37.849  34.362   7.990
 2212POPC   C4B31474  37.995  34.649   7.698
 2213POPC   NC331475   0.629  38.124   9.363
 2213POPC   PO431476   0.546  37.508   9.622
 2213POPC   GL131477   0.347  37.717   9.237
 2213POPC   GL231478  44.982  37.742   9.282
 2213POPC   C1A31479   0.501  37.816   8.804
 2213POPC   D2A31480   0.838  37.979   8.518
 2213POPC   C3A31481   0.852  37.905   8.072
 2213POPC   C4A31482   0.698  37.601   7.810
 2213POPC   C1B31483   0.028  37.477   8.923
 2213POPC   C2B31484   0.159  37.625   8.497
 2213POPC   C3B31485   0.314  37.777   8.101
 2213POPC   C4B31486   0.241  37.638   7.652
 2214POPC   NC331487   7.202  41.705   9.562
 2214POPC   PO431488   7.868  41.666   9.454
 2214POPC   GL131489   7.534  41.531   9.167
 2214POPC   GL231490   7.156  41.452   9.126
 2214POPC   C1A31491   7.434  41.604   8.746
 2214POPC   D2A31492   7.543  41.568   8.339
 2214POPC   C3A31493   7.546  41.828   8.021
 2214POPC   C4A31494   7.536  41.729   7.594
 2214POPC   C1B31495   6.928  41.633   8.809
 2214POPC   C2B31496   6.985  41.443   8.418
 2214POPC   C3B31497   7.121  41.545   8.022
 2214POPC   C4B31498   7.024  41.732   7.613
 2215POPC   NC331499  26.705  43.821   9.823
 2215POPC   PO431500  26.783  43.155   9.567
 2215POPC   GL131501  26.745  43.141   9.129
 2215POPC   GL231502  26.986  42.860   9.093
 2215POPC   C1A31503  26.541  42.952   8.795
 2215POPC   D2A31504  26.266  42.969   8.470
 2215POPC   C3A31505  26.427  42.976   8.077
 2215POPC   C4A31506  26.549  42.706   7.738
 2215POPC   C1B31507  27.035  43.020   8.690
 2215POPC   C2B31508  26.851  43.241   8.387
 2215POPC   C3B31509  26.772  43.355   7.990
 2215POPC   C4B31510  26.981  43.260   7.653
 2216POPC   NC331511   9.706   1.749   9.336
 2216POPC   PO431512   9.633   1.110   9.479
 2216POPC   GL131513   9.799   1.244   9.094
 2216POPC   GL231514   9.866   0.886   9.021
 2216POPC   C1A31515   9.868   1.203   8.634
 2216POPC   D2A31516   9.825   1.075   8.203
 2216POPC   C3A31517   9.907   1.390   7.832
 2216POPC   C4A31518  10.029   1.555   7.387
 2216POPC   C1B31519   9.446   1.001   8.824
 2216POPC   C2B31520   9.357   1.170   8.399
 2216POPC   C3B31521   9.376   0.969   7.981
 2216POPC   C4B31522   9.284   0.735   7.617
 2217POPC   NC331523  18.826   4.928   9.521
 2217POPC   PO431524  19.306   5.409   9.278
 2217POPC   GL131525  19.058   5.167   9.084
 2217POPC   GL231526  18.719   5.201   9.083
 2217POPC   C1A31527  19.020   5.061   8.666
 2217POPC   D2A31528  19.213   4.904   8.323
 2217POPC   C3A31529  19.117   5.041   7.949
 2217POPC   C4A31530  18.949   4.887   7.583
 2217POPC   C1B31531  18.605   5.348   8.665
 2217POPC   C2B31532  18.790   5.306   8.242
 2217POPC   C3B31533  18.678   5.291   7.775
 2217POPC   C4B31534  18.732   5.276   7.291
 2218POPC   NC331535  24.843  10.392   9.273
 2218POPC   PO431536  25.476  10.687   9.403
 2218POPC   GL131537  25.324  10.519   9.095
 2218POPC   GL231538  25.345  10.178   9.271
 2218POPC   C1A31539  25.167  10.683   8.696
 2218POPC   D2A31540  25.216  11.037   8.383
 2218POPC   C3A31541  25.177  10.867   7.962
 2218POPC   C4A31542  24.906  10.590   7.700
 2218POPC   C1B31543  25.435  10.124   8.826
 2218POPC   C2B31544  25.527  10.358   8.451
 2218POPC   C3B31545  25.335  10.385   8.049
 2218POPC   C4B31546  25.394  10.482   7.630
 2219POPC   NC331547  26.406  32.409   9.565
 2219POPC   PO431548  25.834  32.022   9.488
 2219POPC   GL131549  26.050  32.284   9.190
 2219POPC   GL231550  25.945  32.616   9.355
 2219POPC   C1A31551  26.156  32.294   8.713
 2219POPC   D2A31552  25.952  32.095   8.338
 2219POPC   C3A31553  26.064  32.103   7.908
 2219POPC   C4A31554  26.086  32.034   7.437
 2219POPC   C1B31555  25.832  32.641   8.914
 2219POPC   C2B31556  25.872  32.733   8.492
 2219POPC   C3B31557  26.103  32.611   8.137
 2219POPC   C4B31558  25.962  32.636   7.728
 2220POPC   NC331559  25.075  13.802   9.470
 2220POPC   PO431560  25.599  13.345   9.494
 2220POPC   GL131561  25.309  13.419   9.199
 2220POPC   GL231562  25.459  13.743   9.134
 2220POPC   C1A31563  25.216  13.408   8.778
 2220POPC   D2A31564  25.390  13.526   8.395
 2220POPC   C3A31565  25.158  13.582   8.081
 2220POPC   C4A31566  25.206  13.506   7.660
 2220POPC   C1B31567  25.402  13.897   8.756
 2220POPC   C2B31568  25.107  13.987   8.454
 2220POPC   C3B31569  25.082  14.073   8.031
 2220POPC   C4B31570  24.971  13.997   7.642
 2221POPC   NC331571  11.161  40.008   9.653
 2221POPC   PO431572  11.718  40.434   9.384
 2221POPC   GL131573  11.443  40.263   9.107
 2221POPC   GL231574  11.112  40.276   9.197
 2221POPC   C1A31575  11.385  39.973   8.765
 2221POPC   D2A31576  11.356  39.691   8.398
 2221POPC   C3A31577  11.256  39.880   7.983
 2221POPC   C4A31578  11.367  40.280   7.792
 2221POPC   C1B31579  10.862  40.119   8.880
 2221POPC   C2B31580  10.958  40.040   8.496
 2221POPC   C3B31581  11.124  40.289   8.244
 2221POPC   C4B31582  10.885  40.368   7.918
 2222POPC   NC331583  36.854  20.499   9.627
 2222POPC   PO431584  36.501  21.076   9.705
 2222POPC   GL131585  36.763  20.850   9.270
 2222POPC   GL231586  36.688  20.512   9.142
 2222POPC   C1A31587  36.734  20.887   8.804
 2222POPC   D2A31588  36.708  20.743   8.373
 2222POPC   C3A31589  37.011  20.723   8.031
 2222POPC   C4A31590  36.685  20.746   7.677
 2222POPC   C1B31591  36.760  20.355   8.739
 2222POPC   C2B31592  36.919  20.281   8.321
 2222POPC   C3B31593  36.819  20.287   7.865
 2222POPC   C4B31594  37.099  20.453   7.564
 2223POPC   NC331595  19.233  12.928   9.665
 2223POPC   PO431596  19.897  12.683   9.454
 2223POPC   GL131597  20.018  12.765   9.080
 2223POPC   GL231598  20.214  13.024   9.138
 2223POPC   C1A31599  19.887  12.698   8.683
 2223POPC   D2A31600  19.679  12.632   8.308
 2223POPC   C3A31601  19.878  12.767   7.935
 2223POPC   C4A31602  19.685  12.694   7.547
 2223POPC   C1B31603  20.214  13.105   8.724
 2223POPC   C2B31604  20.031  13.074   8.332
 2223POPC   C3B31605  20.204  13.164   7.956
 2223POPC   C4B31606  20.289  12.955   7.586
 2224POPC   NC331607  11.001  13.428   9.513
 2224POPC   PO431608  11.585  13.652   9.537
 2224POPC   GL131609  11.498  13.645   9.149
 2224POPC   GL231610  11.180  13.698   9.131
 2224POPC   C1A31611  11.498  13.532   8.743
 2224POPC   D2A31612  11.615  13.356   8.368
 2224POPC   C3A31613  11.558  13.621   8.024
 2224POPC   C4A31614  11.417  13.564   7.623
 2224POPC   C1B31615  10.991  13.505   8.804
 2224POPC   C2B31616  11.123  13.573   8.379
 2224POPC   C3B31617  11.014  13.549   7.961
 2224POPC   C4B31618  10.960  13.861   7.665
 2225POPC   NC331619  32.000   1.179   9.300
 2225POPC   PO431620  32.714   1.130   9.557
 2225POPC   GL131621  32.483   1.024   9.208
 2225POPC   GL231622  32.412   1.295   9.023
 2225POPC   C1A31623  32.501   0.849   8.754
 2225POPC   D2A31624  32.343   0.789   8.296
 2225POPC   C3A31625  32.348   1.167   7.993
 2225POPC   C4A31626  32.443   1.611   7.835
 2225POPC   C1B31627  32.152   1.216   8.662
 2225POPC   C2B31628  32.165   1.486   8.334
 2225POPC   C3B31629  32.017   1.771   8.070
 2225POPC   C4B31630  31.895   1.681   7.641
 2226POPC   NC331631  27.881  34.144   9.465
 2226POPC   PO431632  27.392  33.735   9.463
 2226POPC   GL131633  27.575  33.856   9.128
 2226POPC   GL231634  27.869  33.685   9.193
 2226POPC   C1A31635  27.568  33.718   8.715
 2226POPC   D2A31636  27.531  33.996   8.376
 2226POPC   C3A31637  27.467  33.832   8.005
 2226POPC   C4A31638  27.715  33.993   7.676
 2226POPC   C1B31639  27.893  33.347   8.899
 2226POPC   C2B31640  27.869  33.258   8.464
 2226POPC   C3B31641  27.950  33.441   8.053
 2226POPC   C4B31642  27.678  33.461   7.712
 2227POPC   NC331643  32.212  30.475   9.483
 2227POPC   PO431644  32.501  31.029   9.403
 2227POPC   GL131645  32.170  30.859   9.130
 2227POPC   GL231646  31.880  31.071   9.052
 2227POPC   C1A31647  32.097  30.499   8.843
 2227POPC   D2A31648  32.381  30.294   8.534
 2227POPC   C3A31649  32.442  30.564   8.160
 2227POPC   C4A31650  32.388  30.528   7.728
 2227POPC   C1B31651  32.059  30.989   8.643
 2227POPC   C2B31652  31.982  30.643   8.348
 2227POPC   C3B31653  31.926  30.523   7.906
 2227POPC   C4B31654  32.026  30.859   7.598
 2228POPC   NC331655  16.046   7.867   9.377
 2228POPC   PO431656  16.017   7.125   9.482
 2228POPC   GL131657  16.059   7.287   9.086
 2228POPC   GL231658  15.768   7.459   9.019
 2228POPC   C1A31659  16.231   7.187   8.685
 2228POPC   D2A31660  16.410   7.055   8.317
 2228POPC   C3A31661  16.131   7.119   7.987
 2228POPC   C4A31662  16.109   7.377   7.628
 2228POPC   C1B31663  15.481   7.724   8.716
 2228POPC   C2B31664  15.422   7.576   8.294
 2228POPC   C3B31665  15.693   7.521   7.918
 2228POPC   C4B31666  15.599   7.420   7.459
 2229POPC   NC331667  14.868   2.201   9.554
 2229POPC   PO431668  15.230   1.619   9.446
 2229POPC   GL131669  15.281   1.939   9.117
 2229POPC   GL231670  14.971   1.951   9.121
 2229POPC   C1A31671  15.238   2.022   8.681
 2229POPC   D2A31672  15.418   1.891   8.316
 2229POPC   C3A31673  15.228   1.990   7.957
 2229POPC   C4A31674  15.211   1.771   7.610
 2229POPC   C1B31675  14.777   2.192   8.837
 2229POPC   C2B31676  14.624   2.152   8.436
 2229POPC   C3B31677  14.868   2.307   8.139
 2229POPC   C4B31678  14.977   2.451   7.741
 2230POPC   NC331679  43.664  16.032   9.477
 2230POPC   PO431680  44.361  16.092   9.372
 2230POPC   GL131681  44.086  16.046   9.014
 2230POPC   GL231682  43.739  16.129   8.993
 2230POPC   C1A31683  44.168  15.925   8.577
 2230POPC   D2A31684  44.271  16.005   8.155
 2230POPC   C3A31685  43.981  15.808   7.890
 2230POPC   C4A31686  43.561  15.948   7.885
 2230POPC   C1B31687  43.683  15.788   8.735
 2230POPC   C2B31688  43.738  15.680   8.325
 2230POPC   C3B31689  43.543  15.442   7.998
 2230POPC   C4B31690  43.542  15.553   7.562
 2231POPC   NC331691   2.433  27.757   9.335
 2231POPC   PO431692   2.971  27.376   9.457
 2231POPC   GL131693   2.978  27.474   9.055
 2231POPC   GL231694   2.889  27.841   9.099
 2231POPC   C1A31695   2.767  27.494   8.636
 2231POPC   D2A31696   2.415  27.678   8.378
 2231POPC   C3A31697   2.533  27.668   7.964
 2231POPC   C4A31698   2.702  27.456   7.592
 2231POPC   C1B31699   3.151  27.828   8.750
 2231POPC   C2B31700   3.239  27.594   8.367
 2231POPC   C3B31701   3.023  27.581   7.954
 2231POPC   C4B31702   2.963  27.867   7.546
 2232POPC   NC331703  11.811  13.371   9.849
 2232POPC   PO431704  12.008  12.849   9.434
 2232POPC   GL131705  11.869  12.898   9.052
 2232POPC   GL231706  11.584  12.709   9.093
 2232POPC   C1A31707  11.964  13.145   8.676
 2232POPC   D2A31708  12.323  13.105   8.390
 2232POPC   C3A31709  12.311  12.838   8.039
 2232POPC   C4A31710  12.277  12.582   7.674
 2232POPC   C1B31711  11.816  12.641   8.654
 2232POPC   C2B31712  11.815  12.836   8.267
 2232POPC   C3B31713  11.848  12.811   7.832
 2232POPC   C4B31714  11.705  13.140   7.581
 2233POPC   NC331715  18.100   4.608   9.607
 2233POPC   PO431716  18.748   4.483   9.401
 2233POPC   GL131717  18.497   4.332   9.086
 2233POPC   GL231718  18.138   4.393   9.140
 2233POPC   C1A31719  18.421   4.317   8.667
 2233POPC   D2A31720  18.253   4.086   8.360
 2233POPC   C3A31721  18.224   4.224   7.943
 2233POPC   C4A31722  18.055   4.152   7.546
 2233POPC   C1B31723  18.045   4.639   8.775
 2233POPC   C2B31724  18.269   4.744   8.399
 2233POPC   C3B31725  18.092   4.712   8.005
 2233POPC   C4B31726  17.761   4.433   7.855
 2234POPC   NC331727  12.349   9.466   9.371
 2234POPC   PO431728  11.906   9.993   9.560
 2234POPC   GL131729  11.976   9.901   9.159
 2234POPC   GL231730  12.325   9.929   9.155
 2234POPC   C1A31731  11.836   9.821   8.736
 2234POPC   D2A31732  12.091   9.610   8.462
 2234POPC   C3A31733  12.007   9.778   8.101
 2234POPC   C4A31734  12.037   9.725   7.689
 2234POPC   C1B31735  12.292  10.040   8.745
 2234POPC   C2B31736  12.491   9.941   8.371
 2234POPC   C3B31737  12.363  10.104   7.983
 2234POPC   C4B31738  12.402  10.038   7.565
 2235POPC   NC331739  11.539  31.984   9.851
 2235POPC   PO431740  11.396  31.392   9.517
 2235POPC   GL131741  11.303  31.443   9.074
 2235POPC   GL231742  11.165  31.783   9.082
 2235POPC   C1A31743  11.424  31.285   8.649
 2235POPC   D2A31744  11.672  31.444   8.305
 2235POPC   C3A31745  11.536  31.334   7.892
 2235POPC   C4A31746  11.442  31.391   7.447
 2235POPC   C1B31747  11.258  31.762   8.608
 2235POPC   C2B31748  11.298  31.756   8.126
 2235POPC   C3B31749  11.076  31.552   7.759
 2235POPC   C4B31750  11.009  31.640   7.285
 2236POPC   NC331751  37.844  38.719   9.521
 2236POPC   PO431752  38.002  38.025   9.476
 2236POPC   GL131753  37.767  38.296   9.157
 2236POPC   GL231754  37.935  38.597   9.034
 2236POPC   C1A31755  37.559  38.404   8.734
 2236POPC   D2A31756  37.687  38.771   8.445
 2236POPC   C3A31757  37.697  38.709   7.987
 2236POPC   C4A31758  37.451  38.630   7.621
 2236POPC   C1B31759  38.050  38.269   8.709
 2236POPC   C2B31760  37.893  38.288   8.284
 2236POPC   C3B31761  37.966  38.294   7.844
 2236POPC   C4B31762  37.671  38.175   7.540
 2237POPC   NC331763   0.015  31.187   9.513
 2237POPC   PO431764   0.682  30.912   9.521
 2237POPC   GL131765   0.609  30.792   9.137
 2237POPC   GL231766   0.265  30.840   9.194
 2237POPC   C1A31767   0.748  30.782   8.708
 2237POPC   D2A31768   0.485  30.688   8.330
 2237POPC   C3A31769   0.610  30.952   7.954
 2237POPC   C4A31770   0.667  30.911   7.501
 2237POPC   C1B31771   0.233  30.614   8.809
 2237POPC   C2B31772   0.018  30.351   8.516
 2237POPC   C3B31773   0.260  30.272   8.153
 2237POPC   C4B31774   0.280  30.593   7.821
 2238POPC   NC331775   7.288  14.048   9.497
 2238POPC   PO431776   7.672  13.537   9.510
 2238POPC   GL131777   7.515  13.683   9.130
 2238POPC   GL231778   7.647  14.011   9.157
 2238POPC   C1A31779   7.296  13.530   8.729
 2238POPC   D2A31780   7.278  13.479   8.259
 2238POPC   C3A31781   7.304  13.530   7.810
 2238POPC   C4A31782   7.412  13.494   7.398
 2238POPC   C1B31783   7.270  14.032   8.848
 2238POPC   C2B31784   7.364  13.953   8.432
 2238POPC   C3B31785   7.343  14.008   8.000
 2238POPC   C4B31786   7.706  13.945   7.716
 2239POPC   NC331787  41.111  36.134   9.525
 2239POPC   PO431788  40.395  36.101   9.459
 2239POPC   GL131789  40.741  36.107   9.176
 2239POPC   GL231790  40.709  36.448   9.096
 2239POPC   C1A31791  40.709  36.021   8.742
 2239POPC   D2A31792  40.554  36.354   8.471
 2239POPC   C3A31793  40.647  36.246   8.050
 2239POPC   C4A31794  40.565  36.019   7.697
 2239POPC   C1B31795  41.034  36.422   8.735
 2239POPC   C2B31796  41.102  36.272   8.313
 2239POPC   C3B31797  41.077  36.506   7.914
 2239POPC   C4B31798  40.730  36.514   7.601
 2240POPC   NC331799  23.813  28.745   9.475
 2240POPC   PO431800  24.127  29.365   9.572
 2240POPC   GL131801  23.966  29.170   9.203
 2240POPC   GL231802  23.652  29.134   9.155
 2240POPC   C1A31803  23.944  29.281   8.757
 2240POPC   D2A31804  24.170  29.155   8.410
 2240POPC   C3A31805  23.915  29.157   8.079
 2240POPC   C4A31806  23.869  29.027   7.688
 2240POPC   C1B31807  23.440  29.164   8.785
 2240POPC   C2B31808  23.508  29.300   8.371
 2240POPC   C3B31809  23.422  29.033   8.009
 2240POPC   C4B31810  23.122  29.000   7.700
 2241POPC   NC331811  42.175   8.669   9.432
 2241POPC   PO431812  42.152   9.314   9.256
 2241POPC   GL131813  42.317   9.004   9.034
 2241POPC   GL231814  42.238   8.661   8.922
 2241POPC   C1A31815  42.402   9.066   8.627
 2241POPC   D2A31816  42.250   8.851   8.280
 2241POPC   C3A31817  42.366   9.140   7.967
 2241POPC   C4A31818  42.071   9.410   7.801
 2241POPC   C1B31819  42.607   8.601   8.601
 2241POPC   C2B31820  42.711   8.664   8.136
 2241POPC   C3B31821  42.390   8.672   7.774
 2241POPC   C4B31822  42.395   8.541   7.320
 2242POPC   NC331823  32.700   7.312   9.468
 2242POPC   PO431824  33.385   7.408   9.332
 2242POPC   GL131825  33.075   7.406   9.060
 2242POPC   GL231826  32.796   7.658   9.090
 2242POPC   C1A31827  33.175   7.433   8.635
 2242POPC   D2A31828  33.317   7.662   8.273
 2242POPC   C3A31829  33.183   7.456   7.915
 2242POPC   C4A31830  33.038   7.160   7.616
 2242POPC   C1B31831  32.659   7.344   8.766
 2242POPC   C2B31832  32.793   7.304   8.330
 2242POPC   C3B31833  32.650   7.333   7.917
 2242POPC   C4B31834  32.780   7.666   7.653
 2243POPC   NC331835  28.342  11.118   9.542
 2243POPC   PO431836  28.085  11.784   9.658
 2243POPC   GL131837  28.023  11.504   9.275
 2243POPC   GL231838  28.381  11.470   9.170
 2243POPC   C1A31839  28.043  11.193   8.906
 2243POPC   D2A31840  28.365  11.032   8.604
 2243POPC   C3A31841  28.247  11.058   8.160
 2243POPC   C4A31842  28.501  11.163   7.784
 2243POPC   C1B31843  28.658  11.504   8.805
 2243POPC   C2B31844  28.837  11.610   8.419
 2243POPC   C3B31845  28.506  11.595   8.106
 2243POPC   C4B31846  28.544  11.652   7.671
 2244POPC   NC331847  20.341  40.158   9.274
 2244POPC   PO431848  19.759  40.147   9.503
 2244POPC   GL131849  19.873  40.088   9.079
 2244POPC   GL231850  19.772  39.745   9.032
 2244POPC   C1A31851  20.124  40.082   8.664
 2244POPC   D2A31852  20.141  40.420   8.355
 2244POPC   C3A31853  20.113  40.381   7.942
 2244POPC   C4A31854  20.111  40.055   7.764
 2244POPC   C1B31855  19.622  40.020   8.647
 2244POPC   C2B31856  19.769  40.093   8.204
 2244POPC   C3B31857  19.623  40.149   7.782
 2244POPC   C4B31858  19.349  40.287   7.462
 2245POPC   NC331859  18.772  38.282   9.445
 2245POPC   PO431860  19.256  38.686   9.717
 2245POPC   GL131861  18.950  38.680   9.209
 2245POPC   GL231862  18.922  38.355   8.986
 2245POPC   C1A31863  18.904  38.784   8.752
 2245POPC   D2A31864  19.077  38.470   8.456
 2245POPC   C3A31865  19.099  38.627   8.048
 2245POPC   C4A31866  18.747  38.650   7.779
 2245POPC   C1B31867  18.623  38.340   8.678
 2245POPC   C2B31868  18.556  38.241   8.239
 2245POPC   C3B31869  18.892  38.167   7.932
 2245POPC   C4B31870  18.886  37.851   7.649
 2246POPC   NC331871  29.252  19.498   9.753
 2246POPC   PO431872  29.005  19.004   9.493
 2246POPC   GL131873  29.149  19.104   9.128
 2246POPC   GL231874  29.345  19.432   9.120
 2246POPC   C1A31875  28.977  18.880   8.777
 2246POPC   D2A31876  29.119  18.945   8.385
 2246POPC   C3A31877  28.936  19.213   8.120
 2246POPC   C4A31878  28.855  18.956   7.770
 2246POPC   C1B31879  29.435  19.219   8.721
 2246POPC   C2B31880  29.516  19.290   8.293
 2246POPC   C3B31881  29.389  19.068   7.927
 2246POPC   C4B31882  29.300  19.055   7.497
 2247POPC   NC331883  19.132  10.869   9.445
 2247POPC   PO431884  19.184  10.162   9.558
 2247POPC   GL131885  19.018  10.386   9.194
 2247POPC   GL231886  19.327  10.524   9.134
 2247POPC   C1A31887  18.984  10.287   8.743
 2247POPC   D2A31888  19.232  10.479   8.351
 2247POPC   C3A31889  19.230  10.223   7.982
 2247POPC   C4A31890  18.827  10.101   7.951
 2247POPC   C1B31891  19.159  10.745   8.784
 2247POPC   C2B31892  18.763  10.677   8.468
 2247POPC   C3B31893  18.784  10.688   8.012
 2247POPC   C4B31894  19.198  10.684   7.821
 2248POPC   NC331895  43.997   1.700   9.461
 2248POPC   PO431896  43.445   2.195   9.501
 2248POPC   GL131897  43.791   2.150   9.130
 2248POPC   GL231898  44.106   1.948   9.041
 2248POPC   C1A31899  43.779   1.979   8.673
 2248POPC   D2A31900  43.650   1.862   8.266
 2248POPC   C3A31901  43.741   2.088   7.907
 2248POPC   C4A31902  43.538   2.081   7.520
 2248POPC   C1B31903  44.305   1.965   8.660
 2248POPC   C2B31904  44.141   2.085   8.281
 2248POPC   C3B31905  44.229   1.926   7.881
 2248POPC   C4B31906  44.030   1.915   7.504
 2249POPC   NC331907   9.882   5.651   9.675
 2249POPC   PO431908   9.456   6.207   9.571
 2249POPC   GL131909   9.775   6.050   9.266
 2249POPC   GL231910   9.767   5.683   9.175
 2249POPC   C1A31911   9.795   6.028   8.805
 2249POPC   D2A31912   9.923   6.180   8.433
 2249POPC   C3A31913   9.648   6.176   8.111
 2249POPC   C4A31914   9.687   6.068   7.702
 2249POPC   C1B31915   9.794   5.485   8.763
 2249POPC   C2B31916   9.660   5.686   8.400
 2249POPC   C3B31917   9.477   5.710   8.007
 2249POPC   C4B31918   9.590   5.578   7.613
 2250POPC   NC331919  34.539  34.131   9.810
 2250POPC   PO431920  34.748  34.634   9.396
 2250POPC   GL131921  34.566  34.713   9.055
 2250POPC   GL231922  34.383  34.417   9.106
 2250POPC   C1A31923  34.548  34.897   8.654
 2250POPC   D2A31924  34.199  34.962   8.348
 2250POPC   C3A31925  34.273  34.933   7.903
 2250POPC   C4A31926  34.305  34.516   7.703
 2250POPC   C1B31927  34.516  34.341   8.699
 2250POPC   C2B31928  34.500  34.517   8.312
 2250POPC   C3B31929  34.492  34.218   8.059
 2250POPC   C4B31930  34.661  34.106   7.698
 2251POPC   NC331931  33.806   7.603   9.367
 2251POPC   PO431932  33.961   6.969   9.494
 2251POPC   GL131933  33.817   7.153   9.101
 2251POPC   GL231934  33.481   7.013   9.026
 2251POPC   C1A31935  33.685   7.380   8.689
 2251POPC   D2A31936  33.569   7.233   8.244
 2251POPC   C3A31937  33.710   7.554   7.921
 2251POPC   C4A31938  34.144   7.706   7.852
 2251POPC   C1B31939  33.744   6.875   8.677
 2251POPC   C2B31940  33.961   6.885   8.300
 2251POPC   C3B31941  33.876   6.982   7.862
 2251POPC   C4B31942  33.556   7.179   7.594
 2252POPC   NC331943  24.442  35.391   9.556
 2252POPC   PO431944  25.026  35.164   9.329
 2252POPC   GL131945  24.676  35.274   9.082
 2252POPC   GL231946  24.392  35.056   9.170
 2252POPC   C1A31947  24.662  35.478   8.679
 2252POPC   D2A31948  24.533  35.594   8.265
 2252POPC   C3A31949  24.198  35.727   8.038
 2252POPC   C4A31950  24.395  35.528   7.691
 2252POPC   C1B31951  24.231  34.915   8.796
 2252POPC   C2B31952  24.354  35.109   8.429
 2252POPC   C3B31953  24.435  35.148   8.013
 2252POPC   C4B31954  24.745  34.842   7.853
 2253POPC   NC331955   7.320  11.733   9.269
 2253POPC   PO431956   7.163  11.123   9.342
 2253POPC   GL131957   7.397  11.248   9.013
 2253POPC   GL231958   7.724  11.207   9.192
 2253POPC   C1A31959   7.331  11.537   8.652
 2253POPC   D2A31960   7.258  11.598   8.210
 2253POPC   C3A31961   7.261  11.215   8.005
 2253POPC   C4A31962   7.390  11.058   7.615
 2253POPC   C1B31963   7.827  11.389   8.773
 2253POPC   C2B31964   7.658  11.277   8.372
 2253POPC   C3B31965   7.731  11.452   7.984
 2253POPC   C4B31966   7.703  11.432   7.540
 2254POPC   NC331967   3.468  14.764   9.470
 2254POPC   PO431968   3.303  15.405   9.470
 2254POPC   GL131969   3.510  15.182   9.106
 2254POPC   GL231970   3.472  14.847   8.978
 2254POPC   C1A31971   3.612  15.254   8.651
 2254POPC   D2A31972   3.383  15.330   8.241
 2254POPC   C3A31973   3.636  15.498   7.878
 2254POPC   C4A31974   3.865  15.485   7.460
 2254POPC   C1B31975   3.383  14.802   8.554
 2254POPC   C2B31976   3.725  14.765   8.250
 2254POPC   C3B31977   3.560  14.942   7.890
 2254POPC   C4B31978   3.089  14.909   7.900
 2255POPC   NC331979   6.212  21.877   9.383
 2255POPC   PO431980   6.857  22.034   9.416
 2255POPC   GL131981   6.641  22.044   9.044
 2255POPC   GL231982   6.354  22.255   9.061
 2255POPC   C1A31983   6.715  22.286   8.673
 2255POPC   D2A31984   7.056  22.246   8.376
 2255POPC   C3A31985   6.965  22.404   8.000
 2255POPC   C4A31986   6.947  22.079   7.729
 2255POPC   C1B31987   6.269  22.029   8.663
 2255POPC   C2B31988   6.426  22.018   8.226
 2255POPC   C3B31989   6.463  22.180   7.804
 2255POPC   C4B31990   6.318  22.500   7.510
 2256POPC   NC331991  22.208  34.647   9.543
 2256POPC   PO431992  21.674  34.432   9.347
 2256POPC   GL131993  21.954  34.694   9.115
 2256POPC   GL231994  22.332  34.533   9.068
 2256POPC   C1A31995  22.070  34.854   8.768
 2256POPC   D2A31996  22.191  34.636   8.439
 2256POPC   C3A31997  22.072  34.776   8.049
 2256POPC   C4A31998  22.135  34.630   7.658
 2256POPC   C1B31999  22.084  34.273   8.791
 2256POPC   C2B32000  21.979  34.166   8.340
 2256POPC   C3B32001  21.846  34.277   7.895
 2256POPC   C4B32002  21.806  34.259   7.402
 2257POPC   NC332003  34.026  12.677   9.607
 2257POPC   PO432004  33.405  12.810   9.571
 2257POPC   GL132005  33.683  12.715   9.218
 2257POPC   GL232006  33.854  13.010   9.259
 2257POPC   C1A32007  33.661  12.554   8.785
 2257POPC   D2A32008  33.445  12.663   8.363
 2257POPC   C3A32009  33.625  12.563   7.936
 2257POPC   C4A32010  33.627  12.793   7.530
 2257POPC   C1B32011  34.007  13.064   8.857
 2257POPC   C2B32012  33.941  12.858   8.485
 2257POPC   C3B32013  34.066  12.799   8.090
 2257POPC   C4B32014  34.378  13.037   7.932
 2258POPC   NC332015  42.899  36.436   9.576
 2258POPC   PO432016  43.511  36.133   9.408
 2258POPC   GL132017  43.215  36.371   9.144
 2258POPC   GL232018  42.968  36.131   9.114
 2258POPC   C1A32019  43.102  36.496   8.726
 2258POPC   D2A32020  42.969  36.289   8.319
 2258POPC   C3A32021  43.108  36.458   7.914
 2258POPC   C4A32022  43.154  36.457   7.448
 2258POPC   C1B32023  43.003  35.941   8.699
 2258POPC   C2B32024  42.754  35.688   8.390
 2258POPC   C3B32025  42.673  35.719   7.971
 2258POPC   C4B32026  42.819  36.089   7.746
 2259POPC   NC332027  44.310  37.002   9.442
 2259POPC   PO432028  44.957  36.757   9.643
 2259POPC   GL132029  44.927  36.889   9.194
 2259POPC   GL232030  44.577  36.948   9.016
 2259POPC   C1A32031  44.941  36.721   8.760
 2259POPC   D2A32032  44.648  36.873   8.452
 2259POPC   C3A32033  44.864  36.768   8.096
 2259POPC   C4A32034  44.936  36.993   7.751
 2259POPC   C1B32035  44.356  37.289   8.787
 2259POPC   C2B32036  44.397  37.429   8.352
 2259POPC   C3B32037  44.512  37.159   7.999
 2259POPC   C4B32038  44.492  37.124   7.520
 2260POPC   NC332039  27.509  10.697   9.515
 2260POPC   PO432040  27.888  10.152   9.288
 2260POPC   GL132041  27.610  10.265   8.976
 2260POPC   GL232042  27.348  10.348   9.180
 2260POPC   C1A32043  27.510  10.489   8.593
 2260POPC   D2A32044  27.752  10.772   8.309
 2260POPC   C3A32045  27.775  10.475   7.966
 2260POPC   C4A32046  27.431  10.249   7.758
 2260POPC   C1B32047  27.221  10.766   8.917
 2260POPC   C2B32048  27.249  10.926   8.456
 2260POPC   C3B32049  27.307  10.716   8.059
 2260POPC   C4B32050  27.614  10.940   7.827
 2261POPC   NC332051   8.331  22.545   9.558
 2261POPC   PO432052   8.604  23.190   9.449
 2261POPC   GL132053   8.253  23.114   9.166
 2261POPC   GL232054   7.975  23.382   9.071
 2261POPC   C1A32055   8.203  22.799   8.847
 2261POPC   D2A32056   8.464  22.772   8.490
 2261POPC   C3A32057   8.298  22.674   8.128
 2261POPC   C4A32058   8.124  22.838   7.747
 2261POPC   C1B32059   8.155  23.310   8.696
 2261POPC   C2B32060   8.101  23.115   8.332
 2261POPC   C3B32061   8.257  23.263   7.972
 2261POPC   C4B32062   8.118  23.283   7.551
 2262POPC   NC332063  27.305  22.936   9.451
 2262POPC   PO432064  27.799  23.207   9.589
 2262POPC   GL132065  27.686  23.073   9.146
 2262POPC   GL232066  27.425  22.793   8.985
 2262POPC   C1A32067  27.510  23.251   8.781
 2262POPC   D2A32068  27.656  23.138   8.385
 2262POPC   C3A32069  27.492  22.894   8.059
 2262POPC   C4A32070  27.344  23.119   7.703
 2262POPC   C1B32071  27.783  22.728   8.728
 2262POPC   C2B32072  27.983  22.756   8.323
 2262POPC   C3B32073  27.953  22.648   7.909
 2262POPC   C4B32074  27.696  22.778   7.576
 2263POPC   NC332075  16.422  19.253   9.585
 2263POPC   PO432076  17.008  18.843   9.571
 2263POPC   GL132077  16.823  18.951   9.164
 2263POPC   GL232078  16.579  19.246   9.111
 2263POPC   C1A32079  16.842  18.765   8.732
 2263POPC   D2A32080  16.605  18.897   8.362
 2263POPC   C3A32081  16.738  18.778   7.947
 2263POPC   C4A32082  16.817  18.978   7.534
 2263POPC   C1B32083  16.735  19.258   8.723
 2263POPC   C2B32084  16.818  19.427   8.360
 2263POPC   C3B32085  16.731  19.276   7.972
 2263POPC   C4B32086  16.472  19.327   7.625
 2264POPC   NC332087  28.451  21.140   9.817
 2264POPC   PO432088  27.985  21.634   9.657
 2264POPC   GL132089  28.171  21.519   9.252
 2264POPC   GL232090  28.317  21.205   9.321
 2264POPC   C1A32091  28.329  21.662   8.844
 2264POPC   D2A32092  28.263  21.885   8.445
 2264POPC   C3A32093  28.291  21.619   8.072
 2264POPC   C4A32094  28.687  21.485   7.875
 2264POPC   C1B32095  28.452  21.156   8.886
 2264POPC   C2B32096  28.437  21.289   8.456
 2264POPC   C3B32097  28.418  21.100   8.041
 2264POPC   C4B32098  28.334  20.913   7.671
 2265POPC   NC332099  35.172   6.232   9.541
 2265POPC   PO432100  35.554   6.742   9.616
 2265POPC   GL132101  35.359   6.690   9.228
 2265POPC   GL232102  35.105   6.948   9.255
 2265POPC   C1A32103  35.450   6.470   8.820
 2265POPC   D2A32104  35.350   6.470   8.383
 2265POPC   C3A32105  35.509   6.382   7.964
 2265POPC   C4A32106  35.301   6.474   7.569
 2265POPC   C1B32107  35.047   6.816   8.809
 2265POPC   C2B32108  34.941   6.763   8.354
 2265POPC   C3B32109  35.205   6.804   7.989
 2265POPC   C4B32110  35.258   6.992   7.585
 2266POPC   NC332111  10.298  12.725   9.619
 2266POPC   PO432112  10.727  13.080   9.424
 2266POPC   GL132113  10.489  12.853   9.150
 2266POPC   GL232114  10.145  12.998   9.212
 2266POPC   C1A32115  10.413  12.648   8.758
 2266POPC   D2A32116  10.195  12.496   8.377
 2266POPC   C3A32117  10.411  12.565   8.005
 2266POPC   C4A32118  10.439  12.670   7.604
 2266POPC   C1B32119  10.145  13.098   8.776
 2266POPC   C2B32120  10.357  12.982   8.362
 2266POPC   C3B32121  10.144  13.004   7.965
 2266POPC   C4B32122  10.193  13.183   7.575
 2267POPC   NC332123  42.534   1.207   9.616
 2267POPC   PO432124  42.041   0.820   9.319
 2267POPC   GL132125  42.354   1.073   9.134
 2267POPC   GL232126  42.378   1.418   9.153
 2267POPC   C1A32127  42.375   1.121   8.708
 2267POPC   D2A32128  42.556   0.839   8.413
 2267POPC   C3A32129  42.366   0.905   8.027
 2267POPC   C4A32130  42.613   1.025   7.716
 2267POPC   C1B32131  42.121   1.570   8.826
 2267POPC   C2B32132  42.014   1.409   8.433
 2267POPC   C3B32133  41.947   1.537   8.049
 2267POPC   C4B32134  42.265   1.371   7.820
 2268POPC   NC332135   8.374  15.519   9.373
 2268POPC   PO432136   7.846  15.307   9.703
 2268POPC   GL132137   8.091  15.133   9.256
 2268POPC   GL232138   8.401  15.003   9.171
 2268POPC   C1A32139   8.099  15.151   8.786
 2268POPC   D2A32140   7.902  15.354   8.415
 2268POPC   C3A32141   8.117  15.206   8.011
 2268POPC   C4A32142   8.442  15.410   7.754
 2268POPC   C1B32143   8.634  15.131   8.775
 2268POPC   C2B32144   8.522  15.018   8.346
 2268POPC   C3B32145   8.762  14.934   7.979
 2268POPC   C4B32146   8.860  14.844   7.568
 2269POPC   NC332147  42.523  35.442   9.483
 2269POPC   PO432148  42.448  34.813   9.288
 2269POPC   GL132149  42.339  35.148   9.074
 2269POPC   GL232150  42.705  35.199   9.061
 2269POPC   C1A32151  42.327  35.439   8.721
 2269POPC   D2A32152  42.234  35.592   8.300
 2269POPC   C3A32153  42.137  35.277   7.964
 2269POPC   C4A32154  41.855  35.138   7.652
 2269POPC   C1B32155  42.617  35.020   8.676
 2269POPC   C2B32156  42.599  35.203   8.302
 2269POPC   C3B32157  42.575  35.064   7.904
 2269POPC   C4B32158  42.383  34.934   7.519
 2270POPC   NC332159   2.616  23.874   9.422
 2270POPC   PO432160   2.144  23.447   9.468
 2270POPC   GL132161   2.470  23.537   9.068
 2270POPC   GL232162   2.857  23.696   9.027
 2270POPC   C1A32163   2.545  23.697   8.635
 2270POPC   D2A32164   2.317  23.762   8.272
 2270POPC   C3A32165   2.503  23.675   7.896
 2270POPC   C4A32166   2.880  23.827   7.727
 2270POPC   C1B32167   3.069  23.756   8.641
 2270POPC   C2B32168   2.904  23.677   8.242
 2270POPC   C3B32169   2.974  23.374   7.932
 2270POPC   C4B32170   3.229  23.501   7.557
 2271POPC   NC332171  27.879  26.821   9.343
 2271POPC   PO432172  28.446  26.887   9.723
 2271POPC   GL132173  28.392  26.849   9.278
 2271POPC   GL232174  28.325  26.532   9.209
 2271POPC   C1A32175  28.451  26.829   8.810
 2271POPC   D2A32176  28.251  26.867   8.408
 2271POPC   C3A32177  28.430  26.739   8.027
 2271POPC   C4A32178  28.596  27.045   7.723
 2271POPC   C1B32179  28.076  26.453   8.809
 2271POPC   C2B32180  27.896  26.481   8.390
 2271POPC   C3B32181  27.816  26.588   7.947
 2271POPC   C4B32182  28.117  26.804   7.640
 2272POPC   NC332183  21.178  12.338   9.556
 2272POPC   PO432184  21.711  12.003   9.554
 2272POPC   GL132185  21.604  12.202   9.203
 2272POPC   GL232186  21.276  12.091   9.130
 2272POPC   C1A32187  21.677  12.161   8.769
 2272POPC   D2A32188  21.515  12.013   8.369
 2272POPC   C3A32189  21.672  12.181   7.989
 2272POPC   C4A32190  21.540  12.101   7.581
 2272POPC   C1B32191  21.165  12.165   8.721
 2272POPC   C2B32192  21.002  12.102   8.325
 2272POPC   C3B32193  21.155  12.104   7.919
 2272POPC   C4B32194  21.017  12.383   7.583
 2273POPC   NC332195  18.087  14.588   9.683
 2273POPC   PO432196  18.363  14.046   9.460
 2273POPC   GL132197  18.230  14.221   9.037
 2273POPC   GL232198  18.102  14.536   9.109
 2273POPC   C1A32199  18.479  14.338   8.667
 2273POPC   D2A32200  18.530  14.103   8.324
 2273POPC   C3A32201  18.616  14.376   8.014
 2273POPC   C4A32202  18.577  14.202   7.623
 2273POPC   C1B32203  18.020  14.540   8.640
 2273POPC   C2B32204  18.034  14.244   8.267
 2273POPC   C3B32205  18.119  14.329   7.816
 2273POPC   C4B32206  17.976  14.670   7.501
 2274POPC   NC332207  21.848  30.215   9.526
 2274POPC   PO432208  22.396  29.711   9.484
 2274POPC   GL132209  22.151  29.930   9.186
 2274POPC   GL232210  22.167  30.303   9.114
 2274POPC   C1A32211  21.968  29.849   8.804
 2274POPC   D2A32212  21.898  29.521   8.533
 2274POPC   C3A32213  21.947  29.640   8.140
 2274POPC   C4A32214  22.027  29.642   7.731
 2274POPC   C1B32215  22.435  30.112   8.790
 2274POPC   C2B32216  22.354  29.869   8.414
 2274POPC   C3B32217  22.293  30.005   8.016
 2274POPC   C4B32218  22.132  30.131   7.608
 2275POPC   NC332219   5.693   4.179   9.395
 2275POPC   PO432220   6.231   4.585   9.623
 2275POPC   GL132221   6.137   4.393   9.211
 2275POPC   GL232222   5.823   4.554   9.095
 2275POPC   C1A32223   6.046   4.151   8.810
 2275POPC   D2A32224   5.761   4.177   8.443
 2275POPC   C3A32225   5.936   4.092   8.030
 2275POPC   C4A32226   5.786   4.203   7.635
 2275POPC   C1B32227   6.116   4.654   8.761
 2275POPC   C2B32228   5.962   4.767   8.370
 2275POPC   C3B32229   5.815   4.583   8.032
 2275POPC   C4B32230   6.029   4.667   7.699
 2276POPC   NC332231  20.800  43.264   9.483
 2276POPC   PO432232  21.035  42.667   9.271
 2276POPC   GL132233  20.832  42.993   9.006
 2276POPC   GL232234  20.498  43.084   9.025
 2276POPC   C1A32235  20.703  43.194   8.586
 2276POPC   D2A32236  20.493  42.995   8.239
 2276POPC   C3A32237  20.802  42.902   7.882
 2276POPC   C4A32238  21.043  42.938   7.465
 2276POPC   C1B32239  20.210  43.211   8.684
 2276POPC   C2B32240  20.334  43.511   8.377
 2276POPC   C3B32241  20.601  43.420   8.016
 2276POPC   C4B32242  20.338  43.115   7.775
 2277POPC   NC332243  33.472   7.023   9.585
 2277POPC   PO432244  33.757   6.394   9.776
 2277POPC   GL132245  33.546   6.550   9.348
 2277POPC   GL232246  33.814   6.615   9.112
 2277POPC   C1A32247  33.386   6.530   8.866
 2277POPC   D2A32248  33.648   6.396   8.498
 2277POPC   C3A32249  33.537   6.333   8.072
 2277POPC   C4A32250  33.605   6.545   7.700
 2277POPC   C1B32251  34.025   6.310   8.837
 2277POPC   C2B32252  34.173   6.351   8.412
 2277POPC   C3B32253  34.041   6.488   7.998
 2277POPC   C4B32254  34.096   6.467   7.559
 2278POPC   NC332255  36.536  38.041  10.073
 2278POPC   PO432256  36.053  37.708   9.644
 2278POPC   GL132257  36.037  37.709   9.212
 2278POPC   GL232258  36.388  37.767   9.161
 2278POPC   C1A32259  35.783  37.767   8.843
 2278POPC   D2A32260  35.817  37.556   8.449
 2278POPC   C3A32261  35.800  37.768   8.059
 2278POPC   C4A32262  35.852  37.714   7.624
 2278POPC   C1B32263  36.263  37.628   8.736
 2278POPC   C2B32264  36.331  37.657   8.267
 2278POPC   C3B32265  36.346  37.634   7.782
 2278POPC   C4B32266  36.515  37.519   7.341
 2279POPC   NC332267  35.007  40.905   9.521
 2279POPC   PO432268  35.694  40.757   9.447
 2279POPC   GL132269  35.325  40.740   9.164
 2279POPC   GL232270  35.160  41.109   9.092
 2279POPC   C1A32271  35.212  40.681   8.750
 2279POPC   D2A32272  35.378  40.515   8.377
 2279POPC   C3A32273  35.274  40.663   8.000
 2279POPC   C4A32274  35.287  40.475   7.584
 2279POPC   C1B32275  35.519  41.108   8.854
 2279POPC   C2B32276  35.507  41.005   8.434
 2279POPC   C3B32277  35.608  41.045   8.026
 2279POPC   C4B32278  35.412  41.002   7.644
 2280POPC   NC332279  21.714  32.036   9.561
 2280POPC   PO432280  22.378  32.247   9.459
 2280POPC   GL132281  22.072  32.073   9.156
 2280POPC   GL232282  22.371  32.177   8.929
 2280POPC   C1A32283  21.912  32.059   8.743
 2280POPC   D2A32284  22.154  32.285   8.454
 2280POPC   C3A32285  22.049  32.223   8.048
 2280POPC   C4A32286  22.114  32.000   7.687
 2280POPC   C1B32287  22.567  32.542   8.669
 2280POPC   C2B32288  22.517  32.552   8.205
 2280POPC   C3B32289  22.513  32.335   7.817
 2280POPC   C4B32290  22.355  32.392   7.416
 2281POPC   NC332291  27.801  31.770   9.429
 2281POPC   PO432292  27.711  32.451   9.448
 2281POPC   GL132293  27.597  32.144   9.134
 2281POPC   GL232294  27.927  32.034   9.023
 2281POPC   C1A32295  27.416  32.025   8.726
 2281POPC   D2A32296  27.516  32.251   8.342
 2281POPC   C3A32297  27.297  32.248   7.942
 2281POPC   C4A32298  27.424  32.457   7.571
 2281POPC   C1B32299  27.907  32.004   8.606
 2281POPC   C2B32300  28.019  32.235   8.269
 2281POPC   C3B32301  27.835  32.225   7.873
 2281POPC   C4B32302  27.796  32.159   7.433
 2282POPC   NC332303  18.567  15.430   9.438
 2282POPC   PO432304  18.398  14.819   9.452
 2282POPC   GL132305  18.590  14.918   9.077
 2282POPC   GL232306  18.805  15.223   9.047
 2282POPC   C1A32307  18.482  14.904   8.654
 2282POPC   D2A32308  18.160  15.155   8.475
 2282POPC   C3A32309  18.146  15.329   8.081
 2282POPC   C4A32310  18.070  15.043   7.810
 2282POPC   C1B32311  18.452  15.416   8.812
 2282POPC   C2B32312  18.428  15.609   8.430
 2282POPC   C3B32313  18.624  15.474   8.074
 2282POPC   C4B32314  18.538  15.248   7.714
 2283POPC   NC332315  20.726  31.106   9.606
 2283POPC   PO432316  20.474  30.532   9.752
 2283POPC   GL132317  20.696  30.553   9.337
 2283POPC   GL232318  20.564  30.844   9.181
 2283POPC   C1A32319  20.748  30.500   8.874
 2283POPC   D2A32320  20.568  30.652   8.519
 2283POPC   C3A32321  20.560  30.381   8.188
 2283POPC   C4A32322  20.452  30.380   7.775
 2283POPC   C1B32323  20.901  30.976   8.864
 2283POPC   C2B32324  20.823  31.073   8.433
 2283POPC   C3B32325  20.686  30.860   8.060
 2283POPC   C4B32326  20.800  31.001   7.678
 2284POPC   NC332327  44.612  42.757   9.779
 2284POPC   PO432328  44.406  43.163   9.295
 2284POPC   GL132329  44.519  43.084   8.943
 2284POPC   GL232330  44.825  43.018   9.041
 2284POPC   C1A32331  44.425  42.924   8.588
 2284POPC   D2A32332  44.615  42.951   8.223
 2284POPC   C3A32333  44.393  43.066   7.876
 2284POPC   C4A32334  44.490  43.265   7.491
 2284POPC   C1B32335  44.947  43.088   8.634
 2284POPC   C2B32336   0.008  43.258   8.264
 2284POPC   C3B32337  44.937  43.137   7.846
 2284POPC   C4B32338  44.955  43.449   7.553
 2285POPC   NC332339  31.611  30.010   9.751
 2285POPC   PO432340  31.053  30.272   9.625
 2285POPC   GL132341  31.355  30.032   9.197
 2285POPC   GL232342  31.609  30.190   9.009
 2285POPC   C1A32343  31.502  29.779   8.736
 2285POPC   D2A32344  31.440  29.805   8.260
 2285POPC   C3A32345  31.671  30.068   7.949
 2285POPC   C4A32346  31.677  30.103   7.488
 2285POPC   C1B32347  31.218  30.203   8.687
 2285POPC   C2B32348  31.144  30.215   8.205
 2285POPC   C3B32349  31.209  30.268   7.738
 2285POPC   C4B32350  31.197  30.281   7.270
 2286POPC   NC332351  37.640  35.027   9.525
 2286POPC   PO432352  37.874  35.696   9.397
 2286POPC   GL132353  37.603  35.566   9.081
 2286POPC   GL232354  37.673  35.267   9.084
 2286POPC   C1A32355  37.715  35.567   8.663
 2286POPC   D2A32356  37.531  35.661   8.299
 2286POPC   C3A32357  37.650  35.370   8.042
 2286POPC   C4A32358  37.694  35.576   7.681
 2286POPC   C1B32359  37.385  35.136   8.811
 2286POPC   C2B32360  37.289  35.220   8.416
 2286POPC   C3B32361  37.212  35.079   8.034
 2286POPC   C4B32362  37.405  35.119   7.656
 2287POPC   NC332363  37.493  11.198   9.729
 2287POPC   PO432364  37.982  11.637   9.600
 2287POPC   GL132365  37.812  11.512   9.183
 2287POPC   GL232366  37.619  11.180   9.186
 2287POPC   C1A32367  37.763  11.407   8.729
 2287POPC   D2A32368  37.951  11.104   8.433
 2287POPC   C3A32369  37.835  11.170   8.000
 2287POPC   C4A32370  37.596  11.518   7.832
 2287POPC   C1B32371  37.327  11.165   8.770
 2287POPC   C2B32372  37.423  11.195   8.344
 2287POPC   C3B32373  37.309  11.108   7.933
 2287POPC   C4B32374  37.560  10.892   7.663
 2288POPC   NC332375  33.578  21.541   9.420
 2288POPC   PO432376  34.071  21.092   9.614
 2288POPC   GL132377  33.924  21.238   9.207
 2288POPC   GL232378  33.604  21.267   8.990
 2288POPC   C1A32379  34.069  21.423   8.831
 2288POPC   D2A32380  33.938  21.334   8.433
 2288POPC   C3A32381  34.014  21.530   8.047
 2288POPC   C4A32382  33.843  21.389   7.684
 2288POPC   C1B32383  33.620  21.653   8.765
 2288POPC   C2B32384  33.698  21.785   8.347
 2288POPC   C3B32385  33.483  21.627   7.968
 2288POPC   C4B32386  33.419  21.600   7.521
 2289POPC   NC332387  32.636   8.931   9.393
 2289POPC   PO432388  33.198   9.309   9.513
 2289POPC   GL132389  33.137   8.999   9.176
 2289POPC   GL232390  33.275   8.661   9.210
 2289POPC   C1A32391  32.955   8.974   8.760
 2289POPC   D2A32392  33.124   9.114   8.366
 2289POPC   C3A32393  32.820   9.160   8.034
 2289POPC   C4A32394  32.834   8.912   7.629
 2289POPC   C1B32395  33.247   8.551   8.775
 2289POPC   C2B32396  33.023   8.606   8.391
 2289POPC   C3B32397  33.122   8.723   7.996
 2289POPC   C4B32398  33.101   8.470   7.605
 2290POPC   NC332399  44.323  23.044   9.900
 2290POPC   PO432400  43.969  23.202   9.365
 2290POPC   GL132401  43.994  22.862   9.065
 2290POPC   GL232402  43.970  22.469   9.109
 2290POPC   C1A32403  43.913  22.987   8.628
 2290POPC   D2A32404  44.140  23.072   8.268
 2290POPC   C3A32405  43.834  22.996   7.971
 2290POPC   C4A32406  43.759  23.182   7.564
 2290POPC   C1B32407  44.024  22.448   8.680
 2290POPC   C2B32408  43.943  22.573   8.273
 2290POPC   C3B32409  43.945  22.486   7.844
 2290POPC   C4B32410  44.057  22.778   7.538
 2291POPC   NC332411  20.119  30.639   9.473
 2291POPC   PO432412  19.501  30.915   9.481
 2291POPC   GL132413  19.757  30.709   9.117
 2291POPC   GL232414  20.062  30.907   9.041
 2291POPC   C1A32415  19.669  30.719   8.663
 2291POPC   D2A32416  19.539  30.464   8.295
 2291POPC   C3A32417  19.757  30.416   7.918
 2291POPC   C4A32418  19.842  30.710   7.625
 2291POPC   C1B32419  20.153  30.600   8.782
 2291POPC   C2B32420  20.079  30.620   8.332
 2291POPC   C3B32421  20.201  30.786   7.956
 2291POPC   C4B32422  20.339  30.807   7.511
 2292POPC   NC332423   9.868  23.215   9.510
 2292POPC   PO432424   9.439  22.641   9.451
 2292POPC   GL132425   9.704  22.850   9.190
 2292POPC   GL232426   9.476  23.151   9.164
 2292POPC   C1A32427   9.891  22.806   8.786
 2292POPC   D2A32428   9.825  22.605   8.396
 2292POPC   C3A32429   9.880  22.717   7.976
 2292POPC   C4A32430   9.890  22.882   7.550
 2292POPC   C1B32431   9.770  23.286   8.853
 2292POPC   C2B32432   9.931  23.205   8.442
 2292POPC   C3B32433   9.729  23.187   8.053
 2292POPC   C4B32434   9.526  23.224   7.646
 2293POPC   NC332435  29.728  10.799   9.411
 2293POPC   PO432436  30.348  10.805   9.644
 2293POPC   GL132437  30.146  10.507   9.248
 2293POPC   GL232438  29.862  10.285   9.172
 2293POPC   C1A32439  29.949  10.589   8.779
 2293POPC   D2A32440  29.764  10.458   8.355
 2293POPC   C3A32441  29.995  10.553   7.949
 2293POPC   C4A32442  30.104  10.346   7.529
 2293POPC   C1B32443  29.548  10.260   8.802
 2293POPC   C2B32444  29.322  10.125   8.473
 2293POPC   C3B32445  29.338  10.061   8.056
 2293POPC   C4B32446  29.435  10.355   7.756
 2294POPC   NC332447  20.502  42.630   9.337
 2294POPC   PO432448  20.427  41.927   9.530
 2294POPC   GL132449  20.628  42.160   9.151
 2294POPC   GL232450  20.318  42.252   8.965
 2294POPC   C1A32451  20.782  42.328   8.702
 2294POPC   D2A32452  20.606  42.492   8.211
 2294POPC   C3A32453  20.720  42.423   7.708
 2294POPC   C4A32454  20.895  42.503   7.253
 2294POPC   C1B32455  20.049  42.459   8.627
 2294POPC   C2B32456  20.086  42.678   8.251
 2294POPC   C3B32457  20.257  42.589   7.845
 2294POPC   C4B32458  20.237  42.209   7.640
 2295POPC   NC332459  39.136  31.456   9.729
 2295POPC   PO432460  39.257  30.854   9.431
 2295POPC   GL132461  39.312  31.295   9.251
 2295POPC   GL232462  39.138  31.622   9.250
 2295POPC   C1A32463  39.382  31.387   8.829
 2295POPC   D2A32464  39.200  31.269   8.462
 2295POPC   C3A32465  39.361  31.336   8.083
 2295POPC   C4A32466  39.190  31.379   7.697
 2295POPC   C1B32467  38.943  31.846   8.937
 2295POPC   C2B32468  38.913  31.704   8.531
 2295POPC   C3B32469  39.001  31.707   8.081
 2295POPC   C4B32470  38.757  31.642   7.697
 2296POPC   NC332471   4.839   0.199   9.481
 2296POPC   PO432472   4.821   0.863   9.405
 2296POPC   GL132473   4.848   0.560   9.086
 2296POPC   GL232474   5.161   0.392   9.136
 2296POPC   C1A32475   4.967   0.486   8.653
 2296POPC   D2A32476   4.902   0.639   8.251
 2296POPC   C3A32477   4.947   0.430   7.837
 2296POPC   C4A32478   4.949   0.559   7.400
 2296POPC   C1B32479   5.310   0.133   8.815
 2296POPC   C2B32480   5.238   0.150   8.391
 2296POPC   C3B32481   5.398   0.217   8.005
 2296POPC   C4B32482   5.267   0.081   7.622
 2297POPC   NC332483  26.186  13.149   9.408
 2297POPC   PO432484  25.732  12.689   9.559
 2297POPC   GL132485  25.816  12.904   9.192
 2297POPC   GL232486  25.919  12.633   9.042
 2297POPC   C1A32487  25.990  13.025   8.735
 2297POPC   D2A32488  26.247  12.938   8.328
 2297POPC   C3A32489  26.171  13.168   7.927
 2297POPC   C4A32490  25.994  13.137   7.494
 2297POPC   C1B32491  26.070  12.532   8.616
 2297POPC   C2B32492  26.046  12.460   8.188
 2297POPC   C3B32493  26.047  12.668   7.829
 2297POPC   C4B32494  25.893  12.613   7.406
 2298POPC   NC332495   4.487  20.760   9.741
 2298POPC   PO432496   4.001  20.432   9.555
 2298POPC   GL132497   4.388  20.604   9.285
 2298POPC   GL232498   4.199  20.864   9.256
 2298POPC   C1A32499   4.548  20.832   8.883
 2298POPC   D2A32500   4.565  20.640   8.458
 2298POPC   C3A32501   4.566  20.834   8.038
 2298POPC   C4A32502   4.489  20.559   7.679
 2298POPC   C1B32503   4.085  20.596   8.891
 2298POPC   C2B32504   4.042  20.660   8.479
 2298POPC   C3B32505   4.175  20.504   8.082
 2298POPC   C4B32506   4.077  20.244   7.713
 2299POPC   NC332507  17.428  39.431   9.509
 2299POPC   PO432508  17.696  38.811   9.506
 2299POPC   GL132509  17.465  39.032   9.167
 2299POPC   GL232510  17.725  39.029   9.037
 2299POPC   C1A32511  17.362  39.205   8.745
 2299POPC   D2A32512  17.611  39.171   8.394
 2299POPC   C3A32513  17.400  39.171   8.020
 2299POPC   C4A32514  17.365  39.425   7.668
 2299POPC   C1B32515  17.889  38.862   8.706
 2299POPC   C2B32516  18.074  38.917   8.385
 2299POPC   C3B32517  17.864  38.930   8.016
 2299POPC   C4B32518  17.641  38.949   7.628
 2300POPC   NC332519   6.855   0.947   9.440
 2300POPC   PO432520   6.544   1.473   9.577
 2300POPC   GL132521   6.672   1.435   9.160
 2300POPC   GL232522   6.324   1.272   9.155
 2300POPC   C1A32523   6.833   1.294   8.741
 2300POPC   D2A32524   6.714   0.923   8.463
 2300POPC   C3A32525   6.524   0.958   8.049
 2300POPC   C4A32526   6.732   1.130   7.686
 2300POPC   C1B32527   6.348   1.143   8.748
 2300POPC   C2B32528   6.458   1.381   8.341
 2300POPC   C3B32529   6.585   1.604   7.944
 2300POPC   C4B32530   6.612   1.597   7.479
 2301POPC   NC332531  34.238  15.021   9.324
 2301POPC   PO432532  33.680  15.324   9.606
 2301POPC   GL132533  33.749  15.339   9.166
 2301POPC   GL232534  34.023  15.585   9.148
 2301POPC   C1A32535  33.723  15.168   8.715
 2301POPC   D2A32536  33.579  14.899   8.335
 2301POPC   C3A32537  33.740  15.079   7.925
 2301POPC   C4A32538  34.160  15.196   7.758
 2301POPC   C1B32539  33.747  15.692   8.775
 2301POPC   C2B32540  33.726  15.536   8.346
 2301POPC   C3B32541  33.858  15.607   7.932
 2301POPC   C4B32542  33.549  15.510   7.661
 2302POPC   NC332543   5.078  24.754   9.494
 2302POPC   PO432544   5.441  24.140   9.445
 2302POPC   GL132545   5.086  24.363   9.193
 2302POPC   GL232546   4.949  24.126   8.993
 2302POPC   C1A32547   4.971  24.645   8.859
 2302POPC   D2A32548   5.100  24.580   8.467
 2302POPC   C3A32549   4.842  24.620   8.167
 2302POPC   C4A32550   4.892  24.717   7.744
 2302POPC   C1B32551   5.344  24.263   8.786
 2302POPC   C2B32552   5.564  24.398   8.464
 2302POPC   C3B32553   5.405  24.289   8.082
 2302POPC   C4B32554   5.403  24.087   7.683
 2303POPC   NC332555   6.606  36.870   9.504
 2303POPC   PO432556   7.269  36.854   9.624
 2303POPC   GL132557   7.012  36.818   9.187
 2303POPC   GL232558   6.653  36.673   9.049
 2303POPC   C1A32559   6.781  37.139   8.885
 2303POPC   D2A32560   6.615  37.229   8.470
 2303POPC   C3A32561   6.769  36.996   8.114
 2303POPC   C4A32562   6.647  37.100   7.697
 2303POPC   C1B32563   6.623  36.725   8.617
 2303POPC   C2B32564   6.367  36.761   8.303
 2303POPC   C3B32565   6.378  36.624   7.907
 2303POPC   C4B32566   6.189  36.804   7.575
 2304POPC   NC332567   0.436  44.150   9.487
 2304POPC   PO432568   0.531  43.488   9.522
 2304POPC   GL132569   0.570  43.761   9.158
 2304POPC   GL232570   0.210  43.838   9.127
 2304POPC   C1A32571   0.791  43.676   8.729
 2304POPC   D2A32572   0.755  43.947   8.354
 2304POPC   C3A32573   0.627  43.822   7.925
 2304POPC   C4A32574   0.498  43.603   7.524
 2304POPC   C1B32575   0.376  43.951   8.729
 2304POPC   C2B32576   0.274  44.160   8.387
 2304POPC   C3B32577   0.137  44.065   7.999
 2304POPC   C4B32578   0.190  44.312   7.644
 2305POPC   NC332579  38.397  44.450   9.535
 2305POPC   PO432580  38.403   0.055   9.340
 2305POPC   GL132581  38.391  44.814   9.038
 2305POPC   GL232582  38.143  44.513   9.096
 2305POPC   C1A32583  38.686  44.879   8.676
 2305POPC   D2A32584  38.829  44.639   8.314
 2305POPC   C3A32585  38.673  44.695   7.911
 2305POPC   C4A32586  38.779  44.452   7.526
 2305POPC   C1B32587  38.410  44.463   8.697
 2305POPC   C2B32588  38.334  44.730   8.316
 2305POPC   C3B32589  38.151  44.582   7.939
 2305POPC   C4B32590  37.752  44.311   7.952
 2306POPC   NC332591  34.635  41.821   9.373
 2306POPC   PO432592  34.098  41.458   9.629
 2306POPC   GL132593  34.390  41.339   9.259
 2306POPC   GL232594  34.663  41.380   9.048
 2306POPC   C1A32595  34.311  41.167   8.798
 2306POPC   D2A32596  34.547  41.243   8.401
 2306POPC   C3A32597  34.318  41.404   8.070
 2306POPC   C4A32598  34.093  41.581   7.743
 2306POPC   C1B32599  34.487  41.649   8.709
 2306POPC   C2B32600  34.642  41.758   8.281
 2306POPC   C3B32601  34.551  41.778   7.811
 2306POPC   C4B32602  34.698  41.690   7.378
 2307POPC   NC332603  27.736  35.368   9.882
 2307POPC   PO432604  27.660  34.694   9.560
 2307POPC   GL132605  27.526  34.430   9.219
 2307POPC   GL232606  27.567  34.705   9.008
 2307POPC   C1A32607  27.673  34.257   8.807
 2307POPC   D2A32608  27.586  34.514   8.440
 2307POPC   C3A32609  27.485  34.365   8.002
 2307POPC   C4A32610  27.414  34.457   7.539
 2307POPC   C1B32611  27.489  34.983   8.665
 2307POPC   C2B32612  27.570  34.993   8.225
 2307POPC   C3B32613  27.544  34.854   7.809
 2307POPC   C4B32614  27.400  34.974   7.396
 2308POPC   NC332615  15.115  21.729   9.505
 2308POPC   PO432616  14.813  21.088   9.593
 2308POPC   GL132617  15.059  21.319   9.192
 2308POPC   GL232618  14.889  21.640   9.085
 2308POPC   C1A32619  15.029  21.356   8.682
 2308POPC   D2A32620  15.223  21.150   8.296
 2308POPC   C3A32621  15.182  21.246   7.831
 2308POPC   C4A32622  15.304  21.174   7.405
 2308POPC   C1B32623  14.969  21.857   8.783
 2308POPC   C2B32624  15.176  21.818   8.410
 2308POPC   C3B32625  15.272  21.683   8.036
 2308POPC   C4B32626  15.022  21.710   7.671
 2309POPC   NC332627  19.372  14.846   9.548
 2309POPC   PO432628  19.125  15.487   9.592
 2309POPC   GL132629  19.302  15.294   9.219
 2309POPC   GL232630  19.648  15.353   9.216
 2309POPC   C1A32631  19.221  15.322   8.772
 2309POPC   D2A32632  18.854  15.263   8.522
 2309POPC   C3A32633  19.022  15.141   8.174
 2309POPC   C4A32634  19.018  15.086   7.755
 2309POPC   C1B32635  19.602  15.002   8.892
 2309POPC   C2B32636  19.387  14.871   8.487
 2309POPC   C3B32637  19.485  14.976   8.059
 2309POPC   C4B32638  19.460  15.340   7.750
 2310POPC   NC332639  15.544  15.656   9.802
 2310POPC   PO432640  15.367  16.146   9.605
 2310POPC   GL132641  15.208  16.170   9.130
 2310POPC   GL232642  15.048  15.865   8.977
 2310POPC   C1A32643  15.177  16.247   8.649
 2310POPC   D2A32644  15.089  15.983   8.283
 2310POPC   C3A32645  15.042  16.188   7.877
 2310POPC   C4A32646  15.180  16.030   7.445
 2310POPC   C1B32647  14.741  15.976   8.646
 2310POPC   C2B32648  14.610  15.943   8.177
 2310POPC   C3B32649  14.883  15.700   7.872
 2310POPC   C4B32650  14.946  15.566   7.441
 2311POPC   NC332651  44.796   4.837   9.452
 2311POPC   PO432652  44.455   5.546   9.496
 2311POPC   GL132653  44.593   5.246   9.185
 2311POPC   GL232654  44.886   5.369   9.148
 2311POPC   C1A32655  44.663   4.998   8.796
 2311POPC   D2A32656  44.548   4.860   8.372
 2311POPC   C3A32657  44.644   5.113   8.003
 2311POPC   C4A32658  44.531   5.075   7.564
 2311POPC   C1B32659   0.104   5.277   8.815
 2311POPC   C2B32660  44.957   5.373   8.425
 2311POPC   C3B32661   0.134   5.429   8.025
 2311POPC   C4B32662  44.975   5.307   7.622
 2312POPC   NC332663  23.308  18.797   9.259
 2312POPC   PO432664  22.829  19.065   9.632
 2312POPC   GL132665  22.930  19.230   9.232
 2312POPC   GL232666  23.265  19.320   9.213
 2312POPC   C1A32667  22.894  19.192   8.773
 2312POPC   D2A32668  23.065  18.887   8.448
 2312POPC   C3A32669  22.864  18.812   8.040
 2312POPC   C4A32670  23.097  18.805   7.645
 2312POPC   C1B32671  23.397  19.279   8.763
 2312POPC   C2B32672  23.241  19.384   8.354
 2312POPC   C3B32673  23.218  19.197   7.954
 2312POPC   C4B32674  22.822  19.240   7.743
 2313POPC   NC332675  43.678  41.599   9.443
 2313POPC   PO432676  44.130  41.227   9.732
 2313POPC   GL132677  43.985  41.292   9.220
 2313POPC   GL232678  44.083  41.687   9.147
 2313POPC   C1A32679  43.798  41.470   8.781
 2313POPC   D2A32680  43.593  41.331   8.376
 2313POPC   C3A32681  43.895  41.297   8.035
 2313POPC   C4A32682  43.850  41.283   7.583
 2313POPC   C1B32683  43.939  41.964   8.802
 2313POPC   C2B32684  43.708  41.901   8.431
 2313POPC   C3B32685  43.697  41.786   8.000
 2313POPC   C4B32686  44.101  41.703   7.794
 2314POPC   NC332687  37.242  33.720   9.277
 2314POPC   PO432688  36.623  33.990   9.479
 2314POPC   GL132689  36.752  33.872   9.090
 2314POPC   GL232690  36.616  33.520   9.109
 2314POPC   C1A32691  37.008  33.896   8.680
 2314POPC   D2A32692  36.940  34.145   8.302
 2314POPC   C3A32693  37.112  34.065   7.902
 2314POPC   C4A32694  37.298  34.176   7.522
 2314POPC   C1B32695  36.549  33.676   8.677
 2314POPC   C2B32696  36.789  33.612   8.289
 2314POPC   C3B32697  36.685  33.807   7.916
 2314POPC   C4B32698  36.828  33.824   7.506
 2315POPC   NC332699  35.736  13.094   9.474
 2315POPC   PO432700  35.133  12.749   9.417
 2315POPC   GL132701  35.338  12.892   9.053
 2315POPC   GL232702  35.702  12.797   9.075
 2315POPC   C1A32703  35.163  12.981   8.644
 2315POPC   D2A32704  35.338  13.021   8.259
 2315POPC   C3A32705  35.264  12.825   7.848
 2315POPC   C4A32706  35.506  12.921   7.457
 2315POPC   C1B32707  35.611  12.601   8.711
 2315POPC   C2B32708  35.748  12.723   8.339
 2315POPC   C3B32709  35.785  12.812   7.931
 2315POPC   C4B32710  35.971  13.047   7.647
 2316POPC   NC332711  35.930   0.172   9.433
 2316POPC   PO432712  36.483   0.365   9.653
 2316POPC   GL132713  36.212   0.543   9.234
 2316POPC   GL232714  35.820   0.583   9.148
 2316POPC   C1A32715  36.123   0.355   8.797
 2316POPC   D2A32716  36.326   0.211   8.407
 2316POPC   C3A32717  36.126   0.285   8.009
 2316POPC   C4A32718  36.303   0.401   7.613
 2316POPC   C1B32719  35.828   0.770   8.717
 2316POPC   C2B32720  36.003   0.674   8.340
 2316POPC   C3B32721  35.890   0.791   7.936
 2316POPC   C4B32722  35.788   0.493   7.627
 2317POPC   NC332723  31.240   2.223   9.468
 2317POPC   PO432724  31.695   1.689   9.592
 2317POPC   GL132725  31.606   1.900   9.217
 2317POPC   GL232726  31.291   1.794   9.111
 2317POPC   C1A32727  31.673   1.744   8.783
 2317POPC   D2A32728  31.648   1.533   8.391
 2317POPC   C3A32729  31.510   1.812   8.053
 2317POPC   C4A32730  31.710   2.135   7.808
 2317POPC   C1B32731  31.348   2.149   8.802
 2317POPC   C2B32732  31.211   2.104   8.370
 2317POPC   C3B32733  31.231   2.272   7.952
 2317POPC   C4B32734  30.938   2.487   7.701
 2318POPC   NC332735  28.829  26.716   9.546
 2318POPC   PO432736  29.421  26.591   9.382
 2318POPC   GL132737  29.191  26.828   9.084
 2318POPC   GL232738  28.845  26.970   9.098
 2318POPC   C1A32739  28.956  26.654   8.716
 2318POPC   D2A32740  28.788  26.556   8.332
 2318POPC   C3A32741  28.938  26.652   7.896
 2318POPC   C4A32742  29.209  26.828   7.536
 2318POPC   C1B32743  29.003  27.151   8.750
 2318POPC   C2B32744  28.962  27.027   8.343
 2318POPC   C3B32745  29.111  27.122   7.969
 2318POPC   C4B32746  29.029  27.315   7.599
 2319POPC   NC332747   0.906  42.036   9.505
 2319POPC   PO432748   1.309  41.425   9.487
 2319POPC   GL132749   1.154  41.680   9.194
 2319POPC   GL232750   1.000  41.394   9.011
 2319POPC   C1A32751   1.317  41.787   8.829
 2319POPC   D2A32752   1.374  41.807   8.435
 2319POPC   C3A32753   1.096  41.571   8.279
 2319POPC   C4A32754   1.057  41.649   7.882
 2319POPC   C1B32755   1.391  41.290   8.766
 2319POPC   C2B32756   1.583  41.348   8.384
 2319POPC   C3B32757   1.417  41.280   8.002
 2319POPC   C4B32758   1.555  41.563   7.763
 2320POPC   NC332759  30.185  22.076   9.346
 2320POPC   PO432760  29.663  21.720   9.385
 2320POPC   GL132761  29.797  21.969   9.064
 2320POPC   GL232762  29.745  22.298   9.219
 2320POPC   C1A32763  30.039  21.999   8.704
 2320POPC   D2A32764  29.992  21.839   8.296
 2320POPC   C3A32765  29.881  22.063   7.939
 2320POPC   C4A32766  30.090  22.136   7.557
 2320POPC   C1B32767  29.711  22.434   8.796
 2320POPC   C2B32768  29.798  22.324   8.381
 2320POPC   C3B32769  29.822  22.557   8.020
 2320POPC   C4B32770  29.702  22.453   7.650
 2321POPC   NC332771  13.062  34.184   9.496
 2321POPC   PO432772  12.802  33.558   9.495
 2321POPC   GL132773  12.813  33.864   9.149
 2321POPC   GL232774  13.117  33.995   9.025
 2321POPC   C1A32775  12.630  34.032   8.781
 2321POPC   D2A32776  12.532  34.306   8.433
 2321POPC   C3A32777  12.606  34.036   8.088
 2321POPC   C4A32778  12.774  33.881   7.711
 2321POPC   C1B32779  13.205  33.862   8.599
 2321POPC   C2B32780  13.208  33.521   8.335
 2321POPC   C3B32781  13.049  33.490   7.937
 2321POPC   C4B32782  13.229  33.714   7.571
 2322POPC   NC332783  43.215  38.053   9.819
 2322POPC   PO432784  43.462  38.577   9.459
 2322POPC   GL132785  43.173  38.396   9.139
 2322POPC   GL232786  42.792  38.373   9.191
 2322POPC   C1A32787  43.214  38.385   8.706
 2322POPC   D2A32788  43.222  38.665   8.398
 2322POPC   C3A32789  43.063  38.524   8.052
 2322POPC   C4A32790  43.266  38.274   7.752
 2322POPC   C1B32791  42.697  38.338   8.743
 2322POPC   C2B32792  42.849  38.142   8.340
 2322POPC   C3B32793  42.753  38.147   7.891
 2322POPC   C4B32794  42.606  38.538   7.764
 2323POPC   NC332795  27.328  29.437   9.494
 2323POPC   PO432796  27.771  28.907   9.510
 2323POPC   GL132797  27.602  29.139   9.191
 2323POPC   GL232798  27.522  28.867   9.019
 2323POPC   C1A32799  27.744  29.219   8.769
 2323POPC   D2A32800  27.563  28.958   8.489
 2323POPC   C3A32801  27.734  29.054   8.121
 2323POPC   C4A32802  27.497  29.058   7.794
 2323POPC   C1B32803  27.263  29.282   8.820
 2323POPC   C2B32804  27.250  29.387   8.364
 2323POPC   C3B32805  27.082  29.328   7.929
 2323POPC   C4B32806  27.210  29.351   7.473
 2324POPC   NC332807   6.016  32.810   9.859
 2324POPC   PO432808   5.648  32.872   9.336
 2324POPC   GL132809   5.872  33.077   9.025
 2324POPC   GL232810   6.193  33.005   8.897
 2324POPC   C1A32811   5.833  33.338   8.664
 2324POPC   D2A32812   5.548  33.515   8.355
 2324POPC   C3A32813   5.718  33.507   7.925
 2324POPC   C4A32814   5.720  33.250   7.551
 2324POPC   C1B32815   6.348  32.637   8.605
 2324POPC   C2B32816   6.339  32.449   8.169
 2324POPC   C3B32817   6.069  32.602   7.831
 2324POPC   C4B32818   6.180  32.638   7.393
 2325POPC   NC332819  28.022  44.664   9.416
 2325POPC   PO432820  28.403   0.193   9.529
 2325POPC   GL132821  28.420  44.901   9.173
 2325POPC   GL232822  28.448  44.532   9.088
 2325POPC   C1A32823  28.341  44.892   8.726
 2325POPC   D2A32824  28.251  44.993   8.292
 2325POPC   C3A32825  28.149  44.768   7.886
 2325POPC   C4A32826  27.990  44.694   7.445
 2325POPC   C1B32827  28.560  44.443   8.629
 2325POPC   C2B32828  28.676  44.669   8.250
 2325POPC   C3B32829  28.639  44.875   7.848
 2325POPC   C4B32830  28.500  44.742   7.468
 2326POPC   NC332831  22.457  38.560   9.230
 2326POPC   PO432832  22.008  38.134   9.451
 2326POPC   GL132833  22.005  38.346   9.098
 2326POPC   GL232834  21.920  38.700   9.130
 2326POPC   C1A32835  22.130  38.270   8.688
 2326POPC   D2A32836  21.967  38.454   8.344
 2326POPC   C3A32837  22.110  38.327   7.958
 2326POPC   C4A32838  21.949  38.492   7.542
 2326POPC   C1B32839  22.119  38.793   8.717
 2326POPC   C2B32840  22.315  38.836   8.299
 2326POPC   C3B32841  22.075  38.832   7.909
 2326POPC   C4B32842  21.918  39.094   7.576
 2327POPC   NC332843  20.150  23.555   9.647
 2327POPC   PO432844  19.873  24.165   9.547
 2327POPC   GL132845  19.925  23.781   9.218
 2327POPC   GL232846  20.009  23.390   9.199
 2327POPC   C1A32847  20.028  23.637   8.769
 2327POPC   D2A32848  20.168  23.384   8.425
 2327POPC   C3A32849  20.005  23.563   8.051
 2327POPC   C4A32850  20.043  23.755   7.637
 2327POPC   C1B32851  19.726  23.214   8.874
 2327POPC   C2B32852  19.647  23.231   8.421
 2327POPC   C3B32853  19.552  23.313   7.976
 2327POPC   C4B32854  19.577  23.582   7.596
 2328POPC   NC332855  33.747   1.470   9.433
 2328POPC   PO432856  33.969   0.811   9.361
 2328POPC   GL132857  33.746   1.108   9.085
 2328POPC   GL232858  33.619   0.906   8.809
 2328POPC   C1A32859  33.768   1.392   8.755
 2328POPC   D2A32860  33.753   1.192   8.346
 2328POPC   C3A32861  33.848   1.358   7.946
 2328POPC   C4A32862  33.732   1.153   7.538
 2328POPC   C1B32863  34.090   1.014   8.725
 2328POPC   C2B32864  34.311   0.856   8.405
 2328POPC   C3B32865  34.097   0.916   8.015
 2328POPC   C4B32866  34.220   1.071   7.641
 2329POPC   NC332867  34.945  44.107   9.521
 2329POPC   PO432868  35.597  43.787   9.479
 2329POPC   GL132869  35.506  44.054   9.110
 2329POPC   GL232870  35.165  44.188   9.077
 2329POPC   C1A32871  35.471  44.103   8.653
 2329POPC   D2A32872  35.550  44.092   8.217
 2329POPC   C3A32873  35.602  43.738   7.991
 2329POPC   C4A32874  35.391  43.653   7.628
 2329POPC   C1B32875  35.011  43.921   8.767
 2329POPC   C2B32876  35.045  44.100   8.349
 2329POPC   C3B32877  35.084  43.871   7.963
 2329POPC   C4B32878  34.998  43.947   7.506
 2330POPC   NC332879  14.604  19.504   9.559
 2330POPC   PO432880  14.639  20.160   9.503
 2330POPC   GL132881  14.618  19.842   9.152
 2330POPC   GL232882  14.312  19.610   9.165
 2330POPC   C1A32883  14.728  19.797   8.707
 2330POPC   D2A32884  14.670  20.056   8.323
 2330POPC   C3A32885  14.702  19.852   7.917
 2330POPC   C4A32886  14.396  19.806   7.577
 2330POPC   C1B32887  14.194  19.766   8.792
 2330POPC   C2B32888  14.079  19.554   8.447
 2330POPC   C3B32889  14.185  19.674   8.056
 2330POPC   C4B32890  14.058  19.467   7.688
 2331POPC   NC332891  11.237  39.039   9.594
 2331POPC   PO432892  11.553  39.650   9.485
 2331POPC   GL132893  11.516  39.272   9.195
 2331POPC   GL232894  11.165  39.187   9.104
 2331POPC   C1A32895  11.556  39.336   8.742
 2331POPC   D2A32896  11.827  39.438   8.371
 2331POPC   C3A32897  11.575  39.460   7.984
 2331POPC   C4A32898  11.366  39.125   7.796
 2331POPC   C1B32899  11.074  39.569   8.862
 2331POPC   C2B32900  10.876  39.533   8.461
 2331POPC   C3B32901  11.046  39.424   8.061
 2331POPC   C4B32902  11.072  39.518   7.604
 2332POPC   NC332903  36.308  21.004   9.289
 2332POPC   PO432904  35.917  21.456   9.594
 2332POPC   GL132905  35.889  21.576   9.149
 2332POPC   GL232906  35.959  21.268   9.053
 2332POPC   C1A32907  36.034  21.631   8.718
 2332POPC   D2A32908  36.288  21.639   8.369
 2332POPC   C3A32909  36.334  21.499   7.979
 2332POPC   C4A32910  36.032  21.676   7.719
 2332POPC   C1B32911  36.160  21.150   8.653
 2332POPC   C2B32912  36.240  20.958   8.280
 2332POPC   C3B32913  36.269  20.980   7.898
 2332POPC   C4B32914  35.960  21.197   7.777
 2333POPC   NC332915  11.002  37.400   9.324
 2333POPC   PO432916  11.502  37.939   9.436
 2333POPC   GL132917  11.335  37.730   9.074
 2333POPC   GL232918  11.013  37.899   9.101
 2333POPC   C1A32919  11.369  37.673   8.605
 2333POPC   D2A32920  11.471  37.417   8.206
 2333POPC   C3A32921  11.476  37.617   7.779
 2333POPC   C4A32922  11.700  37.597   7.374
 2333POPC   C1B32923  10.882  37.935   8.660
 2333POPC   C2B32924  11.025  37.873   8.231
 2333POPC   C3B32925  10.923  37.898   7.776
 2333POPC   C4B32926  10.814  38.084   7.351
 2334POPC   NC332927   8.482  31.248   9.743
 2334POPC   PO432928   7.977  31.620   9.474
 2334POPC   GL132929   8.281  31.617   9.161
 2334POPC   GL232930   8.259  31.343   8.926
 2334POPC   C1A32931   8.372  31.823   8.791
 2334POPC   D2A32932   8.345  31.577   8.430
 2334POPC   C3A32933   8.370  31.780   8.062
 2334POPC   C4A32934   8.436  31.582   7.686
 2334POPC   C1B32935   7.911  31.605   8.786
 2334POPC   C2B32936   7.756  31.614   8.382
 2334POPC   C3B32937   7.947  31.443   7.981
 2334POPC   C4B32938   7.936  31.638   7.565
 2335POPC   NC332939  23.562  17.867   9.522
 2335POPC   PO432940  23.635  17.230   9.361
 2335POPC   GL132941  23.803  17.584   9.124
 2335POPC   GL232942  23.493  17.736   9.052
 2335POPC   C1A32943  23.849  17.657   8.668
 2335POPC   D2A32944  23.915  17.300   8.436
 2335POPC   C3A32945  23.936  17.370   8.011
 2335POPC   C4A32946  23.686  17.165   7.729
 2335POPC   C1B32947  23.444  17.394   8.770
 2335POPC   C2B32948  23.368  17.346   8.355
 2335POPC   C3B32949  23.438  17.558   7.975
 2335POPC   C4B32950  23.708  17.683   7.651
 2336POPC   NC332951   4.145  29.603   9.399
 2336POPC   PO432952   4.217  30.264   9.420
 2336POPC   GL132953   4.593  30.098   9.142
 2336POPC   GL232954   4.551  29.761   9.118
 2336POPC   C1A32955   4.702  29.972   8.672
 2336POPC   D2A32956   4.411  30.088   8.328
 2336POPC   C3A32957   4.471  29.953   7.920
 2336POPC   C4A32958   4.082  30.046   7.763
 2336POPC   C1B32959   4.214  29.874   8.784
 2336POPC   C2B32960   4.055  29.706   8.397
 2336POPC   C3B32961   4.111  29.570   7.996
 2336POPC   C4B32962   4.176  29.323   7.675
 2337POPC   NC332963   5.115  29.449   9.582
 2337POPC   PO432964   4.972  28.780   9.416
 2337POPC   GL132965   5.122  29.101   9.205
 2337POPC   GL232966   4.782  29.261   9.221
 2337POPC   C1A32967   5.347  29.154   8.830
 2337POPC   D2A32968   5.467  29.001   8.431
 2337POPC   C3A32969   5.348  29.279   8.118
 2337POPC   C4A32970   5.139  29.389   7.760
 2337POPC   C1B32971   4.810  29.028   8.805
 2337POPC   C2B32972   4.793  29.127   8.380
 2337POPC   C3B32973   4.918  29.018   8.000
 2337POPC   C4B32974   4.766  29.051   7.591
 2338POPC   NC332975  39.566   0.885   9.640
 2338POPC   PO432976  39.019   1.209   9.662
 2338POPC   GL132977  39.177   1.082   9.267
 2338POPC   GL232978  39.090   1.389   9.136
 2338POPC   C1A32979  39.309   1.052   8.811
 2338POPC   D2A32980  39.572   1.195   8.456
 2338POPC   C3A32981  39.378   1.157   8.063
 2338POPC   C4A32982  39.174   1.021   7.718
 2338POPC   C1B32983  38.867   1.553   8.796
 2338POPC   C2B32984  38.679   1.381   8.452
 2338POPC   C3B32985  38.845   1.208   8.070
 2338POPC   C4B32986  38.814   1.378   7.633
 2339POPC   NC332987  30.605  20.689   9.648
 2339POPC   PO432988  31.192  20.401   9.600
 2339POPC   GL132989  30.993  20.666   9.265
 2339POPC   GL232990  30.595  20.592   9.152
 2339POPC   C1A32991  30.943  20.689   8.818
 2339POPC   D2A32992  30.621  20.475   8.579
 2339POPC   C3A32993  30.720  20.546   8.166
 2339POPC   C4A32994  30.724  20.378   7.771
 2339POPC   C1B32995  30.376  20.860   8.811
 2339POPC   C2B32996  30.255  20.783   8.344
 2339POPC   C3B32997  30.310  20.667   7.897
 2339POPC   C4B32998  30.494  20.782   7.499
 2340POPC   NC332999  43.797  28.089   9.779
 2340POPC   PO433000  43.651  28.547   9.321
 2340POPC   GL133001  43.924  28.566   8.979
 2340POPC   GL233002  43.615  28.412   8.854
 2340POPC   C1A33003  44.058  28.274   8.632
 2340POPC   D2A33004  44.023  28.262   8.177
 2340POPC   C3A33005  44.206  28.605   7.964
 2340POPC   C4A33006  44.271  28.564   7.563
 2340POPC   C1B33007  43.599  28.444   8.486
 2340POPC   C2B33008  43.760  28.694   8.213
 2340POPC   C3B33009  43.717  28.513   7.813
 2340POPC   C4B33010  43.506  28.216   7.552
 2341POPC   NC333011  22.779  17.918   9.508
 2341POPC   PO433012  22.828  17.272   9.441
 2341POPC   GL133013  23.049  17.367   9.094
 2341POPC   GL233014  22.971  17.685   9.075
 2341POPC   C1A33015  22.954  17.320   8.684
 2341POPC   D2A33016  22.881  17.596   8.382
 2341POPC   C3A33017  22.967  17.385   8.040
 2341POPC   C4A33018  22.876  17.263   7.659
 2341POPC   C1B33019  23.165  17.859   8.700
 2341POPC   C2B33020  23.091  18.088   8.303
 2341POPC   C3B33021  22.808  17.924   8.013
 2341POPC   C4B33022  23.034  17.763   7.702
 2342POPC   NC333023  27.853   1.527   9.519
 2342POPC   PO433024  27.213   1.344   9.494
 2342POPC   GL133025  27.555   1.305   9.179
 2342POPC   GL233026  27.515   1.603   9.125
 2342POPC   C1A33027  27.745   1.131   8.826
 2342POPC   D2A33028  27.641   1.178   8.381
 2342POPC   C3A33029  27.637   1.078   7.922
 2342POPC   C4A33030  27.283   0.840   7.728
 2342POPC   C1B33031  27.885   1.630   8.879
 2342POPC   C2B33032  27.999   1.600   8.455
 2342POPC   C3B33033  27.782   1.573   8.088
 2342POPC   C4B33034  27.724   1.637   7.689
 2343POPC   NC333035   9.279  31.899   9.338
 2343POPC   PO433036   8.667  31.661   9.653
 2343POPC   GL133037   8.710  31.394   9.253
 2343POPC   GL233038   9.018  31.506   9.140
 2343POPC   C1A33039   8.725  31.404   8.767
 2343POPC   D2A33040   8.929  31.595   8.433
 2343POPC   C3A33041   8.766  31.468   8.066
 2343POPC   C4A33042   8.965  31.558   7.681
 2343POPC   C1B33043   9.296  31.392   8.801
 2343POPC   C2B33044   9.223  31.171   8.420
 2343POPC   C3B33045   9.232  31.281   8.013
 2343POPC   C4B33046   9.131  31.076   7.608
 2344POPC   NC333047   9.007   2.138   9.584
 2344POPC   PO433048   9.570   2.161   9.224
 2344POPC   GL133049   9.213   1.931   9.106
 2344POPC   GL233050   8.844   2.023   9.138
 2344POPC   C1A33051   9.062   1.933   8.694
 2344POPC   D2A33052   9.136   2.190   8.317
 2344POPC   C3A33053   9.113   1.979   7.945
 2344POPC   C4A33054   9.419   1.938   7.652
 2344POPC   C1B33055   8.770   2.335   8.821
 2344POPC   C2B33056   8.647   2.314   8.392
 2344POPC   C3B33057   8.813   2.425   7.971
 2344POPC   C4B33058   8.823   2.162   7.567
 2345POPC   NC333059  29.664   8.317   9.230
 2345POPC   PO433060  29.167   8.128   9.651
 2345POPC   GL133061  29.190   8.098   9.214
 2345POPC   GL233062  29.157   8.460   9.152
 2345POPC   C1A33063  29.226   7.966   8.785
 2345POPC   D2A33064  29.011   8.054   8.405
 2345POPC   C3A33065  29.233   8.122   8.030
 2345POPC   C4A33066  29.014   7.938   7.738
 2345POPC   C1B33067  29.275   8.493   8.699
 2345POPC   C2B33068  29.080   8.554   8.300
 2345POPC   C3B33069  28.935   8.517   7.867
 2345POPC   C4B33070  28.868   8.609   7.383
 2346POPC   NC333071  43.674  44.907   9.408
 2346POPC   PO433072  44.211  44.587   9.713
 2346POPC   GL133073  44.060  44.586   9.290
 2346POPC   GL233074  44.111  44.920   9.118
 2346POPC   C1A33075  44.089  44.498   8.834
 2346POPC   D2A33076  44.161  44.668   8.412
 2346POPC   C3A33077  43.856  44.496   8.093
 2346POPC   C4A33078  43.598  44.225   7.807
 2346POPC   C1B33079  44.001   0.124   8.673
 2346POPC   C2B33080  44.004   0.105   8.178
 2346POPC   C3B33081  43.998  44.873   7.777
 2346POPC   C4B33082  44.084  44.952   7.284
 2347POPC   NC333083  26.534  10.749   9.971
 2347POPC   PO433084  27.083  10.472   9.696
 2347POPC   GL133085  26.856  10.450   9.236
 2347POPC   GL233086  26.698  10.707   9.000
 2347POPC   C1A33087  27.026  10.307   8.812
 2347POPC   D2A33088  26.910  10.562   8.491
 2347POPC   C3A33089  26.830  10.515   8.074
 2347POPC   C4A33090  26.590  10.820   7.884
 2347POPC   C1B33091  26.537  10.333   8.774
 2347POPC   C2B33092  26.547  10.176   8.356
 2347POPC   C3B33093  26.375  10.282   7.937
 2347POPC   C4B33094  26.461  10.192   7.513
 2348POPC   NC333095  33.305  27.631   9.801
 2348POPC   PO433096  32.813  27.711   9.289
 2348POPC   GL133097  33.001  27.473   9.049
 2348POPC   GL233098  33.335  27.398   9.137
 2348POPC   C1A33099  32.943  27.624   8.638
 2348POPC   D2A33100  32.612  27.813   8.406
 2348POPC   C3A33101  32.673  27.709   7.981
 2348POPC   C4A33102  32.935  27.650   7.633
 2348POPC   C1B33103  33.298  27.252   8.680
 2348POPC   C2B33104  33.102  27.319   8.245
 2348POPC   C3B33105  33.305  27.373   7.843
 2348POPC   C4B33106  33.421  27.499   7.417
 2349POPC   NC333107   6.973  14.536   9.468
 2349POPC   PO433108   6.349  14.643   9.475
 2349POPC   GL133109   6.525  14.356   9.123
 2349POPC   GL233110   6.863  14.337   9.028
 2349POPC   C1A33111   6.555  14.062   8.755
 2349POPC   D2A33112   6.470  14.114   8.332
 2349POPC   C3A33113   6.807  14.104   8.024
 2349POPC   C4A33114   6.872  14.255   7.625
 2349POPC   C1B33115   6.620  14.578   8.694
 2349POPC   C2B33116   6.616  14.625   8.261
 2349POPC   C3B33117   6.538  14.601   7.842
 2349POPC   C4B33118   6.924  14.778   7.712
 2350POPC   NC333119  15.532   7.120   9.410
 2350POPC   PO433120  15.561   7.794   9.442
 2350POPC   GL133121  15.291   7.491   9.135
 2350POPC   GL233122  14.958   7.552   9.053
 2350POPC   C1A33123  15.331   7.244   8.717
 2350POPC   D2A33124  15.172   7.091   8.277
 2350POPC   C3A33125  15.218   7.320   7.877
 2350POPC   C4A33126  15.238   7.777   7.856
 2350POPC   C1B33127  14.952   7.611   8.617
 2350POPC   C2B33128  14.657   7.735   8.294
 2350POPC   C3B33129  14.749   7.623   7.890
 2350POPC   C4B33130  14.752   7.216   7.685
 2351POPC   NC333131  27.012   1.744   9.345
 2351POPC   PO433132  26.570   1.321   9.537
 2351POPC   GL133133  26.765   1.122   9.125
 2351POPC   GL233134  27.121   1.047   9.065
 2351POPC   C1A33135  26.798   0.991   8.665
 2351POPC   D2A33136  26.787   1.260   8.270
 2351POPC   C3A33137  26.716   1.052   7.838
 2351POPC   C4A33138  26.602   0.987   7.368
 2351POPC   C1B33139  27.268   1.363   8.740
 2351POPC   C2B33140  27.273   1.537   8.301
 2351POPC   C3B33141  27.160   1.293   7.917
 2351POPC   C4B33142  26.905   1.381   7.512
 2352POPC   NC333143  12.810   7.583   9.473
 2352POPC   PO433144  13.198   7.101   9.524
 2352POPC   GL133145  12.965   7.200   9.134
 2352POPC   GL233146  12.623   7.312   9.063
 2352POPC   C1A33147  13.051   7.362   8.723
 2352POPC   D2A33148  12.779   7.389   8.370
 2352POPC   C3A33149  12.925   7.235   7.982
 2352POPC   C4A33150  12.730   7.157   7.588
 2352POPC   C1B33151  12.705   7.717   8.809
 2352POPC   C2B33152  12.951   7.870   8.432
 2352POPC   C3B33153  12.949   7.758   8.029
 2352POPC   C4B33154  12.683   7.652   7.688
 2353POPC   NC333155   9.190  42.711   9.428
 2353POPC   PO433156   8.771  43.168   9.431
 2353POPC   GL133157   8.772  42.876   9.090
 2353POPC   GL233158   9.066  43.065   8.978
 2353POPC   C1A33159   8.826  42.770   8.657
 2353POPC   D2A33160   9.033  43.095   8.436
 2353POPC   C3A33161   8.923  43.163   8.026
 2353POPC   C4A33162   8.980  42.868   7.704
 2353POPC   C1B33163   9.366  43.361   8.775
 2353POPC   C2B33164   9.438  43.635   8.423
 2353POPC   C3B33165   9.303  43.525   7.999
 2353POPC   C4B33166   9.215  43.339   7.596
 2354POPC   NC333167  42.761   8.264   9.463
 2354POPC   PO433168  43.460   8.373   9.563
 2354POPC   GL133169  43.541   8.309   9.123
 2354POPC   GL233170  43.537   7.952   9.015
 2354POPC   C1A33171  43.414   8.450   8.689
 2354POPC   D2A33172  43.118   8.291   8.391
 2354POPC   C3A33173  43.118   8.312   7.950
 2354POPC   C4A33174  42.781   8.378   7.672
 2354POPC   C1B33175  43.593   7.944   8.587
 2354POPC   C2B33176  43.506   7.996   8.143
 2354POPC   C3B33177  43.496   8.075   7.666
 2354POPC   C4B33178  43.262   7.978   7.271
 2355POPC   NC333179  10.423  14.587   9.584
 2355POPC   PO433180  11.033  14.502   9.509
 2355POPC   GL133181  10.712  14.583   9.143
 2355POPC   GL233182  10.449  14.281   9.160
 2355POPC   C1A33183  10.655  14.399   8.688
 2355POPC   D2A33184  10.772  14.100   8.335
 2355POPC   C3A33185  10.739  14.255   7.880
 2355POPC   C4A33186  10.569  14.677   7.798
 2355POPC   C1B33187  10.186  14.182   8.789
 2355POPC   C2B33188  10.224  14.035   8.378
 2355POPC   C3B33189  10.288  14.332   8.065
 2355POPC   C4B33190  10.106  14.423   7.661
 2356POPC   NC333191  35.854  44.210   9.502
 2356POPC   PO433192  36.556  43.910   9.469
 2356POPC   GL133193  36.321  43.953   9.133
 2356POPC   GL233194  36.011  43.832   9.186
 2356POPC   C1A33195  36.378  44.122   8.749
 2356POPC   D2A33196  36.387  43.881   8.382
 2356POPC   C3A33197  36.497  44.155   8.059
 2356POPC   C4A33198  36.458  43.895   7.725
 2356POPC   C1B33199  35.925  43.878   8.754
 2356POPC   C2B33200  35.996  44.204   8.419
 2356POPC   C3B33201  36.009  44.059   7.980
 2356POPC   C4B33202  35.752  44.027   7.575
 2357POPC   NC333203  29.438  15.156   9.540
 2357POPC   PO433204  28.943  15.249   9.977
 2357POPC   GL133205  29.002  15.317   9.361
 2357POPC   GL233206  29.283  15.105   9.073
 2357POPC   C1A33207  29.010  15.440   8.861
 2357POPC   D2A33208  28.872  15.518   8.431
 2357POPC   C3A33209  29.115  15.395   8.062
 2357POPC   C4A33210  29.014  15.507   7.652
 2357POPC   C1B33211  29.220  14.820   8.747
 2357POPC   C2B33212  29.176  14.803   8.335
 2357POPC   C3B33213  28.926  14.736   8.017
 2357POPC   C4B33214  29.113  14.778   7.666
 2358POPC   NC333215  23.227  19.289   9.747
 2358POPC   PO433216  23.133  19.963   9.529
 2358POPC   GL133217  22.982  19.752   9.170
 2358POPC   GL233218  22.626  19.645   9.150
 2358POPC   C1A33219  23.097  19.679   8.746
 2358POPC   D2A33220  22.986  19.915   8.358
 2358POPC   C3A33221  23.079  19.699   7.974
 2358POPC   C4A33222  23.118  19.701   7.533
 2358POPC   C1B33223  22.652  19.876   8.782
 2358POPC   C2B33224  22.647  19.561   8.499
 2358POPC   C3B33225  22.568  19.539   8.102
 2358POPC   C4B33226  22.628  19.706   7.718
 2359POPC   NC333227   2.919  21.019   9.486
 2359POPC   PO433228   2.629  21.681   9.381
 2359POPC   GL133229   2.952  21.437   9.167
 2359POPC   GL233230   2.934  21.111   8.989
 2359POPC   C1A33231   3.014  21.588   8.773
 2359POPC   D2A33232   2.817  21.716   8.423
 2359POPC   C3A33233   3.060  21.643   8.083
 2359POPC   C4A33234   2.875  21.706   7.701
 2359POPC   C1B33235   2.698  21.182   8.644
 2359POPC   C2B33236   2.755  21.225   8.211
 2359POPC   C3B33237   2.531  21.316   7.837
 2359POPC   C4B33238   2.469  21.047   7.447
 2360POPC   NC333239   2.055   7.144   9.628
 2360POPC   PO433240   1.685   7.694   9.603
 2360POPC   GL133241   1.897   7.620   9.183
 2360POPC   GL233242   1.911   7.275   9.158
 2360POPC   C1A33243   2.116   7.575   8.743
 2360POPC   D2A33244   2.052   7.743   8.293
 2360POPC   C3A33245   1.960   7.529   7.910
 2360POPC   C4A33246   2.138   7.180   7.785
 2360POPC   C1B33247   1.688   7.308   8.784
 2360POPC   C2B33248   1.853   7.266   8.377
 2360POPC   C3B33249   1.706   7.052   8.037
 2360POPC   C4B33250   1.630   7.159   7.631
 2361POPC   NC333251  25.624   2.991   9.427
 2361POPC   PO433252  26.205   2.744   9.659
 2361POPC   GL133253  26.092   2.804   9.234
 2361POPC   GL233254  25.834   2.607   9.139
 2361POPC   C1A33255  26.255   2.761   8.835
 2361POPC   D2A33256  26.227   2.781   8.411
 2361POPC   C3A33257  25.886   2.639   8.134
 2361POPC   C4A33258  25.960   2.796   7.720
 2361POPC   C1B33259  25.754   2.793   8.715
 2361POPC   C2B33260  25.746   3.076   8.375
 2361POPC   C3B33261  25.542   3.006   7.986
 2361POPC   C4B33262  25.515   3.022   7.545
 2362POPC   NC333263  38.970  27.688   9.602
 2362POPC   PO433264  38.334  27.833   9.595
 2362POPC   GL133265  38.219  27.666   9.204
 2362POPC   GL233266  38.542  27.554   9.198
 2362POPC   C1A33267  38.218  27.854   8.775
 2362POPC   D2A33268  38.076  28.016   8.373
 2362POPC   C3A33269  38.248  27.823   8.002
 2362POPC   C4A33270  38.062  27.682   7.631
 2362POPC   C1B33271  38.616  27.528   8.767
 2362POPC   C2B33272  38.388  27.489   8.384
 2362POPC   C3B33273  38.477  27.166   8.052
 2362POPC   C4B33274  38.574  27.218   7.605
 2363POPC   NC333275  33.132  24.090   9.839
 2363POPC   PO433276  32.934  23.528   9.537
 2363POPC   GL133277  32.797  23.610   9.104
 2363POPC   GL233278  32.700  23.299   9.075
 2363POPC   C1A33279  32.862  23.875   8.729
 2363POPC   D2A33280  32.883  24.130   8.331
 2363POPC   C3A33281  32.719  23.963   7.945
 2363POPC   C4A33282  32.616  24.050   7.537
 2363POPC   C1B33283  32.913  23.351   8.684
 2363POPC   C2B33284  32.848  23.588   8.294
 2363POPC   C3B33285  33.182  23.786   8.030
 2363POPC   C4B33286  33.430  23.553   7.754
 2364POPC   NC333287  38.051  27.302   9.572
 2364POPC   PO433288  37.513  27.813   9.464
 2364POPC   GL133289  37.723  27.743   9.127
 2364POPC   GL233290  37.708  27.410   9.159
 2364POPC   C1A33291  37.647  27.857   8.730
 2364POPC   D2A33292  37.621  27.608   8.372
 2364POPC   C3A33293  37.718  27.796   8.013
 2364POPC   C4A33294  37.546  27.761   7.613
 2364POPC   C1B33295  37.941  27.419   8.792
 2364POPC   C2B33296  37.955  27.218   8.426
 2364POPC   C3B33297  38.005  27.366   8.038
 2364POPC   C4B33298  37.988  27.188   7.651
 2365POPC   NC333299   1.596  31.293   9.522
 2365POPC   PO433300   1.119  31.684   9.518
 2365POPC   GL133301   1.204  31.356   9.186
 2365POPC   GL233302   1.063  31.033   9.160
 2365POPC   C1A33303   1.377  31.285   8.762
 2365POPC   D2A33304   1.188  31.240   8.373
 2365POPC   C3A33305   1.328  31.560   8.139
 2365POPC   C4A33306   1.535  31.413   7.797
 2365POPC   C1B33307   0.877  31.270   8.795
 2365POPC   C2B33308   0.802  31.580   8.460
 2365POPC   C3B33309   0.809  31.441   8.022
 2365POPC   C4B33310   1.068  31.592   7.706
 2366POPC   NC333311  27.339   9.159   9.505
 2366POPC   PO433312  28.017   9.292   9.550
 2366POPC   GL133313  27.968   9.037   9.189
 2366POPC   GL233314  27.642   8.893   9.216
 2366POPC   C1A33315  27.800   9.063   8.773
 2366POPC   D2A33316  27.528   9.201   8.439
 2366POPC   C3A33317  27.727   9.080   8.089
 2366POPC   C4A33318  27.704   9.088   7.682
 2366POPC   C1B33319  27.304   9.015   8.865
 2366POPC   C2B33320  27.160   8.817   8.480
 2366POPC   C3B33321  27.298   8.673   8.073
 2366POPC   C4B33322  27.270   8.765   7.640
 2367POPC   NC333323  26.278   2.294   9.743
 2367POPC   PO433324  25.766   1.849   9.654
 2367POPC   GL133325  26.103   1.863   9.305
 2367POPC   GL233326  26.204   2.237   9.217
 2367POPC   C1A33327  26.043   1.829   8.828
 2367POPC   D2A33328  25.795   1.847   8.425
 2367POPC   C3A33329  26.021   1.812   8.005
 2367POPC   C4A33330  26.068   1.799   7.522
 2367POPC   C1B33331  26.293   2.269   8.757
 2367POPC   C2B33332  26.149   2.228   8.318
 2367POPC   C3B33333  26.401   2.143   7.933
 2367POPC   C4B33334  26.395   2.286   7.545
 2368POPC   NC333335   7.628  34.740   9.526
 2368POPC   PO433336   7.314  34.199   9.554
 2368POPC   GL133337   7.492  34.406   9.167
 2368POPC   GL233338   7.404  34.770   9.068
 2368POPC   C1A33339   7.431  34.361   8.749
 2368POPC   D2A33340   7.283  34.215   8.408
 2368POPC   C3A33341   7.466  34.322   8.079
 2368POPC   C4A33342   7.553  34.258   7.690
 2368POPC   C1B33343   7.583  34.896   8.682
 2368POPC   C2B33344   7.630  34.779   8.245
 2368POPC   C3B33345   7.579  34.748   7.792
 2368POPC   C4B33346   7.515  35.011   7.455
 2369POPC   NC333347  18.740  42.876   9.605
 2369POPC   PO433348  19.321  43.237   9.553
 2369POPC   GL133349  19.369  43.206   9.143
 2369POPC   GL233350  19.080  43.023   9.110
 2369POPC   C1A33351  19.220  43.365   8.734
 2369POPC   D2A33352  19.000  43.230   8.374
 2369POPC   C3A33353  19.189  43.355   8.047
 2369POPC   C4A33354  19.351  43.364   7.652
 2369POPC   C1B33355  18.776  43.068   8.792
 2369POPC   C2B33356  18.656  42.849   8.395
 2369POPC   C3B33357  18.795  42.905   8.003
 2369POPC   C4B33358  18.879  43.174   7.690
 2370POPC   NC333359  37.583   1.717   9.516
 2370POPC   PO433360  37.878   2.213   9.396
 2370POPC   GL133361  37.626   2.031   9.117
 2370POPC   GL233362  37.260   2.073   9.212
 2370POPC   C1A33363  37.628   1.926   8.721
 2370POPC   D2A33364  37.750   1.781   8.352
 2370POPC   C3A33365  37.766   2.015   7.965
 2370POPC   C4A33366  37.694   1.805   7.571
 2370POPC   C1B33367  37.266   2.269   8.792
 2370POPC   C2B33368  37.412   2.185   8.335
 2370POPC   C3B33369  37.330   1.788   8.045
 2370POPC   C4B33370  37.174   1.871   7.635
 2371POPC   NC333371   3.890  42.832   9.589
 2371POPC   PO433372   4.126  43.460   9.551
 2371POPC   GL133373   4.051  43.130   9.204
 2371POPC   GL233374   4.296  42.906   9.079
 2371POPC   C1A33375   3.941  43.056   8.750
 2371POPC   D2A33376   4.188  43.252   8.410
 2371POPC   C3A33377   4.268  43.037   8.051
 2371POPC   C4A33378   3.995  42.891   7.731
 2371POPC   C1B33379   4.503  43.216   8.823
 2371POPC   C2B33380   4.724  43.171   8.446
 2371POPC   C3B33381   4.704  43.335   8.035
 2371POPC   C4B33382   4.687  43.060   7.706
 2372POPC   NC333383  39.249  41.720   9.439
 2372POPC   PO433384  39.062  41.107   9.146
 2372POPC   GL133385  39.103  41.475   8.978
 2372POPC   GL233386  39.441  41.473   9.034
 2372POPC   C1A33387  39.278  41.466   8.564
 2372POPC   D2A33388  39.426  41.364   8.162
 2372POPC   C3A33389  39.185  41.607   7.828
 2372POPC   C4A33390  38.871  41.501   7.553
 2372POPC   C1B33391  39.595  41.817   8.809
 2372POPC   C2B33392  39.706  41.755   8.389
 2372POPC   C3B33393  39.637  41.799   7.951
 2372POPC   C4B33394  39.646  41.413   7.704
 2373POPC   NC333395  40.225  15.688   9.414
 2373POPC   PO433396  39.704  16.004   9.254
 2373POPC   GL133397  40.013  15.853   8.967
 2373POPC   GL233398  40.268  16.065   9.068
 2373POPC   C1A33399  40.324  15.779   8.627
 2373POPC   D2A33400  40.362  15.781   8.161
 2373POPC   C3A33401  39.977  15.738   7.947
 2373POPC   C4A33402  39.823  15.881   7.573
 2373POPC   C1B33403  40.121  16.275   8.690
 2373POPC   C2B33404  40.282  16.279   8.271
 2373POPC   C3B33405  40.164  16.201   7.836
 2373POPC   C4B33406  40.110  16.240   7.361
 2374POPC   NC333407  35.042  16.682   9.525
 2374POPC   PO433408  35.736  16.901   9.423
 2374POPC   GL133409  35.549  16.780   9.041
 2374POPC   GL233410  35.502  16.429   9.036
 2374POPC   C1A33411  35.390  16.892   8.634
 2374POPC   D2A33412  35.480  17.185   8.313
 2374POPC   C3A33413  35.277  17.071   7.986
 2374POPC   C4A33414  35.055  16.741   7.868
 2374POPC   C1B33415  35.159  16.425   8.744
 2374POPC   C2B33416  35.201  16.505   8.325
 2374POPC   C3B33417  35.540  16.651   8.093
 2374POPC   C4B33418  35.582  16.414   7.728
 2375POPC   NC333419  29.527  27.058   9.428
 2375POPC   PO433420  30.122  26.650   9.481
 2375POPC   GL133421  29.884  26.793   9.139
 2375POPC   GL233422  29.788  26.465   9.049
 2375POPC   C1A33423  29.873  26.826   8.683
 2375POPC   D2A33424  29.820  26.554   8.321
 2375POPC   C3A33425  29.817  26.813   7.947
 2375POPC   C4A33426  29.732  26.801   7.483
 2375POPC   C1B33427  29.454  26.537   8.714
 2375POPC   C2B33428  29.307  26.636   8.282
 2375POPC   C3B33429  29.435  26.503   7.855
 2375POPC   C4B33430  29.454  26.365   7.417
 2376POPC   NC333431  13.157  22.377   9.423
 2376POPC   PO433432  12.536  22.149   9.397
 2376POPC   GL133433  12.806  22.264   9.048
 2376POPC   GL233434  13.153  22.110   8.968
 2376POPC   C1A33435  12.694  22.178   8.645
 2376POPC   D2A33436  12.370  22.234   8.368
 2376POPC   C3A33437  12.570  22.349   8.010
 2376POPC   C4A33438  12.975  22.172   7.852
 2376POPC   C1B33439  13.162  22.386   8.617
 2376POPC   C2B33440  13.201  22.524   8.185
 2376POPC   C3B33441  13.159  22.645   7.744
 2376POPC   C4B33442  12.872  22.692   7.392
 2377POPC   NC333443  31.119  30.736   9.537
 2377POPC   PO433444  31.760  30.386   9.516
 2377POPC   GL133445  31.545  30.660   9.201
 2377POPC   GL233446  31.214  30.506   9.110
 2377POPC   C1A33447  31.607  30.628   8.747
 2377POPC   D2A33448  31.625  30.300   8.409
 2377POPC   C3A33449  31.457  30.585   8.075
 2377POPC   C4A33450  31.619  30.950   7.865
 2377POPC   C1B33451  31.093  30.696   8.753
 2377POPC   C2B33452  30.961  30.727   8.362
 2377POPC   C3B33453  31.038  30.978   8.029
 2377POPC   C4B33454  31.178  30.792   7.679
 2378POPC   NC333455  40.243  25.846   9.560
 2378POPC   PO433456  40.011  25.145   9.405
 2378POPC   GL133457  39.919  25.115   9.026
 2378POPC   GL233458  40.236  25.047   8.922
 2378POPC   C1A33459  39.686  25.180   8.701
 2378POPC   D2A33460  39.677  25.424   8.348
 2378POPC   C3A33461  39.802  25.258   7.984
 2378POPC   C4A33462  40.006  25.480   7.692
 2378POPC   C1B33463  40.135  25.339   8.568
 2378POPC   C2B33464  40.255  25.370   8.163
 2378POPC   C3B33465  40.285  25.070   7.807
 2378POPC   C4B33466  40.106  25.028   7.401
 2379POPC   NC333467   7.739  13.205   9.202
 2379POPC   PO433468   7.300  12.827   9.597
 2379POPC   GL133469   7.438  12.802   9.159
 2379POPC   GL233470   7.669  12.525   9.176
 2379POPC   C1A33471   7.399  12.997   8.697
 2379POPC   D2A33472   7.571  13.061   8.284
 2379POPC   C3A33473   7.259  13.035   7.978
 2379POPC   C4A33474   7.279  12.998   7.537
 2379POPC   C1B33475   7.523  12.511   8.722
 2379POPC   C2B33476   7.325  12.582   8.293
 2379POPC   C3B33477   7.408  12.547   7.836
 2379POPC   C4B33478   7.655  12.244   7.601
 2380POPC   NC333479   6.889  41.076   9.375
 2380POPC   PO433480   6.946  40.394   9.387
 2380POPC   GL133481   6.707  40.659   9.115
 2380POPC   GL233482   6.448  40.881   9.172
 2380POPC   C1A33483   6.783  40.895   8.755
 2380POPC   D2A33484   6.959  40.823   8.369
 2380POPC   C3A33485   6.701  40.660   8.021
 2380POPC   C4A33486   6.860  40.754   7.643
 2380POPC   C1B33487   6.264  40.930   8.766
 2380POPC   C2B33488   6.473  40.975   8.358
 2380POPC   C3B33489   6.729  41.169   8.045
 2380POPC   C4B33490   6.475  41.099   7.697
 2381POPC   NC333491  12.719  39.562   9.447
 2381POPC   PO433492  13.150  39.038   9.647
 2381POPC   GL133493  13.068  39.228   9.227
 2381POPC   GL233494  12.971  38.952   9.077
 2381POPC   C1A33495  13.033  39.324   8.738
 2381POPC   D2A33496  12.755  39.308   8.377
 2381POPC   C3A33497  12.883  39.445   7.974
 2381POPC   C4A33498  12.972  39.285   7.543
 2381POPC   C1B33499  12.782  38.871   8.673
 2381POPC   C2B33500  13.002  38.876   8.294
 2381POPC   C3B33501  12.830  38.919   7.896
 2381POPC   C4B33502  13.104  38.808   7.576
 2382POPC   NC333503   4.123  16.468   9.591
 2382POPC   PO433504   4.743  16.524   9.614
 2382POPC   GL133505   4.454  16.628   9.228
 2382POPC   GL233506   4.128  16.840   9.226
 2382POPC   C1A33507   4.424  16.521   8.784
 2382POPC   D2A33508   4.507  16.746   8.413
 2382POPC   C3A33509   4.409  16.680   7.979
 2382POPC   C4A33510   4.277  16.333   7.721
 2382POPC   C1B33511   4.271  17.011   8.826
 2382POPC   C2B33512   4.103  17.045   8.404
 2382POPC   C3B33513   4.087  17.178   8.003
 2382POPC   C4B33514   4.057  16.914   7.682
 2383POPC   NC333515   6.445  28.662   9.465
 2383POPC   PO433516   6.204  28.026   9.415
 2383POPC   GL133517   6.600  28.239   9.156
 2383POPC   GL233518   6.655  28.612   9.031
 2383POPC   C1A33519   6.814  28.268   8.731
 2383POPC   D2A33520   6.672  28.131   8.369
 2383POPC   C3A33521   6.651  28.219   7.911
 2383POPC   C4A33522   6.656  28.370   7.462
 2383POPC   C1B33523   6.961  28.751   8.738
 2383POPC   C2B33524   6.932  28.596   8.326
 2383POPC   C3B33525   6.860  28.679   7.920
 2383POPC   C4B33526   6.526  28.776   7.733
 2384POPC   NC333527   4.999  24.014   9.530
 2384POPC   PO433528   5.215  23.423   9.591
 2384POPC   GL133529   5.128  23.638   9.209
 2384POPC   GL233530   4.767  23.667   9.106
 2384POPC   C1A33531   5.309  23.759   8.825
 2384POPC   D2A33532   5.423  23.883   8.417
 2384POPC   C3A33533   5.203  23.764   8.049
 2384POPC   C4A33534   5.370  23.585   7.691
 2384POPC   C1B33535   4.816  23.760   8.638
 2384POPC   C2B33536   4.947  24.109   8.343
 2384POPC   C3B33537   4.936  24.184   7.877
 2384POPC   C4B33538   4.954  23.886   7.526
 2385POPC   NC333539  39.104   8.397   9.563
 2385POPC   PO433540  39.594   8.060   9.436
 2385POPC   GL133541  39.253   8.140   9.135
 2385POPC   GL233542  39.214   8.499   9.073
 2385POPC   C1A33543  39.162   8.139   8.688
 2385POPC   D2A33544  39.286   8.462   8.394
 2385POPC   C3A33545  39.521   8.329   8.012
 2385POPC   C4A33546  39.420   7.933   7.824
 2385POPC   C1B33547  38.867   8.557   8.786
 2385POPC   C2B33548  38.777   8.362   8.401
 2385POPC   C3B33549  39.003   8.228   8.026
 2385POPC   C4B33550  39.137   8.451   7.635
 2386POPC   NC333551  13.306   1.772   9.591
 2386POPC   PO433552  12.841   2.287   9.525
 2386POPC   GL133553  13.076   2.079   9.206
 2386POPC   GL233554  13.020   1.707   9.181
 2386POPC   C1A33555  12.940   2.030   8.777
 2386POPC   D2A33556  12.785   2.124   8.399
 2386POPC   C3A33557  12.846   2.001   7.937
 2386POPC   C4A33558  12.764   2.236   7.519
 2386POPC   C1B33559  13.254   1.636   8.818
 2386POPC   C2B33560  13.057   1.657   8.398
 2386POPC   C3B33561  13.268   1.710   7.984
 2386POPC   C4B33562  13.094   1.700   7.575
 2387POPC   NC333563  19.023   1.580   9.432
 2387POPC   PO433564  18.624   1.084   9.332
 2387POPC   GL133565  18.913   1.052   9.031
 2387POPC   GL233566  19.061   1.389   8.977
 2387POPC   C1A33567  18.852   1.135   8.611
 2387POPC   D2A33568  18.936   1.404   8.299
 2387POPC   C3A33569  18.974   1.185   7.940
 2387POPC   C4A33570  18.922   1.405   7.589
 2387POPC   C1B33571  19.322   1.386   8.629
 2387POPC   C2B33572  19.405   1.227   8.222
 2387POPC   C3B33573  19.458   1.321   7.783
 2387POPC   C4B33574  19.274   1.073   7.466
 2388POPC   NC333575  12.778  21.000   9.361
 2388POPC   PO433576  12.731  20.364   9.526
 2388POPC   GL133577  12.729  20.551   9.144
 2388POPC   GL233578  13.068  20.607   9.079
 2388POPC   C1A33579  12.694  20.767   8.743
 2388POPC   D2A33580  12.543  20.708   8.347
 2388POPC   C3A33581  12.780  20.779   7.961
 2388POPC   C4A33582  12.760  20.600   7.517
 2388POPC   C1B33583  13.144  20.997   8.826
 2388POPC   C2B33584  13.094  21.055   8.392
 2388POPC   C3B33585  13.241  21.135   7.976
 2388POPC   C4B33586  13.168  20.862   7.629
 2389POPC   NC333587  32.359  37.466   9.406
 2389POPC   PO433588  32.124  38.123   9.322
 2389POPC   GL133589  32.072  37.739   9.102
 2389POPC   GL233590  32.440  37.732   8.981
 2389POPC   C1A33591  32.102  37.424   8.758
 2389POPC   D2A33592  32.412  37.608   8.455
 2389POPC   C3A33593  32.328  37.835   8.094
 2389POPC   C4A33594  32.011  37.971   7.796
 2389POPC   C1B33595  32.606  37.298   8.816
 2389POPC   C2B33596  32.720  37.209   8.377
 2389POPC   C3B33597  32.569  37.320   7.950
 2389POPC   C4B33598  32.507  37.121   7.528
 2390POPC   NC333599   6.790  43.481   9.547
 2390POPC   PO433600   6.725  44.226   9.565
 2390POPC   GL133601   6.789  43.873   9.201
 2390POPC   GL233602   6.478  43.689   9.096
 2390POPC   C1A33603   6.932  43.723   8.763
 2390POPC   D2A33604   7.247  43.881   8.437
 2390POPC   C3A33605   7.073  43.979   8.069
 2390POPC   C4A33606   6.986  43.854   7.653
 2390POPC   C1B33607   6.487  44.016   8.746
 2390POPC   C2B33608   6.620  44.108   8.297
 2390POPC   C3B33609   6.565  43.885   7.909
 2390POPC   C4B33610   6.494  43.834   7.473
 2391POPC   NC333611   0.660  25.531   9.623
 2391POPC   PO433612   0.845  24.952   9.673
 2391POPC   GL133613   0.754  25.172   9.254
 2391POPC   GL233614   0.386  25.318   9.200
 2391POPC   C1A33615   0.841  25.161   8.787
 2391POPC   D2A33616   0.683  25.303   8.379
 2391POPC   C3A33617   0.810  25.107   7.993
 2391POPC   C4A33618   0.647  25.175   7.569
 2391POPC   C1B33619   0.320  25.108   8.772
 2391POPC   C2B33620   0.308  24.952   8.327
 2391POPC   C3B33621   0.304  25.246   7.984
 2391POPC   C4B33622   0.079  25.195   7.610
 2392POPC   NC333623  10.263  21.179   9.708
 2392POPC   PO433624  10.894  21.388   9.579
 2392POPC   GL133625  10.588  21.420   9.292
 2392POPC   GL233626  10.437  21.094   9.205
 2392POPC   C1A33627  10.572  21.459   8.852
 2392POPC   D2A33628  10.608  21.161   8.499
 2392POPC   C3A33629  10.595  21.370   8.080
 2392POPC   C4A33630  10.642  21.510   7.639
 2392POPC   C1B33631  10.181  21.132   8.819
 2392POPC   C2B33632  10.085  21.030   8.407
 2392POPC   C3B33633  10.199  21.020   7.980
 2392POPC   C4B33634  10.171  21.409   7.777
 2393POPC   NC333635  38.000  10.384   9.549
 2393POPC   PO433636  37.551   9.846   9.571
 2393POPC   GL133637  37.450   9.747   9.152
 2393POPC   GL233638  37.202   9.515   9.176
 2393POPC   C1A33639  37.653   9.805   8.746
 2393POPC   D2A33640  37.935   9.932   8.381
 2393POPC   C3A33641  37.776   9.962   7.934
 2393POPC   C4A33642  37.594   9.843   7.503
 2393POPC   C1B33643  37.342   9.397   8.741
 2393POPC   C2B33644  37.597   9.461   8.347
 2393POPC   C3B33645  37.550   9.480   7.880
 2393POPC   C4B33646  37.251   9.418   7.535
 2394POPC   NC333647  30.169  29.413   9.465
 2394POPC   PO433648  29.834  28.850   9.400
 2394POPC   GL133649  29.779  29.282   9.151
 2394POPC   GL233650  30.105  29.372   8.963
 2394POPC   C1A33651  29.675  29.487   8.740
 2394POPC   D2A33652  29.912  29.325   8.380
 2394POPC   C3A33653  29.669  29.310   7.991
 2394POPC   C4A33654  29.601  29.441   7.557
 2394POPC   C1B33655  29.985  28.984   8.774
 2394POPC   C2B33656  29.984  28.780   8.386
 2394POPC   C3B33657  30.115  29.024   8.011
 2394POPC   C4B33658  30.319  29.062   7.627
 2395POPC   NC333659  31.028  43.962   9.807
 2395POPC   PO433660  30.505  44.173   9.373
 2395POPC   GL133661  30.499  44.189   8.988
 2395POPC   GL233662  30.364  43.896   8.898
 2395POPC   C1A33663  30.635  44.300   8.597
 2395POPC   D2A33664  30.950  44.158   8.329
 2395POPC   C3A33665  30.685  44.057   7.990
 2395POPC   C4A33666  30.663  44.019   7.545
 2395POPC   C1B33667  30.796  43.799   8.688
 2395POPC   C2B33668  30.952  43.656   8.262
 2395POPC   C3B33669  30.673  43.536   7.952
 2395POPC   C4B33670  30.319  43.706   7.772
 2396POPC   NC333671  18.462  39.895   9.535
 2396POPC   PO433672  17.851  39.664   9.496
 2396POPC   GL133673  18.103  39.906   9.180
 2396POPC   GL233674  18.426  39.711   9.063
 2396POPC   C1A33675  18.220  40.249   8.865
 2396POPC   D2A33676  18.377  40.426   8.512
 2396POPC   C3A33677  18.309  40.353   8.089
 2396POPC   C4A33678  18.492  40.121   7.859
 2396POPC   C1B33679  18.155  39.780   8.708
 2396POPC   C2B33680  18.098  39.967   8.357
 2396POPC   C3B33681  18.169  39.767   7.966
 2396POPC   C4B33682  18.479  39.584   7.740
 2397POPC   NC333683   1.400  17.462   9.415
 2397POPC   PO433684   0.725  17.270   9.459
 2397POPC   GL133685   0.863  17.480   9.062
 2397POPC   GL233686   1.222  17.616   8.985
 2397POPC   C1A33687   0.999  17.380   8.622
 2397POPC   D2A33688   1.245  17.615   8.406
 2397POPC   C3A33689   0.871  17.688   8.202
 2397POPC   C4A33690   0.850  17.453   7.852
 2397POPC   C1B33691   1.442  17.244   8.790
 2397POPC   C2B33692   1.533  17.170   8.358
 2397POPC   C3B33693   1.372  17.361   7.952
 2397POPC   C4B33694   1.141  17.125   7.628
 2398POPC   NC333695   0.730  24.511   9.542
 2398POPC   PO433696   0.135  24.694   9.291
 2398POPC   GL133697   0.432  24.438   9.064
 2398POPC   GL233698   0.711  24.198   9.124
 2398POPC   C1A33699   0.428  24.293   8.638
 2398POPC   D2A33700   0.161  24.140   8.293
 2398POPC   C3A33701   0.118  24.427   7.930
 2398POPC   C4A33702   0.407  24.772   7.798
 2398POPC   C1B33703   0.897  24.447   8.795
 2398POPC   C2B33704   0.743  24.689   8.438
 2398POPC   C3B33705   0.571  24.404   8.129
 2398POPC   C4B33706   0.471  24.035   7.872
 2399POPC   NC333707  40.870   0.008   9.144
 2399POPC   PO433708  40.489  44.428   9.378
 2399POPC   GL133709  40.673  44.551   9.034
 2399POPC   GL233710  41.023  44.467   8.952
 2399POPC   C1A33711  40.539  44.569   8.638
 2399POPC   D2A33712  40.411  44.752   8.279
 2399POPC   C3A33713  40.728  44.859   8.000
 2399POPC   C4A33714  40.866  44.511   7.756
 2399POPC   C1B33715  41.095  44.712   8.550
 2399POPC   C2B33716  41.093   0.137   8.323
 2399POPC   C3B33717  41.014   0.283   7.881
 2399POPC   C4B33718  40.968  44.969   7.528
 2400POPC   NC333719   7.073  26.363   9.789
 2400POPC   PO433720   7.545  25.958   9.642
 2400POPC   GL133721   7.314  26.216   9.287
 2400POPC   GL233722   7.265  25.898   9.161
 2400POPC   C1A33723   7.220  26.260   8.782
 2400POPC   D2A33724   7.315  26.027   8.331
 2400POPC   C3A33725   7.562  26.208   7.938
 2400POPC   C4A33726   7.640  26.211   7.465
 2400POPC   C1B33727   7.468  25.713   8.815
 2400POPC   C2B33728   7.645  25.533   8.439
 2400POPC   C3B33729   7.588  25.686   8.020
 2400POPC   C4B33730   7.277  25.814   7.737
 2401POPC   NC333731  42.946  23.540   9.558
 2401POPC   PO433732  42.809  24.191   9.498
 2401POPC   GL133733  42.965  23.871   9.122
 2401POPC   GL233734  43.071  23.467   9.083
 2401POPC   C1A33735  43.077  23.776   8.659
 2401POPC   D2A33736  43.377  23.666   8.289
 2401POPC   C3A33737  43.375  23.797   7.841
 2401POPC   C4A33738  43.473  23.576   7.472
 2401POPC   C1B33739  42.776  23.333   8.815
 2401POPC   C2B33740  42.762  23.428   8.386
 2401POPC   C3B33741  42.961  23.523   8.017
 2401POPC   C4B33742  42.898  23.765   7.661
 2402POPC   NC333743  42.597  33.290   9.477
 2402POPC   PO433744  42.481  32.676   9.682
 2402POPC   GL133745  42.318  32.881   9.262
 2402POPC   GL233746  42.242  33.234   9.097
 2402POPC   C1A33747  42.249  32.746   8.824
 2402POPC   D2A33748  42.495  32.716   8.446
 2402POPC   C3A33749  42.348  32.815   8.051
 2402POPC   C4A33750  42.568  32.869   7.664
 2402POPC   C1B33751  42.279  33.225   8.639
 2402POPC   C2B33752  42.556  33.188   8.304
 2402POPC   C3B33753  42.416  33.309   7.923
 2402POPC   C4B33754  42.617  33.398   7.557
 2403POPC   NC333755  21.983  16.415   9.388
 2403POPC   PO433756  21.871  17.100   9.367
 2403POPC   GL133757  22.083  16.921   9.027
 2403POPC   GL233758  22.015  16.582   8.911
 2403POPC   C1A33759  22.172  16.950   8.586
 2403POPC   D2A33760  22.089  16.605   8.314
 2403POPC   C3A33761  22.042  16.831   7.929
 2403POPC   C4A33762  22.437  17.023   7.824
 2403POPC   C1B33763  22.435  16.561   8.764
 2403POPC   C2B33764  22.624  16.506   8.385
 2403POPC   C3B33765  22.511  16.546   7.997
 2403POPC   C4B33766  22.191  16.375   7.791
 2404POPC   NC333767  35.139  12.295   9.548
 2404POPC   PO433768  35.655  11.897   9.458
 2404POPC   GL133769  35.298  12.008   9.179
 2404POPC   GL233770  35.324  12.375   9.095
 2404POPC   C1A33771  35.090  11.937   8.771
 2404POPC   D2A33772  35.195  11.799   8.367
 2404POPC   C3A33773  35.062  11.862   7.953
 2404POPC   C4A33774  35.422  11.939   7.682
 2404POPC   C1B33775  35.104  12.466   8.737
 2404POPC   C2B33776  35.254  12.522   8.330
 2404POPC   C3B33777  35.512  12.382   7.972
 2404POPC   C4B33778  35.364  12.423   7.545
 2405POPC   NC333779   7.286  38.563   9.428
 2405POPC   PO433780   7.879  38.870   9.422
 2405POPC   GL133781   7.850  38.556   9.089
 2405POPC   GL233782   7.497  38.608   8.971
 2405POPC   C1A33783   7.736  38.205   8.780
 2405POPC   D2A33784   7.469  38.243   8.403
 2405POPC   C3A33785   7.573  38.127   8.003
 2405POPC   C4A33786   7.603  38.446   7.720
 2405POPC   C1B33787   7.165  38.319   8.805
 2405POPC   C2B33788   6.952  38.279   8.412
 2405POPC   C3B33789   7.124  38.390   7.993
 2405POPC   C4B33790   7.022  38.148   7.660
 2406POPC   NC333791  14.205  31.603   9.472
 2406POPC   PO433792  14.499  30.942   9.587
 2406POPC   GL133793  14.447  31.233   9.231
 2406POPC   GL233794  14.684  31.538   9.270
 2406POPC   C1A33795  14.184  31.246   8.858
 2406POPC   D2A33796  14.022  31.417   8.471
 2406POPC   C3A33797  14.111  31.271   8.031
 2406POPC   C4A33798  14.340  31.338   7.613
 2406POPC   C1B33799  14.554  31.591   8.849
 2406POPC   C2B33800  14.517  31.497   8.416
 2406POPC   C3B33801  14.387  31.681   8.017
 2406POPC   C4B33802  14.479  31.835   7.585
 2407POPC   NC333803   6.404  35.892   9.447
 2407POPC   PO433804   6.811  36.398   9.444
 2407POPC   GL133805   6.686  36.166   9.072
 2407POPC   GL233806   6.827  35.877   9.069
 2407POPC   C1A33807   6.768  36.100   8.609
 2407POPC   D2A33808   6.550  36.275   8.261
 2407POPC   C3A33809   6.496  36.016   7.907
 2407POPC   C4A33810   6.663  36.112   7.525
 2407POPC   C1B33811   7.170  35.803   8.788
 2407POPC   C2B33812   7.267  35.999   8.423
 2407POPC   C3B33813   7.015  36.044   8.062
 2407POPC   C4B33814   6.913  35.739   7.788
 2408POPC   NC333815  32.145   8.090   9.447
 2408POPC   PO433816  32.244   8.743   9.580
 2408POPC   GL133817  32.330   8.438   9.141
 2408POPC   GL233818  32.502   8.083   9.071
 2408POPC   C1A33819  32.305   8.373   8.708
 2408POPC   D2A33820  32.397   8.224   8.321
 2408POPC   C3A33821  32.023   8.232   8.095
 2408POPC   C4A33822  32.080   8.437   7.733
 2408POPC   C1B33823  32.531   7.820   8.643
 2408POPC   C2B33824  32.517   7.757   8.170
 2408POPC   C3B33825  32.384   7.995   7.796
 2408POPC   C4B33826  32.547   8.195   7.422
 2409POPC   NC333827  42.894  21.657   9.509
 2409POPC   PO433828  43.433  21.368   9.514
 2409POPC   GL133829  43.199  21.425   9.157
 2409POPC   GL233830  43.235  21.803   9.147
 2409POPC   C1A33831  43.101  21.218   8.769
 2409POPC   D2A33832  42.971  21.437   8.426
 2409POPC   C3A33833  42.917  21.292   8.045
 2409POPC   C4A33834  43.228  20.996   7.879
 2409POPC   C1B33835  43.328  21.681   8.734
 2409POPC   C2B33836  43.414  21.650   8.306
 2409POPC   C3B33837  43.386  21.483   7.922
 2409POPC   C4B33838  43.371  21.738   7.611
 2410POPC   NC333839  28.753   0.257   9.826
 2410POPC   PO433840  29.351   0.342   9.469
 2410POPC   GL133841  29.299   0.273   9.080
 2410POPC   GL233842  29.595   0.103   9.054
 2410POPC   C1A33843  29.030   0.273   8.698
 2410POPC   D2A33844  28.976   0.628   8.458
 2410POPC   C3A33845  28.999   0.603   8.028
 2410POPC   C4A33846  28.911   0.701   7.609
 2410POPC   C1B33847  29.523   0.357   8.656
 2410POPC   C2B33848  29.353   0.206   8.280
 2410POPC   C3B33849  29.590   0.262   7.915
 2410POPC   C4B33850  29.443   0.632   7.781
 2411POPC   NC333851   8.054  36.728   9.418
 2411POPC   PO433852   8.286  37.238   9.751
 2411POPC   GL133853   8.287  37.153   9.222
 2411POPC   GL233854   8.518  37.043   9.028
 2411POPC   C1A33855   8.111  37.199   8.763
 2411POPC   D2A33856   8.247  37.359   8.357
 2411POPC   C3A33857   8.140  37.090   8.020
 2411POPC   C4A33858   8.388  36.970   7.700
 2411POPC   C1B33859   8.264  36.712   8.815
 2411POPC   C2B33860   8.149  36.554   8.422
 2411POPC   C3B33861   8.267  36.580   8.025
 2411POPC   C4B33862   8.046  36.603   7.653
 2412POPC   NC333863  18.733   8.813   9.522
 2412POPC   PO433864  18.032   8.810   9.527
 2412POPC   GL133865  18.104   9.063   9.167
 2412POPC   GL233866  18.472   9.179   9.189
 2412POPC   C1A33867  18.100   9.108   8.722
 2412POPC   D2A33868  18.101   8.828   8.377
 2412POPC   C3A33869  18.084   9.031   7.999
 2412POPC   C4A33870  18.166   8.856   7.596
 2412POPC   C1B33871  18.599   9.230   8.739
 2412POPC   C2B33872  18.481   9.276   8.287
 2412POPC   C3B33873  18.555   9.119   7.807
 2412POPC   C4B33874  18.507   9.117   7.296
 2413POPC   NC333875  18.456   1.495   9.499
 2413POPC   PO433876  17.819   1.462   9.703
 2413POPC   GL133877  18.002   1.383   9.222
 2413POPC   GL233878  18.150   1.087   9.189
 2413POPC   C1A33879  17.932   1.107   8.748
 2413POPC   D2A33880  18.064   0.919   8.320
 2413POPC   C3A33881  18.050   1.220   7.966
 2413POPC   C4A33882  18.011   1.523   7.606
 2413POPC   C1B33883  18.350   1.380   8.827
 2413POPC   C2B33884  18.414   1.304   8.386
 2413POPC   C3B33885  18.528   1.422   7.986
 2413POPC   C4B33886  18.449   1.244   7.614
 2414POPC   NC333887  35.424  30.316   9.462
 2414POPC   PO433888  35.184  29.707   9.305
 2414POPC   GL133889  35.261  30.004   9.057
 2414POPC   GL233890  35.581  30.024   9.103
 2414POPC   C1A33891  35.246  29.852   8.656
 2414POPC   D2A33892  35.171  30.004   8.271
 2414POPC   C3A33893  35.177  29.803   7.891
 2414POPC   C4A33894  35.035  30.178   7.700
 2414POPC   C1B33895  35.765  30.117   8.770
 2414POPC   C2B33896  35.663  30.087   8.370
 2414POPC   C3B33897  35.617  30.015   7.972
 2414POPC   C4B33898  35.837  30.167   7.679
 2415POPC   NC333899   8.344   7.029   9.617
 2415POPC   PO433900   7.858   7.521   9.750
 2415POPC   GL133901   8.052   7.397   9.339
 2415POPC   GL233902   8.429   7.440   9.287
 2415POPC   C1A33903   8.062   7.417   8.884
 2415POPC   D2A33904   8.060   7.532   8.451
 2415POPC   C3A33905   8.113   7.279   8.101
 2415POPC   C4A33906   8.283   7.112   7.725
 2415POPC   C1B33907   8.559   7.334   8.858
 2415POPC   C2B33908   8.590   7.510   8.440
 2415POPC   C3B33909   8.395   7.714   8.088
 2415POPC   C4B33910   8.261   7.604   7.698
 2416POPC   NC333911  42.392  10.304   9.524
 2416POPC   PO433912  42.339  11.038   9.378
 2416POPC   GL133913  42.334  10.636   9.089
 2416POPC   GL233914  42.524  10.281   9.036
 2416POPC   C1A33915  42.321  10.561   8.644
 2416POPC   D2A33916  42.427  10.311   8.285
 2416POPC   C3A33917  42.575  10.549   7.917
 2416POPC   C4A33918  42.732  10.739   7.516
 2416POPC   C1B33919  42.103  10.162   8.830
 2416POPC   C2B33920  41.957  10.143   8.379
 2416POPC   C3B33921  42.093  10.261   7.897
 2416POPC   C4B33922  42.000  10.190   7.438
 2417POPC   NC333923   4.840  27.732   9.408
 2417POPC   PO433924   5.230  27.221   9.314
 2417POPC   GL133925   5.188  27.331   8.908
 2417POPC   GL233926   4.850  27.394   8.991
 2417POPC   C1A33927   5.311  27.635   8.578
 2417POPC   D2A33928   5.420  27.851   8.188
 2417POPC   C3A33929   5.380  27.534   7.870
 2417POPC   C4A33930   5.657  27.295   7.643
 2417POPC   C1B33931   4.803  27.600   8.604
 2417POPC   C2B33932   4.938  27.639   8.169
 2417POPC   C3B33933   4.954  27.766   7.726
 2417POPC   C4B33934   4.825  27.617   7.263
 2418POPC   NC333935  35.795  23.724   9.806
 2418POPC   PO433936  36.222  23.958   9.334
 2418POPC   GL133937  36.109  23.885   8.941
 2418POPC   GL233938  35.781  23.999   8.821
 2418POPC   C1A33939  36.205  23.733   8.581
 2418POPC   D2A33940  36.205  23.427   8.316
 2418POPC   C3A33941  36.173  23.611   7.969
 2418POPC   C4A33942  36.269  23.512   7.563
 2418POPC   C1B33943  35.707  23.597   8.621
 2418POPC   C2B33944  35.497  23.423   8.231
 2418POPC   C3B33945  35.710  23.462   7.843
 2418POPC   C4B33946  35.901  23.840   7.578
 2419POPC   NC333947  13.735  26.271   9.460
 2419POPC   PO433948  13.655  26.981   9.408
 2419POPC   GL133949  13.595  26.645   9.144
 2419POPC   GL233950  13.937  26.620   9.071
 2419POPC   C1A33951  13.427  26.587   8.748
 2419POPC   D2A33952  13.342  26.925   8.462
 2419POPC   C3A33953  13.450  26.835   8.049
 2419POPC   C4A33954  13.726  26.519   7.895
 2419POPC   C1B33955  13.795  26.942   8.748
 2419POPC   C2B33956  13.796  27.181   8.368
 2419POPC   C3B33957  13.872  27.096   7.909
 2419POPC   C4B33958  13.956  27.205   7.455
 2420POPC   NC333959  19.620  41.104   9.094
 2420POPC   PO433960  19.603  41.708   9.450
 2420POPC   GL133961  19.657  41.669   9.040
 2420POPC   GL233962  19.957  41.492   9.029
 2420POPC   C1A33963  19.628  41.556   8.613
 2420POPC   D2A33964  19.709  41.202   8.367
 2420POPC   C3A33965  20.097  41.298   8.156
 2420POPC   C4A33966  20.115  41.262   7.719
 2420POPC   C1B33967  20.128  41.685   8.689
 2420POPC   C2B33968  20.071  41.767   8.299
 2420POPC   C3B33969  20.079  41.736   7.877
 2420POPC   C4B33970  20.335  41.722   7.523
 2421POPC   NC333971  43.310  26.273   9.571
 2421POPC   PO433972  43.297  25.641   9.372
 2421POPC   GL133973  42.953  25.824   9.131
 2421POPC   GL233974  42.986  26.160   9.188
 2421POPC   C1A33975  42.810  26.016   8.732
 2421POPC   D2A33976  42.978  26.276   8.394
 2421POPC   C3A33977  43.117  26.063   8.014
 2421POPC   C4A33978  43.003  26.209   7.612
 2421POPC   C1B33979  43.244  26.244   8.853
 2421POPC   C2B33980  43.384  26.537   8.593
 2421POPC   C3B33981  43.391  26.513   8.180
 2421POPC   C4B33982  43.454  26.437   7.756
 2422POPC   NC333983  21.314   5.325   9.323
 2422POPC   PO433984  21.875   5.183   9.506
 2422POPC   GL133985  21.654   4.947   9.133
 2422POPC   GL233986  21.330   5.068   8.919
 2422POPC   C1A33987  21.611   4.793   8.649
 2422POPC   D2A33988  21.419   4.877   8.256
 2422POPC   C3A33989  21.598   5.163   7.948
 2422POPC   C4A33990  21.581   5.582   7.758
 2422POPC   C1B33991  20.992   5.230   8.708
 2422POPC   C2B33992  20.887   5.092   8.339
 2422POPC   C3B33993  21.079   5.162   7.945
 2422POPC   C4B33994  21.059   5.539   7.650
 2423POPC   NC333995  42.181  26.524   9.275
 2423POPC   PO433996  42.297  27.097   9.716
 2423POPC   GL133997  42.485  26.947   9.238
 2423POPC   GL233998  42.418  27.201   9.033
 2423POPC   C1A33999  42.455  26.771   8.767
 2423POPC   D2A34000  42.568  26.600   8.364
 2423POPC   C3A34001  42.433  26.722   7.972
 2423POPC   C4A34002  42.623  26.616   7.583
 2423POPC   C1B34003  42.085  27.098   8.720
 2423POPC   C2B34004  42.098  26.907   8.337
 2423POPC   C3B34005  41.961  26.943   7.907
 2423POPC   C4B34006  42.219  26.935   7.548
 2424POPC   NC334007  44.263   5.127   9.563
 2424POPC   PO434008  43.652   4.951   9.508
 2424POPC   GL134009  43.961   4.991   9.170
 2424POPC   GL234010  44.088   5.345   9.136
 2424POPC   C1A34011  43.926   5.082   8.734
 2424POPC   D2A34012  44.057   5.016   8.322
 2424POPC   C3A34013  43.750   4.848   8.101
 2424POPC   C4A34014  43.710   5.106   7.788
 2424POPC   C1B34015  44.335   5.400   8.731
 2424POPC   C2B34016  44.212   5.498   8.287
 2424POPC   C3B34017  44.131   5.367   7.865
 2424POPC   C4B34018  44.020   5.631   7.471
 2425POPC   NC334019   4.045  40.305   9.389
 2425POPC   PO434020   4.403  39.852   9.730
 2425POPC   GL134021   4.472  39.925   9.265
 2425POPC   GL234022   4.442  40.238   9.067
 2425POPC   C1A34023   4.340  39.768   8.820
 2425POPC   D2A34024   4.120  39.790   8.390
 2425POPC   C3A34025   4.346  39.685   7.984
 2425POPC   C4A34026   4.656  39.804   7.649
 2425POPC   C1B34027   4.147  40.244   8.714
 2425POPC   C2B34028   3.787  40.217   8.457
 2425POPC   C3B34029   3.754  40.232   8.015
 2425POPC   C4B34030   4.127  40.131   7.797
 2426POPC   NC334031   6.701  24.097   9.444
 2426POPC   PO434032   6.300  24.647   9.506
 2426POPC   GL134033   6.513  24.476   9.163
 2426POPC   GL234034   6.255  24.294   9.033
 2426POPC   C1A34035   6.710  24.354   8.757
 2426POPC   D2A34036   6.647  24.510   8.328
 2426POPC   C3A34037   6.855  24.302   8.014
 2426POPC   C4A34038   6.757  24.252   7.584
 2426POPC   C1B34039   6.295  24.060   8.664
 2426POPC   C2B34040   6.441  24.019   8.235
 2426POPC   C3B34041   6.332  24.330   7.914
 2426POPC   C4B34042   6.233  24.312   7.433
 2427POPC   NC334043   2.685  26.378   9.549
 2427POPC   PO434044   3.140  25.956   9.655
 2427POPC   GL134045   2.978  26.082   9.203
 2427POPC   GL234046   2.605  26.032   9.187
 2427POPC   C1A34047   2.826  25.851   8.783
 2427POPC   D2A34048   2.506  25.707   8.489
 2427POPC   C3A34049   2.672  25.722   8.054
 2427POPC   C4A34050   2.911  26.002   7.787
 2427POPC   C1B34051   2.623  26.336   8.870
 2427POPC   C2B34052   2.632  26.409   8.445
 2427POPC   C3B34053   2.735  26.435   8.016
 2427POPC   C4B34054   2.462  26.235   7.722
 2428POPC   NC334055   7.281   3.022   9.422
 2428POPC   PO434056   7.796   2.621   9.363
 2428POPC   GL134057   7.638   2.917   9.075
 2428POPC   GL234058   7.376   2.706   8.991
 2428POPC   C1A34059   7.590   2.997   8.621
 2428POPC   D2A34060   7.340   2.701   8.351
 2428POPC   C3A34061   7.353   2.815   7.917
 2428POPC   C4A34062   7.600   2.628   7.600
 2428POPC   C1B34063   7.102   2.965   8.727
 2428POPC   C2B34064   6.885   2.938   8.328
 2428POPC   C3B34065   6.915   2.542   8.081
 2428POPC   C4B34066   7.076   2.450   7.665
 2429POPC   NC334067   4.511  31.010   9.411
 2429POPC   PO434068   5.114  30.698   9.455
 2429POPC   GL134069   4.913  30.869   9.111
 2429POPC   GL234070   4.784  30.570   9.054
 2429POPC   C1A34071   4.957  30.871   8.657
 2429POPC   D2A34072   5.234  30.643   8.346
 2429POPC   C3A34073   5.060  30.712   7.908
 2429POPC   C4A34074   4.914  30.852   7.464
 2429POPC   C1B34075   5.008  30.369   8.733
 2429POPC   C2B34076   4.864  30.305   8.271
 2429POPC   C3B34077   5.168  30.221   7.937
 2429POPC   C4B34078   5.156  30.393   7.490
 2430POPC   NC334079  17.172   0.237   9.288
 2430POPC   PO434080  17.254   0.770   9.756
 2430POPC   GL134081  17.343   0.751   9.283
 2430POPC   GL234082  17.144   0.619   8.974
 2430POPC   C1A34083  17.629   0.709   8.933
 2430POPC   D2A34084  17.605   0.739   8.496
 2430POPC   C3A34085  17.674   0.469   8.147
 2430POPC   C4A34086  17.734   0.608   7.698
 2430POPC   C1B34087  17.182   0.450   8.584
 2430POPC   C2B34088  17.006   0.514   8.190
 2430POPC   C3B34089  17.244   0.563   7.839
 2430POPC   C4B34090  17.222   0.383   7.417
 2431POPC   NC334091  25.886  30.506   9.561
 2431POPC   PO434092  25.755  31.076   9.418
 2431POPC   GL134093  25.860  30.786   9.134
 2431POPC   GL234094  26.216  30.855   9.218
 2431POPC   C1A34095  26.081  30.665   8.771
 2431POPC   D2A34096  26.029  30.903   8.433
 2431POPC   C3A34097  26.133  30.668   8.110
 2431POPC   C4A34098  26.198  30.679   7.683
 2431POPC   C1B34099  26.359  31.095   8.831
 2431POPC   C2B34100  26.346  31.311   8.433
 2431POPC   C3B34101  26.279  31.153   8.027
 2431POPC   C4B34102  26.473  31.119   7.626
 2432POPC   NC334103  44.096  23.794   9.455
 2432POPC   PO434104  43.382  23.705   9.403
 2432POPC   GL134105  43.563  23.970   9.044
 2432POPC   GL234106  43.931  24.029   9.026
 2432POPC   C1A34107  43.692  23.930   8.597
 2432POPC   D2A34108  43.876  23.524   8.402
 2432POPC   C3A34109  43.805  23.533   7.972
 2432POPC   C4A34110  43.867  23.966   7.847
 2432POPC   C1B34111  44.225  23.958   8.684
 2432POPC   C2B34112  44.232  23.954   8.230
 2432POPC   C3B34113  44.284  23.656   7.897
 2432POPC   C4B34114  44.221  23.241   7.762
 2433POPC   NC334115  24.235  15.153   9.643
 2433POPC   PO434116  24.731  14.876   9.473
 2433POPC   GL134117  24.757  15.032   9.076
 2433POPC   GL234118  24.845  15.335   9.207
 2433POPC   C1A34119  24.676  14.986   8.617
 2433POPC   D2A34120  24.320  14.902   8.313
 2433POPC   C3A34121  24.289  15.112   7.928
 2433POPC   C4A34122  24.688  15.020   7.726
 2433POPC   C1B34123  24.878  15.592   8.854
 2433POPC   C2B34124  24.948  15.429   8.480
 2433POPC   C3B34125  24.709  15.295   8.156
 2433POPC   C4B34126  24.647  15.517   7.768
 2434POPC   NC334127  22.755  27.256   9.491
 2434POPC   PO434128  23.070  27.872   9.547
 2434POPC   GL134129  23.066  27.536   9.205
 2434POPC   GL234130  22.706  27.451   9.049
 2434POPC   C1A34131  23.233  27.513   8.780
 2434POPC   D2A34132  23.339  27.850   8.448
 2434POPC   C3A34133  23.270  27.629   8.052
 2434POPC   C4A34134  23.126  27.176   7.972
 2434POPC   C1B34135  22.806  27.795   8.852
 2434POPC   C2B34136  22.859  27.654   8.452
 2434POPC   C3B34137  22.743  27.568   8.084
 2434POPC   C4B34138  22.825  27.721   7.731
 2435POPC   NC334139   1.503  44.386   9.790
 2435POPC   PO434140   1.821  44.940   9.509
 2435POPC   GL134141   2.030  44.897   9.128
 2435POPC   GL234142   2.122  44.577   9.075
 2435POPC   C1A34143   1.889  44.872   8.706
 2435POPC   D2A34144   1.756  44.846   8.286
 2435POPC   C3A34145   1.927  44.797   7.867
 2435POPC   C4A34146   1.886  44.831   7.397
 2435POPC   C1B34147   2.112  44.405   8.675
 2435POPC   C2B34148   2.020  44.417   8.278
 2435POPC   C3B34149   2.227  44.365   7.943
 2435POPC   C4B34150   1.983  44.367   7.585
 2436POPC   NC334151  38.395   6.478   9.542
 2436POPC   PO434152  38.790   6.929   9.359
 2436POPC   GL134153  38.598   6.644   9.070
 2436POPC   GL234154  38.589   6.308   9.107
 2436POPC   C1A34155  38.606   6.560   8.634
 2436POPC   D2A34156  38.546   6.894   8.341
 2436POPC   C3A34157  38.400   6.824   7.937
 2436POPC   C4A34158  38.388   6.861   7.482
 2436POPC   C1B34159  38.182   6.390   8.873
 2436POPC   C2B34160  38.139   6.538   8.408
 2436POPC   C3B34161  38.290   6.342   8.044
 2436POPC   C4B34162  38.417   6.358   7.611
 2437POPC   NC334163   2.080   3.578   9.542
 2437POPC   PO434164   1.641   4.029   9.288
 2437POPC   GL134165   1.961   3.819   9.056
 2437POPC   GL234166   1.907   3.479   9.078
 2437POPC   C1A34167   2.118   3.763   8.622
 2437POPC   D2A34168   1.900   3.605   8.249
 2437POPC   C3A34169   1.969   3.672   7.814
 2437POPC   C4A34170   1.787   3.905   7.485
 2437POPC   C1B34171   2.111   3.263   8.779
 2437POPC   C2B34172   2.278   3.292   8.381
 2437POPC   C3B34173   2.171   3.228   7.976
 2437POPC   C4B34174   2.308   3.191   7.574
 2438POPC   NC334175  34.401  16.573   9.622
 2438POPC   PO434176  34.780  17.145   9.584
 2438POPC   GL134177  34.644  16.885   9.254
 2438POPC   GL234178  34.535  17.163   9.101
 2438POPC   C1A34179  34.767  16.754   8.835
 2438POPC   D2A34180  34.874  16.889   8.387
 2438POPC   C3A34181  34.629  16.617   8.120
 2438POPC   C4A34182  34.634  16.477   7.679
 2438POPC   C1B34183  34.235  17.122   8.822
 2438POPC   C2B34184  34.374  16.944   8.481
 2438POPC   C3B34185  34.399  17.112   8.112
 2438POPC   C4B34186  34.564  16.971   7.752
 2439POPC   NC334187  13.844   5.907   9.752
 2439POPC   PO434188  13.675   6.575   9.533
 2439POPC   GL134189  13.607   6.687   9.149
 2439POPC   GL234190  13.913   6.806   9.112
 2439POPC   C1A34191  13.466   6.491   8.792
 2439POPC   D2A34192  13.410   6.272   8.406
 2439POPC   C3A34193  13.356   6.527   8.055
 2439POPC   C4A34194  13.431   6.548   7.635
 2439POPC   C1B34195  13.950   6.621   8.720
 2439POPC   C2B34196  13.721   6.690   8.357
 2439POPC   C3B34197  13.823   6.766   7.951
 2439POPC   C4B34198  13.943   6.598   7.546
 2440POPC   NC334199  15.231  38.070   9.486
 2440POPC   PO434200  14.970  38.674   9.614
 2440POPC   GL134201  15.050  38.473   9.221
 2440POPC   GL234202  15.419  38.480   9.222
 2440POPC   C1A34203  15.032  38.600   8.800
 2440POPC   D2A34204  15.269  38.577   8.431
 2440POPC   C3A34205  14.998  38.639   8.068
 2440POPC   C4A34206  14.768  38.730   7.690
 2440POPC   C1B34207  15.436  38.261   8.823
 2440POPC   C2B34208  15.574  38.170   8.372
 2440POPC   C3B34209  15.336  38.106   7.974
 2440POPC   C4B34210  15.000  38.263   7.703
 2441POPC   NC334211   3.204  16.706   9.531
 2441POPC   PO434212   3.814  16.813   9.655
 2441POPC   GL134213   3.640  16.659   9.280
 2441POPC   GL234214   3.573  16.977   9.169
 2441POPC   C1A34215   3.574  16.613   8.835
 2441POPC   D2A34216   3.737  16.547   8.435
 2441POPC   C3A34217   3.381  16.441   8.189
 2441POPC   C4A34218   3.360  16.319   7.783
 2441POPC   C1B34219   3.742  17.087   8.798
 2441POPC   C2B34220   3.589  17.097   8.388
 2441POPC   C3B34221   3.671  16.864   8.035
 2441POPC   C4B34222   3.839  16.475   7.899
 2442POPC   NC334223   1.946  20.795   9.549
 2442POPC   PO434224   2.013  20.071   9.489
 2442POPC   GL134225   2.107  20.467   9.195
 2442POPC   GL234226   1.791  20.689   9.079
 2442POPC   C1A34227   2.170  20.618   8.749
 2442POPC   D2A34228   1.965  20.537   8.356
 2442POPC   C3A34229   2.250  20.382   8.031
 2442POPC   C4A34230   2.301  20.509   7.612
 2442POPC   C1B34231   1.626  20.866   8.694
 2442POPC   C2B34232   1.767  21.042   8.313
 2442POPC   C3B34233   2.078  20.892   7.984
 2442POPC   C4B34234   1.811  20.580   7.803
 2443POPC   NC334235  29.436  15.901   9.597
 2443POPC   PO434236  28.805  15.784   9.432
 2443POPC   GL134237  29.148  15.843   9.152
 2443POPC   GL234238  29.412  15.578   9.194
 2443POPC   C1A34239  29.003  15.943   8.738
 2443POPC   D2A34240  29.013  16.158   8.352
 2443POPC   C3A34241  28.953  15.905   8.005
 2443POPC   C4A34242  29.205  16.145   7.771
 2443POPC   C1B34243  29.474  15.664   8.777
 2443POPC   C2B34244  29.335  15.762   8.366
 2443POPC   C3B34245  29.525  15.779   7.966
 2443POPC   C4B34246  29.868  15.653   7.655
 2444POPC   NC334247  21.500  42.564   9.339
 2444POPC   PO434248  21.471  41.967   9.224
 2444POPC   GL134249  21.259  42.162   8.944
 2444POPC   GL234250  21.356  42.540   8.860
 2444POPC   C1A34251  21.098  41.886   8.607
 2444POPC   D2A34252  20.881  42.069   8.259
 2444POPC   C3A34253  21.103  42.440   8.022
 2444POPC   C4A34254  21.278  42.513   7.620
 2444POPC   C1B34255  21.230  42.367   8.491
 2444POPC   C2B34256  21.377  42.020   8.187
 2444POPC   C3B34257  21.613  42.114   7.829
 2444POPC   C4B34258  22.027  42.135   7.653
 2445POPC   NC334259  34.023  28.295   9.597
 2445POPC   PO434260  33.331  28.419   9.459
 2445POPC   GL134261  33.654  28.240   9.209
 2445POPC   GL234262  33.923  28.497   9.147
 2445POPC   C1A34263  33.588  28.281   8.781
 2445POPC   D2A34264  33.458  28.528   8.465
 2445POPC   C3A34265  33.684  28.458   8.121
 2445POPC   C4A34266  33.673  28.184   7.784
 2445POPC   C1B34267  34.091  28.175   8.886
 2445POPC   C2B34268  34.001  28.203   8.464
 2445POPC   C3B34269  34.133  28.240   8.047
 2445POPC   C4B34270  34.074  28.572   7.738
 2446POPC   NC334271  22.716  13.164   9.258
 2446POPC   PO434272  22.233  12.829   9.540
 2446POPC   GL134273  22.102  12.825   9.132
 2446POPC   GL234274  22.254  12.517   9.078
 2446POPC   C1A34275  22.247  12.989   8.721
 2446POPC   D2A34276  22.343  12.850   8.282
 2446POPC   C3A34277  21.987  12.860   7.966
 2446POPC   C4A34278  22.074  12.939   7.538
 2446POPC   C1B34279  22.505  12.505   8.709
 2446POPC   C2B34280  22.507  12.328   8.307
 2446POPC   C3B34281  22.270  12.445   7.928
 2446POPC   C4B34282  22.319  12.487   7.486
 2447POPC   NC334283   0.716   4.853   9.541
 2447POPC   PO434284   0.105   5.164   9.542
 2447POPC   GL134285   0.458   5.223   9.226
 2447POPC   GL234286   0.602   4.901   9.056
 2447POPC   C1A34287   0.636   5.337   8.805
 2447POPC   D2A34288   0.448   5.176   8.396
 2447POPC   C3A34289   0.615   5.272   7.964
 2447POPC   C4A34290   0.420   5.057   7.585
 2447POPC   C1B34291   0.195   4.782   8.865
 2447POPC   C2B34292   0.048   4.861   8.447
 2447POPC   C3B34293   0.151   4.918   8.008
 2447POPC   C4B34294   0.270   4.564   7.739
 2448POPC   NC334295   6.421  25.729   9.442
 2448POPC   PO434296   6.622  26.337   9.708
 2448POPC   GL134297   6.761  26.050   9.238
 2448POPC   GL234298   6.797  25.743   9.083
 2448POPC   C1A34299   6.490  25.971   8.786
 2448POPC   D2A34300   6.220  26.222   8.562
 2448POPC   C3A34301   6.397  26.250   8.190
 2448POPC   C4A34302   6.494  26.189   7.793
 2448POPC   C1B34303   6.972  25.807   8.707
 2448POPC   C2B34304   6.809  25.991   8.355
 2448POPC   C3B34305   6.827  25.814   7.969
 2448POPC   C4B34306   6.790  25.869   7.537
 2449POPC   NC334307   7.170  42.557   9.556
 2449POPC   PO434308   7.543  42.096   9.766
 2449POPC   GL134309   7.495  42.078   9.291
 2449POPC   GL234310   7.448  42.439   9.140
 2449POPC   C1A34311   7.207  42.062   8.903
 2449POPC   D2A34312   7.197  41.934   8.453
 2449POPC   C3A34313   7.043  42.063   8.077
 2449POPC   C4A34314   7.294  42.178   7.751
 2449POPC   C1B34315   7.141  42.628   8.820
 2449POPC   C2B34316   7.235  42.813   8.391
 2449POPC   C3B34317   7.324  42.644   7.967
 2449POPC   C4B34318   7.673  42.717   7.685
 2450POPC   NC334319  43.354  24.206   9.439
 2450POPC   PO434320  42.984  24.724   9.593
 2450POPC   GL134321  42.966  24.566   9.176
 2450POPC   GL234322  43.311  24.617   9.123
 2450POPC   C1A34323  42.945  24.684   8.719
 2450POPC   D2A34324  43.142  24.776   8.305
 2450POPC   C3A34325  43.046  24.615   7.902
 2450POPC   C4A34326  43.027  24.781   7.488
 2450POPC   C1B34327  43.207  24.266   8.808
 2450POPC   C2B34328  43.272  24.182   8.372
 2450POPC   C3B34329  43.426  24.292   7.966
 2450POPC   C4B34330  43.356  24.401   7.522
 2451POPC   NC334331   6.761  33.384   9.518
 2451POPC   PO434332   6.438  33.906   9.416
 2451POPC   GL134333   6.607  33.645   9.110
 2451POPC   GL234334   6.886  33.767   9.119
 2451POPC   C1A34335   6.643  33.634   8.682
 2451POPC   D2A34336   6.488  33.876   8.361
 2451POPC   C3A34337   6.618  33.770   7.968
 2451POPC   C4A34338   6.545  33.999   7.621
 2451POPC   C1B34339   7.096  33.883   8.759
 2451POPC   C2B34340   6.987  33.825   8.347
 2451POPC   C3B34341   7.145  33.894   7.978
 2451POPC   C4B34342   6.968  33.718   7.601
 2452POPC   NC334343  11.392  20.086   9.500
 2452POPC   PO434344  10.908  19.663   9.494
 2452POPC   GL134345  11.213  19.827   9.132
 2452POPC   GL234346  11.600  19.701   9.176
 2452POPC   C1A34347  11.301  19.702   8.737
 2452POPC   D2A34348  11.028  19.813   8.421
 2452POPC   C3A34349  11.199  19.861   8.023
 2452POPC   C4A34350  11.238  19.879   7.602
 2452POPC   C1B34351  11.794  19.796   8.759
 2452POPC   C2B34352  11.630  19.687   8.338
 2452POPC   C3B34353  11.726  19.914   7.975
 2452POPC   C4B34354  11.707  20.031   7.562
 2453POPC   NC334355   3.909   0.270   9.591
 2453POPC   PO434356   3.261   0.462   9.632
 2453POPC   GL134357   3.466   0.241   9.286
 2453POPC   GL234358   3.622   0.536   9.210
 2453POPC   C1A34359   3.568   0.158   8.845
 2453POPC   D2A34360   3.666   0.371   8.435
 2453POPC   C3A34361   3.553   0.204   8.047
 2453POPC   C4A34362   3.348   0.138   7.646
 2453POPC   C1B34363   3.778   0.694   8.817
 2453POPC   C2B34364   3.919   0.824   8.409
 2453POPC   C3B34365   3.675   0.735   8.045
 2453POPC   C4B34366   3.619   0.569   7.665
 2454POPC   NC334367  38.835  37.160   9.726
 2454POPC   PO434368  39.134  36.770   9.224
 2454POPC   GL134369  39.275  36.849   8.924
 2454POPC   GL234370  39.392  37.185   9.006
 2454POPC   C1A34371  39.436  36.664   8.567
 2454POPC   D2A34372  39.450  36.676   8.123
 2454POPC   C3A34373  39.158  36.799   7.800
 2454POPC   C4A34374  39.192  36.571   7.448
 2454POPC   C1B34375  39.295  37.184   8.569
 2454POPC   C2B34376  39.592  37.162   8.257
 2454POPC   C3B34377  39.542  37.115   7.864
 2454POPC   C4B34378  39.168  37.319   7.708
 2455POPC   NC334379  11.018  21.021   9.854
 2455POPC   PO434380  11.027  20.406   9.496
 2455POPC   GL134381  11.296  20.445   9.139
 2455POPC   GL234382  11.573  20.208   9.043
 2455POPC   C1A34383  11.245  20.701   8.784
 2455POPC   D2A34384  10.960  20.652   8.444
 2455POPC   C3A34385  11.145  20.741   8.013
 2455POPC   C4A34386  11.383  20.913   7.674
 2455POPC   C1B34387  11.311  20.202   8.671
 2455POPC   C2B34388  11.286  20.301   8.239
 2455POPC   C3B34389  11.431  20.365   7.804
 2455POPC   C4B34390  11.373  20.302   7.320
 2456POPC   NC334391  12.411  38.729   9.326
 2456POPC   PO434392  11.738  38.888   9.503
 2456POPC   GL134393  11.874  38.638   9.119
 2456POPC   GL234394  12.138  38.370   9.084
 2456POPC   C1A34395  11.780  38.424   8.730
 2456POPC   D2A34396  11.979  38.407   8.339
 2456POPC   C3A34397  11.858  38.418   7.940
 2456POPC   C4A34398  11.531  38.633   7.793
 2456POPC   C1B34399  12.318  38.554   8.706
 2456POPC   C2B34400  12.541  38.536   8.315
 2456POPC   C3B34401  12.351  38.608   7.958
 2456POPC   C4B34402  12.215  38.850   7.646
 2457POPC   NC334403   6.115  29.441   9.560
 2457POPC   PO434404   5.445  29.133   9.638
 2457POPC   GL134405   5.760  29.136   9.241
 2457POPC   GL234406   6.149  29.087   9.199
 2457POPC   C1A34407   5.862  29.061   8.776
 2457POPC   D2A34408   5.945  28.788   8.389
 2457POPC   C3A34409   5.731  28.920   7.991
 2457POPC   C4A34410   5.641  29.271   7.682
 2457POPC   C1B34411   6.368  28.959   8.818
 2457POPC   C2B34412   6.465  28.857   8.393
 2457POPC   C3B34413   6.248  29.061   8.047
 2457POPC   C4B34414   6.078  29.020   7.641
 2458POPC   NC334415   3.226   4.618   9.562
 2458POPC   PO434416   3.837   4.188   9.505
 2458POPC   GL134417   3.803   4.432   9.133
 2458POPC   GL234418   3.754   4.197   8.868
 2458POPC   C1A34419   3.674   4.709   8.792
 2458POPC   D2A34420   3.655   4.551   8.385
 2458POPC   C3A34421   3.515   4.828   8.107
 2458POPC   C4A34422   3.608   4.583   7.799
 2458POPC   C1B34423   3.347   4.313   8.708
 2458POPC   C2B34424   3.190   4.205   8.298
 2458POPC   C3B34425   3.219   4.177   7.829
 2458POPC   C4B34426   3.187   4.006   7.379
 2459POPC   NC334427  34.866  13.070   9.230
 2459POPC   PO434428  34.270  13.131   9.572
 2459POPC   GL134429  34.357  12.839   9.199
 2459POPC   GL234430  34.669  12.683   8.989
 2459POPC   C1A34431  34.197  12.592   8.860
 2459POPC   D2A34432  34.355  12.520   8.438
 2459POPC   C3A34433  34.698  12.727   8.220
 2459POPC   C4A34434  34.525  12.573   7.844
 2459POPC   C1B34435  34.533  12.991   8.674
 2459POPC   C2B34436  34.770  13.283   8.386
 2459POPC   C3B34437  34.949  13.203   7.991
 2459POPC   C4B34438  34.796  12.955   7.657
 2460POPC   NC334439  42.686  44.720   9.596
 2460POPC   PO434440  43.440  44.541   9.562
 2460POPC   GL134441  43.065  44.518   9.301
 2460POPC   GL234442  43.081  44.875   9.204
 2460POPC   C1A34443  42.957  44.442   8.864
 2460POPC   D2A34444  43.207  44.445   8.480
 2460POPC   C3A34445  43.147  44.346   8.053
 2460POPC   C4A34446  43.041  44.287   7.589
 2460POPC   C1B34447  43.372  44.769   8.848
 2460POPC   C2B34448  43.622  44.817   8.459
 2460POPC   C3B34449  43.534  44.901   8.022
 2460POPC   C4B34450  43.250  44.712   7.730
 2461POPC   NC334451  34.244   4.587   9.548
 2461POPC   PO434452  33.549   4.564   9.484
 2461POPC   GL134453  33.704   4.339   9.116
 2461POPC   GL234454  33.995   4.138   9.258
 2461POPC   C1A34455  33.617   4.193   8.671
 2461POPC   D2A34456  33.606   3.993   8.254
 2461POPC   C3A34457  33.515   4.235   7.861
 2461POPC   C4A34458  33.264   4.204   7.476
 2461POPC   C1B34459  34.076   4.016   8.825
 2461POPC   C2B34460  34.071   4.198   8.401
 2461POPC   C3B34461  34.041   4.098   7.963
 2461POPC   C4B34462  33.931   4.280   7.552
 2462POPC   NC334463  24.907  20.463   9.803
 2462POPC   PO434464  25.352  20.822   9.467
 2462POPC   GL134465  25.173  20.649   9.133
 2462POPC   GL234466  25.195  20.987   8.991
 2462POPC   C1A34467  25.212  20.308   8.819
 2462POPC   D2A34468  24.996  20.319   8.411
 2462POPC   C3A34469  25.197  20.242   7.979
 2462POPC   C4A34470  25.150  20.411   7.534
 2462POPC   C1B34471  25.191  20.786   8.617
 2462POPC   C2B34472  25.367  20.901   8.232
 2462POPC   C3B34473  25.221  20.828   7.812
 2462POPC   C4B34474  25.323  20.856   7.324
 2463POPC   NC334475  19.357  28.814   9.371
 2463POPC   PO434476  19.898  28.781   9.729
 2463POPC   GL134477  19.869  28.769   9.228
 2463POPC   GL234478  19.874  28.419   9.062
 2463POPC   C1A34479  19.708  28.809   8.769
 2463POPC   D2A34480  19.655  28.920   8.307
 2463POPC   C3A34481  19.755  28.566   8.027
 2463POPC   C4A34482  20.049  28.551   7.669
 2463POPC   C1B34483  19.783  28.244   8.623
 2463POPC   C2B34484  19.941  28.136   8.194
 2463POPC   C3B34485  20.056  28.027   7.765
 2463POPC   C4B34486  20.283  28.039   7.367
 2464POPC   NC334487  23.923   5.435   9.359
 2464POPC   PO434488  23.462   5.857   9.667
 2464POPC   GL134489  23.591   5.792   9.188
 2464POPC   GL234490  23.480   5.469   9.084
 2464POPC   C1A34491  23.923   5.710   8.806
 2464POPC   D2A34492  24.143   5.919   8.462
 2464POPC   C3A34493  23.867   6.046   8.087
 2464POPC   C4A34494  23.629   6.067   7.700
 2464POPC   C1B34495  23.425   5.704   8.697
 2464POPC   C2B34496  23.389   5.954   8.335
 2464POPC   C3B34497  23.249   5.827   7.943
 2464POPC   C4B34498  23.361   5.668   7.539
 2465POPC   NC334499  21.010  15.270   9.457
 2465POPC   PO434500  21.583  15.097   9.464
 2465POPC   GL134501  21.464  15.117   9.082
 2465POPC   GL234502  21.312  15.394   9.061
 2465POPC   C1A34503  21.622  15.164   8.677
 2465POPC   D2A34504  21.430  15.327   8.284
 2465POPC   C3A34505  21.667  15.322   7.913
 2465POPC   C4A34506  21.706  15.077   7.563
 2465POPC   C1B34507  21.303  15.623   8.699
 2465POPC   C2B34508  20.957  15.665   8.404
 2465POPC   C3B34509  20.955  15.375   8.057
 2465POPC   C4B34510  21.233  15.457   7.710
 2466POPC   NC334511  25.301  30.962   9.366
 2466POPC   PO434512  25.330  31.606   9.592
 2466POPC   GL134513  25.396  31.460   9.184
 2466POPC   GL234514  25.046  31.386   9.121
 2466POPC   C1A34515  25.357  31.682   8.796
 2466POPC   D2A34516  25.251  31.876   8.394
 2466POPC   C3A34517  25.544  31.829   8.076
 2466POPC   C4A34518  25.565  31.451   7.808
 2466POPC   C1B34519  25.187  31.199   8.729
 2466POPC   C2B34520  25.143  31.351   8.307
 2466POPC   C3B34521  25.177  31.132   7.925
 2466POPC   C4B34522  25.125  31.264   7.516
 2467POPC   NC334523   6.305  20.510   9.781
 2467POPC   PO434524   5.698  20.614   9.576
 2467POPC   GL134525   5.756  20.392   9.191
 2467POPC   GL234526   5.851  20.710   9.058
 2467POPC   C1A34527   5.941  20.320   8.758
 2467POPC   D2A34528   5.873  20.665   8.490
 2467POPC   C3A34529   6.123  20.551   8.158
 2467POPC   C4A34530   5.986  20.537   7.742
 2467POPC   C1B34531   5.616  21.006   8.835
 2467POPC   C2B34532   5.678  21.189   8.446
 2467POPC   C3B34533   5.448  21.110   8.073
 2467POPC   C4B34534   5.556  20.849   7.767
 2468POPC   NC334535   5.200  12.965   9.577
 2468POPC   PO434536   4.928  12.413   9.432
 2468POPC   GL134537   5.153  12.717   9.123
 2468POPC   GL234538   5.123  13.128   9.110
 2468POPC   C1A34539   5.036  12.857   8.699
 2468POPC   D2A34540   5.232  12.991   8.354
 2468POPC   C3A34541   5.040  12.777   8.045
 2468POPC   C4A34542   4.994  12.714   7.634
 2468POPC   C1B34543   4.777  13.270   8.831
 2468POPC   C2B34544   4.730  13.155   8.395
 2468POPC   C3B34545   4.907  13.264   7.997
 2468POPC   C4B34546   4.760  13.162   7.568
 2469POPC   NC334547  39.423  28.509   9.254
 2469POPC   PO434548  39.012  28.130   9.699
 2469POPC   GL134549  38.979  28.224   9.231
 2469POPC   GL234550  39.251  28.123   8.981
 2469POPC   C1A34551  38.900  28.498   8.831
 2469POPC   D2A34552  39.014  28.697   8.447
 2469POPC   C3A34553  38.935  28.376   8.139
 2469POPC   C4A34554  39.142  28.224   7.765
 2469POPC   C1B34555  39.360  28.355   8.610
 2469POPC   C2B34556  39.457  28.398   8.183
 2469POPC   C3B34557  39.650  28.150   7.867
 2469POPC   C4B34558  39.539  28.064   7.439
 2470POPC   NC334559  31.911  34.597   9.509
 2470POPC   PO434560  32.547  34.892   9.609
 2470POPC   GL134561  32.343  34.715   9.254
 2470POPC   GL234562  32.098  34.955   9.165
 2470POPC   C1A34563  32.329  34.495   8.849
 2470POPC   D2A34564  32.193  34.507   8.414
 2470POPC   C3A34565  32.354  34.598   7.995
 2470POPC   C4A34566  32.508  34.317   7.666
 2470POPC   C1B34567  32.193  34.972   8.711
 2470POPC   C2B34568  32.022  35.042   8.280
 2470POPC   C3B34569  31.888  34.840   7.878
 2470POPC   C4B34570  32.183  34.730   7.500
 2471POPC   NC334571  28.874   7.776   9.518
 2471POPC   PO434572  29.565   7.749   9.317
 2471POPC   GL134573  29.340   7.504   9.021
 2471POPC   GL234574  28.978   7.558   9.065
 2471POPC   C1A34575  29.433   7.409   8.586
 2471POPC   D2A34576  29.464   7.679   8.200
 2471POPC   C3A34577  29.336   7.497   7.781
 2471POPC   C4A34578  29.354   7.268   7.364
 2471POPC   C1B34579  28.963   7.136   8.849
 2471POPC   C2B34580  28.988   6.951   8.424
 2471POPC   C3B34581  28.860   7.009   8.018
 2471POPC   C4B34582  28.869   7.336   7.757
 2472POPC   NC334583   7.794  41.228   9.545
 2472POPC   PO434584   8.398  41.592   9.644
 2472POPC   GL134585   8.270  41.611   9.168
 2472POPC   GL234586   8.025  41.366   9.081
 2472POPC   C1A34587   8.309  41.783   8.764
 2472POPC   D2A34588   8.289  41.601   8.364
 2472POPC   C3A34589   8.059  41.730   8.027
 2472POPC   C4A34590   8.388  41.752   7.722
 2472POPC   C1B34591   7.910  41.449   8.678
 2472POPC   C2B34592   7.918  41.224   8.284
 2472POPC   C3B34593   7.695  41.306   7.919
 2472POPC   C4B34594   7.972  41.466   7.603
 2473POPC   NC334595  10.068  28.529   9.327
 2473POPC   PO434596   9.607  28.054   9.471
 2473POPC   GL134597   9.650  28.279   9.088
 2473POPC   GL234598   9.624  28.646   9.111
 2473POPC   C1A34599   9.476  28.410   8.689
 2473POPC   D2A34600   9.528  28.546   8.263
 2473POPC   C3A34601   9.516  28.272   7.897
 2473POPC   C4A34602   9.858  28.252   7.611
 2473POPC   C1B34603   9.810  28.792   8.714
 2473POPC   C2B34604  10.031  28.528   8.411
 2473POPC   C3B34605   9.959  28.581   7.982
 2473POPC   C4B34606   9.606  28.722   7.726
 2474POPC   NC334607  31.882   9.784   9.660
 2474POPC   PO434608  31.429   9.307   9.447
 2474POPC   GL134609  31.479   9.603   9.093
 2474POPC   GL234610  31.628   9.954   9.200
 2474POPC   C1A34611  31.485   9.816   8.675
 2474POPC   D2A34612  31.218   9.939   8.325
 2474POPC   C3A34613  31.174   9.674   7.972
 2474POPC   C4A34614  31.388   9.644   7.568
 2474POPC   C1B34615  31.916  10.074   8.861
 2474POPC   C2B34616  31.954  10.093   8.420
 2474POPC   C3B34617  31.682  10.028   8.064
 2474POPC   C4B34618  31.694  10.052   7.625
 2475POPC   NC334619  15.542   8.030   9.839
 2475POPC   PO434620  15.875   8.354   9.362
 2475POPC   GL134621  15.996   8.271   8.998
 2475POPC   GL234622  15.852   7.959   8.941
 2475POPC   C1A34623  16.161   8.185   8.611
 2475POPC   D2A34624  16.489   8.022   8.401
 2475POPC   C3A34625  16.450   8.284   8.075
 2475POPC   C4A34626  16.133   8.279   7.763
 2475POPC   C1B34627  16.085   7.682   8.695
 2475POPC   C2B34628  16.136   7.547   8.291
 2475POPC   C3B34629  16.126   7.812   7.953
 2475POPC   C4B34630  15.926   7.855   7.553
 2476POPC   NC334631  35.095  36.780   9.426
 2476POPC   PO434632  35.708  37.092   9.551
 2476POPC   GL134633  35.624  36.961   9.136
 2476POPC   GL234634  35.314  36.834   8.959
 2476POPC   C1A34635  35.655  37.142   8.738
 2476POPC   D2A34636  35.400  37.127   8.390
 2476POPC   C3A34637  35.639  37.271   8.054
 2476POPC   C4A34638  35.612  37.102   7.664
 2476POPC   C1B34639  35.233  36.547   8.609
 2476POPC   C2B34640  35.177  36.494   8.135
 2476POPC   C3B34641  35.175  36.802   7.783
 2476POPC   C4B34642  35.221  36.707   7.300
 2477POPC   NC334643   0.150  33.860   9.638
 2477POPC   PO434644   0.795  33.868   9.709
 2477POPC   GL134645   0.528  33.813   9.266
 2477POPC   GL234646   0.250  34.027   9.157
 2477POPC   C1A34647   0.349  33.671   8.813
 2477POPC   D2A34648   0.235  33.436   8.399
 2477POPC   C3A34649   0.406  33.666   8.033
 2477POPC   C4A34650   0.496  33.783   7.593
 2477POPC   C1B34651   0.129  34.134   8.748
 2477POPC   C2B34652   0.139  33.923   8.378
 2477POPC   C3B34653   0.100  34.069   7.958
 2477POPC   C4B34654  44.813  34.290   7.743
 2478POPC   NC334655   7.272   0.391   9.689
 2478POPC   PO434656   7.746  44.932   9.628
 2478POPC   GL134657   7.599   0.286   9.309
 2478POPC   GL234658   7.226   0.346   9.198
 2478POPC   C1A34659   7.595   0.562   8.938
 2478POPC   D2A34660   7.538   0.635   8.491
 2478POPC   C3A34661   7.724   0.486   8.109
 2478POPC   C4A34662   7.612   0.168   7.844
 2478POPC   C1B34663   7.158   0.360   8.763
 2478POPC   C2B34664   7.055   0.538   8.367
 2478POPC   C3B34665   7.193   0.402   8.005
 2478POPC   C4B34666   7.395   0.606   7.688
 2479POPC   NC334667  21.969  41.228   9.807
 2479POPC   PO434668  21.895  40.646   9.515
 2479POPC   GL134669  22.055  40.775   9.157
 2479POPC   GL234670  22.051  41.097   9.225
 2479POPC   C1A34671  22.303  40.794   8.790
 2479POPC   D2A34672  22.339  40.535   8.417
 2479POPC   C3A34673  22.388  40.739   8.032
 2479POPC   C4A34674  22.343  40.683   7.616
 2479POPC   C1B34675  21.871  41.096   8.791
 2479POPC   C2B34676  22.088  41.028   8.383
 2479POPC   C3B34677  22.002  41.123   7.971
 2479POPC   C4B34678  22.031  41.086   7.512
 2480POPC   NC334679   3.762  20.865   9.528
 2480POPC   PO434680   3.134  20.602   9.527
 2480POPC   GL134681   3.331  20.358   9.224
 2480POPC   GL234682   3.675  20.430   9.173
 2480POPC   C1A34683   3.321  20.472   8.781
 2480POPC   D2A34684   3.336  20.784   8.484
 2480POPC   C3A34685   3.069  20.792   8.161
 2480POPC   C4A34686   3.183  20.652   7.771
 2480POPC   C1B34687   3.754  20.197   8.797
 2480POPC   C2B34688   3.767  20.254   8.340
 2480POPC   C3B34689   3.686  20.666   8.101
 2480POPC   C4B34690   3.899  20.724   7.712
 2481POPC   NC334691  42.597  13.254   9.494
 2481POPC   PO434692  42.356  13.919   9.514
 2481POPC   GL134693  42.242  13.655   9.197
 2481POPC   GL234694  42.561  13.580   9.113
 2481POPC   C1A34695  42.231  13.691   8.750
 2481POPC   D2A34696  42.060  13.711   8.362
 2481POPC   C3A34697  42.307  13.880   8.028
 2481POPC   C4A34698  42.516  13.670   7.744
 2481POPC   C1B34699  42.702  13.463   8.712
 2481POPC   C2B34700  42.580  13.489   8.258
 2481POPC   C3B34701  42.901  13.413   7.946
 2481POPC   C4B34702  42.785  13.321   7.491
 2482POPC   NC334703   5.294   7.954   9.538
 2482POPC   PO434704   4.801   8.510   9.672
 2482POPC   GL134705   4.878   8.206   9.322
 2482POPC   GL234706   5.203   8.338   9.220
 2482POPC   C1A34707   4.896   7.948   8.936
 2482POPC   D2A34708   4.948   8.053   8.517
 2482POPC   C3A34709   5.158   7.933   8.164
 2482POPC   C4A34710   4.981   8.014   7.777
 2482POPC   C1B34711   5.319   8.267   8.812
 2482POPC   C2B34712   5.351   8.461   8.435
 2482POPC   C3B34713   5.551   8.282   8.107
 2482POPC   C4B34714   5.478   8.132   7.718
 2483POPC   NC334715   2.123  17.893   9.575
 2483POPC   PO434716   2.275  17.250   9.464
 2483POPC   GL134717   2.192  17.339   9.046
 2483POPC   GL234718   1.840  17.219   9.102
 2483POPC   C1A34719   2.234  17.365   8.572
 2483POPC   D2A34720   2.461  17.604   8.216
 2483POPC   C3A34721   2.248  17.714   7.803
 2483POPC   C4A34722   2.312  17.624   7.325
 2483POPC   C1B34723   1.810  17.589   8.823
 2483POPC   C2B34724   1.785  17.624   8.391
 2483POPC   C3B34725   1.897  17.400   8.025
 2483POPC   C4B34726   1.782  17.525   7.610
 2484POPC   NC334727  23.403  38.262   9.490
 2484POPC   PO434728  23.815  38.770   9.341
 2484POPC   GL134729  23.799  38.363   9.152
 2484POPC   GL234730  23.484  38.226   8.984
 2484POPC   C1A34731  23.949  38.323   8.743
 2484POPC   D2A34732  23.709  38.320   8.367
 2484POPC   C3A34733  23.851  38.397   7.957
 2484POPC   C4A34734  23.548  38.304   7.646
 2484POPC   C1B34735  23.525  38.608   8.753
 2484POPC   C2B34736  23.433  38.800   8.357
 2484POPC   C3B34737  23.315  38.571   8.000
 2484POPC   C4B34738  23.131  38.655   7.596
 2485POPC   NC334739  25.871  43.916   9.424
 2485POPC   PO434740  26.413  43.575   9.552
 2485POPC   GL134741  26.256  43.752   9.146
 2485POPC   GL234742  26.316  44.102   9.167
 2485POPC   C1A34743  25.970  43.887   8.776
 2485POPC   D2A34744  25.970  44.214   8.421
 2485POPC   C3A34745  25.964  44.105   7.952
 2485POPC   C4A34746  25.908  43.680   7.729
 2485POPC   C1B34747  26.423  44.080   8.695
 2485POPC   C2B34748  26.406  44.050   8.247
 2485POPC   C3B34749  26.453  44.133   7.817
 2485POPC   C4B34750  26.254  43.958   7.483
 2486POPC   NC334751   4.052  13.512   9.503
 2486POPC   PO434752   4.426  14.019   9.540
 2486POPC   GL134753   4.332  13.778   9.184
 2486POPC   GL234754   4.028  13.929   9.143
 2486POPC   C1A34755   4.496  13.742   8.797
 2486POPC   D2A34756   4.426  13.888   8.403
 2486POPC   C3A34757   4.506  13.562   8.188
 2486POPC   C4A34758   4.457  13.471   7.818
 2486POPC   C1B34759   3.970  13.653   8.788
 2486POPC   C2B34760   4.012  13.577   8.353
 2486POPC   C3B34761   4.026  13.720   7.973
 2486POPC   C4B34762   4.040  13.585   7.533
 2487POPC   NC334763   0.031  13.719   9.321
 2487POPC   PO434764  44.663  13.317   9.662
 2487POPC   GL134765  44.578  13.506   9.180
 2487POPC   GL234766  44.678  13.851   9.006
 2487POPC   C1A34767  44.492  13.513   8.702
 2487POPC   D2A34768  44.679  13.487   8.281
 2487POPC   C3A34769  44.424  13.619   7.960
 2487POPC   C4A34770  44.169  13.373   7.752
 2487POPC   C1B34771   0.048  13.998   8.753
 2487POPC   C2B34772   0.188  14.104   8.352
 2487POPC   C3B34773  44.974  13.969   7.983
 2487POPC   C4B34774  44.898  13.553   7.795
 2488POPC   NC334775  31.057  20.079   9.285
 2488POPC   PO434776  30.509  20.046   9.627
 2488POPC   GL134777  30.526  19.932   9.208
 2488POPC   GL234778  30.723  19.659   9.228
 2488POPC   C1A34779  30.650  19.970   8.791
 2488POPC   D2A34780  30.599  19.757   8.433
 2488POPC   C3A34781  30.519  20.046   8.133
 2488POPC   C4A34782  30.596  19.903   7.739
 2488POPC   C1B34783  30.866  19.484   8.859
 2488POPC   C2B34784  30.982  19.404   8.437
 2488POPC   C3B34785  30.863  19.517   8.036
 2488POPC   C4B34786  31.031  19.647   7.651
 2489POPC   NC334787  38.552  28.245   9.663
 2489POPC   PO434788  38.307  28.829   9.518
 2489POPC   GL134789  38.463  28.507   9.177
 2489POPC   GL234790  38.454  28.126   9.177
 2489POPC   C1A34791  38.414  28.393   8.723
 2489POPC   D2A34792  38.487  28.559   8.330
 2489POPC   C3A34793  38.353  28.317   7.978
 2489POPC   C4A34794  38.301  28.419   7.518
 2489POPC   C1B34795  38.722  28.015   8.839
 2489POPC   C2B34796  38.613  28.003   8.400
 2489POPC   C3B34797  38.761  27.924   7.986
 2489POPC   C4B34798  38.664  28.085   7.615
 2490POPC   NC334799   7.497  15.575   9.550
 2490POPC   PO434800   7.481  16.252   9.546
 2490POPC   GL134801   7.444  15.966   9.169
 2490POPC   GL234802   7.150  16.161   9.126
 2490POPC   C1A34803   7.566  15.769   8.719
 2490POPC   D2A34804   7.348  15.663   8.300
 2490POPC   C3A34805   7.515  15.666   7.878
 2490POPC   C4A34806   7.530  15.847   7.460
 2490POPC   C1B34807   7.106  15.971   8.666
 2490POPC   C2B34808   6.922  15.994   8.248
 2490POPC   C3B34809   7.106  15.952   7.827
 2490POPC   C4B34810   7.011  15.951   7.375
 2491POPC   NC334811  21.049  11.363   9.526
 2491POPC   PO434812  20.447  11.375   9.430
 2491POPC   GL134813  20.726  11.404   9.065
 2491POPC   GL234814  20.979  11.662   9.118
 2491POPC   C1A34815  20.660  11.316   8.613
 2491POPC   D2A34816  20.602  11.057   8.260
 2491POPC   C3A34817  20.563  11.259   7.858
 2491POPC   C4A34818  20.304  11.286   7.488
 2491POPC   C1B34819  20.897  11.743   8.698
 2491POPC   C2B34820  20.952  11.591   8.279
 2491POPC   C3B34821  20.840  11.701   7.875
 2491POPC   C4B34822  20.688  11.592   7.472
 2492POPC   NC334823  41.567  42.221   9.703
 2492POPC   PO434824  41.475  42.815   9.513
 2492POPC   GL134825  41.356  42.450   9.296
 2492POPC   GL234826  41.677  42.460   9.152
 2492POPC   C1A34827  41.301  42.359   8.849
 2492POPC   D2A34828  41.459  42.642   8.545
 2492POPC   C3A34829  41.362  42.558   8.147
 2492POPC   C4A34830  41.633  42.389   7.881
 2492POPC   C1B34831  41.855  42.350   8.756
 2492POPC   C2B34832  42.035  42.209   8.399
 2492POPC   C3B34833  41.888  41.985   8.043
 2492POPC   C4B34834  41.988  41.757   7.683
 2493POPC   NC334835  24.011  25.863   9.543
 2493POPC   PO434836  23.503  26.352   9.520
 2493POPC   GL134837  23.717  26.076   9.170
 2493POPC   GL234838  23.949  25.795   9.061
 2493POPC   C1A34839  23.568  25.908   8.762
 2493POPC   D2A34840  23.663  26.057   8.367
 2493POPC   C3A34841  23.577  25.802   8.045
 2493POPC   C4A34842  23.807  25.716   7.668
 2493POPC   C1B34843  24.052  26.108   8.748
 2493POPC   C2B34844  24.188  26.169   8.344
 2493POPC   C3B34845  24.026  26.056   7.981
 2493POPC   C4B34846  24.072  26.187   7.618
 2494POPC   NC334847  44.476   7.964   9.366
 2494POPC   PO434848  44.692   7.342   9.662
 2494POPC   GL134849  44.788   7.507   9.305
 2494POPC   GL234850  44.499   7.478   9.167
 2494POPC   C1A34851  44.924   7.421   8.872
 2494POPC   D2A34852  44.914   7.685   8.477
 2494POPC   C3A34853  44.823   7.449   8.102
 2494POPC   C4A34854  44.721   7.601   7.679
 2494POPC   C1B34855  44.466   7.630   8.748
 2494POPC   C2B34856  44.334   7.485   8.335
 2494POPC   C3B34857  44.265   7.442   7.871
 2494POPC   C4B34858  44.101   7.640   7.441
 2495POPC   NC334859   2.355   8.632   9.562
 2495POPC   PO434860   2.914   8.199   9.693
 2495POPC   GL134861   2.933   8.139   9.106
 2495POPC   GL234862   2.993   8.477   8.909
 2495POPC   C1A34863   2.662   8.127   8.727
 2495POPC   D2A34864   2.517   7.942   8.352
 2495POPC   C3A34865   2.759   7.963   7.997
 2495POPC   C4A34866   2.694   7.956   7.539
 2495POPC   C1B34867   3.121   8.310   8.555
 2495POPC   C2B34868   3.070   8.416   8.126
 2495POPC   C3B34869   2.806   8.409   7.746
 2495POPC   C4B34870   2.893   8.355   7.302
 2496POPC   NC334871  37.048   0.941   9.384
 2496POPC   PO434872  36.552   1.333   9.716
 2496POPC   GL134873  36.487   1.361   9.219
 2496POPC   GL234874  36.857   1.285   9.057
 2496POPC   C1A34875  36.445   1.297   8.789
 2496POPC   D2A34876  36.737   1.170   8.489
 2496POPC   C3A34877  36.698   1.192   8.046
 2496POPC   C4A34878  36.863   1.442   7.691
 2496POPC   C1B34879  37.204   1.209   8.726
 2496POPC   C2B34880  37.372   1.250   8.286
 2496POPC   C3B34881  37.229   1.137   7.860
 2496POPC   C4B34882  36.997   1.002   7.476
 2497POPC   NC334883   8.500   8.657   9.393
 2497POPC   PO434884   7.846   8.850   9.504
 2497POPC   GL134885   8.142   8.971   9.191
 2497POPC   GL234886   8.090   8.706   9.046
 2497POPC   C1A34887   8.263   9.153   8.764
 2497POPC   D2A34888   8.018   9.251   8.407
 2497POPC   C3A34889   8.150   9.063   8.020
 2497POPC   C4A34890   7.937   9.164   7.633
 2497POPC   C1B34891   8.423   8.682   8.752
 2497POPC   C2B34892   8.367   8.486   8.372
 2497POPC   C3B34893   8.419   8.633   7.975
 2497POPC   C4B34894   8.624   8.512   7.616
 2498POPC   NC334895  25.034   6.988   9.435
 2498POPC   PO434896  24.949   7.578   9.468
 2498POPC   GL134897  24.746   7.533   9.118
 2498POPC   GL234898  24.559   7.249   9.188
 2498POPC   C1A34899  24.768   7.569   8.701
 2498POPC   D2A34900  24.685   7.456   8.291
 2498POPC   C3A34901  24.765   7.736   7.950
 2498POPC   C4A34902  24.704   7.561   7.503
 2498POPC   C1B34903  24.295   7.459   8.855
 2498POPC   C2B34904  24.196   7.570   8.410
 2498POPC   C3B34905  24.244   7.749   7.993
 2498POPC   C4B34906  24.174   7.608   7.556
 2499POPC   NC334907   3.426  26.312   9.496
 2499POPC   PO434908   3.299  25.673   9.240
 2499POPC   GL134909   3.590  25.864   9.035
 2499POPC   GL234910   3.478  26.204   9.009
 2499POPC   C1A34911   3.525  25.844   8.602
 2499POPC   D2A34912   3.529  26.118   8.297
 2499POPC   C3A34913   3.470  25.919   7.911
 2499POPC   C4A34914   3.641  26.139   7.556
 2499POPC   C1B34915   3.169  26.205   8.681
 2499POPC   C2B34916   3.031  26.111   8.279
 2499POPC   C3B34917   3.233  26.358   7.938
 2499POPC   C4B34918   3.160  26.392   7.535
 2500POPC   NC334919  23.471   3.815   9.815
 2500POPC   PO434920  22.893   3.820   9.511
 2500POPC   GL134921  22.829   3.669   9.070
 2500POPC   GL234922  22.882   3.298   9.067
 2500POPC   C1A34923  22.991   3.767   8.658
 2500POPC   D2A34924  22.980   3.956   8.256
 2500POPC   C3A34925  23.052   3.650   7.934
 2500POPC   C4A34926  22.874   3.589   7.531
 2500POPC   C1B34927  23.030   3.254   8.661
 2500POPC   C2B34928  22.863   3.280   8.245
 2500POPC   C3B34929  22.904   3.152   7.797
 2500POPC   C4B34930  22.997   3.161   7.295
 2501POPC   NC334931  35.809   3.962   9.959
 2501POPC   PO434932  36.167   3.478   9.622
 2501POPC   GL134933  36.150   3.589   9.195
 2501POPC   GL234934  35.835   3.643   9.062
 2501POPC   C1A34935  36.280   3.389   8.797
 2501POPC   D2A34936  36.452   3.347   8.375
 2501POPC   C3A34937  36.143   3.389   8.034
 2501POPC   C4A34938  35.792   3.124   7.900
 2501POPC   C1B34939  35.902   3.711   8.633
 2501POPC   C2B34940  35.789   3.894   8.230
 2501POPC   C3B34941  35.990   3.865   7.868
 2501POPC   C4B34942  36.414   3.801   7.841
 2502POPC   NC334943  41.732  15.630   9.454
 2502POPC   PO434944  41.356  16.173   9.352
 2502POPC   GL134945  41.637  15.992   9.072
 2502POPC   GL234946  41.466  15.682   9.024
 2502POPC   C1A34947  41.482  15.977   8.609
 2502POPC   D2A34948  41.299  16.023   8.192
 2502POPC   C3A34949  41.590  16.055   7.874
 2502POPC   C4A34950  41.546  16.305   7.480
 2502POPC   C1B34951  41.853  15.647   8.772
 2502POPC   C2B34952  41.771  15.618   8.378
 2502POPC   C3B34953  41.391  15.523   8.229
 2502POPC   C4B34954  41.514  15.548   7.828
 2503POPC   NC334955  36.977   5.631   9.754
 2503POPC   PO434956  36.436   6.004   9.488
 2503POPC   GL134957  36.874   5.945   9.363
 2503POPC   GL234958  36.848   5.578   9.246
 2503POPC   C1A34959  37.197   5.891   9.032
 2503POPC   D2A34960  37.129   5.891   8.586
 2503POPC   C3A34961  37.185   5.742   8.146
 2503POPC   C4A34962  37.296   6.051   7.834
 2503POPC   C1B34963  36.698   5.865   8.903
 2503POPC   C2B34964  36.619   5.993   8.530
 2503POPC   C3B34965  36.646   6.013   8.133
 2503POPC   C4B34966  36.798   5.855   7.807
 2504POPC   NC334967   0.345  21.178   9.492
 2504POPC   PO434968   0.901  21.612   9.548
 2504POPC   GL134969   0.726  21.380   9.185
 2504POPC   GL234970   0.349  21.470   9.079
 2504POPC   C1A34971   0.668  21.281   8.743
 2504POPC   D2A34972   0.316  21.431   8.506
 2504POPC   C3A34973   0.308  21.512   8.082
 2504POPC   C4A34974   0.506  21.280   7.766
 2504POPC   C1B34975  44.991  21.254   8.832
 2504POPC   C2B34976  44.857  21.025   8.431
 2504POPC   C3B34977   0.030  21.077   7.991
 2504POPC   C4B34978   0.165  20.996   7.529
 2505POPC   NC334979  39.941  31.896   9.268
 2505POPC   PO434980  39.850  31.311   9.485
 2505POPC   GL134981  39.845  31.417   9.061
 2505POPC   GL234982  40.199  31.501   8.998
 2505POPC   C1A34983  39.905  31.512   8.599
 2505POPC   D2A34984  40.201  31.291   8.308
 2505POPC   C3A34985  39.908  31.183   7.997
 2505POPC   C4A34986  39.701  31.446   7.711
 2505POPC   C1B34987  40.335  31.803   8.721
 2505POPC   C2B34988  40.256  31.834   8.309
 2505POPC   C3B34989  40.062  31.684   7.971
 2505POPC   C4B34990  40.255  31.657   7.587
 2506POPC   NC334991  18.518  13.625   9.612
 2506POPC   PO434992  17.886  13.443   9.764
 2506POPC   GL134993  18.103  13.568   9.315
 2506POPC   GL234994  18.426  13.376   9.160
 2506POPC   C1A34995  18.199  13.749   8.879
 2506POPC   D2A34996  18.117  13.741   8.424
 2506POPC   C3A34997  18.222  13.837   7.980
 2506POPC   C4A34998  18.002  13.875   7.578
 2506POPC   C1B34999  18.406  13.336   8.678
 2506POPC   C2B35000  18.593  13.566   8.327
 2506POPC   C3B35001  18.531  13.413   7.925
 2506POPC   C4B35002  18.358  13.117   7.586
 2507POPC   NC335003  24.980  17.094   9.365
 2507POPC   PO435004  25.448  16.638   9.522
 2507POPC   GL135005  25.382  16.550   9.077
 2507POPC   GL235006  25.025  16.503   9.029
 2507POPC   C1A35007  25.566  16.601   8.663
 2507POPC   D2A35008  25.272  16.676   8.358
 2507POPC   C3A35009  25.359  16.585   7.931
 2507POPC   C4A35010  25.029  16.389   7.729
 2507POPC   C1B35011  24.778  16.664   8.665
 2507POPC   C2B35012  24.772  16.893   8.285
 2507POPC   C3B35013  25.086  17.028   8.025
 2507POPC   C4B35014  25.126  16.924   7.622
 2508POPC   NC335015  10.436  29.159   9.664
 2508POPC   PO435016  11.043  29.223   9.451
 2508POPC   GL135017  10.701  29.090   9.183
 2508POPC   GL235018  10.370  28.952   9.197
 2508POPC   C1A35019  10.542  29.277   8.810
 2508POPC   D2A35020  10.627  29.424   8.422
 2508POPC   C3A35021  10.648  29.185   8.061
 2508POPC   C4A35022  10.678  29.371   7.649
 2508POPC   C1B35023  10.347  28.803   8.756
 2508POPC   C2B35024  10.238  29.007   8.357
 2508POPC   C3B35025  10.191  29.050   7.893
 2508POPC   C4B35026  10.216  29.204   7.469
 2509POPC   NC335027  37.652  41.152   9.541
 2509POPC   PO435028  37.985  41.602   9.904
 2509POPC   GL135029  38.055  41.491   9.411
 2509POPC   GL235030  37.756  41.552   9.220
 2509POPC   C1A35031  38.125  41.440   8.919
 2509POPC   D2A35032  37.838  41.424   8.538
 2509POPC   C3A35033  37.866  41.482   8.082
 2509POPC   C4A35034  37.777  41.598   7.639
 2509POPC   C1B35035  37.448  41.555   8.832
 2509POPC   C2B35036  37.431  41.792   8.445
 2509POPC   C3B35037  37.362  41.599   8.061
 2509POPC   C4B35038  37.438  41.248   7.798
 2510POPC   NC335039  39.331  44.164   9.368
 2510POPC   PO435040  38.914  44.726   9.664
 2510POPC   GL135041  38.909  44.774   9.183
 2510POPC   GL235042  39.234  44.593   9.102
 2510POPC   C1A35043  39.156  44.997   8.828
 2510POPC   D2A35044  39.283  44.711   8.504
 2510POPC   C3A35045  39.308  44.845   8.115
 2510POPC   C4A35046  39.157  44.656   7.783
 2510POPC   C1B35047  38.976  44.394   8.773
 2510POPC   C2B35048  39.085  44.198   8.356
 2510POPC   C3B35049  39.484  44.324   8.140
 2510POPC   C4B35050  39.604  44.457   7.714
 2511POPC   NC335051  27.484  16.984   9.435
 2511POPC   PO435052  27.455  16.372   9.350
 2511POPC   GL135053  27.780  16.689   9.152
 2511POPC   GL235054  27.962  16.585   8.868
 2511POPC   C1A35055  27.707  17.032   8.814
 2511POPC   D2A35056  27.775  16.897   8.393
 2511POPC   C3A35057  27.485  16.988   8.060
 2511POPC   C4A35058  27.601  17.251   7.710
 2511POPC   C1B35059  27.488  16.579   8.711
 2511POPC   C2B35060  27.282  16.410   8.321
 2511POPC   C3B35061  27.392  16.490   7.890
 2511POPC   C4B35062  27.777  16.678   7.761
 2512POPC   NC335063  37.032  32.083   9.545
 2512POPC   PO435064  36.320  32.356   9.512
 2512POPC   GL135065  36.532  32.121   9.160
 2512POPC   GL235066  36.898  32.221   9.071
 2512POPC   C1A35067  36.591  32.112   8.705
 2512POPC   D2A35068  36.742  32.345   8.338
 2512POPC   C3A35069  36.687  32.153   7.937
 2512POPC   C4A35070  36.697  32.294   7.510
 2512POPC   C1B35071  37.104  32.120   8.628
 2512POPC   C2B35072  37.183  32.141   8.162
 2512POPC   C3B35073  37.157  32.109   7.715
 2512POPC   C4B35074  37.122  31.764   7.433
 2513POPC   NC335075  35.462   7.188   9.599
 2513POPC   PO435076  34.903   7.438   9.451
 2513POPC   GL135077  35.265   7.442   9.158
 2513POPC   GL235078  35.575   7.208   9.106
 2513POPC   C1A35079  35.236   7.294   8.739
 2513POPC   D2A35080  35.016   7.279   8.360
 2513POPC   C3A35081  35.292   7.315   8.001
 2513POPC   C4A35082  35.488   7.463   7.645
 2513POPC   C1B35083  35.766   7.331   8.683
 2513POPC   C2B35084  35.788   7.251   8.210
 2513POPC   C3B35085  35.697   7.000   7.825
 2513POPC   C4B35086  35.712   7.134   7.350
 2514POPC   NC335087  25.814  10.344   9.506
 2514POPC   PO435088  26.450  10.531   9.564
 2514POPC   GL135089  26.221  10.559   9.154
 2514POPC   GL235090  25.872  10.636   9.098
 2514POPC   C1A35091  26.192  10.670   8.696
 2514POPC   D2A35092  26.404  10.678   8.338
 2514POPC   C3A35093  26.111  10.715   8.016
 2514POPC   C4A35094  25.816  10.744   7.641
 2514POPC   C1B35095  25.923  10.268   8.815
 2514POPC   C2B35096  26.047  10.294   8.369
 2514POPC   C3B35097  25.835  10.319   7.979
 2514POPC   C4B35098  25.966  10.265   7.548
 2515POPC   NC335099  18.870  39.039   9.513
 2515POPC   PO435100  19.445  39.421   9.328
 2515POPC   GL135101  19.166  39.174   9.090
 2515POPC   GL235102  18.928  39.401   9.142
 2515POPC   C1A35103  19.187  39.175   8.648
 2515POPC   D2A35104  19.171  39.440   8.289
 2515POPC   C3A35105  19.424  39.296   7.937
 2515POPC   C4A35106  19.410  39.000   7.610
 2515POPC   C1B35107  18.770  39.470   8.768
 2515POPC   C2B35108  18.712  39.204   8.435
 2515POPC   C3B35109  18.853  39.101   8.027
 2515POPC   C4B35110  18.974  39.402   7.726
 2516POPC   NC335111   0.645  36.157   9.532
 2516POPC   PO435112   1.252  36.207   9.447
 2516POPC   GL135113   0.958  36.224   9.089
 2516POPC   GL235114   1.259  36.269   8.898
 2516POPC   C1A35115   0.846  36.481   8.705
 2516POPC   D2A35116   0.753  36.475   8.256
 2516POPC   C3A35117   1.120  36.354   8.013
 2516POPC   C4A35118   1.255  35.946   7.811
 2516POPC   C1B35119   1.438  36.526   8.554
 2516POPC   C2B35120   1.512  36.679   8.122
 2516POPC   C3B35121   1.637  36.318   7.842
 2516POPC   C4B35122   2.021  36.221   7.590
 2517POPC   NC335123  35.625   8.817   9.577
 2517POPC   PO435124  36.245   9.057   9.892
 2517POPC   GL135125  36.125   8.897   9.381
 2517POPC   GL235126  35.825   8.703   9.132
 2517POPC   C1A35127  36.213   8.891   8.895
 2517POPC   D2A35128  35.883   8.970   8.566
 2517POPC   C3A35129  36.037   9.092   8.166
 2517POPC   C4A35130  36.358   9.213   7.859
 2517POPC   C1B35131  35.916   8.478   8.714
 2517POPC   C2B35132  36.168   8.474   8.310
 2517POPC   C3B35133  36.243   8.693   7.917
 2517POPC   C4B35134  36.073   8.680   7.478
 2518POPC   NC335135   1.266  11.539   9.827
 2518POPC   PO435136   1.462  11.033   9.430
 2518POPC   GL135137   1.505  11.170   9.068
 2518POPC   GL235138   1.152  11.217   9.091
 2518POPC   C1A35139   1.436  11.360   8.678
 2518POPC   D2A35140   1.258  11.424   8.291
 2518POPC   C3A35141   1.484  11.312   7.920
 2518POPC   C4A35142   1.502  11.028   7.604
 2518POPC   C1B35143   0.926  11.311   8.757
 2518POPC   C2B35144   0.815  11.109   8.418
 2518POPC   C3B35145   0.849  11.255   8.027
 2518POPC   C4B35146   0.898  11.035   7.675
 2519POPC   NC335147  15.715  21.963   9.658
 2519POPC   PO435148  16.249  22.328   9.656
 2519POPC   GL135149  15.995  22.222   9.260
 2519POPC   GL235150  15.655  22.262   9.238
 2519POPC   C1A35151  15.839  22.437   8.806
 2519POPC   D2A35152  15.662  22.452   8.402
 2519POPC   C3A35153  15.901  22.329   8.055
 2519POPC   C4A35154  15.849  22.354   7.629
 2519POPC   C1B35155  15.829  21.950   8.873
 2519POPC   C2B35156  15.682  21.957   8.451
 2519POPC   C3B35157  15.754  21.826   8.037
 2519POPC   C4B35158  16.036  21.905   7.746
 2520POPC   NC335159  21.439  24.487  10.216
 2520POPC   PO435160  21.408  24.344   9.542
 2520POPC   GL135161  21.416  24.322   9.139
 2520POPC   GL235162  21.299  24.625   9.121
 2520POPC   C1A35163  21.394  24.103   8.760
 2520POPC   D2A35164  21.535  24.077   8.342
 2520POPC   C3A35165  21.190  24.205   8.057
 2520POPC   C4A35166  21.236  24.536   7.760
 2520POPC   C1B35167  21.489  24.622   8.707
 2520POPC   C2B35168  21.293  24.634   8.321
 2520POPC   C3B35169  21.298  24.965   8.047
 2520POPC   C4B35170  21.608  24.888   7.741
 2521POPC   NC335171  17.102  19.984   9.628
 2521POPC   PO435172  16.517  19.709   9.661
 2521POPC   GL135173  16.781  19.710   9.275
 2521POPC   GL235174  16.812  20.052   9.208
 2521POPC   C1A35175  16.670  19.745   8.821
 2521POPC   D2A35176  16.491  19.799   8.419
 2521POPC   C3A35177  16.668  19.771   7.999
 2521POPC   C4A35178  16.527  19.842   7.595
 2521POPC   C1B35179  16.987  20.142   8.803
 2521POPC   C2B35180  16.968  19.965   8.409
 2521POPC   C3B35181  16.965  20.164   8.032
 2521POPC   C4B35182  17.009  20.049   7.600
 2522POPC   NC335183  40.107  41.917   9.448
 2522POPC   PO435184  39.664  41.511   9.481
 2522POPC   GL135185  39.945  41.560   9.116
 2522POPC   GL235186  40.217  41.351   9.130
 2522POPC   C1A35187  40.101  41.697   8.712
 2522POPC   D2A35188  40.187  41.907   8.302
 2522POPC   C3A35189  40.125  41.643   7.957
 2522POPC   C4A35190  40.008  41.761   7.559
 2522POPC   C1B35191  40.259  41.218   8.758
 2522POPC   C2B35192  40.290  41.307   8.350
 2522POPC   C3B35193  40.238  41.137   7.962
 2522POPC   C4B35194  40.114  41.256   7.586
 2523POPC   NC335195  40.177   1.654   9.454
 2523POPC   PO435196  40.018   0.980   9.636
 2523POPC   GL135197  39.809   1.013   9.219
 2523POPC   GL235198  39.620   1.312   9.125
 2523POPC   C1A35199  39.811   0.891   8.804
 2523POPC   D2A35200  40.050   1.018   8.437
 2523POPC   C3A35201  39.827   0.932   8.074
 2523POPC   C4A35202  40.086   0.871   7.752
 2523POPC   C1B35203  39.870   1.477   8.775
 2523POPC   C2B35204  40.130   1.615   8.430
 2523POPC   C3B35205  40.349   1.608   8.042
 2523POPC   C4B35206  40.252   1.359   7.717
 2524POPC   NC335207  18.245   5.414   9.810
 2524POPC   PO435208  18.084   5.982   9.445
 2524POPC   GL135209  18.240   5.988   9.037
 2524POPC   GL235210  18.516   6.175   9.130
 2524POPC   C1A35211  17.999   5.855   8.659
 2524POPC   D2A35212  17.818   6.041   8.291
 2524POPC   C3A35213  18.108   6.012   7.947
 2524POPC   C4A35214  17.980   5.558   7.885
 2524POPC   C1B35215  18.648   6.245   8.693
 2524POPC   C2B35216  18.730   5.932   8.367
 2524POPC   C3B35217  18.465   5.674   8.090
 2524POPC   C4B35218  18.390   5.703   7.639
 2525POPC   NC335219  33.607   9.101   9.563
 2525POPC   PO435220  33.637   8.420   9.487
 2525POPC   GL135221  33.764   8.798   9.193
 2525POPC   GL235222  33.919   9.125   9.175
 2525POPC   C1A35223  33.564   8.981   8.824
 2525POPC   D2A35224  33.527   8.795   8.423
 2525POPC   C3A35225  33.580   9.054   8.090
 2525POPC   C4A35226  33.537   8.827   7.710
 2525POPC   C1B35227  34.120   9.196   8.817
 2525POPC   C2B35228  34.028   8.983   8.471
 2525POPC   C3B35229  34.136   9.139   8.101
 2525POPC   C4B35230  33.988   9.068   7.715
 2526POPC   NC335231  10.813  24.144   9.454
 2526POPC   PO435232  10.273  23.746   9.468
 2526POPC   GL135233  10.393  23.538   9.103
 2526POPC   GL235234  10.701  23.708   9.152
 2526POPC   C1A35235  10.504  23.605   8.663
 2526POPC   D2A35236  10.395  23.934   8.351
 2526POPC   C3A35237  10.329  23.785   7.958
 2526POPC   C4A35238  10.479  23.432   7.786
 2526POPC   C1B35239  10.916  23.922   8.837
 2526POPC   C2B35240  10.902  23.878   8.433
 2526POPC   C3B35241  10.817  23.685   8.063
 2526POPC   C4B35242  10.739  23.835   7.628
 2527POPC   NC335243  10.169  12.154   9.660
 2527POPC   PO435244   9.605  11.777   9.799
 2527POPC   GL135245   9.782  11.949   9.375
 2527POPC   GL235246   9.877  11.690   9.130
 2527POPC   C1A35247   9.865  12.166   8.934
 2527POPC   D2A35248  10.042  12.025   8.499
 2527POPC   C3A35249   9.911  12.126   8.049
 2527POPC   C4A35250   9.539  12.267   7.788
 2527POPC   C1B35251   9.607  11.776   8.717
 2527POPC   C2B35252   9.458  11.937   8.287
 2527POPC   C3B35253   9.448  11.760   7.856
 2527POPC   C4B35254   9.564  11.572   7.464
 2528POPC   NC335255  36.468  28.780   9.547
 2528POPC   PO435256  35.900  29.077   9.606
 2528POPC   GL135257  36.041  28.878   9.204
 2528POPC   GL235258  36.198  28.548   9.179
 2528POPC   C1A35259  35.905  28.895   8.787
 2528POPC   D2A35260  35.892  29.206   8.474
 2528POPC   C3A35261  35.893  29.033   8.079
 2528POPC   C4A35262  36.193  29.202   7.824
 2528POPC   C1B35263  36.418  28.623   8.824
 2528POPC   C2B35264  36.266  28.779   8.441
 2528POPC   C3B35265  36.212  28.636   8.053
 2528POPC   C4B35266  36.315  28.728   7.664
 2529POPC   NC335267  38.404  41.687   9.757
 2529POPC   PO435268  38.976  41.369   9.629
 2529POPC   GL135269  38.631  41.369   9.270
 2529POPC   GL235270  38.485  41.715   9.208
 2529POPC   C1A35271  38.613  41.393   8.788
 2529POPC   D2A35272  38.796  41.669   8.478
 2529POPC   C3A35273  38.710  41.571   8.052
 2529POPC   C4A35274  38.382  41.485   7.730
 2529POPC   C1B35275  38.383  41.870   8.763
 2529POPC   C2B35276  38.277  41.712   8.337
 2529POPC   C3B35277  38.132  41.883   7.922
 2529POPC   C4B35278  38.150  41.964   7.491
 2530POPC   NC335279  37.154  24.696   9.312
 2530POPC   PO435280  36.857  24.256   9.764
 2530POPC   GL135281  36.744  24.315   9.286
 2530POPC   GL235282  36.916  24.064   9.103
 2530POPC   C1A35283  36.763  24.483   8.826
 2530POPC   D2A35284  37.111  24.503   8.485
 2530POPC   C3A35285  37.003  24.679   8.085
 2530POPC   C4A35286  36.663  24.656   7.816
 2530POPC   C1B35287  36.627  23.984   8.743
 2530POPC   C2B35288  36.530  24.000   8.280
 2530POPC   C3B35289  36.788  24.161   7.936
 2530POPC   C4B35290  36.693  24.248   7.464
 2531POPC   NC335291  15.248  21.204   9.691
 2531POPC   PO435292  15.243  20.589   9.416
 2531POPC   GL135293  14.962  20.489   9.109
 2531POPC   GL235294  14.869  20.822   9.105
 2531POPC   C1A35295  14.836  20.344   8.729
 2531POPC   D2A35296  15.024  20.480   8.349
 2531POPC   C3A35297  14.978  20.306   7.952
 2531POPC   C4A35298  15.383  20.349   7.780
 2531POPC   C1B35299  14.969  20.857   8.701
 2531POPC   C2B35300  14.727  21.053   8.381
 2531POPC   C3B35301  14.893  20.867   8.048
 2531POPC   C4B35302  15.120  20.771   7.738
 2532POPC   NC335303  41.344  10.268   9.425
 2532POPC   PO435304  41.965  10.570   9.452
 2532POPC   GL135305  41.610  10.582   9.103
 2532POPC   GL235306  41.251  10.701   9.090
 2532POPC   C1A35307  41.777  10.556   8.678
 2532POPC   D2A35308  41.918  10.667   8.275
 2532POPC   C3A35309  41.643  10.406   8.049
 2532POPC   C4A35310  41.550  10.229   7.680
 2532POPC   C1B35311  41.089  10.981   8.730
 2532POPC   C2B35312  41.202  11.081   8.287
 2532POPC   C3B35313  41.477  10.905   7.998
 2532POPC   C4B35314  41.337  10.827   7.576
 2533POPC   NC335315  41.006  12.113   9.534
 2533POPC   PO435316  40.627  12.630   9.497
 2533POPC   GL135317  40.764  12.398   9.115
 2533POPC   GL235318  41.117  12.400   9.073
 2533POPC   C1A35319  40.689  12.040   8.807
 2533POPC   D2A35320  40.502  11.790   8.451
 2533POPC   C3A35321  40.499  11.985   8.035
 2533POPC   C4A35322  40.797  11.923   7.703
 2533POPC   C1B35323  41.034  12.393   8.635
 2533POPC   C2B35324  40.881  12.314   8.256
 2533POPC   C3B35325  41.123  12.277   7.894
 2533POPC   C4B35326  41.003  12.347   7.458
 2534POPC   NC335327  19.566  14.112   9.271
 2534POPC   PO435328  19.845  14.778   9.501
 2534POPC   GL135329  19.849  14.583   9.111
 2534POPC   GL235330  20.031  14.288   9.152
 2534POPC   C1A35331  19.702  14.446   8.688
 2534POPC   D2A35332  19.497  14.416   8.244
 2534POPC   C3A35333  19.627  14.521   7.826
 2534POPC   C4A35334  20.041  14.396   7.699
 2534POPC   C1B35335  20.082  14.006   8.796
 2534POPC   C2B35336  19.891  14.050   8.378
 2534POPC   C3B35337  19.759  14.049   7.959
 2534POPC   C4B35338  19.800  14.011   7.514
 2535POPC   NC335339  27.536  30.361   9.485
 2535POPC   PO435340  27.925  30.904   9.181
 2535POPC   GL135341  27.527  30.740   9.089
 2535POPC   GL235342  27.582  30.425   8.980
 2535POPC   C1A35343  27.322  30.696   8.648
 2535POPC   D2A35344  27.605  30.920   8.356
 2535POPC   C3A35345  27.658  30.703   7.985
 2535POPC   C4A35346  27.406  30.761   7.628
 2535POPC   C1B35347  27.851  30.529   8.633
 2535POPC   C2B35348  28.074  30.454   8.240
 2535POPC   C3B35349  28.089  30.406   7.794
 2535POPC   C4B35350  28.189  30.447   7.334
 2536POPC   NC335351  27.881   5.613   9.610
 2536POPC   PO435352  27.505   5.972   9.183
 2536POPC   GL135353  27.615   5.654   8.957
 2536POPC   GL235354  27.932   5.647   9.084
 2536POPC   C1A35355  27.608   5.631   8.527
 2536POPC   D2A35356  27.527   6.028   8.350
 2536POPC   C3A35357  27.334   5.980   7.950
 2536POPC   C4A35358  27.457   5.682   7.598
 2536POPC   C1B35359  28.018   5.879   8.709
 2536POPC   C2B35360  28.013   5.860   8.269
 2536POPC   C3B35361  27.842   5.904   7.872
 2536POPC   C4B35362  27.926   5.824   7.412
 2537POPC   NC335363   1.024  16.562   9.542
 2537POPC   PO435364   1.517  17.025   9.489
 2537POPC   GL135365   1.396  16.833   9.112
 2537POPC   GL235366   1.027  16.897   9.094
 2537POPC   C1A35367   1.307  16.767   8.667
 2537POPC   D2A35368   1.061  16.899   8.345
 2537POPC   C3A35369   1.345  16.846   8.007
 2537POPC   C4A35370   1.558  16.519   7.770
 2537POPC   C1B35371   1.023  16.439   8.919
 2537POPC   C2B35372   0.931  16.342   8.486
 2537POPC   C3B35373   1.069  16.420   8.084
 2537POPC   C4B35374   1.001  16.627   7.703
 2538POPC   NC335375   9.378  20.769   9.882
 2538POPC   PO435376  10.003  20.935   9.425
 2538POPC   GL135377  10.009  20.721   9.061
 2538POPC   GL235378   9.684  20.679   8.949
 2538POPC   C1A35379  10.028  20.555   8.631
 2538POPC   D2A35380   9.732  20.649   8.318
 2538POPC   C3A35381   9.842  20.646   7.912
 2538POPC   C4A35382   9.823  21.010   7.633
 2538POPC   C1B35383   9.404  20.455   8.654
 2538POPC   C2B35384   9.243  20.477   8.236
 2538POPC   C3B35385   9.349  20.456   7.804
 2538POPC   C4B35386   9.265  20.329   7.366
 2539POPC   NC335387  29.907  37.673   9.813
 2539POPC   PO435388  29.340  37.526   9.445
 2539POPC   GL135389  29.695  37.602   9.185
 2539POPC   GL235390  29.515  37.502   8.943
 2539POPC   C1A35391  30.013  37.553   8.790
 2539POPC   D2A35392  30.351  37.637   8.437
 2539POPC   C3A35393  30.304  37.681   7.994
 2539POPC   C4A35394  29.994  37.524   7.747
 2539POPC   C1B35395  29.507  37.635   8.533
 2539POPC   C2B35396  29.444  37.647   8.078
 2539POPC   C3B35397  29.513  37.673   7.634
 2539POPC   C4B35398  29.459  37.862   7.228
 2540POPC   NC335399  44.303   7.052   9.535
 2540POPC   PO435400  44.081   7.699   9.441
 2540POPC   GL135401  43.992   7.529   9.074
 2540POPC   GL235402  44.100   7.181   9.064
 2540POPC   C1A35403  43.968   7.614   8.669
 2540POPC   D2A35404  43.730   7.509   8.314
 2540POPC   C3A35405  43.796   7.646   7.878
 2540POPC   C4A35406  43.579   7.553   7.480
 2540POPC   C1B35407  44.004   7.117   8.622
 2540POPC   C2B35408  44.019   7.094   8.173
 2540POPC   C3B35409  43.730   6.954   7.847
 2540POPC   C4B35410  43.468   6.956   7.453
 2541POPC   NC335411   1.719  24.441   9.407
 2541POPC   PO435412   1.107  24.250   9.459
 2541POPC   GL135413   1.310  24.427   9.117
 2541POPC   GL235414   1.276  24.748   9.268
 2541POPC   C1A35415   1.506  24.390   8.698
 2541POPC   D2A35416   1.396  24.115   8.354
 2541POPC   C3A35417   1.036  24.293   8.279
 2541POPC   C4A35418   0.991  24.618   7.944
 2541POPC   C1B35419   1.230  24.817   8.813
 2541POPC   C2B35420   1.252  24.738   8.393
 2541POPC   C3B35421   1.494  24.556   8.097
 2541POPC   C4B35422   1.535  24.546   7.688
 2542POPC   NC335423  34.033  18.201   9.452
 2542POPC   PO435424  33.486  18.489   9.725
 2542POPC   GL135425  33.605  18.293   9.245
 2542POPC   GL235426  33.800  18.534   9.112
 2542POPC   C1A35427  33.561  18.182   8.786
 2542POPC   D2A35428  33.401  18.081   8.356
 2542POPC   C3A35429  33.685  18.257   7.992
 2542POPC   C4A35430  33.612  18.449   7.577
 2542POPC   C1B35431  34.051  18.368   8.773
 2542POPC   C2B35432  34.040  18.424   8.329
 2542POPC   C3B35433  34.181  18.398   7.899
 2542POPC   C4B35434  34.053  18.184   7.545
 2543POPC   NC335435   0.382  41.220   9.381
 2543POPC   PO435436   0.415  41.865   9.503
 2543POPC   GL135437   0.636  41.784   9.114
 2543POPC   GL235438   0.379  41.554   9.009
 2543POPC   C1A35439   0.740  41.703   8.667
 2543POPC   D2A35440   0.625  41.382   8.342
 2543POPC   C3A35441   0.575  41.480   7.891
 2543POPC   C4A35442   0.692  41.815   7.573
 2543POPC   C1B35443   0.214  41.305   8.647
 2543POPC   C2B35444   0.127  41.410   8.194
 2543POPC   C3B35445   0.086  41.330   7.739
 2543POPC   C4B35446   0.157  41.206   7.282
 2544POPC   NC335447  43.720   7.980   9.483
 2544POPC   PO435448  44.278   8.246   9.771
 2544POPC   GL135449  44.061   8.327   9.295
 2544POPC   GL235450  44.042   8.058   9.080
 2544POPC   C1A35451  43.901   8.492   8.836
 2544POPC   D2A35452  43.822   8.343   8.397
 2544POPC   C3A35453  43.591   8.506   8.045
 2544POPC   C4A35454  43.684   8.665   7.618
 2544POPC   C1B35455  44.167   8.070   8.673
 2544POPC   C2B35456  44.064   7.917   8.262
 2544POPC   C3B35457  43.940   8.150   7.930
 2544POPC   C4B35458  43.976   8.196   7.511
 2545POPC   NC335459  29.004  36.026   9.518
 2545POPC   PO435460  29.638  35.971   9.474
 2545POPC   GL135461  29.333  35.874   9.120
 2545POPC   GL235462  28.935  35.835   9.049
 2545POPC   C1A35463  29.249  36.063   8.712
 2545POPC   D2A35464  29.267  36.374   8.384
 2545POPC   C3A35465  29.326  36.243   7.932
 2545POPC   C4A35466  29.223  36.318   7.469
 2545POPC   C1B35467  28.803  36.266   8.894
 2545POPC   C2B35468  28.668  36.456   8.506
 2545POPC   C3B35469  28.840  36.339   8.110
 2545POPC   C4B35470  28.647  36.219   7.735
 2546POPC   NC335471   0.344  19.431   9.325
 2546POPC   PO435472  44.921  18.789   9.451
 2546POPC   GL135473   0.128  18.907   9.058
 2546POPC   GL235474   0.481  18.984   9.098
 2546POPC   C1A35475   0.278  19.203   8.711
 2546POPC   D2A35476   0.319  19.399   8.346
 2546POPC   C3A35477   0.350  19.039   8.134
 2546POPC   C4A35478   0.269  19.112   7.745
 2546POPC   C1B35479   0.757  19.280   8.804
 2546POPC   C2B35480   0.799  19.189   8.354
 2546POPC   C3B35481   0.732  19.289   7.932
 2546POPC   C4B35482   0.736  19.312   7.500
 2547POPC   NC335483   8.769  27.758   9.577
 2547POPC   PO435484   9.341  27.527   9.716
 2547POPC   GL135485   9.039  27.407   9.334
 2547POPC   GL235486   8.770  27.618   9.098
 2547POPC   C1A35487   9.150  27.397   8.881
 2547POPC   D2A35488   9.296  27.563   8.507
 2547POPC   C3A35489   9.003  27.456   8.178
 2547POPC   C4A35490   9.128  27.469   7.748
 2547POPC   C1B35491   8.717  27.935   8.760
 2547POPC   C2B35492   8.760  27.910   8.317
 2547POPC   C3B35493   8.849  27.899   7.911
 2547POPC   C4B35494   8.862  27.831   7.481
 2548POPC   NC335495  26.407  39.729   9.468
 2548POPC   PO435496  25.824  40.056   9.682
 2548POPC   GL135497  25.962  39.965   9.241
 2548POPC   GL235498  26.156  39.726   9.014
 2548POPC   C1A35499  25.914  40.162   8.840
 2548POPC   D2A35500  26.000  40.199   8.386
 2548POPC   C3A35501  25.771  39.884   8.132
 2548POPC   C4A35502  25.712  39.931   7.686
 2548POPC   C1B35503  26.386  39.985   8.670
 2548POPC   C2B35504  26.447  39.983   8.226
 2548POPC   C3B35505  26.192  39.937   7.825
 2548POPC   C4B35506  26.133  40.230   7.454
 2549POPC   NC335507  30.272  33.550   9.499
 2549POPC   PO435508  29.748  34.026   9.510
 2549POPC   GL135509  30.027  33.927   9.207
 2549POPC   GL235510  29.870  33.625   9.154
 2549POPC   C1A35511  30.040  34.088   8.792
 2549POPC   D2A35512  29.844  34.021   8.396
 2549POPC   C3A35513  30.093  33.961   8.052
 2549POPC   C4A35514  30.109  34.116   7.667
 2549POPC   C1B35515  29.833  33.398   8.796
 2549POPC   C2B35516  29.901  33.495   8.375
 2549POPC   C3B35517  30.062  33.430   7.991
 2549POPC   C4B35518  30.068  33.370   7.586
 2550POPC   NC335519   5.241   2.787   9.577
 2550POPC   PO435520   4.801   2.428   9.839
 2550POPC   GL135521   5.005   2.437   9.321
 2550POPC   GL235522   4.996   2.821   9.137
 2550POPC   C1A35523   4.979   2.435   8.842
 2550POPC   D2A35524   4.738   2.703   8.585
 2550POPC   C3A35525   4.949   2.780   8.190
 2550POPC   C4A35526   5.214   2.490   7.909
 2550POPC   C1B35527   5.228   2.854   8.700
 2550POPC   C2B35528   5.382   3.054   8.276
 2550POPC   C3B35529   5.256   2.998   7.813
 2550POPC   C4B35530   5.309   3.168   7.340
 2551POPC   NC335531  39.506  32.513   9.535
 2551POPC   PO435532  39.396  31.838   9.644
 2551POPC   GL135533  39.264  32.139   9.279
 2551POPC   GL235534  39.590  32.232   9.124
 2551POPC   C1A35535  39.185  32.330   8.848
 2551POPC   D2A35536  39.188  32.115   8.464
 2551POPC   C3A35537  39.156  32.247   8.052
 2551POPC   C4A35538  39.089  32.492   7.699
 2551POPC   C1B35539  39.454  31.887   8.843
 2551POPC   C2B35540  39.455  31.702   8.421
 2551POPC   C3B35541  39.497  31.836   7.997
 2551POPC   C4B35542  39.674  32.021   7.641
 2552POPC   NC335543  40.355  24.852   9.559
 2552POPC   PO435544  40.953  24.492   9.460
 2552POPC   GL135545  40.645  24.622   9.208
 2552POPC   GL235546  40.660  24.345   9.018
 2552POPC   C1A35547  40.697  24.808   8.825
 2552POPC   D2A35548  40.835  24.592   8.461
 2552POPC   C3A35549  40.535  24.488   8.120
 2552POPC   C4A35550  40.741  24.395   7.725
 2552POPC   C1B35551  40.560  24.182   8.633
 2552POPC   C2B35552  40.828  24.097   8.281
 2552POPC   C3B35553  40.992  23.967   7.899
 2552POPC   C4B35554  40.827  23.945   7.494
 2553POPC   NC335555  22.359  17.077   9.436
 2553POPC   PO435556  21.912  17.530   9.747
 2553POPC   GL135557  22.118  17.530   9.275
 2553POPC   GL235558  22.401  17.727   9.212
 2553POPC   C1A35559  22.060  17.421   8.787
 2553POPC   D2A35560  21.967  17.577   8.316
 2553POPC   C3A35561  21.979  17.354   7.885
 2553POPC   C4A35562  21.946  17.506   7.428
 2553POPC   C1B35563  22.547  17.591   8.819
 2553POPC   C2B35564  22.424  17.406   8.430
 2553POPC   C3B35565  22.483  17.502   8.003
 2553POPC   C4B35566  22.414  17.451   7.568
 2554POPC   NC335567  11.098  28.765   9.361
 2554POPC   PO435568  11.537  29.266   9.705
 2554POPC   GL135569  11.438  29.416   9.198
 2554POPC   GL235570  11.051  29.432   8.988
 2554POPC   C1A35571  11.435  29.250   8.762
 2554POPC   D2A35572  11.151  29.284   8.386
 2554POPC   C3A35573  11.405  29.443   8.084
 2554POPC   C4A35574  11.630  29.228   7.769
 2554POPC   C1B35575  10.960  28.993   8.759
 2554POPC   C2B35576  10.807  28.790   8.371
 2554POPC   C3B35577  10.948  28.762   7.957
 2554POPC   C4B35578  11.107  29.127   7.832
 2555POPC   NC335579  11.880   7.247   9.321
 2555POPC   PO435580  12.365   7.667   9.414
 2555POPC   GL135581  12.191   7.592   9.041
 2555POPC   GL235582  11.886   7.757   9.043
 2555POPC   C1A35583  12.330   7.415   8.644
 2555POPC   D2A35584  12.317   7.137   8.305
 2555POPC   C3A35585  12.420   7.325   7.974
 2555POPC   C4A35586  12.254   7.399   7.594
 2555POPC   C1B35587  11.843   7.564   8.659
 2555POPC   C2B35588  11.985   7.519   8.230
 2555POPC   C3B35589  11.925   7.189   7.925
 2555POPC   C4B35590  11.842   7.163   7.452
 2556POPC   NC335591  19.673  42.894   9.432
 2556POPC   PO435592  20.381  43.050   9.499
 2556POPC   GL135593  20.003  43.112   9.142
 2556POPC   GL235594  19.811  42.847   8.933
 2556POPC   C1A35595  19.729  43.323   8.807
 2556POPC   D2A35596  19.790  43.498   8.398
 2556POPC   C3A35597  19.981  43.199   8.135
 2556POPC   C4A35598  19.859  42.888   7.838
 2556POPC   C1B35599  19.439  42.898   8.730
 2556POPC   C2B35600  19.499  43.056   8.322
 2556POPC   C3B35601  19.357  42.915   7.915
 2556POPC   C4B35602  19.530  42.905   7.463
 2557POPC   NC335603  12.559  39.939  10.020
 2557POPC   PO435604  12.889  39.996   9.550
 2557POPC   GL135605  12.753  39.981   9.113
 2557POPC   GL235606  12.982  39.724   9.034
 2557POPC   C1A35607  12.797  40.068   8.634
 2557POPC   D2A35608  12.684  40.172   8.181
 2557POPC   C3A35609  12.971  40.035   7.842
 2557POPC   C4A35610  13.322  40.107   7.529
 2557POPC   C1B35611  12.610  39.626   8.776
 2557POPC   C2B35612  12.481  39.732   8.348
 2557POPC   C3B35613  12.490  39.772   7.894
 2557POPC   C4B35614  12.737  39.713   7.510
 2558POPC   NC335615  21.662  22.638   9.938
 2558POPC   PO435616  22.095  22.952   9.492
 2558POPC   GL135617  22.223  22.813   9.097
 2558POPC   GL235618  22.334  22.447   9.158
 2558POPC   C1A35619  22.108  22.974   8.689
 2558POPC   D2A35620  21.900  23.019   8.289
 2558POPC   C3A35621  22.157  23.076   7.912
 2558POPC   C4A35622  22.185  23.193   7.470
 2558POPC   C1B35623  22.456  22.570   8.724
 2558POPC   C2B35624  22.379  22.756   8.322
 2558POPC   C3B35625  22.489  22.663   7.939
 2558POPC   C4B35626  22.280  22.674   7.575
 2559POPC   NC335627  33.171  22.336   9.541
 2559POPC   PO435628  32.872  21.789   9.428
 2559POPC   GL135629  32.913  22.114   9.150
 2559POPC   GL235630  33.299  22.189   9.079
 2559POPC   C1A35631  32.944  22.048   8.746
 2559POPC   D2A35632  33.259  21.961   8.502
 2559POPC   C3A35633  33.056  21.877   8.154
 2559POPC   C4A35634  33.102  21.919   7.745
 2559POPC   C1B35635  33.253  22.446   8.700
 2559POPC   C2B35636  32.986  22.373   8.340
 2559POPC   C3B35637  33.104  22.388   7.914
 2559POPC   C4B35638  33.432  22.475   7.635
 2560POPC   NC335639  39.027  39.882   9.300
 2560POPC   PO435640  38.624  40.363   9.651
 2560POPC   GL135641  38.549  40.107   9.323
 2560POPC   GL235642  38.759  40.275   9.081
 2560POPC   C1A35643  38.295  39.985   8.963
 2560POPC   D2A35644  38.282  39.842   8.526
 2560POPC   C3A35645  38.447  40.084   8.201
 2560POPC   C4A35646  38.304  40.065   7.784
 2560POPC   C1B35647  38.746  40.002   8.688
 2560POPC   C2B35648  38.761  39.689   8.338
 2560POPC   C3B35649  38.658  39.690   7.862
 2560POPC   C4B35650  38.776  39.503   7.439
 2561POPC   NC335651  44.671  34.647   9.542
 2561POPC   PO435652  44.850  34.102   9.938
 2561POPC   GL135653  44.514  34.236   9.319
 2561POPC   GL235654  44.471  34.598   9.109
 2561POPC   C1A35655  44.663  34.291   8.795
 2561POPC   D2A35656  44.797  34.281   8.360
 2561POPC   C3A35657  44.802  34.599   8.159
 2561POPC   C4A35658  44.469  34.610   7.912
 2561POPC   C1B35659  44.622  34.854   8.800
 2561POPC   C2B35660  44.547  35.062   8.416
 2561POPC   C3B35661  44.629  35.067   8.010
 2561POPC   C4B35662  44.877  34.841   7.708
 2562POPC   NC335663  34.262  43.391   9.375
 2562POPC   PO435664  33.866  42.970   9.771
 2562POPC   GL135665  33.845  43.082   9.292
 2562POPC   GL235666  33.764  42.797   9.110
 2562POPC   C1A35667  33.946  43.250   8.823
 2562POPC   D2A35668  33.906  43.102   8.376
 2562POPC   C3A35669  33.771  43.349   8.015
 2562POPC   C4A35670  33.951  43.296   7.607
 2562POPC   C1B35671  33.572  42.921   8.746
 2562POPC   C2B35672  33.470  42.798   8.344
 2562POPC   C3B35673  33.684  42.829   7.974
 2562POPC   C4B35674  33.549  43.001   7.596
 2563POPC   NC335675  15.130  24.345   9.461
 2563POPC   PO435676  14.770  24.838   9.402
 2563POPC   GL135677  15.035  24.718   9.025
 2563POPC   GL235678  15.049  24.366   8.968
 2563POPC   C1A35679  15.028  24.669   8.551
 2563POPC   D2A35680  15.344  24.649   8.226
 2563POPC   C3A35681  15.211  24.568   7.833
 2563POPC   C4A35682  15.013  24.421   7.453
 2563POPC   C1B35683  15.125  24.035   8.630
 2563POPC   C2B35684  15.051  24.203   8.229
 2563POPC   C3B35685  14.756  24.500   8.093
 2563POPC   C4B35686  14.726  24.770   7.742
 2564POPC   NC335687  18.337   6.377   9.554
 2564POPC   PO435688  17.690   6.536   9.616
 2564POPC   GL135689  17.991   6.649   9.280
 2564POPC   GL235690  18.256   6.888   9.276
 2564POPC   C1A35691  18.256   6.533   8.911
 2564POPC   D2A35692  18.135   6.348   8.541
 2564POPC   C3A35693  18.429   6.363   8.209
 2564POPC   C4A35694  18.375   6.487   7.781
 2564POPC   C1B35695  18.153   7.018   8.847
 2564POPC   C2B35696  18.310   6.826   8.480
 2564POPC   C3B35697  18.155   6.807   8.101
 2564POPC   C4B35698  18.118   6.978   7.720
 2565POPC   NC335699  37.956  16.976   9.574
 2565POPC   PO435700  37.493  16.541   9.307
 2565POPC   GL135701  37.775  16.764   9.082
 2565POPC   GL235702  37.633  17.054   9.173
 2565POPC   C1A35703  37.710  16.717   8.649
 2565POPC   D2A35704  37.714  16.657   8.229
 2565POPC   C3A35705  37.355  16.782   7.966
 2565POPC   C4A35706  37.496  16.712   7.535
 2565POPC   C1B35707  37.407  17.100   8.800
 2565POPC   C2B35708  37.505  17.125   8.347
 2565POPC   C3B35709  37.729  17.093   7.935
 2565POPC   C4B35710  37.880  17.105   7.505
 2566POPC   NC335711  43.468  40.628   9.336
 2566POPC   PO435712  42.762  40.979   9.408
 2566POPC   GL135713  42.945  40.655   9.184
 2566POPC   GL235714  43.163  40.923   9.057
 2566POPC   C1A35715  42.989  40.569   8.747
 2566POPC   D2A35716  42.732  40.765   8.442
 2566POPC   C3A35717  42.879  40.702   8.065
 2566POPC   C4A35718  42.952  41.025   7.772
 2566POPC   C1B35719  43.410  40.859   8.676
 2566POPC   C2B35720  43.367  40.750   8.242
 2566POPC   C3B35721  43.456  41.030   7.917
 2566POPC   C4B35722  43.378  41.061   7.499
 2567POPC   NC335723   8.015   3.696   9.494
 2567POPC   PO435724   8.611   4.102   9.462
 2567POPC   GL135725   8.358   3.822   9.151
 2567POPC   GL235726   8.520   3.559   8.944
 2567POPC   C1A35727   8.143   3.859   8.750
 2567POPC   D2A35728   8.425   3.683   8.437
 2567POPC   C3A35729   8.387   3.783   8.015
 2567POPC   C4A35730   8.085   3.711   7.708
 2567POPC   C1B35731   8.251   3.286   8.699
 2567POPC   C2B35732   8.021   3.109   8.365
 2567POPC   C3B35733   8.126   3.213   7.966
 2567POPC   C4B35734   8.233   3.195   7.561
 2568POPC   NC335735  31.032  33.325   9.335
 2568POPC   PO435736  30.621  33.882   9.489
 2568POPC   GL135737  30.831  33.777   9.154
 2568POPC   GL235738  30.604  33.536   9.100
 2568POPC   C1A35739  30.955  33.658   8.743
 2568POPC   D2A35740  31.112  33.405   8.424
 2568POPC   C3A35741  31.038  33.628   8.066
 2568POPC   C4A35742  30.960  33.859   7.712
 2568POPC   C1B35743  30.288  33.634   8.846
 2568POPC   C2B35744  30.322  33.770   8.472
 2568POPC   C3B35745  30.515  33.638   8.142
 2568POPC   C4B35746  30.429  33.716   7.699
 2569POPC   NC335747  33.989  24.399   9.781
 2569POPC   PO435748  33.912  24.631   9.208
 2569POPC   GL135749  33.663  24.730   8.940
 2569POPC   GL235750  33.346  24.842   9.063
 2569POPC   C1A35751  33.832  24.908   8.600
 2569POPC   D2A35752  33.755  24.822   8.205
 2569POPC   C3A35753  33.885  24.472   7.997
 2569POPC   C4A35754  33.967  24.428   7.591
 2569POPC   C1B35755  33.319  24.804   8.579
 2569POPC   C2B35756  33.274  24.939   8.155
 2569POPC   C3B35757  33.487  24.807   7.778
 2569POPC   C4B35758  33.450  24.418   7.566
 2570POPC   NC335759  40.205  25.522   9.187
 2570POPC   PO435760  39.937  26.183   9.446
 2570POPC   GL135761  40.138  26.001   9.063
 2570POPC   GL235762  39.888  25.718   8.843
 2570POPC   C1A35763  40.288  25.927   8.634
 2570POPC   D2A35764  39.992  25.819   8.292
 2570POPC   C3A35765  40.167  25.944   7.896
 2570POPC   C4A35766  40.262  26.388   7.850
 2570POPC   C1B35767  39.815  26.167   8.717
 2570POPC   C2B35768  39.742  26.422   8.353
 2570POPC   C3B35769  39.771  26.282   7.925
 2570POPC   C4B35770  39.705  25.906   7.640
 2571POPC   NC335771  10.661  40.828   9.522
 2571POPC   PO435772   9.985  40.731   9.555
 2571POPC   GL135773  10.287  40.630   9.203
 2571POPC   GL235774  10.651  40.543   9.117
 2571POPC   C1A35775  10.295  40.742   8.791
 2571POPC   D2A35776  10.209  41.048   8.524
 2571POPC   C3A35777  10.358  40.934   8.122
 2571POPC   C4A35778  10.505  40.660   7.797
 2571POPC   C1B35779  10.797  40.659   8.734
 2571POPC   C2B35780  10.871  40.743   8.292
 2571POPC   C3B35781  10.837  41.009   7.934
 2571POPC   C4B35782  10.749  40.968   7.470
 2572POPC   NC335783  30.162  30.463   9.445
 2572POPC   PO435784  29.486  30.392   9.444
 2572POPC   GL135785  29.604  30.630   9.088
 2572POPC   GL235786  29.976  30.732   9.026
 2572POPC   C1A35787  29.684  30.536   8.661
 2572POPC   D2A35788  30.014  30.737   8.451
 2572POPC   C3A35789  29.925  30.659   8.024
 2572POPC   C4A35790  29.555  30.543   7.700
 2572POPC   C1B35791  30.186  31.079   8.794
 2572POPC   C2B35792  30.122  31.321   8.421
 2572POPC   C3B35793  30.012  31.183   8.021
 2572POPC   C4B35794  29.792  30.993   7.673
 2573POPC   NC335795   9.575   8.512   9.385
 2573POPC   PO435796   9.248   7.992   9.615
 2573POPC   GL135797   9.570   7.946   9.229
 2573POPC   GL235798   9.991   7.998   9.170
 2573POPC   C1A35799   9.673   8.049   8.791
 2573POPC   D2A35800   9.588   8.281   8.443
 2573POPC   C3A35801   9.684   8.004   8.133
 2573POPC   C4A35802   9.574   8.104   7.721
 2573POPC   C1B35803  10.096   8.324   8.783
 2573POPC   C2B35804  10.122   8.256   8.334
 2573POPC   C3B35805  10.007   8.308   7.895
 2573POPC   C4B35806  10.151   8.272   7.461
 2574POPC   NC335807   5.746  11.486   9.558
 2574POPC   PO435808   6.367  11.247   9.328
 2574POPC   GL135809   5.976  11.222   9.154
 2574POPC   GL235810   5.842  10.978   9.366
 2574POPC   C1A35811   5.828  11.299   8.716
 2574POPC   D2A35812   5.995  11.357   8.292
 2574POPC   C3A35813   6.002  11.679   7.954
 2574POPC   C4A35814   6.006  11.697   7.494
 2574POPC   C1B35815   5.647  10.878   8.955
 2574POPC   C2B35816   5.680  10.755   8.524
 2574POPC   C3B35817   5.802  10.875   8.114
 2574POPC   C4B35818   5.715  11.244   7.886
 2575POPC   NC335819  18.769   2.277   9.311
 2575POPC   PO435820  19.069   2.843   9.667
 2575POPC   GL135821  18.936   2.954   9.205
 2575POPC   GL235822  19.046   2.672   9.158
 2575POPC   C1A35823  18.840   2.902   8.762
 2575POPC   D2A35824  18.788   3.066   8.361
 2575POPC   C3A35825  18.924   2.769   8.075
 2575POPC   C4A35826  18.965   2.762   7.650
 2575POPC   C1B35827  19.331   2.864   8.849
 2575POPC   C2B35828  19.270   2.789   8.432
 2575POPC   C3B35829  19.425   2.827   7.994
 2575POPC   C4B35830  19.444   2.653   7.566
 2576POPC   NC335831  41.927  42.914   9.542
 2576POPC   PO435832  42.422  43.351   9.541
 2576POPC   GL135833  42.113  43.323   9.246
 2576POPC   GL235834  42.247  42.992   9.129
 2576POPC   C1A35835  42.018  43.307   8.816
 2576POPC   D2A35836  42.282  43.086   8.512
 2576POPC   C3A35837  42.189  43.142   8.062
 2576POPC   C4A35838  42.168  42.886   7.682
 2576POPC   C1B35839  42.520  43.346   8.912
 2576POPC   C2B35840  42.609  43.607   8.571
 2576POPC   C3B35841  42.612  43.481   8.155
 2576POPC   C4B35842  42.593  43.241   7.758
 2577POPC   NC335843  43.262   1.374   9.381
 2577POPC   PO435844  42.868   0.855   9.582
 2577POPC   GL135845  42.886   1.006   9.169
 2577POPC   GL235846  43.254   0.963   9.054
 2577POPC   C1A35847  42.880   1.214   8.758
 2577POPC   D2A35848  43.121   1.177   8.368
 2577POPC   C3A35849  42.981   1.290   7.956
 2577POPC   C4A35850  43.114   0.902   7.749
 2577POPC   C1B35851  43.393   1.345   8.774
 2577POPC   C2B35852  43.603   1.381   8.408
 2577POPC   C3B35853  43.458   1.452   8.015
 2577POPC   C4B35854  43.584   1.592   7.616
 2578POPC   NC335855  36.843  15.330   9.781
 2578POPC   PO435856  36.925  15.920   9.521
 2578POPC   GL135857  36.983  15.812   9.119
 2578POPC   GL235858  36.714  15.586   9.086
 2578POPC   C1A35859  36.887  16.077   8.765
 2578POPC   D2A35860  36.807  16.028   8.337
 2578POPC   C3A35861  37.146  15.796   8.184
 2578POPC   C4A35862  37.242  15.925   7.793
 2578POPC   C1B35863  36.794  15.559   8.631
 2578POPC   C2B35864  36.570  15.573   8.223
 2578POPC   C3B35865  36.739  15.738   7.853
 2578POPC   C4B35866  36.757  16.177   7.789
 2579POPC   NC335867  13.708  38.084   9.443
 2579POPC   PO435868  13.591  38.728   9.378
 2579POPC   GL135869  13.724  38.592   8.998
 2579POPC   GL235870  13.715  38.282   8.984
 2579POPC   C1A35871  13.771  38.684   8.581
 2579POPC   D2A35872  13.443  38.582   8.318
 2579POPC   C3A35873  13.485  38.660   7.885
 2579POPC   C4A35874  13.795  38.720   7.572
 2579POPC   C1B35875  14.010  38.242   8.679
 2579POPC   C2B35876  13.828  38.241   8.295
 2579POPC   C3B35877  13.544  38.161   7.987
 2579POPC   C4B35878  13.653  38.240   7.577
 2580POPC   NC335879  16.285  16.998   9.851
 2580POPC   PO435880  16.088  17.678   9.658
 2580POPC   GL135881  16.107  17.595   9.183
 2580POPC   GL235882  16.198  17.268   9.052
 2580POPC   C1A35883  16.042  17.701   8.732
 2580POPC   D2A35884  16.159  17.753   8.305
 2580POPC   C3A35885  16.006  17.494   7.986
 2580POPC   C4A35886  15.879  17.206   7.681
 2580POPC   C1B35887  15.821  17.239   8.791
 2580POPC   C2B35888  15.701  17.379   8.365
 2580POPC   C3B35889  15.501  17.520   7.934
 2580POPC   C4B35890  15.532  17.506   7.461
 2581POPC   NC335891   8.458  37.653   9.641
 2581POPC   PO435892   7.864  37.306   9.404
 2581POPC   GL135893   7.987  37.567   9.083
 2581POPC   GL235894   8.268  37.662   9.176
 2581POPC   C1A35895   8.017  37.721   8.678
 2581POPC   D2A35896   8.001  37.870   8.264
 2581POPC   C3A35897   8.297  37.711   7.942
 2581POPC   C4A35898   8.219  37.460   7.555
 2581POPC   C1B35899   8.492  37.551   8.833
 2581POPC   C2B35900   8.496  37.787   8.451
 2581POPC   C3B35901   8.489  38.149   8.198
 2581POPC   C4B35902   8.695  38.069   7.837
 2582POPC   NC335903  33.259   8.139   9.526
 2582POPC   PO435904  32.798   8.497   9.274
 2582POPC   GL135905  33.032   8.188   9.061
 2582POPC   GL235906  33.438   8.169   9.067
 2582POPC   C1A35907  32.869   8.198   8.660
 2582POPC   D2A35908  32.951   7.985   8.310
 2582POPC   C3A35909  32.879   8.120   7.910
 2582POPC   C4A35910  32.630   8.473   7.840
 2582POPC   C1B35911  33.364   8.012   8.678
 2582POPC   C2B35912  33.432   8.282   8.353
 2582POPC   C3B35913  33.473   8.359   7.941
 2582POPC   C4B35914  33.369   7.976   7.724
 2583POPC   NC335915   5.772  22.697   9.460
 2583POPC   PO435916   5.974  23.304   9.397
 2583POPC   GL135917   5.777  23.041   9.067
 2583POPC   GL235918   5.570  22.732   9.000
 2583POPC   C1A35919   5.923  22.959   8.664
 2583POPC   D2A35920   6.031  23.183   8.316
 2583POPC   C3A35921   6.037  22.914   8.002
 2583POPC   C4A35922   5.944  22.840   7.580
 2583POPC   C1B35923   5.409  22.949   8.678
 2583POPC   C2B35924   5.539  22.942   8.263
 2583POPC   C3B35925   5.503  22.869   7.827
 2583POPC   C4B35926   5.424  23.132   7.461
 2584POPC   NC335927  42.101  36.331   9.663
 2584POPC   PO435928  41.536  36.126   9.713
 2584POPC   GL135929  41.521  36.047   9.227
 2584POPC   GL235930  41.359  36.329   9.094
 2584POPC   C1A35931  41.706  35.992   8.830
 2584POPC   D2A35932  41.567  36.291   8.542
 2584POPC   C3A35933  41.588  36.266   8.088
 2584POPC   C4A35934  41.778  36.065   7.734
 2584POPC   C1B35935  41.209  35.959   8.829
 2584POPC   C2B35936  41.194  35.747   8.452
 2584POPC   C3B35937  41.270  35.822   8.020
 2584POPC   C4B35938  41.091  36.046   7.667
 2585POPC   NC335939  18.971   0.840   9.524
 2585POPC   PO435940  18.604   0.274   9.476
 2585POPC   GL135941  18.899   0.490   9.157
 2585POPC   GL235942  19.245   0.669   9.123
 2585POPC   C1A35943  18.868   0.589   8.734
 2585POPC   D2A35944  18.839   0.327   8.354
 2585POPC   C3A35945  18.941   0.500   7.947
 2585POPC   C4A35946  18.981   0.349   7.506
 2585POPC   C1B35947  19.289   0.869   8.699
 2585POPC   C2B35948  19.114   0.820   8.306
 2585POPC   C3B35949  19.335   0.817   7.918
 2585POPC   C4B35950  19.392   0.595   7.559
 2586POPC   NC335951  18.723   3.193   9.595
 2586POPC   PO435952  18.085   3.306   9.575
 2586POPC   GL135953  18.146   3.381   9.147
 2586POPC   GL235954  18.526   3.292   9.133
 2586POPC   C1A35955  18.234   3.670   8.788
 2586POPC   D2A35956  18.497   3.639   8.431
 2586POPC   C3A35957  18.308   3.699   8.030
 2586POPC   C4A35958  18.529   3.579   7.690
 2586POPC   C1B35959  18.424   3.194   8.718
 2586POPC   C2B35960  18.123   3.264   8.415
 2586POPC   C3B35961  18.096   3.245   7.997
 2586POPC   C4B35962  18.033   3.300   7.573
 2587POPC   NC335963   1.089  42.678   9.201
 2587POPC   PO435964   1.375  42.133   9.436
 2587POPC   GL135965   1.318  42.227   9.049
 2587POPC   GL235966   0.972  42.178   9.024
 2587POPC   C1A35967   1.515  42.264   8.639
 2587POPC   D2A35968   1.330  42.547   8.309
 2587POPC   C3A35969   1.450  42.420   7.918
 2587POPC   C4A35970   1.474  42.002   7.968
 2587POPC   C1B35971   1.018  42.131   8.589
 2587POPC   C2B35972   0.941  42.111   8.159
 2587POPC   C3B35973   0.932  42.516   7.946
 2587POPC   C4B35974   1.078  42.878   7.740
 2588POPC   NC335975   2.291  19.690   9.444
 2588POPC   PO435976   1.715  19.415   9.468
 2588POPC   GL135977   1.887  19.732   9.107
 2588POPC   GL235978   2.202  19.982   9.035
 2588POPC   C1A35979   1.961  19.778   8.661
 2588POPC   D2A35980   2.071  20.019   8.357
 2588POPC   C3A35981   1.994  19.734   8.028
 2588POPC   C4A35982   2.305  19.537   7.778
 2588POPC   C1B35983   1.827  20.221   8.851
 2588POPC   C2B35984   1.576  20.176   8.496
 2588POPC   C3B35985   1.688  20.167   8.061
 2588POPC   C4B35986   1.962  20.106   7.699
 2589POPC   NC335987  29.001  10.882   9.513
 2589POPC   PO435988  29.453  10.430   9.402
 2589POPC   GL135989  29.113  10.345   9.129
 2589POPC   GL235990  28.939  10.624   9.031
 2589POPC   C1A35991  28.892  10.174   8.770
 2589POPC   D2A35992  28.835  10.138   8.317
 2589POPC   C3A35993  29.043  10.489   8.050
 2589POPC   C4A35994  29.009  10.548   7.572
 2589POPC   C1B35995  29.223  10.651   8.664
 2589POPC   C2B35996  29.258  10.909   8.277
 2589POPC   C3B35997  29.369  10.865   7.827
 2589POPC   C4B35998  29.347  10.873   7.341
 2590POPC   NC335999  37.875   7.698   9.551
 2590POPC   PO436000  37.345   7.295   9.516
 2590POPC   GL136001  37.592   7.459   9.212
 2590POPC   GL236002  37.861   7.270   9.267
 2590POPC   C1A36003  37.715   7.668   8.828
 2590POPC   D2A36004  37.575   7.655   8.402
 2590POPC   C3A36005  37.774   7.441   8.076
 2590POPC   C4A36006  37.722   7.554   7.653
 2590POPC   C1B36007  37.800   7.172   8.846
 2590POPC   C2B36008  37.637   7.096   8.451
 2590POPC   C3B36009  37.912   6.942   8.113
 2590POPC   C4B36010  38.137   7.224   7.758
 2591POPC   NC336011   4.582  38.769   9.617
 2591POPC   PO436012   5.120  38.327   9.604
 2591POPC   GL136013   5.181  38.491   9.233
 2591POPC   GL236014   4.980  38.767   9.263
 2591POPC   C1A36015   5.220  38.278   8.860
 2591POPC   D2A36016   5.092  38.444   8.473
 2591POPC   C3A36017   5.218  38.251   8.095
 2591POPC   C4A36018   5.079  38.372   7.700
 2591POPC   C1B36019   4.828  38.740   8.817
 2591POPC   C2B36020   4.730  38.812   8.348
 2591POPC   C3B36021   4.783  38.793   7.860
 2591POPC   C4B36022   4.782  38.937   7.383
 2592POPC   NC336023  37.414  12.983   9.411
 2592POPC   PO436024  37.973  12.847   9.370
 2592POPC   GL136025  37.727  12.799   9.045
 2592POPC   GL236026  37.598  12.474   9.128
 2592POPC   C1A36027  37.592  13.120   8.781
 2592POPC   D2A36028  37.498  13.201   8.364
 2592POPC   C3A36029  37.787  13.032   8.083
 2592POPC   C4A36030  37.747  12.919   7.656
 2592POPC   C1B36031  37.714  12.440   8.673
 2592POPC   C2B36032  37.552  12.601   8.239
 2592POPC   C3B36033  37.740  12.458   7.820
 2592POPC   C4B36034  37.737  12.547   7.312
 2593POPC   NC336035  28.361  25.790   9.594
 2593POPC   PO436036  27.959  26.377   9.545
 2593POPC   GL136037  28.114  26.051   9.215
 2593POPC   GL236038  28.513  26.051   9.179
 2593POPC   C1A36039  28.234  25.919   8.782
 2593POPC   D2A36040  28.413  25.763   8.380
 2593POPC   C3A36041  28.184  25.906   8.003
 2593POPC   C4A36042  28.168  26.295   7.782
 2593POPC   C1B36043  28.565  26.312   8.795
 2593POPC   C2B36044  28.371  26.282   8.374
 2593POPC   C3B36045  28.617  26.219   7.988
 2593POPC   C4B36046  28.562  26.018   7.588
 2594POPC   NC336047  25.027  14.543   9.595
 2594POPC   PO436048  25.474  14.098   9.496
 2594POPC   GL136049  25.285  14.291   9.186
 2594POPC   GL236050  25.048  14.164   9.007
 2594POPC   C1A36051  25.443  14.406   8.773
 2594POPC   D2A36052  25.488  14.280   8.362
 2594POPC   C3A36053  25.317  14.517   8.064
 2594POPC   C4A36054  25.379  14.368   7.683
 2594POPC   C1B36055  24.992  14.607   8.889
 2594POPC   C2B36056  25.135  14.769   8.501
 2594POPC   C3B36057  24.894  14.800   8.133
 2594POPC   C4B36058  24.872  14.496   7.782
 2595POPC   NC336059  19.897   0.129   9.583
 2595POPC   PO436060  20.083   0.690   9.379
 2595POPC   GL136061  19.782   0.644   9.013
 2595POPC   GL236062  19.627   0.317   9.093
 2595POPC   C1A36063  19.883   0.390   8.607
 2595POPC   D2A36064  20.190   0.117   8.314
 2595POPC   C3A36065  20.065   0.194   7.876
 2595POPC   C4A36066  19.727   0.472   7.906
 2595POPC   C1B36067  19.363   0.367   8.701
 2595POPC   C2B36068  19.346   0.360   8.244
 2595POPC   C3B36069  19.320   0.144   7.841
 2595POPC   C4B36070  19.592   0.007   7.477
 2596POPC   NC336071  28.403   3.995   9.573
 2596POPC   PO436072  28.279   3.373   9.539
 2596POPC   GL136073  28.398   3.669   9.176
 2596POPC   GL236074  28.152   3.966   9.136
 2596POPC   C1A36075  28.616   3.528   8.801
 2596POPC   D2A36076  28.700   3.209   8.498
 2596POPC   C3A36077  28.577   3.340   8.134
 2596POPC   C4A36078  28.574   3.610   7.797
 2596POPC   C1B36079  28.167   3.765   8.716
 2596POPC   C2B36080  28.362   3.793   8.303
 2596POPC   C3B36081  28.118   3.859   7.903
 2596POPC   C4B36082  28.047   3.766   7.439
 2597POPC   NC336083  40.193  17.653  10.115
 2597POPC   PO436084  39.989  17.744   9.583
 2597POPC   GL136085  39.934  17.512   9.115
 2597POPC   GL236086  39.608  17.349   9.027
 2597POPC   C1A36087  39.989  17.291   8.659
 2597POPC   D2A36088  39.841  17.228   8.203
 2597POPC   C3A36089  39.989  17.576   7.951
 2597POPC   C4A36090  39.991  17.665   7.497
 2597POPC   C1B36091  39.495  17.374   8.577
 2597POPC   C2B36092  39.592  17.687   8.243
 2597POPC   C3B36093  39.518  17.661   7.798
 2597POPC   C4B36094  39.647  17.241   7.697
 2598POPC   NC336095   9.029  24.583   9.311
 2598POPC   PO436096   9.419  24.247   9.608
 2598POPC   GL136097   9.178  24.124   9.169
 2598POPC   GL236098   8.769  24.205   9.116
 2598POPC   C1A36099   9.115  24.310   8.741
 2598POPC   D2A36100   9.043  24.255   8.327
 2598POPC   C3A36101   8.843  24.535   8.063
 2598POPC   C4A36102   9.013  24.589   7.666
 2598POPC   C1B36103   8.472  24.149   8.773
 2598POPC   C2B36104   8.536  24.217   8.336
 2598POPC   C3B36105   8.430  24.279   7.897
 2598POPC   C4B36106   8.595  24.288   7.484
 2599POPC   NC336107  24.606   4.147   9.375
 2599POPC   PO436108  24.206   4.660   9.250
 2599POPC   GL136109  24.392   4.343   8.979
 2599POPC   GL236110  24.675   4.545   9.014
 2599POPC   C1A36111  24.511   4.097   8.609
 2599POPC   D2A36112  24.368   4.192   8.168
 2599POPC   C3A36113  24.459   3.935   7.823
 2599POPC   C4A36114  24.342   4.069   7.402
 2599POPC   C1B36115  24.459   4.677   8.614
 2599POPC   C2B36116  24.162   4.796   8.295
 2599POPC   C3B36117  24.256   4.754   7.854
 2599POPC   C4B36118  24.540   4.442   7.734
 2600POPC   NC336119  35.254  29.335   9.556
 2600POPC   PO436120  35.312  28.714   9.311
 2600POPC   GL136121  35.476  29.038   9.096
 2600POPC   GL236122  35.157  29.219   9.086
 2600POPC   C1A36123  35.419  29.196   8.671
 2600POPC   D2A36124  35.418  29.075   8.272
 2600POPC   C3A36125  35.400  29.312   7.923
 2600POPC   C4A36126  35.720  29.250   7.621
 2600POPC   C1B36127  34.951  29.408   8.758
 2600POPC   C2B36128  35.073  29.456   8.342
 2600POPC   C3B36129  34.875  29.407   7.982
 2600POPC   C4B36130  35.052  29.419   7.565
 2601POPC   NC336131  36.337  33.626   9.569
 2601POPC   PO436132  35.967  34.119   9.486
 2601POPC   GL136133  36.187  33.869   9.136
 2601POPC   GL236134  36.091  33.532   9.143
 2601POPC   C1A36135  36.028  33.753   8.707
 2601POPC   D2A36136  35.732  33.911   8.434
 2601POPC   C3A36137  35.833  33.709   8.069
 2601POPC   C4A36138  35.836  33.786   7.640
 2601POPC   C1B36139  36.243  33.283   8.797
 2601POPC   C2B36140  36.381  33.294   8.381
 2601POPC   C3B36141  36.285  33.520   8.019
 2601POPC   C4B36142  36.328  33.695   7.564
 2602POPC   NC336143  33.971  13.471   9.451
 2602POPC   PO436144  33.445  13.799   9.402
 2602POPC   GL136145  33.756  13.780   9.085
 2602POPC   GL236146  33.695  13.443   9.022
 2602POPC   C1A36147  33.976  13.904   8.689
 2602POPC   D2A36148  33.984  13.715   8.243
 2602POPC   C3A36149  33.786  13.840   7.871
 2602POPC   C4A36150  33.474  13.564   7.890
 2602POPC   C1B36151  33.726  13.458   8.587
 2602POPC   C2B36152  33.776  13.242   8.188
 2602POPC   C3B36153  33.890  13.194   7.766
 2602POPC   C4B36154  33.915  13.378   7.354
 2603POPC   NC336155  13.601  39.131   9.584
 2603POPC   PO436156  13.805  39.699   9.281
 2603POPC   GL136157  13.563  39.297   9.111
 2603POPC   GL236158  13.840  39.079   9.067
 2603POPC   C1A36159  13.416  38.999   8.748
 2603POPC   D2A36160  13.582  39.058   8.281
 2603POPC   C3A36161  13.324  39.148   7.916
 2603POPC   C4A36162  13.471  39.221   7.487
 2603POPC   C1B36163  13.810  39.316   8.676
 2603POPC   C2B36164  13.834  39.503   8.288
 2603POPC   C3B36165  13.725  39.498   7.876
 2603POPC   C4B36166  13.730  39.689   7.466
 2604POPC   NC336167  41.373   8.619   9.418
 2604POPC   PO436168  41.925   8.906   9.780
 2604POPC   GL136169  41.796   8.949   9.254
 2604POPC   GL236170  41.472   8.994   9.072
 2604POPC   C1A36171  41.852   8.947   8.732
 2604POPC   D2A36172  41.628   8.797   8.317
 2604POPC   C3A36173  41.361   9.071   8.066
 2604POPC   C4A36174  41.535   9.326   7.739
 2604POPC   C1B36175  41.297   8.763   8.717
 2604POPC   C2B36176  41.006   8.765   8.338
 2604POPC   C3B36177  41.073   8.658   7.937
 2604POPC   C4B36178  41.424   8.674   7.680
 2605POPC   NC336179  28.155  34.725   9.701
 2605POPC   PO436180  28.769  34.683   9.572
 2605POPC   GL136181  28.444  34.591   9.222
 2605POPC   GL236182  28.051  34.610   9.219
 2605POPC   C1A36183  28.288  34.421   8.808
 2605POPC   D2A36184  28.258  34.357   8.373
 2605POPC   C3A36185  28.412  34.668   8.093
 2605POPC   C4A36186  28.405  34.508   7.733
 2605POPC   C1B36187  28.030  34.873   8.841
 2605POPC   C2B36188  28.055  34.880   8.410
 2605POPC   C3B36189  27.921  34.601   8.067
 2605POPC   C4B36190  27.899  34.485   7.647
 2606POPC   NC336191  22.665   9.905   9.989
 2606POPC   PO436192  22.685   9.698   9.545
 2606POPC   GL136193  22.768   9.594   9.072
 2606POPC   GL236194  22.958   9.902   8.940
 2606POPC   C1A36195  22.829   9.555   8.600
 2606POPC   D2A36196  23.112   9.839   8.434
 2606POPC   C3A36197  23.310   9.796   8.013
 2606POPC   C4A36198  23.422   9.435   7.710
 2606POPC   C1B36199  22.775  10.180   8.595
 2606POPC   C2B36200  22.475  10.113   8.232
 2606POPC   C3B36201  22.557  10.112   7.755
 2606POPC   C4B36202  22.659   9.854   7.354
 2607POPC   NC336203  32.975  16.542   9.584
 2607POPC   PO436204  33.390  16.894   9.389
 2607POPC   GL136205  33.081  16.756   9.110
 2607POPC   GL236206  33.120  16.430   9.080
 2607POPC   C1A36207  32.928  16.882   8.706
 2607POPC   D2A36208  32.813  16.784   8.294
 2607POPC   C3A36209  33.123  16.604   8.015
 2607POPC   C4A36210  33.260  16.738   7.564
 2607POPC   C1B36211  32.731  16.440   8.850
 2607POPC   C2B36212  32.582  16.316   8.417
 2607POPC   C3B36213  32.639  16.417   7.987
 2607POPC   C4B36214  32.832  16.488   7.612
 2608POPC   NC336215  10.196  28.454   9.842
 2608POPC   PO436216  10.679  28.764   9.592
 2608POPC   GL136217  10.662  28.540   9.180
 2608POPC   GL236218  10.477  28.225   9.115
 2608POPC   C1A36219  10.737  28.464   8.742
 2608POPC   D2A36220  10.514  28.316   8.395
 2608POPC   C3A36221  10.468  28.575   8.040
 2608POPC   C4A36222  10.667  28.374   7.699
 2608POPC   C1B36223  10.203  28.121   8.761
 2608POPC   C2B36224  10.238  27.876   8.373
 2608POPC   C3B36225  10.207  28.113   7.987
 2608POPC   C4B36226  10.304  28.035   7.554
 2609POPC   NC336227  19.347  21.917   9.510
 2609POPC   PO436228  19.704  22.539   9.428
 2609POPC   GL136229  19.334  22.451   9.177
 2609POPC   GL236230  19.198  22.103   9.074
 2609POPC   C1A36231  19.112  22.508   8.798
 2609POPC   D2A36232  19.177  22.300   8.461
 2609POPC   C3A36233  19.141  22.431   8.058
 2609POPC   C4A36234  19.117  22.321   7.651
 2609POPC   C1B36235  18.891  21.975   8.765
 2609POPC   C2B36236  18.961  21.848   8.334
 2609POPC   C3B36237  19.060  21.872   7.877
 2609POPC   C4B36238  19.065  21.908   7.370
 2610POPC   NC336239  31.065  19.135   9.435
 2610POPC   PO436240  31.576  18.717   9.534
 2610POPC   GL136241  31.452  18.936   9.141
 2610POPC   GL236242  31.538  19.283   9.207
 2610POPC   C1A36243  31.330  18.852   8.699
 2610POPC   D2A36244  31.137  18.928   8.313
 2610POPC   C3A36245  31.349  18.804   7.959
 2610POPC   C4A36246  31.062  18.675   7.635
 2610POPC   C1B36247  31.374  19.354   8.787
 2610POPC   C2B36248  31.501  19.289   8.354
 2610POPC   C3B36249  31.342  19.337   7.928
 2610POPC   C4B36250  31.535  19.515   7.539
 2611POPC   NC336251   6.742  22.482   9.351
 2611POPC   PO436252   6.780  23.151   9.418
 2611POPC   GL136253   6.652  22.932   9.092
 2611POPC   GL236254   6.302  23.076   9.018
 2611POPC   C1A36255   6.711  23.012   8.670
 2611POPC   D2A36256   6.510  23.013   8.296
 2611POPC   C3A36257   6.838  23.058   7.997
 2611POPC   C4A36258   7.173  23.330   7.880
 2611POPC   C1B36259   6.338  22.676   8.785
 2611POPC   C2B36260   6.329  22.507   8.369
 2611POPC   C3B36261   6.490  22.641   7.972
 2611POPC   C4B36262   6.445  22.976   7.688
 2612POPC   NC336263  11.681  31.975   9.311
 2612POPC   PO436264  11.131  32.061   9.625
 2612POPC   GL136265  11.248  32.297   9.222
 2612POPC   GL236266  11.533  32.516   9.172
 2612POPC   C1A36267  11.327  32.247   8.759
 2612POPC   D2A36268  11.600  32.107   8.389
 2612POPC   C3A36269  11.454  32.222   7.957
 2612POPC   C4A36270  11.377  31.906   7.591
 2612POPC   C1B36271  11.527  32.746   8.800
 2612POPC   C2B36272  11.440  32.600   8.394
 2612POPC   C3B36273  11.657  32.715   8.033
 2612POPC   C4B36274  11.661  32.557   7.622
 2613POPC   NC336275   6.470   2.751   9.405
 2613POPC   PO436276   7.125   2.598   9.522
 2613POPC   GL136277   6.898   2.750   9.141
 2613POPC   GL236278   6.770   2.463   8.950
 2613POPC   C1A36279   6.610   2.915   8.788
 2613POPC   D2A36280   6.354   2.942   8.414
 2613POPC   C3A36281   6.492   3.052   8.004
 2613POPC   C4A36282   6.866   2.944   7.759
 2613POPC   C1B36283   6.399   2.392   8.618
 2613POPC   C2B36284   6.205   2.524   8.176
 2613POPC   C3B36285   6.491   2.587   7.795
 2613POPC   C4B36286   6.484   2.396   7.383
 2614POPC   NC336287  23.290  39.057   9.462
 2614POPC   PO436288  23.834  39.470   9.588
 2614POPC   GL136289  23.598  39.387   9.190
 2614POPC   GL236290  23.564  39.046   9.021
 2614POPC   C1A36291  23.715  39.424   8.752
 2614POPC   D2A36292  23.802  39.288   8.372
 2614POPC   C3A36293  23.698  39.560   8.119
 2614POPC   C4A36294  23.650  39.382   7.789
 2614POPC   C1B36295  23.914  38.921   8.697
 2614POPC   C2B36296  23.936  38.797   8.250
 2614POPC   C3B36297  23.694  38.847   7.814
 2614POPC   C4B36298  23.594  38.699   7.351
 2615POPC   NC336299  39.181   1.673   9.539
 2615POPC   PO436300  39.228   2.354   9.642
 2615POPC   GL136301  39.206   2.092   9.214
 2615POPC   GL236302  39.386   1.809   9.092
 2615POPC   C1A36303  39.114   2.042   8.731
 2615POPC   D2A36304  39.315   2.099   8.291
 2615POPC   C3A36305  39.079   2.153   7.925
 2615POPC   C4A36306  39.132   2.308   7.532
 2615POPC   C1B36307  39.364   1.559   8.746
 2615POPC   C2B36308  39.160   1.496   8.378
 2615POPC   C3B36309  39.173   1.621   7.963
 2615POPC   C4B36310  39.499   1.849   7.798
 2616POPC   NC336311   1.783  10.169   9.511
 2616POPC   PO436312   2.132  10.680   9.691
 2616POPC   GL136313   1.752  10.565   9.225
 2616POPC   GL236314   1.800  10.259   9.005
 2616POPC   C1A36315   1.730  10.762   8.783
 2616POPC   D2A36316   1.958  10.825   8.386
 2616POPC   C3A36317   1.755  10.710   8.000
 2616POPC   C4A36318   1.556  10.386   7.758
 2616POPC   C1B36319   2.001  10.345   8.598
 2616POPC   C2B36320   2.349  10.502   8.348
 2616POPC   C3B36321   2.264  10.555   7.925
 2616POPC   C4B36322   2.348  10.195   7.704
 2617POPC   NC336323   4.913   1.917   9.446
 2617POPC   PO436324   5.509   2.362   9.420
 2617POPC   GL136325   5.467   2.197   8.977
 2617POPC   GL236326   5.166   2.022   9.009
 2617POPC   C1A36327   5.499   1.810   8.683
 2617POPC   D2A36328   5.315   1.662   8.276
 2617POPC   C3A36329   5.519   1.764   7.880
 2617POPC   C4A36330   5.774   1.907   7.546
 2617POPC   C1B36331   5.012   1.952   8.621
 2617POPC   C2B36332   4.964   2.287   8.348
 2617POPC   C3B36333   4.762   2.261   7.993
 2617POPC   C4B36334   5.041   1.933   7.820
 2618POPC   NC336335  25.863  28.158   9.560
 2618POPC   PO436336  26.135  28.720   9.294
 2618POPC   GL136337  25.763  28.539   9.191
 2618POPC   GL236338  25.892  28.242   9.052
 2618POPC   C1A36339  25.688  28.621   8.766
 2618POPC   D2A36340  25.981  28.825   8.485
 2618POPC   C3A36341  26.134  28.477   8.236
 2618POPC   C4A36342  26.046  28.475   7.806
 2618POPC   C1B36343  26.126  28.123   8.682
 2618POPC   C2B36344  26.051  27.931   8.293
 2618POPC   C3B36345  25.979  27.966   7.857
 2618POPC   C4B36346  26.256  27.996   7.486
 2619POPC   NC336347  34.900  43.264   9.555
 2619POPC   PO436348  34.430  42.918   9.338
 2619POPC   GL136349  34.780  43.033   9.089
 2619POPC   GL236350  34.955  42.733   8.976
 2619POPC   C1A36351  34.725  43.263   8.691
 2619POPC   D2A36352  34.349  43.390   8.404
 2619POPC   C3A36353  34.292  43.208   7.985
 2619POPC   C4A36354  34.446  43.206   7.535
 2619POPC   C1B36355  34.568  42.648   8.756
 2619POPC   C2B36356  34.393  42.893   8.471
 2619POPC   C3B36357  34.726  43.065   8.200
 2619POPC   C4B36358  34.746  42.910   7.791
 2620POPC   NC336359  39.811  24.013   9.533
 2620POPC   PO436360  40.414  23.691   9.546
 2620POPC   GL136361  40.077  23.691   9.204
 2620POPC   GL236362  39.782  23.488   9.167
 2620POPC   C1A36363  40.086  23.806   8.742
 2620POPC   D2A36364  40.028  23.487   8.376
 2620POPC   C3A36365  40.056  23.636   7.929
 2620POPC   C4A36366  40.014  23.546   7.456
 2620POPC   C1B36367  39.626  23.627   8.778
 2620POPC   C2B36368  39.676  23.870   8.399
 2620POPC   C3B36369  39.588  23.590   8.108
 2620POPC   C4B36370  39.568  23.516   7.707
 2621POPC   NC336371  14.116  27.076   9.317
 2621POPC   PO436372  14.462  26.493   9.505
 2621POPC   GL136373  14.454  26.705   9.116
 2621POPC   GL236374  14.595  26.974   9.100
 2621POPC   C1A36375  14.266  26.744   8.693
 2621POPC   D2A36376  13.971  26.712   8.315
 2621POPC   C3A36377  14.245  26.771   7.961
 2621POPC   C4A36378  14.567  26.582   7.780
 2621POPC   C1B36379  14.638  27.103   8.709
 2621POPC   C2B36380  14.680  26.807   8.378
 2621POPC   C3B36381  14.748  26.982   7.994
 2621POPC   C4B36382  14.794  27.077   7.569
 2622POPC   NC336383  21.968  12.416   9.516
 2622POPC   PO436384  22.493  11.885   9.512
 2622POPC   GL136385  22.161  12.020   9.213
 2622POPC   GL236386  21.923  11.788   9.093
 2622POPC   C1A36387  22.185  12.103   8.753
 2622POPC   D2A36388  22.056  12.082   8.327
 2622POPC   C3A36389  22.336  11.953   8.007
 2622POPC   C4A36390  22.078  12.035   7.667
 2622POPC   C1B36391  22.310  11.622   8.855
 2622POPC   C2B36392  22.333  11.628   8.393
 2622POPC   C3B36393  21.981  11.603   8.033
 2622POPC   C4B36394  22.078  11.534   7.549
 2623POPC   NC336395  40.947  25.599   9.629
 2623POPC   PO436396  40.619  26.167   9.526
 2623POPC   GL136397  40.688  25.821   9.229
 2623POPC   GL236398  41.080  25.889   9.212
 2623POPC   C1A36399  40.799  25.775   8.784
 2623POPC   D2A36400  41.002  26.132   8.560
 2623POPC   C3A36401  40.779  26.353   8.255
 2623POPC   C4A36402  40.817  26.331   7.819
 2623POPC   C1B36403  41.322  25.783   8.837
 2623POPC   C2B36404  41.305  25.767   8.401
 2623POPC   C3B36405  41.008  25.891   8.093
 2623POPC   C4B36406  41.201  25.989   7.720
 2624POPC   NC336407  12.157  28.146   9.632
 2624POPC   PO436408  11.760  28.610   9.783
 2624POPC   GL136409  11.988  28.549   9.337
 2624POPC   GL236410  11.958  28.211   9.157
 2624POPC   C1A36411  12.130  28.599   8.871
 2624POPC   D2A36412  11.874  28.581   8.467
 2624POPC   C3A36413  11.950  28.482   8.013
 2624POPC   C4A36414  12.188  28.423   7.605
 2624POPC   C1B36415  11.806  28.093   8.726
 2624POPC   C2B36416  11.861  28.037   8.265
 2624POPC   C3B36417  12.245  28.073   7.970
 2624POPC   C4B36418  12.342  27.930   7.558
 2625POPC   NC336419  41.379  32.564   9.434
 2625POPC   PO436420  41.902  32.197   9.459
 2625POPC   GL136421  41.589  32.190   9.122
 2625POPC   GL236422  41.385  32.438   8.948
 2625POPC   C1A36423  41.590  32.008   8.727
 2625POPC   D2A36424  41.811  32.045   8.382
 2625POPC   C3A36425  41.576  32.044   8.037
 2625POPC   C4A36426  41.718  32.312   7.730
 2625POPC   C1B36427  41.753  32.492   8.679
 2625POPC   C2B36428  41.614  32.530   8.248
 2625POPC   C3B36429  41.305  32.544   7.918
 2625POPC   C4B36430  41.363  32.645   7.466
 2626POPC   NC336431  30.636  30.225   9.815
 2626POPC   PO436432  30.521  30.749   9.487
 2626POPC   GL136433  30.722  30.685   9.121
 2626POPC   GL236434  30.931  30.973   9.130
 2626POPC   C1A36435  30.573  30.603   8.688
 2626POPC   D2A36436  30.454  30.628   8.240
 2626POPC   C3A36437  30.762  30.539   7.920
 2626POPC   C4A36438  30.754  30.414   7.496
 2626POPC   C1B36439  30.706  31.103   8.794
 2626POPC   C2B36440  30.619  31.136   8.378
 2626POPC   C3B36441  30.516  31.059   7.963
 2626POPC   C4B36442  30.718  30.963   7.572
 2627POPC   NC336443  24.301  21.008   9.933
 2627POPC   PO436444  24.683  21.484   9.539
 2627POPC   GL136445  24.555  21.331   9.172
 2627POPC   GL236446  24.712  20.996   9.179
 2627POPC   C1A36447  24.371  21.472   8.784
 2627POPC   D2A36448  24.522  21.408   8.367
 2627POPC   C3A36449  24.295  21.353   7.992
 2627POPC   C4A36450  24.433  21.514   7.625
 2627POPC   C1B36451  24.491  20.983   8.784
 2627POPC   C2B36452  24.227  20.998   8.427
 2627POPC   C3B36453  24.350  20.849   8.023
 2627POPC   C4B36454  24.497  20.987   7.614
 2628POPC   NC336455  44.537  17.661   9.391
 2628POPC   PO436456   0.111  17.420   9.596
 2628POPC   GL136457  44.859  17.373   9.137
 2628POPC   GL236458  44.621  17.678   8.902
 2628POPC   C1A36459  44.954  17.385   8.700
 2628POPC   D2A36460  44.691  17.552   8.371
 2628POPC   C3A36461  44.839  17.364   8.008
 2628POPC   C4A36462  44.979  17.414   7.574
 2628POPC   C1B36463  44.398  17.347   8.765
 2628POPC   C2B36464  44.174  17.274   8.434
 2628POPC   C3B36465  44.315  17.210   8.052
 2628POPC   C4B36466  44.487  17.294   7.659
 2629POPC   NC336467  10.555   8.036   9.565
 2629POPC   PO436468  10.062   8.464   9.415
 2629POPC   GL136469  10.459   8.290   9.137
 2629POPC   GL236470  10.521   7.919   9.079
 2629POPC   C1A36471  10.709   8.242   8.734
 2629POPC   D2A36472  10.615   8.448   8.340
 2629POPC   C3A36473  10.501   8.290   7.939
 2629POPC   C4A36474  10.637   8.370   7.522
 2629POPC   C1B36475  10.325   7.879   8.690
 2629POPC   C2B36476  10.561   7.919   8.317
 2629POPC   C3B36477  10.935   8.083   8.115
 2629POPC   C4B36478  10.788   7.927   7.729
 2630POPC   NC336479  25.574  26.356   9.277
 2630POPC   PO436480  26.053  25.956   9.595
 2630POPC   GL136481  26.113  25.800   9.190
 2630POPC   GL236482  26.070  26.159   9.087
 2630POPC   C1A36483  26.287  25.816   8.774
 2630POPC   D2A36484  26.199  25.902   8.399
 2630POPC   C3A36485  26.119  26.151   8.071
 2630POPC   C4A36486  26.041  25.900   7.711
 2630POPC   C1B36487  25.816  26.005   8.760
 2630POPC   C2B36488  25.578  26.183   8.456
 2630POPC   C3B36489  25.667  26.452   8.131
 2630POPC   C4B36490  25.657  26.286   7.735
 2631POPC   NC336491  26.528  20.878   9.468
 2631POPC   PO436492  26.156  20.460   9.882
 2631POPC   GL136493  26.202  20.481   9.350
 2631POPC   GL236494  25.929  20.715   9.188
 2631POPC   C1A36495  26.299  20.582   8.854
 2631POPC   D2A36496  26.206  20.887   8.473
 2631POPC   C3A36497  26.086  20.769   8.041
 2631POPC   C4A36498  26.107  20.446   7.735
 2631POPC   C1B36499  25.643  20.595   8.825
 2631POPC   C2B36500  25.530  20.425   8.405
 2631POPC   C3B36501  25.620  20.547   7.972
 2631POPC   C4B36502  25.718  20.707   7.584
 2632POPC   NC336503   7.401  28.814   9.394
 2632POPC   PO436504   7.467  29.529   9.568
 2632POPC   GL136505   7.529  29.299   9.181
 2632POPC   GL236506   7.170  29.244   9.155
 2632POPC   C1A36507   7.486  29.034   8.769
 2632POPC   D2A36508   7.397  28.784   8.391
 2632POPC   C3A36509   7.273  29.013   8.001
 2632POPC   C4A36510   7.243  29.231   7.574
 2632POPC   C1B36511   7.288  29.499   8.776
 2632POPC   C2B36512   7.536  29.431   8.403
 2632POPC   C3B36513   7.457  29.481   7.975
 2632POPC   C4B36514   7.579  29.624   7.578
 2633POPC   NC336515  33.627  34.658   9.434
 2633POPC   PO436516  34.139  34.249   9.615
 2633POPC   GL136517  33.896  34.349   9.149
 2633POPC   GL236518  33.611  34.629   8.947
 2633POPC   C1A36519  34.065  34.608   8.764
 2633POPC   D2A36520  33.769  34.686   8.429
 2633POPC   C3A36521  33.935  34.588   8.045
 2633POPC   C4A36522  33.886  34.807   7.589
 2633POPC   C1B36523  33.640  34.251   8.703
 2633POPC   C2B36524  33.584  34.111   8.292
 2633POPC   C3B36525  33.389  34.183   7.922
 2633POPC   C4B36526  33.712  34.336   7.676
 2634POPC   NC336527  38.690  29.107   9.478
 2634POPC   PO436528  38.143  29.374   9.827
 2634POPC   GL136529  38.179  29.304   9.343
 2634POPC   GL236530  38.040  29.031   9.154
 2634POPC   C1A36531  38.361  29.359   8.906
 2634POPC   D2A36532  38.204  29.474   8.510
 2634POPC   C3A36533  38.422  29.336   8.116
 2634POPC   C4A36534  38.535  29.166   7.709
 2634POPC   C1B36535  38.212  28.872   8.785
 2634POPC   C2B36536  38.151  28.971   8.362
 2634POPC   C3B36537  38.215  28.841   7.971
 2634POPC   C4B36538  38.077  28.902   7.573
 2635POPC   NC336539   2.989   0.073   9.479
 2635POPC   PO436540   3.647  44.828   9.535
 2635POPC   GL136541   3.523  44.708   9.135
 2635POPC   GL236542   3.748  44.417   9.117
 2635POPC   C1A36543   3.324  44.723   8.718
 2635POPC   D2A36544   3.223  44.905   8.312
 2635POPC   C3A36545   3.388  44.727   7.933
 2635POPC   C4A36546   3.235  44.649   7.521
 2635POPC   C1B36547   3.556  44.273   8.752
 2635POPC   C2B36548   3.491  44.399   8.300
 2635POPC   C3B36549   3.452  44.221   7.845
 2635POPC   C4B36550   3.548  44.272   7.386
 2636POPC   NC336551   9.272  33.625   9.504
 2636POPC   PO436552   8.849  34.088   9.751
 2636POPC   GL136553   9.056  34.013   9.274
 2636POPC   GL236554   9.266  34.248   9.135
 2636POPC   C1A36555   8.947  33.938   8.790
 2636POPC   D2A36556   8.768  34.029   8.360
 2636POPC   C3A36557   8.884  33.806   7.955
 2636POPC   C4A36558   9.037  33.710   7.538
 2636POPC   C1B36559   9.410  34.142   8.703
 2636POPC   C2B36560   9.238  34.215   8.262
 2636POPC   C3B36561   9.258  34.112   7.792
 2636POPC   C4B36562   9.442  34.160   7.330
 2637POPC   NC336563   8.536  25.228   9.489
 2637POPC   PO436564   7.846  25.530   9.343
 2637POPC   GL136565   8.127  25.206   9.147
 2637POPC   GL236566   7.994  25.371   8.859
 2637POPC   C1A36567   8.408  25.098   8.776
 2637POPC   D2A36568   8.306  25.273   8.386
 2637POPC   C3A36569   8.555  25.244   8.030
 2637POPC   C4A36570   8.472  25.326   7.633
 2637POPC   C1B36571   7.931  24.988   8.619
 2637POPC   C2B36572   7.932  24.971   8.179
 2637POPC   C3B36573   8.063  25.027   7.744
 2637POPC   C4B36574   7.841  24.969   7.375
 2638POPC   NC336575  22.339  26.353   9.384
 2638POPC   PO436576  22.057  25.778   9.581
 2638POPC   GL136577  22.049  25.678   9.159
 2638POPC   GL236578  22.253  25.957   9.050
 2638POPC   C1A36579  22.037  25.633   8.711
 2638POPC   D2A36580  22.345  25.777   8.423
 2638POPC   C3A36581  22.262  26.026   8.053
 2638POPC   C4A36582  22.308  25.790   7.667
 2638POPC   C1B36583  22.269  26.260   8.687
 2638POPC   C2B36584  22.293  26.492   8.304
 2638POPC   C3B36585  22.385  26.524   7.898
 2638POPC   C4B36586  22.222  26.276   7.584
 2639POPC   NC336587   6.071  43.726   9.430
 2639POPC   PO436588   5.744  44.158   9.728
 2639POPC   GL136589   5.874  44.116   9.181
 2639POPC   GL236590   5.966  43.821   8.959
 2639POPC   C1A36591   5.676  44.129   8.711
 2639POPC   D2A36592   5.726  43.747   8.405
 2639POPC   C3A36593   5.602  43.828   7.969
 2639POPC   C4A36594   5.736  44.234   7.725
 2639POPC   C1B36595   6.139  43.542   8.699
 2639POPC   C2B36596   6.369  43.661   8.364
 2639POPC   C3B36597   6.130  43.954   8.147
 2639POPC   C4B36598   6.058  43.832   7.765
 2640POPC   NC336599  41.888  42.021   9.301
 2640POPC   PO436600  41.495  41.461   9.523
 2640POPC   GL136601  41.560  41.618   9.173
 2640POPC   GL236602  41.406  41.944   9.194
 2640POPC   C1A36603  41.515  41.374   8.799
 2640POPC   D2A36604  41.385  41.334   8.369
 2640POPC   C3A36605  41.616  41.540   8.034
 2640POPC   C4A36606  41.564  41.487   7.590
 2640POPC   C1B36607  41.556  41.913   8.757
 2640POPC   C2B36608  41.507  42.128   8.403
 2640POPC   C3B36609  41.372  41.986   8.045
 2640POPC   C4B36610  41.500  41.977   7.638
 2641POPC   NC336611  28.523  16.147   9.464
 2641POPC   PO436612  28.128  15.667   9.576
 2641POPC   GL136613  28.320  15.755   9.180
 2641POPC   GL236614  28.557  15.554   9.037
 2641POPC   C1A36615  28.483  16.047   8.844
 2641POPC   D2A36616  28.271  16.127   8.473
 2641POPC   C3A36617  28.544  16.240   8.166
 2641POPC   C4A36618  28.565  16.242   7.741
 2641POPC   C1B36619  28.293  15.630   8.655
 2641POPC   C2B36620  28.377  15.455   8.274
 2641POPC   C3B36621  28.454  15.733   7.964
 2641POPC   C4B36622  28.076  15.853   7.803
 2642POPC   NC336623  11.448  34.307   9.686
 2642POPC   PO436624  10.980  34.717   9.456
 2642POPC   GL136625  11.258  34.496   9.151
 2642POPC   GL236626  11.600  34.359   9.208
 2642POPC   C1A36627  11.336  34.633   8.711
 2642POPC   D2A36628  11.275  34.817   8.294
 2642POPC   C3A36629  11.357  34.566   7.937
 2642POPC   C4A36630  11.489  34.780   7.562
 2642POPC   C1B36631  11.590  34.183   8.795
 2642POPC   C2B36632  11.480  34.273   8.367
 2642POPC   C3B36633  11.615  34.128   7.969
 2642POPC   C4B36634  11.426  34.163   7.577
 2643POPC   NC336635   5.571   7.218   9.308
 2643POPC   PO436636   4.964   7.596   9.485
 2643POPC   GL136637   5.173   7.522   9.112
 2643POPC   GL236638   5.362   7.810   9.030
 2643POPC   C1A36639   4.911   7.386   8.758
 2643POPC   D2A36640   4.722   7.592   8.413
 2643POPC   C3A36641   4.921   7.500   8.010
 2643POPC   C4A36642   4.881   7.573   7.549
 2643POPC   C1B36643   5.294   7.700   8.620
 2643POPC   C2B36644   5.292   7.321   8.362
 2643POPC   C3B36645   5.427   7.289   7.946
 2643POPC   C4B36646   5.350   7.651   7.735
 2644POPC   NC336647   5.913  13.262   9.525
 2644POPC   PO436648   5.589  12.682   9.588
 2644POPC   GL136649   5.607  12.968   9.241
 2644POPC   GL236650   5.949  12.873   9.180
 2644POPC   C1A36651   5.555  12.916   8.797
 2644POPC   D2A36652   5.733  12.587   8.517
 2644POPC   C3A36653   5.511  12.611   8.155
 2644POPC   C4A36654   5.452  12.895   7.784
 2644POPC   C1B36655   5.962  13.238   8.880
 2644POPC   C2B36656   5.895  13.329   8.435
 2644POPC   C3B36657   5.852  13.018   8.096
 2644POPC   C4B36658   6.006  12.604   8.008
 2645POPC   NC336659   1.145   8.828   9.631
 2645POPC   PO436660   1.568   8.880   9.124
 2645POPC   GL136661   1.135   8.896   9.095
 2645POPC   GL236662   1.071   9.187   9.237
 2645POPC   C1A36663   0.993   8.936   8.681
 2645POPC   D2A36664   1.259   9.022   8.321
 2645POPC   C3A36665   1.209   8.861   7.886
 2645POPC   C4A36666   1.363   8.601   7.526
 2645POPC   C1B36667   1.276   9.365   8.825
 2645POPC   C2B36668   1.302   9.527   8.421
 2645POPC   C3B36669   1.270   9.415   7.985
 2645POPC   C4B36670   1.124   9.280   7.587
 2646POPC   NC336671   1.734  42.938   9.588
 2646POPC   PO436672   1.082  43.098   9.411
 2646POPC   GL136673   1.096  43.360   9.051
 2646POPC   GL236674   0.752  43.303   9.079
 2646POPC   C1A36675   1.196  43.356   8.621
 2646POPC   D2A36676   1.173  43.068   8.240
 2646POPC   C3A36677   1.537  42.921   8.001
 2646POPC   C4A36678   1.545  42.960   7.558
 2646POPC   C1B36679   0.721  43.149   8.673
 2646POPC   C2B36680   0.787  43.398   8.290
 2646POPC   C3B36681   0.909  43.360   7.858
 2646POPC   C4B36682   0.748  43.160   7.452
 2647POPC   NC336683  39.643  25.368   9.575
 2647POPC   PO436684  39.013  25.168   9.475
 2647POPC   GL136685  39.298  25.104   9.109
 2647POPC   GL236686  39.488  25.415   9.097
 2647POPC   C1A36687  39.224  25.021   8.645
 2647POPC   D2A36688  39.521  24.928   8.271
 2647POPC   C3A36689  39.332  25.080   7.898
 2647POPC   C4A36690  38.937  25.310   7.819
 2647POPC   C1B36691  39.377  25.605   8.721
 2647POPC   C2B36692  39.187  25.527   8.321
 2647POPC   C3B36693  39.406  25.597   7.931
 2647POPC   C4B36694  39.310  25.571   7.506
 2648POPC   NC336695   1.150  30.472   9.456
 2648POPC   PO436696   1.597  30.931   9.252
 2648POPC   GL136697   1.341  30.631   8.969
 2648POPC   GL236698   1.116  30.320   8.979
 2648POPC   C1A36699   1.267  30.552   8.525
 2648POPC   D2A36700   0.994  30.779   8.236
 2648POPC   C3A36701   1.148  31.028   7.863
 2648POPC   C4A36702   1.306  30.822   7.476
 2648POPC   C1B36703   1.163  30.038   8.608
 2648POPC   C2B36704   1.335  30.131   8.209
 2648POPC   C3B36705   1.308  30.483   7.923
 2648POPC   C4B36706   0.921  30.564   7.738
 2649POPC   NC336707  26.294  43.151   9.651
 2649POPC   PO436708  25.720  43.480   9.436
 2649POPC   GL136709  26.080  43.282   9.189
 2649POPC   GL236710  26.051  42.961   9.008
 2649POPC   C1A36711  26.066  43.379   8.744
 2649POPC   D2A36712  25.824  43.235   8.414
 2649POPC   C3A36713  25.988  43.245   8.003
 2649POPC   C4A36714  26.287  43.228   7.670
 2649POPC   C1B36715  25.830  42.780   8.679
 2649POPC   C2B36716  25.860  42.775   8.238
 2649POPC   C3B36717  25.668  42.849   7.877
 2649POPC   C4B36718  26.014  42.795   7.645
 2650POPC   NC336719  26.993  26.960   9.598
 2650POPC   PO436720  26.390  26.878   9.784
 2650POPC   GL136721  26.529  26.850   9.292
 2650POPC   GL236722  26.467  26.494   9.140
 2650POPC   C1A36723  26.850  26.966   8.923
 2650POPC   D2A36724  26.909  27.188   8.486
 2650POPC   C3A36725  27.125  27.035   8.115
 2650POPC   C4A36726  26.975  26.988   7.688
 2650POPC   C1B36727  26.480  26.670   8.700
 2650POPC   C2B36728  26.722  26.745   8.312
 2650POPC   C3B36729  26.642  26.643   7.875
 2650POPC   C4B36730  26.910  26.510   7.521
 2651POPC   NC336731  41.908  43.786   9.394
 2651POPC   PO436732  41.322  44.012   9.557
 2651POPC   GL136733  41.371  44.086   9.103
 2651POPC   GL236734  41.736  44.062   8.985
 2651POPC   C1A36735  41.362  44.008   8.640
 2651POPC   D2A36736  41.762  43.963   8.379
 2651POPC   C3A36737  41.612  43.955   7.946
 2651POPC   C4A36738  41.163  44.099   7.843
 2651POPC   C1B36739  41.615  43.619   8.820
 2651POPC   C2B36740  41.498  43.496   8.389
 2651POPC   C3B36741  41.710  43.395   8.011
 2651POPC   C4B36742  41.704  43.599   7.589
 2652POPC   NC336743  35.637  40.305   9.376
 2652POPC   PO436744  34.959  40.382   9.415
 2652POPC   GL136745  35.187  40.212   9.108
 2652POPC   GL236746  35.309  39.872   9.223
 2652POPC   C1A36747  35.435  40.209   8.764
 2652POPC   D2A36748  35.490  40.005   8.369
 2652POPC   C3A36749  35.504  40.198   7.980
 2652POPC   C4A36750  35.469  39.987   7.586
 2652POPC   C1B36751  35.188  39.764   8.799
 2652POPC   C2B36752  35.009  39.868   8.412
 2652POPC   C3B36753  35.186  39.764   8.004
 2652POPC   C4B36754  34.950  39.597   7.688
 2653POPC   NC336755  27.943  25.204   9.516
 2653POPC   PO436756  28.506  25.343   9.632
 2653POPC   GL136757  28.322  25.400   9.218
 2653POPC   GL236758  28.217  25.055   9.117
 2653POPC   C1A36759  28.238  25.409   8.757
 2653POPC   D2A36760  28.033  25.423   8.362
 2653POPC   C3A36761  28.289  25.401   7.982
 2653POPC   C4A36762  28.526  25.134   7.714
 2653POPC   C1B36763  28.309  24.885   8.672
 2653POPC   C2B36764  28.356  24.904   8.173
 2653POPC   C3B36765  28.178  24.706   7.794
 2653POPC   C4B36766  27.960  24.678   7.404
 2654POPC   NC336767   9.952  41.070   9.892
 2654POPC   PO436768   9.408  40.727   9.616
 2654POPC   GL136769   9.559  40.627   9.190
 2654POPC   GL236770   9.819  40.787   9.031
 2654POPC   C1A36771   9.349  40.648   8.787
 2654POPC   D2A36772   9.176  40.564   8.375
 2654POPC   C3A36773   9.542  40.612   8.141
 2654POPC   C4A36774   9.597  40.683   7.701
 2654POPC   C1B36775   9.880  40.441   8.765
 2654POPC   C2B36776  10.031  40.571   8.364
 2654POPC   C3B36777  10.022  40.550   7.932
 2654POPC   C4B36778  10.072  40.909   7.678
 2655POPC   NC336779   6.401  27.679   9.643
 2655POPC   PO436780   7.066  27.749   9.789
 2655POPC   GL136781   6.844  27.751   9.355
 2655POPC   GL236782   6.584  27.488   9.228
 2655POPC   C1A36783   6.731  27.800   8.891
 2655POPC   D2A36784   6.641  27.595   8.521
 2655POPC   C3A36785   6.806  27.723   8.126
 2655POPC   C4A36786   6.638  27.680   7.733
 2655POPC   C1B36787   6.284  27.428   8.915
 2655POPC   C2B36788   6.176  27.366   8.480
 2655POPC   C3B36789   6.382  27.417   8.098
 2655POPC   C4B36790   6.519  27.159   7.786
 2656POPC   NC336791  24.631  26.453   9.500
 2656POPC   PO436792  24.478  25.791   9.703
 2656POPC   GL136793  24.430  25.882   9.257
 2656POPC   GL236794  24.241  26.212   9.218
 2656POPC   C1A36795  24.385  25.690   8.836
 2656POPC   D2A36796  24.556  25.823   8.439
 2656POPC   C3A36797  24.433  25.766   8.003
 2656POPC   C4A36798  24.435  25.763   7.564
 2656POPC   C1B36799  24.560  26.199   8.874
 2656POPC   C2B36800  24.697  26.326   8.486
 2656POPC   C3B36801  24.770  26.169   8.082
 2656POPC   C4B36802  24.740  26.258   7.664
 2657POPC   NC336803  18.773   2.395   9.775
 2657POPC   PO436804  18.653   1.831   9.244
 2657POPC   GL136805  19.016   1.901   9.019
 2657POPC   GL236806  19.170   2.203   9.027
 2657POPC   C1A36807  18.973   1.846   8.607
 2657POPC   D2A36808  18.624   1.807   8.338
 2657POPC   C3A36809  18.857   1.834   7.950
 2657POPC   C4A36810  19.237   1.786   7.743
 2657POPC   C1B36811  18.991   2.394   8.693
 2657POPC   C2B36812  19.176   2.262   8.325
 2657POPC   C3B36813  19.160   2.323   7.909
 2657POPC   C4B36814  18.771   2.294   7.655
 2658POPC   NC336815   7.320  10.795   9.617
 2658POPC   PO436816   7.002  10.252   9.781
 2658POPC   GL136817   7.245  10.412   9.284
 2658POPC   GL236818   7.458  10.722   9.144
 2658POPC   C1A36819   7.148  10.543   8.802
 2658POPC   D2A36820   7.298  10.886   8.476
 2658POPC   C3A36821   7.257  10.705   8.048
 2658POPC   C4A36822   7.271  10.346   7.763
 2658POPC   C1B36823   7.731  10.859   8.804
 2658POPC   C2B36824   8.049  10.960   8.470
 2658POPC   C3B36825   7.879  10.949   8.034
 2658POPC   C4B36826   7.671  10.657   7.732
 2659POPC   NC336827  10.399  16.892   9.517
 2659POPC   PO436828  10.237  16.243   9.556
 2659POPC   GL136829  10.387  16.440   9.165
 2659POPC   GL236830  10.485  16.780   9.033
 2659POPC   C1A36831  10.235  16.464   8.727
 2659POPC   D2A36832  10.346  16.714   8.344
 2659POPC   C3A36833  10.302  16.513   7.922
 2659POPC   C4A36834  10.591  16.491   7.561
 2659POPC   C1B36835  10.747  16.594   8.713
 2659POPC   C2B36836  10.869  16.630   8.269
 2659POPC   C3B36837  10.711  16.867   7.882
 2659POPC   C4B36838  10.966  16.840   7.451
 2660POPC   NC336839   8.051   9.308   9.579
 2660POPC   PO436840   8.240   9.896   9.395
 2660POPC   GL136841   7.915   9.682   9.229
 2660POPC   GL236842   8.174   9.469   9.123
 2660POPC   C1A36843   7.796   9.571   8.814
 2660POPC   D2A36844   7.900   9.756   8.416
 2660POPC   C3A36845   7.798   9.558   8.047
 2660POPC   C4A36846   7.805   9.781   7.667
 2660POPC   C1B36847   8.304   9.686   8.745
 2660POPC   C2B36848   8.536   9.772   8.382
 2660POPC   C3B36849   8.598   9.681   7.998
 2660POPC   C4B36850   8.252   9.504   7.815
 2661POPC   NC336851   7.990  42.011   9.731
 2661POPC   PO436852   8.456  42.418   9.484
 2661POPC   GL136853   8.233  42.411   9.141
 2661POPC   GL236854   8.055  42.095   9.214
 2661POPC   C1A36855   8.329  42.650   8.764
 2661POPC   D2A36856   8.161  42.560   8.349
 2661POPC   C3A36857   8.268  42.212   8.074
 2661POPC   C4A36858   8.322  42.373   7.664
 2661POPC   C1B36859   7.814  41.933   8.875
 2661POPC   C2B36860   7.854  41.966   8.444
 2661POPC   C3B36861   7.743  42.286   8.136
 2661POPC   C4B36862   7.807  42.190   7.727
 2662POPC   NC336863  13.430  36.895   9.591
 2662POPC   PO436864  14.010  37.333   9.556
 2662POPC   GL136865  13.731  37.047   9.189
 2662POPC   GL236866  13.570  36.690   9.155
 2662POPC   C1A36867  13.662  36.924   8.728
 2662POPC   D2A36868  13.461  37.058   8.342
 2662POPC   C3A36869  13.759  36.983   8.020
 2662POPC   C4A36870  13.772  37.220   7.676
 2662POPC   C1B36871  13.238  36.510   8.896
 2662POPC   C2B36872  13.178  36.582   8.480
 2662POPC   C3B36873  13.392  36.621   8.080
 2662POPC   C4B36874  13.298  36.959   7.803
 2663POPC   NC336875  25.261  26.885   9.479
 2663POPC   PO436876  25.511  27.471   9.300
 2663POPC   GL136877  25.500  27.041   8.970
 2663POPC   GL236878  25.317  26.726   9.019
 2663POPC   C1A36879  25.265  26.937   8.572
 2663POPC   D2A36880  25.171  26.961   8.132
 2663POPC   C3A36881  25.490  26.864   7.839
 2663POPC   C4A36882  25.404  26.973   7.418
 2663POPC   C1B36883  25.197  26.399   8.725
 2663POPC   C2B36884  25.152  26.471   8.301
 2663POPC   C3B36885  25.165  26.482   7.872
 2663POPC   C4B36886  25.203  26.507   7.420
 2664POPC   NC336887  27.069  36.646   9.477
 2664POPC   PO436888  26.425  36.925   9.456
 2664POPC   GL136889  26.672  36.733   9.159
 2664POPC   GL236890  26.896  37.015   9.126
 2664POPC   C1A36891  26.958  36.659   8.795
 2664POPC   D2A36892  26.902  36.905   8.432
 2664POPC   C3A36893  27.150  36.790   8.091
 2664POPC   C4A36894  27.021  37.108   7.813
 2664POPC   C1B36895  26.564  37.084   8.811
 2664POPC   C2B36896  26.403  37.260   8.435
 2664POPC   C3B36897  26.550  37.126   8.047
 2664POPC   C4B36898  26.435  37.242   7.639
 2665POPC   NC336899  26.768  18.849   9.382
 2665POPC   PO436900  27.089  19.510   9.331
 2665POPC   GL136901  26.918  19.223   9.070
 2665POPC   GL236902  26.585  19.328   8.936
 2665POPC   C1A36903  26.951  19.080   8.662
 2665POPC   D2A36904  26.710  19.348   8.388
 2665POPC   C3A36905  26.867  19.224   8.003
 2665POPC   C4A36906  26.792  18.847   7.794
 2665POPC   C1B36907  26.462  18.952   8.665
 2665POPC   C2B36908  26.460  18.925   8.198
 2665POPC   C3B36909  26.367  19.077   7.766
 2665POPC   C4B36910  26.430  18.919   7.344
 2666POPC   NC336911  29.383   9.968   9.375
 2666POPC   PO436912  28.951   9.523   9.372
 2666POPC   GL136913  29.101   9.688   9.022
 2666POPC   GL236914  29.406   9.532   9.034
 2666POPC   C1A36915  28.997   9.694   8.601
 2666POPC   D2A36916  28.938   9.487   8.233
 2666POPC   C3A36917  28.999   9.712   7.899
 2666POPC   C4A36918  28.863  10.089   7.810
 2666POPC   C1B36919  29.553   9.731   8.714
 2666POPC   C2B36920  29.426   9.620   8.321
 2666POPC   C3B36921  29.384   9.351   7.997
 2666POPC   C4B36922  29.481   9.669   7.744
 2667POPC   NC336923   3.001  38.252   9.617
 2667POPC   PO436924   3.664  38.166   9.727
 2667POPC   GL136925   3.618  38.352   9.289
 2667POPC   GL236926   3.256  38.294   9.159
 2667POPC   C1A36927   3.653  38.318   8.803
 2667POPC   D2A36928   3.562  38.304   8.336
 2667POPC   C3A36929   3.765  38.587   8.055
 2667POPC   C4A36930   3.627  38.797   7.680
 2667POPC   C1B36931   3.109  38.338   8.713
 2667POPC   C2B36932   3.151  38.617   8.349
 2667POPC   C3B36933   3.261  38.554   7.940
 2667POPC   C4B36934   3.308  38.146   7.768
 2668POPC   NC336935  33.517  24.457   9.386
 2668POPC   PO436936  32.811  24.334   9.578
 2668POPC   GL136937  32.908  24.680   9.310
 2668POPC   GL236938  33.030  24.430   9.072
 2668POPC   C1A36939  32.764  24.829   8.908
 2668POPC   D2A36940  32.857  24.584   8.561
 2668POPC   C3A36941  32.811  24.690   8.139
 2668POPC   C4A36942  32.964  24.864   7.748
 2668POPC   C1B36943  33.348  24.315   8.780
 2668POPC   C2B36944  33.627  24.393   8.462
 2668POPC   C3B36945  33.387  24.430   8.104
 2668POPC   C4B36946  33.053  24.317   7.863
 2669POPC   NC336947  28.081  22.814   9.538
 2669POPC   PO436948  28.695  22.998   9.233
 2669POPC   GL136949  28.321  22.899   9.093
 2669POPC   GL236950  28.174  23.232   9.226
 2669POPC   C1A36951  28.345  22.742   8.667
 2669POPC   D2A36952  28.545  22.940   8.281
 2669POPC   C3A36953  28.406  22.862   7.844
 2669POPC   C4A36954  28.181  22.642   7.439
 2669POPC   C1B36955  28.031  23.183   8.791
 2669POPC   C2B36956  28.154  23.263   8.397
 2669POPC   C3B36957  28.012  23.178   8.013
 2669POPC   C4B36958  28.051  23.126   7.608
 2670POPC   NC336959  44.063  15.092   9.784
 2670POPC   PO436960  43.610  15.520   9.538
 2670POPC   GL136961  43.927  15.293   9.270
 2670POPC   GL236962  43.914  14.931   9.102
 2670POPC   C1A36963  43.859  15.326   8.821
 2670POPC   D2A36964  43.681  15.204   8.458
 2670POPC   C3A36965  44.021  15.289   8.170
 2670POPC   C4A36966  43.969  15.326   7.726
 2670POPC   C1B36967  43.802  14.701   8.747
 2670POPC   C2B36968  43.946  14.795   8.341
 2670POPC   C3B36969  43.765  14.913   7.952
 2670POPC   C4B36970  43.840  14.887   7.497
 2671POPC   NC336971   5.655  21.728   9.678
 2671POPC   PO436972   6.041  22.309   9.475
 2671POPC   GL136973   5.842  22.320   9.113
 2671POPC   GL236974   5.692  22.044   9.163
 2671POPC   C1A36975   5.903  22.426   8.696
 2671POPC   D2A36976   5.916  22.190   8.317
 2671POPC   C3A36977   5.999  22.410   7.951
 2671POPC   C4A36978   5.805  22.325   7.582
 2671POPC   C1B36979   5.763  21.923   8.744
 2671POPC   C2B36980   5.538  21.810   8.376
 2671POPC   C3B36981   5.607  21.963   7.960
 2671POPC   C4B36982   6.046  21.912   7.860
 2672POPC   NC336983  14.643  30.302   9.443
 2672POPC   PO436984  15.241  30.587   9.611
 2672POPC   GL136985  15.272  30.775   9.211
 2672POPC   GL236986  15.016  30.557   9.117
 2672POPC   C1A36987  15.191  30.881   8.740
 2672POPC   D2A36988  15.333  30.642   8.353
 2672POPC   C3A36989  15.212  30.758   7.979
 2672POPC   C4A36990  15.123  31.152   7.901
 2672POPC   C1B36991  15.173  30.366   8.737
 2672POPC   C2B36992  15.364  30.128   8.396
 2672POPC   C3B36993  15.491  30.280   7.971
 2672POPC   C4B36994  15.268  30.427   7.599
 2673POPC   NC336995  29.584  35.507   9.438
 2673POPC   PO436996  30.198  35.597   9.192
 2673POPC   GL136997  30.051  35.257   8.999
 2673POPC   GL236998  29.709  35.345   8.983
 2673POPC   C1A36999  29.975  35.101   8.596
 2673POPC   D2A37000  29.620  35.368   8.399
 2673POPC   C3A37001  29.657  35.383   7.972
 2673POPC   C4A37002  30.100  35.351   7.872
 2673POPC   C1B37003  29.513  35.030   8.762
 2673POPC   C2B37004  29.568  34.865   8.352
 2673POPC   C3B37005  29.826  34.904   7.977
 2673POPC   C4B37006  29.697  35.037   7.560
 2674POPC   NC337007  23.763  26.813   9.593
 2674POPC   PO437008  23.186  27.039   9.405
 2674POPC   GL137009  23.628  27.041   9.152
 2674POPC   GL237010  23.914  26.755   9.123
 2674POPC   C1A37011  23.757  26.998   8.709
 2674POPC   D2A37012  23.459  26.941   8.378
 2674POPC   C3A37013  23.656  26.978   8.010
 2674POPC   C4A37014  23.491  27.019   7.632
 2674POPC   C1B37015  23.683  26.484   8.849
 2674POPC   C2B37016  23.800  26.542   8.440
 2674POPC   C3B37017  23.776  26.482   8.027
 2674POPC   C4B37018  23.787  26.620   7.601
 2675POPC   NC337019  34.340  17.394   9.502
 2675POPC   PO437020  33.729  17.796   9.453
 2675POPC   GL137021  33.915  17.476   9.150
 2675POPC   GL237022  34.194  17.587   9.058
 2675POPC   C1A37023  33.794  17.398   8.711
 2675POPC   D2A37024  33.513  17.492   8.352
 2675POPC   C3A37025  33.852  17.436   8.098
 2675POPC   C4A37026  34.010  17.176   7.784
 2675POPC   C1B37027  34.002  17.866   8.802
 2675POPC   C2B37028  33.875  17.906   8.379
 2675POPC   C3B37029  34.050  17.899   7.978
 2675POPC   C4B37030  33.894  17.658   7.644
 2676POPC   NC337031   1.426   4.825   9.626
 2676POPC   PO437032   0.921   5.273   9.536
 2676POPC   GL137033   1.232   5.207   9.231
 2676POPC   GL237034   1.172   4.873   9.170
 2676POPC   C1A37035   1.228   5.281   8.782
 2676POPC   D2A37036   0.957   5.159   8.451
 2676POPC   C3A37037   1.126   5.002   8.099
 2676POPC   C4A37038   1.257   5.355   7.872
 2676POPC   C1B37039   1.026   4.760   8.774
 2676POPC   C2B37040   0.731   4.729   8.438
 2676POPC   C3B37041   0.653   4.770   8.018
 2676POPC   C4B37042   0.902   4.942   7.664
 2677POPC   NC337043   5.899  14.819   9.470
 2677POPC   PO437044   6.068  15.466   9.588
 2677POPC   GL137045   6.079  15.238   9.196
 2677POPC   GL237046   5.721  15.236   9.172
 2677POPC   C1A37047   5.964  15.068   8.774
 2677POPC   D2A37048   5.810  15.251   8.413
 2677POPC   C3A37049   6.048  15.325   8.079
 2677POPC   C4A37050   5.948  15.124   7.760
 2677POPC   C1B37051   5.660  15.549   8.853
 2677POPC   C2B37052   5.507  15.671   8.425
 2677POPC   C3B37053   5.580  15.522   8.013
 2677POPC   C4B37054   5.527  15.347   7.589
 2678POPC   NC337055  33.983  20.639   9.518
 2678POPC   PO437056  33.468  20.297   9.680
 2678POPC   GL137057  33.545  20.498   9.213
 2678POPC   GL237058  33.659  20.803   9.181
 2678POPC   C1A37059  33.542  20.542   8.773
 2678POPC   D2A37060  33.796  20.421   8.448
 2678POPC   C3A37061  33.650  20.639   8.096
 2678POPC   C4A37062  33.364  20.652   7.767
 2678POPC   C1B37063  33.966  20.890   8.834
 2678POPC   C2B37064  34.076  20.843   8.395
 2678POPC   C3B37065  34.084  21.018   7.983
 2678POPC   C4B37066  33.803  20.886   7.651
 2679POPC   NC337067  14.934  39.131   9.665
 2679POPC   PO437068  15.329  39.641   9.588
 2679POPC   GL137069  15.229  39.349   9.211
 2679POPC   GL237070  15.177  38.977   9.212
 2679POPC   C1A37071  15.217  39.254   8.747
 2679POPC   D2A37072  15.092  39.052   8.362
 2679POPC   C3A37073  15.198  39.202   7.954
 2679POPC   C4A37074  15.039  39.141   7.527
 2679POPC   C1B37075  15.490  38.853   8.880
 2679POPC   C2B37076  15.583  38.999   8.441
 2679POPC   C3B37077  15.506  38.793   8.018
 2679POPC   C4B37078  15.266  38.707   7.611
 2680POPC   NC337079  23.377  42.346   9.503
 2680POPC   PO437080  23.649  41.979   9.118
 2680POPC   GL137081  23.740  42.387   9.049
 2680POPC   GL237082  23.408  42.551   9.043
 2680POPC   C1A37083  23.686  42.522   8.628
 2680POPC   D2A37084  23.615  42.246   8.296
 2680POPC   C3A37085  23.671  42.473   7.945
 2680POPC   C4A37086  23.597  42.193   7.662
 2680POPC   C1B37087  23.217  42.369   8.643
 2680POPC   C2B37088  23.232  42.587   8.215
 2680POPC   C3B37089  23.199  42.573   7.728
 2680POPC   C4B37090  23.214  42.262   7.359
 2681POPC   NC337091  16.542  11.643   9.387
 2681POPC   PO437092  17.070  11.267   9.440
 2681POPC   GL137093  16.808  11.101   9.072
 2681POPC   GL237094  16.560  11.328   9.000
 2681POPC   C1A37095  16.762  11.117   8.603
 2681POPC   D2A37096  16.966  10.934   8.281
 2681POPC   C3A37097  16.942  11.191   7.942
 2681POPC   C4A37098  16.794  10.937   7.657
 2681POPC   C1B37099  16.474  11.552   8.616
 2681POPC   C2B37100  16.500  11.433   8.189
 2681POPC   C3B37101  16.641  11.637   7.809
 2681POPC   C4B37102  16.423  11.614   7.368
 2682POPC   NC337103  21.845  23.345   9.500
 2682POPC   PO437104  22.262  23.827   9.616
 2682POPC   GL137105  22.133  23.796   9.170
 2682POPC   GL237106  21.743  23.785   9.137
 2682POPC   C1A37107  22.333  23.680   8.742
 2682POPC   D2A37108  22.227  23.422   8.348
 2682POPC   C3A37109  22.319  23.589   7.901
 2682POPC   C4A37110  22.278  23.702   7.439
 2682POPC   C1B37111  21.898  23.968   8.740
 2682POPC   C2B37112  22.109  23.960   8.334
 2682POPC   C3B37113  21.896  23.975   7.929
 2682POPC   C4B37114  21.872  24.030   7.460
 2683POPC   NC337115  44.390  13.691   9.643
 2683POPC   PO437116  43.770  13.752   9.541
 2683POPC   GL137117  44.074  13.703   9.216
 2683POPC   GL237118  44.271  14.015   9.258
 2683POPC   C1A37119  43.947  13.524   8.806
 2683POPC   D2A37120  43.640  13.658   8.486
 2683POPC   C3A37121  43.806  13.517   8.089
 2683POPC   C4A37122  43.691  13.466   7.665
 2683POPC   C1B37123  44.216  13.955   8.799
 2683POPC   C2B37124  44.166  13.781   8.380
 2683POPC   C3B37125  44.025  13.953   7.978
 2683POPC   C4B37126  43.686  13.986   7.716
 2684POPC   NC337127   0.970  14.050   9.416
 2684POPC   PO437128   1.402  14.638   9.456
 2684POPC   GL137129   1.205  14.428   9.136
 2684POPC   GL237130   1.332  14.134   9.068
 2684POPC   C1A37131   1.106  14.462   8.715
 2684POPC   D2A37132   1.234  14.620   8.315
 2684POPC   C3A37133   1.005  14.433   7.975
 2684POPC   C4A37134   1.313  14.383   7.700
 2684POPC   C1B37135   1.045  13.957   8.765
 2684POPC   C2B37136   1.131  14.090   8.368
 2684POPC   C3B37137   1.303  13.990   8.021
 2684POPC   C4B37138   1.047  13.896   7.706
 2685POPC   NC337139  33.436  36.683   9.355
 2685POPC   PO437140  33.974  37.119   9.477
 2685POPC   GL137141  33.864  37.079   9.074
 2685POPC   GL237142  33.864  36.770   9.091
 2685POPC   C1A37143  33.817  37.001   8.637
 2685POPC   D2A37144  33.919  37.144   8.257
 2685POPC   C3A37145  33.589  37.087   7.966
 2685POPC   C4A37146  33.426  37.120   7.558
 2685POPC   C1B37147  34.169  36.630   8.785
 2685POPC   C2B37148  34.041  36.632   8.347
 2685POPC   C3B37149  34.015  36.767   7.901
 2685POPC   C4B37150  34.244  36.611   7.532
 2686POPC   NC337151   7.883  43.851   9.583
 2686POPC   PO437152   8.565  44.002   9.650
 2686POPC   GL137153   8.322  43.790   9.300
 2686POPC   GL237154   8.139  44.039   9.163
 2686POPC   C1A37155   8.160  43.639   8.854
 2686POPC   D2A37156   8.242  43.797   8.425
 2686POPC   C3A37157   8.421  43.531   8.067
 2686POPC   C4A37158   8.189  43.564   7.669
 2686POPC   C1B37159   7.947  44.096   8.747
 2686POPC   C2B37160   7.786  44.098   8.313
 2686POPC   C3B37161   7.988  43.959   7.934
 2686POPC   C4B37162   8.202  44.092   7.535
 2687POPC   NC337163  10.124   8.903   9.561
 2687POPC   PO437164   9.507   8.969   9.551
 2687POPC   GL137165   9.702   9.119   9.168
 2687POPC   GL237166  10.072   9.234   9.190
 2687POPC   C1A37167   9.536   9.009   8.750
 2687POPC   D2A37168   9.316   8.839   8.382
 2687POPC   C3A37169   9.352   9.122   8.030
 2687POPC   C4A37170   9.588   9.106   7.659
 2687POPC   C1B37171  10.049   8.883   8.856
 2687POPC   C2B37172   9.869   8.725   8.455
 2687POPC   C3B37173   9.910   8.804   8.002
 2687POPC   C4B37174  10.272   8.729   7.704
 2688POPC   NC337175  43.581  17.693   9.431
 2688POPC   PO437176  44.158  17.271   9.334
 2688POPC   GL137177  43.994  17.554   9.064
 2688POPC   GL237178  44.158  17.843   9.078
 2688POPC   C1A37179  43.775  17.509   8.691
 2688POPC   D2A37180  43.684  17.113   8.501
 2688POPC   C3A37181  43.689  17.248   8.091
 2688POPC   C4A37182  43.920  17.243   7.742
 2688POPC   C1B37183  44.195  17.787   8.612
 2688POPC   C2B37184  43.981  17.666   8.216
 2688POPC   C3B37185  44.201  17.679   7.855
 2688POPC   C4B37186  44.339  17.949   7.540
 2689POPC   NC337187   3.182  42.679   9.503
 2689POPC   PO437188   3.748  42.401   9.500
 2689POPC   GL137189   3.483  42.454   9.140
 2689POPC   GL237190   3.547  42.835   9.127
 2689POPC   C1A37191   3.469  42.183   8.748
 2689POPC   D2A37192   3.491  42.302   8.316
 2689POPC   C3A37193   3.530  42.046   7.958
 2689POPC   C4A37194   3.447  42.285   7.518
 2689POPC   C1B37195   3.562  42.706   8.678
 2689POPC   C2B37196   3.801  42.732   8.257
 2689POPC   C3B37197   3.773  42.477   7.862
 2689POPC   C4B37198   3.995  42.388   7.417
 2690POPC   NC337199  32.550  27.933   9.588
 2690POPC   PO437200  32.353  28.530   9.633
 2690POPC   GL137201  32.161  28.428   9.199
 2690POPC   GL237202  32.042  28.078   9.169
 2690POPC   C1A37203  32.101  28.628   8.772
 2690POPC   D2A37204  32.308  28.653   8.354
 2690POPC   C3A37205  32.203  28.616   7.922
 2690POPC   C4A37206  31.918  28.613   7.607
 2690POPC   C1B37207  31.909  28.156   8.768
 2690POPC   C2B37208  32.185  28.130   8.420
 2690POPC   C3B37209  32.452  28.193   8.080
 2690POPC   C4B37210  32.356  28.013   7.684
 2691POPC   NC337211  27.490  26.094   9.547
 2691POPC   PO437212  27.255  25.537   9.339
 2691POPC   GL137213  27.440  25.864   9.098
 2691POPC   GL237214  27.326  26.240   9.094
 2691POPC   C1A37215  27.733  26.053   8.829
 2691POPC   D2A37216  27.876  25.939   8.430
 2691POPC   C3A37217  27.616  26.116   8.167
 2691POPC   C4A37218  27.712  26.009   7.805
 2691POPC   C1B37219  27.181  26.059   8.711
 2691POPC   C2B37220  27.099  26.122   8.311
 2691POPC   C3B37221  27.204  25.896   7.959
 2691POPC   C4B37222  27.260  26.190   7.685
 2692POPC   NC337223  35.875  19.273   9.459
 2692POPC   PO437224  36.504  19.061   9.589
 2692POPC   GL137225  36.265  19.076   9.174
 2692POPC   GL237226  36.333  19.304   8.979
 2692POPC   C1A37227  36.120  18.868   8.780
 2692POPC   D2A37228  35.967  18.937   8.377
 2692POPC   C3A37229  36.243  18.854   8.069
 2692POPC   C4A37230  36.465  19.052   7.808
 2692POPC   C1B37231  35.908  19.346   8.802
 2692POPC   C2B37232  35.805  19.430   8.372
 2692POPC   C3B37233  36.205  19.405   8.127
 2692POPC   C4B37234  36.478  19.549   7.779
 2693POPC   NC337235  39.805   2.913   9.611
 2693POPC   PO437236  40.093   2.378   9.440
 2693POPC   GL137237  40.050   2.500   9.025
 2693POPC   GL237238  39.803   2.737   9.051
 2693POPC   C1A37239  39.866   2.506   8.602
 2693POPC   D2A37240  39.655   2.523   8.250
 2693POPC   C3A37241  39.996   2.526   7.982
 2693POPC   C4A37242  40.374   2.695   7.796
 2693POPC   C1B37243  39.617   2.954   8.690
 2693POPC   C2B37244  39.673   3.043   8.253
 2693POPC   C3B37245  39.700   2.923   7.822
 2693POPC   C4B37246  39.697   3.124   7.394
 2694POPC   NC337247   2.112  18.919   9.541
 2694POPC   PO437248   1.457  18.694   9.338
 2694POPC   GL137249   1.793  18.979   9.160
 2694POPC   GL237250   2.103  19.259   9.165
 2694POPC   C1A37251   2.081  18.902   8.811
 2694POPC   D2A37252   2.301  19.043   8.458
 2694POPC   C3A37253   2.253  18.749   8.141
 2694POPC   C4A37254   2.121  18.816   7.718
 2694POPC   C1B37255   1.795  19.326   8.806
 2694POPC   C2B37256   1.889  19.351   8.399
 2694POPC   C3B37257   2.032  19.211   8.043
 2694POPC   C4B37258   1.752  19.333   7.739
 2695POPC   NC337259  44.949  18.307   9.372
 2695POPC   PO437260  44.341  18.057   9.561
 2695POPC   GL137261  44.501  18.210   9.145
 2695POPC   GL237262  44.658  18.570   9.034
 2695POPC   C1A37263  44.512  18.200   8.703
 2695POPC   D2A37264  44.526  18.608   8.504
 2695POPC   C3A37265  44.501  18.672   8.055
 2695POPC   C4A37266  44.406  18.485   7.643
 2695POPC   C1B37267   0.002  18.436   8.712
 2695POPC   C2B37268   0.077  18.064   8.397
 2695POPC   C3B37269  44.990  17.859   7.951
 2695POPC   C4B37270  44.909  17.917   7.484
 2696POPC   NC337271  28.303  38.052   9.498
 2696POPC   PO437272  28.394  37.310   9.424
 2696POPC   GL137273  28.194  37.655   9.186
 2696POPC   GL237274  28.507  37.855   9.062
 2696POPC   C1A37275  28.094  37.826   8.770
 2696POPC   D2A37276  28.419  37.830   8.465
 2696POPC   C3A37277  28.326  37.849   8.048
 2696POPC   C4A37278  28.630  37.930   7.732
 2696POPC   C1B37279  28.547  37.490   8.832
 2696POPC   C2B37280  28.288  37.339   8.535
 2696POPC   C3B37281  28.279  37.340   8.078
 2696POPC   C4B37282  28.534  37.417   7.705
 2697POPC   NC337283  33.387   3.353   9.922
 2697POPC   PO437284  33.825   3.721   9.551
 2697POPC   GL137285  33.832   3.637   9.150
 2697POPC   GL237286  34.105   3.374   9.173
 2697POPC   C1A37287  33.629   3.667   8.744
 2697POPC   D2A37288  33.569   3.371   8.406
 2697POPC   C3A37289  33.548   3.540   8.002
 2697POPC   C4A37290  33.569   3.285   7.645
 2697POPC   C1B37291  34.120   3.516   8.751
 2697POPC   C2B37292  34.005   3.644   8.322
 2697POPC   C3B37293  34.019   3.408   7.912
 2697POPC   C4B37294  34.035   3.733   7.571
 2698POPC   NC337295  37.552   9.390   9.618
 2698POPC   PO437296  38.087   9.052   9.425
 2698POPC   GL137297  37.821   9.322   9.186
 2698POPC   GL237298  37.519   9.106   9.149
 2698POPC   C1A37299  37.840   9.277   8.766
 2698POPC   D2A37300  38.014   9.022   8.473
 2698POPC   C3A37301  37.769   9.034   8.104
 2698POPC   C4A37302  37.547   8.954   7.731
 2698POPC   C1B37303  37.295   8.891   8.787
 2698POPC   C2B37304  37.371   8.772   8.356
 2698POPC   C3B37305  37.186   8.611   7.961
 2698POPC   C4B37306  37.322   8.526   7.534
 2699POPC   NC337307  38.176  11.140   9.477
 2699POPC   PO437308  38.771  11.419   9.662
 2699POPC   GL137309  38.696  11.581   9.226
 2699POPC   GL237310  38.326  11.662   9.218
 2699POPC   C1A37311  38.771  11.376   8.794
 2699POPC   D2A37312  38.545  11.028   8.546
 2699POPC   C3A37313  38.544  11.066   8.081
 2699POPC   C4A37314  38.704  11.346   7.767
 2699POPC   C1B37315  38.262  11.401   8.839
 2699POPC   C2B37316  38.349  11.482   8.381
 2699POPC   C3B37317  38.231  11.487   7.917
 2699POPC   C4B37318  38.357  11.558   7.469
 2700POPC   NC337319  36.412   4.806   9.520
 2700POPC   PO437320  36.879   5.202   9.641
 2700POPC   GL137321  36.975   5.053   9.225
 2700POPC   GL237322  36.808   4.755   9.182
 2700POPC   C1A37323  36.828   5.148   8.790
 2700POPC   D2A37324  36.839   5.494   8.488
 2700POPC   C3A37325  36.792   5.408   8.044
 2700POPC   C4A37326  36.611   5.077   7.805
 2700POPC   C1B37327  37.091   4.698   8.837
 2700POPC   C2B37328  37.011   4.615   8.417
 2700POPC   C3B37329  37.019   4.610   7.968
 2700POPC   C4B37330  36.698   4.592   7.647
 2701POPC   NC337331  23.532  20.132   9.304
 2701POPC   PO437332  24.113  19.806   9.555
 2701POPC   GL137333  23.886  19.758   9.158
 2701POPC   GL237334  23.537  19.723   9.004
 2701POPC   C1A37335  23.956  19.975   8.766
 2701POPC   D2A37336  23.932  20.114   8.341
 2701POPC   C3A37337  23.956  19.843   7.979
 2701POPC   C4A37338  23.576  19.756   7.738
 2701POPC   C1B37339  23.461  20.009   8.619
 2701POPC   C2B37340  23.452  20.030   8.162
 2701POPC   C3B37341  23.256  20.154   7.757
 2701POPC   C4B37342  23.391  20.066   7.308
 2702POPC   NC337343  36.956  43.624   9.604
 2702POPC   PO437344  37.250  44.243   9.443
 2702POPC   GL137345  37.018  43.893   9.189
 2702POPC   GL237346  37.112  43.544   9.127
 2702POPC   C1A37347  36.744  43.776   8.832
 2702POPC   D2A37348  36.879  43.993   8.453
 2702POPC   C3A37349  36.850  43.799   8.066
 2702POPC   C4A37350  36.913  44.123   7.728
 2702POPC   C1B37351  37.242  43.759   8.761
 2702POPC   C2B37352  37.376  43.751   8.344
 2702POPC   C3B37353  37.304  44.019   8.044
 2702POPC   C4B37354  37.396  43.956   7.640
 2703POPC   NC337355  17.614   7.439   9.735
 2703POPC   PO437356  16.978   7.220   9.774
 2703POPC   GL137357  17.256   7.565   9.383
 2703POPC   GL237358  17.589   7.433   9.233
 2703POPC   C1A37359  17.372   7.646   8.840
 2703POPC   D2A37360  17.698   7.700   8.448
 2703POPC   C3A37361  17.553   7.581   8.009
 2703POPC   C4A37362  17.097   7.473   7.899
 2703POPC   C1B37363  17.666   7.223   8.823
 2703POPC   C2B37364  17.503   7.230   8.403
 2703POPC   C3B37365  17.704   7.061   8.062
 2703POPC   C4B37366  17.637   7.097   7.665
 2704POPC   NC337367   9.780  16.351   9.441
 2704POPC   PO437368   9.936  17.077   9.466
 2704POPC   GL137369   9.974  16.784   9.147
 2704POPC   GL237370   9.639  16.746   9.127
 2704POPC   C1A37371   9.941  16.885   8.703
 2704POPC   D2A37372  10.026  17.121   8.333
 2704POPC   C3A37373   9.926  16.864   8.017
 2704POPC   C4A37374   9.901  16.820   7.592
 2704POPC   C1B37375   9.401  16.861   8.784
 2704POPC   C2B37376   9.531  16.971   8.373
 2704POPC   C3B37377   9.413  16.976   7.923
 2704POPC   C4B37378   9.378  16.611   7.679
 2705POPC   NC337379  25.341   2.036   9.506
 2705POPC   PO437380  25.505   1.429   9.313
 2705POPC   GL137381  25.603   1.786   9.077
 2705POPC   GL237382  25.699   2.114   9.159
 2705POPC   C1A37383  25.352   2.007   8.763
 2705POPC   D2A37384  24.998   2.094   8.468
 2705POPC   C3A37385  25.087   2.039   8.034
 2705POPC   C4A37386  25.366   1.703   7.842
 2705POPC   C1B37387  25.775   2.283   8.748
 2705POPC   C2B37388  25.540   2.305   8.376
 2705POPC   C3B37389  25.607   2.146   7.997
 2705POPC   C4B37390  25.943   2.267   7.750
 2706POPC   NC337391   9.229  19.925   9.367
 2706POPC   PO437392   8.605  20.283   9.380
 2706POPC   GL137393   8.749  20.041   9.026
 2706POPC   GL237394   9.123  20.008   8.875
 2706POPC   C1A37395   8.687  19.736   8.710
 2706POPC   D2A37396   9.029  19.711   8.453
 2706POPC   C3A37397   8.902  19.800   8.060
 2706POPC   C4A37398   9.042  20.052   7.746
 2706POPC   C1B37399   9.431  19.627   8.792
 2706POPC   C2B37400   9.594  19.465   8.394
 2706POPC   C3B37401   9.495  19.651   7.985
 2706POPC   C4B37402   9.145  19.463   7.760
 2707POPC   NC337403   1.117  36.624   9.342
 2707POPC   PO437404   1.427  37.188   9.524
 2707POPC   GL137405   1.219  37.133   9.144
 2707POPC   GL237406   0.894  37.060   9.214
 2707POPC   C1A37407   1.389  36.991   8.751
 2707POPC   D2A37408   1.445  37.227   8.347
 2707POPC   C3A37409   1.473  37.164   7.889
 2707POPC   C4A37410   1.341  37.270   7.422
 2707POPC   C1B37411   0.882  36.996   8.758
 2707POPC   C2B37412   1.087  36.848   8.362
 2707POPC   C3B37413   1.079  36.860   7.914
 2707POPC   C4B37414   0.870  37.160   7.639
 2708POPC   NC337415   7.709  21.172   9.375
 2708POPC   PO437416   7.577  21.738   9.645
 2708POPC   GL137417   7.482  21.684   9.202
 2708POPC   GL237418   7.261  21.377   9.219
 2708POPC   C1A37419   7.609  21.491   8.794
 2708POPC   D2A37420   7.545  21.150   8.471
 2708POPC   C3A37421   7.426  21.312   8.053
 2708POPC   C4A37422   7.689  21.513   7.748
 2708POPC   C1B37423   7.173  21.170   8.830
 2708POPC   C2B37424   7.033  21.344   8.433
 2708POPC   C3B37425   6.924  21.188   8.028
 2708POPC   C4B37426   7.071  21.076   7.621
 2709POPC   NC337427  21.170   6.717  10.223
 2709POPC   PO437428  21.120   6.490   9.674
 2709POPC   GL137429  21.068   6.635   9.191
 2709POPC   GL237430  21.387   6.598   9.025
 2709POPC   C1A37431  20.967   6.473   8.738
 2709POPC   D2A37432  21.035   6.541   8.292
 2709POPC   C3A37433  20.828   6.442   7.897
 2709POPC   C4A37434  20.985   6.681   7.509
 2709POPC   C1B37435  21.467   6.619   8.567
 2709POPC   C2B37436  21.501   6.293   8.265
 2709POPC   C3B37437  21.744   6.262   7.863
 2709POPC   C4B37438  21.876   6.489   7.493
 2710POPC   NC337439  28.270   2.963   9.728
 2710POPC   PO437440  28.633   2.416   9.563
 2710POPC   GL137441  28.655   2.664   9.207
 2710POPC   GL237442  28.328   2.790   9.206
 2710POPC   C1A37443  28.645   2.756   8.760
 2710POPC   D2A37444  28.428   2.776   8.349
 2710POPC   C3A37445  28.754   2.827   8.066
 2710POPC   C4A37446  28.748   3.089   7.713
 2710POPC   C1B37447  28.146   2.686   8.779
 2710POPC   C2B37448  27.887   2.769   8.432
 2710POPC   C3B37449  27.955   2.817   8.033
 2710POPC   C4B37450  28.292   3.018   7.896
 2711POPC   NC337451  36.459  27.929   9.538
 2711POPC   PO437452  35.912  28.230   9.421
 2711POPC   GL137453  35.964  28.061   9.072
 2711POPC   GL237454  36.295  28.026   9.070
 2711POPC   C1A37455  36.054  28.302   8.715
 2711POPC   D2A37456  35.851  28.458   8.392
 2711POPC   C3A37457  35.966  28.180   8.080
 2711POPC   C4A37458  35.973  28.356   7.672
 2711POPC   C1B37459  36.594  28.126   8.743
 2711POPC   C2B37460  36.536  28.316   8.324
 2711POPC   C3B37461  36.453  28.223   7.861
 2711POPC   C4B37462  36.565  28.267   7.402
 2712POPC   NC337463   6.454  44.505   9.831
 2712POPC   PO437464   7.043  44.882   9.730
 2712POPC   GL137465   6.876  44.654   9.299
 2712POPC   GL237466   7.005  44.340   9.093
 2712POPC   C1A37467   6.596  44.567   8.877
 2712POPC   D2A37468   6.367  44.531   8.439
 2712POPC   C3A37469   6.488  44.623   7.997
 2712POPC   C4A37470   6.801  44.940   7.833
 2712POPC   C1B37471   6.955  44.268   8.660
 2712POPC   C2B37472   6.905  44.558   8.312
 2712POPC   C3B37473   6.942  44.432   7.895
 2712POPC   C4B37474   6.779  44.284   7.537
 2713POPC   NC337475   6.699  17.278   9.594
 2713POPC   PO437476   6.525  17.917   9.621
 2713POPC   GL137477   6.604  17.636   9.211
 2713POPC   GL237478   6.619  17.256   9.090
 2713POPC   C1A37479   6.511  17.607   8.767
 2713POPC   D2A37480   6.394  17.357   8.398
 2713POPC   C3A37481   6.503  17.400   7.959
 2713POPC   C4A37482   6.442  17.714   7.641
 2713POPC   C1B37483   6.828  17.226   8.698
 2713POPC   C2B37484   6.818  17.077   8.314
 2713POPC   C3B37485   7.007  17.351   8.032
 2713POPC   C4B37486   6.912  17.454   7.626
 2714POPC   NC337487  43.501  23.238   9.363
 2714POPC   PO437488  43.858  22.769   9.751
 2714POPC   GL137489  43.563  22.729   9.295
 2714POPC   GL237490  43.200  22.836   9.157
 2714POPC   C1A37491  43.572  22.684   8.837
 2714POPC   D2A37492  43.455  22.553   8.418
 2714POPC   C3A37493  43.264  22.780   8.074
 2714POPC   C4A37494  43.453  22.813   7.694
 2714POPC   C1B37495  43.215  23.041   8.725
 2714POPC   C2B37496  43.490  23.157   8.347
 2714POPC   C3B37497  43.379  23.267   7.908
 2714POPC   C4B37498  43.001  23.145   7.662
 2715POPC   NC337499  23.013   5.786   9.581
 2715POPC   PO437500  22.439   5.918   9.391
 2715POPC   GL137501  22.701   5.653   9.138
 2715POPC   GL237502  23.055   5.748   9.078
 2715POPC   C1A37503  22.747   5.513   8.725
 2715POPC   D2A37504  22.934   5.709   8.360
 2715POPC   C3A37505  22.734   5.815   7.959
 2715POPC   C4A37506  22.875   5.756   7.548
 2715POPC   C1B37507  23.160   6.102   8.836
 2715POPC   C2B37508  22.946   6.231   8.479
 2715POPC   C3B37509  22.983   6.253   8.046
 2715POPC   C4B37510  23.151   6.238   7.636
 2716POPC   NC337511   0.303  40.498   9.567
 2716POPC   PO437512  44.978  41.026   9.404
 2716POPC   GL137513   0.280  40.737   9.113
 2716POPC   GL237514   0.565  40.444   9.142
 2716POPC   C1A37515   0.346  40.646   8.687
 2716POPC   D2A37516   0.643  40.858   8.434
 2716POPC   C3A37517   0.405  40.986   8.074
 2716POPC   C4A37518   0.483  41.022   7.667
 2716POPC   C1B37519   0.794  40.461   8.762
 2716POPC   C2B37520   0.648  40.349   8.342
 2716POPC   C3B37521   0.757  40.610   7.980
 2716POPC   C4B37522   0.424  40.505   7.708
 2717POPC   NC337523  18.879  17.137   9.412
 2717POPC   PO437524  18.817  17.811   9.563
 2717POPC   GL137525  19.216  17.658   9.276
 2717POPC   GL237526  19.268  17.372   9.117
 2717POPC   C1A37527  19.297  17.821   8.837
 2717POPC   D2A37528  19.233  17.677   8.409
 2717POPC   C3A37529  19.032  17.688   8.021
 2717POPC   C4A37530  19.217  17.677   7.590
 2717POPC   C1B37531  19.079  17.308   8.735
 2717POPC   C2B37532  18.850  17.309   8.350
 2717POPC   C3B37533  18.879  17.155   7.940
 2717POPC   C4B37534  18.722  17.468   7.666
 2718POPC   NC337535   7.045  30.684   9.446
 2718POPC   PO437536   7.596  31.101   9.435
 2718POPC   GL137537   7.377  30.856   9.091
 2718POPC   GL237538   7.496  30.542   9.198
 2718POPC   C1A37539   7.322  30.793   8.633
 2718POPC   D2A37540   7.714  30.740   8.368
 2718POPC   C3A37541   7.677  30.517   7.967
 2718POPC   C4A37542   7.760  30.593   7.532
 2718POPC   C1B37543   7.624  30.410   8.776
 2718POPC   C2B37544   7.395  30.340   8.384
 2718POPC   C3B37545   7.140  30.401   8.047
 2718POPC   C4B37546   7.264  30.431   7.625
 2719POPC   NC337547  18.130  12.063   9.495
 2719POPC   PO437548  18.527  12.460   9.301
 2719POPC   GL137549  18.298  12.076   9.027
 2719POPC   GL237550  18.347  11.692   9.103
 2719POPC   C1A37551  18.251  11.941   8.600
 2719POPC   D2A37552  18.476  12.196   8.286
 2719POPC   C3A37553  18.280  12.150   7.897
 2719POPC   C4A37554  17.926  11.869   7.914
 2719POPC   C1B37555  18.548  11.537   8.708
 2719POPC   C2B37556  18.553  11.677   8.265
 2719POPC   C3B37557  18.388  11.646   7.888
 2719POPC   C4B37558  18.420  11.817   7.517
 2720POPC   NC337559  41.857   8.609  10.123
 2720POPC   PO437560  41.800   8.411   9.501
 2720POPC   GL137561  41.608   8.258   9.136
 2720POPC   GL237562  41.705   8.532   8.968
 2720POPC   C1A37563  41.375   8.212   8.742
 2720POPC   D2A37564  41.452   8.068   8.303
 2720POPC   C3A37565  41.325   8.220   7.904
 2720POPC   C4A37566  41.511   8.223   7.454
 2720POPC   C1B37567  41.847   8.401   8.545
 2720POPC   C2B37568  41.784   8.360   8.067
 2720POPC   C3B37569  41.745   7.936   7.803
 2720POPC   C4B37570  41.938   7.883   7.347
 2721POPC   NC337571  20.119  18.113   9.504
 2721POPC   PO437572  19.520  18.522   9.525
 2721POPC   GL137573  19.746  18.316   9.161
 2721POPC   GL237574  20.024  18.052   9.036
 2721POPC   C1A37575  19.813  18.383   8.735
 2721POPC   D2A37576  19.955  18.372   8.329
 2721POPC   C3A37577  19.690  18.451   7.965
 2721POPC   C4A37578  20.014  18.318   7.707
 2721POPC   C1B37579  19.982  17.879   8.680
 2721POPC   C2B37580  19.661  17.952   8.456
 2721POPC   C3B37581  19.769  17.943   8.050
 2721POPC   C4B37582  19.587  18.017   7.659
 2722POPC   NC337583  25.637  17.021   9.691
 2722POPC   PO437584  26.228  16.922   9.500
 2722POPC   GL137585  26.072  16.926   9.137
 2722POPC   GL237586  25.889  16.641   9.126
 2722POPC   C1A37587  26.101  17.012   8.719
 2722POPC   D2A37588  26.006  16.753   8.376
 2722POPC   C3A37589  26.374  16.665   8.114
 2722POPC   C4A37590  26.399  16.402   7.778
 2722POPC   C1B37591  25.628  17.012   8.935
 2722POPC   C2B37592  25.465  17.143   8.512
 2722POPC   C3B37593  25.604  17.003   8.095
 2722POPC   C4B37594  25.981  16.838   7.863
 2723POPC   NC337595   6.474   3.742   9.533
 2723POPC   PO437596   6.936   3.304   9.267
 2723POPC   GL137597   6.479   3.382   9.140
 2723POPC   GL237598   6.435   3.749   9.035
 2723POPC   C1A37599   6.391   3.362   8.705
 2723POPC   D2A37600   6.789   3.423   8.555
 2723POPC   C3A37601   6.838   3.437   8.140
 2723POPC   C4A37602   6.710   3.441   7.743
 2723POPC   C1B37603   6.446   3.869   8.612
 2723POPC   C2B37604   6.777   3.995   8.348
 2723POPC   C3B37605   6.792   3.936   7.926
 2723POPC   C4B37606   6.408   3.858   7.731
 2724POPC   NC337607   4.045  14.284   9.587
 2724POPC   PO437608   3.885  14.868   9.310
 2724POPC   GL137609   4.155  14.525   9.039
 2724POPC   GL237610   4.452  14.279   9.095
 2724POPC   C1A37611   4.136  14.164   8.723
 2724POPC   D2A37612   3.929  14.099   8.340
 2724POPC   C3A37613   4.215  14.311   8.062
 2724POPC   C4A37614   4.518  14.487   7.744
 2724POPC   C1B37615   4.755  14.202   8.713
 2724POPC   C2B37616   4.735  14.255   8.232
 2724POPC   C3B37617   4.584  13.991   7.892
 2724POPC   C4B37618   4.640  14.017   7.410
 2725POPC   NC337619  27.945  37.121   9.428
 2725POPC   PO437620  27.216  37.161   9.493
 2725POPC   GL137621  27.432  36.885   9.181
 2725POPC   GL237622  27.750  36.683   9.175
 2725POPC   C1A37623  27.582  37.003   8.778
 2725POPC   D2A37624  27.355  37.164   8.436
 2725POPC   C3A37625  27.533  37.182   8.048
 2725POPC   C4A37626  27.529  36.950   7.701
 2725POPC   C1B37627  27.737  36.499   8.776
 2725POPC   C2B37628  27.566  36.639   8.391
 2725POPC   C3B37629  27.695  36.560   7.992
 2725POPC   C4B37630  27.747  36.270   7.664
 2726POPC   NC337631   3.322   0.903   9.452
 2726POPC   PO437632   3.978   0.913   9.535
 2726POPC   GL137633   3.778   1.042   9.178
 2726POPC   GL237634   3.571   1.323   9.209
 2726POPC   C1A37635   3.853   1.221   8.761
 2726POPC   D2A37636   3.783   1.438   8.372
 2726POPC   C3A37637   3.894   1.190   8.027
 2726POPC   C4A37638   3.794   1.043   7.609
 2726POPC   C1B37639   3.371   1.071   8.843
 2726POPC   C2B37640   3.383   0.894   8.445
 2726POPC   C3B37641   3.203   1.063   8.103
 2726POPC   C4B37642   3.429   1.306   7.859
 2727POPC   NC337643  31.947  28.227   9.636
 2727POPC   PO437644  31.454  28.657   9.475
 2727POPC   GL137645  31.399  28.494   9.105
 2727POPC   GL237646  31.518  28.159   9.194
 2727POPC   C1A37647  31.549  28.575   8.708
 2727POPC   D2A37648  31.809  28.478   8.366
 2727POPC   C3A37649  31.586  28.553   8.028
 2727POPC   C4A37650  31.425  28.491   7.656
 2727POPC   C1B37651  31.396  28.075   8.774
 2727POPC   C2B37652  31.335  28.228   8.349
 2727POPC   C3B37653  31.402  28.045   7.938
 2727POPC   C4B37654  31.119  27.839   7.652
 2728POPC   NC337655  38.795  29.868   9.587
 2728POPC   PO437656  38.220  29.812   9.361
 2728POPC   GL137657  38.365  30.099   9.101
 2728POPC   GL237658  38.248  30.400   9.212
 2728POPC   C1A37659  38.527  29.934   8.731
 2728POPC   D2A37660  38.657  29.682   8.435
 2728POPC   C3A37661  38.456  29.843   8.080
 2728POPC   C4A37662  38.625  29.675   7.711
 2728POPC   C1B37663  38.195  30.500   8.797
 2728POPC   C2B37664  38.335  30.302   8.422
 2728POPC   C3B37665  38.173  30.285   8.032
 2728POPC   C4B37666  38.039  29.980   7.760
 2729POPC   NC337667  16.617  26.829   9.475
 2729POPC   PO437668  17.141  26.883   9.293
 2729POPC   GL137669  16.766  26.956   8.982
 2729POPC   GL237670  16.383  27.008   9.056
 2729POPC   C1A37671  16.677  26.890   8.524
 2729POPC   D2A37672  16.837  26.744   8.094
 2729POPC   C3A37673  17.031  27.050   7.777
 2729POPC   C4A37674  16.897  27.321   7.422
 2729POPC   C1B37675  16.257  26.671   8.780
 2729POPC   C2B37676  16.336  26.515   8.364
 2729POPC   C3B37677  16.329  26.679   7.963
 2729POPC   C4B37678  16.551  26.941   7.693
 2730POPC   NC337679  29.216  21.592   9.378
 2730POPC   PO437680  28.813  22.090   9.331
 2730POPC   GL137681  29.013  22.206   9.005
 2730POPC   GL237682  29.304  22.044   9.051
 2730POPC   C1A37683  29.024  22.052   8.595
 2730POPC   D2A37684  28.769  21.886   8.263
 2730POPC   C3A37685  28.959  22.147   7.971
 2730POPC   C4A37686  29.316  22.443   7.986
 2730POPC   C1B37687  29.518  21.955   8.642
 2730POPC   C2B37688  29.440  21.975   8.207
 2730POPC   C3B37689  29.406  21.954   7.758
 2730POPC   C4B37690  29.261  21.651   7.459
 2731POPC   NC337691  38.070  37.557   9.437
 2731POPC   PO437692  38.761  37.668   9.596
 2731POPC   GL137693  38.600  37.712   9.181
 2731POPC   GL237694  38.829  37.995   9.138
 2731POPC   C1A37695  38.289  37.636   8.817
 2731POPC   D2A37696  38.188  37.322   8.469
 2731POPC   C3A37697  38.297  37.505   8.075
 2731POPC   C4A37698  38.219  37.348   7.674
 2731POPC   C1B37699  38.554  38.141   8.821
 2731POPC   C2B37700  38.496  37.940   8.413
 2731POPC   C3B37701  38.734  37.805   8.033
 2731POPC   C4B37702  38.492  37.769   7.665
 2732POPC   NC337703  40.955  10.985   9.444
 2732POPC   PO437704  40.913  11.668   9.514
 2732POPC   GL137705  40.977  11.401   9.151
 2732POPC   GL237706  40.650  11.182   9.093
 2732POPC   C1A37707  40.856  11.530   8.772
 2732POPC   D2A37708  40.779  11.317   8.446
 2732POPC   C3A37709  40.829  11.453   8.056
 2732POPC   C4A37710  40.680  11.421   7.656
 2732POPC   C1B37711  40.555  10.931   8.728
 2732POPC   C2B37712  40.709  10.832   8.299
 2732POPC   C3B37713  40.519  10.977   7.913
 2732POPC   C4B37714  40.487  11.025   7.421
 2733POPC   NC337715  13.614  17.158   9.587
 2733POPC   PO437716  14.123  17.517   9.510
 2733POPC   GL137717  13.837  17.435   9.147
 2733POPC   GL237718  13.461  17.451   9.150
 2733POPC   C1A37719  13.706  17.412   8.710
 2733POPC   D2A37720  13.461  17.432   8.333
 2733POPC   C3A37721  13.688  17.390   7.917
 2733POPC   C4A37722  14.105  17.240   7.875
 2733POPC   C1B37723  13.358  17.787   8.810
 2733POPC   C2B37724  13.102  17.793   8.415
 2733POPC   C3B37725  13.236  17.703   7.962
 2733POPC   C4B37726  13.281  17.438   7.582
 2734POPC   NC337727  38.591   0.070   9.744
 2734POPC   PO437728  38.197   0.661   9.557
 2734POPC   GL137729  38.391   0.533   9.156
 2734POPC   GL237730  38.349   0.895   9.106
 2734POPC   C1A37731  38.308   0.249   8.742
 2734POPC   D2A37732  38.498   0.221   8.328
 2734POPC   C3A37733  38.329   0.085   7.938
 2734POPC   C4A37734  38.516   0.259   7.585
 2734POPC   C1B37735  38.431   0.743   8.691
 2734POPC   C2B37736  38.164   0.603   8.392
 2734POPC   C3B37737  38.249   0.582   7.963
 2734POPC   C4B37738  38.087   0.514   7.554
 2735POPC   NC337739  21.071  39.531   9.433
 2735POPC   PO437740  21.336  40.139   9.623
 2735POPC   GL137741  21.105  40.025   9.215
 2735POPC   GL237742  20.864  40.272   9.076
 2735POPC   C1A37743  21.210  39.793   8.818
 2735POPC   D2A37744  21.518  39.908   8.480
 2735POPC   C3A37745  21.450  39.813   8.037
 2735POPC   C4A37746  21.185  39.825   7.681
 2735POPC   C1B37747  21.205  40.304   8.743
 2735POPC   C2B37748  21.353  40.396   8.315
 2735POPC   C3B37749  21.459  40.339   7.885
 2735POPC   C4B37750  21.635  40.055   7.579
 2736POPC   NC337751  34.101   6.511   9.509
 2736POPC   PO437752  34.784   6.505   9.480
 2736POPC   GL137753  34.639   6.686   9.106
 2736POPC   GL237754  34.304   6.822   9.150
 2736POPC   C1A37755  34.664   6.480   8.712
 2736POPC   D2A37756  34.672   6.290   8.324
 2736POPC   C3A37757  34.979   6.323   8.046
 2736POPC   C4A37758  34.840   6.556   7.725
 2736POPC   C1B37759  34.234   6.759   8.754
 2736POPC   C2B37760  34.452   6.886   8.423
 2736POPC   C3B37761  34.505   6.765   8.028
 2736POPC   C4B37762  34.781   7.049   7.780
 2737POPC   NC337763  30.935  32.591   9.763
 2737POPC   PO437764  30.576  33.149   9.453
 2737POPC   GL137765  30.673  33.044   9.068
 2737POPC   GL237766  30.505  32.764   9.056
 2737POPC   C1A37767  30.617  33.270   8.653
 2737POPC   D2A37768  30.717  33.113   8.247
 2737POPC   C3A37769  30.722  33.291   7.850
 2737POPC   C4A37770  30.538  33.301   7.446
 2737POPC   C1B37771  30.665  32.762   8.646
 2737POPC   C2B37772  30.773  32.595   8.265
 2737POPC   C3B37773  30.846  32.782   7.874
 2737POPC   C4B37774  30.536  32.516   7.686
 2738POPC   NC337775   0.013  34.505  10.105
 2738POPC   PO437776  44.964  34.283   9.473
 2738POPC   GL137777  44.993  34.540   9.096
 2738POPC   GL237778   0.357  34.517   9.017
 2738POPC   C1A37779   0.056  34.637   8.627
 2738POPC   D2A37780   0.302  34.398   8.321
 2738POPC   C3A37781   0.271  34.558   7.920
 2738POPC   C4A37782   0.386  34.962   7.777
 2738POPC   C1B37783   0.617  34.205   8.768
 2738POPC   C2B37784   0.658  34.017   8.357
 2738POPC   C3B37785   0.605  34.130   7.943
 2738POPC   C4B37786   0.564  34.316   7.564
 2739POPC   NC337787  12.244  27.150   9.623
 2739POPC   PO437788  11.905  26.745   9.264
 2739POPC   GL137789  12.219  26.996   9.109
 2739POPC   GL237790  12.017  27.161   8.894
 2739POPC   C1A37791  12.394  26.805   8.748
 2739POPC   D2A37792  12.191  26.568   8.430
 2739POPC   C3A37793  12.367  26.577   8.036
 2739POPC   C4A37794  12.185  26.559   7.660
 2739POPC   C1B37795  12.408  27.288   8.614
 2739POPC   C2B37796  12.466  27.153   8.167
 2739POPC   C3B37797  12.122  27.011   7.904
 2739POPC   C4B37798  11.825  27.164   7.600
 2740POPC   NC337799   4.022  27.832   9.523
 2740POPC   PO437800   4.520  27.373   9.419
 2740POPC   GL137801   4.368  27.560   9.042
 2740POPC   GL237802   4.021  27.460   9.038
 2740POPC   C1A37803   4.301  27.645   8.562
 2740POPC   D2A37804   4.181  27.431   8.227
 2740POPC   C3A37805   4.489  27.526   7.913
 2740POPC   C4A37806   4.482  27.793   7.585
 2740POPC   C1B37807   4.057  27.919   8.893
 2740POPC   C2B37808   4.045  28.102   8.485
 2740POPC   C3B37809   4.181  27.923   8.081
 2740POPC   C4B37810   4.004  27.664   7.776
 2741POPC   NC337811  16.723  28.926   9.637
 2741POPC   PO437812  16.633  28.342   9.610
 2741POPC   GL137813  16.703  28.619   9.205
 2741POPC   GL237814  16.603  28.999   9.147
 2741POPC   C1A37815  16.715  28.516   8.749
 2741POPC   D2A37816  16.823  28.738   8.347
 2741POPC   C3A37817  16.721  28.534   7.916
 2741POPC   C4A37818  16.931  28.364   7.535
 2741POPC   C1B37819  16.476  28.972   8.701
 2741POPC   C2B37820  16.451  29.092   8.239
 2741POPC   C3B37821  16.500  28.972   7.775
 2741POPC   C4B37822  16.504  28.645   7.436
 2742POPC   NC337823  35.985  20.984   9.726
 2742POPC   PO437824  36.256  20.538   9.392
 2742POPC   GL137825  36.128  20.574   9.060
 2742POPC   GL237826  35.863  20.787   9.174
 2742POPC   C1A37827  36.287  20.651   8.681
 2742POPC   D2A37828  36.062  20.479   8.340
 2742POPC   C3A37829  36.355  20.503   8.023
 2742POPC   C4A37830  36.319  20.401   7.611
 2742POPC   C1B37831  35.789  20.790   8.753
 2742POPC   C2B37832  35.609  20.739   8.383
 2742POPC   C3B37833  35.723  20.805   7.983
 2742POPC   C4B37834  35.956  20.722   7.603
 2743POPC   NC337835  29.433  29.078   9.504
 2743POPC   PO437836  28.765  28.966   9.414
 2743POPC   GL137837  29.101  29.117   9.100
 2743POPC   GL237838  29.426  28.918   9.025
 2743POPC   C1A37839  29.093  29.309   8.689
 2743POPC   D2A37840  29.252  29.520   8.305
 2743POPC   C3A37841  29.167  29.370   7.873
 2743POPC   C4A37842  29.001  29.185   7.510
 2743POPC   C1B37843  29.511  29.026   8.592
 2743POPC   C2B37844  29.240  29.022   8.252
 2743POPC   C3B37845  29.181  28.844   7.870
 2743POPC   C4B37846  29.451  28.944   7.558
 2744POPC   NC337847  39.194  11.573   9.694
 2744POPC   PO437848  39.755  11.324   9.507
 2744POPC   GL137849  39.440  11.450   9.207
 2744POPC   GL237850  39.469  11.801   9.259
 2744POPC   C1A37851  39.307  11.315   8.772
 2744POPC   D2A37852  39.408  11.132   8.347
 2744POPC   C3A37853  39.107  11.169   8.023
 2744POPC   C4A37854  39.148  11.169   7.580
 2744POPC   C1B37855  39.541  11.794   8.826
 2744POPC   C2B37856  39.333  11.720   8.434
 2744POPC   C3B37857  39.443  11.571   8.026
 2744POPC   C4B37858  39.466  11.619   7.572
 2745POPC   NC337859   6.177  18.852   9.244
 2745POPC   PO437860   6.714  18.899   9.620
 2745POPC   GL137861   6.666  19.028   9.168
 2745POPC   GL237862   6.964  18.935   9.004
 2745POPC   C1A37863   6.587  19.047   8.693
 2745POPC   D2A37864   6.864  19.019   8.320
 2745POPC   C3A37865   6.544  18.967   7.987
 2745POPC   C4A37866   6.558  19.008   7.523
 2745POPC   C1B37867   6.931  19.391   8.810
 2745POPC   C2B37868   6.695  19.475   8.408
 2745POPC   C3B37869   6.806  19.408   7.973
 2745POPC   C4B37870   6.950  19.366   7.541
 2746POPC   NC337871  19.889  18.823   9.450
 2746POPC   PO437872  19.751  19.490   9.433
 2746POPC   GL137873  19.657  19.166   9.090
 2746POPC   GL237874  19.539  18.791   9.072
 2746POPC   C1A37875  19.505  19.069   8.651
 2746POPC   D2A37876  19.493  18.888   8.220
 2746POPC   C3A37877  19.716  19.152   7.950
 2746POPC   C4A37878  20.119  19.252   7.859
 2746POPC   C1B37879  19.953  18.859   8.809
 2746POPC   C2B37880  19.969  18.989   8.400
 2746POPC   C3B37881  20.051  18.791   8.040
 2746POPC   C4B37882  19.897  18.812   7.610
 2747POPC   NC337883  13.137  10.828   9.472
 2747POPC   PO437884  12.665  11.348   9.527
 2747POPC   GL137885  12.781  11.122   9.176
 2747POPC   GL237886  13.031  11.365   9.187
 2747POPC   C1A37887  12.671  10.968   8.750
 2747POPC   D2A37888  12.717  11.175   8.344
 2747POPC   C3A37889  12.771  10.989   7.947
 2747POPC   C4A37890  12.721  11.192   7.568
 2747POPC   C1B37891  12.817  11.486   8.792
 2747POPC   C2B37892  12.934  11.642   8.372
 2747POPC   C3B37893  13.053  11.494   7.976
 2747POPC   C4B37894  13.316  11.593   7.603
 2748POPC   NC337895  19.916  40.541   9.696
 2748POPC   PO437896  19.979  41.165   9.410
 2748POPC   GL137897  19.949  40.725   9.229
 2748POPC   GL237898  19.615  40.582   9.254
 2748POPC   C1A37899  20.020  40.592   8.815
 2748POPC   D2A37900  20.221  40.891   8.467
 2748POPC   C3A37901  19.963  40.835   8.072
 2748POPC   C4A37902  19.656  41.091   7.858
 2748POPC   C1B37903  19.497  40.487   8.831
 2748POPC   C2B37904  19.639  40.547   8.423
 2748POPC   C3B37905  19.522  40.583   8.005
 2748POPC   C4B37906  19.748  40.623   7.629
 2749POPC   NC337907   4.742  21.358   9.507
 2749POPC   PO437908   5.207  21.831   9.751
 2749POPC   GL137909   5.093  21.620   9.287
 2749POPC   GL237910   5.184  21.235   9.267
 2749POPC   C1A37911   5.078  21.645   8.811
 2749POPC   D2A37912   5.222  21.397   8.443
 2749POPC   C3A37913   5.248  21.582   8.016
 2749POPC   C4A37914   4.851  21.701   7.827
 2749POPC   C1B37915   5.033  21.119   8.869
 2749POPC   C2B37916   4.824  21.071   8.465
 2749POPC   C3B37917   4.925  21.199   8.043
 2749POPC   C4B37918   4.717  21.254   7.649
 2750POPC   NC337919   1.352  44.340   9.288
 2750POPC   PO437920   1.188  44.929   9.409
 2750POPC   GL137921   1.163  44.736   9.012
 2750POPC   GL237922   1.545  44.753   9.066
 2750POPC   C1A37923   1.049  44.832   8.564
 2750POPC   D2A37924   1.284  44.718   8.225
 2750POPC   C3A37925   1.168  44.723   7.822
 2750POPC   C4A37926   0.897   0.014   7.727
 2750POPC   C1B37927   1.514  44.539   8.668
 2750POPC   C2B37928   1.525  44.279   8.320
 2750POPC   C3B37929   1.574  44.378   7.913
 2750POPC   C4B37930   1.499  44.227   7.513
 2751POPC   NC337931  25.730  35.662   9.386
 2751POPC   PO437932  26.072  35.076   9.555
 2751POPC   GL137933  25.839  35.144   9.220
 2751POPC   GL237934  26.048  35.389   9.090
 2751POPC   C1A37935  25.763  35.151   8.758
 2751POPC   D2A37936  25.750  35.454   8.400
 2751POPC   C3A37937  25.795  35.181   8.030
 2751POPC   C4A37938  25.852  35.194   7.587
 2751POPC   C1B37939  26.137  35.611   8.697
 2751POPC   C2B37940  26.217  35.586   8.233
 2751POPC   C3B37941  26.298  35.302   7.898
 2751POPC   C4B37942  26.642  35.021   7.793
 2752POPC   NC337943  20.536  38.768   9.584
 2752POPC   PO437944  20.188  38.263   9.612
 2752POPC   GL137945  20.433  38.452   9.194
 2752POPC   GL237946  20.785  38.623   9.151
 2752POPC   C1A37947  20.479  38.531   8.724
 2752POPC   D2A37948  20.767  38.688   8.390
 2752POPC   C3A37949  20.685  38.543   7.968
 2752POPC   C4A37950  20.391  38.245   7.767
 2752POPC   C1B37951  20.854  38.244   8.906
 2752POPC   C2B37952  20.984  38.246   8.482
 2752POPC   C3B37953  21.134  38.271   8.043
 2752POPC   C4B37954  20.917  38.170   7.672
 2753POPC   NC337955  31.802  18.318   9.486
 2753POPC   PO437956  32.453  18.237   9.527
 2753POPC   GL137957  32.266  18.348   9.124
 2753POPC   GL237958  32.404  18.696   9.071
 2753POPC   C1A37959  32.391  18.281   8.681
 2753POPC   D2A37960  32.510  18.526   8.310
 2753POPC   C3A37961  32.286  18.380   7.962
 2753POPC   C4A37962  32.053  17.991   7.862
 2753POPC   C1B37963  32.200  18.761   8.657
 2753POPC   C2B37964  31.952  18.488   8.384
 2753POPC   C3B37965  31.773  18.462   7.968
 2753POPC   C4B37966  31.837  18.695   7.588
 2754POPC   NC337967  38.223  15.823   9.678
 2754POPC   PO437968  38.712  16.072   9.358
 2754POPC   GL137969  38.462  15.819   9.103
 2754POPC   GL237970  38.118  15.876   9.138
 2754POPC   C1A37971  38.268  15.667   8.700
 2754POPC   D2A37972  38.161  15.884   8.311
 2754POPC   C3A37973  38.309  15.711   7.937
 2754POPC   C4A37974  38.355  15.911   7.518
 2754POPC   C1B37975  38.329  16.180   8.781
 2754POPC   C2B37976  38.613  16.194   8.408
 2754POPC   C3B37977  38.507  16.151   7.983
 2754POPC   C4B37978  38.045  16.159   7.815
 2755POPC   NC337979  30.943  23.448   9.578
 2755POPC   PO437980  30.477  24.038   9.502
 2755POPC   GL137981  30.459  23.712   9.181
 2755POPC   GL237982  30.826  23.596   9.100
 2755POPC   C1A37983  30.355  23.733   8.730
 2755POPC   D2A37984  30.208  23.562   8.299
 2755POPC   C3A37985  30.412  23.730   7.948
 2755POPC   C4A37986  30.537  23.576   7.545
 2755POPC   C1B37987  30.787  24.018   8.915
 2755POPC   C2B37988  30.707  24.030   8.490
 2755POPC   C3B37989  30.865  23.961   8.079
 2755POPC   C4B37990  30.905  23.577   7.899
 2756POPC   NC337991  25.001  38.780   9.551
 2756POPC   PO437992  25.455  39.229   9.441
 2756POPC   GL137993  25.249  39.196   9.061
 2756POPC   GL237994  24.966  39.017   9.100
 2756POPC   C1A37995  25.282  39.422   8.654
 2756POPC   D2A37996  25.295  39.395   8.211
 2756POPC   C3A37997  25.486  39.509   7.850
 2756POPC   C4A37998  25.393  39.256   7.502
 2756POPC   C1B37999  25.137  38.838   8.701
 2756POPC   C2B38000  25.048  38.679   8.260
 2756POPC   C3B38001  25.149  38.916   7.856
 2756POPC   C4B38002  24.916  39.098   7.482
 2757POPC   NC338003  42.171  44.715   9.313
 2757POPC   PO438004  42.531  44.279   9.633
 2757POPC   GL138005  42.538  44.419   9.160
 2757POPC   GL238006  42.608  44.758   9.081
 2757POPC   C1A38007  42.269  44.500   8.730
 2757POPC   D2A38008  42.019  44.510   8.348
 2757POPC   C3A38009  42.237  44.694   7.995
 2757POPC   C4A38010  42.090  44.536   7.635
 2757POPC   C1B38011  42.667  44.816   8.650
 2757POPC   C2B38012  42.686  44.532   8.286
 2757POPC   C3B38013  42.735  44.619   7.838
 2757POPC   C4B38014  42.606  44.676   7.387
 2758POPC   NC338015  12.729  17.607   9.462
 2758POPC   PO438016  13.178  17.188   9.496
 2758POPC   GL138017  12.986  17.195   9.120
 2758POPC   GL238018  12.621  17.226   9.110
 2758POPC   C1A38019  13.116  17.341   8.723
 2758POPC   D2A38020  12.965  17.266   8.324
 2758POPC   C3A38021  12.750  17.514   8.000
 2758POPC   C4A38022  12.778  17.451   7.546
 2758POPC   C1B38023  12.574  17.327   8.659
 2758POPC   C2B38024  12.340  17.527   8.317
 2758POPC   C3B38025  12.245  17.790   7.979
 2758POPC   C4B38026  12.440  17.818   7.598
 2759POPC   NC338027  37.128  26.114   9.314
 2759POPC   PO438028  37.732  25.955   9.577
 2759POPC   GL138029  37.655  26.121   9.203
 2759POPC   GL238030  37.850  26.422   9.205
 2759POPC   C1A38031  37.570  25.933   8.805
 2759POPC   D2A38032  37.823  25.818   8.460
 2759POPC   C3A38033  37.654  25.873   8.073
 2759POPC   C4A38034  37.879  25.930   7.689
 2759POPC   C1B38035  37.562  26.463   8.830
 2759POPC   C2B38036  37.518  26.282   8.407
 2759POPC   C3B38037  37.669  26.360   7.980
 2759POPC   C4B38038  37.476  26.225   7.622
 2760POPC   NC338039   9.921  41.145   9.364
 2760POPC   PO438040   9.589  41.706   9.516
 2760POPC   GL138041   9.845  41.760   9.142
 2760POPC   GL238042   9.941  41.429   8.966
 2760POPC   C1A38043   9.957  41.840   8.710
 2760POPC   D2A38044   9.987  41.499   8.442
 2760POPC   C3A38045   9.689  41.527   8.164
 2760POPC   C4A38046   9.802  41.750   7.845
 2760POPC   C1B38047   9.553  41.475   8.739
 2760POPC   C2B38048   9.537  41.115   8.457
 2760POPC   C3B38049   9.839  41.030   8.147
 2760POPC   C4B38050   9.644  41.174   7.803
 2761POPC   NC338051  24.480  12.448   9.371
 2761POPC   PO438052  24.246  11.797   9.479
 2761POPC   GL138053  24.374  11.847   9.063
 2761POPC   GL238054  24.462  12.163   8.952
 2761POPC   C1A38055  24.470  11.753   8.636
 2761POPC   D2A38056  24.308  11.822   8.247
 2761POPC   C3A38057  24.597  12.064   8.028
 2761POPC   C4A38058  24.883  11.790   7.803
 2761POPC   C1B38059  24.175  12.415   8.737
 2761POPC   C2B38060  24.101  12.306   8.356
 2761POPC   C3B38061  24.224  12.463   7.997
 2761POPC   C4B38062  24.114  12.618   7.623
 2762POPC   NC338063  27.741  15.415   9.731
 2762POPC   PO438064  27.497  14.782   9.522
 2762POPC   GL138065  27.722  15.129   9.253
 2762POPC   GL238066  27.851  14.972   8.938
 2762POPC   C1A38067  27.890  15.465   8.930
 2762POPC   D2A38068  27.888  15.344   8.432
 2762POPC   C3A38069  27.669  15.498   8.001
 2762POPC   C4A38070  27.541  15.367   7.544
 2762POPC   C1B38071  27.479  15.216   8.758
 2762POPC   C2B38072  27.335  15.298   8.335
 2762POPC   C3B38073  27.307  15.111   7.921
 2762POPC   C4B38074  27.717  14.920   7.776
 2763POPC   NC338075  34.212  32.934   9.563
 2763POPC   PO438076  33.676  33.363   9.618
 2763POPC   GL138077  33.775  33.079   9.258
 2763POPC   GL238078  33.470  33.226   9.152
 2763POPC   C1A38079  33.845  33.072   8.826
 2763POPC   D2A38080  33.869  32.872   8.439
 2763POPC   C3A38081  33.914  33.062   8.087
 2763POPC   C4A38082  34.075  33.114   7.718
 2763POPC   C1B38083  33.346  33.134   8.745
 2763POPC   C2B38084  33.524  33.262   8.374
 2763POPC   C3B38085  33.403  33.024   8.040
 2763POPC   C4B38086  33.586  32.957   7.665
 2764POPC   NC338087  37.742   4.215   9.594
 2764POPC   PO438088  37.205   4.632   9.495
 2764POPC   GL138089  37.467   4.440   9.200
 2764POPC   GL238090  37.818   4.519   9.132
 2764POPC   C1A38091  37.475   4.361   8.761
 2764POPC   D2A38092  37.798   4.311   8.446
 2764POPC   C3A38093  37.684   4.296   8.015
 2764POPC   C4A38094  37.752   4.134   7.572
 2764POPC   C1B38095  37.786   4.757   8.734
 2764POPC   C2B38096  37.513   4.734   8.376
 2764POPC   C3B38097  37.523   4.777   7.953
 2764POPC   C4B38098  37.804   4.662   7.596
 2765POPC   NC338099  10.847  33.508   9.703
 2765POPC   PO438100  10.360  33.937   9.537
 2765POPC   GL138101  10.323  33.989   9.100
 2765POPC   GL238102  10.120  33.676   9.139
 2765POPC   C1A38103  10.503  34.175   8.680
 2765POPC   D2A38104  10.557  34.156   8.210
 2765POPC   C3A38105  10.701  33.759   8.120
 2765POPC   C4A38106  10.797  33.556   7.771
 2765POPC   C1B38107  10.332  33.569   8.782
 2765POPC   C2B38108  10.271  33.768   8.407
 2765POPC   C3B38109  10.162  33.845   7.984
 2765POPC   C4B38110  10.268  33.615   7.603
 2766POPC   NC338111   3.316  14.188   9.468
 2766POPC   PO438112   3.724  14.552   9.780
 2766POPC   GL138113   3.699  14.389   9.217
 2766POPC   GL238114   3.361  14.339   8.993
 2766POPC   C1A38115   3.742  14.476   8.718
 2766POPC   D2A38116   3.432  14.307   8.389
 2766POPC   C3A38117   3.480  14.420   7.948
 2766POPC   C4A38118   3.889  14.523   7.721
 2766POPC   C1B38119   3.093  14.068   8.715
 2766POPC   C2B38120   3.060  13.952   8.278
 2766POPC   C3B38121   3.132  13.989   7.814
 2766POPC   C4B38122   3.287  14.065   7.395
 2767POPC   NC338123  32.551  17.793   9.447
 2767POPC   PO438124  32.079  17.372   9.452
 2767POPC   GL138125  32.261  17.482   9.066
 2767POPC   GL238126  32.601  17.386   9.119
 2767POPC   C1A38127  32.480  17.728   8.723
 2767POPC   D2A38128  32.636  17.679   8.287
 2767POPC   C3A38129  32.330  17.556   7.963
 2767POPC   C4A38130  32.060  17.545   7.589
 2767POPC   C1B38131  32.520  17.209   8.713
 2767POPC   C2B38132  32.446  17.188   8.302
 2767POPC   C3B38133  32.644  17.139   7.913
 2767POPC   C4B38134  32.492  17.262   7.498
 2768POPC   NC338135   3.573  31.986   9.619
 2768POPC   PO438136   3.396  32.413   9.534
 2768POPC   GL138137   3.504  32.214   9.108
 2768POPC   GL238138   3.721  31.899   9.125
 2768POPC   C1A38139   3.317  32.269   8.663
 2768POPC   D2A38140   3.468  32.420   8.249
 2768POPC   C3A38141   3.636  32.193   7.892
 2768POPC   C4A38142   3.564  32.479   7.535
 2768POPC   C1B38143   3.719  31.965   8.659
 2768POPC   C2B38144   3.453  31.915   8.282
 2768POPC   C3B38145   3.516  31.679   7.897
 2768POPC   C4B38146   3.744  31.613   7.497
 2769POPC   NC338147  14.778  22.169   9.794
 2769POPC   PO438148  14.364  22.469   9.377
 2769POPC   GL138149  14.372  22.312   9.002
 2769POPC   GL238150  14.481  21.977   8.930
 2769POPC   C1A38151  14.288  22.466   8.635
 2769POPC   D2A38152  14.240  22.183   8.341
 2769POPC   C3A38153  14.458  22.298   7.966
 2769POPC   C4A38154  14.363  22.153   7.539
 2769POPC   C1B38155  14.094  21.826   8.702
 2769POPC   C2B38156  13.902  21.796   8.268
 2769POPC   C3B38157  14.135  21.789   7.885
 2769POPC   C4B38158  14.512  21.670   7.657
 2770POPC   NC338159  18.402  40.789   9.920
 2770POPC   PO438160  18.248  40.358   9.478
 2770POPC   GL138161  18.203  40.705   9.141
 2770POPC   GL238162  17.950  40.912   8.998
 2770POPC   C1A38163  18.385  40.878   8.744
 2770POPC   D2A38164  18.319  40.871   8.283
 2770POPC   C3A38165  18.573  40.765   7.920
 2770POPC   C4A38166  18.453  40.522   7.558
 2770POPC   C1B38167  17.883  40.606   8.662
 2770POPC   C2B38168  17.893  40.581   8.202
 2770POPC   C3B38169  18.058  40.772   7.829
 2770POPC   C4B38170  17.842  41.064   7.546
 2771POPC   NC338171   5.143  16.293   9.608
 2771POPC   PO438172   5.309  16.938   9.609
 2771POPC   GL138173   5.096  16.718   9.272
 2771POPC   GL238174   5.296  16.429   9.128
 2771POPC   C1A38175   4.838  16.800   8.911
 2771POPC   D2A38176   5.015  16.714   8.514
 2771POPC   C3A38177   4.920  16.706   8.120
 2771POPC   C4A38178   4.913  16.823   7.743
 2771POPC   C1B38179   5.452  16.557   8.718
 2771POPC   C2B38180   5.398  16.535   8.242
 2771POPC   C3B38181   5.420  16.757   7.897
 2771POPC   C4B38182   5.434  16.673   7.483
 2772POPC   NC338183  43.542  18.666   9.602
 2772POPC   PO438184  42.966  18.981   9.602
 2772POPC   GL138185  43.191  19.132   9.194
 2772POPC   GL238186  43.451  19.403   9.146
 2772POPC   C1A38187  43.045  19.173   8.736
 2772POPC   D2A38188  43.054  18.859   8.396
 2772POPC   C3A38189  42.851  18.918   7.999
 2772POPC   C4A38190  42.949  19.146   7.656
 2772POPC   C1B38191  43.441  19.482   8.659
 2772POPC   C2B38192  43.286  19.313   8.230
 2772POPC   C3B38193  43.415  19.343   7.740
 2772POPC   C4B38194  43.633  19.593   7.391
 2773POPC   NC338195  38.116  35.310   9.392
 2773POPC   PO438196  38.659  35.483   9.726
 2773POPC   GL138197  38.512  35.604   9.293
 2773POPC   GL238198  38.552  35.297   9.114
 2773POPC   C1A38199  38.568  35.709   8.839
 2773POPC   D2A38200  38.697  35.386   8.562
 2773POPC   C3A38201  38.540  35.415   8.154
 2773POPC   C4A38202  38.271  35.466   7.806
 2773POPC   C1B38203  38.217  35.350   8.761
 2773POPC   C2B38204  38.061  35.304   8.359
 2773POPC   C3B38205  38.103  35.051   8.022
 2773POPC   C4B38206  37.905  35.136   7.657
 2774POPC   NC338207  10.913  20.953   9.363
 2774POPC   PO438208  11.470  21.203   9.787
 2774POPC   GL138209  11.310  21.343   9.306
 2774POPC   GL238210  11.145  21.708   9.263
 2774POPC   C1A38211  11.097  21.336   8.863
 2774POPC   D2A38212  11.167  21.107   8.470
 2774POPC   C3A38213  11.293  21.243   8.079
 2774POPC   C4A38214  11.116  21.502   7.814
 2774POPC   C1B38215  11.436  21.701   8.942
 2774POPC   C2B38216  11.418  21.578   8.516
 2774POPC   C3B38217  11.641  21.649   8.163
 2774POPC   C4B38218  11.666  21.462   7.792
 2775POPC   NC338219  31.898  27.338   9.547
 2775POPC   PO438220  31.220  27.340   9.394
 2775POPC   GL138221  31.385  27.601   9.083
 2775POPC   GL238222  31.723  27.675   9.195
 2775POPC   C1A38223  31.226  27.604   8.656
 2775POPC   D2A38224  31.096  27.752   8.248
 2775POPC   C3A38225  31.363  27.511   7.969
 2775POPC   C4A38226  31.793  27.395   7.943
 2775POPC   C1B38227  31.757  27.662   8.740
 2775POPC   C2B38228  31.736  27.895   8.336
 2775POPC   C3B38229  31.914  28.148   7.974
 2775POPC   C4B38230  31.752  28.123   7.567
 2776POPC   NC338231  42.378  27.488   9.457
 2776POPC   PO438232  41.801  27.915   9.422
 2776POPC   GL138233  42.166  27.789   9.119
 2776POPC   GL238234  42.029  27.518   9.029
 2776POPC   C1A38235  42.395  27.609   8.707
 2776POPC   D2A38236  42.144  27.428   8.354
 2776POPC   C3A38237  42.347  27.241   8.024
 2776POPC   C4A38238  42.438  27.403   7.662
 2776POPC   C1B38239  41.930  27.808   8.670
 2776POPC   C2B38240  42.145  27.933   8.322
 2776POPC   C3B38241  42.435  27.758   8.070
 2776POPC   C4B38242  42.570  27.902   7.700
 2777POPC   NC338243  41.269  40.363   9.266
 2777POPC   PO438244  41.580  39.868   9.588
 2777POPC   GL138245  41.522  39.905   9.152
 2777POPC   GL238246  41.189  39.913   9.001
 2777POPC   C1A38247  41.602  39.656   8.786
 2777POPC   D2A38248  41.699  39.777   8.368
 2777POPC   C3A38249  41.362  39.923   8.101
 2777POPC   C4A38250  41.387  39.866   7.680
 2777POPC   C1B38251  41.317  40.110   8.590
 2777POPC   C2B38252  41.491  40.399   8.232
 2777POPC   C3B38253  41.463  40.381   7.771
 2777POPC   C4B38254  41.139  40.258   7.480
 2778POPC   NC338255  34.395  23.248   9.491
 2778POPC   PO438256  34.918  22.760   9.452
 2778POPC   GL138257  34.652  22.938   9.073
 2778POPC   GL238258  34.431  23.220   8.987
 2778POPC   C1A38259  34.815  23.115   8.658
 2778POPC   D2A38260  35.055  23.109   8.260
 2778POPC   C3A38261  34.786  22.973   7.895
 2778POPC   C4A38262  34.564  22.827   7.534
 2778POPC   C1B38263  34.297  22.970   8.608
 2778POPC   C2B38264  34.227  22.579   8.292
 2778POPC   C3B38265  34.252  22.824   7.932
 2778POPC   C4B38266  34.278  23.217   7.785
 2779POPC   NC338267   4.951   6.441   9.417
 2779POPC   PO438268   5.517   6.769   9.435
 2779POPC   GL138269   5.304   6.684   9.052
 2779POPC   GL238270   4.903   6.633   8.962
 2779POPC   C1A38271   5.198   6.927   8.699
 2779POPC   D2A38272   4.975   6.733   8.380
 2779POPC   C3A38273   5.247   6.807   8.042
 2779POPC   C4A38274   5.383   6.525   7.736
 2779POPC   C1B38275   5.118   6.315   8.722
 2779POPC   C2B38276   5.064   6.224   8.296
 2779POPC   C3B38277   4.894   6.453   7.933
 2779POPC   C4B38278   4.756   6.347   7.535
 2780POPC   NC338279   8.928  18.989   9.539
 2780POPC   PO438280   8.867  19.631   9.350
 2780POPC   GL138281   8.870  19.206   9.066
 2780POPC   GL238282   8.877  18.781   9.093
 2780POPC   C1A38283   9.051  19.128   8.658
 2780POPC   D2A38284   9.106  19.267   8.246
 2780POPC   C3A38285   9.029  18.992   7.961
 2780POPC   C4A38286   9.198  18.868   7.588
 2780POPC   C1B38287   8.705  18.750   8.696
 2780POPC   C2B38288   8.618  18.940   8.294
 2780POPC   C3B38289   8.589  18.804   7.861
 2780POPC   C4B38290   8.743  18.634   7.485
 2781POPC   NC338291  20.339  14.658   9.378
 2781POPC   PO438292  20.741  14.100   9.454
 2781POPC   GL138293  20.524  14.205   9.094
 2781POPC   GL238294  20.713  14.498   9.099
 2781POPC   C1A38295  20.428  14.358   8.659
 2781POPC   D2A38296  20.707  14.335   8.278
 2781POPC   C3A38297  20.479  14.488   7.908
 2781POPC   C4A38298  20.472  14.382   7.449
 2781POPC   C1B38299  20.929  14.446   8.764
 2781POPC   C2B38300  21.001  14.755   8.441
 2781POPC   C3B38301  21.107  14.640   8.042
 2781POPC   C4B38302  20.931  14.442   7.713
 2782POPC   NC338303  19.406  24.213   9.532
 2782POPC   PO438304  18.867  24.206   9.658
 2782POPC   GL138305  18.922  24.287   9.195
 2782POPC   GL238306  19.223  24.474   9.066
 2782POPC   C1A38307  18.889  24.178   8.729
 2782POPC   D2A38308  18.823  24.360   8.301
 2782POPC   C3A38309  19.015  24.366   7.854
 2782POPC   C4A38310  18.846  24.224   7.392
 2782POPC   C1B38311  19.103  24.646   8.629
 2782POPC   C2B38312  19.051  24.808   8.190
 2782POPC   C3B38313  19.252  24.870   7.781
 2782POPC   C4B38314  19.262  24.983   7.310
 2783POPC   NC338315   3.727   7.844   9.405
 2783POPC   PO438316   3.682   7.152   9.441
 2783POPC   GL138317   3.531   7.268   9.049
 2783POPC   GL238318   3.498   7.619   8.979
 2783POPC   C1A38319   3.786   7.304   8.686
 2783POPC   D2A38320   3.688   7.550   8.352
 2783POPC   C3A38321   3.707   7.397   7.925
 2783POPC   C4A38322   3.521   7.630   7.604
 2783POPC   C1B38323   3.131   7.794   8.739
 2783POPC   C2B38324   3.178   7.862   8.320
 2783POPC   C3B38325   3.222   7.554   8.022
 2783POPC   C4B38326   2.922   7.552   7.725
 2784POPC   NC338327   5.648  41.063   9.423
 2784POPC   PO438328   5.983  41.718   9.590
 2784POPC   GL138329   5.865  41.504   9.236
 2784POPC   GL238330   5.835  41.824   9.109
 2784POPC   C1A38331   6.021  41.470   8.783
 2784POPC   D2A38332   5.791  41.355   8.400
 2784POPC   C3A38333   5.852  41.567   7.992
 2784POPC   C4A38334   6.079  41.404   7.626
 2784POPC   C1B38335   5.939  42.043   8.769
 2784POPC   C2B38336   6.102  41.916   8.391
 2784POPC   C3B38337   6.081  42.052   7.986
 2784POPC   C4B38338   6.155  41.894   7.609
 2785POPC   NC338339  41.099   1.844   9.441
 2785POPC   PO438340  41.737   1.949   9.481
 2785POPC   GL138341  41.694   1.997   9.059
 2785POPC   GL238342  41.340   1.906   9.005
 2785POPC   C1A38343  41.601   2.159   8.661
 2785POPC   D2A38344  41.474   1.968   8.259
 2785POPC   C3A38345  41.758   1.988   7.889
 2785POPC   C4A38346  41.641   1.790   7.528
 2785POPC   C1B38347  41.089   1.964   8.617
 2785POPC   C2B38348  40.982   2.034   8.166
 2785POPC   C3B38349  41.241   2.033   7.779
 2785POPC   C4B38350  41.450   2.348   7.511
 2786POPC   NC338351  36.344  38.842   9.617
 2786POPC   PO438352  35.689  38.898   9.469
 2786POPC   GL138353  36.014  39.047   9.173
 2786POPC   GL238354  36.277  39.318   9.223
 2786POPC   C1A38355  36.100  39.112   8.715
 2786POPC   D2A38356  36.308  38.978   8.319
 2786POPC   C3A38357  36.125  39.184   7.978
 2786POPC   C4A38358  35.799  39.049   7.744
 2786POPC   C1B38359  36.462  39.494   8.814
 2786POPC   C2B38360  36.339  39.488   8.394
 2786POPC   C3B38361  36.340  39.643   7.990
 2786POPC   C4B38362  36.497  39.394   7.625
 2787POPC   NC338363  35.930  20.194   9.399
 2787POPC   PO438364  36.215  19.592   9.404
 2787POPC   GL138365  36.223  19.787   9.057
 2787POPC   GL238366  36.387  20.089   9.157
 2787POPC   C1A38367  36.211  19.682   8.605
 2787POPC   D2A38368  36.013  19.897   8.280
 2787POPC   C3A38369  35.985  19.770   7.851
 2787POPC   C4A38370  35.890  20.083   7.561
 2787POPC   C1B38371  36.230  20.166   8.743
 2787POPC   C2B38372  36.450  20.130   8.376
 2787POPC   C3B38373  36.418  20.004   7.958
 2787POPC   C4B38374  36.554  19.993   7.509
 2788POPC   NC338375  34.499  32.331   9.574
 2788POPC   PO438376  33.865  32.627   9.618
 2788POPC   GL138377  34.147  32.540   9.224
 2788POPC   GL238378  34.523  32.547   9.119
 2788POPC   C1A38379  34.225  32.284   8.827
 2788POPC   D2A38380  34.546  32.403   8.512
 2788POPC   C3A38381  34.352  32.285   8.143
 2788POPC   C4A38382  34.418  32.294   7.698
 2788POPC   C1B38383  34.688  32.084   8.888
 2788POPC   C2B38384  34.664  31.906   8.415
 2788POPC   C3B38385  34.854  32.199   8.064
 2788POPC   C4B38386  34.909  32.277   7.590
 2789POPC   NC338387  16.305   8.551   9.455
 2789POPC   PO438388  16.556   7.888   9.422
 2789POPC   GL138389  16.748   8.122   9.115
 2789POPC   GL238390  16.947   8.418   9.066
 2789POPC   C1A38391  16.922   8.048   8.712
 2789POPC   D2A38392  16.941   8.300   8.342
 2789POPC   C3A38393  16.889   8.006   7.976
 2789POPC   C4A38394  16.594   8.093   7.638
 2789POPC   C1B38395  16.562   8.454   8.792
 2789POPC   C2B38396  16.394   8.658   8.432
 2789POPC   C3B38397  16.642   8.766   8.095
 2789POPC   C4B38398  16.927   8.506   7.870
 2790POPC   NC338399   5.296  14.590   9.519
 2790POPC   PO438400   5.140  14.035   9.349
 2790POPC   GL138401   5.161  14.355   9.065
 2790POPC   GL238402   4.885  14.553   9.160
 2790POPC   C1A38403   5.149  14.608   8.710
 2790POPC   D2A38404   5.379  14.678   8.344
 2790POPC   C3A38405   5.123  14.564   7.999
 2790POPC   C4A38406   4.977  14.259   7.701
 2790POPC   C1B38407   4.619  14.690   8.800
 2790POPC   C2B38408   4.769  14.761   8.376
 2790POPC   C3B38409   4.771  14.927   7.967
 2790POPC   C4B38410   4.905  14.777   7.547
 2791POPC   NC338411  14.679  26.901   9.592
 2791POPC   PO438412  15.226  26.560   9.642
 2791POPC   GL138413  14.984  26.651   9.277
 2791POPC   GL238414  15.115  26.986   9.273
 2791POPC   C1A38415  14.963  26.738   8.841
 2791POPC   D2A38416  15.187  26.719   8.462
 2791POPC   C3A38417  15.018  26.541   8.083
 2791POPC   C4A38418  15.109  26.713   7.717
 2791POPC   C1B38419  15.378  27.044   8.873
 2791POPC   C2B38420  15.499  27.113   8.405
 2791POPC   C3B38421  15.439  27.131   7.953
 2791POPC   C4B38422  15.723  27.290   7.619
 2792POPC   NC338423   9.061  23.126   9.501
 2792POPC   PO438424   8.783  22.601   9.737
 2792POPC   GL138425   8.682  22.723   9.242
 2792POPC   GL238426   8.858  22.994   9.047
 2792POPC   C1A38427   8.753  22.529   8.816
 2792POPC   D2A38428   9.025  22.601   8.449
 2792POPC   C3A38429   8.874  22.893   8.146
 2792POPC   C4A38430   8.620  22.860   7.783
 2792POPC   C1B38431   9.143  23.171   8.726
 2792POPC   C2B38432   9.429  22.953   8.416
 2792POPC   C3B38433   9.367  22.821   7.978
 2792POPC   C4B38434   9.064  23.038   7.691
 2793POPC   NC338435  22.353  42.636   9.856
 2793POPC   PO438436  21.932  42.361   9.483
 2793POPC   GL138437  21.887  42.358   9.012
 2793POPC   GL238438  21.847  42.039   8.895
 2793POPC   C1A38439  22.195  42.335   8.609
 2793POPC   D2A38440  22.488  42.341   8.226
 2793POPC   C3A38441  22.401  42.478   7.778
 2793POPC   C4A38442  22.741  42.439   7.484
 2793POPC   C1B38443  21.694  42.186   8.545
 2793POPC   C2B38444  21.607  42.464   8.184
 2793POPC   C3B38445  21.740  42.640   7.803
 2793POPC   C4B38446  22.059  42.792   7.533
 2794POPC   NC338447   4.393  26.299   9.389
 2794POPC   PO438448   4.147  25.722   9.395
 2794POPC   GL138449   4.327  25.910   9.065
 2794POPC   GL238450   4.035  26.138   9.068
 2794POPC   C1A38451   4.350  26.054   8.635
 2794POPC   D2A38452   4.346  26.221   8.213
 2794POPC   C3A38453   4.278  25.923   7.875
 2794POPC   C4A38454   4.544  26.046   7.565
 2794POPC   C1B38455   3.868  26.233   8.697
 2794POPC   C2B38456   3.894  26.470   8.361
 2794POPC   C3B38457   3.888  26.267   7.968
 2794POPC   C4B38458   4.115  26.320   7.588
 2795POPC   NC338459  30.083  13.011   9.464
 2795POPC   PO438460  29.618  12.594   9.347
 2795POPC   GL138461  29.674  12.994   9.099
 2795POPC   GL238462  29.984  13.225   9.021
 2795POPC   C1A38463  29.667  12.954   8.654
 2795POPC   D2A38464  29.747  12.706   8.308
 2795POPC   C3A38465  29.612  12.876   7.911
 2795POPC   C4A38466  29.937  12.836   7.611
 2795POPC   C1B38467  30.144  12.899   8.798
 2795POPC   C2B38468  30.162  13.003   8.397
 2795POPC   C3B38469  30.051  13.145   8.024
 2795POPC   C4B38470  30.371  13.044   7.760
 2796POPC   NC338471  31.632  20.187   9.455
 2796POPC   PO438472  31.162  19.624   9.469
 2796POPC   GL138473  31.378  19.759   9.090
 2796POPC   GL238474  31.746  19.809   9.127
 2796POPC   C1A38475  31.166  19.842   8.675
 2796POPC   D2A38476  30.973  20.143   8.403
 2796POPC   C3A38477  31.038  20.018   8.000
 2796POPC   C4A38478  31.411  19.984   7.736
 2796POPC   C1B38479  31.678  19.766   8.685
 2796POPC   C2B38480  31.485  19.791   8.277
 2796POPC   C3B38481  31.747  19.668   7.971
 2796POPC   C4B38482  31.940  19.959   7.696
 2797POPC   NC338483   1.234  25.186   9.580
 2797POPC   PO438484   1.775  24.901   9.326
 2797POPC   GL138485   1.549  25.312   9.166
 2797POPC   GL238486   1.247  25.226   9.092
 2797POPC   C1A38487   1.246  25.630   8.839
 2797POPC   D2A38488   1.348  25.725   8.407
 2797POPC   C3A38489   1.075  25.621   8.067
 2797POPC   C4A38490   1.078  25.442   7.670
 2797POPC   C1B38491   1.472  25.226   8.682
 2797POPC   C2B38492   1.200  25.240   8.394
 2797POPC   C3B38493   1.329  25.151   8.031
 2797POPC   C4B38494   1.255  24.966   7.675
 2798POPC   NC338495  21.220  31.768   9.368
 2798POPC   PO438496  21.390  32.368   9.554
 2798POPC   GL138497  21.287  32.482   9.139
 2798POPC   GL238498  21.058  32.211   9.055
 2798POPC   C1A38499  21.523  32.455   8.738
 2798POPC   D2A38500  21.636  32.248   8.351
 2798POPC   C3A38501  21.539  32.494   7.994
 2798POPC   C4A38502  21.545  32.128   7.770
 2798POPC   C1B38503  20.870  32.098   8.667
 2798POPC   C2B38504  21.003  31.891   8.310
 2798POPC   C3B38505  21.205  31.767   7.976
 2798POPC   C4B38506  21.114  31.930   7.582
 2799POPC   NC338507  19.907   1.099   9.341
 2799POPC   PO438508  19.264   1.170   9.412
 2799POPC   GL138509  19.491   1.122   9.063
 2799POPC   GL238510  19.611   1.445   9.046
 2799POPC   C1A38511  19.757   1.124   8.687
 2799POPC   D2A38512  19.838   1.406   8.350
 2799POPC   C3A38513  19.894   1.131   8.002
 2799POPC   C4A38514  19.771   0.917   7.639
 2799POPC   C1B38515  19.943   1.665   8.793
 2799POPC   C2B38516  20.223   1.716   8.405
 2799POPC   C3B38517  20.088   1.647   7.944
 2799POPC   C4B38518  20.112   1.342   7.574
 2800POPC   NC338519  22.936  37.378   9.493
 2800POPC   PO438520  23.001  38.031   9.514
 2800POPC   GL138521  23.112  37.836   9.102
 2800POPC   GL238522  23.290  37.509   9.102
 2800POPC   C1A38523  22.831  37.606   8.784
 2800POPC   D2A38524  22.725  37.660   8.331
 2800POPC   C3A38525  23.019  37.963   8.132
 2800POPC   C4A38526  23.065  38.155   7.722
 2800POPC   C1B38527  23.317  37.560   8.629
 2800POPC   C2B38528  23.186  37.430   8.203
 2800POPC   C3B38529  22.995  37.563   7.808
 2800POPC   C4B38530  22.721  37.463   7.475
 2801POPC   NC338531  30.316  14.457   9.565
 2801POPC   PO438532  30.957  14.021   9.669
 2801POPC   GL138533  31.056  14.167   9.196
 2801POPC   GL238534  30.801  14.442   9.029
 2801POPC   C1A38535  30.997  14.080   8.747
 2801POPC   D2A38536  30.846  14.402   8.422
 2801POPC   C3A38537  30.813  14.368   7.974
 2801POPC   C4A38538  30.457  14.509   7.730
 2801POPC   C1B38539  30.480  14.251   8.743
 2801POPC   C2B38540  30.276  14.033   8.418
 2801POPC   C3B38541  30.374  14.115   8.040
 2801POPC   C4B38542  30.289  13.992   7.661
 2802POPC   NC338543  29.276  27.778   9.497
 2802POPC   PO438544  29.038  27.144   9.516
 2802POPC   GL138545  28.946  27.466   9.199
 2802POPC   GL238546  29.287  27.415   9.096
 2802POPC   C1A38547  28.954  27.648   8.756
 2802POPC   D2A38548  29.217  27.465   8.407
 2802POPC   C3A38549  29.177  27.635   7.999
 2802POPC   C4A38550  29.383  27.739   7.622
 2802POPC   C1B38551  29.533  27.213   8.768
 2802POPC   C2B38552  29.563  27.076   8.330
 2802POPC   C3B38553  29.582  27.300   7.929
 2802POPC   C4B38554  29.519  27.256   7.492
 2803POPC   NC338555  24.193  19.230   9.997
 2803POPC   PO438556  24.535  18.836   9.554
 2803POPC   GL138557  24.617  18.762   9.160
 2803POPC   GL238558  24.274  18.776   9.100
 2803POPC   C1A38559  24.731  18.930   8.746
 2803POPC   D2A38560  24.610  19.259   8.462
 2803POPC   C3A38561  24.746  19.168   8.052
 2803POPC   C4A38562  24.624  18.905   7.742
 2803POPC   C1B38563  24.230  19.042   8.747
 2803POPC   C2B38564  24.073  19.174   8.352
 2803POPC   C3B38565  24.214  19.118   7.941
 2803POPC   C4B38566  24.133  18.922   7.523
 2804POPC   NC338567  14.410  24.518   9.473
 2804POPC   PO438568  13.830  24.196   9.666
 2804POPC   GL138569  14.086  24.194   9.195
 2804POPC   GL238570  14.474  24.259   9.050
 2804POPC   C1A38571  14.142  24.288   8.689
 2804POPC   D2A38572  14.386  24.615   8.457
 2804POPC   C3A38573  14.282  24.757   8.053
 2804POPC   C4A38574  14.231  24.851   7.627
 2804POPC   C1B38575  14.674  24.246   8.664
 2804POPC   C2B38576  14.574  24.049   8.313
 2804POPC   C3B38577  14.282  24.199   8.075
 2804POPC   C4B38578  14.407  24.371   7.699
 2805POPC   NC338579   3.455  23.959   9.563
 2805POPC   PO438580   2.934  23.444   9.463
 2805POPC   GL138581   3.323  23.478   9.174
 2805POPC   GL238582   3.562  23.778   9.115
 2805POPC   C1A38583   3.487  23.478   8.735
 2805POPC   D2A38584   3.297  23.356   8.354
 2805POPC   C3A38585   3.417  23.607   8.031
 2805POPC   C4A38586   3.695  23.388   7.770
 2805POPC   C1B38587   3.834  23.859   8.758
 2805POPC   C2B38588   3.822  23.630   8.350
 2805POPC   C3B38589   3.960  23.778   7.954
 2805POPC   C4B38590   3.625  23.914   7.662
 2806POPC   NC338591   4.296  38.167  10.129
 2806POPC   PO438592   4.354  37.688   9.672
 2806POPC   GL138593   4.407  37.880   9.187
 2806POPC   GL238594   4.416  37.632   8.935
 2806POPC   C1A38595   4.210  38.091   8.763
 2806POPC   D2A38596   4.069  38.158   8.294
 2806POPC   C3A38597   4.322  37.933   7.953
 2806POPC   C4A38598   4.696  37.652   7.956
 2806POPC   C1B38599   4.108  37.587   8.619
 2806POPC   C2B38600   4.035  37.603   8.192
 2806POPC   C3B38601   3.971  37.341   7.826
 2806POPC   C4B38602   3.953  37.232   7.385
 2807POPC   NC338603  38.234   3.426   9.742
 2807POPC   PO438604  38.401   2.810   9.553
 2807POPC   GL138605  38.433   2.594   9.179
 2807POPC   GL238606  38.555   2.285   9.289
 2807POPC   C1A38607  38.271   2.693   8.758
 2807POPC   D2A38608  38.235   3.064   8.468
 2807POPC   C3A38609  38.241   2.918   8.035
 2807POPC   C4A38610  38.233   3.066   7.607
 2807POPC   C1B38611  38.638   2.307   8.830
 2807POPC   C2B38612  38.453   2.341   8.427
 2807POPC   C3B38613  38.600   2.377   8.032
 2807POPC   C4B38614  38.447   2.601   7.679
 2808POPC   NC338615   9.473  32.760   9.276
 2808POPC   PO438616   9.987  33.038   9.625
 2808POPC   GL138617   9.886  33.047   9.201
 2808POPC   GL238618   9.995  32.708   9.198
 2808POPC   C1A38619   9.678  33.155   8.774
 2808POPC   D2A38620   9.452  33.230   8.372
 2808POPC   C3A38621   9.661  33.106   7.991
 2808POPC   C4A38622   9.517  32.773   7.733
 2808POPC   C1B38623  10.004  32.597   8.767
 2808POPC   C2B38624   9.884  32.760   8.365
 2808POPC   C3B38625  10.029  32.667   7.946
 2808POPC   C4B38626  10.271  32.711   7.566
 2809POPC   NC338627  23.454  33.856   9.542
 2809POPC   PO438628  24.118  33.974   9.651
 2809POPC   GL138629  23.869  33.778   9.254
 2809POPC   GL238630  23.547  33.620   9.106
 2809POPC   C1A38631  23.934  33.759   8.811
 2809POPC   D2A38632  23.949  33.992   8.451
 2809POPC   C3A38633  23.905  33.820   8.068
 2809POPC   C4A38634  23.766  33.808   7.682
 2809POPC   C1B38635  23.538  33.422   8.722
 2809POPC   C2B38636  23.511  33.633   8.345
 2809POPC   C3B38637  23.383  33.568   7.947
 2809POPC   C4B38638  23.446  33.380   7.541
 2810POPC   NC338639  43.887  32.490   9.411
 2810POPC   PO438640  44.170  31.928   9.426
 2810POPC   GL138641  43.897  32.093   9.068
 2810POPC   GL238642  43.690  32.405   8.959
 2810POPC   C1A38643  44.096  32.296   8.693
 2810POPC   D2A38644  44.218  32.080   8.337
 2810POPC   C3A38645  44.162  32.356   8.018
 2810POPC   C4A38646  44.046  32.363   7.591
 2810POPC   C1B38647  43.621  32.187   8.595
 2810POPC   C2B38648  43.690  32.348   8.195
 2810POPC   C3B38649  43.595  32.221   7.774
 2810POPC   C4B38650  43.461  32.154   7.356
 2811POPC   NC338651   2.930  28.744   9.361
 2811POPC   PO438652   2.643  28.158   9.451
 2811POPC   GL138653   2.655  28.366   9.081
 2811POPC   GL238654   2.484  28.678   9.120
 2811POPC   C1A38655   2.804  28.207   8.689
 2811POPC   D2A38656   2.853  27.940   8.323
 2811POPC   C3A38657   2.822  28.143   7.941
 2811POPC   C4A38658   2.738  28.538   7.767
 2811POPC   C1B38659   2.476  28.669   8.673
 2811POPC   C2B38660   2.602  28.481   8.301
 2811POPC   C3B38661   2.353  28.151   8.123
 2811POPC   C4B38662   2.379  28.051   7.677
 2812POPC   NC338663  13.663   7.064   9.515
 2812POPC   PO438664  14.097   7.523   9.409
 2812POPC   GL138665  13.847   7.321   9.101
 2812POPC   GL238666  13.473   7.199   9.076
 2812POPC   C1A38667  13.785   7.529   8.737
 2812POPC   D2A38668  13.424   7.627   8.500
 2812POPC   C3A38669  13.424   7.524   8.077
 2812POPC   C4A38670  13.678   7.692   7.742
 2812POPC   C1B38671  13.625   7.026   8.728
 2812POPC   C2B38672  13.784   7.195   8.355
 2812POPC   C3B38673  13.883   7.284   7.962
 2812POPC   C4B38674  13.748   7.100   7.579
 2813POPC   NC338675  10.165  13.705   9.473
 2813POPC   PO438676  10.837  13.862   9.481
 2813POPC   GL138677  10.594  13.756   9.153
 2813POPC   GL238678  10.473  13.410   9.093
 2813POPC   C1A38679  10.593  13.848   8.748
 2813POPC   D2A38680  10.577  13.569   8.414
 2813POPC   C3A38681  10.533  13.781   8.039
 2813POPC   C4A38682  10.298  13.955   7.720
 2813POPC   C1B38683  10.653  13.146   8.754
 2813POPC   C2B38684  10.852  13.137   8.342
 2813POPC   C3B38685  10.592  13.254   7.977
 2813POPC   C4B38686  10.557  13.523   7.619
 2814POPC   NC338687   8.867  39.684   9.739
 2814POPC   PO438688   8.377  39.381   9.360
 2814POPC   GL138689   8.243  39.253   9.015
 2814POPC   GL238690   8.256  38.930   9.052
 2814POPC   C1A38691   8.107  39.232   8.616
 2814POPC   D2A38692   8.102  39.423   8.216
 2814POPC   C3A38693   7.835  39.276   7.921
 2814POPC   C4A38694   8.039  39.381   7.566
 2814POPC   C1B38695   8.181  38.700   8.712
 2814POPC   C2B38696   8.153  38.847   8.294
 2814POPC   C3B38697   8.161  38.887   7.887
 2814POPC   C4B38698   7.944  38.800   7.562
 2815POPC   NC338699   7.947  16.310   9.404
 2815POPC   PO438700   7.897  15.621   9.269
 2815POPC   GL138701   7.941  15.972   9.030
 2815POPC   GL238702   8.268  15.940   9.036
 2815POPC   C1A38703   7.980  16.096   8.616
 2815POPC   D2A38704   7.812  15.900   8.245
 2815POPC   C3A38705   8.033  15.717   7.894
 2815POPC   C4A38706   8.040  15.818   7.461
 2815POPC   C1B38707   8.514  16.149   8.726
 2815POPC   C2B38708   8.378  16.202   8.311
 2815POPC   C3B38709   8.146  16.223   7.936
 2815POPC   C4B38710   8.462  16.052   7.661
 2816POPC   NC338711   6.013   8.511   9.396
 2816POPC   PO438712   5.789   9.068   9.626
 2816POPC   GL138713   5.620   8.857   9.237
 2816POPC   GL238714   5.933   8.932   9.086
 2816POPC   C1A38715   5.565   8.872   8.735
 2816POPC   D2A38716   5.632   9.180   8.366
 2816POPC   C3A38717   5.471   9.064   7.913
 2816POPC   C4A38718   5.522   9.142   7.424
 2816POPC   C1B38719   6.119   9.138   8.722
 2816POPC   C2B38720   6.225   9.030   8.316
 2816POPC   C3B38721   6.238   9.007   7.871
 2816POPC   C4B38722   5.999   8.894   7.490
 2817POPC   NC338723  38.062  15.224   9.452
 2817POPC   PO438724  37.406  15.044   9.499
 2817POPC   GL138725  37.642  15.112   9.187
 2817POPC   GL238726  37.905  14.854   9.155
 2817POPC   C1A38727  37.667  15.335   8.822
 2817POPC   D2A38728  37.804  15.540   8.475
 2817POPC   C3A38729  37.733  15.350   8.089
 2817POPC   C4A38730  37.418  15.418   7.809
 2817POPC   C1B38731  37.759  14.819   8.786
 2817POPC   C2B38732  37.819  14.981   8.423
 2817POPC   C3B38733  37.946  14.888   8.060
 2817POPC   C4B38734  37.720  15.010   7.686
 2818POPC   NC338735  10.784  25.895   9.496
 2818POPC   PO438736  10.160  26.247   9.448
 2818POPC   GL138737  10.436  26.130   9.142
 2818POPC   GL238738  10.418  25.784   9.174
 2818POPC   C1A38739  10.679  26.274   8.794
 2818POPC   D2A38740  10.635  26.399   8.365
 2818POPC   C3A38741  10.833  26.250   7.986
 2818POPC   C4A38742  10.459  26.074   7.815
 2818POPC   C1B38743  10.611  25.761   8.776
 2818POPC   C2B38744  10.803  25.897   8.376
 2818POPC   C3B38745  10.852  25.715   7.942
 2818POPC   C4B38746  10.833  25.874   7.494
 2819POPC   NC338747  41.740  25.634   9.387
 2819POPC   PO438748  41.899  26.240   9.508
 2819POPC   GL138749  41.480  26.243   9.300
 2819POPC   GL238750  41.668  26.045   9.080
 2819POPC   C1A38751  41.363  26.349   8.840
 2819POPC   D2A38752  41.549  26.217   8.449
 2819POPC   C3A38753  41.290  26.342   8.103
 2819POPC   C4A38754  41.298  26.481   7.681
 2819POPC   C1B38755  41.852  25.841   8.723
 2819POPC   C2B38756  41.953  25.909   8.293
 2819POPC   C3B38757  41.647  25.907   7.963
 2819POPC   C4B38758  41.581  25.651   7.576
 2820POPC   NC338759  28.853  17.749   9.417
 2820POPC   PO438760  28.190  17.481   9.532
 2820POPC   GL138761  28.414  17.556   9.190
 2820POPC   GL238762  28.656  17.347   9.115
 2820POPC   C1A38763  28.442  17.794   8.831
 2820POPC   D2A38764  28.223  17.799   8.476
 2820POPC   C3A38765  28.395  17.962   8.128
 2820POPC   C4A38766  28.399  17.767   7.742
 2820POPC   C1B38767  28.571  17.338   8.697
 2820POPC   C2B38768  28.595  17.487   8.289
 2820POPC   C3B38769  28.510  17.287   7.890
 2820POPC   C4B38770  28.799  17.315   7.555
 2821POPC   NC338771  17.626  44.370   9.495
 2821POPC   PO438772  17.486  44.956   9.480
 2821POPC   GL138773  17.729  44.751   9.134
 2821POPC   GL238774  17.393  44.703   9.016
 2821POPC   C1A38775  17.754  44.581   8.682
 2821POPC   D2A38776  17.494  44.513   8.298
 2821POPC   C3A38777  17.626  44.621   7.883
 2821POPC   C4A38778  17.580  44.369   7.495
 2821POPC   C1B38779  17.387  44.960   8.636
 2821POPC   C2B38780  17.178   0.001   8.233
 2821POPC   C3B38781  17.337   0.076   7.851
 2821POPC   C4B38782  17.769   0.119   7.780
 2822POPC   NC338783  33.241  20.677   9.540
 2822POPC   PO438784  32.570  20.876   9.512
 2822POPC   GL138785  32.757  20.539   9.219
 2822POPC   GL238786  33.049  20.315   9.229
 2822POPC   C1A38787  32.928  20.595   8.828
 2822POPC   D2A38788  32.836  20.794   8.469
 2822POPC   C3A38789  33.150  20.860   8.196
 2822POPC   C4A38790  32.914  20.919   7.840
 2822POPC   C1B38791  32.966  20.094   8.809
 2822POPC   C2B38792  32.990  20.305   8.399
 2822POPC   C3B38793  33.009  20.384   7.969
 2822POPC   C4B38794  32.668  20.448   7.712
 2823POPC   NC338795   7.549   4.862   9.511
 2823POPC   PO438796   7.504   5.515   9.448
 2823POPC   GL138797   7.525   5.180   9.123
 2823POPC   GL238798   7.225   4.914   9.124
 2823POPC   C1A38799   7.480   5.061   8.702
 2823POPC   D2A38800   7.352   5.324   8.382
 2823POPC   C3A38801   7.505   5.087   8.059
 2823POPC   C4A38802   7.659   5.059   7.665
 2823POPC   C1B38803   7.011   5.182   8.819
 2823POPC   C2B38804   6.927   5.045   8.408
 2823POPC   C3B38805   6.995   5.212   8.015
 2823POPC   C4B38806   7.140   4.888   7.738
 2824POPC   NC338807  35.854  23.673   9.308
 2824POPC   PO438808  35.174  23.611   9.593
 2824POPC   GL138809  35.304  23.539   9.163
 2824POPC   GL238810  35.370  23.876   9.136
 2824POPC   C1A38811  35.250  23.404   8.702
 2824POPC   D2A38812  35.020  23.647   8.376
 2824POPC   C3A38813  35.100  23.626   7.970
 2824POPC   C4A38814  35.211  23.273   7.758
 2824POPC   C1B38815  35.257  23.943   8.715
 2824POPC   C2B38816  35.473  23.943   8.310
 2824POPC   C3B38817  35.485  23.936   7.867
 2824POPC   C4B38818  35.433  23.673   7.475
 2825POPC   NC338819  39.113  36.357   9.456
 2825POPC   PO438820  39.575  35.790   9.518
 2825POPC   GL138821  39.551  36.018   9.097
 2825POPC   GL238822  39.473  36.377   9.100
 2825POPC   C1A38823  39.481  35.904   8.650
 2825POPC   D2A38824  39.598  35.696   8.299
 2825POPC   C3A38825  39.526  35.921   7.916
 2825POPC   C4A38826  39.640  36.340   7.792
 2825POPC   C1B38827  39.166  36.260   8.784
 2825POPC   C2B38828  39.215  36.249   8.336
 2825POPC   C3B38829  39.133  36.304   7.922
 2825POPC   C4B38830  38.845  36.138   7.675
 2826POPC   NC338831  27.069  16.076   9.396
 2826POPC   PO438832  26.428  15.947   9.593
 2826POPC   GL138833  26.626  15.974   9.156
 2826POPC   GL238834  26.947  15.753   9.041
 2826POPC   C1A38835  26.739  16.076   8.709
 2826POPC   D2A38836  26.594  15.889   8.301
 2826POPC   C3A38837  26.763  16.043   7.903
 2826POPC   C4A38838  26.664  16.191   7.421
 2826POPC   C1B38839  27.063  15.658   8.632
 2826POPC   C2B38840  27.225  15.803   8.216
 2826POPC   C3B38841  27.158  15.627   7.798
 2826POPC   C4B38842  26.804  15.698   7.482
 2827POPC   NC338843  10.137  19.509   9.413
 2827POPC   PO438844  10.526  19.015   9.565
 2827POPC   GL138845  10.554  19.032   9.131
 2827POPC   GL238846  10.625  19.376   9.136
 2827POPC   C1A38847  10.374  18.827   8.745
 2827POPC   D2A38848  10.389  18.814   8.312
 2827POPC   C3A38849  10.326  18.963   7.901
 2827POPC   C4A38850  10.727  19.042   7.681
 2827POPC   C1B38851  10.449  19.324   8.715
 2827POPC   C2B38852  10.652  19.259   8.292
 2827POPC   C3B38853  10.475  19.438   7.941
 2827POPC   C4B38854  10.355  19.398   7.549
 2828POPC   NC338855   4.044  44.593   9.487
 2828POPC   PO438856   4.611  44.824   9.322
 2828POPC   GL138857   4.276  44.798   9.058
 2828POPC   GL238858   3.970  44.979   9.161
 2828POPC   C1A38859   4.340  44.772   8.630
 2828POPC   D2A38860   4.391  44.591   8.250
 2828POPC   C3A38861   4.404  44.894   7.934
 2828POPC   C4A38862   4.285  44.846   7.502
 2828POPC   C1B38863   3.859  44.748   8.770
 2828POPC   C2B38864   3.740  44.852   8.400
 2828POPC   C3B38865   3.922  44.758   8.048
 2828POPC   C4B38866   3.824  44.573   7.693
 2829POPC   NC338867  40.602  24.117   9.473
 2829POPC   PO438868  40.868  23.513   9.272
 2829POPC   GL138869  40.876  23.881   9.098
 2829POPC   GL238870  40.523  23.848   9.044
 2829POPC   C1A38871  40.889  23.807   8.693
 2829POPC   D2A38872  40.941  23.441   8.454
 2829POPC   C3A38873  40.780  23.543   8.080
 2829POPC   C4A38874  40.954  23.475   7.701
 2829POPC   C1B38875  40.487  23.524   8.717
 2829POPC   C2B38876  40.428  23.781   8.345
 2829POPC   C3B38877  40.468  23.962   7.938
 2829POPC   C4B38878  40.474  23.631   7.642
 2830POPC   NC338879  24.161  16.626   9.697
 2830POPC   PO438880  24.540  16.966   9.261
 2830POPC   GL138881  24.314  16.840   8.954
 2830POPC   GL238882  24.117  16.556   9.080
 2830POPC   C1A38883  24.318  16.965   8.556
 2830POPC   D2A38884  24.242  16.692   8.259
 2830POPC   C3A38885  24.483  16.646   7.893
 2830POPC   C4A38886  24.627  17.001   7.691
 2830POPC   C1B38887  24.329  16.386   8.691
 2830POPC   C2B38888  24.254  16.182   8.290
 2830POPC   C3B38889  24.120  16.270   7.849
 2830POPC   C4B38890  24.188  16.502   7.433
 2831POPC   NC338891   9.173   1.150   9.604
 2831POPC   PO438892   8.841   1.710   9.553
 2831POPC   GL138893   8.957   1.487   9.151
 2831POPC   GL238894   9.312   1.406   9.158
 2831POPC   C1A38895   8.960   1.378   8.679
 2831POPC   D2A38896   8.739   1.068   8.363
 2831POPC   C3A38897   8.857   0.947   7.914
 2831POPC   C4A38898   8.798   0.891   7.442
 2831POPC   C1B38899   9.453   1.560   8.746
 2831POPC   C2B38900   9.284   1.676   8.325
 2831POPC   C3B38901   9.362   1.488   7.918
 2831POPC   C4B38902   9.152   1.226   7.581
 2832POPC   NC338903  38.317  12.629   9.167
 2832POPC   PO438904  38.602  13.137   9.467
 2832POPC   GL138905  38.519  13.108   9.048
 2832POPC   GL238906  38.169  13.094   8.972
 2832POPC   C1A38907  38.600  12.941   8.641
 2832POPC   D2A38908  38.564  12.727   8.235
 2832POPC   C3A38909  38.669  13.016   7.873
 2832POPC   C4A38910  38.434  13.198   7.480
 2832POPC   C1B38911  38.025  12.857   8.611
 2832POPC   C2B38912  38.062  12.590   8.258
 2832POPC   C3B38913  38.194  12.795   7.886
 2832POPC   C4B38914  38.186  12.735   7.477
 2833POPC   NC338915   6.145  17.795   9.393
 2833POPC   PO438916   6.010  18.492   9.488
 2833POPC   GL138917   5.949  18.234   9.147
 2833POPC   GL238918   5.688  17.983   9.181
 2833POPC   C1A38919   6.090  18.281   8.734
 2833POPC   D2A38920   6.278  18.294   8.350
 2833POPC   C3A38921   6.120  18.281   7.961
 2833POPC   C4A38922   6.237  18.640   7.741
 2833POPC   C1B38923   5.720  17.961   8.731
 2833POPC   C2B38924   5.784  18.082   8.286
 2833POPC   C3B38925   5.723  17.958   7.829
 2833POPC   C4B38926   5.978  17.843   7.432
 2834POPC   NC338927  36.662  19.523   9.518
 2834POPC   PO438928  37.111  20.083   9.553
 2834POPC   GL138929  36.911  20.013   9.152
 2834POPC   GL238930  36.958  19.646   9.142
 2834POPC   C1A38931  36.672  19.849   8.783
 2834POPC   D2A38932  36.660  19.652   8.393
 2834POPC   C3A38933  36.881  19.822   8.106
 2834POPC   C4A38934  36.948  19.805   7.730
 2834POPC   C1B38935  37.169  19.629   8.760
 2834POPC   C2B38936  37.176  19.501   8.354
 2834POPC   C3B38937  37.333  19.548   7.923
 2834POPC   C4B38938  37.292  19.572   7.438
 2835POPC   NC338939  20.040  41.948   9.295
 2835POPC   PO438940  20.037  42.594   9.284
 2835POPC   GL138941  19.791  42.321   9.041
 2835POPC   GL238942  19.492  42.163   9.111
 2835POPC   C1A38943  19.773  42.036   8.699
 2835POPC   D2A38944  19.637  41.988   8.312
 2835POPC   C3A38945  19.897  42.189   8.025
 2835POPC   C4A38946  19.765  42.051   7.622
 2835POPC   C1B38947  19.413  42.381   8.686
 2835POPC   C2B38948  19.568  42.507   8.250
 2835POPC   C3B38949  19.536  42.471   7.776
 2835POPC   C4B38950  19.431  42.304   7.343
 2836POPC   NC338951  40.403  41.128   9.549
 2836POPC   PO438952  39.951  40.708   9.374
 2836POPC   GL138953  40.066  40.859   9.048
 2836POPC   GL238954  39.777  41.083   9.048
 2836POPC   C1A38955  40.146  40.735   8.647
 2836POPC   D2A38956  40.354  40.749   8.271
 2836POPC   C3A38957  40.125  40.598   7.997
 2836POPC   C4A38958  40.075  40.754   7.619
 2836POPC   C1B38959  39.767  41.250   8.629
 2836POPC   C2B38960  39.835  40.970   8.269
 2836POPC   C3B38961  39.670  40.925   7.853
 2836POPC   C4B38962  39.705  40.994   7.383
 2837POPC   NC338963   1.983  15.161   9.554
 2837POPC   PO438964   2.454  15.418   9.182
 2837POPC   GL138965   2.180  15.018   9.108
 2837POPC   GL238966   1.826  14.862   9.183
 2837POPC   C1A38967   2.132  14.764   8.775
 2837POPC   D2A38968   2.249  14.986   8.425
 2837POPC   C3A38969   2.045  14.956   8.058
 2837POPC   C4A38970   2.189  15.139   7.736
 2837POPC   C1B38971   1.739  15.099   8.815
 2837POPC   C2B38972   1.695  15.219   8.405
 2837POPC   C3B38973   1.529  15.024   8.045
 2837POPC   C4B38974   1.643  15.303   7.749
 2838POPC   NC338975  10.510   9.674   9.630
 2838POPC   PO438976  11.100   9.964   9.427
 2838POPC   GL138977  10.714   9.865   9.165
 2838POPC   GL238978  10.387   9.670   9.149
 2838POPC   C1A38979  10.714   9.692   8.733
 2838POPC   D2A38980  10.741   9.404   8.388
 2838POPC   C3A38981  10.660   9.616   7.997
 2838POPC   C4A38982  10.737   9.658   7.548
 2838POPC   C1B38983  10.224   9.798   8.755
 2838POPC   C2B38984  10.248   9.570   8.392
 2838POPC   C3B38985  10.100   9.751   8.056
 2838POPC   C4B38986  10.250   9.717   7.708
 2839POPC   NC338987   2.531  23.179   9.435
 2839POPC   PO438988   2.947  22.629   9.412
 2839POPC   GL138989   2.878  22.848   9.056
 2839POPC   GL238990   2.872  23.177   9.037
 2839POPC   C1A38991   2.694  22.787   8.685
 2839POPC   D2A38992   2.802  22.562   8.341
 2839POPC   C3A38993   2.869  22.872   8.068
 2839POPC   C4A38994   2.853  22.855   7.633
 2839POPC   C1B38995   2.861  23.279   8.619
 2839POPC   C2B38996   2.589  23.279   8.266
 2839POPC   C3B38997   2.507  23.159   7.842
 2839POPC   C4B38998   2.716  23.382   7.499
 2840POPC   NC338999   8.238  23.537   9.476
 2840POPC   PO439000   7.871  24.201   9.402
 2840POPC   GL139001   8.068  23.900   9.123
 2840POPC   GL239002   8.385  23.718   9.030
 2840POPC   C1A39003   8.039  23.823   8.689
 2840POPC   D2A39004   8.424  23.720   8.487
 2840POPC   C3A39005   8.401  23.785   8.073
 2840POPC   C4A39006   8.390  23.813   7.648
 2840POPC   C1B39007   8.644  23.402   8.829
 2840POPC   C2B39008   8.618  23.251   8.414
 2840POPC   C3B39009   8.742  23.401   8.022
 2840POPC   C4B39010   8.627  23.347   7.602
 2841POPC   NC339011  11.356  34.988   9.399
 2841POPC   PO439012  10.918  35.493   9.448
 2841POPC   GL139013  11.125  35.341   9.103
 2841POPC   GL239014  11.480  35.394   9.119
 2841POPC   C1A39015  11.282  35.164   8.714
 2841POPC   D2A39016  11.165  35.388   8.372
 2841POPC   C3A39017  11.360  35.317   8.015
 2841POPC   C4A39018  11.207  35.237   7.648
 2841POPC   C1B39019  11.700  35.548   8.795
 2841POPC   C2B39020  11.594  35.690   8.435
 2841POPC   C3B39021  11.390  35.830   8.120
 2841POPC   C4B39022  11.645  35.688   7.770
 2842POPC   NC339023  44.389   6.056   9.512
 2842POPC   PO439024   0.098   6.113   9.537
 2842POPC   GL139025  44.812   5.939   9.247
 2842POPC   GL239026  44.671   6.245   9.095
 2842POPC   C1A39027  44.826   5.760   8.842
 2842POPC   D2A39028  44.573   5.816   8.496
 2842POPC   C3A39029  44.669   5.649   8.100
 2842POPC   C4A39030  44.547   5.580   7.693
 2842POPC   C1B39031  44.648   6.382   8.642
 2842POPC   C2B39032  44.773   6.200   8.223
 2842POPC   C3B39033  44.590   6.080   7.833
 2842POPC   C4B39034  44.800   6.191   7.436
 2843POPC   NC339035  24.788  24.085   9.456
 2843POPC   PO439036  25.460  23.832   9.495
 2843POPC   GL139037  25.176  23.730   9.195
 2843POPC   GL239038  25.224  23.377   9.075
 2843POPC   C1A39039  25.251  23.794   8.765
 2843POPC   D2A39040  25.570  23.658   8.471
 2843POPC   C3A39041  25.387  23.730   8.083
 2843POPC   C4A39042  25.404  23.783   7.631
 2843POPC   C1B39043  25.230  23.320   8.612
 2843POPC   C2B39044  24.964  23.521   8.304
 2843POPC   C3B39045  24.976  23.543   7.847
 2843POPC   C4B39046  25.366  23.291   7.700
 2844POPC   NC339047  41.919  10.954   9.179
 2844POPC   PO439048  41.928  11.460   9.638
 2844POPC   GL139049  41.920  11.607   9.197
 2844POPC   GL239050  42.008  11.370   8.910
 2844POPC   C1A39051  41.836  11.842   8.787
 2844POPC   D2A39052  41.990  11.943   8.352
 2844POPC   C3A39053  42.058  11.629   8.009
 2844POPC   C4A39054  42.418  11.533   7.726
 2844POPC   C1B39055  42.343  11.080   8.699
 2844POPC   C2B39056  42.405  10.896   8.287
 2844POPC   C3B39057  42.477  11.042   7.898
 2844POPC   C4B39058  42.344  11.086   7.478
 2845POPC   NC339059  22.600  35.276   9.487
 2845POPC   PO439060  21.921  35.078   9.484
 2845POPC   GL139061  22.169  35.306   9.196
 2845POPC   GL239062  22.394  35.041   9.098
 2845POPC   C1A39063  22.174  35.413   8.767
 2845POPC   D2A39064  22.119  35.196   8.387
 2845POPC   C3A39065  22.155  35.339   7.989
 2845POPC   C4A39066  21.999  35.115   7.642
 2845POPC   C1B39067  22.552  35.048   8.675
 2845POPC   C2B39068  22.552  34.918   8.231
 2845POPC   C3B39069  22.508  35.011   7.787
 2845POPC   C4B39070  22.397  34.974   7.342
 2846POPC   NC339071  33.891  35.846   9.794
 2846POPC   PO439072  33.516  36.233   9.409
 2846POPC   GL139073  33.604  36.318   9.046
 2846POPC   GL239074  33.915  36.275   9.100
 2846POPC   C1A39075  33.663  36.508   8.691
 2846POPC   D2A39076  33.572  36.283   8.377
 2846POPC   C3A39077  33.796  36.294   8.054
 2846POPC   C4A39078  33.630  36.461   7.730
 2846POPC   C1B39079  34.029  36.147   8.723
 2846POPC   C2B39080  34.306  36.185   8.390
 2846POPC   C3B39081  34.299  36.345   7.998
 2846POPC   C4B39082  34.082  36.138   7.671
 2847POPC   NC339083  42.885  19.418   9.541
 2847POPC   PO439084  43.416  19.719   9.591
 2847POPC   GL139085  43.125  19.827   9.243
 2847POPC   GL239086  42.967  19.570   9.056
 2847POPC   C1A39087  43.029  20.008   8.814
 2847POPC   D2A39088  43.094  19.834   8.389
 2847POPC   C3A39089  43.175  20.119   8.019
 2847POPC   C4A39090  43.378  19.981   7.626
 2847POPC   C1B39091  42.708  19.612   8.691
 2847POPC   C2B39092  42.656  19.599   8.251
 2847POPC   C3B39093  42.633  19.961   7.984
 2847POPC   C4B39094  42.868  20.026   7.598
 2848POPC   NC339095  41.326  36.822   9.475
 2848POPC   PO439096  41.807  36.445   9.317
 2848POPC   GL139097  41.683  36.788   9.112
 2848POPC   GL239098  41.911  37.019   9.282
 2848POPC   C1A39099  41.393  36.899   8.773
 2848POPC   D2A39100  41.377  36.724   8.344
 2848POPC   C3A39101  41.346  36.950   7.961
 2848POPC   C4A39102  41.554  36.659   7.716
 2848POPC   C1B39103  41.921  37.111   8.814
 2848POPC   C2B39104  41.734  37.084   8.424
 2848POPC   C3B39105  41.839  36.942   8.068
 2848POPC   C4B39106  41.840  37.107   7.714
 2849POPC   NC339107  28.222  18.358   9.639
 2849POPC   PO439108  28.870  18.209   9.469
 2849POPC   GL139109  28.561  18.162   9.155
 2849POPC   GL239110  28.323  18.450   9.149
 2849POPC   C1A39111  28.536  18.281   8.707
 2849POPC   D2A39112  28.674  18.606   8.423
 2849POPC   C3A39113  28.472  18.503   8.028
 2849POPC   C4A39114  28.589  18.228   7.716
 2849POPC   C1B39115  28.050  18.468   8.792
 2849POPC   C2B39116  27.864  18.442   8.379
 2849POPC   C3B39117  27.973  18.618   7.985
 2849POPC   C4B39118  28.152  18.477   7.595
 2850POPC   NC339119  13.454  30.195   9.226
 2850POPC   PO439120  13.649  30.569   9.810
 2850POPC   GL139121  13.676  30.714   9.333
 2850POPC   GL239122  13.866  30.496   9.138
 2850POPC   C1A39123  13.476  30.742   8.895
 2850POPC   D2A39124  13.411  30.758   8.463
 2850POPC   C3A39125  13.739  31.005   8.286
 2850POPC   C4A39126  13.807  30.891   7.884
 2850POPC   C1B39127  13.819  30.389   8.687
 2850POPC   C2B39128  13.803  30.498   8.259
 2850POPC   C3B39129  13.448  30.539   7.986
 2850POPC   C4B39130  13.361  30.310   7.615
 2851POPC   NC339131   4.323   6.222   9.468
 2851POPC   PO439132   4.608   6.776   9.402
 2851POPC   GL139133   4.393   6.562   9.054
 2851POPC   GL239134   4.042   6.430   9.073
 2851POPC   C1A39135   4.468   6.735   8.634
 2851POPC   D2A39136   4.612   7.078   8.362
 2851POPC   C3A39137   4.582   6.866   7.963
 2851POPC   C4A39138   4.350   6.489   7.823
 2851POPC   C1B39139   3.939   6.675   8.671
 2851POPC   C2B39140   4.101   6.737   8.226
 2851POPC   C3B39141   4.090   6.970   7.809
 2851POPC   C4B39142   4.117   6.951   7.337
 2852POPC   NC339143  32.014   5.476   9.819
 2852POPC   PO439144  32.389   4.979   9.616
 2852POPC   GL139145  32.376   5.090   9.166
 2852POPC   GL239146  32.697   5.155   9.041
 2852POPC   C1A39147  32.187   5.102   8.736
 2852POPC   D2A39148  32.318   4.932   8.347
 2852POPC   C3A39149  32.183   5.123   7.958
 2852POPC   C4A39150  31.771   5.312   7.877
 2852POPC   C1B39151  32.631   5.333   8.650
 2852POPC   C2B39152  32.786   5.211   8.263
 2852POPC   C3B39153  32.713   5.252   7.846
 2852POPC   C4B39154  32.454   5.531   7.750
 2853POPC   NC339155  32.411  24.681   9.477
 2853POPC   PO439156  32.058  24.001   9.446
 2853POPC   GL139157  32.177  24.336   9.155
 2853POPC   GL239158  32.531  24.302   9.157
 2853POPC   C1A39159  32.224  24.655   8.802
 2853POPC   D2A39160  31.955  24.733   8.420
 2853POPC   C3A39161  32.150  24.698   7.981
 2853POPC   C4A39162  32.245  24.810   7.528
 2853POPC   C1B39163  32.516  24.240   8.743
 2853POPC   C2B39164  32.395  24.392   8.359
 2853POPC   C3B39165  32.276  24.193   8.002
 2853POPC   C4B39166  32.179  24.319   7.611
 2854POPC   NC339167  31.862   5.871   9.370
 2854POPC   PO439168  32.491   5.959   9.608
 2854POPC   GL139169  32.505   5.988   9.180
 2854POPC   GL239170  32.499   5.628   9.135
 2854POPC   C1A39171  32.640   5.911   8.735
 2854POPC   D2A39172  32.587   5.731   8.319
 2854POPC   C3A39173  32.562   5.997   8.003
 2854POPC   C4A39174  32.365   6.010   7.620
 2854POPC   C1B39175  32.202   5.607   8.770
 2854POPC   C2B39176  32.151   5.483   8.343
 2854POPC   C3B39177  32.063   5.742   7.977
 2854POPC   C4B39178  31.991   5.620   7.531
 2855POPC   NC339179   7.619   8.514   9.246
 2855POPC   PO439180   7.388   7.961   9.531
 2855POPC   GL139181   7.660   7.924   9.197
 2855POPC   GL239182   7.422   8.115   9.004
 2855POPC   C1A39183   7.786   7.862   8.755
 2855POPC   D2A39184   7.536   7.980   8.397
 2855POPC   C3A39185   7.562   8.272   8.089
 2855POPC   C4A39186   7.501   8.228   7.671
 2855POPC   C1B39187   7.111   8.234   8.716
 2855POPC   C2B39188   7.015   8.119   8.325
 2855POPC   C3B39189   7.068   8.224   7.950
 2855POPC   C4B39190   7.046   8.519   7.725
 2856POPC   NC339191  39.448  26.268   9.456
 2856POPC   PO439192  39.827  25.711   9.352
 2856POPC   GL139193  39.506  25.933   9.097
 2856POPC   GL239194  39.158  25.857   9.203
 2856POPC   C1A39195  39.315  26.122   8.723
 2856POPC   D2A39196  39.458  25.985   8.302
 2856POPC   C3A39197  39.279  26.169   7.923
 2856POPC   C4A39198  39.142  26.047   7.507
 2856POPC   C1B39199  38.918  25.811   8.812
 2856POPC   C2B39200  38.916  25.979   8.378
 2856POPC   C3B39201  38.940  25.805   7.953
 2856POPC   C4B39202  38.750  25.725   7.552
 2857POPC   NC339203  41.912   9.467   9.613
 2857POPC   PO439204  41.321   9.818   9.590
 2857POPC   GL139205  41.693   9.787   9.270
 2857POPC   GL239206  41.682  10.083   9.091
 2857POPC   C1A39207  41.822   9.703   8.801
 2857POPC   D2A39208  41.572   9.770   8.409
 2857POPC   C3A39209  41.759   9.853   7.997
 2857POPC   C4A39210  41.784   9.755   7.569
 2857POPC   C1B39211  41.330   9.833   8.893
 2857POPC   C2B39212  41.081   9.935   8.528
 2857POPC   C3B39213  41.232  10.023   8.107
 2857POPC   C4B39214  41.316   9.793   7.733
 2858POPC   NC339215  15.964  18.087   9.436
 2858POPC   PO439216  16.126  18.805   9.487
 2858POPC   GL139217  15.932  18.553   9.114
 2858POPC   GL239218  16.069  18.201   8.959
 2858POPC   C1A39219  15.848  18.523   8.667
 2858POPC   D2A39220  16.046  18.234   8.394
 2858POPC   C3A39221  16.102  18.458   8.039
 2858POPC   C4A39222  15.830  18.720   7.849
 2858POPC   C1B39223  15.667  18.054   8.712
 2858POPC   C2B39224  15.631  17.881   8.285
 2858POPC   C3B39225  15.886  17.984   7.916
 2858POPC   C4B39226  16.341  17.878   7.841
 2859POPC   NC339227  21.893  41.884   9.384
 2859POPC   PO439228  22.360  41.449   9.661
 2859POPC   GL139229  22.315  41.522   9.171
 2859POPC   GL239230  21.966  41.558   9.005
 2859POPC   C1A39231  22.317  41.344   8.712
 2859POPC   D2A39232  22.408  41.385   8.248
 2859POPC   C3A39233  22.151  41.612   7.968
 2859POPC   C4A39234  22.120  41.636   7.534
 2859POPC   C1B39235  22.295  41.846   8.765
 2859POPC   C2B39236  22.488  41.861   8.331
 2859POPC   C3B39237  22.470  41.984   7.856
 2859POPC   C4B39238  22.458  42.023   7.386
 2860POPC   NC339239   8.838  32.809   9.341
 2860POPC   PO439240   9.478  33.185   9.461
 2860POPC   GL139241   9.211  33.197   9.106
 2860POPC   GL239242   9.056  33.520   9.066
 2860POPC   C1A39243   9.107  32.986   8.716
 2860POPC   D2A39244   8.864  33.028   8.329
 2860POPC   C3A39245   9.105  33.037   7.951
 2860POPC   C4A39246   9.033  32.826   7.534
 2860POPC   C1B39247   8.812  33.419   8.700
 2860POPC   C2B39248   8.644  33.527   8.304
 2860POPC   C3B39249   8.536  33.386   7.895
 2860POPC   C4B39250   8.817  33.266   7.580
 2861POPC   NC339251  36.956   7.089   9.338
 2861POPC   PO439252  36.747   7.706   9.455
 2861POPC   GL139253  36.772   7.516   9.110
 2861POPC   GL239254  37.104   7.521   9.110
 2861POPC   C1A39255  36.765   7.649   8.726
 2861POPC   D2A39256  36.576   7.531   8.396
 2861POPC   C3A39257  36.767   7.558   8.013
 2861POPC   C4A39258  36.607   7.280   7.705
 2861POPC   C1B39259  37.279   7.310   8.773
 2861POPC   C2B39260  37.136   7.390   8.365
 2861POPC   C3B39261  37.275   7.582   7.970
 2861POPC   C4B39262  37.134   7.352   7.622
 2862POPC   NC339263  43.256  25.197   9.533
 2862POPC   PO439264  42.575  25.238   9.580
 2862POPC   GL139265  42.842  25.311   9.219
 2862POPC   GL239266  43.040  25.063   9.066
 2862POPC   C1A39267  42.832  25.469   8.779
 2862POPC   D2A39268  43.056  25.694   8.417
 2862POPC   C3A39269  42.967  25.456   8.051
 2862POPC   C4A39270  43.211  25.121   7.877
 2862POPC   C1B39271  43.378  24.954   8.742
 2862POPC   C2B39272  43.547  25.096   8.355
 2862POPC   C3B39273  43.629  24.862   7.993
 2862POPC   C4B39274  43.538  24.865   7.573
 2863POPC   NC339275  26.700  30.108   9.889
 2863POPC   PO439276  26.529  29.561   9.672
 2863POPC   GL139277  26.462  29.630   9.158
 2863POPC   GL239278  26.790  29.653   8.957
 2863POPC   C1A39279  26.470  30.021   8.847
 2863POPC   D2A39280  26.450  30.320   8.474
 2863POPC   C3A39281  26.630  30.143   8.084
 2863POPC   C4A39282  26.438  29.890   7.770
 2863POPC   C1B39283  27.044  29.794   8.627
 2863POPC   C2B39284  27.335  29.889   8.291
 2863POPC   C3B39285  27.160  29.886   7.902
 2863POPC   C4B39286  26.885  29.711   7.631
 2864POPC   NC339287   4.982   9.992   9.571
 2864POPC   PO439288   5.114   9.328   9.645
 2864POPC   GL139289   5.180   9.700   9.230
 2864POPC   GL239290   4.889   9.765   9.123
 2864POPC   C1A39291   5.317   9.743   8.768
 2864POPC   D2A39292   5.179   9.488   8.384
 2864POPC   C3A39293   5.369   9.621   7.987
 2864POPC   C4A39294   5.445   9.995   7.714
 2864POPC   C1B39295   4.801   9.651   8.745
 2864POPC   C2B39296   4.705   9.841   8.382
 2864POPC   C3B39297   4.823   9.657   8.015
 2864POPC   C4B39298   4.984   9.837   7.656
 2865POPC   NC339299  22.751  34.306   9.292
 2865POPC   PO439300  22.993  33.753   9.615
 2865POPC   GL139301  22.981  33.874   9.176
 2865POPC   GL239302  23.253  34.029   9.097
 2865POPC   C1A39303  22.943  34.011   8.695
 2865POPC   D2A39304  23.066  33.899   8.247
 2865POPC   C3A39305  22.889  34.080   7.869
 2865POPC   C4A39306  22.733  33.948   7.482
 2865POPC   C1B39307  23.473  33.995   8.713
 2865POPC   C2B39308  23.507  34.195   8.298
 2865POPC   C3B39309  23.383  34.094   7.890
 2865POPC   C4B39310  23.276  33.857   7.514
 2866POPC   NC339311  37.717  21.859   9.511
 2866POPC   PO439312  37.440  22.512   9.456
 2866POPC   GL139313  37.667  22.263   9.165
 2866POPC   GL239314  37.976  22.393   8.997
 2866POPC   C1A39315  37.640  22.016   8.833
 2866POPC   D2A39316  37.515  21.996   8.462
 2866POPC   C3A39317  37.675  22.246   8.138
 2866POPC   C4A39318  37.577  22.120   7.720
 2866POPC   C1B39319  38.137  22.033   8.769
 2866POPC   C2B39320  38.010  21.858   8.365
 2866POPC   C3B39321  38.063  21.946   7.932
 2866POPC   C4B39322  38.029  22.361   7.776
 2867POPC   NC339323  25.522  22.472   9.382
 2867POPC   PO439324  26.080  22.178   9.688
 2867POPC   GL139325  25.979  22.241   9.221
 2867POPC   GL239326  25.717  22.003   9.078
 2867POPC   C1A39327  26.143  22.096   8.789
 2867POPC   D2A39328  26.138  21.917   8.357
 2867POPC   C3A39329  26.263  22.240   8.075
 2867POPC   C4A39330  26.152  22.270   7.652
 2867POPC   C1B39331  25.646  22.316   8.775
 2867POPC   C2B39332  25.841  22.329   8.394
 2867POPC   C3B39333  25.718  22.283   7.982
 2867POPC   C4B39334  25.729  22.565   7.654
 2868POPC   NC339335  28.366  40.759   9.847
 2868POPC   PO439336  27.998  40.345   9.596
 2868POPC   GL139337  27.957  40.657   9.271
 2868POPC   GL239338  28.309  40.660   9.231
 2868POPC   C1A39339  28.045  40.605   8.790
 2868POPC   D2A39340  28.159  40.520   8.338
 2868POPC   C3A39341  28.276  40.882   8.075
 2868POPC   C4A39342  28.061  41.006   7.710
 2868POPC   C1B39343  28.519  40.462   8.860
 2868POPC   C2B39344  28.653  40.447   8.422
 2868POPC   C3B39345  28.684  40.560   7.980
 2868POPC   C4B39346  28.551  40.776   7.625
 2869POPC   NC339347  19.546  38.901   9.315
 2869POPC   PO439348  20.166  39.007   9.454
 2869POPC   GL139349  20.006  39.233   9.065
 2869POPC   GL239350  19.660  39.192   8.929
 2869POPC   C1A39351  20.010  39.298   8.605
 2869POPC   D2A39352  19.656  39.089   8.406
 2869POPC   C3A39353  19.775  38.930   8.038
 2869POPC   C4A39354  19.942  39.145   7.710
 2869POPC   C1B39355  19.544  39.524   8.648
 2869POPC   C2B39356  19.711  39.596   8.252
 2869POPC   C3B39357  19.791  39.642   7.809
 2869POPC   C4B39358  19.634  39.421   7.442
 2870POPC   NC339359   6.400  31.151   9.529
 2870POPC   PO439360   6.327  31.705   9.228
 2870POPC   GL139361   6.531  31.361   9.070
 2870POPC   GL239362   6.814  31.089   9.093
 2870POPC   C1A39363   6.594  31.353   8.657
 2870POPC   D2A39364   6.672  31.682   8.376
 2870POPC   C3A39365   6.693  31.547   7.951
 2870POPC   C4A39366   6.977  31.774   7.712
 2870POPC   C1B39367   7.072  31.239   8.693
 2870POPC   C2B39368   7.012  31.298   8.249
 2870POPC   C3B39369   7.107  31.263   7.794
 2870POPC   C4B39370   6.957  31.184   7.375
 2871POPC   NC339371  39.721  24.658   9.202
 2871POPC   PO439372  40.202  24.378   9.514
 2871POPC   GL139373  40.143  24.221   9.110
 2871POPC   GL239374  39.771  24.075   9.044
 2871POPC   C1A39375  40.245  24.546   8.791
 2871POPC   D2A39376  39.971  24.783   8.541
 2871POPC   C3A39377  40.052  24.730   8.120
 2871POPC   C4A39378  39.835  24.809   7.758
 2871POPC   C1B39379  39.848  24.256   8.687
 2871POPC   C2B39380  40.123  24.218   8.345
 2871POPC   C3B39381  39.978  24.159   7.929
 2871POPC   C4B39382  40.153  24.035   7.525
 2872POPC   NC339383  15.690   5.586   9.618
 2872POPC   PO439384  15.968   4.873   9.681
 2872POPC   GL139385  15.918   5.026   9.252
 2872POPC   GL239386  16.153   5.197   9.106
 2872POPC   C1A39387  15.860   4.904   8.816
 2872POPC   D2A39388  15.692   5.093   8.448
 2872POPC   C3A39389  15.621   4.790   8.097
 2872POPC   C4A39390  15.801   4.841   7.661
 2872POPC   C1B39391  16.182   5.307   8.726
 2872POPC   C2B39392  16.195   5.141   8.364
 2872POPC   C3B39393  15.980   5.154   8.010
 2872POPC   C4B39394  16.144   5.267   7.610
 2873POPC   NC339395  20.405   9.100   9.828
 2873POPC   PO439396  19.870   8.860   9.671
 2873POPC   GL139397  19.805   8.766   9.229
 2873POPC   GL239398  19.775   9.111   9.091
 2873POPC   C1A39399  19.705   8.731   8.781
 2873POPC   D2A39400  19.762   8.898   8.327
 2873POPC   C3A39401  19.887   8.605   7.992
 2873POPC   C4A39402  20.073   8.582   7.564
 2873POPC   C1B39403  20.091   9.065   8.708
 2873POPC   C2B39404  20.251   8.935   8.255
 2873POPC   C3B39405  20.050   9.052   7.839
 2873POPC   C4B39406  19.877   9.326   7.530
 2874POPC   NC339407  34.941  44.949   9.432
 2874POPC   PO439408  34.576  44.391   9.544
 2874POPC   GL139409  34.436  44.553   9.189
 2874POPC   GL239410  34.782  44.601   9.093
 2874POPC   C1A39411  34.428  44.732   8.776
 2874POPC   D2A39412  34.633  44.678   8.425
 2874POPC   C3A39413  34.365  44.649   8.091
 2874POPC   C4A39414  34.507  44.635   7.692
 2874POPC   C1B39415  34.866  44.985   8.797
 2874POPC   C2B39416  35.045  44.978   8.388
 2874POPC   C3B39417  34.935  44.763   8.004
 2874POPC   C4B39418  34.957  44.865   7.572
 2875POPC   NC339419   4.012  37.958   9.480
 2875POPC   PO439420   4.231  38.530   9.843
 2875POPC   GL139421   4.316  38.382   9.398
 2875POPC   GL239422   4.681  38.324   9.306
 2875POPC   C1A39423   4.329  38.578   8.978
 2875POPC   D2A39424   4.068  38.613   8.601
 2875POPC   C3A39425   4.247  38.701   8.209
 2875POPC   C4A39426   4.238  38.436   7.870
 2875POPC   C1B39427   4.701  38.248   8.848
 2875POPC   C2B39428   4.563  38.317   8.419
 2875POPC   C3B39429   4.692  38.281   7.986
 2875POPC   C4B39430   4.612  38.448   7.505
 2876POPC   NC339431   6.652  10.056   9.541
 2876POPC   PO439432   6.878   9.480   9.424
 2876POPC   GL139433   6.691   9.706   9.147
 2876POPC   GL239434   6.355   9.693   9.250
 2876POPC   C1A39435   6.825   9.854   8.777
 2876POPC   D2A39436   7.015   9.659   8.450
 2876POPC   C3A39437   6.885   9.797   8.076
 2876POPC   C4A39438   6.751   9.858   7.676
 2876POPC   C1B39439   6.327   9.665   8.790
 2876POPC   C2B39440   6.461   9.875   8.409
 2876POPC   C3B39441   6.362   9.947   8.002
 2876POPC   C4B39442   6.242   9.641   7.695
 2877POPC   NC339443  25.013  27.693   9.294
 2877POPC   PO439444  24.306  27.774   9.431
 2877POPC   GL139445  24.522  27.786   9.109
 2877POPC   GL239446  24.576  27.434   9.124
 2877POPC   C1A39447  24.568  27.811   8.689
 2877POPC   D2A39448  24.333  27.696   8.336
 2877POPC   C3A39449  24.565  27.757   7.979
 2877POPC   C4A39450  24.464  27.650   7.550
 2877POPC   C1B39451  24.261  27.420   8.791
 2877POPC   C2B39452  24.322  27.179   8.402
 2877POPC   C3B39453  24.451  27.240   7.981
 2877POPC   C4B39454  24.831  27.373   7.792
 2878POPC   NC339455  38.892  24.724   9.429
 2878POPC   PO439456  39.450  24.319   9.360
 2878POPC   GL139457  39.238  24.498   9.033
 2878POPC   GL239458  38.892  24.353   9.060
 2878POPC   C1A39459  39.435  24.553   8.616
 2878POPC   D2A39460  39.663  24.425   8.255
 2878POPC   C3A39461  39.466  24.532   7.920
 2878POPC   C4A39462  39.401  24.699   7.489
 2878POPC   C1B39463  38.946  24.398   8.620
 2878POPC   C2B39464  39.054  24.685   8.272
 2878POPC   C3B39465  39.004  24.705   7.838
 2878POPC   C4B39466  39.074  24.305   7.713
 2879POPC   NC339467  31.301  34.952   9.604
 2879POPC   PO439468  31.497  34.363   9.509
 2879POPC   GL139469  31.299  34.588   9.209
 2879POPC   GL239470  31.568  34.824   9.178
 2879POPC   C1A39471  31.297  34.638   8.766
 2879POPC   D2A39472  31.230  34.433   8.377
 2879POPC   C3A39473  31.395  34.669   8.061
 2879POPC   C4A39474  31.414  34.637   7.703
 2879POPC   C1B39475  31.811  34.636   8.859
 2879POPC   C2B39476  31.714  34.653   8.445
 2879POPC   C3B39477  31.797  34.372   8.100
 2879POPC   C4B39478  31.836  34.372   7.642
 2880POPC   NC339479  15.334  30.074   9.596
 2880POPC   PO439480  15.481  29.407   9.490
 2880POPC   GL139481  15.229  29.712   9.170
 2880POPC   GL239482  15.170  30.058   9.122
 2880POPC   C1A39483  15.115  29.740   8.717
 2880POPC   D2A39484  15.332  29.611   8.341
 2880POPC   C3A39485  15.136  29.763   7.964
 2880POPC   C4A39486  15.365  29.924   7.610
 2880POPC   C1B39487  14.775  30.096   8.857
 2880POPC   C2B39488  14.802  30.149   8.445
 2880POPC   C3B39489  14.995  30.255   8.063
 2880POPC   C4B39490  14.861  30.143   7.682
 2881POPC   NC339491  28.716  14.513   9.794
 2881POPC   PO439492  29.105  14.830   9.441
 2881POPC   GL139493  28.964  14.461   9.228
 2881POPC   GL239494  29.199  14.178   9.155
 2881POPC   C1A39495  28.773  14.377   8.873
 2881POPC   D2A39496  28.768  14.516   8.467
 2881POPC   C3A39497  29.001  14.243   8.169
 2881POPC   C4A39498  28.894  14.323   7.712
 2881POPC   C1B39499  29.263  14.312   8.755
 2881POPC   C2B39500  29.501  14.383   8.422
 2881POPC   C3B39501  29.423  14.472   8.004
 2881POPC   C4B39502  29.421  14.232   7.613
 2882POPC   NC339503  35.835  27.153   9.592
 2882POPC   PO439504  36.200  26.595   9.482
 2882POPC   GL139505  36.037  26.778   9.146
 2882POPC   GL239506  36.093  27.123   9.149
 2882POPC   C1A39507  35.814  26.684   8.783
 2882POPC   D2A39508  35.987  26.637   8.392
 2882POPC   C3A39509  35.835  26.666   7.979
 2882POPC   C4A39510  35.925  26.904   7.620
 2882POPC   C1B39511  36.104  27.116   8.733
 2882POPC   C2B39512  36.243  27.080   8.351
 2882POPC   C3B39513  36.093  27.200   8.012
 2882POPC   C4B39514  36.275  27.373   7.694
 2883POPC   NC339515  36.766  14.488   9.837
 2883POPC   PO439516  36.074  14.523   9.612
 2883POPC   GL139517  36.224  14.635   9.227
 2883POPC   GL239518  36.123  14.339   9.100
 2883POPC   C1A39519  36.377  14.667   8.810
 2883POPC   D2A39520  36.570  14.558   8.430
 2883POPC   C3A39521  36.381  14.652   8.030
 2883POPC   C4A39522  36.090  14.432   7.764
 2883POPC   C1B39523  36.229  14.077   8.753
 2883POPC   C2B39524  36.363  14.081   8.348
 2883POPC   C3B39525  36.119  13.989   8.013
 2883POPC   C4B39526  36.154  13.932   7.574
 2884POPC   NC339527  13.522   0.840   9.697
 2884POPC   PO439528  13.548   0.294   9.423
 2884POPC   GL139529  13.704   0.437   9.055
 2884POPC   GL239530  13.894   0.798   9.071
 2884POPC   C1A39531  13.523   0.361   8.654
 2884POPC   D2A39532  13.307   0.335   8.241
 2884POPC   C3A39533  13.532   0.490   7.864
 2884POPC   C4A39534  13.534   0.445   7.417
 2884POPC   C1B39535  13.529   0.851   8.840
 2884POPC   C2B39536  13.461   0.796   8.388
 2884POPC   C3B39537  13.703   0.944   8.041
 2884POPC   C4B39538  13.522   1.002   7.633
 2885POPC   NC339539  11.773  18.851   9.441
 2885POPC   PO439540  12.388  19.030   9.656
 2885POPC   GL139541  12.222  18.969   9.234
 2885POPC   GL239542  11.986  19.233   9.120
 2885POPC   C1A39543  12.128  18.890   8.782
 2885POPC   D2A39544  12.101  19.141   8.397
 2885POPC   C3A39545  12.344  19.056   8.013
 2885POPC   C4A39546  12.224  19.192   7.606
 2885POPC   C1B39547  11.726  19.281   8.745
 2885POPC   C2B39548  11.589  19.011   8.397
 2885POPC   C3B39549  11.595  19.099   7.975
 2885POPC   C4B39550  11.497  19.495   7.829
 2886POPC   NC339551  25.885   1.392   9.564
 2886POPC   PO439552  26.145   0.717   9.599
 2886POPC   GL139553  26.209   1.082   9.225
 2886POPC   GL239554  25.994   1.393   9.091
 2886POPC   C1A39555  26.361   1.248   8.791
 2886POPC   D2A39556  26.236   1.529   8.437
 2886POPC   C3A39557  26.333   1.386   8.039
 2886POPC   C4A39558  26.280   1.256   7.635
 2886POPC   C1B39559  25.832   1.342   8.697
 2886POPC   C2B39560  25.961   1.038   8.388
 2886POPC   C3B39561  25.956   1.020   7.942
 2886POPC   C4B39562  25.805   1.425   7.756
 2887POPC   NC339563  20.224  22.349   9.298
 2887POPC   PO439564  19.803  21.953   9.676
 2887POPC   GL139565  19.791  22.067   9.200
 2887POPC   GL239566  20.122  21.973   9.001
 2887POPC   C1A39567  19.616  22.209   8.780
 2887POPC   D2A39568  19.707  22.420   8.368
 2887POPC   C3A39569  19.621  22.246   7.966
 2887POPC   C4A39570  19.501  21.984   7.627
 2887POPC   C1B39571  20.123  22.298   8.657
 2887POPC   C2B39572  20.240  22.459   8.237
 2887POPC   C3B39573  20.085  22.436   7.797
 2887POPC   C4B39574  20.079  22.526   7.342
 2888POPC   NC339575  25.752  22.488   9.833
 2888POPC   PO439576  25.108  22.389   9.574
 2888POPC   GL139577  24.927  22.386   9.194
 2888POPC   GL239578  25.146  22.113   9.135
 2888POPC   C1A39579  25.081  22.463   8.773
 2888POPC   D2A39580  25.203  22.261   8.408
 2888POPC   C3A39581  25.093  22.507   8.069
 2888POPC   C4A39582  25.240  22.275   7.709
 2888POPC   C1B39583  25.277  21.936   8.791
 2888POPC   C2B39584  25.633  21.856   8.545
 2888POPC   C3B39585  25.706  21.725   8.139
 2888POPC   C4B39586  25.958  21.849   7.815
 2889POPC   NC339587  28.166  29.976   9.586
 2889POPC   PO439588  28.756  29.911   9.214
 2889POPC   GL139589  28.362  29.820   9.051
 2889POPC   GL239590  28.035  29.667   9.182
 2889POPC   C1A39591  28.519  29.800   8.620
 2889POPC   D2A39592  28.766  30.133   8.470
 2889POPC   C3A39593  28.507  30.162   8.119
 2889POPC   C4A39594  28.256  29.907   7.854
 2889POPC   C1B39595  28.097  29.551   8.729
 2889POPC   C2B39596  28.258  29.449   8.302
 2889POPC   C3B39597  28.076  29.418   7.874
 2889POPC   C4B39598  28.143  29.595   7.449
 2890POPC   NC339599  23.474  30.299   9.424
 2890POPC   PO439600  23.876  30.876   9.501
 2890POPC   GL139601  23.911  30.745   9.087
 2890POPC   GL239602  23.689  30.490   9.002
 2890POPC   C1A39603  23.798  30.898   8.720
 2890POPC   D2A39604  23.979  30.905   8.353
 2890POPC   C3A39605  23.768  30.982   7.960
 2890POPC   C4A39606  23.974  30.749   7.650
 2890POPC   C1B39607  23.709  30.429   8.542
 2890POPC   C2B39608  23.775  30.490   8.111
 2890POPC   C3B39609  23.515  30.541   7.775
 2890POPC   C4B39610  23.280  30.332   7.476
 2891POPC   NC339611  41.192  43.580   9.672
 2891POPC   PO439612  40.756  42.978   9.604
 2891POPC   GL139613  40.766  42.881   9.192
 2891POPC   GL239614  40.675  43.251   9.172
 2891POPC   C1A39615  40.905  42.699   8.828
 2891POPC   D2A39616  40.724  42.801   8.453
 2891POPC   C3A39617  40.861  42.630   8.127
 2891POPC   C4A39618  40.815  42.720   7.734
 2891POPC   C1B39619  40.807  43.204   8.779
 2891POPC   C2B39620  40.761  43.330   8.393
 2891POPC   C3B39621  40.766  43.157   8.034
 2891POPC   C4B39622  40.907  43.216   7.669
 2892POPC   NC339623  12.263  26.470   9.288
 2892POPC   PO439624  12.382  25.955   9.660
 2892POPC   GL139625  12.179  25.985   9.193
 2892POPC   GL239626  11.876  25.792   9.257
 2892POPC   C1A39627  12.191  26.141   8.741
 2892POPC   D2A39628  11.959  26.115   8.359
 2892POPC   C3A39629  12.147  26.093   7.940
 2892POPC   C4A39630  12.274  25.704   7.773
 2892POPC   C1B39631  11.640  25.761   8.881
 2892POPC   C2B39632  11.650  25.685   8.449
 2892POPC   C3B39633  11.741  25.784   8.039
 2892POPC   C4B39634  11.717  25.845   7.606
 2893POPC   NC339635   1.292   2.049   9.456
 2893POPC   PO439636   0.689   1.992   9.656
 2893POPC   GL139637   0.895   1.890   9.227
 2893POPC   GL239638   0.943   2.197   9.078
 2893POPC   C1A39639   1.165   1.879   8.765
 2893POPC   D2A39640   1.297   2.179   8.367
 2893POPC   C3A39641   1.261   2.050   7.898
 2893POPC   C4A39642   1.404   1.656   7.688
 2893POPC   C1B39643   0.748   2.141   8.679
 2893POPC   C2B39644   0.810   2.033   8.252
 2893POPC   C3B39645   0.790   2.281   7.881
 2893POPC   C4B39646   0.982   2.276   7.464
 2894POPC   NC339647   5.647  44.619   9.582
 2894POPC   PO439648   6.138   0.021   9.413
 2894POPC   GL139649   5.934  44.935   9.012
 2894POPC   GL239650   5.605  44.793   9.100
 2894POPC   C1A39651   5.943  44.590   8.710
 2894POPC   D2A39652   5.869  44.376   8.290
 2894POPC   C3A39653   5.970  44.646   7.930
 2894POPC   C4A39654   6.004  44.643   7.467
 2894POPC   C1B39655   5.449  44.667   8.689
 2894POPC   C2B39656   5.599  44.808   8.303
 2894POPC   C3B39657   5.436  44.688   7.921
 2894POPC   C4B39658   5.495  44.651   7.485
 2895POPC   NC339659  12.388   8.119   9.541
 2895POPC   PO439660  11.718   8.398   9.487
 2895POPC   GL139661  11.865   8.285   9.091
 2895POPC   GL239662  12.216   8.155   9.061
 2895POPC   C1A39663  11.776   8.159   8.691
 2895POPC   D2A39664  12.026   8.222   8.338
 2895POPC   C3A39665  11.873   8.371   7.973
 2895POPC   C4A39666  11.934   8.192   7.615
 2895POPC   C1B39667  12.265   7.936   8.676
 2895POPC   C2B39668  12.433   7.789   8.272
 2895POPC   C3B39669  12.219   7.826   7.871
 2895POPC   C4B39670  12.309   7.895   7.421
 2896POPC   NC339671  10.582  38.880   9.649
 2896POPC   PO439672  10.349  38.244   9.558
 2896POPC   GL139673  10.562  38.526   9.258
 2896POPC   GL239674  10.804  38.812   9.182
 2896POPC   C1A39675  10.676  38.354   8.879
 2896POPC   D2A39676  10.441  38.376   8.494
 2896POPC   C3A39677  10.466  38.107   8.146
 2896POPC   C4A39678  10.206  38.304   7.836
 2896POPC   C1B39679  10.960  38.772   8.813
 2896POPC   C2B39680  10.921  38.540   8.457
 2896POPC   C3B39681  10.918  38.372   8.066
 2896POPC   C4B39682  10.679  38.406   7.725
 2897POPC   NC339683  31.816  29.809   9.308
 2897POPC   PO439684  32.452  30.069   9.474
 2897POPC   GL139685  32.321  30.085   9.058
 2897POPC   GL239686  32.260  29.743   9.070
 2897POPC   C1A39687  31.988  30.010   8.722
 2897POPC   D2A39688  31.947  29.828   8.348
 2897POPC   C3A39689  32.192  30.065   8.105
 2897POPC   C4A39690  32.144  30.085   7.706
 2897POPC   C1B39691  32.432  29.748   8.650
 2897POPC   C2B39692  32.684  29.507   8.379
 2897POPC   C3B39693  32.620  29.647   7.988
 2897POPC   C4B39694  32.232  29.577   7.855
 2898POPC   NC339695  42.862  34.814   9.461
 2898POPC   PO439696  43.279  34.320   9.546
 2898POPC   GL139697  43.184  34.534   9.167
 2898POPC   GL239698  43.029  34.228   9.089
 2898POPC   C1A39699  43.080  34.848   8.817
 2898POPC   D2A39700  42.899  34.712   8.398
 2898POPC   C3A39701  43.099  34.779   8.020
 2898POPC   C4A39702  42.962  34.896   7.658
 2898POPC   C1B39703  43.130  34.353   8.694
 2898POPC   C2B39704  43.253  34.334   8.312
 2898POPC   C3B39705  43.114  34.293   7.929
 2898POPC   C4B39706  43.148  34.439   7.516
 2899POPC   NC339707   8.115  10.928   9.452
 2899POPC   PO439708   8.418  11.459   9.465
 2899POPC   GL139709   8.244  11.378   9.092
 2899POPC   GL239710   8.165  11.049   8.973
 2899POPC   C1A39711   8.359  11.463   8.686
 2899POPC   D2A39712   8.116  11.528   8.350
 2899POPC   C3A39713   8.276  11.511   7.957
 2899POPC   C4A39714   8.145  11.225   7.684
 2899POPC   C1B39715   8.540  10.994   8.813
 2899POPC   C2B39716   8.681  11.120   8.436
 2899POPC   C3B39717   8.424  11.044   8.101
 2899POPC   C4B39718   8.603  10.959   7.737
 2900POPC   NC339719  37.842  40.592   9.221
 2900POPC   PO439720  37.304  40.844   9.576
 2900POPC   GL139721  37.415  41.115   9.110
 2900POPC   GL239722  37.764  41.077   9.039
 2900POPC   C1A39723  37.459  41.049   8.643
 2900POPC   D2A39724  37.635  40.640   8.508
 2900POPC   C3A39725  37.637  40.618   8.067
 2900POPC   C4A39726  37.513  40.758   7.653
 2900POPC   C1B39727  38.038  40.958   8.694
 2900POPC   C2B39728  37.949  40.984   8.258
 2900POPC   C3B39729  37.930  41.017   7.819
 2900POPC   C4B39730  38.257  41.039   7.531
 2901POPC   NC339731  21.515  18.833   9.600
 2901POPC   PO439732  21.171  18.373   9.556
 2901POPC   GL139733  21.279  18.233   9.142
 2901POPC   GL239734  21.621  18.149   9.087
 2901POPC   C1A39735  21.315  18.155   8.696
 2901POPC   D2A39736  21.270  18.338   8.331
 2901POPC   C3A39737  21.341  18.226   7.931
 2901POPC   C4A39738  21.122  18.462   7.603
 2901POPC   C1B39739  21.822  18.289   8.696
 2901POPC   C2B39740  21.832  18.111   8.282
 2901POPC   C3B39741  21.833  18.239   7.874
 2901POPC   C4B39742  21.597  18.260   7.470
 2902POPC   NC339743   4.693  11.986   9.497
 2902POPC   PO439744   4.050  12.337   9.507
 2902POPC   GL139745   4.243  11.992   9.236
 2902POPC   GL239746   4.069  11.657   9.139
 2902POPC   C1A39747   4.183  12.104   8.803
 2902POPC   D2A39748   4.020  12.102   8.390
 2902POPC   C3A39749   4.264  12.350   8.090
 2902POPC   C4A39750   4.183  12.270   7.665
 2902POPC   C1B39751   4.408  11.649   8.811
 2902POPC   C2B39752   4.502  11.779   8.367
 2902POPC   C3B39753   4.286  11.860   7.954
 2902POPC   C4B39754   4.391  11.787   7.501
 2903POPC   NC339755  19.058  18.646   9.577
 2903POPC   PO439756  18.833  19.248   9.498
 2903POPC   GL139757  19.061  18.994   9.199
 2903POPC   GL239758  19.173  19.300   9.053
 2903POPC   C1A39759  19.077  18.809   8.780
 2903POPC   D2A39760  19.020  19.075   8.395
 2903POPC   C3A39761  19.048  18.913   7.957
 2903POPC   C4A39762  19.385  18.864   7.677
 2903POPC   C1B39763  19.232  19.514   8.665
 2903POPC   C2B39764  19.415  19.404   8.276
 2903POPC   C3B39765  19.282  19.377   7.835
 2903POPC   C4B39766  19.294  19.534   7.404
 2904POPC   NC339767  34.180  44.151   9.541
 2904POPC   PO439768  34.658  43.656   9.505
 2904POPC   GL139769  34.416  43.851   9.175
 2904POPC   GL239770  34.639  44.091   9.116
 2904POPC   C1A39771  34.491  43.778   8.723
 2904POPC   D2A39772  34.770  43.677   8.366
 2904POPC   C3A39773  34.590  43.729   7.971
 2904POPC   C4A39774  34.253  43.666   7.736
 2904POPC   C1B39775  34.649  44.270   8.729
 2904POPC   C2B39776  34.544  44.183   8.312
 2904POPC   C3B39777  34.725  44.238   7.915
 2904POPC   C4B39778  34.516  44.100   7.545
 2905POPC   NC339779   1.022  14.916   9.427
 2905POPC   PO439780   1.539  15.457   9.583
 2905POPC   GL139781   1.413  15.230   9.196
 2905POPC   GL239782   1.331  14.908   9.021
 2905POPC   C1A39783   1.257  15.364   8.776
 2905POPC   D2A39784   1.180  15.189   8.373
 2905POPC   C3A39785   1.201  15.407   7.989
 2905POPC   C4A39786   0.945  15.515   7.652
 2905POPC   C1B39787   0.957  14.934   8.773
 2905POPC   C2B39788   0.794  14.879   8.357
 2905POPC   C3B39789   0.935  14.940   7.919
 2905POPC   C4B39790   1.225  15.040   7.587
 2906POPC   NC339791   0.235  20.416   9.472
 2906POPC   PO439792   0.667  20.841   9.423
 2906POPC   GL139793   0.437  20.938   9.049
 2906POPC   GL239794   0.361  20.631   9.033
 2906POPC   C1A39795   0.321  20.922   8.605
 2906POPC   D2A39796   0.537  21.047   8.232
 2906POPC   C3A39797   0.444  20.776   7.895
 2906POPC   C4A39798   0.555  20.675   7.479
 2906POPC   C1B39799   0.535  20.395   8.692
 2906POPC   C2B39800   0.419  20.473   8.303
 2906POPC   C3B39801   0.271  20.288   7.945
 2906POPC   C4B39802   0.075  20.468   7.617
 2907POPC   NC339803   3.849  11.859   9.566
 2907POPC   PO439804   3.268  12.202   9.443
 2907POPC   GL139805   3.476  11.894   9.196
 2907POPC   GL239806   3.760  12.087   9.121
 2907POPC   C1A39807   3.549  11.815   8.752
 2907POPC   D2A39808   3.319  12.001   8.400
 2907POPC   C3A39809   3.448  11.890   7.997
 2907POPC   C4A39810   3.458  12.115   7.628
 2907POPC   C1B39811   3.701  12.349   8.773
 2907POPC   C2B39812   3.521  12.510   8.431
 2907POPC   C3B39813   3.672  12.342   8.068
 2907POPC   C4B39814   3.749  12.515   7.693
 2908POPC   NC339815  39.524  34.640   9.470
 2908POPC   PO439816  38.853  34.438   9.387
 2908POPC   GL139817  38.954  34.608   8.977
 2908POPC   GL239818  39.289  34.490   9.043
 2908POPC   C1A39819  38.963  34.926   8.594
 2908POPC   D2A39820  38.937  35.052   8.133
 2908POPC   C3A39821  38.898  34.662   7.882
 2908POPC   C4A39822  39.028  34.244   7.778
 2908POPC   C1B39823  39.415  34.669   8.670
 2908POPC   C2B39824  39.272  34.669   8.244
 2908POPC   C3B39825  39.421  34.607   7.832
 2908POPC   C4B39826  39.856  34.603   7.693
 2909POPC   NC339827  25.139   7.983   9.581
 2909POPC   PO439828  25.527   8.523   9.510
 2909POPC   GL139829  25.460   8.214   9.162
 2909POPC   GL239830  25.459   7.867   9.198
 2909POPC   C1A39831  25.386   8.127   8.705
 2909POPC   D2A39832  25.550   8.283   8.289
 2909POPC   C3A39833  25.385   8.450   7.902
 2909POPC   C4A39834  25.342   8.202   7.544
 2909POPC   C1B39835  25.262   7.649   8.817
 2909POPC   C2B39836  25.087   7.806   8.392
 2909POPC   C3B39837  25.260   7.928   7.990
 2909POPC   C4B39838  25.158   7.749   7.611
 2910POPC   NC339839  44.317  30.926   9.656
 2910POPC   PO439840  44.944  30.660   9.556
 2910POPC   GL139841  44.809  30.621   9.141
 2910POPC   GL239842  44.486  30.786   9.153
 2910POPC   C1A39843  44.747  30.764   8.706
 2910POPC   D2A39844  44.523  30.677   8.340
 2910POPC   C3A39845  44.788  30.493   8.054
 2910POPC   C4A39846  44.770  30.704   7.690
 2910POPC   C1B39847  44.261  30.933   8.753
 2910POPC   C2B39848  44.072  30.954   8.315
 2910POPC   C3B39849  44.279  30.927   7.926
 2910POPC   C4B39850  44.467  31.117   7.555
 2911POPC   NC339851  39.455  44.223   9.870
 2911POPC   PO439852  39.068  43.772   9.513
 2911POPC   GL139853  39.081  43.733   9.109
 2911POPC   GL239854  39.417  43.728   9.103
 2911POPC   C1A39855  38.992  43.628   8.699
 2911POPC   D2A39856  38.802  43.480   8.336
 2911POPC   C3A39857  38.969  43.731   7.996
 2911POPC   C4A39858  39.157  44.126   7.804
 2911POPC   C1B39859  39.391  43.975   8.743
 2911POPC   C2B39860  39.368  43.777   8.388
 2911POPC   C3B39861  39.483  43.787   8.030
 2911POPC   C4B39862  39.688  43.985   7.766
 2912POPC   NC339863   5.627  27.072   9.463
 2912POPC   PO439864   5.955  27.570   9.715
 2912POPC   GL139865   5.911  27.502   9.267
 2912POPC   GL239866   5.914  27.814   9.058
 2912POPC   C1A39867   5.742  27.399   8.839
 2912POPC   D2A39868   5.804  27.714   8.521
 2912POPC   C3A39869   5.869  27.560   8.094
 2912POPC   C4A39870   5.795  27.820   7.750
 2912POPC   C1B39871   6.242  27.909   8.746
 2912POPC   C2B39872   6.251  27.857   8.333
 2912POPC   C3B39873   6.238  27.925   7.953
 2912POPC   C4B39874   6.273  28.028   7.551
 2913POPC   NC339875  39.629   2.381   9.408
 2913POPC   PO439876  39.717   1.691   9.449
 2913POPC   GL139877  39.875   2.002   9.119
 2913POPC   GL239878  39.629   2.226   8.936
 2913POPC   C1A39879  40.124   2.073   8.717
 2913POPC   D2A39880  39.975   2.072   8.242
 2913POPC   C3A39881  40.310   2.122   7.902
 2913POPC   C4A39882  40.360   2.307   7.453
 2913POPC   C1B39883  39.651   1.947   8.631
 2913POPC   C2B39884  39.629   1.674   8.288
 2913POPC   C3B39885  39.807   1.458   7.953
 2913POPC   C4B39886  39.833   1.570   7.492
 2914POPC   NC339887  42.743  27.019   9.655
 2914POPC   PO439888  43.320  26.751   9.600
 2914POPC   GL139889  43.195  26.645   9.193
 2914POPC   GL239890  42.994  26.940   9.205
 2914POPC   C1A39891  42.929  26.628   8.804
 2914POPC   D2A39892  43.015  26.839   8.409
 2914POPC   C3A39893  42.975  26.682   7.969
 2914POPC   C4A39894  43.318  26.916   7.712
 2914POPC   C1B39895  42.882  27.173   8.832
 2914POPC   C2B39896  42.604  27.152   8.466
 2914POPC   C3B39897  42.848  27.193   8.073
 2914POPC   C4B39898  42.823  27.070   7.669
 2915POPC   NC339899   8.493   0.932   9.423
 2915POPC   PO439900   8.105   1.404   9.360
 2915POPC   GL139901   8.089   1.075   9.089
 2915POPC   GL239902   7.775   0.952   9.212
 2915POPC   C1A39903   8.267   1.112   8.678
 2915POPC   D2A39904   8.214   1.373   8.315
 2915POPC   C3A39905   8.363   1.174   7.934
 2915POPC   C4A39906   8.662   1.355   7.637
 2915POPC   C1B39907   7.676   1.056   8.765
 2915POPC   C2B39908   7.676   1.316   8.378
 2915POPC   C3B39909   7.854   1.271   7.961
 2915POPC   C4B39910   7.921   0.855   7.755
 2916POPC   NC339911   8.006  14.120   9.505
 2916POPC   PO439912   8.155  14.770   9.665
 2916POPC   GL139913   8.074  14.603   9.268
 2916POPC   GL239914   8.374  14.473   9.234
 2916POPC   C1A39915   8.083  14.601   8.788
 2916POPC   D2A39916   8.056  14.213   8.470
 2916POPC   C3A39917   8.256  14.225   8.087
 2916POPC   C4A39918   8.287  14.673   7.999
 2916POPC   C1B39919   8.587  14.626   8.877
 2916POPC   C2B39920   8.501  14.503   8.467
 2916POPC   C3B39921   8.729  14.434   8.106
 2916POPC   C4B39922   8.639  14.270   7.741
 2917POPC   NC339923  11.576  40.866   9.351
 2917POPC   PO439924  10.996  41.126   9.386
 2917POPC   GL139925  11.121  40.777   9.099
 2917POPC   GL239926  11.313  40.961   8.863
 2917POPC   C1A39927  11.263  40.493   8.704
 2917POPC   D2A39928  11.432  40.690   8.326
 2917POPC   C3A39929  11.337  40.930   7.974
 2917POPC   C4A39930  11.151  40.722   7.654
 2917POPC   C1B39931  11.728  40.756   8.735
 2917POPC   C2B39932  11.927  40.589   8.356
 2917POPC   C3B39933  11.790  40.514   7.937
 2917POPC   C4B39934  11.650  40.693   7.528
 2918POPC   NC339935  31.808   6.924   9.233
 2918POPC   PO439936  32.380   6.880   9.514
 2918POPC   GL139937  32.344   6.544   9.193
 2918POPC   GL239938  32.081   6.313   9.244
 2918POPC   C1A39939  32.221   6.592   8.760
 2918POPC   D2A39940  32.116   6.828   8.397
 2918POPC   C3A39941  32.498   6.898   8.189
 2918POPC   C4A39942  32.530   6.859   7.745
 2918POPC   C1B39943  32.157   6.101   8.827
 2918POPC   C2B39944  32.179   6.048   8.385
 2918POPC   C3B39945  32.222   6.387   8.055
 2918POPC   C4B39946  32.189   6.476   7.618
 2919POPC   NC339947  39.520  23.194   9.526
 2919POPC   PO439948  38.943  22.837   9.477
 2919POPC   GL139949  39.178  22.979   9.166
 2919POPC   GL239950  39.481  22.808   9.166
 2919POPC   C1A39951  39.178  22.884   8.748
 2919POPC   D2A39952  39.115  23.107   8.374
 2919POPC   C3A39953  39.099  22.788   8.079
 2919POPC   C4A39954  39.003  22.819   7.703
 2919POPC   C1B39955  39.628  23.094   8.861
 2919POPC   C2B39956  39.608  23.207   8.435
 2919POPC   C3B39957  39.471  23.106   7.993
 2919POPC   C4B39958  39.488  23.032   7.512
 2920POPC   NC339959   5.994  31.891   9.464
 2920POPC   PO439960   5.797  31.328   9.636
 2920POPC   GL139961   5.964  31.349   9.202
 2920POPC   GL239962   5.884  31.639   8.988
 2920POPC   C1A39963   5.886  31.151   8.798
 2920POPC   D2A39964   5.794  31.281   8.348
 2920POPC   C3A39965   5.670  31.290   7.891
 2920POPC   C4A39966   5.285  31.410   7.610
 2920POPC   C1B39967   6.149  31.566   8.608
 2920POPC   C2B39968   6.239  31.457   8.170
 2920POPC   C3B39969   6.073  31.710   7.814
 2920POPC   C4B39970   6.181  31.824   7.380
 2921POPC   NC339971  34.633   7.070   9.453
 2921POPC   PO439972  34.329   7.732   9.267
 2921POPC   GL139973  34.388   7.331   9.073
 2921POPC   GL239974  34.744   7.207   8.985
 2921POPC   C1A39975  34.190   7.255   8.686
 2921POPC   D2A39976  34.057   7.391   8.279
 2921POPC   C3A39977  34.321   7.237   7.940
 2921POPC   C4A39978  34.503   7.473   7.589
 2921POPC   C1B39979  34.706   7.545   8.712
 2921POPC   C2B39980  34.550   7.553   8.292
 2921POPC   C3B39981  34.831   7.536   7.958
 2921POPC   C4B39982  34.996   7.443   7.561
 2922POPC   NC339983  43.124  15.592   9.720
 2922POPC   PO439984  43.240  16.224   9.553
 2922POPC   GL139985  43.231  16.060   9.134
 2922POPC   GL239986  43.018  15.753   9.168
 2922POPC   C1A39987  43.316  16.121   8.685
 2922POPC   D2A39988  43.251  15.833   8.356
 2922POPC   C3A39989  43.070  15.996   8.005
 2922POPC   C4A39990  43.076  15.798   7.599
 2922POPC   C1B39991  42.866  15.816   8.733
 2922POPC   C2B39992  42.697  15.766   8.310
 2922POPC   C3B39993  42.612  15.865   7.853
 2922POPC   C4B39994  42.585  15.900   7.417
 2923POPC   NC339995  36.926  11.841   9.214
 2923POPC   PO439996  36.568  12.187   9.674
 2923POPC   GL139997  36.660  12.270   9.175
 2923POPC   GL239998  36.413  12.348   8.947
 2923POPC   C1A39999  36.875  12.289   8.730
 2923POPC   D2A40000  36.722  12.199   8.292
 2923POPC   C3A40001  36.920  11.984   7.952
 2923POPC   C4A40002  37.049  12.015   7.506
 2923POPC   C1B40003  36.436  11.961   8.638
 2923POPC   C2B40004  36.654  11.664   8.318
 2923POPC   C3B40005  36.611  11.597   7.857
 2923POPC   C4B40006  36.546  11.945   7.571
 2924POPC   NC340007   4.936  40.759   9.424
 2924POPC   PO440008   5.564  40.585   9.470
 2924POPC   GL140009   5.359  40.621   9.099
 2924POPC   GL240010   5.263  40.958   8.978
 2924POPC   C1A40011   5.374  40.596   8.662
 2924POPC   D2A40012   5.100  40.813   8.407
 2924POPC   C3A40013   5.150  40.606   8.045
 2924POPC   C4A40014   5.427  40.805   7.785
 2924POPC   C1B40015   4.859  41.104   8.811
 2924POPC   C2B40016   4.607  40.982   8.450
 2924POPC   C3B40017   4.778  40.961   8.033
 2924POPC   C4B40018   5.049  41.192   7.713
 2925POPC   NC340019  28.768   4.501   9.519
 2925POPC   PO440020  28.118   4.360   9.540
 2925POPC   GL140021  28.311   4.452   9.172
 2925POPC   GL240022  28.591   4.228   9.125
 2925POPC   C1A40023  28.198   4.309   8.768
 2925POPC   D2A40024  28.337   4.455   8.394
 2925POPC   C3A40025  28.115   4.386   8.042
 2925POPC   C4A40026  28.274   4.497   7.657
 2925POPC   C1B40027  28.643   4.042   8.740
 2925POPC   C2B40028  28.753   4.161   8.344
 2925POPC   C3B40029  28.560   4.135   7.965
 2925POPC   C4B40030  28.444   4.036   7.551
 2926POPC   NC340031  27.085  35.759   9.356
 2926POPC   PO440032  26.804  36.263   9.652
 2926POPC   GL140033  26.708  36.233   9.197
 2926POPC   GL240034  26.785  35.979   9.029
 2926POPC   C1A40035  26.561  36.351   8.757
 2926POPC   D2A40036  26.822  36.398   8.358
 2926POPC   C3A40037  26.648  36.442   7.942
 2926POPC   C4A40038  26.275  36.349   7.689
 2926POPC   C1B40039  26.880  35.951   8.624
 2926POPC   C2B40040  26.532  35.957   8.368
 2926POPC   C3B40041  26.489  35.936   7.942
 2926POPC   C4B40042  26.928  35.956   7.814
 2927POPC   NC340043  29.639   8.024   9.686
 2927POPC   PO440044  30.105   8.378   9.385
 2927POPC   GL140045  30.136   8.230   9.022
 2927POPC   GL240046  29.971   7.952   9.066
 2927POPC   C1A40047  30.058   8.208   8.587
 2927POPC   D2A40048  29.987   8.493   8.245
 2927POPC   C3A40049  29.659   8.400   8.009
 2927POPC   C4A40050  29.733   8.216   7.642
 2927POPC   C1B40051  30.354   7.845   8.810
 2927POPC   C2B40052  30.464   7.909   8.403
 2927POPC   C3B40053  30.224   8.047   8.038
 2927POPC   C4B40054  30.167   7.974   7.594
 2928POPC   NC340055  39.511  16.388   9.409
 2928POPC   PO440056  39.128  16.852   9.539
 2928POPC   GL140057  39.056  16.787   9.131
 2928POPC   GL240058  39.130  16.474   9.114
 2928POPC   C1A40059  39.295  16.840   8.751
 2928POPC   D2A40060  39.610  16.821   8.416
 2928POPC   C3A40061  39.435  16.848   7.994
 2928POPC   C4A40062  39.039  16.932   7.778
 2928POPC   C1B40063  39.336  16.304   8.743
 2928POPC   C2B40064  39.159  16.157   8.358
 2928POPC   C3B40065  39.213  16.373   7.948
 2928POPC   C4B40066  38.990  16.397   7.561
 2929POPC   NC340067   6.101   1.430   9.644
 2929POPC   PO440068   5.689   0.956   9.619
 2929POPC   GL140069   5.822   1.125   9.211
 2929POPC   GL240070   5.826   1.480   9.185
 2929POPC   C1A40071   5.851   0.975   8.767
 2929POPC   D2A40072   6.040   1.063   8.364
 2929POPC   C3A40073   6.000   1.062   7.951
 2929POPC   C4A40074   6.250   1.284   7.688
 2929POPC   C1B40075   5.488   1.333   8.881
 2929POPC   C2B40076   5.518   1.198   8.445
 2929POPC   C3B40077   5.530   1.249   7.974
 2929POPC   C4B40078   5.745   1.395   7.585
 2930POPC   NC340079   0.982  43.589   9.484
 2930POPC   PO440080   1.519  43.987   9.541
 2930POPC   GL140081   1.406  43.820   9.130
 2930POPC   GL240082   1.062  43.906   9.101
 2930POPC   C1A40083   1.322  43.896   8.662
 2930POPC   D2A40084   1.216  43.723   8.266
 2930POPC   C3A40085   1.306  43.893   7.874
 2930POPC   C4A40086   1.016  43.781   7.581
 2930POPC   C1B40087   0.841  44.177   8.825
 2930POPC   C2B40088   1.068  44.327   8.522
 2930POPC   C3B40089   1.048  44.284   8.099
 2930POPC   C4B40090   1.027  44.267   7.686
 2931POPC   NC340091  27.022  11.886   9.458
 2931POPC   PO440092  26.595  12.341   9.631
 2931POPC   GL140093  26.765  12.263   9.198
 2931POPC   GL240094  26.622  11.907   9.121
 2931POPC   C1A40095  26.992  12.092   8.820
 2931POPC   D2A40096  26.820  11.885   8.468
 2931POPC   C3A40097  26.823  12.055   8.060
 2931POPC   C4A40098  27.136  12.201   7.773
 2931POPC   C1B40099  26.382  11.890   8.730
 2931POPC   C2B40100  26.320  12.051   8.327
 2931POPC   C3B40101  26.336  11.883   7.917
 2931POPC   C4B40102  26.685  11.809   7.618
 2932POPC   NC340103  33.505  15.750   9.609
 2932POPC   PO440104  34.102  16.202   9.496
 2932POPC   GL140105  33.953  16.107   9.122
 2932POPC   GL240106  33.636  15.985   9.186
 2932POPC   C1A40107  33.929  16.194   8.696
 2932POPC   D2A40108  33.956  15.995   8.317
 2932POPC   C3A40109  33.812  16.206   7.984
 2932POPC   C4A40110  33.766  16.029   7.598
 2932POPC   C1B40111  33.443  16.124   8.825
 2932POPC   C2B40112  33.457  15.984   8.410
 2932POPC   C3B40113  33.422  15.876   7.989
 2932POPC   C4B40114  33.282  16.196   7.678
 2933POPC   NC340115   2.983   0.571  10.002
 2933POPC   PO440116   2.527   0.149   9.636
 2933POPC   GL140117   2.728   0.492   9.295
 2933POPC   GL240118   3.055   0.547   9.190
 2933POPC   C1A40119   2.770   0.486   8.784
 2933POPC   D2A40120   2.569   0.315   8.385
 2933POPC   C3A40121   2.759   0.322   7.980
 2933POPC   C4A40122   2.813   0.546   7.596
 2933POPC   C1B40123   3.269   0.556   8.806
 2933POPC   C2B40124   3.159   0.420   8.373
 2933POPC   C3B40125   3.193   0.573   7.946
 2933POPC   C4B40126   3.199   0.891   7.614
 2934POPC   NC340127   5.836   6.463   9.549
 2934POPC   PO440128   6.083   7.119   9.381
 2934POPC   GL140129   5.883   6.835   9.093
 2934POPC   GL240130   5.978   6.470   9.067
 2934POPC   C1A40131   5.717   6.773   8.689
 2934POPC   D2A40132   5.970   6.560   8.381
 2934POPC   C3A40133   5.869   6.612   7.935
 2934POPC   C4A40134   5.774   6.850   7.576
 2934POPC   C1B40135   5.638   6.297   8.857
 2934POPC   C2B40136   5.572   6.175   8.423
 2934POPC   C3B40137   5.701   6.127   8.005
 2934POPC   C4B40138   5.760   6.230   7.570
 2935POPC   NC340139  10.690   6.337   9.424
 2935POPC   PO440140  10.147   6.681   9.397
 2935POPC   GL140141  10.492   6.728   9.140
 2935POPC   GL240142  10.560   7.037   9.157
 2935POPC   C1A40143  10.630   6.502   8.784
 2935POPC   D2A40144  10.371   6.429   8.422
 2935POPC   C3A40145  10.542   6.487   8.027
 2935POPC   C4A40146  10.280   6.649   7.735
 2935POPC   C1B40147  10.782   7.026   8.791
 2935POPC   C2B40148  10.761   6.801   8.393
 2935POPC   C3B40149  10.789   6.941   7.973
 2935POPC   C4B40150  10.496   7.092   7.709
 2936POPC   NC340151  14.479   3.801   9.662
 2936POPC   PO440152  14.311   3.124   9.506
 2936POPC   GL140153  14.299   3.490   9.190
 2936POPC   GL240154  14.228   3.238   8.984
 2936POPC   C1A40155  14.247   3.665   8.720
 2936POPC   D2A40156  14.495   3.603   8.315
 2936POPC   C3A40157  14.310   3.616   7.864
 2936POPC   C4A40158  14.440   3.806   7.444
 2936POPC   C1B40159  14.546   3.227   8.729
 2936POPC   C2B40160  14.515   3.080   8.331
 2936POPC   C3B40161  14.661   3.234   7.962
 2936POPC   C4B40162  14.676   3.393   7.563
 2937POPC   NC340163  39.399  14.773   9.365
 2937POPC   PO440164  38.901  14.355   9.583
 2937POPC   GL140165  39.112  14.289   9.210
 2937POPC   GL240166  38.949  14.569   9.105
 2937POPC   C1A40167  39.426  14.314   8.861
 2937POPC   D2A40168  39.593  14.618   8.552
 2937POPC   C3A40169  39.469  14.541   8.122
 2937POPC   C4A40170  39.309  14.190   7.862
 2937POPC   C1B40171  38.937  14.279   8.731
 2937POPC   C2B40172  39.018  14.198   8.288
 2937POPC   C3B40173  38.843  14.377   7.914
 2937POPC   C4B40174  38.784  14.631   7.573
 2938POPC   NC340175   5.673  18.836   9.565
 2938POPC   PO440176   6.145  19.287   9.383
 2938POPC   GL140177   5.946  19.309   9.006
 2938POPC   GL240178   5.713  19.042   9.069
 2938POPC   C1A40179   5.668  19.338   8.651
 2938POPC   D2A40180   5.600  19.100   8.282
 2938POPC   C3A40181   5.999  19.032   8.118
 2938POPC   C4A40182   6.103  19.135   7.730
 2938POPC   C1B40183   5.914  18.888   8.657
 2938POPC   C2B40184   5.822  18.593   8.331
 2938POPC   C3B40185   5.744  18.639   7.905
 2938POPC   C4B40186   5.450  18.536   7.623
 2939POPC   NC340187  39.545  12.271   9.481
 2939POPC   PO440188  39.054  11.989   9.889
 2939POPC   GL140189  39.012  11.976   9.391
 2939POPC   GL240190  39.123  12.288   9.190
 2939POPC   C1A40191  39.041  11.891   8.902
 2939POPC   D2A40192  39.117  12.203   8.530
 2939POPC   C3A40193  38.965  12.176   8.105
 2939POPC   C4A40194  39.100  11.881   7.816
 2939POPC   C1B40195  39.477  12.321   8.862
 2939POPC   C2B40196  39.649  12.158   8.483
 2939POPC   C3B40197  39.481  12.089   8.098
 2939POPC   C4B40198  39.454  12.273   7.701
 2940POPC   NC340199  10.307  26.770   9.579
 2940POPC   PO440200  10.951  26.580   9.513
 2940POPC   GL140201  10.600  26.645   9.176
 2940POPC   GL240202  10.235  26.630   9.097
 2940POPC   C1A40203  10.598  26.804   8.736
 2940POPC   D2A40204  10.479  26.865   8.298
 2940POPC   C3A40205  10.773  26.968   8.000
 2940POPC   C4A40206  10.548  27.149   7.682
 2940POPC   C1B40207  10.159  26.386   8.740
 2940POPC   C2B40208   9.892  26.336   8.390
 2940POPC   C3B40209  10.142  26.421   8.050
 2940POPC   C4B40210  10.460  26.601   7.833
 2941POPC   NC340211  20.133  15.086   9.709
 2941POPC   PO440212  20.092  15.734   9.658
 2941POPC   GL140213  20.159  15.450   9.253
 2941POPC   GL240214  20.118  15.100   9.195
 2941POPC   C1A40215  19.967  15.433   8.820
 2941POPC   D2A40216  19.681  15.320   8.495
 2941POPC   C3A40217  19.849  15.378   8.105
 2941POPC   C4A40218  19.931  15.521   7.696
 2941POPC   C1B40219  20.098  14.917   8.805
 2941POPC   C2B40220  19.897  14.846   8.442
 2941POPC   C3B40221  20.016  14.748   8.070
 2941POPC   C4B40222  19.873  14.988   7.744
 2942POPC   NC340223  12.543  31.545   9.468
 2942POPC   PO440224  13.074  31.329   9.702
 2942POPC   GL140225  12.933  31.268   9.255
 2942POPC   GL240226  12.943  31.540   9.114
 2942POPC   C1A40227  12.823  31.166   8.767
 2942POPC   D2A40228  12.855  31.264   8.317
 2942POPC   C3A40229  12.601  31.187   7.961
 2942POPC   C4A40230  12.831  31.150   7.588
 2942POPC   C1B40231  13.026  31.623   8.715
 2942POPC   C2B40232  13.120  31.702   8.286
 2942POPC   C3B40233  12.960  31.582   7.890
 2942POPC   C4B40234  13.099  31.782   7.525
 2943POPC   NC340235  35.814   3.976   9.437
 2943POPC   PO440236  36.252   4.427   9.710
 2943POPC   GL140237  36.297   4.084   9.300
 2943POPC   GL240238  36.002   4.165   9.026
 2943POPC   C1A40239  36.362   3.897   8.840
 2943POPC   D2A40240  36.322   3.854   8.378
 2943POPC   C3A40241  36.199   4.232   8.148
 2943POPC   C4A40242  36.249   4.293   7.704
 2943POPC   C1B40243  35.904   4.243   8.599
 2943POPC   C2B40244  35.682   4.424   8.250
 2943POPC   C3B40245  35.685   4.285   7.845
 2943POPC   C4B40246  35.778   4.186   7.458
 2944POPC   NC340247  27.136  39.731   9.558
 2944POPC   PO440248  26.672  40.027   9.240
 2944POPC   GL140249  26.957  39.914   8.948
 2944POPC   GL240250  27.313  39.858   9.075
 2944POPC   C1A40251  26.911  40.152   8.579
 2944POPC   D2A40252  26.834  40.342   8.184
 2944POPC   C3A40253  26.491  40.362   7.883
 2944POPC   C4A40254  26.600  40.081   7.569
 2944POPC   C1B40255  27.264  39.746   8.594
 2944POPC   C2B40256  26.969  39.815   8.234
 2944POPC   C3B40257  27.050  40.011   7.839
 2944POPC   C4B40258  27.401  39.935   7.546
 2945POPC   NC340259  32.657  27.308   9.486
 2945POPC   PO440260  32.099  27.766   9.607
 2945POPC   GL140261  32.294  27.630   9.235
 2945POPC   GL240262  32.112  27.358   9.079
 2945POPC   C1A40263  32.272  27.780   8.810
 2945POPC   D2A40264  32.168  27.523   8.468
 2945POPC   C3A40265  32.175  27.717   8.090
 2945POPC   C4A40266  32.224  27.509   7.712
 2945POPC   C1B40267  32.494  27.326   8.844
 2945POPC   C2B40268  32.625  27.253   8.467
 2945POPC   C3B40269  32.424  27.240   8.094
 2945POPC   C4B40270  32.652  27.252   7.736
 2946POPC   NC340271  36.478  31.194   9.731
 2946POPC   PO440272  36.991  31.640   9.707
 2946POPC   GL140273  36.797  31.674   9.247
 2946POPC   GL240274  36.785  31.356   9.117
 2946POPC   C1A40275  36.862  31.679   8.742
 2946POPC   D2A40276  36.746  31.808   8.311
 2946POPC   C3A40277  36.966  31.692   7.926
 2946POPC   C4A40278  37.278  31.383   7.742
 2946POPC   C1B40279  37.033  31.198   8.777
 2946POPC   C2B40280  37.068  30.940   8.436
 2946POPC   C3B40281  36.984  31.193   8.112
 2946POPC   C4B40282  36.654  31.312   7.828
 2947POPC   NC340283  44.511  15.655   9.289
 2947POPC   PO440284  44.506  15.084   9.620
 2947POPC   GL140285  44.396  15.117   9.173
 2947POPC   GL240286  44.703  15.216   9.072
 2947POPC   C1A40287  44.345  15.192   8.704
 2947POPC   D2A40288  44.673  14.972   8.468
 2947POPC   C3A40289  44.678  14.945   8.035
 2947POPC   C4A40290  44.273  14.915   7.836
 2947POPC   C1B40291  44.768  15.475   8.685
 2947POPC   C2B40292  44.564  15.592   8.308
 2947POPC   C3B40293  44.451  15.401   7.921
 2947POPC   C4B40294  44.694  15.370   7.561
 2948POPC   NC340295  13.375  11.673   9.420
 2948POPC   PO440296  13.530  11.105   9.460
 2948POPC   GL140297  13.778  11.180   9.080
 2948POPC   GL240298  13.482  11.276   9.002
 2948POPC   C1A40299  13.755  11.415   8.625
 2948POPC   D2A40300  13.495  11.590   8.268
 2948POPC   C3A40301  13.640  11.374   7.919
 2948POPC   C4A40302  14.060  11.207   7.758
 2948POPC   C1B40303  13.167  11.086   8.807
 2948POPC   C2B40304  13.212  11.213   8.458
 2948POPC   C3B40305  13.281  11.067   8.122
 2948POPC   C4B40306  13.243  11.092   7.718
 2949POPC   NC340307  11.605  36.740   9.319
 2949POPC   PO440308  12.291  36.624   9.375
 2949POPC   GL140309  12.183  36.988   9.126
 2949POPC   GL240310  11.862  37.182   9.098
 2949POPC   C1A40311  12.027  36.859   8.723
 2949POPC   D2A40312  11.866  36.694   8.356
 2949POPC   C3A40313  12.085  36.793   8.003
 2949POPC   C4A40314  12.182  36.556   7.687
 2949POPC   C1B40315  12.153  37.343   8.761
 2949POPC   C2B40316  12.089  37.212   8.322
 2949POPC   C3B40317  11.973  37.278   7.876
 2949POPC   C4B40318  11.883  37.000   7.521
 2950POPC   NC340319  24.899  34.742   9.231
 2950POPC   PO440320  24.308  34.706   9.528
 2950POPC   GL140321  24.420  34.506   9.134
 2950POPC   GL240322  24.725  34.281   9.148
 2950POPC   C1A40323  24.497  34.485   8.708
 2950POPC   D2A40324  24.651  34.681   8.359
 2950POPC   C3A40325  24.320  34.671   8.091
 2950POPC   C4A40326  24.298  34.522   7.693
 2950POPC   C1B40327  24.878  34.158   8.743
 2950POPC   C2B40328  24.957  34.223   8.325
 2950POPC   C3B40329  24.746  34.335   7.940
 2950POPC   C4B40330  24.666  34.237   7.482
 2951POPC   NC340331  14.824   2.896   9.414
 2951POPC   PO440332  15.336   2.376   9.502
 2951POPC   GL140333  15.270   2.534   9.124
 2951POPC   GL240334  15.289   2.872   9.205
 2951POPC   C1A40335  15.377   2.520   8.694
 2951POPC   D2A40336  15.122   2.691   8.365
 2951POPC   C3A40337  15.269   2.843   7.968
 2951POPC   C4A40338  14.971   2.977   7.638
 2951POPC   C1B40339  15.383   3.023   8.813
 2951POPC   C2B40340  15.556   2.978   8.441
 2951POPC   C3B40341  15.530   3.279   8.148
 2951POPC   C4B40342  15.553   3.210   7.726
 2952POPC   NC340343  26.847  43.584   9.380
 2952POPC   PO440344  26.626  44.213   9.588
 2952POPC   GL140345  26.841  44.067   9.180
 2952POPC   GL240346  26.717  43.807   8.977
 2952POPC   C1A40347  27.044  44.019   8.712
 2952POPC   D2A40348  26.788  43.783   8.435
 2952POPC   C3A40349  26.902  43.847   8.038
 2952POPC   C4A40350  26.941  44.142   7.723
 2952POPC   C1B40351  26.562  43.464   8.759
 2952POPC   C2B40352  26.385  43.444   8.335
 2952POPC   C3B40353  26.370  43.650   7.937
 2952POPC   C4B40354  26.674  43.702   7.593
 2953POPC   NC340355   4.382   0.925   9.316
 2953POPC   PO440356   4.367   0.234   9.601
 2953POPC   GL140357   4.403   0.287   9.188
 2953POPC   GL240358   4.129   0.488   9.137
 2953POPC   C1A40359   4.548   0.242   8.775
 2953POPC   D2A40360   4.423   0.566   8.466
 2953POPC   C3A40361   4.476   0.559   7.999
 2953POPC   C4A40362   4.453   0.368   7.586
 2953POPC   C1B40363   4.056   0.242   8.745
 2953POPC   C2B40364   4.163   0.154   8.322
 2953POPC   C3B40365   4.037   0.321   7.938
 2953POPC   C4B40366   3.870   0.089   7.645
 2954POPC   NC340367  14.790   1.498   9.339
 2954POPC   PO440368  15.157   0.938   9.566
 2954POPC   GL140369  15.235   1.168   9.158
 2954POPC   GL240370  15.125   1.469   8.963
 2954POPC   C1A40371  15.444   1.152   8.752
 2954POPC   D2A40372  15.233   1.380   8.414
 2954POPC   C3A40373  15.229   1.100   8.067
 2954POPC   C4A40374  15.173   1.169   7.628
 2954POPC   C1B40375  14.862   1.680   8.688
 2954POPC   C2B40376  14.902   1.761   8.280
 2954POPC   C3B40377  14.932   1.500   7.944
 2954POPC   C4B40378  14.806   1.498   7.495
 2955POPC   NC340379  20.378  23.065   9.646
 2955POPC   PO440380  20.626  22.489   9.493
 2955POPC   GL140381  20.552  22.698   9.096
 2955POPC   GL240382  20.588  23.061   9.162
 2955POPC   C1A40383  20.478  22.677   8.654
 2955POPC   D2A40384  20.443  22.970   8.312
 2955POPC   C3A40385  20.424  22.825   7.911
 2955POPC   C4A40386  20.563  22.615   7.578
 2955POPC   C1B40387  20.712  23.149   8.717
 2955POPC   C2B40388  20.931  23.104   8.275
 2955POPC   C3B40389  20.873  23.055   7.811
 2955POPC   C4B40390  20.688  23.319   7.475
 2956POPC   NC340391  21.573  33.100   9.632
 2956POPC   PO440392  20.954  32.970   9.460
 2956POPC   GL140393  21.164  33.215   9.148
 2956POPC   GL240394  21.561  33.212   9.147
 2956POPC   C1A40395  21.273  33.198   8.703
 2956POPC   D2A40396  21.358  32.910   8.380
 2956POPC   C3A40397  21.205  33.066   7.995
 2956POPC   C4A40398  21.094  32.742   7.744
 2956POPC   C1B40399  21.757  33.377   8.784
 2956POPC   C2B40400  21.772  33.222   8.376
 2956POPC   C3B40401  21.630  33.391   7.993
 2956POPC   C4B40402  21.651  33.038   7.741
 2957POPC   NC340403  44.099  37.680   9.512
 2957POPC   PO440404  43.440  37.706   9.615
 2957POPC   GL140405  43.670  37.599   9.212
 2957POPC   GL240406  43.857  37.832   9.067
 2957POPC   C1A40407  43.849  37.398   8.812
 2957POPC   D2A40408  43.723  37.597   8.423
 2957POPC   C3A40409  43.756  37.435   8.032
 2957POPC   C4A40410  44.105  37.333   7.770
 2957POPC   C1B40411  43.642  38.042   8.727
 2957POPC   C2B40412  43.583  38.278   8.347
 2957POPC   C3B40413  43.762  38.173   7.942
 2957POPC   C4B40414  43.931  37.791   7.700
 2958POPC   NC340415  34.531  21.048   9.560
 2958POPC   PO440416  34.696  20.318   9.512
 2958POPC   GL140417  34.639  20.556   9.112
 2958POPC   GL240418  34.312  20.647   9.144
 2958POPC   C1A40419  34.689  20.694   8.630
 2958POPC   D2A40420  34.552  20.854   8.182
 2958POPC   C3A40421  34.740  20.732   7.772
 2958POPC   C4A40422  35.024  20.375   7.691
 2958POPC   C1B40423  34.239  20.433   8.755
 2958POPC   C2B40424  34.286  20.378   8.305
 2958POPC   C3B40425  34.108  20.515   7.924
 2958POPC   C4B40426  34.275  20.710   7.553
 2959POPC   NC340427   2.931   1.582   9.605
 2959POPC   PO440428   2.855   0.928   9.530
 2959POPC   GL140429   2.843   1.023   9.107
 2959POPC   GL240430   3.058   1.311   9.176
 2959POPC   C1A40431   2.651   0.983   8.676
 2959POPC   D2A40432   2.801   0.774   8.286
 2959POPC   C3A40433   2.656   0.950   7.900
 2959POPC   C4A40434   2.472   1.353   7.758
 2959POPC   C1B40435   2.965   1.428   8.754
 2959POPC   C2B40436   2.805   1.687   8.411
 2959POPC   C3B40437   2.882   1.476   8.041
 2959POPC   C4B40438   2.973   1.365   7.641
 2960POPC   NC340439  42.866  37.330   9.441
 2960POPC   PO440440  42.369  36.870   9.568
 2960POPC   GL140441  42.630  36.911   9.189
 2960POPC   GL240442  42.746  36.602   9.119
 2960POPC   C1A40443  42.573  36.970   8.744
 2960POPC   D2A40444  42.245  36.997   8.410
 2960POPC   C3A40445  42.353  36.915   7.968
 2960POPC   C4A40446  42.213  36.836   7.518
 2960POPC   C1B40447  42.609  36.434   8.738
 2960POPC   C2B40448  42.575  36.619   8.363
 2960POPC   C3B40449  42.587  36.470   7.989
 2960POPC   C4B40450  42.667  36.581   7.593
 2961POPC   NC340451  34.455   0.788   9.255
 2961POPC   PO440452  34.885   1.242   9.438
 2961POPC   GL140453  34.595   1.373   9.101
 2961POPC   GL240454  34.215   1.359   9.144
 2961POPC   C1A40455  34.577   1.179   8.717
 2961POPC   D2A40456  34.772   1.150   8.364
 2961POPC   C3A40457  34.602   1.062   8.012
 2961POPC   C4A40458  34.732   1.167   7.628
 2961POPC   C1B40459  34.246   1.558   8.720
 2961POPC   C2B40460  34.250   1.359   8.302
 2961POPC   C3B40461  34.356   1.495   7.878
 2961POPC   C4B40462  34.422   1.482   7.412
 2962POPC   NC340463  22.634  40.107   9.413
 2962POPC   PO440464  23.134  39.544   9.448
 2962POPC   GL140465  22.923  39.772   9.119
 2962POPC   GL240466  23.006  40.151   9.046
 2962POPC   C1A40467  23.013  39.657   8.710
 2962POPC   D2A40468  23.386  39.721   8.497
 2962POPC   C3A40469  23.242  39.832   8.101
 2962POPC   C4A40470  22.804  39.831   7.947
 2962POPC   C1B40471  22.729  40.081   8.669
 2962POPC   C2B40472  22.762  40.255   8.239
 2962POPC   C3B40473  22.596  40.275   7.794
 2962POPC   C4B40474  22.572  40.290   7.304
 2963POPC   NC340475  13.589  35.026   9.384
 2963POPC   PO440476  13.422  35.740   9.469
 2963POPC   GL140477  13.374  35.526   9.054
 2963POPC   GL240478  13.503  35.205   8.916
 2963POPC   C1A40479  13.452  35.622   8.640
 2963POPC   D2A40480  13.478  35.287   8.300
 2963POPC   C3A40481  13.610  35.364   7.861
 2963POPC   C4A40482  13.987  35.382   7.598
 2963POPC   C1B40483  13.770  35.004   8.609
 2963POPC   C2B40484  13.888  35.005   8.153
 2963POPC   C3B40485  14.220  34.985   7.844
 2963POPC   C4B40486  14.214  34.948   7.383
 2964POPC   NC340487  33.363   4.113   9.528
 2964POPC   PO440488  32.819   4.537   9.682
 2964POPC   GL140489  32.933   4.316   9.312
 2964POPC   GL240490  32.729   4.008   9.285
 2964POPC   C1A40491  33.172   4.289   8.931
 2964POPC   D2A40492  33.285   4.588   8.613
 2964POPC   C3A40493  33.196   4.515   8.165
 2964POPC   C4A40494  33.047   4.574   7.746
 2964POPC   C1B40495  32.655   4.219   8.890
 2964POPC   C2B40496  32.886   4.241   8.510
 2964POPC   C3B40497  32.758   4.266   8.094
 2964POPC   C4B40498  32.758   4.138   7.690
 2965POPC   NC340499  37.295   3.451   9.453
 2965POPC   PO440500  37.931   3.764   9.655
 2965POPC   GL140501  37.702   3.667   9.241
 2965POPC   GL240502  37.462   3.924   9.156
 2965POPC   C1A40503  37.537   3.395   8.856
 2965POPC   D2A40504  37.782   3.381   8.468
 2965POPC   C3A40505  37.798   3.194   8.067
 2965POPC   C4A40506  37.815   3.339   7.652
 2965POPC   C1B40507  37.680   3.884   8.762
 2965POPC   C2B40508  37.602   3.835   8.334
 2965POPC   C3B40509  37.718   3.760   7.926
 2965POPC   C4B40510  37.452   3.689   7.578
 2966POPC   NC340511  29.757  22.946   9.592
 2966POPC   PO440512  30.246  22.532   9.370
 2966POPC   GL140513  29.911  22.787   9.127
 2966POPC   GL240514  29.687  23.100   9.128
 2966POPC   C1A40515  30.028  22.922   8.730
 2966POPC   D2A40516  30.109  22.749   8.390
 2966POPC   C3A40517  30.123  22.976   8.030
 2966POPC   C4A40518  30.157  22.702   7.660
 2966POPC   C1B40519  29.539  22.953   8.776
 2966POPC   C2B40520  29.554  22.766   8.405
 2966POPC   C3B40521  29.465  22.943   8.023
 2966POPC   C4B40522  29.733  23.019   7.710
 2967POPC   NC340523  13.073  24.001   9.716
 2967POPC   PO440524  12.831  23.390   9.524
 2967POPC   GL140525  12.877  23.692   9.189
 2967POPC   GL240526  13.170  23.877   9.215
 2967POPC   C1A40527  12.816  23.705   8.729
 2967POPC   D2A40528  12.983  23.553   8.320
 2967POPC   C3A40529  12.736  23.743   8.011
 2967POPC   C4A40530  12.626  23.577   7.613
 2967POPC   C1B40531  13.147  24.107   8.828
 2967POPC   C2B40532  13.042  24.062   8.412
 2967POPC   C3B40533  13.164  24.042   8.010
 2967POPC   C4B40534  12.899  24.032   7.633
 2968POPC   NC340535  32.566  23.850   9.471
 2968POPC   PO440536  32.322  23.185   9.450
 2968POPC   GL140537  32.250  23.493   9.080
 2968POPC   GL240538  32.307  23.845   9.031
 2968POPC   C1A40539  32.453  23.537   8.681
 2968POPC   D2A40540  32.431  23.863   8.387
 2968POPC   C3A40541  32.354  23.637   8.013
 2968POPC   C4A40542  32.183  23.811   7.668
 2968POPC   C1B40543  32.026  24.018   8.716
 2968POPC   C2B40544  31.856  24.193   8.315
 2968POPC   C3B40545  31.776  24.137   7.851
 2968POPC   C4B40546  31.856  24.059   7.365
 2969POPC   NC340547   7.257  36.401   9.566
 2969POPC   PO440548   7.679  35.847   9.504
 2969POPC   GL140549   7.545  36.137   9.175
 2969POPC   GL240550   7.197  36.215   9.113
 2969POPC   C1A40551   7.516  36.342   8.765
 2969POPC   D2A40552   7.701  36.273   8.398
 2969POPC   C3A40553   7.453  36.301   8.043
 2969POPC   C4A40554   7.631  36.331   7.666
 2969POPC   C1B40555   7.048  36.496   8.785
 2969POPC   C2B40556   7.014  36.516   8.330
 2969POPC   C3B40557   6.894  36.504   7.885
 2969POPC   C4B40558   7.135  36.316   7.532
 2970POPC   NC340559  42.070   1.625   9.538
 2970POPC   PO440560  42.458   2.128   9.616
 2970POPC   GL140561  42.498   1.896   9.278
 2970POPC   GL240562  42.188   1.940   9.170
 2970POPC   C1A40563  42.593   1.780   8.844
 2970POPC   D2A40564  42.424   1.740   8.434
 2970POPC   C3A40565  42.313   1.905   8.031
 2970POPC   C4A40566  42.621   1.735   7.779
 2970POPC   C1B40567  42.203   2.124   8.788
 2970POPC   C2B40568  42.314   2.292   8.385
 2970POPC   C3B40569  42.464   2.422   8.008
 2970POPC   C4B40570  42.375   2.226   7.631
 2971POPC   NC340571  22.554  41.104   9.403
 2971POPC   PO440572  22.882  40.502   9.449
 2971POPC   GL140573  22.707  40.666   9.116
 2971POPC   GL240574  22.956  40.898   9.081
 2971POPC   C1A40575  22.779  40.580   8.692
 2971POPC   D2A40576  23.038  40.676   8.364
 2971POPC   C3A40577  22.964  40.631   7.964
 2971POPC   C4A40578  23.257  40.840   7.729
 2971POPC   C1B40579  22.744  41.087   8.779
 2971POPC   C2B40580  22.646  40.982   8.402
 2971POPC   C3B40581  22.772  41.086   7.994
 2971POPC   C4B40582  22.458  41.223   7.754
 2972POPC   NC340583  36.613  29.413   5.682
 2972POPC   PO440584  36.851  28.900   5.277
 2972POPC   GL140585  37.003  28.993   5.709
 2972POPC   GL240586  37.354  28.920   5.726
 2972POPC   C1A40587  36.899  28.933   6.170
 2972POPC   D2A40588  36.632  28.857   6.561
 2972POPC   C3A40589  36.729  29.137   6.932
 2972POPC   C4A40590  36.858  29.460   7.246
 2972POPC   C1B40591  37.424  28.843   6.202
 2972POPC   C2B40592  37.181  28.862   6.611
 2972POPC   C3B40593  37.235  29.076   7.028
 2972POPC   C4B40594  37.103  28.909   7.428
 2973POPC   NC340595   2.709  21.421   5.243
 2973POPC   PO440596   3.120  21.925   5.154
 2973POPC   GL140597   2.814  21.716   5.630
 2973POPC   GL240598   2.779  21.351   5.743
 2973POPC   C1A40599   2.980  21.613   6.120
 2973POPC   D2A40600   3.059  21.342   6.498
 2973POPC   C3A40601   3.001  21.500   6.914
 2973POPC   C4A40602   2.852  21.359   7.313
 2973POPC   C1B40603   2.680  21.200   6.173
 2973POPC   C2B40604   2.481  21.187   6.607
 2973POPC   C3B40605   2.411  21.357   7.036
 2973POPC   C4B40606   2.443  21.621   7.428
 2974POPC   NC340607   0.402   4.813   5.649
 2974POPC   PO440608   0.613   4.143   5.417
 2974POPC   GL140609   0.604   4.342   5.784
 2974POPC   GL240610   0.866   4.589   5.697
 2974POPC   C1A40611   0.482   4.154   6.162
 2974POPC   D2A40612   0.386   4.346   6.527
 2974POPC   C3A40613   0.430   4.295   6.944
 2974POPC   C4A40614   0.429   4.107   7.317
 2974POPC   C1B40615   0.802   4.622   6.172
 2974POPC   C2B40616   0.954   4.755   6.573
 2974POPC   C3B40617   0.797   4.656   6.952
 2974POPC   C4B40618   0.622   4.594   7.375
 2975POPC   NC340619  11.389   5.258   5.515
 2975POPC   PO440620  11.091   4.749   5.067
 2975POPC   GL140621  11.001   4.884   5.606
 2975POPC   GL240622  11.002   5.240   5.842
 2975POPC   C1A40623  11.200   4.833   6.072
 2975POPC   D2A40624  11.345   5.123   6.436
 2975POPC   C3A40625  11.265   5.061   6.912
 2975POPC   C4A40626  11.375   5.015   7.377
 2975POPC   C1B40627  10.710   5.375   6.181
 2975POPC   C2B40628  10.881   5.285   6.577
 2975POPC   C3B40629  11.043   5.523   6.912
 2975POPC   C4B40630  10.958   5.309   7.284
 2976POPC   NC340631  27.255  18.395   5.427
 2976POPC   PO440632  26.749  18.007   5.215
 2976POPC   GL140633  26.828  18.189   5.643
 2976POPC   GL240634  27.067  18.066   5.831
 2976POPC   C1A40635  26.839  18.459   6.040
 2976POPC   D2A40636  26.759  18.565   6.460
 2976POPC   C3A40637  26.958  18.307   6.757
 2976POPC   C4A40638  26.874  18.276   7.208
 2976POPC   C1B40639  26.622  18.006   6.069
 2976POPC   C2B40640  26.514  17.980   6.524
 2976POPC   C3B40641  26.555  17.894   6.988
 2976POPC   C4B40642  26.554  17.952   7.448
 2977POPC   NC340643   3.523  40.577   5.359
 2977POPC   PO440644   3.357  41.202   5.327
 2977POPC   GL140645   3.371  40.920   5.742
 2977POPC   GL240646   3.242  40.566   5.785
 2977POPC   C1A40647   3.290  40.926   6.228
 2977POPC   D2A40648   3.620  40.965   6.568
 2977POPC   C3A40649   3.539  40.972   7.013
 2977POPC   C4A40650   3.687  40.844   7.402
 2977POPC   C1B40651   3.614  40.557   6.084
 2977POPC   C2B40652   3.549  40.424   6.509
 2977POPC   C3B40653   3.498  40.405   6.956
 2977POPC   C4B40654   3.187  40.606   7.211
 2978POPC   NC340655  27.175  42.633   5.375
 2978POPC   PO440656  26.667  42.231   5.255
 2978POPC   GL140657  26.787  42.277   5.672
 2978POPC   GL240658  26.802  42.601   5.747
 2978POPC   C1A40659  26.895  42.176   6.103
 2978POPC   D2A40660  26.782  42.292   6.536
 2978POPC   C3A40661  27.024  42.264   6.917
 2978POPC   C4A40662  27.018  41.966   7.272
 2978POPC   C1B40663  26.552  42.579   6.139
 2978POPC   C2B40664  26.530  42.731   6.582
 2978POPC   C3B40665  26.464  42.477   6.937
 2978POPC   C4B40666  26.677  42.388   7.320
 2979POPC   NC340667  11.923  10.366   5.282
 2979POPC   PO440668  12.552  10.288   5.391
 2979POPC   GL140669  12.271  10.548   5.649
 2979POPC   GL240670  11.941  10.684   5.700
 2979POPC   C1A40671  12.244  10.475   6.116
 2979POPC   D2A40672  11.942  10.276   6.433
 2979POPC   C3A40673  12.013  10.388   6.885
 2979POPC   C4A40674  12.386  10.329   7.147
 2979POPC   C1B40675  11.798  10.740   6.143
 2979POPC   C2B40676  11.625  10.874   6.567
 2979POPC   C3B40677  11.668  10.748   7.005
 2979POPC   C4B40678  12.047  10.808   7.230
 2980POPC   NC340679  25.407  39.955   5.311
 2980POPC   PO440680  24.879  39.646   5.652
 2980POPC   GL140681  25.029  39.854   5.982
 2980POPC   GL240682  25.202  40.091   5.780
 2980POPC   C1A40683  25.024  39.879   6.403
 2980POPC   D2A40684  25.089  40.262   6.632
 2980POPC   C3A40685  25.132  40.122   7.040
 2980POPC   C4A40686  24.796  39.957   7.257
 2980POPC   C1B40687  25.380  40.180   6.200
 2980POPC   C2B40688  25.538  40.034   6.606
 2980POPC   C3B40689  25.513  39.744   6.923
 2980POPC   C4B40690  25.438  39.718   7.339
 2981POPC   NC340691   6.325  25.193   5.279
 2981POPC   PO440692   6.980  25.439   5.301
 2981POPC   GL140693   6.789  25.330   5.760
 2981POPC   GL240694   6.508  25.064   5.815
 2981POPC   C1A40695   6.860  25.377   6.240
 2981POPC   D2A40696   6.871  25.437   6.720
 2981POPC   C3A40697   6.645  25.112   6.986
 2981POPC   C4A40698   6.711  25.096   7.436
 2981POPC   C1B40699   6.352  25.353   6.152
 2981POPC   C2B40700   6.383  25.343   6.601
 2981POPC   C3B40701   6.154  25.318   6.995
 2981POPC   C4B40702   6.188  25.218   7.435
 2982POPC   NC340703  26.279  33.836   5.355
 2982POPC   PO440704  25.677  33.628   5.618
 2982POPC   GL140705  26.020  33.898   5.814
 2982POPC   GL240706  26.349  33.714   5.861
 2982POPC   C1A40707  26.005  34.151   6.215
 2982POPC   D2A40708  25.845  33.882   6.552
 2982POPC   C3A40709  25.958  33.828   6.988
 2982POPC   C4A40710  25.866  33.872   7.405
 2982POPC   C1B40711  26.296  33.746   6.317
 2982POPC   C2B40712  26.176  33.494   6.666
 2982POPC   C3B40713  26.321  33.316   7.061
 2982POPC   C4B40714  26.362  33.529   7.458
 2983POPC   NC340715  44.209  12.905   5.372
 2983POPC   PO440716  43.559  13.211   5.515
 2983POPC   GL140717  43.846  12.912   5.712
 2983POPC   GL240718  43.951  12.582   5.837
 2983POPC   C1A40719  44.066  12.991   6.089
 2983POPC   D2A40720  44.143  13.075   6.500
 2983POPC   C3A40721  43.848  12.892   6.736
 2983POPC   C4A40722  43.940  12.838   7.145
 2983POPC   C1B40723  43.975  12.559   6.344
 2983POPC   C2B40724  44.253  12.603   6.768
 2983POPC   C3B40725  44.118  12.372   7.154
 2983POPC   C4B40726  43.748  12.480   7.437
 2984POPC   NC340727  33.396  16.131   5.277
 2984POPC   PO440728  32.929  15.642   5.343
 2984POPC   GL140729  33.166  15.777   5.685
 2984POPC   GL240730  33.096  16.124   5.707
 2984POPC   C1A40731  33.053  15.812   6.137
 2984POPC   D2A40732  33.102  15.607   6.531
 2984POPC   C3A40733  33.163  15.870   6.881
 2984POPC   C4A40734  32.998  15.975   7.302
 2984POPC   C1B40735  32.848  16.280   6.056
 2984POPC   C2B40736  32.965  16.306   6.495
 2984POPC   C3B40737  32.756  16.169   6.851
 2984POPC   C4B40738  32.622  16.303   7.216
 2985POPC   NC340739  15.120  29.440   5.331
 2985POPC   PO440740  15.527  28.995   5.330
 2985POPC   GL140741  15.233  29.063   5.712
 2985POPC   GL240742  14.909  29.040   5.674
 2985POPC   C1A40743  15.279  29.047   6.172
 2985POPC   D2A40744  15.384  28.949   6.609
 2985POPC   C3A40745  15.514  29.065   7.040
 2985POPC   C4A40746  15.316  28.892   7.427
 2985POPC   C1B40747  14.841  29.287   6.051
 2985POPC   C2B40748  15.001  29.391   6.447
 2985POPC   C3B40749  15.099  29.319   6.837
 2985POPC   C4B40750  15.058  29.270   7.240
 2986POPC   NC340751   6.049  29.462   5.365
 2986POPC   PO440752   5.763  28.856   5.478
 2986POPC   GL140753   5.853  29.214   5.780
 2986POPC   GL240754   6.224  29.244   5.818
 2986POPC   C1A40755   5.890  29.441   6.183
 2986POPC   D2A40756   6.015  29.318   6.608
 2986POPC   C3A40757   5.643  29.173   6.825
 2986POPC   C4A40758   5.454  29.189   7.227
 2986POPC   C1B40759   6.136  28.991   6.188
 2986POPC   C2B40760   5.965  28.808   6.565
 2986POPC   C3B40761   6.091  28.953   6.963
 2986POPC   C4B40762   5.957  29.297   7.227
 2987POPC   NC340763  23.373  23.757   5.431
 2987POPC   PO440764  23.898  23.469   5.145
 2987POPC   GL140765  23.832  23.737   5.666
 2987POPC   GL240766  23.550  23.641   5.880
 2987POPC   C1A40767  23.881  23.863   6.142
 2987POPC   D2A40768  23.581  23.781   6.510
 2987POPC   C3A40769  23.810  23.623   6.886
 2987POPC   C4A40770  23.936  23.948   7.190
 2987POPC   C1B40771  23.383  23.408   6.189
 2987POPC   C2B40772  23.218  23.337   6.576
 2987POPC   C3B40773  23.340  23.406   6.970
 2987POPC   C4B40774  23.406  23.778   7.164
 2988POPC   NC340775   3.101   2.693   5.518
 2988POPC   PO440776   3.592   2.375   5.126
 2988POPC   GL140777   3.630   2.423   5.678
 2988POPC   GL240778   3.372   2.492   5.882
 2988POPC   C1A40779   3.796   2.722   6.072
 2988POPC   D2A40780   3.645   2.918   6.496
 2988POPC   C3A40781   3.717   2.824   6.968
 2988POPC   C4A40782   3.481   2.999   7.366
 2988POPC   C1B40783   3.421   2.441   6.293
 2988POPC   C2B40784   3.371   2.447   6.705
 2988POPC   C3B40785   3.279   2.556   7.094
 2988POPC   C4B40786   3.609   2.522   7.385
 2989POPC   NC340787   0.663  23.541   5.390
 2989POPC   PO440788   0.163  23.947   5.216
 2989POPC   GL140789   0.300  23.798   5.651
 2989POPC   GL240790   0.646  23.881   5.762
 2989POPC   C1A40791   0.274  23.823   6.124
 2989POPC   D2A40792   0.014  23.733   6.508
 2989POPC   C3A40793   0.261  23.731   6.904
 2989POPC   C4A40794   0.416  23.840   7.304
 2989POPC   C1B40795   0.798  23.942   6.201
 2989POPC   C2B40796   0.690  23.873   6.641
 2989POPC   C3B40797   0.899  23.869   7.058
 2989POPC   C4B40798   0.858  23.960   7.506
 2990POPC   NC340799  18.525  40.885   5.455
 2990POPC   PO440800  17.962  40.579   5.309
 2990POPC   GL140801  18.192  40.599   5.760
 2990POPC   GL240802  18.586  40.592   5.864
 2990POPC   C1A40803  18.231  40.816   6.203
 2990POPC   D2A40804  18.389  41.008   6.628
 2990POPC   C3A40805  18.191  41.145   7.062
 2990POPC   C4A40806  18.360  41.044   7.488
 2990POPC   C1B40807  18.684  40.397   6.276
 2990POPC   C2B40808  18.612  40.467   6.728
 2990POPC   C3B40809  18.442  40.684   7.073
 2990POPC   C4B40810  18.032  40.669   7.285
 2991POPC   NC340811  25.651  28.961   5.626
 2991POPC   PO440812  26.160  29.301   5.474
 2991POPC   GL140813  26.083  29.113   5.875
 2991POPC   GL240814  26.104  28.763   5.876
 2991POPC   C1A40815  26.084  29.033   6.318
 2991POPC   D2A40816  26.406  29.083   6.598
 2991POPC   C3A40817  26.383  29.493   6.787
 2991POPC   C4A40818  26.244  29.339   7.175
 2991POPC   C1B40819  25.756  28.653   6.209
 2991POPC   C2B40820  25.748  28.746   6.635
 2991POPC   C3B40821  26.005  28.855   6.991
 2991POPC   C4B40822  25.792  28.745   7.352
 2992POPC   NC340823  42.880  24.761   5.091
 2992POPC   PO440824  43.365  24.508   5.415
 2992POPC   GL140825  43.233  24.392   5.831
 2992POPC   GL240826  42.867  24.388   5.851
 2992POPC   C1A40827  43.211  24.545   6.280
 2992POPC   D2A40828  43.479  24.621   6.655
 2992POPC   C3A40829  43.252  24.770   7.014
 2992POPC   C4A40830  42.889  24.491   7.096
 2992POPC   C1B40831  42.774  24.267   6.298
 2992POPC   C2B40832  42.697  24.114   6.735
 2992POPC   C3B40833  42.743  23.995   7.178
 2992POPC   C4B40834  42.873  24.268   7.556
 2993POPC   NC340835  24.969  12.955   5.221
 2993POPC   PO440836  25.557  12.695   5.354
 2993POPC   GL140837  25.257  12.700   5.690
 2993POPC   GL240838  25.179  13.041   5.686
 2993POPC   C1A40839  25.281  12.816   6.153
 2993POPC   D2A40840  25.304  12.644   6.594
 2993POPC   C3A40841  25.245  12.905   6.949
 2993POPC   C4A40842  25.406  12.687   7.285
 2993POPC   C1B40843  24.955  13.220   6.059
 2993POPC   C2B40844  25.002  13.115   6.495
 2993POPC   C3B40845  24.879  13.373   6.820
 2993POPC   C4B40846  24.811  13.226   7.216
 2994POPC   NC340847  29.154   5.943   5.060
 2994POPC   PO440848  29.246   5.600   5.618
 2994POPC   GL140849  29.025   5.680   5.963
 2994POPC   GL240850  29.073   5.996   6.069
 2994POPC   C1A40851  28.976   5.626   6.403
 2994POPC   D2A40852  29.359   5.702   6.643
 2994POPC   C3A40853  29.215   5.837   7.031
 2994POPC   C4A40854  28.907   5.604   7.246
 2994POPC   C1B40855  29.076   6.130   6.479
 2994POPC   C2B40856  28.728   6.132   6.728
 2994POPC   C3B40857  28.748   6.073   7.155
 2994POPC   C4B40858  29.078   6.224   7.415
 2995POPC   NC340859   8.154  14.088   5.424
 2995POPC   PO440860   8.202  14.812   5.396
 2995POPC   GL140861   8.417  14.565   5.727
 2995POPC   GL240862   8.122  14.417   5.814
 2995POPC   C1A40863   8.409  14.454   6.219
 2995POPC   D2A40864   8.093  14.364   6.533
 2995POPC   C3A40865   8.315  14.225   6.899
 2995POPC   C4A40866   8.367  14.326   7.316
 2995POPC   C1B40867   8.097  14.064   6.113
 2995POPC   C2B40868   8.105  13.859   6.485
 2995POPC   C3B40869   7.897  13.942   6.839
 2995POPC   C4B40870   7.928  14.033   7.247
 2996POPC   NC340871  18.448   0.538   5.483
 2996POPC   PO440872  18.022   0.017   5.232
 2996POPC   GL140873  18.019   0.092   5.681
 2996POPC   GL240874  18.010   0.458   5.730
 2996POPC   C1A40875  18.032   0.127   6.145
 2996POPC   D2A40876  18.205   0.066   6.562
 2996POPC   C3A40877  18.389   0.393   6.842
 2996POPC   C4A40878  18.519   0.636   7.221
 2996POPC   C1B40879  17.982   0.658   6.144
 2996POPC   C2B40880  17.921   0.527   6.584
 2996POPC   C3B40881  17.974   0.589   7.048
 2996POPC   C4B40882  18.109   0.388   7.426
 2997POPC   NC340883   6.767   6.361   5.579
 2997POPC   PO440884   6.486   5.782   5.234
 2997POPC   GL140885   6.514   5.916   5.679
 2997POPC   GL240886   6.421   5.643   5.969
 2997POPC   C1A40887   6.353   6.111   6.070
 2997POPC   D2A40888   6.198   5.861   6.416
 2997POPC   C3A40889   6.306   5.963   6.835
 2997POPC   C4A40890   6.561   6.123   7.168
 2997POPC   C1B40891   6.689   5.780   6.317
 2997POPC   C2B40892   6.928   5.712   6.681
 2997POPC   C3B40893   6.689   5.647   7.058
 2997POPC   C4B40894   6.277   5.494   7.199
 2998POPC   NC340895  43.092  13.257   5.416
 2998POPC   PO440896  43.255  13.952   5.358
 2998POPC   GL140897  42.985  13.734   5.616
 2998POPC   GL240898  42.763  13.983   5.670
 2998POPC   C1A40899  43.067  13.572   6.044
 2998POPC   D2A40900  43.343  13.758   6.388
 2998POPC   C3A40901  43.361  13.533   6.790
 2998POPC   C4A40902  43.176  13.473   7.194
 2998POPC   C1B40903  42.793  13.986   6.101
 2998POPC   C2B40904  42.849  13.830   6.522
 2998POPC   C3B40905  42.963  13.872   6.963
 2998POPC   C4B40906  42.870  13.839   7.404
 2999POPC   NC340907  44.804  44.401   5.333
 2999POPC   PO440908   0.067   0.013   5.404
 2999POPC   GL140909  44.972  44.871   5.806
 2999POPC   GL240910  44.808  44.532   5.851
 2999POPC   C1A40911  44.765  44.930   6.196
 2999POPC   D2A40912  44.473  44.962   6.521
 2999POPC   C3A40913  44.681  44.923   6.918
 2999POPC   C4A40914  44.574  44.838   7.324
 2999POPC   C1B40915  44.462  44.514   6.190
 2999POPC   C2B40916  44.532  44.470   6.628
 2999POPC   C3B40917  44.453  44.435   7.050
 2999POPC   C4B40918  44.758  44.341   7.364
 3000POPC   NC340919  31.155  18.140   5.235
 3000POPC   PO440920  31.686  18.257   5.628
 3000POPC   GL140921  31.469  18.213   5.950
 3000POPC   GL240922  31.202  17.979   5.784
 3000POPC   C1A40923  31.556  18.565   6.233
 3000POPC   D2A40924  31.385  18.814   6.552
 3000POPC   C3A40925  31.320  18.558   6.899
 3000POPC   C4A40926  31.421  18.527   7.323
 3000POPC   C1B40927  31.156  17.969   6.251
 3000POPC   C2B40928  31.407  18.190   6.550
 3000POPC   C3B40929  31.541  18.091   6.981
 3000POPC   C4B40930  31.316  17.995   7.352
 3001POPC   NC340931  21.104  15.052   5.591
 3001POPC   PO440932  20.489  15.195   5.324
 3001POPC   GL140933  20.643  15.127   5.807
 3001POPC   GL240934  20.941  14.943   6.047
 3001POPC   C1A40935  20.443  15.166   6.232
 3001POPC   D2A40936  20.390  14.976   6.645
 3001POPC   C3A40937  20.463  15.117   7.100
 3001POPC   C4A40938  20.306  14.855   7.497
 3001POPC   C1B40939  20.908  15.367   6.199
 3001POPC   C2B40940  20.739  15.400   6.600
 3001POPC   C3B40941  20.914  15.395   6.983
 3001POPC   C4B40942  20.853  15.258   7.403
 3002POPC   NC340943   5.970   4.718   5.359
 3002POPC   PO440944   5.877   5.441   5.350
 3002POPC   GL140945   5.734   5.288   5.690
 3002POPC   GL240946   6.009   5.095   5.712
 3002POPC   C1A40947   5.523   5.263   6.096
 3002POPC   D2A40948   5.696   5.219   6.487
 3002POPC   C3A40949   5.524   5.203   6.873
 3002POPC   C4A40950   5.675   5.043   7.263
 3002POPC   C1B40951   6.067   5.105   6.126
 3002POPC   C2B40952   6.132   4.986   6.534
 3002POPC   C3B40953   6.061   5.116   6.930
 3002POPC   C4B40954   6.204   4.933   7.301
 3003POPC   NC340955   7.338  33.572   5.679
 3003POPC   PO440956   7.165  34.238   5.445
 3003POPC   GL140957   7.306  34.068   5.807
 3003POPC   GL240958   7.613  34.038   5.717
 3003POPC   C1A40959   7.346  33.895   6.221
 3003POPC   D2A40960   7.035  33.808   6.481
 3003POPC   C3A40961   7.176  33.852   6.863
 3003POPC   C4A40962   7.270  33.632   7.193
 3003POPC   C1B40963   7.759  34.185   6.138
 3003POPC   C2B40964   7.826  33.944   6.519
 3003POPC   C3B40965   7.712  33.788   6.926
 3003POPC   C4B40966   7.686  34.028   7.269
 3004POPC   NC340967  34.873   0.715   5.406
 3004POPC   PO440968  34.362   0.316   5.376
 3004POPC   GL140969  34.507   0.535   5.757
 3004POPC   GL240970  34.825   0.377   5.785
 3004POPC   C1A40971  34.720   0.621   6.223
 3004POPC   D2A40972  34.893   0.490   6.646
 3004POPC   C3A40973  34.656   0.528   7.038
 3004POPC   C4A40974  34.308   0.345   7.215
 3004POPC   C1B40975  34.620   0.135   6.059
 3004POPC   C2B40976  34.605   0.121   6.456
 3004POPC   C3B40977  34.632   0.060   6.870
 3004POPC   C4B40978  34.580  44.902   7.255
 3005POPC   NC340979  42.633  31.240   5.491
 3005POPC   PO440980  42.178  31.711   5.410
 3005POPC   GL140981  42.338  31.638   5.786
 3005POPC   GL240982  42.251  31.304   5.806
 3005POPC   C1A40983  42.216  31.642   6.217
 3005POPC   D2A40984  42.443  31.778   6.568
 3005POPC   C3A40985  42.261  31.868   6.946
 3005POPC   C4A40986  42.486  31.874   7.307
 3005POPC   C1B40987  42.453  31.110   6.147
 3005POPC   C2B40988  42.349  31.223   6.558
 3005POPC   C3B40989  42.482  31.404   6.928
 3005POPC   C4B40990  42.565  31.249   7.293
 3006POPC   NC340991   0.844   1.183   5.107
 3006POPC   PO440992   1.193   1.572   5.533
 3006POPC   GL140993   1.152   1.189   5.752
 3006POPC   GL240994   0.855   0.971   5.601
 3006POPC   C1A40995   1.272   1.141   6.196
 3006POPC   D2A40996   1.268   1.297   6.612
 3006POPC   C3A40997   1.469   1.146   6.980
 3006POPC   C4A40998   1.238   1.332   7.303
 3006POPC   C1B40999   0.851   0.895   6.049
 3006POPC   C2B41000   0.979   0.836   6.514
 3006POPC   C3B41001   0.985   0.956   6.992
 3006POPC   C4B41002   0.886   0.930   7.465
 3007POPC   NC341003  11.751  35.705   5.539
 3007POPC   PO441004  11.898  35.091   5.456
 3007POPC   GL141005  12.067  35.260   5.836
 3007POPC   GL241006  12.453  35.191   5.840
 3007POPC   C1A41007  12.016  35.441   6.217
 3007POPC   D2A41008  11.919  35.235   6.631
 3007POPC   C3A41009  11.900  35.446   7.054
 3007POPC   C4A41010  12.057  35.618   7.451
 3007POPC   C1B41011  12.269  34.991   6.208
 3007POPC   C2B41012  12.317  34.903   6.622
 3007POPC   C3B41013  12.174  35.015   7.041
 3007POPC   C4B41014  11.944  34.814   7.327
 3008POPC   NC341015  44.085  31.125   5.469
 3008POPC   PO441016  43.752  31.723   5.296
 3008POPC   GL141017  43.853  31.651   5.732
 3008POPC   GL241018  43.811  31.302   5.850
 3008POPC   C1A41019  43.712  31.705   6.153
 3008POPC   D2A41020  43.600  31.343   6.403
 3008POPC   C3A41021  43.530  31.372   6.832
 3008POPC   C4A41022  43.811  31.460   7.172
 3008POPC   C1B41023  44.106  31.379   6.144
 3008POPC   C2B41024  44.076  31.502   6.572
 3008POPC   C3B41025  44.043  31.170   6.799
 3008POPC   C4B41026  44.132  31.062   7.183
 3009POPC   NC341027  35.888  37.115   5.585
 3009POPC   PO441028  36.459  36.876   5.425
 3009POPC   GL141029  36.253  36.898   5.857
 3009POPC   GL241030  36.376  36.607   5.976
 3009POPC   C1A41031  35.963  37.120   6.230
 3009POPC   D2A41032  35.989  37.434   6.606
 3009POPC   C3A41033  36.198  37.282   7.000
 3009POPC   C4A41034  36.055  37.291   7.432
 3009POPC   C1B41035  36.389  36.834   6.351
 3009POPC   C2B41036  36.110  36.904   6.676
 3009POPC   C3B41037  36.148  36.756   7.071
 3009POPC   C4B41038  35.959  36.456   7.277
 3010POPC   NC341039  44.035  37.435   5.418
 3010POPC   PO441040  43.531  37.863   5.430
 3010POPC   GL141041  43.806  37.776   5.798
 3010POPC   GL241042  44.040  38.055   5.924
 3010POPC   C1A41043  43.726  37.658   6.242
 3010POPC   D2A41044  43.586  37.461   6.665
 3010POPC   C3A41045  43.638  37.651   7.083
 3010POPC   C4A41046  43.984  37.454   7.290
 3010POPC   C1B41047  44.110  38.231   6.308
 3010POPC   C2B41048  43.931  37.969   6.597
 3010POPC   C3B41049  44.096  37.709   6.848
 3010POPC   C4B41050  44.077  37.939   7.210
 3011POPC   NC341051  39.078   3.094   5.597
 3011POPC   PO441052  39.466   2.500   5.500
 3011POPC   GL141053  39.305   2.427   5.902
 3011POPC   GL241054  39.189   2.742   5.963
 3011POPC   C1A41055  39.474   2.474   6.308
 3011POPC   D2A41056  39.322   2.637   6.662
 3011POPC   C3A41057  39.473   2.785   7.021
 3011POPC   C4A41058  39.426   2.702   7.432
 3011POPC   C1B41059  39.332   2.995   6.322
 3011POPC   C2B41060  39.164   3.121   6.761
 3011POPC   C3B41061  39.185   3.142   7.248
 3011POPC   C4B41062  39.238   3.136   7.715
 3012POPC   NC341063  36.683  31.034   5.295
 3012POPC   PO441064  37.053  30.452   5.348
 3012POPC   GL141065  36.996  30.783   5.649
 3012POPC   GL241066  36.647  30.843   5.778
 3012POPC   C1A41067  37.135  30.784   6.073
 3012POPC   D2A41068  37.303  30.730   6.488
 3012POPC   C3A41069  37.122  30.967   6.823
 3012POPC   C4A41070  37.002  30.796   7.208
 3012POPC   C1B41071  36.665  30.550   6.117
 3012POPC   C2B41072  36.794  30.576   6.569
 3012POPC   C3B41073  36.577  30.720   6.958
 3012POPC   C4B41074  36.543  30.835   7.437
 3013POPC   NC341075  12.019  18.652   5.633
 3013POPC   PO441076  12.433  18.195   5.417
 3013POPC   GL141077  12.219  18.173   5.792
 3013POPC   GL241078  11.853  18.156   5.692
 3013POPC   C1A41079  12.245  18.288   6.226
 3013POPC   D2A41080  12.043  18.260   6.612
 3013POPC   C3A41081  12.195  18.491   6.922
 3013POPC   C4A41082  12.433  18.435   7.246
 3013POPC   C1B41083  11.760  18.208   6.138
 3013POPC   C2B41084  11.621  17.992   6.528
 3013POPC   C3B41085  11.628  18.100   6.939
 3013POPC   C4B41086  11.791  18.405   7.212
 3014POPC   NC341087  30.297  22.030   5.349
 3014POPC   PO441088  30.908  22.222   5.234
 3014POPC   GL141089  30.789  22.260   5.695
 3014POPC   GL241090  30.499  22.082   5.805
 3014POPC   C1A41091  30.798  22.362   6.128
 3014POPC   D2A41092  30.899  22.232   6.547
 3014POPC   C3A41093  30.834  22.512   6.907
 3014POPC   C4A41094  30.903  22.312   7.283
 3014POPC   C1B41095  30.426  21.904   6.170
 3014POPC   C2B41096  30.555  21.675   6.519
 3014POPC   C3B41097  30.444  21.793   6.927
 3014POPC   C4B41098  30.380  22.183   7.126
 3015POPC   NC341099  11.900   6.769   5.147
 3015POPC   PO441100  12.542   6.593   5.168
 3015POPC   GL141101  12.207   6.662   5.547
 3015POPC   GL241102  12.082   6.343   5.686
 3015POPC   C1A41103  12.061   6.759   6.022
 3015POPC   D2A41104  11.872   6.723   6.477
 3015POPC   C3A41105  11.878   6.910   6.914
 3015POPC   C4A41106  11.862   6.692   7.292
 3015POPC   C1B41107  11.916   6.251   6.091
 3015POPC   C2B41108  12.071   6.218   6.513
 3015POPC   C3B41109  12.097   6.450   6.895
 3015POPC   C4B41110  12.263   6.401   7.338
 3016POPC   NC341111  32.559  28.128   5.406
 3016POPC   PO441112  32.008  28.607   5.391
 3016POPC   GL141113  32.276  28.404   5.719
 3016POPC   GL241114  32.616  28.543   5.745
 3016POPC   C1A41115  32.224  28.139   6.087
 3016POPC   D2A41116  32.195  28.300   6.524
 3016POPC   C3A41117  32.061  28.109   6.909
 3016POPC   C4A41118  32.162  28.293   7.302
 3016POPC   C1B41119  32.508  28.574   6.167
 3016POPC   C2B41120  32.632  28.603   6.579
 3016POPC   C3B41121  32.446  28.560   6.975
 3016POPC   C4B41122  32.250  28.839   7.259
 3017POPC   NC341123   4.852  29.662   5.144
 3017POPC   PO441124   5.135  30.205   5.298
 3017POPC   GL141125   5.107  30.074   5.707
 3017POPC   GL241126   5.200  29.758   5.719
 3017POPC   C1A41127   4.958  30.007   6.110
 3017POPC   D2A41128   5.153  29.993   6.503
 3017POPC   C3A41129   4.922  30.126   6.842
 3017POPC   C4A41130   5.048  29.987   7.213
 3017POPC   C1B41131   5.446  29.724   6.120
 3017POPC   C2B41132   5.555  29.640   6.561
 3017POPC   C3B41133   5.378  29.655   6.979
 3017POPC   C4B41134   5.406  29.670   7.442
 3018POPC   NC341135  31.369  18.586   5.576
 3018POPC   PO441136  31.651  19.253   5.554
 3018POPC   GL141137  31.614  19.017   5.919
 3018POPC   GL241138  31.269  18.939   5.953
 3018POPC   C1A41139  31.627  19.231   6.315
 3018POPC   D2A41140  31.702  19.311   6.760
 3018POPC   C3A41141  31.616  18.966   7.082
 3018POPC   C4A41142  31.452  19.005   7.517
 3018POPC   C1B41143  30.943  18.969   6.249
 3018POPC   C2B41144  30.873  18.822   6.681
 3018POPC   C3B41145  31.024  18.900   7.122
 3018POPC   C4B41146  31.224  19.297   7.194
 3019POPC   NC341147  17.058  17.213   5.560
 3019POPC   PO441148  16.659  17.582   5.215
 3019POPC   GL141149  16.653  17.533   5.663
 3019POPC   GL241150  16.838  17.844   5.720
 3019POPC   C1A41151  16.683  17.344   6.083
 3019POPC   D2A41152  16.817  17.389   6.522
 3019POPC   C3A41153  16.512  17.492   6.864
 3019POPC   C4A41154  16.615  17.531   7.269
 3019POPC   C1B41155  17.045  17.686   6.084
 3019POPC   C2B41156  17.109  17.799   6.515
 3019POPC   C3B41157  16.967  17.706   6.911
 3019POPC   C4B41158  17.041  17.807   7.305
 3020POPC   NC341159  31.694  23.153   5.426
 3020POPC   PO441160  31.268  22.688   5.564
 3020POPC   GL141161  31.482  22.949   5.859
 3020POPC   GL241162  31.853  22.894   5.854
 3020POPC   C1A41163  31.331  22.996   6.267
 3020POPC   D2A41164  31.200  22.681   6.560
 3020POPC   C3A41165  31.295  22.838   6.969
 3020POPC   C4A41166  31.341  22.907   7.421
 3020POPC   C1B41167  31.823  23.158   6.217
 3020POPC   C2B41168  31.723  23.017   6.635
 3020POPC   C3B41169  31.820  22.933   7.067
 3020POPC   C4B41170  31.805  23.112   7.477
 3021POPC   NC341171  30.136  28.404   5.466
 3021POPC   PO441172  29.519  28.106   5.511
 3021POPC   GL141173  29.708  28.403   5.770
 3021POPC   GL241174  29.960  28.145   5.893
 3021POPC   C1A41175  29.950  28.608   6.092
 3021POPC   D2A41176  30.015  28.370   6.439
 3021POPC   C3A41177  30.110  28.440   6.864
 3021POPC   C4A41178  30.071  28.371   7.274
 3021POPC   C1B41179  30.226  27.956   6.230
 3021POPC   C2B41180  30.280  27.738   6.610
 3021POPC   C3B41181  30.394  27.912   7.006
 3021POPC   C4B41182  30.281  27.954   7.459
 3022POPC   NC341183  13.092  17.119   5.312
 3022POPC   PO441184  12.770  16.521   5.420
 3022POPC   GL141185  12.798  16.711   5.862
 3022POPC   GL241186  13.099  16.923   5.875
 3022POPC   C1A41187  12.818  16.594   6.335
 3022POPC   D2A41188  12.718  16.906   6.666
 3022POPC   C3A41189  12.856  16.824   7.030
 3022POPC   C4A41190  12.774  16.591   7.320
 3022POPC   C1B41191  13.029  17.060   6.297
 3022POPC   C2B41192  13.254  17.046   6.718
 3022POPC   C3B41193  13.199  17.178   7.145
 3022POPC   C4B41194  13.050  16.964   7.522
 3023POPC   NC341195  21.691  13.272   5.520
 3023POPC   PO441196  21.203  13.796   5.448
 3023POPC   GL141197  21.348  13.612   5.768
 3023POPC   GL241198  21.031  13.492   5.821
 3023POPC   C1A41199  21.453  13.832   6.162
 3023POPC   D2A41200  21.634  13.741   6.555
 3023POPC   C3A41201  21.296  13.743   6.817
 3023POPC   C4A41202  21.318  14.012   7.130
 3023POPC   C1B41203  21.288  13.323   6.183
 3023POPC   C2B41204  21.435  13.260   6.617
 3023POPC   C3B41205  21.522  13.352   7.046
 3023POPC   C4B41206  21.169  13.394   7.311
 3024POPC   NC341207   9.594  10.295   5.349
 3024POPC   PO441208   9.836  10.968   5.345
 3024POPC   GL141209   9.873  10.702   5.752
 3024POPC   GL241210   9.845  10.325   5.784
 3024POPC   C1A41211   9.663  10.656   6.176
 3024POPC   D2A41212   9.835  10.795   6.580
 3024POPC   C3A41213   9.619  10.683   6.956
 3024POPC   C4A41214   9.735  10.797   7.349
 3024POPC   C1B41215   9.839  10.167   6.181
 3024POPC   C2B41216   9.667  10.293   6.562
 3024POPC   C3B41217   9.809  10.211   6.958
 3024POPC   C4B41218   9.575  10.241   7.325
 3025POPC   NC341219  10.219  12.358   5.500
 3025POPC   PO441220   9.768  11.942   5.185
 3025POPC   GL141221   9.707  12.035   5.678
 3025POPC   GL241222   9.866  12.290   5.880
 3025POPC   C1A41223   9.641  11.951   6.163
 3025POPC   D2A41224   9.507  12.001   6.606
 3025POPC   C3A41225   9.783  12.038   7.001
 3025POPC   C4A41226   9.878  11.984   7.466
 3025POPC   C1B41227   9.963  12.461   6.300
 3025POPC   C2B41228  10.072  12.476   6.778
 3025POPC   C3B41229  10.185  12.338   7.218
 3025POPC   C4B41230  10.294  12.184   7.662
 3026POPC   NC341231  20.019  15.147   5.407
 3026POPC   PO441232  19.318  15.163   5.416
 3026POPC   GL141233  19.580  15.095   5.778
 3026POPC   GL241234  19.628  14.730   5.810
 3026POPC   C1A41235  19.667  15.278   6.228
 3026POPC   D2A41236  19.802  15.533   6.620
 3026POPC   C3A41237  20.019  15.368   6.975
 3026POPC   C4A41238  19.774  15.192   7.309
 3026POPC   C1B41239  19.718  14.748   6.243
 3026POPC   C2B41240  19.860  14.966   6.627
 3026POPC   C3B41241  20.043  14.850   7.019
 3026POPC   C4B41242  19.847  14.684   7.349
 3027POPC   NC341243  35.551  42.806   5.581
 3027POPC   PO441244  35.573  42.197   5.517
 3027POPC   GL141245  35.343  42.166   5.899
 3027POPC   GL241246  35.205  42.493   5.845
 3027POPC   C1A41247  35.507  42.260   6.322
 3027POPC   D2A41248  35.423  42.469   6.713
 3027POPC   C3A41249  35.372  42.214   7.077
 3027POPC   C4A41250  35.412  42.283   7.531
 3027POPC   C1B41251  35.038  42.484   6.264
 3027POPC   C2B41252  34.920  42.703   6.644
 3027POPC   C3B41253  34.949  42.533   7.056
 3027POPC   C4B41254  34.973  42.556   7.507
 3028POPC   NC341255  26.608  23.190   5.327
 3028POPC   PO441256  27.077  22.717   5.161
 3028POPC   GL141257  26.825  22.826   5.639
 3028POPC   GL241258  26.691  23.176   5.820
 3028POPC   C1A41259  26.769  22.811   6.149
 3028POPC   D2A41260  26.738  23.042   6.563
 3028POPC   C3A41261  26.781  22.775   6.941
 3028POPC   C4A41262  26.554  22.784   7.325
 3028POPC   C1B41263  27.071  23.250   6.095
 3028POPC   C2B41264  27.269  23.174   6.530
 3028POPC   C3B41265  27.079  23.209   6.965
 3028POPC   C4B41266  26.915  23.176   7.412
 3029POPC   NC341267  42.223  14.827   5.514
 3029POPC   PO441268  42.483  15.466   5.445
 3029POPC   GL141269  42.301  15.277   5.781
 3029POPC   GL241270  42.599  15.139   5.905
 3029POPC   C1A41271  42.170  15.232   6.209
 3029POPC   D2A41272  42.282  15.416   6.610
 3029POPC   C3A41273  42.076  15.254   6.971
 3029POPC   C4A41274  42.295  15.057   7.318
 3029POPC   C1B41275  42.537  14.845   6.232
 3029POPC   C2B41276  42.376  14.886   6.618
 3029POPC   C3B41277  42.590  15.117   6.915
 3029POPC   C4B41278  42.581  15.477   7.129
 3030POPC   NC341279   8.692  21.832   5.412
 3030POPC   PO441280   8.943  22.479   5.458
 3030POPC   GL141281   8.842  22.200   5.776
 3030POPC   GL241282   9.085  21.905   5.752
 3030POPC   C1A41283   8.829  22.273   6.225
 3030POPC   D2A41284   8.715  22.065   6.615
 3030POPC   C3A41285   8.665  22.344   6.968
 3030POPC   C4A41286   8.758  22.233   7.377
 3030POPC   C1B41287   9.288  22.037   6.134
 3030POPC   C2B41288   9.247  21.940   6.578
 3030POPC   C3B41289   9.085  22.015   7.006
 3030POPC   C4B41290   9.262  22.267   7.334
 3031POPC   NC341291  17.045  21.798   5.260
 3031POPC   PO441292  17.635  21.705   5.657
 3031POPC   GL141293  17.618  21.901   6.036
 3031POPC   GL241294  17.752  22.210   6.084
 3031POPC   C1A41295  17.431  22.010   6.433
 3031POPC   D2A41296  17.415  21.864   6.819
 3031POPC   C3A41297  17.553  22.155   7.142
 3031POPC   C4A41298  17.742  22.079   7.575
 3031POPC   C1B41299  17.669  22.453   6.454
 3031POPC   C2B41300  17.343  22.470   6.764
 3031POPC   C3B41301  17.374  22.622   7.173
 3031POPC   C4B41302  17.742  22.556   7.395
 3032POPC   NC341303   4.069  16.526   5.564
 3032POPC   PO441304   4.456  17.025   5.388
 3032POPC   GL141305   4.458  16.964   5.838
 3032POPC   GL241306   4.419  16.613   5.945
 3032POPC   C1A41307   4.362  17.072   6.288
 3032POPC   D2A41308   4.180  16.953   6.705
 3032POPC   C3A41309   4.434  16.652   6.977
 3032POPC   C4A41310   4.509  16.672   7.438
 3032POPC   C1B41311   4.057  16.638   6.218
 3032POPC   C2B41312   4.071  16.462   6.595
 3032POPC   C3B41313   3.918  16.504   6.959
 3032POPC   C4B41314   4.024  16.631   7.295
 3033POPC   NC341315  17.299  43.104   5.422
 3033POPC   PO441316  17.974  43.029   5.467
 3033POPC   GL141317  17.772  43.197   5.838
 3033POPC   GL241318  17.598  42.901   5.841
 3033POPC   C1A41319  17.614  43.309   6.294
 3033POPC   D2A41320  17.368  43.118   6.665
 3033POPC   C3A41321  17.465  43.244   7.100
 3033POPC   C4A41322  17.311  43.594   7.327
 3033POPC   C1B41323  17.465  42.771   6.237
 3033POPC   C2B41324  17.566  42.601   6.621
 3033POPC   C3B41325  17.494  42.727   7.030
 3033POPC   C4B41326  17.451  42.816   7.485
 3034POPC   NC341327  23.267  16.143   5.378
 3034POPC   PO441328  22.486  16.181   5.312
 3034POPC   GL141329  22.821  16.112   5.624
 3034POPC   GL241330  22.919  15.781   5.669
 3034POPC   C1A41331  22.838  16.052   6.109
 3034POPC   D2A41332  22.938  15.760   6.493
 3034POPC   C3A41333  22.833  15.904   6.916
 3034POPC   C4A41334  22.860  15.806   7.348
 3034POPC   C1B41335  23.281  15.801   5.996
 3034POPC   C2B41336  23.442  15.878   6.434
 3034POPC   C3B41337  23.343  15.801   6.856
 3034POPC   C4B41338  23.261  16.085   7.186
 3035POPC   NC341339   4.653  38.209   5.461
 3035POPC   PO441340   3.994  38.454   5.571
 3035POPC   GL141341   4.264  38.263   5.822
 3035POPC   GL241342   4.506  38.541   5.841
 3035POPC   C1A41343   4.308  38.117   6.253
 3035POPC   D2A41344   4.144  37.997   6.666
 3035POPC   C3A41345   4.390  38.166   7.040
 3035POPC   C4A41346   4.252  38.082   7.458
 3035POPC   C1B41347   4.177  38.625   6.188
 3035POPC   C2B41348   4.018  38.604   6.620
 3035POPC   C3B41349   3.931  38.352   6.990
 3035POPC   C4B41350   3.983  38.499   7.448
 3036POPC   NC341351  12.645  34.756   5.373
 3036POPC   PO441352  13.014  34.199   5.362
 3036POPC   GL141353  12.893  34.411   5.770
 3036POPC   GL241354  12.871  34.796   5.818
 3036POPC   C1A41355  13.014  34.536   6.221
 3036POPC   D2A41356  13.091  34.349   6.579
 3036POPC   C3A41357  12.948  34.542   6.934
 3036POPC   C4A41358  12.876  34.644   7.341
 3036POPC   C1B41359  12.774  34.996   6.206
 3036POPC   C2B41360  12.854  35.029   6.631
 3036POPC   C3B41361  12.676  34.986   7.022
 3036POPC   C4B41362  12.680  35.096   7.451
 3037POPC   NC341363   6.278  36.000   5.306
 3037POPC   PO441364   6.938  35.956   5.430
 3037POPC   GL141365   6.748  36.068   5.850
 3037POPC   GL241366   6.396  36.186   5.815
 3037POPC   C1A41367   6.856  36.154   6.306
 3037POPC   D2A41368   6.653  36.180   6.703
 3037POPC   C3A41369   6.892  36.219   7.091
 3037POPC   C4A41370   7.028  35.821   7.304
 3037POPC   C1B41371   6.358  36.286   6.267
 3037POPC   C2B41372   6.191  36.392   6.688
 3037POPC   C3B41373   6.290  36.231   7.115
 3037POPC   C4B41374   6.187  36.296   7.555
 3038POPC   NC341375  41.429  25.561   5.641
 3038POPC   PO441376  41.767  25.207   5.167
 3038POPC   GL141377  41.796  25.095   5.663
 3038POPC   GL241378  41.484  25.101   5.868
 3038POPC   C1A41379  41.891  25.261   6.110
 3038POPC   D2A41380  41.800  25.551   6.469
 3038POPC   C3A41381  41.461  25.528   6.759
 3038POPC   C4A41382  41.584  25.361   7.138
 3038POPC   C1B41383  41.450  25.128   6.341
 3038POPC   C2B41384  41.463  24.985   6.774
 3038POPC   C3B41385  41.190  24.975   7.135
 3038POPC   C4B41386  41.114  24.702   7.520
 3039POPC   NC341387   3.920  14.986   5.530
 3039POPC   PO441388   4.485  15.485   5.447
 3039POPC   GL141389   4.575  15.347   5.847
 3039POPC   GL241390   4.237  15.225   5.850
 3039POPC   C1A41391   4.488  15.210   6.283
 3039POPC   D2A41392   4.430  15.403   6.677
 3039POPC   C3A41393   4.526  15.045   6.900
 3039POPC   C4A41394   4.440  14.863   7.331
 3039POPC   C1B41395   3.971  15.132   6.204
 3039POPC   C2B41396   4.086  15.021   6.613
 3039POPC   C3B41397   3.991  15.042   7.032
 3039POPC   C4B41398   3.913  14.683   7.219
 3040POPC   NC341399  42.915  14.237   5.226
 3040POPC   PO441400  42.647  14.708   5.600
 3040POPC   GL141401  42.761  14.467   5.934
 3040POPC   GL241402  43.075  14.363   5.760
 3040POPC   C1A41403  42.709  14.385   6.402
 3040POPC   D2A41404  43.052  14.283   6.657
 3040POPC   C3A41405  42.992  14.366   7.094
 3040POPC   C4A41406  43.265  14.164   7.362
 3040POPC   C1B41407  43.259  14.246   6.162
 3040POPC   C2B41408  43.485  14.498   6.467
 3040POPC   C3B41409  43.452  14.528   6.900
 3040POPC   C4B41410  43.412  14.675   7.301
 3041POPC   NC341411  32.902  36.429   5.224
 3041POPC   PO441412  33.252  35.909   5.279
 3041POPC   GL141413  33.158  36.111   5.693
 3041POPC   GL241414  32.844  36.307   5.761
 3041POPC   C1A41415  33.160  36.133   6.177
 3041POPC   D2A41416  33.307  35.973   6.608
 3041POPC   C3A41417  33.314  36.271   6.994
 3041POPC   C4A41418  33.307  36.571   7.361
 3041POPC   C1B41419  32.653  36.250   6.185
 3041POPC   C2B41420  32.769  36.002   6.551
 3041POPC   C3B41421  32.929  35.853   6.938
 3041POPC   C4B41422  32.830  35.992   7.324
 3042POPC   NC341423  33.181  25.742   5.463
 3042POPC   PO441424  33.422  26.346   5.241
 3042POPC   GL141425  33.369  26.193   5.677
 3042POPC   GL241426  33.008  26.121   5.776
 3042POPC   C1A41427  33.414  25.987   6.093
 3042POPC   D2A41428  33.381  25.760   6.483
 3042POPC   C3A41429  33.227  26.014   6.829
 3042POPC   C4A41430  33.300  26.229   7.228
 3042POPC   C1B41431  32.908  25.970   6.212
 3042POPC   C2B41432  32.720  26.232   6.553
 3042POPC   C3B41433  32.816  26.305   6.994
 3042POPC   C4B41434  32.896  25.939   7.249
 3043POPC   NC341435  20.896  20.102   5.339
 3043POPC   PO441436  20.401  19.545   5.390
 3043POPC   GL141437  20.573  19.661   5.789
 3043POPC   GL241438  20.873  19.851   5.779
 3043POPC   C1A41439  20.515  19.857   6.192
 3043POPC   D2A41440  20.389  20.060   6.564
 3043POPC   C3A41441  20.563  19.941   6.965
 3043POPC   C4A41442  20.453  19.991   7.379
 3043POPC   C1B41443  20.894  20.197   6.104
 3043POPC   C2B41444  20.897  20.066   6.548
 3043POPC   C3B41445  20.984  20.238   6.958
 3043POPC   C4B41446  20.923  20.140   7.414
 3044POPC   NC341447   4.717  30.314   5.475
 3044POPC   PO441448   4.357  29.738   5.202
 3044POPC   GL141449   4.365  29.809   5.653
 3044POPC   GL241450   4.106  29.554   5.790
 3044POPC   C1A41451   4.439  29.804   6.111
 3044POPC   D2A41452   4.646  29.843   6.519
 3044POPC   C3A41453   4.452  29.910   6.953
 3044POPC   C4A41454   4.570  30.005   7.386
 3044POPC   C1B41455   4.116  29.371   6.205
 3044POPC   C2B41456   4.015  29.324   6.643
 3044POPC   C3B41457   4.194  29.455   7.030
 3044POPC   C4B41458   4.140  29.763   7.358
 3045POPC   NC341459  19.438  17.478   5.486
 3045POPC   PO441460  19.214  18.070   5.360
 3045POPC   GL141461  19.079  17.760   5.724
 3045POPC   GL241462  18.849  17.445   5.837
 3045POPC   C1A41463  19.160  17.672   6.161
 3045POPC   D2A41464  18.907  17.819   6.481
 3045POPC   C3A41465  18.842  17.555   6.809
 3045POPC   C4A41466  18.848  17.709   7.243
 3045POPC   C1B41467  19.055  17.174   6.186
 3045POPC   C2B41468  19.256  17.328   6.600
 3045POPC   C3B41469  19.254  17.415   7.076
 3045POPC   C4B41470  19.099  17.207   7.460
 3046POPC   NC341471  36.431   1.088   5.215
 3046POPC   PO441472  35.830   1.382   5.312
 3046POPC   GL141473  36.147   1.252   5.620
 3046POPC   GL241474  35.918   1.080   5.804
 3046POPC   C1A41475  36.300   1.321   6.057
 3046POPC   D2A41476  36.080   1.367   6.466
 3046POPC   C3A41477  36.264   1.275   6.888
 3046POPC   C4A41478  36.160   1.287   7.358
 3046POPC   C1B41479  35.723   1.075   6.199
 3046POPC   C2B41480  35.813   0.943   6.615
 3046POPC   C3B41481  35.799   1.115   7.025
 3046POPC   C4B41482  35.800   0.959   7.461
 3047POPC   NC341483  13.049   7.932   5.308
 3047POPC   PO441484  12.948   8.546   5.007
 3047POPC   GL141485  12.811   8.332   5.490
 3047POPC   GL241486  13.053   8.369   5.702
 3047POPC   C1A41487  12.652   8.162   5.956
 3047POPC   D2A41488  12.504   8.152   6.450
 3047POPC   C3A41489  12.694   8.215   6.879
 3047POPC   C4A41490  12.802   7.949   7.236
 3047POPC   C1B41491  13.031   8.494   6.115
 3047POPC   C2B41492  12.996   8.503   6.554
 3047POPC   C3B41493  13.202   8.307   6.920
 3047POPC   C4B41494  13.040   8.390   7.340
 3048POPC   NC341495  18.890   5.000   5.398
 3048POPC   PO441496  19.187   5.596   5.128
 3048POPC   GL141497  19.265   5.246   5.611
 3048POPC   GL241498  19.253   5.466   5.945
 3048POPC   C1A41499  19.184   4.991   6.047
 3048POPC   D2A41500  18.890   4.886   6.424
 3048POPC   C3A41501  18.948   5.077   6.840
 3048POPC   C4A41502  19.233   4.987   7.162
 3048POPC   C1B41503  19.152   5.359   6.391
 3048POPC   C2B41504  19.379   5.345   6.768
 3048POPC   C3B41505  19.164   5.497   7.134
 3048POPC   C4B41506  19.132   5.402   7.570
 3049POPC   NC341507  23.793  10.515   5.379
 3049POPC   PO441508  23.628  11.035   5.382
 3049POPC   GL141509  23.579  10.767   5.778
 3049POPC   GL241510  23.464  10.403   5.806
 3049POPC   C1A41511  23.607  10.668   6.238
 3049POPC   D2A41512  23.361  10.596   6.590
 3049POPC   C3A41513  23.453  10.478   7.017
 3049POPC   C4A41514  23.414  10.404   7.461
 3049POPC   C1B41515  23.394  10.194   6.242
 3049POPC   C2B41516  23.654  10.162   6.646
 3049POPC   C3B41517  23.524   9.960   7.075
 3049POPC   C4B41518  23.552   9.920   7.553
 3050POPC   NC341519   5.526  30.900   5.532
 3050POPC   PO441520   4.934  30.725   5.531
 3050POPC   GL141521   4.968  30.527   5.891
 3050POPC   GL241522   5.328  30.541   5.837
 3050POPC   C1A41523   5.024  30.461   6.311
 3050POPC   D2A41524   5.144  30.654   6.650
 3050POPC   C3A41525   5.073  30.588   7.035
 3050POPC   C4A41526   4.715  30.452   7.215
 3050POPC   C1B41527   5.348  30.858   6.209
 3050POPC   C2B41528   5.356  31.100   6.646
 3050POPC   C3B41529   5.303  31.054   7.141
 3050POPC   C4B41530   5.398  30.927   7.595
 3051POPC   NC341531  24.905  29.014   5.363
 3051POPC   PO441532  25.484  29.389   5.535
 3051POPC   GL141533  25.244  29.423   5.898
 3051POPC   GL241534  25.057  29.152   5.852
 3051POPC   C1A41535  25.155  29.412   6.359
 3051POPC   D2A41536  24.970  29.478   6.773
 3051POPC   C3A41537  25.171  29.223   7.047
 3051POPC   C4A41538  25.627  29.197   7.102
 3051POPC   C1B41539  25.272  28.926   6.183
 3051POPC   C2B41540  25.287  28.974   6.623
 3051POPC   C3B41541  25.402  28.773   7.002
 3051POPC   C4B41542  25.330  28.525   7.270
 3052POPC   NC341543  10.912   2.797   5.142
 3052POPC   PO441544  10.356   2.764   5.527
 3052POPC   GL141545  10.423   2.833   5.933
 3052POPC   GL241546  10.449   2.474   5.995
 3052POPC   C1A41547  10.597   2.843   6.341
 3052POPC   D2A41548  10.320   2.846   6.683
 3052POPC   C3A41549  10.481   2.970   7.065
 3052POPC   C4A41550  10.893   2.962   7.245
 3052POPC   C1B41551  10.110   2.409   6.305
 3052POPC   C2B41552  10.151   2.344   6.742
 3052POPC   C3B41553  10.501   2.458   6.999
 3052POPC   C4B41554  10.565   2.606   7.434
 3053POPC   NC341555   4.095  42.066   5.326
 3053POPC   PO441556   4.532  42.550   5.314
 3053POPC   GL141557   4.351  42.369   5.733
 3053POPC   GL241558   4.254  42.024   5.832
 3053POPC   C1A41559   4.525  42.427   6.191
 3053POPC   D2A41560   4.630  42.342   6.658
 3053POPC   C3A41561   4.370  42.360   7.035
 3053POPC   C4A41562   4.501  42.344   7.471
 3053POPC   C1B41563   4.058  42.233   6.203
 3053POPC   C2B41564   3.935  42.332   6.632
 3053POPC   C3B41565   3.961  42.071   7.000
 3053POPC   C4B41566   4.224  41.944   7.345
 3054POPC   NC341567   6.510   2.863   5.387
 3054POPC   PO441568   7.164   3.031   5.317
 3054POPC   GL141569   6.927   2.918   5.757
 3054POPC   GL241570   6.579   2.748   5.908
 3054POPC   C1A41571   6.989   2.821   6.215
 3054POPC   D2A41572   6.680   2.675   6.529
 3054POPC   C3A41573   6.653   2.856   6.930
 3054POPC   C4A41574   6.850   2.721   7.298
 3054POPC   C1B41575   6.311   2.487   6.253
 3054POPC   C2B41576   6.247   2.452   6.765
 3054POPC   C3B41577   6.202   2.749   7.152
 3054POPC   C4B41578   6.456   3.021   7.431
 3055POPC   NC341579   2.099  24.584   5.204
 3055POPC   PO441580   2.653  24.349   5.154
 3055POPC   GL141581   2.340  24.529   5.618
 3055POPC   GL241582   2.003  24.343   5.663
 3055POPC   C1A41583   2.197  24.524   6.073
 3055POPC   D2A41584   2.184  24.496   6.507
 3055POPC   C3A41585   2.105  24.645   6.897
 3055POPC   C4A41586   2.286  24.431   7.244
 3055POPC   C1B41587   1.765  24.212   6.052
 3055POPC   C2B41588   1.678  24.269   6.487
 3055POPC   C3B41589   1.548  24.368   6.900
 3055POPC   C4B41590   1.781  24.460   7.262
 3056POPC   NC341591   8.147  43.705   5.032
 3056POPC   PO441592   8.109  44.117   5.551
 3056POPC   GL141593   8.064  44.045   5.954
 3056POPC   GL241594   7.991  43.703   5.999
 3056POPC   C1A41595   8.258  44.044   6.341
 3056POPC   D2A41596   8.513  44.224   6.647
 3056POPC   C3A41597   8.625  43.846   6.866
 3056POPC   C4A41598   8.402  43.726   7.223
 3056POPC   C1B41599   7.825  43.731   6.335
 3056POPC   C2B41600   7.855  43.985   6.645
 3056POPC   C3B41601   8.035  44.013   7.033
 3056POPC   C4B41602   7.821  43.803   7.383
 3057POPC   NC341603  24.182  19.919   5.473
 3057POPC   PO441604  24.712  19.428   5.310
 3057POPC   GL141605  24.621  19.634   5.726
 3057POPC   GL241606  24.482  19.934   5.890
 3057POPC   C1A41607  24.780  19.573   6.171
 3057POPC   D2A41608  25.026  19.752   6.554
 3057POPC   C3A41609  24.853  19.804   6.937
 3057POPC   C4A41610  24.503  19.798   7.206
 3057POPC   C1B41611  24.625  20.029   6.326
 3057POPC   C2B41612  24.435  20.011   6.708
 3057POPC   C3B41613  24.246  20.214   7.025
 3057POPC   C4B41614  24.293  20.189   7.461
 3058POPC   NC341615  32.143  43.301   5.395
 3058POPC   PO441616  32.724  43.038   5.235
 3058POPC   GL141617  32.495  42.898   5.734
 3058POPC   GL241618  32.143  43.045   5.828
 3058POPC   C1A41619  32.443  43.124   6.208
 3058POPC   D2A41620  32.269  42.921   6.598
 3058POPC   C3A41621  32.338  43.079   6.983
 3058POPC   C4A41622  32.122  43.201   7.344
 3058POPC   C1B41623  31.931  43.105   6.266
 3058POPC   C2B41624  31.888  43.213   6.743
 3058POPC   C3B41625  31.684  43.043   7.114
 3058POPC   C4B41626  31.284  42.971   7.310
 3059POPC   NC341627  27.717  14.338   5.279
 3059POPC   PO441628  27.076  14.422   5.505
 3059POPC   GL141629  27.342  14.484   5.884
 3059POPC   GL241630  27.711  14.450   5.789
 3059POPC   C1A41631  27.384  14.400   6.343
 3059POPC   D2A41632  27.708  14.376   6.655
 3059POPC   C3A41633  27.595  14.540   7.049
 3059POPC   C4A41634  27.404  14.353   7.361
 3059POPC   C1B41635  27.817  14.167   6.136
 3059POPC   C2B41636  27.951  13.952   6.514
 3059POPC   C3B41637  28.051  14.057   6.938
 3059POPC   C4B41638  27.862  14.172   7.320
 3060POPC   NC341639  39.637  38.288   5.350
 3060POPC   PO441640  40.244  38.531   5.569
 3060POPC   GL141641  39.869  38.456   5.803
 3060POPC   GL241642  39.779  38.763   5.793
 3060POPC   C1A41643  39.918  38.314   6.230
 3060POPC   D2A41644  39.872  38.545   6.608
 3060POPC   C3A41645  39.954  38.305   6.934
 3060POPC   C4A41646  39.995  38.156   7.290
 3060POPC   C1B41647  39.986  38.811   6.175
 3060POPC   C2B41648  40.343  38.731   6.468
 3060POPC   C3B41649  40.282  38.706   6.899
 3060POPC   C4B41650  39.913  38.779   7.158
 3061POPC   NC341651  39.405  40.281   5.389
 3061POPC   PO441652  38.933  39.724   5.390
 3061POPC   GL141653  39.141  39.967   5.725
 3061POPC   GL241654  39.056  40.318   5.771
 3061POPC   C1A41655  39.238  40.053   6.170
 3061POPC   D2A41656  39.291  39.782   6.520
 3061POPC   C3A41657  39.368  39.987   6.895
 3061POPC   C4A41658  39.019  39.856   7.123
 3061POPC   C1B41659  38.944  40.472   6.198
 3061POPC   C2B41660  39.140  40.438   6.625
 3061POPC   C3B41661  39.042  40.404   7.054
 3061POPC   C4B41662  39.228  40.235   7.405
 3062POPC   NC341663   7.011  29.470   5.438
 3062POPC   PO441664   7.018  28.792   5.509
 3062POPC   GL141665   7.209  29.149   5.796
 3062POPC   GL241666   7.545  29.348   5.758
 3062POPC   C1A41667   7.179  29.353   6.227
 3062POPC   D2A41668   7.154  29.072   6.615
 3062POPC   C3A41669   7.263  29.183   7.042
 3062POPC   C4A41670   7.586  29.484   6.991
 3062POPC   C1B41671   7.593  29.076   6.139
 3062POPC   C2B41672   7.676  29.126   6.569
 3062POPC   C3B41673   7.679  28.910   6.950
 3062POPC   C4B41674   7.452  28.813   7.343
 3063POPC   NC341675  34.100   0.702   5.308
 3063POPC   PO441676  33.647   0.322   5.403
 3063POPC   GL141677  33.936   0.384   5.741
 3063POPC   GL241678  33.981   0.731   5.832
 3063POPC   C1A41679  33.765   0.345   6.163
 3063POPC   D2A41680  33.552   0.456   6.505
 3063POPC   C3A41681  33.816   0.358   6.850
 3063POPC   C4A41682  33.799   0.265   7.266
 3063POPC   C1B41683  34.228   0.527   6.181
 3063POPC   C2B41684  34.332   0.524   6.614
 3063POPC   C3B41685  34.150   0.745   6.928
 3063POPC   C4B41686  33.991   0.741   7.337
 3064POPC   NC341687  20.883  23.581   5.635
 3064POPC   PO441688  20.442  24.051   5.368
 3064POPC   GL141689  20.537  23.919   5.786
 3064POPC   GL241690  20.335  23.631   5.774
 3064POPC   C1A41691  20.634  23.752   6.227
 3064POPC   D2A41692  20.886  23.458   6.510
 3064POPC   C3A41693  20.721  23.511   6.923
 3064POPC   C4A41694  20.951  23.669   7.252
 3064POPC   C1B41695  20.259  23.407   6.137
 3064POPC   C2B41696  20.376  23.356   6.548
 3064POPC   C3B41697  20.178  23.318   6.925
 3064POPC   C4B41698  20.323  23.611   7.235
 3065POPC   NC341699  19.885  36.996   5.231
 3065POPC   PO441700  20.177  36.412   5.055
 3065POPC   GL141701  20.063  36.643   5.567
 3065POPC   GL241702  19.833  36.998   5.723
 3065POPC   C1A41703  20.068  36.731   6.068
 3065POPC   D2A41704  19.902  36.863   6.499
 3065POPC   C3A41705  20.124  36.663   6.887
 3065POPC   C4A41706  20.169  36.427   7.311
 3065POPC   C1B41707  19.675  37.186   6.142
 3065POPC   C2B41708  19.496  37.269   6.578
 3065POPC   C3B41709  19.461  37.212   7.020
 3065POPC   C4B41710  19.658  36.935   7.315
 3066POPC   NC341711  34.974  28.143   5.330
 3066POPC   PO441712  34.420  28.510   5.518
 3066POPC   GL141713  34.576  28.348   5.878
 3066POPC   GL241714  34.698  27.994   5.807
 3066POPC   C1A41715  34.580  28.582   6.253
 3066POPC   D2A41716  34.335  28.624   6.630
 3066POPC   C3A41717  34.410  28.277   6.917
 3066POPC   C4A41718  34.389  28.472   7.289
 3066POPC   C1B41719  34.815  28.076   6.244
 3066POPC   C2B41720  34.820  28.329   6.628
 3066POPC   C3B41721  34.801  28.589   7.009
 3066POPC   C4B41722  34.839  28.323   7.414
 3067POPC   NC341723   0.855   7.793   5.505
 3067POPC   PO441724   1.248   7.254   5.554
 3067POPC   GL141725   1.063   7.483   5.880
 3067POPC   GL241726   1.238   7.813   5.841
 3067POPC   C1A41727   1.211   7.572   6.303
 3067POPC   D2A41728   1.375   7.390   6.647
 3067POPC   C3A41729   1.079   7.462   6.944
 3067POPC   C4A41730   1.369   7.328   7.232
 3067POPC   C1B41731   0.882   7.916   6.152
 3067POPC   C2B41732   0.825   7.823   6.609
 3067POPC   C3B41733   0.935   7.966   7.030
 3067POPC   C4B41734   1.047   7.724   7.407
 3068POPC   NC341735   4.370   5.203   5.287
 3068POPC   PO441736   4.498   4.581   5.290
 3068POPC   GL141737   4.404   4.872   5.681
 3068POPC   GL241738   4.113   4.723   5.728
 3068POPC   C1A41739   4.428   5.157   6.086
 3068POPC   D2A41740   4.437   5.443   6.464
 3068POPC   C3A41741   4.236   5.233   6.822
 3068POPC   C4A41742   4.414   5.065   7.196
 3068POPC   C1B41743   4.099   4.626   6.160
 3068POPC   C2B41744   4.189   4.755   6.591
 3068POPC   C3B41745   3.988   4.786   7.012
 3068POPC   C4B41746   4.070   4.764   7.473
 3069POPC   NC341747  25.831   9.242   5.450
 3069POPC   PO441748  25.814   8.582   5.357
 3069POPC   GL141749  26.097   8.835   5.677
 3069POPC   GL241750  26.315   8.648   5.887
 3069POPC   C1A41751  26.070   9.034   6.123
 3069POPC   D2A41752  25.884   8.850   6.523
 3069POPC   C3A41753  25.948   9.046   6.902
 3069POPC   C4A41754  25.721   9.184   7.247
 3069POPC   C1B41755  26.186   8.529   6.256
 3069POPC   C2B41756  26.321   8.551   6.644
 3069POPC   C3B41757  26.043   8.522   6.936
 3069POPC   C4B41758  26.019   8.746   7.281
 3070POPC   NC341759  16.442  22.968   5.152
 3070POPC   PO441760  17.018  23.054   5.304
 3070POPC   GL141761  16.914  23.030   5.756
 3070POPC   GL241762  16.693  23.276   5.874
 3070POPC   C1A41763  16.837  22.811   6.157
 3070POPC   D2A41764  16.753  22.934   6.589
 3070POPC   C3A41765  16.964  22.803   6.936
 3070POPC   C4A41766  16.623  22.674   7.127
 3070POPC   C1B41767  16.524  23.268   6.276
 3070POPC   C2B41768  16.633  23.424   6.703
 3070POPC   C3B41769  16.733  23.229   7.098
 3070POPC   C4B41770  16.969  23.255   7.499
 3071POPC   NC341771  10.313  23.569   5.326
 3071POPC   PO441772  10.705  23.990   5.655
 3071POPC   GL141773  10.610  23.716   5.963
 3071POPC   GL241774  10.305  23.652   5.833
 3071POPC   C1A41775  10.652  23.754   6.401
 3071POPC   D2A41776  10.507  24.018   6.735
 3071POPC   C3A41777  10.663  23.878   7.107
 3071POPC   C4A41778  10.728  23.450   7.295
 3071POPC   C1B41779  10.174  23.837   6.215
 3071POPC   C2B41780  10.048  23.667   6.584
 3071POPC   C3B41781  10.193  23.646   6.990
 3071POPC   C4B41782  10.281  23.737   7.417
 3072POPC   NC341783  40.916  22.703   5.554
 3072POPC   PO441784  41.034  23.385   5.441
 3072POPC   GL141785  40.877  23.176   5.841
 3072POPC   GL241786  40.614  22.890   5.916
 3072POPC   C1A41787  41.003  23.085   6.265
 3072POPC   D2A41788  41.105  22.873   6.663
 3072POPC   C3A41789  40.896  23.042   7.025
 3072POPC   C4A41790  40.894  23.021   7.475
 3072POPC   C1B41791  40.722  22.658   6.332
 3072POPC   C2B41792  40.678  22.599   6.824
 3072POPC   C3B41793  40.511  22.733   7.239
 3072POPC   C4B41794  40.567  22.648   7.691
 3073POPC   NC341795   9.217  26.704   5.472
 3073POPC   PO441796   8.698  27.073   5.454
 3073POPC   GL141797   8.920  26.906   5.824
 3073POPC   GL241798   9.281  27.029   5.876
 3073POPC   C1A41799   8.983  26.763   6.226
 3073POPC   D2A41800   8.765  26.923   6.584
 3073POPC   C3A41801   8.882  26.693   6.950
 3073POPC   C4A41802   8.682  26.839   7.322
 3073POPC   C1B41803   9.441  27.163   6.259
 3073POPC   C2B41804   9.276  26.954   6.605
 3073POPC   C3B41805   9.373  26.846   6.988
 3073POPC   C4B41806   9.175  26.875   7.354
 3074POPC   NC341807  26.225  27.146   5.315
 3074POPC   PO441808  25.910  26.552   5.321
 3074POPC   GL141809  25.918  26.777   5.698
 3074POPC   GL241810  26.251  26.790   5.763
 3074POPC   C1A41811  25.743  26.805   6.130
 3074POPC   D2A41812  25.557  26.591   6.507
 3074POPC   C3A41813  25.829  26.772   6.822
 3074POPC   C4A41814  25.822  27.025   7.142
 3074POPC   C1B41815  26.343  26.889   6.193
 3074POPC   C2B41816  26.395  26.907   6.652
 3074POPC   C3B41817  26.301  26.902   7.057
 3074POPC   C4B41818  26.443  26.608   7.359
 3075POPC   NC341819  33.332  12.323   5.528
 3075POPC   PO441820  32.954  11.769   5.587
 3075POPC   GL141821  33.173  11.975   5.894
 3075POPC   GL241822  32.944  12.245   5.873
 3075POPC   C1A41823  33.299  12.177   6.287
 3075POPC   D2A41824  33.115  12.262   6.719
 3075POPC   C3A41825  33.393  12.173   7.111
 3075POPC   C4A41826  33.330  12.194   7.587
 3075POPC   C1B41827  32.790  12.025   6.249
 3075POPC   C2B41828  32.590  11.929   6.642
 3075POPC   C3B41829  32.737  12.027   7.017
 3075POPC   C4B41830  32.724  11.910   7.438
 3076POPC   NC341831  41.684  38.571   5.372
 3076POPC   PO441832  41.156  38.210   5.317
 3076POPC   GL141833  41.359  38.329   5.751
 3076POPC   GL241834  41.583  38.646   5.855
 3076POPC   C1A41835  41.483  38.306   6.219
 3076POPC   D2A41836  41.271  38.166   6.605
 3076POPC   C3A41837  41.387  38.196   7.064
 3076POPC   C4A41838  41.331  38.229   7.536
 3076POPC   C1B41839  41.908  38.671   6.200
 3076POPC   C2B41840  41.864  38.751   6.659
 3076POPC   C3B41841  41.552  38.686   6.977
 3076POPC   C4B41842  41.666  38.569   7.362
 3077POPC   NC341843  34.133   5.625   5.597
 3077POPC   PO441844  34.692   5.686   5.346
 3077POPC   GL141845  34.552   5.767   5.831
 3077POPC   GL241846  34.469   6.051   5.752
 3077POPC   C1A41847  34.613   5.632   6.289
 3077POPC   D2A41848  34.369   5.525   6.683
 3077POPC   C3A41849  34.578   5.661   7.073
 3077POPC   C4A41850  34.626   5.634   7.527
 3077POPC   C1B41851  34.544   6.163   6.175
 3077POPC   C2B41852  34.464   6.027   6.591
 3077POPC   C3B41853  34.548   6.181   6.978
 3077POPC   C4B41854  34.567   6.393   7.340
 3078POPC   NC341855  21.277  24.478   5.438
 3078POPC   PO441856  21.727  24.920   5.397
 3078POPC   GL141857  21.698  24.544   5.712
 3078POPC   GL241858  21.431  24.719   5.835
 3078POPC   C1A41859  21.461  24.310   6.119
 3078POPC   D2A41860  21.221  24.355   6.536
 3078POPC   C3A41861  21.428  24.490   6.929
 3078POPC   C4A41862  21.509  24.367   7.361
 3078POPC   C1B41863  21.125  24.712   6.135
 3078POPC   C2B41864  21.178  24.866   6.527
 3078POPC   C3B41865  21.041  24.789   6.939
 3078POPC   C4B41866  20.995  24.497   7.300
 3079POPC   NC341867  17.188  43.976   5.587
 3079POPC   PO441868  17.541  43.523   5.183
 3079POPC   GL141869  17.623  43.667   5.667
 3079POPC   GL241870  17.725  43.990   5.732
 3079POPC   C1A41871  17.496  43.842   6.169
 3079POPC   D2A41872  17.206  44.120   6.467
 3079POPC   C3A41873  17.311  44.261   6.893
 3079POPC   C4A41874  17.536  44.008   7.134
 3079POPC   C1B41875  17.945  43.645   6.045
 3079POPC   C2B41876  18.025  43.662   6.476
 3079POPC   C3B41877  17.774  43.559   6.816
 3079POPC   C4B41878  17.834  43.609   7.251
 3080POPC   NC341879  35.604  15.669   5.272
 3080POPC   PO441880  35.057  16.138   5.379
 3080POPC   GL141881  35.194  15.906   5.716
 3080POPC   GL241882  35.535  15.838   5.729
 3080POPC   C1A41883  35.147  15.766   6.121
 3080POPC   D2A41884  35.188  15.963   6.514
 3080POPC   C3A41885  35.278  15.834   6.886
 3080POPC   C4A41886  35.067  15.906   7.253
 3080POPC   C1B41887  35.634  15.636   6.077
 3080POPC   C2B41888  35.658  15.736   6.485
 3080POPC   C3B41889  35.776  15.603   6.856
 3080POPC   C4B41890  35.623  15.718   7.226
 3081POPC   NC341891  30.978   9.980   5.367
 3081POPC   PO441892  30.377   9.699   5.425
 3081POPC   GL141893  30.450   9.887   5.811
 3081POPC   GL241894  30.768   9.871   5.807
 3081POPC   C1A41895  30.487   9.802   6.230
 3081POPC   D2A41896  30.657  10.017   6.558
 3081POPC   C3A41897  30.489   9.837   6.901
 3081POPC   C4A41898  30.595   9.946   7.304
 3081POPC   C1B41899  31.010   9.927   6.184
 3081POPC   C2B41900  31.192   9.774   6.566
 3081POPC   C3B41901  30.994   9.823   6.935
 3081POPC   C4B41902  30.966   9.579   7.286
 3082POPC   NC341903  25.881  43.769   5.397
 3082POPC   PO441904  26.259  44.302   5.316
 3082POPC   GL141905  26.183  44.010   5.743
 3082POPC   GL241906  26.171  43.631   5.820
 3082POPC   C1A41907  26.093  43.999   6.213
 3082POPC   D2A41908  26.318  44.059   6.612
 3082POPC   C3A41909  26.143  44.082   7.007
 3082POPC   C4A41910  25.824  43.866   7.244
 3082POPC   C1B41911  26.352  43.570   6.225
 3082POPC   C2B41912  26.528  43.591   6.628
 3082POPC   C3B41913  26.492  43.710   7.042
 3082POPC   C4B41914  26.157  43.494   7.257
 3083POPC   NC341915  33.476  21.165   5.484
 3083POPC   PO441916  34.019  21.660   5.514
 3083POPC   GL141917  33.902  21.277   5.758
 3083POPC   GL241918  33.615  21.464   5.883
 3083POPC   C1A41919  33.769  21.078   6.164
 3083POPC   D2A41920  33.587  21.262   6.555
 3083POPC   C3A41921  33.885  21.373   6.879
 3083POPC   C4A41922  33.849  21.656   7.239
 3083POPC   C1B41923  33.339  21.641   6.197
 3083POPC   C2B41924  33.192  21.607   6.623
 3083POPC   C3B41925  33.391  21.493   6.997
 3083POPC   C4B41926  33.595  21.202   7.262
 3084POPC   NC341927  36.315  18.305   5.404
 3084POPC   PO441928  35.822  18.479   5.051
 3084POPC   GL141929  35.736  18.366   5.603
 3084POPC   GL241930  35.975  18.098   5.731
 3084POPC   C1A41931  35.650  18.312   6.087
 3084POPC   D2A41932  35.623  18.161   6.556
 3084POPC   C3A41933  35.939  18.085   6.922
 3084POPC   C4A41934  35.958  18.282   7.401
 3084POPC   C1B41935  36.159  18.394   6.092
 3084POPC   C2B41936  36.102  18.429   6.577
 3084POPC   C3B41937  36.275  18.451   7.039
 3084POPC   C4B41938  36.672  18.492   7.194
 3085POPC   NC341939  11.702  27.851   5.500
 3085POPC   PO441940  12.291  27.447   5.422
 3085POPC   GL141941  12.133  27.679   5.776
 3085POPC   GL241942  11.822  27.535   5.888
 3085POPC   C1A41943  12.216  27.634   6.230
 3085POPC   D2A41944  12.386  27.633   6.666
 3085POPC   C3A41945  12.026  27.700   6.942
 3085POPC   C4A41946  11.877  27.593   7.350
 3085POPC   C1B41947  11.754  27.893   6.163
 3085POPC   C2B41948  11.554  27.971   6.557
 3085POPC   C3B41949  11.679  28.141   6.946
 3085POPC   C4B41950  11.948  28.098   7.296
 3086POPC   NC341951  39.026   2.353   5.473
 3086POPC   PO441952  39.197   1.694   5.454
 3086POPC   GL141953  39.238   1.918   5.830
 3086POPC   GL241954  38.911   2.003   5.846
 3086POPC   C1A41955  39.168   2.069   6.292
 3086POPC   D2A41956  38.999   2.263   6.691
 3086POPC   C3A41957  39.280   2.303   7.044
 3086POPC   C4A41958  39.462   2.001   7.320
 3086POPC   C1B41959  38.697   1.893   6.217
 3086POPC   C2B41960  38.795   1.801   6.657
 3086POPC   C3B41961  38.943   1.912   7.079
 3086POPC   C4B41962  39.033   1.814   7.504
 3087POPC   NC341963  10.670  44.579   5.370
 3087POPC   PO441964  10.250   0.080   5.419
 3087POPC   GL141965  10.493  44.863   5.757
 3087POPC   GL241966  10.346  44.538   5.798
 3087POPC   C1A41967  10.512  44.773   6.217
 3087POPC   D2A41968  10.257  44.646   6.591
 3087POPC   C3A41969  10.431  44.692   7.037
 3087POPC   C4A41970  10.605  44.415   7.369
 3087POPC   C1B41971  10.008  44.430   6.136
 3087POPC   C2B41972   9.900  44.259   6.550
 3087POPC   C3B41973   9.998  44.398   6.967
 3087POPC   C4B41974  10.118  44.467   7.406
 3088POPC   NC341975  29.407  32.491   5.520
 3088POPC   PO441976  30.031  32.273   5.443
 3088POPC   GL141977  29.708  32.115   5.754
 3088POPC   GL241978  29.777  31.736   5.814
 3088POPC   C1A41979  29.672  32.267   6.188
 3088POPC   D2A41980  29.904  32.194   6.581
 3088POPC   C3A41981  30.010  32.528   6.864
 3088POPC   C4A41982  29.920  32.552   7.283
 3088POPC   C1B41983  30.081  31.937   6.126
 3088POPC   C2B41984  30.349  31.879   6.519
 3088POPC   C3B41985  30.294  32.046   6.926
 3088POPC   C4B41986  29.892  32.061   7.098
 3089POPC   NC341987  27.455   6.387   5.290
 3089POPC   PO441988  28.135   6.453   5.246
 3089POPC   GL141989  27.859   6.462   5.644
 3089POPC   GL241990  27.536   6.683   5.691
 3089POPC   C1A41991  27.876   6.687   6.061
 3089POPC   D2A41992  27.991   6.631   6.480
 3089POPC   C3A41993  27.818   6.819   6.856
 3089POPC   C4A41994  27.842   6.640   7.251
 3089POPC   C1B41995  27.368   6.628   6.118
 3089POPC   C2B41996  27.425   6.836   6.499
 3089POPC   C3B41997  27.303   6.736   6.885
 3089POPC   C4B41998  27.313   6.485   7.258
 3090POPC   NC341999  39.979  10.139   5.286
 3090POPC   PO442000  40.326   9.564   5.145
 3090POPC   GL142001  40.129   9.673   5.605
 3090POPC   GL242002  39.826   9.849   5.673
 3090POPC   C1A42003  40.181   9.844   6.072
 3090POPC   D2A42004  39.928   9.995   6.463
 3090POPC   C3A42005  40.008   9.799   6.876
 3090POPC   C4A42006  40.111   9.753   7.312
 3090POPC   C1B42007  39.697   9.699   6.069
 3090POPC   C2B42008  39.810   9.498   6.474
 3090POPC   C3B42009  39.610   9.472   6.881
 3090POPC   C4B42010  39.615   9.773   7.219
 3091POPC   NC342011  12.351   3.803   5.508
 3091POPC   PO442012  11.775   3.460   5.427
 3091POPC   GL142013  11.981   3.546   5.820
 3091POPC   GL242014  12.313   3.410   5.832
 3091POPC   C1A42015  11.940   3.607   6.265
 3091POPC   D2A42016  12.034   3.540   6.681
 3091POPC   C3A42017  12.015   3.838   6.991
 3091POPC   C4A42018  12.156   3.780   7.432
 3091POPC   C1B42019  12.335   3.242   6.255
 3091POPC   C2B42020  12.533   3.354   6.632
 3091POPC   C3B42021  12.427   3.481   7.052
 3091POPC   C4B42022  12.509   3.247   7.419
 3092POPC   NC342023  38.263  34.941   5.517
 3092POPC   PO442024  38.773  34.356   5.491
 3092POPC   GL142025  38.474  34.551   5.798
 3092POPC   GL242026  38.188  34.330   5.913
 3092POPC   C1A42027  38.288  34.764   6.169
 3092POPC   D2A42028  38.166  34.977   6.549
 3092POPC   C3A42029  38.299  34.823   6.947
 3092POPC   C4A42030  38.230  34.977   7.335
 3092POPC   C1B42031  38.501  34.241   6.215
 3092POPC   C2B42032  38.480  34.063   6.579
 3092POPC   C3B42033  38.312  34.259   6.924
 3092POPC   C4B42034  38.107  34.440   7.258
 3093POPC   NC342035  22.588  15.436   5.336
 3093POPC   PO442036  23.210  15.618   5.272
 3093POPC   GL142037  23.106  15.301   5.644
 3093POPC   GL242038  22.804  15.100   5.673
 3093POPC   C1A42039  23.015  15.364   6.113
 3093POPC   D2A42040  23.102  15.218   6.558
 3093POPC   C3A42041  23.036  15.411   6.992
 3093POPC   C4A42042  23.189  15.150   7.343
 3093POPC   C1B42043  22.604  15.057   6.109
 3093POPC   C2B42044  22.566  15.249   6.521
 3093POPC   C3B42045  22.693  15.070   6.880
 3093POPC   C4B42046  22.689  15.097   7.305
 3094POPC   NC342047   3.097   9.446   5.442
 3094POPC   PO442048   2.755   9.996   5.296
 3094POPC   GL142049   2.679   9.698   5.655
 3094POPC   GL242050   2.978   9.765   5.810
 3094POPC   C1A42051   2.428   9.512   6.020
 3094POPC   D2A42052   2.312   9.647   6.460
 3094POPC   C3A42053   2.578   9.602   6.852
 3094POPC   C4A42054   2.741   9.650   7.278
 3094POPC   C1B42055   2.917   9.542   6.187
 3094POPC   C2B42056   3.058   9.717   6.580
 3094POPC   C3B42057   3.145   9.533   6.956
 3094POPC   C4B42058   3.155   9.343   7.342
 3095POPC   NC342059   0.532  37.887   5.349
 3095POPC   PO442060   0.230  37.252   5.419
 3095POPC   GL142061   0.375  37.565   5.745
 3095POPC   GL242062   0.698  37.773   5.803
 3095POPC   C1A42063   0.212  37.792   6.104
 3095POPC   D2A42064   0.169  38.083   6.478
 3095POPC   C3A42065   0.109  37.889   6.884
 3095POPC   C4A42066   0.384  37.930   7.258
 3095POPC   C1B42067   0.692  37.533   6.163
 3095POPC   C2B42068   0.421  37.532   6.517
 3095POPC   C3B42069   0.511  37.568   6.930
 3095POPC   C4B42070   0.573  37.428   7.327
 3096POPC   NC342071   7.321  31.018   5.469
 3096POPC   PO442072   7.664  31.604   5.301
 3096POPC   GL142073   7.649  31.391   5.695
 3096POPC   GL242074   7.349  31.566   5.840
 3096POPC   C1A42075   7.730  31.399   6.147
 3096POPC   D2A42076   7.370  31.579   6.415
 3096POPC   C3A42077   7.391  31.750   6.825
 3096POPC   C4A42078   7.662  31.803   7.154
 3096POPC   C1B42079   7.282  31.169   6.106
 3096POPC   C2B42080   7.118  31.100   6.520
 3096POPC   C3B42081   7.163  30.968   6.943
 3096POPC   C4B42082   7.411  31.314   7.132
 3097POPC   NC342083  42.764  39.840   5.374
 3097POPC   PO442084  42.351  40.310   5.501
 3097POPC   GL142085  42.393  40.023   5.817
 3097POPC   GL242086  42.720  40.127   5.823
 3097POPC   C1A42087  42.485  39.830   6.221
 3097POPC   D2A42088  42.255  39.652   6.573
 3097POPC   C3A42089  42.151  39.972   6.832
 3097POPC   C4A42090  42.119  39.984   7.233
 3097POPC   C1B42091  42.612  40.324   6.211
 3097POPC   C2B42092  42.598  40.291   6.663
 3097POPC   C3B42093  42.609  40.038   7.053
 3097POPC   C4B42094  42.595  40.042   7.521
 3098POPC   NC342095  16.095  22.069   5.418
 3098POPC   PO442096  16.465  22.507   5.141
 3098POPC   GL142097  16.385  22.405   5.626
 3098POPC   GL242098  16.029  22.532   5.660
 3098POPC   C1A42099  16.317  22.192   6.057
 3098POPC   D2A42100  16.385  22.150   6.533
 3098POPC   C3A42101  16.234  22.419   6.904
 3098POPC   C4A42102  16.209  22.157   7.307
 3098POPC   C1B42103  15.840  22.428   6.083
 3098POPC   C2B42104  15.832  22.099   6.437
 3098POPC   C3B42105  15.934  22.017   6.886
 3098POPC   C4B42106  15.771  21.917   7.300
 3099POPC   NC342107  37.624  39.642   5.403
 3099POPC   PO442108  37.897  38.942   5.399
 3099POPC   GL142109  37.708  39.058   5.793
 3099POPC   GL242110  37.526  39.369   5.827
 3099POPC   C1A42111  37.629  39.047   6.231
 3099POPC   D2A42112  37.491  38.950   6.610
 3099POPC   C3A42113  37.641  39.196   6.910
 3099POPC   C4A42114  37.636  38.939   7.259
 3099POPC   C1B42115  37.910  39.444   6.117
 3099POPC   C2B42116  37.923  39.551   6.561
 3099POPC   C3B42117  38.024  39.558   6.999
 3099POPC   C4B42118  37.841  39.399   7.365
 3100POPC   NC342119  24.853  40.391   5.340
 3100POPC   PO442120  25.525  40.394   5.501
 3100POPC   GL142121  25.314  40.577   5.888
 3100POPC   GL242122  25.246  40.939   5.920
 3100POPC   C1A42123  25.321  40.660   6.355
 3100POPC   D2A42124  25.118  40.769   6.742
 3100POPC   C3A42125  25.357  40.916   7.086
 3100POPC   C4A42126  25.411  40.619   7.388
 3100POPC   C1B42127  24.895  40.949   6.238
 3100POPC   C2B42128  24.737  41.088   6.659
 3100POPC   C3B42129  24.842  41.038   7.115
 3100POPC   C4B42130  24.709  41.175   7.532
 3101POPC   NC342131   6.275  20.882   5.527
 3101POPC   PO442132   6.750  20.535   5.345
 3101POPC   GL142133   6.759  20.723   5.740
 3101POPC   GL242134   6.468  20.559   5.909
 3101POPC   C1A42135   6.894  20.693   6.182
 3101POPC   D2A42136   6.728  20.523   6.565
 3101POPC   C3A42137   6.990  20.565   6.930
 3101POPC   C4A42138   6.859  20.865   7.226
 3101POPC   C1B42139   6.186  20.364   6.238
 3101POPC   C2B42140   6.317  20.228   6.662
 3101POPC   C3B42141   6.429  20.507   7.009
 3101POPC   C4B42142   6.281  20.328   7.385
 3102POPC   NC342143  24.342  15.331   5.167
 3102POPC   PO442144  24.874  14.904   5.384
 3102POPC   GL142145  24.588  15.017   5.744
 3102POPC   GL242146  24.278  15.246   5.752
 3102POPC   C1A42147  24.511  14.929   6.207
 3102POPC   D2A42148  24.346  14.845   6.611
 3102POPC   C3A42149  24.519  15.100   6.931
 3102POPC   C4A42150  24.550  15.276   7.313
 3102POPC   C1B42151  24.069  15.171   6.196
 3102POPC   C2B42152  24.158  15.320   6.636
 3102POPC   C3B42153  24.060  15.309   7.099
 3102POPC   C4B42154  24.146  15.442   7.557
 3103POPC   NC342155  24.882  20.046   5.516
 3103POPC   PO442156  25.546  19.660   5.460
 3103POPC   GL142157  25.245  19.770   5.736
 3103POPC   GL242158  25.096  19.460   5.775
 3103POPC   C1A42159  25.165  19.963   6.127
 3103POPC   D2A42160  25.517  19.956   6.431
 3103POPC   C3A42161  25.427  19.971   6.877
 3103POPC   C4A42162  25.197  19.987   7.254
 3103POPC   C1B42163  25.326  19.476   6.191
 3103POPC   C2B42164  25.460  19.497   6.635
 3103POPC   C3B42165  25.276  19.482   7.026
 3103POPC   C4B42166  25.506  19.334   7.372
 3104POPC   NC342167  39.662  32.457   5.446
 3104POPC   PO442168  39.087  32.153   5.403
 3104POPC   GL142169  38.952  32.167   5.788
 3104POPC   GL242170  38.874  31.837   5.896
 3104POPC   C1A42171  39.211  32.281   6.149
 3104POPC   D2A42172  39.351  32.178   6.573
 3104POPC   C3A42173  39.186  32.314   6.959
 3104POPC   C4A42174  39.419  32.351   7.346
 3104POPC   C1B42175  38.994  31.846   6.325
 3104POPC   C2B42176  38.986  31.854   6.776
 3104POPC   C3B42177  38.959  31.905   7.213
 3104POPC   C4B42178  39.141  31.980   7.621
 3105POPC   NC342179  27.406  12.472   5.273
 3105POPC   PO442180  27.450  13.087   5.184
 3105POPC   GL142181  27.561  12.988   5.670
 3105POPC   GL242182  27.475  12.658   5.725
 3105POPC   C1A42183  27.715  13.046   6.142
 3105POPC   D2A42184  27.803  12.945   6.595
 3105POPC   C3A42185  27.554  13.094   6.936
 3105POPC   C4A42186  27.566  13.088   7.372
 3105POPC   C1B42187  27.725  12.537   6.054
 3105POPC   C2B42188  27.594  12.493   6.453
 3105POPC   C3B42189  27.460  12.581   6.857
 3105POPC   C4B42190  27.719  12.635   7.217
 3106POPC   NC342191  12.422  17.745   5.317
 3106POPC   PO442192  12.032  17.190   5.337
 3106POPC   GL142193  12.242  17.404   5.661
 3106POPC   GL242194  12.051  17.688   5.769
 3106POPC   C1A42195  12.229  17.352   6.095
 3106POPC   D2A42196  12.033  17.177   6.453
 3106POPC   C3A42197  12.173  17.219   6.872
 3106POPC   C4A42198  11.909  17.495   7.102
 3106POPC   C1B42199  12.026  17.792   6.251
 3106POPC   C2B42200  12.078  17.763   6.715
 3106POPC   C3B42201  12.087  17.997   7.144
 3106POPC   C4B42202  12.117  18.204   7.561
 3107POPC   NC342203  29.341  26.824   5.372
 3107POPC   PO442204  29.513  27.464   5.407
 3107POPC   GL142205  29.395  27.160   5.794
 3107POPC   GL242206  29.219  26.836   5.850
 3107POPC   C1A42207  29.248  27.199   6.249
 3107POPC   D2A42208  29.235  27.419   6.684
 3107POPC   C3A42209  29.181  27.136   7.059
 3107POPC   C4A42210  28.808  26.978   7.261
 3107POPC   C1B42211  29.374  26.683   6.205
 3107POPC   C2B42212  29.358  26.839   6.623
 3107POPC   C3B42213  29.330  26.647   7.016
 3107POPC   C4B42214  28.987  26.465   7.240
 3108POPC   NC342215  31.605  11.971   5.198
 3108POPC   PO442216  31.344  12.604   5.181
 3108POPC   GL142217  31.486  12.322   5.583
 3108POPC   GL242218  31.439  11.936   5.688
 3108POPC   C1A42219  31.625  12.275   6.045
 3108POPC   D2A42220  31.407  12.157   6.472
 3108POPC   C3A42221  31.529  12.071   6.916
 3108POPC   C4A42222  31.431  12.362   7.243
 3108POPC   C1B42223  31.612  11.765   6.092
 3108POPC   C2B42224  31.746  11.786   6.529
 3108POPC   C3B42225  31.770  11.599   6.955
 3108POPC   C4B42226  31.891  11.768   7.369
 3109POPC   NC342227  40.010  42.685   5.410
 3109POPC   PO442228  40.299  42.118   5.408
 3109POPC   GL142229  39.970  42.164   5.771
 3109POPC   GL242230  39.662  42.424   5.724
 3109POPC   C1A42231  40.008  42.101   6.235
 3109POPC   D2A42232  40.189  42.159   6.635
 3109POPC   C3A42233  40.039  41.972   7.027
 3109POPC   C4A42234  40.306  42.156   7.320
 3109POPC   C1B42235  39.853  42.570   6.086
 3109POPC   C2B42236  39.955  42.603   6.526
 3109POPC   C3B42237  39.938  42.482   6.991
 3109POPC   C4B42238  39.709  42.680   7.328
 3110POPC   NC342239  36.711   5.014   5.467
 3110POPC   PO442240  37.266   5.312   5.365
 3110POPC   GL142241  37.071   5.292   5.776
 3110POPC   GL242242  36.735   5.477   5.731
 3110POPC   C1A42243  37.085   4.986   6.118
 3110POPC   D2A42244  36.862   4.984   6.535
 3110POPC   C3A42245  37.051   4.899   6.940
 3110POPC   C4A42246  36.817   4.956   7.336
 3110POPC   C1B42247  36.691   5.308   6.152
 3110POPC   C2B42248  36.699   5.490   6.575
 3110POPC   C3B42249  36.670   5.331   7.015
 3110POPC   C4B42250  36.750   5.451   7.472
 3111POPC   NC342251  25.009  28.187   5.564
 3111POPC   PO442252  25.369  28.700   5.360
 3111POPC   GL142253  25.368  28.539   5.776
 3111POPC   GL242254  25.039  28.645   5.810
 3111POPC   C1A42255  25.283  28.384   6.203
 3111POPC   D2A42256  25.350  28.406   6.656
 3111POPC   C3A42257  25.209  28.110   6.978
 3111POPC   C4A42258  25.199  28.077   7.431
 3111POPC   C1B42259  24.756  28.792   6.104
 3111POPC   C2B42260  24.915  28.650   6.466
 3111POPC   C3B42261  24.925  28.664   6.878
 3111POPC   C4B42262  24.827  28.389   7.214
 3112POPC   NC342263  40.523  11.801   5.490
 3112POPC   PO442264  40.898  12.426   5.346
 3112POPC   GL142265  40.711  12.239   5.714
 3112POPC   GL242266  40.940  11.955   5.747
 3112POPC   C1A42267  40.635  12.070   6.151
 3112POPC   D2A42268  40.856  11.986   6.554
 3112POPC   C3A42269  40.557  12.000   6.867
 3112POPC   C4A42270  40.613  12.074   7.263
 3112POPC   C1B42271  40.942  11.676   6.084
 3112POPC   C2B42272  40.656  11.554   6.385
 3112POPC   C3B42273  40.747  11.528   6.813
 3112POPC   C4B42274  40.853  11.629   7.236
 3113POPC   NC342275  10.478  19.745   4.759
 3113POPC   PO442276  10.360  19.807   5.426
 3113POPC   GL142277  10.359  19.585   5.776
 3113POPC   GL242278  10.651  19.711   5.881
 3113POPC   C1A42279  10.245  19.649   6.202
 3113POPC   D2A42280  10.562  19.592   6.519
 3113POPC   C3A42281  10.477  19.617   6.931
 3113POPC   C4A42282  10.430  19.837   7.287
 3113POPC   C1B42283  10.612  20.015   6.230
 3113POPC   C2B42284  10.806  20.013   6.649
 3113POPC   C3B42285  10.552  20.182   6.936
 3113POPC   C4B42286  10.569  20.400   7.339
 3114POPC   NC342287  17.240   5.974   5.365
 3114POPC   PO442288  17.878   5.824   5.547
 3114POPC   GL142289  17.687   5.922   5.908
 3114POPC   GL242290  17.700   6.249   5.868
 3114POPC   C1A42291  17.431   5.813   6.254
 3114POPC   D2A42292  17.448   5.522   6.612
 3114POPC   C3A42293  17.256   5.603   7.020
 3114POPC   C4A42294  17.425   5.731   7.428
 3114POPC   C1B42295  17.775   6.276   6.306
 3114POPC   C2B42296  17.704   5.983   6.649
 3114POPC   C3B42297  17.464   6.060   7.024
 3114POPC   C4B42298  17.591   6.247   7.404
 3115POPC   NC342299  39.029  34.026   5.720
 3115POPC   PO442300  39.393  34.423   5.247
 3115POPC   GL142301  39.271  34.492   5.697
 3115POPC   GL242302  39.004  34.744   5.783
 3115POPC   C1A42303  39.300  34.522   6.158
 3115POPC   D2A42304  39.528  34.438   6.533
 3115POPC   C3A42305  39.597  34.673   6.895
 3115POPC   C4A42306  39.468  34.557   7.322
 3115POPC   C1B42307  38.800  34.649   6.183
 3115POPC   C2B42308  38.586  34.610   6.582
 3115POPC   C3B42309  38.723  34.529   7.010
 3115POPC   C4B42310  38.981  34.550   7.372
 3116POPC   NC342311   2.841  17.603   5.477
 3116POPC   PO442312   2.192  17.420   5.415
 3116POPC   GL142313   2.458  17.313   5.727
 3116POPC   GL242314   2.403  17.607   5.951
 3116POPC   C1A42315   2.664  17.212   6.123
 3116POPC   D2A42316   2.473  17.402   6.491
 3116POPC   C3A42317   2.668  17.454   6.912
 3116POPC   C4A42318   2.836  17.345   7.338
 3116POPC   C1B42319   2.820  17.728   6.156
 3116POPC   C2B42320   3.081  17.971   6.463
 3116POPC   C3B42321   3.081  17.813   6.870
 3116POPC   C4B42322   2.813  17.830   7.223
 3117POPC   NC342323  19.824  16.118   5.271
 3117POPC   PO442324  19.761  16.781   5.102
 3117POPC   GL142325  19.700  16.657   5.566
 3117POPC   GL242326  19.966  16.497   5.715
 3117POPC   C1A42327  19.638  16.764   6.033
 3117POPC   D2A42328  19.428  16.859   6.447
 3117POPC   C3A42329  19.610  16.815   6.867
 3117POPC   C4A42330  19.876  16.706   7.220
 3117POPC   C1B42331  20.019  16.376   6.142
 3117POPC   C2B42332  19.938  16.514   6.563
 3117POPC   C3B42333  20.185  16.366   6.931
 3117POPC   C4B42334  20.168  16.312   7.383
 3118POPC   NC342335  35.799  23.231   5.323
 3118POPC   PO442336  35.361  23.799   5.405
 3118POPC   GL142337  35.298  23.669   5.805
 3118POPC   GL242338  35.681  23.611   5.775
 3118POPC   C1A42339  35.122  23.692   6.248
 3118POPC   D2A42340  35.342  23.885   6.602
 3118POPC   C3A42341  35.173  23.877   7.011
 3118POPC   C4A42342  34.959  23.632   7.290
 3118POPC   C1B42343  35.646  23.821   6.176
 3118POPC   C2B42344  35.854  23.787   6.577
 3118POPC   C3B42345  35.621  23.644   6.949
 3118POPC   C4B42346  35.695  23.987   7.146
 3119POPC   NC342347  40.127   9.211   5.365
 3119POPC   PO442348  39.772   8.607   5.377
 3119POPC   GL142349  39.858   8.888   5.776
 3119POPC   GL242350  39.867   9.263   5.832
 3119POPC   C1A42351  39.939   8.928   6.240
 3119POPC   D2A42352  40.084   9.102   6.637
 3119POPC   C3A42353  40.231   8.847   6.985
 3119POPC   C4A42354  40.456   9.056   7.316
 3119POPC   C1B42355  39.538   9.220   6.155
 3119POPC   C2B42356  39.529   9.062   6.588
 3119POPC   C3B42357  39.717   8.974   6.987
 3119POPC   C4B42358  40.026   9.302   7.120
 3120POPC   NC342359  28.829  24.796   5.307
 3120POPC   PO442360  29.278  25.428   5.444
 3120POPC   GL142361  29.137  25.115   5.711
 3120POPC   GL242362  28.771  25.109   5.723
 3120POPC   C1A42363  29.248  25.145   6.143
 3120POPC   D2A42364  29.362  25.376   6.518
 3120POPC   C3A42365  29.484  25.146   6.864
 3120POPC   C4A42366  29.344  25.060   7.268
 3120POPC   C1B42367  28.713  25.057   6.176
 3120POPC   C2B42368  28.969  25.041   6.567
 3120POPC   C3B42369  28.914  25.062   6.992
 3120POPC   C4B42370  28.955  24.708   7.271
 3121POPC   NC342371  12.685   6.161   5.262
 3121POPC   PO442372  13.056   5.538   5.083
 3121POPC   GL142373  12.845   5.633   5.558
 3121POPC   GL242374  12.881   5.968   5.696
 3121POPC   C1A42375  12.716   5.657   6.059
 3121POPC   D2A42376  12.613   5.883   6.468
 3121POPC   C3A42377  12.696   5.760   6.885
 3121POPC   C4A42378  12.539   5.490   7.191
 3121POPC   C1B42379  12.954   6.140   6.144
 3121POPC   C2B42380  13.042   6.120   6.619
 3121POPC   C3B42381  12.846   6.224   7.027
 3121POPC   C4B42382  12.992   6.200   7.432
 3122POPC   NC342383  10.253  42.991   5.394
 3122POPC   PO442384  10.262  43.629   5.649
 3122POPC   GL142385  10.482  43.298   5.873
 3122POPC   GL242386  10.459  42.923   5.841
 3122POPC   C1A42387  10.447  43.126   6.298
 3122POPC   D2A42388  10.180  43.020   6.633
 3122POPC   C3A42389  10.360  43.152   7.011
 3122POPC   C4A42390  10.433  43.559   7.235
 3122POPC   C1B42391  10.625  42.646   6.161
 3122POPC   C2B42392  10.681  42.753   6.600
 3122POPC   C3B42393  10.791  42.658   7.011
 3122POPC   C4B42394  10.530  42.780   7.332
 3123POPC   NC342395  27.570   5.407   5.500
 3123POPC   PO442396  27.813   6.032   5.312
 3123POPC   GL142397  27.739   5.947   5.769
 3123POPC   GL242398  27.459   6.185   5.832
 3123POPC   C1A42399  27.967   5.776   6.173
 3123POPC   D2A42400  27.873   5.879   6.615
 3123POPC   C3A42401  27.694   5.663   6.967
 3123POPC   C4A42402  27.293   5.825   7.131
 3123POPC   C1B42403  27.701   6.239   6.241
 3123POPC   C2B42404  27.612   6.350   6.690
 3123POPC   C3B42405  27.717   6.173   7.093
 3123POPC   C4B42406  27.574   6.169   7.532
 3124POPC   NC342407  37.049  14.041   5.124
 3124POPC   PO442408  36.824  14.591   5.451
 3124POPC   GL142409  36.937  14.413   5.835
 3124POPC   GL242410  37.052  14.688   5.994
 3124POPC   C1A42411  36.831  14.314   6.274
 3124POPC   D2A42412  36.740  14.644   6.598
 3124POPC   C3A42413  36.731  14.488   7.021
 3124POPC   C4A42414  36.847  14.079   7.238
 3124POPC   C1B42415  37.447  14.699   6.251
 3124POPC   C2B42416  37.553  14.720   6.678
 3124POPC   C3B42417  37.204  14.710   6.924
 3124POPC   C4B42418  37.165  14.573   7.297
 3125POPC   NC342419   6.221  12.352   5.607
 3125POPC   PO442420   5.729  12.797   5.340
 3125POPC   GL142421   5.894  12.781   5.771
 3125POPC   GL242422   5.833  13.134   5.754
 3125POPC   C1A42423   5.924  12.629   6.247
 3125POPC   D2A42424   5.797  12.825   6.652
 3125POPC   C3A42425   5.995  12.874   7.063
 3125POPC   C4A42426   5.948  12.833   7.544
 3125POPC   C1B42427   5.657  13.061   6.154
 3125POPC   C2B42428   5.496  13.217   6.521
 3125POPC   C3B42429   5.607  13.236   6.918
 3125POPC   C4B42430   5.555  13.056   7.285
 3126POPC   NC342431  10.520   5.706   5.371
 3126POPC   PO442432  10.665   6.403   5.478
 3126POPC   GL142433  10.547   6.054   5.813
 3126POPC   GL242434  10.449   5.676   5.858
 3126POPC   C1A42435  10.639   5.918   6.270
 3126POPC   D2A42436  10.581   5.680   6.668
 3126POPC   C3A42437  10.680   5.861   7.089
 3126POPC   C4A42438  10.492   6.059   7.474
 3126POPC   C1B42439  10.193   5.537   6.200
 3126POPC   C2B42440  10.089   5.525   6.627
 3126POPC   C3B42441  10.162   5.725   7.062
 3126POPC   C4B42442  10.075   5.779   7.536
 3127POPC   NC342443  12.753  37.070   5.486
 3127POPC   PO442444  12.025  36.951   5.323
 3127POPC   GL142445  11.956  37.064   5.759
 3127POPC   GL242446  12.305  37.144   5.796
 3127POPC   C1A42447  11.793  36.941   6.169
 3127POPC   D2A42448  11.681  37.073   6.593
 3127POPC   C3A42449  11.959  36.860   6.862
 3127POPC   C4A42450  12.179  36.714   7.205
 3127POPC   C1B42451  12.316  37.050   6.246
 3127POPC   C2B42452  12.463  36.993   6.685
 3127POPC   C3B42453  12.461  37.120   7.119
 3127POPC   C4B42454  12.378  37.017   7.586
 3128POPC   NC342455   7.200  36.384   5.349
 3128POPC   PO442456   7.773  36.408   5.740
 3128POPC   GL142457   7.456  36.193   5.954
 3128POPC   GL242458   7.167  36.371   5.860
 3128POPC   C1A42459   7.343  36.000   6.354
 3128POPC   D2A42460   7.119  35.924   6.747
 3128POPC   C3A42461   7.391  36.077   7.073
 3128POPC   C4A42462   7.729  35.832   7.164
 3128POPC   C1B42463   7.215  36.543   6.273
 3128POPC   C2B42464   7.132  36.442   6.694
 3128POPC   C3B42465   7.282  36.580   7.092
 3128POPC   C4B42466   7.662  36.658   7.294
 3129POPC   NC342467  26.604   8.757   5.465
 3129POPC   PO442468  27.063   9.297   5.517
 3129POPC   GL142469  26.879   9.198   5.894
 3129POPC   GL242470  26.539   9.104   5.827
 3129POPC   C1A42471  27.030   9.136   6.323
 3129POPC   D2A42472  26.843   9.201   6.713
 3129POPC   C3A42473  26.906   9.010   7.112
 3129POPC   C4A42474  26.784   9.326   7.403
 3129POPC   C1B42475  26.558   8.938   6.247
 3129POPC   C2B42476  26.357   9.082   6.598
 3129POPC   C3B42477  26.426   9.193   7.031
 3129POPC   C4B42478  26.453   8.943   7.431
 3130POPC   NC342479  17.511   7.015   5.454
 3130POPC   PO442480  17.505   6.348   5.385
 3130POPC   GL142481  17.318   6.586   5.718
 3130POPC   GL242482  17.615   6.746   5.866
 3130POPC   C1A42483  17.264   6.414   6.128
 3130POPC   D2A42484  17.281   6.231   6.527
 3130POPC   C3A42485  17.571   6.483   6.757
 3130POPC   C4A42486  17.449   6.684   7.116
 3130POPC   C1B42487  17.821   6.810   6.253
 3130POPC   C2B42488  18.033   6.656   6.596
 3130POPC   C3B42489  17.946   6.779   6.993
 3130POPC   C4B42490  17.845   6.707   7.405
 3131POPC   NC342491  23.946   3.531   5.512
 3131POPC   PO442492  23.399   3.171   5.393
 3131POPC   GL142493  23.492   3.412   5.796
 3131POPC   GL242494  23.471   3.764   5.867
 3131POPC   C1A42495  23.766   3.484   6.178
 3131POPC   D2A42496  24.010   3.522   6.562
 3131POPC   C3A42497  23.713   3.484   6.907
 3131POPC   C4A42498  23.756   3.465   7.346
 3131POPC   C1B42499  23.583   3.967   6.264
 3131POPC   C2B42500  23.755   3.948   6.691
 3131POPC   C3B42501  23.521   3.951   7.075
 3131POPC   C4B42502  23.333   3.838   7.473
 3132POPC   NC342503  14.310  17.470   5.165
 3132POPC   PO442504  14.957  17.562   5.433
 3132POPC   GL142505  14.573  17.574   5.783
 3132POPC   GL242506  14.206  17.612   5.794
 3132POPC   C1A42507  14.413  17.473   6.237
 3132POPC   D2A42508  14.311  17.283   6.651
 3132POPC   C3A42509  14.512  17.357   7.044
 3132POPC   C4A42510  14.387  17.336   7.461
 3132POPC   C1B42511  14.074  17.882   6.176
 3132POPC   C2B42512  14.033  17.784   6.612
 3132POPC   C3B42513  14.343  17.858   6.944
 3132POPC   C4B42514  14.693  17.780   7.250
 3133POPC   NC342515  12.375   5.421   5.477
 3133POPC   PO442516  11.786   5.093   5.699
 3133POPC   GL142517  12.207   5.103   5.848
 3133POPC   GL242518  12.330   4.755   5.821
 3133POPC   C1A42519  12.356   5.303   6.233
 3133POPC   D2A42520  12.519   5.293   6.659
 3133POPC   C3A42521  12.186   5.210   6.939
 3133POPC   C4A42522  11.778   5.003   7.090
 3133POPC   C1B42523  12.137   4.804   6.250
 3133POPC   C2B42524  11.998   4.782   6.676
 3133POPC   C3B42525  12.182   4.713   7.070
 3133POPC   C4B42526  12.271   4.667   7.498
 3134POPC   NC342527  16.037  25.606   5.384
 3134POPC   PO442528  15.746  24.999   5.252
 3134POPC   GL142529  15.681  25.089   5.716
 3134POPC   GL242530  15.674  25.450   5.739
 3134POPC   C1A42531  15.754  25.077   6.205
 3134POPC   D2A42532  15.628  24.940   6.674
 3134POPC   C3A42533  15.903  25.091   7.027
 3134POPC   C4A42534  16.274  25.214   7.302
 3134POPC   C1B42535  15.525  25.529   6.154
 3134POPC   C2B42536  15.611  25.466   6.609
 3134POPC   C3B42537  15.875  25.605   6.948
 3134POPC   C4B42538  15.856  25.500   7.370
 3135POPC   NC342539  34.456   3.776   5.308
 3135POPC   PO442540  34.245   3.103   5.406
 3135POPC   GL142541  34.308   3.442   5.686
 3135POPC   GL242542  34.650   3.392   5.777
 3135POPC   C1A42543  34.371   3.672   6.084
 3135POPC   D2A42544  34.195   3.702   6.492
 3135POPC   C3A42545  34.439   3.857   6.821
 3135POPC   C4A42546  34.420   3.694   7.227
 3135POPC   C1B42547  34.827   3.486   6.201
 3135POPC   C2B42548  34.874   3.629   6.628
 3135POPC   C3B42549  34.768   3.403   6.989
 3135POPC   C4B42550  34.910   3.275   7.417
 3136POPC   NC342551  26.743   1.081   5.282
 3136POPC   PO442552  27.282   1.400   5.462
 3136POPC   GL142553  27.174   1.132   5.803
 3136POPC   GL242554  26.808   1.160   5.808
 3136POPC   C1A42555  27.097   1.039   6.233
 3136POPC   D2A42556  26.853   1.280   6.527
 3136POPC   C3A42557  26.907   1.231   6.981
 3136POPC   C4A42558  27.124   0.940   7.256
 3136POPC   C1B42559  26.746   1.541   6.034
 3136POPC   C2B42560  26.740   1.776   6.408
 3136POPC   C3B42561  26.592   1.628   6.809
 3136POPC   C4B42562  26.460   1.447   7.198
 3137POPC   NC342563  28.053   7.600   5.294
 3137POPC   PO442564  27.727   7.028   5.358
 3137POPC   GL142565  27.823   7.148   5.757
 3137POPC   GL242566  27.725   7.492   5.817
 3137POPC   C1A42567  27.694   7.152   6.187
 3137POPC   D2A42568  27.786   7.270   6.595
 3137POPC   C3A42569  27.460   7.239   6.932
 3137POPC   C4A42570  27.442   6.973   7.295
 3137POPC   C1B42571  27.779   7.719   6.222
 3137POPC   C2B42572  27.950   7.760   6.650
 3137POPC   C3B42573  27.856   7.716   7.090
 3137POPC   C4B42574  27.583   7.518   7.405
 3138POPC   NC342575   6.098  40.936   5.594
 3138POPC   PO442576   5.671  40.458   5.748
 3138POPC   GL142577   5.475  40.706   6.024
 3138POPC   GL242578   5.744  40.943   6.025
 3138POPC   C1A42579   5.646  40.561   6.429
 3138POPC   D2A42580   6.010  40.361   6.602
 3138POPC   C3A42581   6.072  40.559   6.989
 3138POPC   C4A42582   5.704  40.620   7.261
 3138POPC   C1B42583   5.587  41.061   6.425
 3138POPC   C2B42584   5.585  40.931   6.859
 3138POPC   C3B42585   5.732  41.210   7.218
 3138POPC   C4B42586   5.596  41.249   7.650
 3139POPC   NC342587  39.820  10.889   5.512
 3139POPC   PO442588  40.196  10.533   5.152
 3139POPC   GL142589  40.160  10.521   5.668
 3139POPC   GL242590  40.358  10.790   5.810
 3139POPC   C1A42591  39.982  10.348   6.085
 3139POPC   D2A42592  39.836  10.545   6.509
 3139POPC   C3A42593  39.926  10.317   6.898
 3139POPC   C4A42594  40.056  10.247   7.328
 3139POPC   C1B42595  40.281  10.701   6.270
 3139POPC   C2B42596  40.384  10.576   6.697
 3139POPC   C3B42597  40.292  10.643   7.130
 3139POPC   C4B42598  40.298  10.601   7.598
 3140POPC   NC342599  26.243  22.372   5.487
 3140POPC   PO442600  25.708  22.014   5.328
 3140POPC   GL142601  25.844  22.160   5.743
 3140POPC   GL242602  25.923  21.851   5.802
 3140POPC   C1A42603  25.979  22.232   6.185
 3140POPC   D2A42604  25.834  22.194   6.609
 3140POPC   C3A42605  25.974  22.114   7.017
 3140POPC   C4A42606  25.745  22.075   7.404
 3140POPC   C1B42607  26.097  21.722   6.200
 3140POPC   C2B42608  26.294  21.949   6.538
 3140POPC   C3B42609  26.435  21.860   6.954
 3140POPC   C4B42610  26.245  21.824   7.373
 3141POPC   NC342611  27.424   7.377   5.425
 3141POPC   PO442612  26.702   7.374   5.440
 3141POPC   GL142613  26.734   7.300   5.869
 3141POPC   GL242614  26.409   7.129   5.950
 3141POPC   C1A42615  27.037   7.338   6.252
 3141POPC   D2A42616  26.965   7.115   6.657
 3141POPC   C3A42617  26.871   7.432   6.987
 3141POPC   C4A42618  27.222   7.705   7.102
 3141POPC   C1B42619  26.535   7.388   6.329
 3141POPC   C2B42620  26.364   7.529   6.721
 3141POPC   C3B42621  26.370   7.261   7.087
 3141POPC   C4B42622  26.595   7.287   7.434
 3142POPC   NC342623  44.540   0.022   5.517
 3142POPC   PO442624  44.755   0.687   5.401
 3142POPC   GL142625  44.705   0.469   5.749
 3142POPC   GL242626  44.504   0.726   5.874
 3142POPC   C1A42627  44.830   0.436   6.175
 3142POPC   D2A42628  44.904   0.264   6.572
 3142POPC   C3A42629  44.830   0.485   6.930
 3142POPC   C4A42630  44.683   0.332   7.324
 3142POPC   C1B42631  44.331   0.366   6.112
 3142POPC   C2B42632  44.440   0.471   6.527
 3142POPC   C3B42633  44.356   0.305   6.909
 3142POPC   C4B42634  44.211   0.471   7.253
 3143POPC   NC342635  37.894  37.727   5.363
 3143POPC   PO442636  37.317  37.289   5.511
 3143POPC   GL142637  37.606  37.506   5.746
 3143POPC   GL242638  37.492  37.781   5.925
 3143POPC   C1A42639  37.738  37.431   6.171
 3143POPC   D2A42640  37.574  37.602   6.545
 3143POPC   C3A42641  37.816  37.590   6.917
 3143POPC   C4A42642  37.964  37.325   7.244
 3143POPC   C1B42643  37.209  37.919   6.263
 3143POPC   C2B42644  37.251  37.979   6.702
 3143POPC   C3B42645  37.295  37.955   7.137
 3143POPC   C4B42646  37.585  37.703   7.340
 3144POPC   NC342647   7.117  10.062   5.455
 3144POPC   PO442648   7.723   9.655   5.446
 3144POPC   GL142649   7.420   9.735   5.750
 3144POPC   GL242650   7.117   9.554   5.771
 3144POPC   C1A42651   7.419   9.818   6.190
 3144POPC   D2A42652   7.703   9.900   6.532
 3144POPC   C3A42653   7.466   9.811   6.895
 3144POPC   C4A42654   7.524   9.638   7.260
 3144POPC   C1B42655   7.127   9.383   6.178
 3144POPC   C2B42656   7.304   9.416   6.609
 3144POPC   C3B42657   7.108   9.431   7.049
 3144POPC   C4B42658   7.016   9.437   7.522
 3145POPC   NC342659  42.605  27.363   5.314
 3145POPC   PO442660  42.202  27.966   5.328
 3145POPC   GL142661  42.248  27.646   5.644
 3145POPC   GL242662  42.585  27.658   5.734
 3145POPC   C1A42663  42.148  27.595   6.093
 3145POPC   D2A42664  42.229  27.551   6.546
 3145POPC   C3A42665  42.210  27.864   6.879
 3145POPC   C4A42666  42.321  27.728   7.292
 3145POPC   C1B42667  42.683  27.399   6.085
 3145POPC   C2B42668  42.724  27.405   6.536
 3145POPC   C3B42669  42.656  27.563   6.948
 3145POPC   C4B42670  42.819  27.572   7.373
 3146POPC   NC342671  20.784  13.553   5.353
 3146POPC   PO442672  20.230  13.991   5.325
 3146POPC   GL142673  20.490  13.822   5.700
 3146POPC   GL242674  20.438  13.480   5.749
 3146POPC   C1A42675  20.681  13.684   6.128
 3146POPC   D2A42676  20.902  13.848   6.456
 3146POPC   C3A42677  20.782  13.700   6.847
 3146POPC   C4A42678  20.692  13.624   7.256
 3146POPC   C1B42679  20.279  13.353   6.136
 3146POPC   C2B42680  20.392  13.497   6.533
 3146POPC   C3B42681  20.405  13.339   6.924
 3146POPC   C4B42682  20.217  13.366   7.309
 3147POPC   NC342683  31.595   6.406   5.281
 3147POPC   PO442684  31.342   5.791   5.172
 3147POPC   GL142685  31.456   5.820   5.675
 3147POPC   GL242686  31.329   6.130   5.823
 3147POPC   C1A42687  31.531   5.740   6.163
 3147POPC   D2A42688  31.745   5.582   6.549
 3147POPC   C3A42689  31.736   5.802   6.953
 3147POPC   C4A42690  31.537   5.764   7.362
 3147POPC   C1B42691  31.353   6.214   6.262
 3147POPC   C2B42692  31.343   5.967   6.628
 3147POPC   C3B42693  31.246   6.053   7.041
 3147POPC   C4B42694  30.986   6.397   7.187
 3148POPC   NC342695  37.478  42.710   5.412
 3148POPC   PO442696  38.054  43.001   5.458
 3148POPC   GL142697  37.773  43.188   5.771
 3148POPC   GL242698  37.559  42.909   5.888
 3148POPC   C1A42699  37.754  43.300   6.223
 3148POPC   D2A42700  37.654  43.085   6.610
 3148POPC   C3A42701  37.639  43.288   6.998
 3148POPC   C4A42702  37.351  43.018   7.191
 3148POPC   C1B42703  37.825  42.770   6.229
 3148POPC   C2B42704  37.820  42.580   6.654
 3148POPC   C3B42705  37.823  42.790   7.035
 3148POPC   C4B42706  37.864  43.010   7.406
 3149POPC   NC342707  22.103  22.273   5.203
 3149POPC   PO442708  21.633  21.806   5.446
 3149POPC   GL142709  21.941  22.026   5.696
 3149POPC   GL242710  21.857  22.381   5.706
 3149POPC   C1A42711  22.191  21.952   6.114
 3149POPC   D2A42712  22.402  21.896   6.539
 3149POPC   C3A42713  22.175  21.904   6.939
 3149POPC   C4A42714  21.818  21.875   7.269
 3149POPC   C1B42715  22.159  22.480   6.036
 3149POPC   C2B42716  22.394  22.417   6.438
 3149POPC   C3B42717  22.190  22.419   6.848
 3149POPC   C4B42718  22.090  22.304   7.273
 3150POPC   NC342719  27.141  25.679   5.425
 3150POPC   PO442720  26.854  26.250   5.453
 3150POPC   GL142721  26.851  26.084   5.847
 3150POPC   GL242722  26.478  26.082   5.832
 3150POPC   C1A42723  26.889  26.097   6.322
 3150POPC   D2A42724  27.179  26.052   6.688
 3150POPC   C3A42725  27.012  25.768   7.017
 3150POPC   C4A42726  27.040  25.777   7.472
 3150POPC   C1B42727  26.572  26.450   6.080
 3150POPC   C2B42728  26.569  26.454   6.516
 3150POPC   C3B42729  26.691  26.181   6.833
 3150POPC   C4B42730  26.696  26.113   7.261
 3151POPC   NC342731  10.885  40.402   5.139
 3151POPC   PO442732  10.477  40.788   5.370
 3151POPC   GL142733  10.486  40.618   5.799
 3151POPC   GL242734  10.654  40.311   5.763
 3151POPC   C1A42735  10.472  40.806   6.203
 3151POPC   D2A42736  10.363  40.669   6.586
 3151POPC   C3A42737  10.410  40.865   6.966
 3151POPC   C4A42738  10.064  40.982   7.188
 3151POPC   C1B42739  10.782  40.384   6.183
 3151POPC   C2B42740  10.851  40.546   6.595
 3151POPC   C3B42741  10.898  40.675   7.019
 3151POPC   C4B42742  10.806  40.456   7.400
 3152POPC   NC342743  38.592  16.181   5.609
 3152POPC   PO442744  38.177  16.387   5.075
 3152POPC   GL142745  38.281  16.582   5.560
 3152POPC   GL242746  38.673  16.685   5.654
 3152POPC   C1A42747  38.352  16.775   6.034
 3152POPC   D2A42748  38.527  16.879   6.475
 3152POPC   C3A42749  38.417  16.721   6.904
 3152POPC   C4A42750  38.252  16.817   7.309
 3152POPC   C1B42751  38.857  16.860   6.059
 3152POPC   C2B42752  39.008  16.996   6.457
 3152POPC   C3B42753  38.936  16.957   6.911
 3152POPC   C4B42754  38.789  16.803   7.327
 3153POPC   NC342755   2.705  28.722   5.101
 3153POPC   PO442756   3.053  28.259   5.404
 3153POPC   GL142757   3.015  28.171   5.856
 3153POPC   GL242758   2.733  28.268   6.001
 3153POPC   C1A42759   3.051  28.140   6.358
 3153POPC   D2A42760   2.809  28.498   6.592
 3153POPC   C3A42761   2.944  28.584   7.004
 3153POPC   C4A42762   3.078  28.689   7.417
 3153POPC   C1B42763   2.418  28.453   6.251
 3153POPC   C2B42764   2.278  28.621   6.637
 3153POPC   C3B42765   2.413  28.437   7.028
 3153POPC   C4B42766   2.702  28.266   7.332
 3154POPC   NC342767  29.288  30.197   5.452
 3154POPC   PO442768  28.814  30.649   5.362
 3154POPC   GL142769  28.980  30.583   5.728
 3154POPC   GL242770  29.283  30.780   5.621
 3154POPC   C1A42771  28.824  30.535   6.163
 3154POPC   D2A42772  28.784  30.622   6.611
 3154POPC   C3A42773  29.092  30.445   6.893
 3154POPC   C4A42774  29.234  30.482   7.309
 3154POPC   C1B42775  29.210  30.894   6.050
 3154POPC   C2B42776  29.296  30.758   6.451
 3154POPC   C3B42777  29.189  30.939   6.822
 3154POPC   C4B42778  29.046  30.967   7.204
 3155POPC   NC342779  34.695  41.348   5.398
 3155POPC   PO442780  34.591  42.042   5.406
 3155POPC   GL142781  34.672  41.718   5.772
 3155POPC   GL242782  34.602  41.358   5.910
 3155POPC   C1A42783  34.432  41.813   6.137
 3155POPC   D2A42784  34.253  41.957   6.522
 3155POPC   C3A42785  34.446  41.822   6.906
 3155POPC   C4A42786  34.216  41.821   7.289
 3155POPC   C1B42787  34.784  41.450   6.325
 3155POPC   C2B42788  34.798  41.463   6.784
 3155POPC   C3B42789  34.634  41.245   7.142
 3155POPC   C4B42790  34.528  41.250   7.609
 3156POPC   NC342791  43.942  38.158   5.455
 3156POPC   PO442792  43.488  38.639   5.300
 3156POPC   GL142793  43.619  38.545   5.738
 3156POPC   GL242794  43.537  38.227   5.786
 3156POPC   C1A42795  43.772  38.662   6.176
 3156POPC   D2A42796  44.110  38.700   6.501
 3156POPC   C3A42797  44.146  38.400   6.873
 3156POPC   C4A42798  44.066  38.427   7.335
 3156POPC   C1B42799  43.619  38.175   6.209
 3156POPC   C2B42800  43.666  38.400   6.607
 3156POPC   C3B42801  43.669  38.179   7.007
 3156POPC   C4B42802  43.669  38.132   7.443
 3157POPC   NC342803  44.846  16.794   5.423
 3157POPC   PO442804  44.418  17.309   5.476
 3157POPC   GL142805  44.642  17.063   5.840
 3157POPC   GL242806  44.678  16.683   5.883
 3157POPC   C1A42807  44.506  16.936   6.272
 3157POPC   D2A42808  44.576  17.043   6.679
 3157POPC   C3A42809  44.980  16.884   6.850
 3157POPC   C4A42810  44.912  16.578   7.175
 3157POPC   C1B42811  44.342  16.473   6.122
 3157POPC   C2B42812  44.410  16.336   6.532
 3157POPC   C3B42813  44.455  16.556   6.928
 3157POPC   C4B42814  44.369  16.533   7.340
 3158POPC   NC342815  10.116   2.374   5.619
 3158POPC   PO442816  10.410   1.838   5.265
 3158POPC   GL142817  10.544   2.029   5.683
 3158POPC   GL242818  10.859   2.241   5.750
 3158POPC   C1A42819  10.668   1.930   6.106
 3158POPC   D2A42820  10.514   2.126   6.468
 3158POPC   C3A42821  10.555   1.955   6.879
 3158POPC   C4A42822  10.464   1.793   7.291
 3158POPC   C1B42823  10.907   2.401   6.207
 3158POPC   C2B42824  11.027   2.627   6.575
 3158POPC   C3B42825  11.014   2.484   7.002
 3158POPC   C4B42826  10.806   2.167   7.282
 3159POPC   NC342827  14.303  37.459   5.147
 3159POPC   PO442828  14.428  36.793   5.268
 3159POPC   GL142829  14.281  36.879   5.717
 3159POPC   GL242830  14.292  36.600   5.968
 3159POPC   C1A42831  14.297  37.068   6.149
 3159POPC   D2A42832  14.541  37.073   6.523
 3159POPC   C3A42833  14.418  36.885   6.928
 3159POPC   C4A42834  14.553  37.052   7.345
 3159POPC   C1B42835  14.111  36.683   6.414
 3159POPC   C2B42836  13.903  36.651   6.809
 3159POPC   C3B42837  14.001  36.552   7.216
 3159POPC   C4B42838  14.446  36.562   7.353
 3160POPC   NC342839  21.227  31.819   5.499
 3160POPC   PO442840  21.275  31.205   5.555
 3160POPC   GL142841  21.601  31.408   5.774
 3160POPC   GL242842  21.594  31.786   5.885
 3160POPC   C1A42843  21.667  31.392   6.200
 3160POPC   D2A42844  21.640  31.665   6.539
 3160POPC   C3A42845  21.524  31.428   6.909
 3160POPC   C4A42846  21.574  31.265   7.320
 3160POPC   C1B42847  21.203  31.588   6.113
 3160POPC   C2B42848  20.989  31.686   6.479
 3160POPC   C3B42849  20.964  31.491   6.883
 3160POPC   C4B42850  21.168  31.569   7.252
 3161POPC   NC342851  17.515  19.468   5.391
 3161POPC   PO442852  17.150  18.959   5.146
 3161POPC   GL142853  17.479  18.974   5.582
 3161POPC   GL242854  17.690  19.187   5.766
 3161POPC   C1A42855  17.319  19.012   6.096
 3161POPC   D2A42856  17.182  18.813   6.538
 3161POPC   C3A42857  17.302  18.996   6.932
 3161POPC   C4A42858  17.411  19.270   7.302
 3161POPC   C1B42859  17.807  18.907   6.105
 3161POPC   C2B42860  17.663  19.070   6.515
 3161POPC   C3B42861  17.798  19.140   6.956
 3161POPC   C4B42862  17.922  18.763   7.204
 3162POPC   NC342863  44.029   1.440   5.246
 3162POPC   PO442864  43.765   0.826   5.384
 3162POPC   GL142865  43.834   1.202   5.679
 3162POPC   GL242866  43.549   1.324   5.871
 3162POPC   C1A42867  44.068   1.341   6.071
 3162POPC   D2A42868  44.073   1.218   6.550
 3162POPC   C3A42869  44.148   1.419   6.973
 3162POPC   C4A42870  43.927   1.323   7.373
 3162POPC   C1B42871  43.683   1.024   6.168
 3162POPC   C2B42872  43.588   1.012   6.586
 3162POPC   C3B42873  43.628   1.241   6.943
 3162POPC   C4B42874  43.446   1.150   7.320
 3163POPC   NC342875  35.084  30.458   5.411
 3163POPC   PO442876  35.488  31.005   5.413
 3163POPC   GL142877  35.260  30.851   5.751
 3163POPC   GL242878  35.370  30.526   5.821
 3163POPC   C1A42879  35.085  30.845   6.183
 3163POPC   D2A42880  34.886  30.962   6.593
 3163POPC   C3A42881  35.126  30.843   6.992
 3163POPC   C4A42882  35.543  30.839   7.211
 3163POPC   C1B42883  35.128  30.324   6.158
 3163POPC   C2B42884  35.281  30.251   6.591
 3163POPC   C3B42885  35.151  30.298   7.026
 3163POPC   C4B42886  35.432  30.245   7.385
 3164POPC   NC342887  21.965  27.689   5.141
 3164POPC   PO442888  21.343  27.747   5.424
 3164POPC   GL142889  21.622  27.663   5.743
 3164POPC   GL242890  21.527  27.391   5.913
 3164POPC   C1A42891  21.696  27.789   6.191
 3164POPC   D2A42892  21.529  27.772   6.630
 3164POPC   C3A42893  21.776  27.982   6.933
 3164POPC   C4A42894  21.631  28.135   7.323
 3164POPC   C1B42895  21.467  27.338   6.364
 3164POPC   C2B42896  21.096  27.453   6.617
 3164POPC   C3B42897  21.072  27.706   6.980
 3164POPC   C4B42898  21.428  27.697   7.181
 3165POPC   NC342899  23.667  19.374   5.642
 3165POPC   PO442900  23.483  20.006   5.408
 3165POPC   GL142901  23.588  20.022   5.818
 3165POPC   GL242902  23.887  19.818   5.882
 3165POPC   C1A42903  23.524  19.875   6.233
 3165POPC   D2A42904  23.732  19.569   6.468
 3165POPC   C3A42905  23.621  19.555   6.872
 3165POPC   C4A42906  23.573  19.544   7.286
 3165POPC   C1B42907  24.079  19.997   6.243
 3165POPC   C2B42908  23.901  20.030   6.653
 3165POPC   C3B42909  23.828  19.959   7.091
 3165POPC   C4B42910  24.029  19.755   7.419
 3166POPC   NC342911   5.006   9.409   5.478
 3166POPC   PO442912   5.319   8.785   5.339
 3166POPC   GL142913   5.290   9.023   5.687
 3166POPC   GL242914   4.934   8.955   5.752
 3166POPC   C1A42915   5.411   9.142   6.098
 3166POPC   D2A42916   5.614   9.006   6.475
 3166POPC   C3A42917   5.345   9.077   6.842
 3166POPC   C4A42918   5.058   9.166   7.176
 3166POPC   C1B42919   4.926   8.858   6.213
 3166POPC   C2B42920   4.858   8.699   6.669
 3166POPC   C3B42921   4.717   8.741   7.082
 3166POPC   C4B42922   4.552   9.125   7.235
 3167POPC   NC342923  36.460  12.702   5.591
 3167POPC   PO442924  37.109  12.734   5.450
 3167POPC   GL142925  36.892  12.816   5.852
 3167POPC   GL242926  36.729  13.146   5.799
 3167POPC   C1A42927  36.803  12.583   6.253
 3167POPC   D2A42928  36.698  12.492   6.692
 3167POPC   C3A42929  36.962  12.718   6.992
 3167POPC   C4A42930  36.854  12.818   7.432
 3167POPC   C1B42931  36.983  13.189   6.195
 3167POPC   C2B42932  36.845  13.019   6.585
 3167POPC   C3B42933  36.516  12.999   6.866
 3167POPC   C4B42934  36.541  13.206   7.241
 3168POPC   NC342935  24.888  30.585   5.283
 3168POPC   PO442936  25.413  30.862   5.237
 3168POPC   GL142937  25.332  30.578   5.705
 3168POPC   GL242938  24.949  30.523   5.797
 3168POPC   C1A42939  25.302  30.701   6.242
 3168POPC   D2A42940  25.120  30.843   6.699
 3168POPC   C3A42941  25.318  30.779   7.143
 3168POPC   C4A42942  25.480  30.856   7.571
 3168POPC   C1B42943  25.128  30.255   6.097
 3168POPC   C2B42944  25.255  30.220   6.515
 3168POPC   C3B42945  25.333  30.288   6.943
 3168POPC   C4B42946  25.129  30.336   7.348
 3169POPC   NC342947  15.702  28.585   5.177
 3169POPC   PO442948  15.130  28.258   5.494
 3169POPC   GL142949  15.310  28.235   5.869
 3169POPC   GL242950  15.136  28.563   5.964
 3169POPC   C1A42951  15.279  28.199   6.290
 3169POPC   D2A42952  15.104  28.492   6.531
 3169POPC   C3A42953  15.137  28.274   6.897
 3169POPC   C4A42954  15.357  28.424   7.236
 3169POPC   C1B42955  14.827  28.789   6.165
 3169POPC   C2B42956  14.844  28.938   6.588
 3169POPC   C3B42957  15.046  28.804   6.970
 3169POPC   C4B42958  14.815  28.518   7.203
 3170POPC   NC342959  31.560  24.365   5.473
 3170POPC   PO442960  31.090  24.835   5.584
 3170POPC   GL142961  31.240  24.511   5.837
 3170POPC   GL242962  31.181  24.143   5.758
 3170POPC   C1A42963  31.535  24.520   6.191
 3170POPC   D2A42964  31.658  24.654   6.622
 3170POPC   C3A42965  31.526  24.458   7.007
 3170POPC   C4A42966  31.347  24.700   7.311
 3170POPC   C1B42967  31.072  24.255   6.213
 3170POPC   C2B42968  31.284  24.283   6.567
 3170POPC   C3B42969  31.150  24.131   6.896
 3170POPC   C4B42970  31.042  24.222   7.248
 3171POPC   NC342971  28.148   6.844   5.488
 3171POPC   PO442972  28.624   6.297   5.262
 3171POPC   GL142973  28.433   6.435   5.664
 3171POPC   GL242974  28.640   6.732   5.692
 3171POPC   C1A42975  28.381   6.575   6.111
 3171POPC   D2A42976  28.535   6.578   6.536
 3171POPC   C3A42977  28.290   6.579   6.906
 3171POPC   C4A42978  28.305   6.897   7.209
 3171POPC   C1B42979  28.688   7.028   6.017
 3171POPC   C2B42980  28.730   7.046   6.445
 3171POPC   C3B42981  28.728   6.953   6.895
 3171POPC   C4B42982  28.856   7.038   7.339
 3172POPC   NC342983  25.762  26.272   4.985
 3172POPC   PO442984  25.217  26.119   5.368
 3172POPC   GL142985  25.275  26.004   5.780
 3172POPC   GL242986  25.528  25.751   5.743
 3172POPC   C1A42987  25.060  25.822   6.140
 3172POPC   D2A42988  25.133  25.951   6.549
 3172POPC   C3A42989  24.977  25.720   6.893
 3172POPC   C4A42990  24.870  25.909   7.284
 3172POPC   C1B42991  25.571  25.894   6.182
 3172POPC   C2B42992  25.622  26.087   6.581
 3172POPC   C3B42993  25.456  25.938   6.969
 3172POPC   C4B42994  25.647  25.968   7.344
 3173POPC   NC342995  39.377  20.771   5.686
 3173POPC   PO442996  38.858  20.935   5.671
 3173POPC   GL142997  38.976  20.748   6.060
 3173POPC   GL242998  39.164  20.434   6.005
 3173POPC   C1A42999  39.227  20.785   6.416
 3173POPC   D2A43000  39.391  21.010   6.747
 3173POPC   C3A43001  39.092  20.907   7.064
 3173POPC   C4A43002  39.244  20.596   7.306
 3173POPC   C1B43003  39.208  20.281   6.427
 3173POPC   C2B43004  39.277  20.418   6.836
 3173POPC   C3B43005  39.455  20.142   7.148
 3173POPC   C4B43006  39.377  19.880   7.525
 3174POPC   NC343007  20.465  15.677   5.364
 3174POPC   PO443008  20.225  16.336   5.307
 3174POPC   GL143009  20.192  16.042   5.655
 3174POPC   GL243010  20.520  16.033   5.755
 3174POPC   C1A43011  20.196  15.897   6.104
 3174POPC   D2A43012  20.299  15.617   6.444
 3174POPC   C3A43013  20.464  15.796   6.815
 3174POPC   C4A43014  20.521  15.636   7.203
 3174POPC   C1B43015  20.704  15.851   6.189
 3174POPC   C2B43016  20.942  15.869   6.606
 3174POPC   C3B43017  20.964  15.906   7.066
 3174POPC   C4B43018  20.681  16.094   7.371
 3175POPC   NC343019  35.734   7.601   5.372
 3175POPC   PO443020  36.102   7.076   5.198
 3175POPC   GL143021  36.108   7.112   5.684
 3175POPC   GL243022  36.152   7.469   5.888
 3175POPC   C1A43023  36.198   7.038   6.153
 3175POPC   D2A43024  36.377   7.364   6.440
 3175POPC   C3A43025  36.150   7.405   6.838
 3175POPC   C4A43026  36.264   7.482   7.259
 3175POPC   C1B43027  36.060   7.760   6.295
 3175POPC   C2B43028  35.779   7.776   6.696
 3175POPC   C3B43029  35.759   7.633   7.161
 3175POPC   C4B43030  35.938   7.662   7.623
 3176POPC   NC343031  43.630  39.821   5.601
 3176POPC   PO443032  43.086  40.171   5.298
 3176POPC   GL143033  43.225  40.149   5.751
 3176POPC   GL243034  43.500  40.343   5.865
 3176POPC   C1A43035  43.069  40.060   6.204
 3176POPC   D2A43036  42.871  39.854   6.601
 3176POPC   C3A43037  43.170  39.776   6.940
 3176POPC   C4A43038  42.949  39.729   7.298
 3176POPC   C1B43039  43.399  40.439   6.326
 3176POPC   C2B43040  43.151  40.257   6.689
 3176POPC   C3B43041  43.072  40.235   7.138
 3176POPC   C4B43042  43.162  40.115   7.556
 3177POPC   NC343043   2.281  39.783   5.358
 3177POPC   PO443044   1.633  40.022   5.254
 3177POPC   GL143045   1.856  39.952   5.637
 3177POPC   GL243046   1.643  39.708   5.765
 3177POPC   C1A43047   2.076  40.152   6.000
 3177POPC   D2A43048   2.187  40.060   6.444
 3177POPC   C3A43049   1.940  40.069   6.833
 3177POPC   C4A43050   1.725  40.266   7.183
 3177POPC   C1B43051   1.763  39.795   6.196
 3177POPC   C2B43052   1.969  39.541   6.500
 3177POPC   C3B43053   2.059  39.584   6.933
 3177POPC   C4B43054   1.929  39.800   7.325
 3178POPC   NC343055  42.595  32.012   5.509
 3178POPC   PO443056  42.094  32.455   5.490
 3178POPC   GL143057  42.220  32.219   5.797
 3178POPC   GL243058  42.531  32.417   5.825
 3178POPC   C1A43059  42.297  32.166   6.218
 3178POPC   D2A43060  42.015  32.097   6.538
 3178POPC   C3A43061  42.123  32.351   6.868
 3178POPC   C4A43062  42.104  32.250   7.273
 3178POPC   C1B43063  42.740  32.501   6.213
 3178POPC   C2B43064  42.812  32.486   6.663
 3178POPC   C3B43065  42.611  32.291   7.007
 3178POPC   C4B43066  42.584  32.381   7.449
 3179POPC   NC343067   9.544   8.891   5.352
 3179POPC   PO443068  10.058   8.527   5.587
 3179POPC   GL143069   9.772   8.781   5.788
 3179POPC   GL243070   9.441   8.602   5.746
 3179POPC   C1A43071   9.825   9.088   6.115
 3179POPC   D2A43072   9.996   9.050   6.549
 3179POPC   C3A43073   9.830   9.153   6.962
 3179POPC   C4A43074   9.991   8.966   7.351
 3179POPC   C1B43075   9.388   8.796   6.118
 3179POPC   C2B43076   9.490   8.994   6.483
 3179POPC   C3B43077   9.490   8.779   6.833
 3179POPC   C4B43078   9.450   8.880   7.239
 3180POPC   NC343079  12.503  22.409   5.371
 3180POPC   PO443080  13.089  22.071   5.512
 3180POPC   GL143081  12.813  22.311   5.758
 3180POPC   GL243082  12.567  22.036   5.817
 3180POPC   C1A43083  12.684  22.487   6.141
 3180POPC   D2A43084  12.943  22.377   6.515
 3180POPC   C3A43085  12.847  22.434   6.946
 3180POPC   C4A43086  13.049  22.224   7.331
 3180POPC   C1B43087  12.637  21.988   6.281
 3180POPC   C2B43088  12.649  21.951   6.738
 3180POPC   C3B43089  12.605  22.043   7.160
 3180POPC   C4B43090  12.581  22.250   7.517
 3181POPC   NC343091  16.314   8.887   5.445
 3181POPC   PO443092  15.766   9.267   5.521
 3181POPC   GL143093  16.004   9.099   5.816
 3181POPC   GL243094  15.930   8.748   5.776
 3181POPC   C1A43095  16.061   9.020   6.233
 3181POPC   D2A43096  16.016   9.217   6.637
 3181POPC   C3A43097  16.037   8.994   7.023
 3181POPC   C4A43098  16.366   9.010   7.305
 3181POPC   C1B43099  15.861   8.558   6.173
 3181POPC   C2B43100  15.834   8.732   6.609
 3181POPC   C3B43101  15.560   8.707   6.961
 3181POPC   C4B43102  15.504   8.752   7.392
 3182POPC   NC343103  33.600  21.844   5.531
 3182POPC   PO443104  33.779  22.444   5.173
 3182POPC   GL143105  33.791  22.386   5.635
 3182POPC   GL243106  33.459  22.316   5.773
 3182POPC   C1A43107  33.890  22.516   6.095
 3182POPC   D2A43108  33.809  22.718   6.532
 3182POPC   C3A43109  33.844  22.446   6.947
 3182POPC   C4A43110  34.014  22.137   7.293
 3182POPC   C1B43111  33.585  22.100   6.158
 3182POPC   C2B43112  33.575  21.940   6.580
 3182POPC   C3B43113  33.368  21.998   6.961
 3182POPC   C4B43114  33.500  22.063   7.360
 3183POPC   NC343115  29.649  18.719   5.349
 3183POPC   PO443116  30.079  19.263   5.361
 3183POPC   GL143117  30.028  19.268   5.787
 3183POPC   GL243118  29.893  18.906   5.805
 3183POPC   C1A43119  29.790  19.259   6.162
 3183POPC   D2A43120  29.746  19.075   6.562
 3183POPC   C3A43121  29.934  19.265   6.899
 3183POPC   C4A43122  29.646  19.306   7.209
 3183POPC   C1B43123  30.034  18.762   6.240
 3183POPC   C2B43124  29.906  18.602   6.666
 3183POPC   C3B43125  29.874  18.784   7.100
 3183POPC   C4B43126  29.778  18.936   7.547
 3184POPC   NC343127  18.103  36.891   5.493
 3184POPC   PO443128  17.425  37.047   5.416
 3184POPC   GL143129  17.355  36.985   5.845
 3184POPC   GL243130  17.475  36.637   5.794
 3184POPC   C1A43131  17.267  37.106   6.301
 3184POPC   D2A43132  17.563  37.059   6.639
 3184POPC   C3A43133  17.496  37.140   7.055
 3184POPC   C4A43134  17.703  37.206   7.445
 3184POPC   C1B43135  17.216  36.608   6.187
 3184POPC   C2B43136  17.250  36.659   6.643
 3184POPC   C3B43137  17.396  36.636   7.071
 3184POPC   C4B43138  17.164  36.610   7.461
 3185POPC   NC343139  22.319  36.086   5.602
 3185POPC   PO443140  21.809  36.044   5.173
 3185POPC   GL143141  21.896  36.328   5.701
 3185POPC   GL243142  22.153  36.603   5.795
 3185POPC   C1A43143  22.068  36.026   6.170
 3185POPC   D2A43144  22.358  35.846   6.482
 3185POPC   C3A43145  22.135  35.859   6.871
 3185POPC   C4A43146  22.156  35.909   7.301
 3185POPC   C1B43147  21.980  36.504   6.221
 3185POPC   C2B43148  22.146  36.310   6.613
 3185POPC   C3B43149  22.049  36.350   7.049
 3185POPC   C4B43150  21.633  36.404   7.186
 3186POPC   NC343151   6.873   8.705   5.426
 3186POPC   PO443152   6.285   9.002   5.482
 3186POPC   GL143153   6.588   9.182   5.792
 3186POPC   GL243154   6.947   9.049   5.817
 3186POPC   C1A43155   6.613   9.109   6.226
 3186POPC   D2A43156   6.847   9.208   6.584
 3186POPC   C3A43157   6.649   9.134   6.937
 3186POPC   C4A43158   6.317   8.877   7.082
 3186POPC   C1B43159   6.874   8.676   6.111
 3186POPC   C2B43160   6.668   8.672   6.542
 3186POPC   C3B43161   6.848   8.615   6.959
 3186POPC   C4B43162   6.652   8.604   7.354
 3187POPC   NC343163   1.151   5.312   5.333
 3187POPC   PO443164   1.237   4.636   5.326
 3187POPC   GL143165   1.248   4.949   5.724
 3187POPC   GL243166   1.029   5.286   5.813
 3187POPC   C1A43167   1.170   5.018   6.195
 3187POPC   D2A43168   1.365   5.117   6.585
 3187POPC   C3A43169   1.189   5.046   6.957
 3187POPC   C4A43170   1.287   5.117   7.379
 3187POPC   C1B43171   0.936   5.510   6.222
 3187POPC   C2B43172   0.911   5.402   6.679
 3187POPC   C3B43173   1.013   5.512   7.112
 3187POPC   C4B43174   0.885   5.444   7.543
 3188POPC   NC343175  14.765  38.901   5.108
 3188POPC   PO443176  14.806  39.468   5.491
 3188POPC   GL143177  15.172  39.263   5.743
 3188POPC   GL243178  15.384  38.942   5.653
 3188POPC   C1A43179  15.317  39.309   6.193
 3188POPC   D2A43180  15.360  39.404   6.650
 3188POPC   C3A43181  15.083  39.200   6.985
 3188POPC   C4A43182  14.709  39.001   7.153
 3188POPC   C1B43183  15.176  38.827   6.073
 3188POPC   C2B43184  15.210  38.920   6.550
 3188POPC   C3B43185  15.328  38.768   7.005
 3188POPC   C4B43186  15.663  38.746   7.292
 3189POPC   NC343187  15.636   6.895   5.214
 3189POPC   PO443188  16.221   6.650   5.419
 3189POPC   GL143189  15.905   6.803   5.719
 3189POPC   GL243190  15.895   6.527   5.921
 3189POPC   C1A43191  15.867   6.960   6.183
 3189POPC   D2A43192  16.047   7.094   6.584
 3189POPC   C3A43193  16.076   6.755   6.834
 3189POPC   C4A43194  15.924   6.533   7.156
 3189POPC   C1B43195  16.052   6.493   6.349
 3189POPC   C2B43196  15.834   6.291   6.710
 3189POPC   C3B43197  15.704   6.077   7.094
 3189POPC   C4B43198  15.824   6.182   7.519
 3190POPC   NC343199  32.171  31.325   5.433
 3190POPC   PO443200  32.684  31.821   5.470
 3190POPC   GL143201  32.351  31.669   5.793
 3190POPC   GL243202  32.085  31.933   5.863
 3190POPC   C1A43203  32.280  31.449   6.204
 3190POPC   D2A43204  32.449  31.502   6.618
 3190POPC   C3A43205  32.526  31.254   6.936
 3190POPC   C4A43206  32.330  31.102   7.291
 3190POPC   C1B43207  31.849  31.854   6.199
 3190POPC   C2B43208  32.001  31.730   6.580
 3190POPC   C3B43209  32.029  31.818   7.001
 3190POPC   C4B43210  31.740  32.049   7.244
 3191POPC   NC343211   6.528  32.523   5.449
 3191POPC   PO443212   6.933  32.005   5.246
 3191POPC   GL143213   6.826  32.132   5.680
 3191POPC   GL243214   6.880  31.816   5.793
 3191POPC   C1A43215   6.687  32.302   6.097
 3191POPC   D2A43216   6.791  32.357   6.530
 3191POPC   C3A43217   6.523  32.263   6.870
 3191POPC   C4A43218   6.657  32.467   7.266
 3191POPC   C1B43219   6.538  31.820   6.105
 3191POPC   C2B43220   6.448  31.879   6.526
 3191POPC   C3B43221   6.520  31.758   6.963
 3191POPC   C4B43222   6.671  31.967   7.338
 3192POPC   NC343223  44.803  41.853   5.481
 3192POPC   PO443224  44.703  42.575   5.384
 3192POPC   GL143225  44.702  42.311   5.763
 3192POPC   GL243226  44.390  42.299   5.952
 3192POPC   C1A43227  44.815  42.287   6.227
 3192POPC   D2A43228  44.487  42.389   6.531
 3192POPC   C3A43229  44.578  42.183   6.906
 3192POPC   C4A43230  44.967  42.019   7.093
 3192POPC   C1B43231  44.626  42.733   6.101
 3192POPC   C2B43232  44.612  42.890   6.568
 3192POPC   C3B43233  44.671  42.699   6.969
 3192POPC   C4B43234  44.716  42.418   7.344
 3193POPC   NC343235  27.208  43.332   5.403
 3193POPC   PO443236  27.574  42.873   5.302
 3193POPC   GL143237  27.606  43.062   5.714
 3193POPC   GL243238  27.307  42.906   5.795
 3193POPC   C1A43239  27.695  43.033   6.198
 3193POPC   D2A43240  27.788  43.267   6.608
 3193POPC   C3A43241  27.836  43.083   7.021
 3193POPC   C4A43242  27.874  43.256   7.423
 3193POPC   C1B43243  27.268  43.265   6.054
 3193POPC   C2B43244  27.325  43.339   6.458
 3193POPC   C3B43245  27.353  43.201   6.872
 3193POPC   C4B43246  27.086  43.250   7.161
 3194POPC   NC343247  34.809  12.857   5.475
 3194POPC   PO443248  34.301  13.150   5.231
 3194POPC   GL143249  34.364  12.934   5.710
 3194POPC   GL243250  34.648  13.015   5.937
 3194POPC   C1A43251  34.396  12.582   6.050
 3194POPC   D2A43252  34.203  12.489   6.467
 3194POPC   C3A43253  34.391  12.669   6.834
 3194POPC   C4A43254  34.549  12.754   7.244
 3194POPC   C1B43255  34.511  13.276   6.247
 3194POPC   C2B43256  34.403  13.158   6.656
 3194POPC   C3B43257  34.588  13.220   7.049
 3194POPC   C4B43258  34.380  13.194   7.451
 3195POPC   NC343259  16.715  20.610   5.439
 3195POPC   PO443260  16.655  21.174   5.609
 3195POPC   GL143261  16.875  20.901   5.888
 3195POPC   GL243262  16.772  20.539   5.924
 3195POPC   C1A43263  16.850  20.828   6.337
 3195POPC   D2A43264  16.536  20.754   6.661
 3195POPC   C3A43265  16.696  20.739   7.088
 3195POPC   C4A43266  16.639  20.785   7.546
 3195POPC   C1B43267  16.560  20.335   6.247
 3195POPC   C2B43268  16.464  20.232   6.651
 3195POPC   C3B43269  16.317  20.409   7.015
 3195POPC   C4B43270  16.603  20.278   7.312
 3196POPC   NC343271  31.556  30.930   5.275
 3196POPC   PO443272  30.920  30.870   5.429
 3196POPC   GL143273  31.255  30.771   5.741
 3196POPC   GL243274  31.570  30.969   5.782
 3196POPC   C1A43275  31.311  30.562   6.145
 3196POPC   D2A43276  31.549  30.416   6.514
 3196POPC   C3A43277  31.492  30.579   6.964
 3196POPC   C4A43278  31.579  30.581   7.460
 3196POPC   C1B43279  31.362  31.070   6.162
 3196POPC   C2B43280  31.459  30.973   6.570
 3196POPC   C3B43281  31.411  31.158   6.962
 3196POPC   C4B43282  31.564  31.059   7.360
 3197POPC   NC343283  31.162  13.991   5.569
 3197POPC   PO443284  31.401  13.369   5.261
 3197POPC   GL143285  31.451  13.307   5.702
 3197POPC   GL243286  31.777  13.386   5.786
 3197POPC   C1A43287  31.312  13.466   6.113
 3197POPC   D2A43288  31.412  13.864   6.357
 3197POPC   C3A43289  31.473  13.829   6.801
 3197POPC   C4A43290  31.472  13.768   7.231
 3197POPC   C1B43291  31.802  13.538   6.223
 3197POPC   C2B43292  31.668  13.403   6.602
 3197POPC   C3B43293  31.818  13.477   7.008
 3197POPC   C4B43294  31.654  13.269   7.395
 3198POPC   NC343295  37.914  33.646   5.378
 3198POPC   PO443296  37.508  34.086   5.424
 3198POPC   GL143297  37.701  33.960   5.813
 3198POPC   GL243298  37.695  33.601   5.842
 3198POPC   C1A43299  37.605  34.024   6.256
 3198POPC   D2A43300  37.562  34.216   6.632
 3198POPC   C3A43301  37.855  34.027   6.911
 3198POPC   C4A43302  37.776  33.714   7.221
 3198POPC   C1B43303  37.644  33.519   6.269
 3198POPC   C2B43304  37.635  33.601   6.690
 3198POPC   C3B43305  37.916  33.338   6.922
 3198POPC   C4B43306  38.031  33.282   7.348
 3199POPC   NC343307  17.328   1.555   5.420
 3199POPC   PO443308  17.196   0.870   5.410
 3199POPC   GL143309  17.263   1.190   5.799
 3199POPC   GL243310  17.599   1.283   5.804
 3199POPC   C1A43311  17.341   1.437   6.227
 3199POPC   D2A43312  17.597   1.482   6.596
 3199POPC   C3A43313  17.362   1.525   6.968
 3199POPC   C4A43314  17.298   1.162   7.170
 3199POPC   C1B43315  17.597   1.002   6.202
 3199POPC   C2B43316  17.583   0.913   6.663
 3199POPC   C3B43317  17.778   1.150   6.973
 3199POPC   C4B43318  17.853   1.580   7.102
 3200POPC   NC343319  22.344   3.802   5.543
 3200POPC   PO443320  22.035   3.250   5.315
 3200POPC   GL143321  22.060   3.328   5.791
 3200POPC   GL243322  21.999   3.686   5.884
 3200POPC   C1A43323  22.199   3.334   6.222
 3200POPC   D2A43324  22.448   3.468   6.547
 3200POPC   C3A43325  22.189   3.630   6.822
 3200POPC   C4A43326  22.171   3.325   7.117
 3200POPC   C1B43327  22.229   3.857   6.279
 3200POPC   C2B43328  22.511   3.989   6.666
 3200POPC   C3B43329  22.337   4.061   7.073
 3200POPC   C4B43330  21.982   3.997   7.385
 3201POPC   NC343331  41.506  33.933   5.325
 3201POPC   PO443332  41.708  33.289   5.473
 3201POPC   GL143333  41.612  33.653   5.736
 3201POPC   GL243334  41.312  33.580   5.791
 3201POPC   C1A43335  41.447  33.962   6.069
 3201POPC   D2A43336  41.593  33.964   6.492
 3201POPC   C3A43337  41.434  33.993   6.905
 3201POPC   C4A43338  41.630  33.913   7.312
 3201POPC   C1B43339  41.262  33.506   6.225
 3201POPC   C2B43340  41.302  33.557   6.638
 3201POPC   C3B43341  41.420  33.477   7.037
 3201POPC   C4B43342  41.313  33.549   7.432
 3202POPC   NC343343  25.582  43.235   5.540
 3202POPC   PO443344  25.181  42.723   5.427
 3202POPC   GL143345  25.168  43.005   5.775
 3202POPC   GL243346  24.847  42.972   5.960
 3202POPC   C1A43347  25.283  43.079   6.208
 3202POPC   D2A43348  25.071  42.941   6.585
 3202POPC   C3A43349  25.258  43.134   6.905
 3202POPC   C4A43350  25.325  43.255   7.280
 3202POPC   C1B43351  24.796  43.267   6.312
 3202POPC   C2B43352  24.897  43.445   6.726
 3202POPC   C3B43353  24.822  43.280   7.153
 3202POPC   C4B43354  24.956  43.406   7.591
 3203POPC   NC343355   5.298  28.844   5.596
 3203POPC   PO443356   4.871  29.206   5.192
 3203POPC   GL143357   4.962  29.271   5.697
 3203POPC   GL243358   5.312  29.285   5.858
 3203POPC   C1A43359   4.991  29.008   6.138
 3203POPC   D2A43360   4.929  28.950   6.546
 3203POPC   C3A43361   5.124  29.100   6.857
 3203POPC   C4A43362   5.043  28.863   7.213
 3203POPC   C1B43363   4.990  29.505   6.151
 3203POPC   C2B43364   5.036  29.508   6.571
 3203POPC   C3B43365   4.855  29.592   6.945
 3203POPC   C4B43366   5.011  29.392   7.275
 3204POPC   NC343367  36.704  40.031   5.439
 3204POPC   PO443368  37.157  39.614   5.394
 3204POPC   GL143369  36.982  39.921   5.851
 3204POPC   GL243370  36.726  40.247   5.878
 3204POPC   C1A43371  36.635  39.925   6.241
 3204POPC   D2A43372  36.651  39.817   6.671
 3204POPC   C3A43373  37.002  39.921   6.883
 3204POPC   C4A43374  37.024  39.740   7.242
 3204POPC   C1B43375  37.010  40.258   6.243
 3204POPC   C2B43376  36.791  40.325   6.621
 3204POPC   C3B43377  36.909  40.432   7.008
 3204POPC   C4B43378  36.706  40.147   7.265
 3205POPC   NC343379   4.969  13.859   5.121
 3205POPC   PO443380   5.489  13.453   5.397
 3205POPC   GL143381   5.421  13.458   5.865
 3205POPC   GL243382   5.580  13.750   5.876
 3205POPC   C1A43383   5.205  13.571   6.311
 3205POPC   D2A43384   5.039  13.306   6.728
 3205POPC   C3A43385   5.031  13.459   7.186
 3205POPC   C4A43386   5.234  13.308   7.578
 3205POPC   C1B43387   5.768  13.898   6.223
 3205POPC   C2B43388   5.666  13.705   6.573
 3205POPC   C3B43389   5.375  13.687   6.883
 3205POPC   C4B43390   5.568  13.606   7.289
 3206POPC   NC343391   9.612  18.599   5.097
 3206POPC   PO443392   9.788  18.149   5.515
 3206POPC   GL143393   9.857  18.289   5.900
 3206POPC   GL243394   9.552  18.193   6.020
 3206POPC   C1A43395   9.810  18.610   6.215
 3206POPC   D2A43396   9.516  18.656   6.556
 3206POPC   C3A43397   9.739  18.532   6.929
 3206POPC   C4A43398   9.959  18.609   7.275
 3206POPC   C1B43399   9.439  17.900   6.321
 3206POPC   C2B43400   9.536  18.114   6.683
 3206POPC   C3B43401   9.626  18.055   7.105
 3206POPC   C4B43402   9.857  18.163   7.474
 3207POPC   NC343403  28.923  11.588   5.332
 3207POPC   PO443404  29.633  11.533   5.579
 3207POPC   GL143405  29.351  11.337   5.846
 3207POPC   GL243406  29.040  11.189   5.742
 3207POPC   C1A43407  29.207  11.428   6.252
 3207POPC   D2A43408  29.297  11.735   6.556
 3207POPC   C3A43409  29.561  11.557   6.850
 3207POPC   C4A43410  29.358  11.329   7.157
 3207POPC   C1B43411  29.141  10.940   6.124
 3207POPC   C2B43412  29.017  10.987   6.561
 3207POPC   C3B43413  28.897  11.267   6.912
 3207POPC   C4B43414  28.638  11.320   7.284
 3208POPC   NC343415   6.352  30.952   5.422
 3208POPC   PO443416   6.725  30.347   5.328
 3208POPC   GL143417   6.532  30.539   5.687
 3208POPC   GL243418   6.677  30.846   5.808
 3208POPC   C1A43419   6.659  30.480   6.141
 3208POPC   D2A43420   6.980  30.577   6.466
 3208POPC   C3A43421   6.842  30.508   6.904
 3208POPC   C4A43422   6.907  30.663   7.315
 3208POPC   C1B43423   6.719  31.017   6.205
 3208POPC   C2B43424   6.652  30.941   6.656
 3208POPC   C3B43425   6.578  30.978   7.076
 3208POPC   C4B43426   6.524  30.968   7.513
 3209POPC   NC343427  33.621  37.328   5.675
 3209POPC   PO443428  33.681  36.703   5.304
 3209POPC   GL143429  33.907  36.675   5.743
 3209POPC   GL243430  33.932  37.011   5.883
 3209POPC   C1A43431  33.789  36.667   6.216
 3209POPC   D2A43432  33.466  36.796   6.546
 3209POPC   C3A43433  33.606  36.727   6.977
 3209POPC   C4A43434  33.794  36.797   7.389
 3209POPC   C1B43435  33.787  37.172   6.308
 3209POPC   C2B43436  33.906  37.064   6.735
 3209POPC   C3B43437  33.769  37.236   7.134
 3209POPC   C4B43438  33.923  37.243   7.596
 3210POPC   NC343439   9.250  22.825   5.444
 3210POPC   PO443440   8.586  23.166   5.469
 3210POPC   GL143441   8.857  22.966   5.705
 3210POPC   GL243442   9.073  23.274   5.632
 3210POPC   C1A43443   9.015  22.759   6.085
 3210POPC   D2A43444   8.870  22.747   6.526
 3210POPC   C3A43445   9.094  22.658   6.919
 3210POPC   C4A43446   8.887  22.744   7.300
 3210POPC   C1B43447   8.889  23.292   6.071
 3210POPC   C2B43448   8.812  23.287   6.490
 3210POPC   C3B43449   9.037  23.160   6.847
 3210POPC   C4B43450   8.987  23.273   7.250
 3211POPC   NC343451  26.635  41.094   5.466
 3211POPC   PO443452  27.049  40.572   5.343
 3211POPC   GL143453  26.790  40.685   5.739
 3211POPC   GL243454  26.899  40.973   5.913
 3211POPC   C1A43455  26.654  40.625   6.196
 3211POPC   D2A43456  26.906  40.564   6.581
 3211POPC   C3A43457  26.847  40.660   7.030
 3211POPC   C4A43458  26.572  40.534   7.360
 3211POPC   C1B43459  26.712  41.149   6.313
 3211POPC   C2B43460  26.688  41.354   6.737
 3211POPC   C3B43461  26.711  41.132   7.160
 3211POPC   C4B43462  27.049  41.005   7.480
 3212POPC   NC343463  13.146  23.295   5.420
 3212POPC   PO443464  12.829  22.780   5.428
 3212POPC   GL143465  12.891  23.014   5.788
 3212POPC   GL243466  13.223  22.862   5.785
 3212POPC   C1A43467  12.632  23.005   6.181
 3212POPC   D2A43468  12.732  22.840   6.591
 3212POPC   C3A43469  12.673  23.170   6.895
 3212POPC   C4A43470  12.588  23.137   7.326
 3212POPC   C1B43471  13.094  22.784   6.204
 3212POPC   C2B43472  13.280  22.777   6.602
 3212POPC   C3B43473  13.092  22.898   6.963
 3212POPC   C4B43474  13.311  22.924   7.301
 3213POPC   NC343475  13.852  17.407   5.497
 3213POPC   PO443476  13.206  17.379   5.661
 3213POPC   GL143477  13.532  17.491   5.904
 3213POPC   GL243478  13.705  17.759   5.832
 3213POPC   C1A43479  13.900  17.415   6.180
 3213POPC   D2A43480  13.807  17.321   6.636
 3213POPC   C3A43481  14.004  17.458   7.025
 3213POPC   C4A43482  13.888  17.370   7.440
 3213POPC   C1B43483  13.573  17.756   6.329
 3213POPC   C2B43484  13.449  17.683   6.745
 3213POPC   C3B43485  13.532  17.589   7.167
 3213POPC   C4B43486  13.645  17.788   7.572
 3214POPC   NC343487  43.743  14.576   5.239
 3214POPC   PO443488  44.063  14.037   5.382
 3214POPC   GL143489  44.122  14.229   5.811
 3214POPC   GL243490  44.164  14.574   5.812
 3214POPC   C1A43491  44.100  14.350   6.261
 3214POPC   D2A43492  43.983  14.481   6.670
 3214POPC   C3A43493  43.988  14.173   6.975
 3214POPC   C4A43494  43.751  14.272   7.303
 3214POPC   C1B43495  43.801  14.748   6.080
 3214POPC   C2B43496  43.736  14.943   6.515
 3214POPC   C3B43497  43.817  14.871   6.974
 3214POPC   C4B43498  44.149  14.609   7.199
 3215POPC   NC343499  30.753  16.361   5.633
 3215POPC   PO443500  30.688  16.894   5.175
 3215POPC   GL143501  30.699  16.899   5.704
 3215POPC   GL243502  30.857  17.132   5.969
 3215POPC   C1A43503  30.401  16.995   6.117
 3215POPC   D2A43504  30.498  17.187   6.550
 3215POPC   C3A43505  30.398  17.018   7.006
 3215POPC   C4A43506  30.339  16.594   7.198
 3215POPC   C1B43507  30.833  16.755   6.260
 3215POPC   C2B43508  30.761  16.761   6.718
 3215POPC   C3B43509  30.872  16.857   7.135
 3215POPC   C4B43510  31.019  16.623   7.454
 3216POPC   NC343511  21.848  28.551   5.322
 3216POPC   PO443512  22.302  28.002   5.263
 3216POPC   GL143513  22.141  28.298   5.675
 3216POPC   GL243514  22.359  28.295   5.943
 3216POPC   C1A43515  21.913  28.418   6.122
 3216POPC   D2A43516  21.988  28.632   6.547
 3216POPC   C3A43517  21.831  28.504   6.979
 3216POPC   C4A43518  21.799  28.578   7.441
 3216POPC   C1B43519  22.302  28.213   6.396
 3216POPC   C2B43520  22.299  28.316   6.838
 3216POPC   C3B43521  22.163  28.140   7.234
 3216POPC   C4B43522  22.032  28.124   7.683
 3217POPC   NC343523  23.419  41.431   5.493
 3217POPC   PO443524  23.994  41.713   5.369
 3217POPC   GL143525  23.820  41.747   5.826
 3217POPC   GL243526  23.454  41.765   5.905
 3217POPC   C1A43527  23.940  41.589   6.282
 3217POPC   D2A43528  23.891  41.412   6.728
 3217POPC   C3A43529  24.061  41.708   7.042
 3217POPC   C4A43530  23.926  41.768   7.480
 3217POPC   C1B43531  23.473  41.967   6.327
 3217POPC   C2B43532  23.735  41.905   6.698
 3217POPC   C3B43533  23.575  41.648   7.105
 3217POPC   C4B43534  23.433  41.731   7.583
 3218POPC   NC343535  32.936  23.540   4.988
 3218POPC   PO443536  33.326  23.699   5.455
 3218POPC   GL143537  33.116  23.822   5.888
 3218POPC   GL243538  33.005  23.544   6.069
 3218POPC   C1A43539  32.877  23.954   6.300
 3218POPC   D2A43540  32.968  23.801   6.704
 3218POPC   C3A43541  32.866  24.012   7.084
 3218POPC   C4A43542  33.101  23.904   7.505
 3218POPC   C1B43543  33.012  23.318   6.419
 3218POPC   C2B43544  32.850  23.319   6.811
 3218POPC   C3B43545  32.858  23.525   7.191
 3218POPC   C4B43546  32.700  23.559   7.619
 3219POPC   NC343547  14.659   6.923   5.426
 3219POPC   PO443548  13.987   6.801   5.180
 3219POPC   GL143549  14.241   6.618   5.545
 3219POPC   GL243550  14.172   6.895   5.660
 3219POPC   C1A43551  14.472   6.661   5.995
 3219POPC   D2A43552  14.646   6.702   6.414
 3219POPC   C3A43553  14.463   6.841   6.778
 3219POPC   C4A43554  14.411   6.579   7.115
 3219POPC   C1B43555  14.055   6.920   6.046
 3219POPC   C2B43556  14.073   6.908   6.456
 3219POPC   C3B43557  13.975   6.828   6.873
 3219POPC   C4B43558  14.105   6.971   7.246
 3220POPC   NC343559  12.303   9.496   5.340
 3220POPC   PO443560  11.747   9.872   5.333
 3220POPC   GL143561  12.010   9.813   5.673
 3220POPC   GL243562  12.089   9.473   5.807
 3220POPC   C1A43563  12.183   9.931   6.072
 3220POPC   D2A43564  12.151   9.735   6.476
 3220POPC   C3A43565  12.276   9.943   6.844
 3220POPC   C4A43566  12.008   9.997   7.242
 3220POPC   C1B43567  12.258   9.299   6.189
 3220POPC   C2B43568  12.097   9.245   6.619
 3220POPC   C3B43569  12.025   9.517   6.964
 3220POPC   C4B43570  12.348   9.641   7.254
 3221POPC   NC343571   9.543  30.511   5.329
 3221POPC   PO443572  10.074  30.975   5.427
 3221POPC   GL143573   9.872  30.776   5.736
 3221POPC   GL243574   9.856  30.430   5.714
 3221POPC   C1A43575   9.896  30.836   6.158
 3221POPC   D2A43576   9.718  30.840   6.536
 3221POPC   C3A43577   9.900  30.842   6.955
 3221POPC   C4A43578   9.939  30.890   7.427
 3221POPC   C1B43579   9.558  30.483   6.049
 3221POPC   C2B43580   9.422  30.428   6.477
 3221POPC   C3B43581   9.474  30.278   6.886
 3221POPC   C4B43582   9.712  30.448   7.228
 3222POPC   NC343583   3.101  41.629   5.388
 3222POPC   PO443584   2.555  41.283   5.372
 3222POPC   GL143585   2.718  41.455   5.765
 3222POPC   GL243586   3.073  41.335   5.797
 3222POPC   C1A43587   2.523  41.519   6.192
 3222POPC   D2A43588   2.366  41.448   6.639
 3222POPC   C3A43589   2.490  41.786   6.966
 3222POPC   C4A43590   2.555  41.867   7.432
 3222POPC   C1B43591   3.055  41.388   6.229
 3222POPC   C2B43592   2.872  41.596   6.565
 3222POPC   C3B43593   2.829  41.418   6.934
 3222POPC   C4B43594   2.930  41.510   7.337
 3223POPC   NC343595  41.239  33.165   5.504
 3223POPC   PO443596  40.533  33.201   5.358
 3223POPC   GL143597  40.759  33.045   5.712
 3223POPC   GL243598  40.806  32.701   5.710
 3223POPC   C1A43599  40.877  33.189   6.106
 3223POPC   D2A43600  40.818  33.016   6.514
 3223POPC   C3A43601  40.593  32.891   6.856
 3223POPC   C4A43602  40.647  33.056   7.236
 3223POPC   C1B43603  40.951  32.679   6.156
 3223POPC   C2B43604  41.075  32.587   6.605
 3223POPC   C3B43605  41.035  32.699   7.040
 3223POPC   C4B43606  41.163  33.070   7.227
 3224POPC   NC343607  39.779  23.641   5.348
 3224POPC   PO443608  40.299  23.999   5.415
 3224POPC   GL143609  40.062  23.822   5.761
 3224POPC   GL243610  39.740  24.018   5.725
 3224POPC   C1A43611  40.097  23.571   6.169
 3224POPC   D2A43612  40.143  23.377   6.578
 3224POPC   C3A43613  40.035  23.527   6.953
 3224POPC   C4A43614  40.365  23.770   7.148
 3224POPC   C1B43615  39.857  24.015   6.194
 3224POPC   C2B43616  39.876  23.864   6.619
 3224POPC   C3B43617  39.889  24.000   7.064
 3224POPC   C4B43618  39.651  23.898   7.395
 3225POPC   NC343619   3.352  20.846   5.267
 3225POPC   PO443620   3.748  20.320   5.374
 3225POPC   GL143621   3.739  20.472   5.804
 3225POPC   GL243622   3.581  20.764   5.757
 3225POPC   C1A43623   3.568  20.548   6.239
 3225POPC   D2A43624   3.302  20.445   6.595
 3225POPC   C3A43625   3.531  20.443   6.981
 3225POPC   C4A43626   3.499  20.686   7.370
 3225POPC   C1B43627   3.723  21.009   6.121
 3225POPC   C2B43628   3.891  20.909   6.521
 3225POPC   C3B43629   3.776  20.885   6.940
 3225POPC   C4B43630   3.821  21.063   7.335
 3226POPC   NC343631  17.661  20.410   5.695
 3226POPC   PO443632  17.458  19.900   5.237
 3226POPC   GL143633  17.667  19.876   5.653
 3226POPC   GL243634  17.373  19.991   5.799
 3226POPC   C1A43635  17.846  19.812   6.075
 3226POPC   D2A43636  17.707  19.578   6.453
 3226POPC   C3A43637  17.762  19.802   6.822
 3226POPC   C4A43638  17.737  19.643   7.198
 3226POPC   C1B43639  17.330  19.700   6.135
 3226POPC   C2B43640  17.261  19.823   6.562
 3226POPC   C3B43641  17.270  19.721   6.986
 3226POPC   C4B43642  17.392  20.044   7.231
 3227POPC   NC343643  25.822  23.272   5.369
 3227POPC   PO443644  26.318  22.820   5.410
 3227POPC   GL143645  26.159  22.972   5.759
 3227POPC   GL243646  25.944  22.686   5.782
 3227POPC   C1A43647  26.233  22.893   6.178
 3227POPC   D2A43648  26.169  23.123   6.562
 3227POPC   C3A43649  26.226  22.930   6.928
 3227POPC   C4A43650  26.134  23.118   7.321
 3227POPC   C1B43651  25.738  22.694   6.157
 3227POPC   C2B43652  25.924  22.680   6.546
 3227POPC   C3B43653  25.805  22.624   6.944
 3227POPC   C4B43654  26.053  22.581   7.269
 3228POPC   NC343655  41.045  28.151   5.442
 3228POPC   PO443656  40.418  28.363   5.365
 3228POPC   GL143657  40.549  28.598   5.737
 3228POPC   GL243658  40.769  28.321   5.844
 3228POPC   C1A43659  40.618  28.600   6.217
 3228POPC   D2A43660  40.907  28.508   6.555
 3228POPC   C3A43661  40.795  28.375   6.956
 3228POPC   C4A43662  40.941  28.286   7.333
 3228POPC   C1B43663  40.911  28.106   6.239
 3228POPC   C2B43664  40.714  27.994   6.625
 3228POPC   C3B43665  40.599  27.869   7.043
 3228POPC   C4B43666  40.526  28.031   7.456
 3229POPC   NC343667  38.844  12.083   5.579
 3229POPC   PO443668  38.185  12.335   5.426
 3229POPC   GL143669  38.351  12.214   5.826
 3229POPC   GL243670  38.336  11.843   5.818
 3229POPC   C1A43671  38.474  12.353   6.269
 3229POPC   D2A43672  38.507  12.127   6.676
 3229POPC   C3A43673  38.308  12.285   7.037
 3229POPC   C4A43674  38.511  12.367   7.422
 3229POPC   C1B43675  38.372  11.834   6.254
 3229POPC   C2B43676  38.101  11.785   6.619
 3229POPC   C3B43677  38.240  11.753   7.017
 3229POPC   C4B43678  38.654  11.895   7.140
 3230POPC   NC343679  31.120   7.336   5.512
 3230POPC   PO443680  31.803   7.324   5.497
 3230POPC   GL143681  31.523   7.220   5.796
 3230POPC   GL243682  31.444   7.557   5.842
 3230POPC   C1A43683  31.533   7.174   6.227
 3230POPC   D2A43684  31.553   6.944   6.598
 3230POPC   C3A43685  31.401   7.207   6.947
 3230POPC   C4A43686  31.077   7.087   7.271
 3230POPC   C1B43687  31.619   7.735   6.187
 3230POPC   C2B43688  31.457   7.585   6.563
 3230POPC   C3B43689  31.102   7.566   6.781
 3230POPC   C4B43690  31.126   7.600   7.193
 3231POPC   NC343691   6.219   2.167   5.229
 3231POPC   PO443692   5.605   2.019   5.510
 3231POPC   GL143693   5.701   2.106   5.911
 3231POPC   GL243694   6.072   2.088   5.972
 3231POPC   C1A43695   5.680   1.892   6.302
 3231POPC   D2A43696   5.688   1.672   6.684
 3231POPC   C3A43697   5.726   1.870   7.053
 3231POPC   C4A43698   6.010   2.223   7.193
 3231POPC   C1B43699   6.159   1.707   6.204
 3231POPC   C2B43700   6.207   1.616   6.569
 3231POPC   C3B43701   6.202   1.890   6.851
 3231POPC   C4B43702   6.475   1.955   7.148
 3232POPC   NC343703  30.158  10.119   5.464
 3232POPC   PO443704  29.768  10.664   5.392
 3232POPC   GL143705  29.896  10.597   5.836
 3232POPC   GL243706  30.222  10.459   5.842
 3232POPC   C1A43707  30.002  10.688   6.304
 3232POPC   D2A43708  29.821  10.521   6.705
 3232POPC   C3A43709  29.920  10.643   7.132
 3232POPC   C4A43710  29.745  10.679   7.539
 3232POPC   C1B43711  30.208  10.222   6.225
 3232POPC   C2B43712  30.314  10.387   6.645
 3232POPC   C3B43713  30.240  10.274   7.040
 3232POPC   C4B43714  30.084   9.927   7.200
 3233POPC   NC343715   2.619  12.972   5.635
 3233POPC   PO443716   1.928  12.989   5.523
 3233POPC   GL143717   1.894  12.800   5.892
 3233POPC   GL243718   2.262  12.702   5.888
 3233POPC   C1A43719   1.810  12.937   6.333
 3233POPC   D2A43720   2.068  12.888   6.726
 3233POPC   C3A43721   1.835  13.028   7.115
 3233POPC   C4A43722   1.841  13.186   7.541
 3233POPC   C1B43723   2.104  12.534   6.281
 3233POPC   C2B43724   1.922  12.385   6.663
 3233POPC   C3B43725   2.011  12.541   7.099
 3233POPC   C4B43726   2.290  12.908   7.316
 3234POPC   NC343727   4.012  22.681   5.432
 3234POPC   PO443728   4.524  23.088   5.365
 3234POPC   GL143729   4.243  23.095   5.714
 3234POPC   GL243730   4.243  23.449   5.752
 3234POPC   C1A43731   4.251  22.845   6.110
 3234POPC   D2A43732   4.516  22.763   6.495
 3234POPC   C3A43733   4.405  22.998   6.880
 3234POPC   C4A43734   3.993  23.060   7.072
 3234POPC   C1B43735   4.085  23.344   6.161
 3234POPC   C2B43736   4.089  23.335   6.622
 3234POPC   C3B43737   4.267  23.518   7.003
 3234POPC   C4B43738   4.567  23.479   7.359
 3235POPC   NC343739  44.720  38.470   5.360
 3235POPC   PO443740  44.100  38.555   5.631
 3235POPC   GL143741  44.420  38.469   5.901
 3235POPC   GL243742  44.758  38.638   5.847
 3235POPC   C1A43743  44.568  38.519   6.318
 3235POPC   D2A43744  44.591  38.678   6.720
 3235POPC   C3A43745  44.698  38.297   6.943
 3235POPC   C4A43746  44.511  38.162   7.311
 3235POPC   C1B43747  44.995  38.826   6.192
 3235POPC   C2B43748   0.144  38.722   6.617
 3235POPC   C3B43749   0.006  38.709   7.025
 3235POPC   C4B43750  44.919  38.855   7.397
 3236POPC   NC343751  22.892  17.968   5.299
 3236POPC   PO443752  22.733  18.561   5.230
 3236POPC   GL143753  23.017  18.348   5.612
 3236POPC   GL243754  22.797  18.095   5.781
 3236POPC   C1A43755  23.141  18.280   6.102
 3236POPC   D2A43756  23.165  18.575   6.480
 3236POPC   C3A43757  23.049  18.395   6.890
 3236POPC   C4A43758  22.864  18.557   7.289
 3236POPC   C1B43759  22.676  17.960   6.200
 3236POPC   C2B43760  22.792  17.838   6.623
 3236POPC   C3B43761  22.695  18.023   7.006
 3236POPC   C4B43762  22.950  18.087   7.334
 3237POPC   NC343763   1.390  30.943   5.315
 3237POPC   PO443764   0.832  30.722   5.446
 3237POPC   GL143765   1.039  30.725   5.831
 3237POPC   GL243766   1.152  30.379   5.833
 3237POPC   C1A43767   1.303  30.764   6.226
 3237POPC   D2A43768   1.355  31.026   6.591
 3237POPC   C3A43769   1.251  30.893   6.971
 3237POPC   C4A43770   0.938  30.658   7.135
 3237POPC   C1B43771   0.945  30.410   6.242
 3237POPC   C2B43772   1.107  30.493   6.665
 3237POPC   C3B43773   1.376  30.385   7.025
 3237POPC   C4B43774   1.223  30.311   7.401
 3238POPC   NC343775   9.263  16.922   5.585
 3238POPC   PO443776   9.574  16.401   5.266
 3238POPC   GL143777   9.515  16.482   5.681
 3238POPC   GL243778   9.730  16.772   5.746
 3238POPC   C1A43779   9.583  16.386   6.093
 3238POPC   D2A43780   9.557  16.579   6.513
 3238POPC   C3A43781   9.707  16.392   6.894
 3238POPC   C4A43782   9.527  16.630   7.203
 3238POPC   C1B43783   9.748  16.926   6.182
 3238POPC   C2B43784   9.923  16.961   6.618
 3238POPC   C3B43785   9.891  16.936   7.069
 3238POPC   C4B43786   9.544  17.113   7.390
 3239POPC   NC343787   4.915  27.968   5.438
 3239POPC   PO443788   5.243  27.422   5.255
 3239POPC   GL143789   5.064  27.512   5.649
 3239POPC   GL243790   5.321  27.720   5.776
 3239POPC   C1A43791   5.034  27.399   6.079
 3239POPC   D2A43792   5.163  27.231   6.478
 3239POPC   C3A43793   5.141  27.484   6.855
 3239POPC   C4A43794   5.291  27.429   7.291
 3239POPC   C1B43795   5.352  27.916   6.201
 3239POPC   C2B43796   5.522  27.826   6.614
 3239POPC   C3B43797   5.390  27.919   7.048
 3239POPC   C4B43798   5.386  27.884   7.484
 3240POPC   NC343799  29.021  16.249   5.619
 3240POPC   PO443800  29.398  16.786   5.330
 3240POPC   GL143801  29.185  16.990   5.717
 3240POPC   GL243802  29.105  16.685   5.847
 3240POPC   C1A43803  28.928  17.039   6.130
 3240POPC   D2A43804  29.064  16.795   6.507
 3240POPC   C3A43805  28.880  16.913   6.875
 3240POPC   C4A43806  29.027  16.943   7.276
 3240POPC   C1B43807  28.850  16.477   6.179
 3240POPC   C2B43808  28.959  16.294   6.576
 3240POPC   C3B43809  28.993  16.445   7.011
 3240POPC   C4B43810  28.936  16.463   7.461
 3241POPC   NC343811   8.091   9.379   5.497
 3241POPC   PO443812   8.113   8.722   5.474
 3241POPC   GL143813   8.199   8.971   5.843
 3241POPC   GL243814   8.477   9.213   5.823
 3241POPC   C1A43815   8.046   8.952   6.280
 3241POPC   D2A43816   8.029   8.662   6.675
 3241POPC   C3A43817   8.008   8.843   7.103
 3241POPC   C4A43818   8.174   8.749   7.537
 3241POPC   C1B43819   8.559   8.989   6.248
 3241POPC   C2B43820   8.558   8.752   6.669
 3241POPC   C3B43821   8.545   8.784   7.141
 3241POPC   C4B43822   8.361   9.161   7.298
 3242POPC   NC343823  11.181  12.124   5.358
 3242POPC   PO443824  11.837  12.387   5.514
 3242POPC   GL143825  11.410  12.282   5.778
 3242POPC   GL243826  11.222  11.903   5.805
 3242POPC   C1A43827  11.211  12.245   6.196
 3242POPC   D2A43828  11.281  12.337   6.637
 3242POPC   C3A43829  11.432  12.112   7.011
 3242POPC   C4A43830  11.248  12.204   7.434
 3242POPC   C1B43831  10.975  11.774   6.178
 3242POPC   C2B43832  11.120  11.796   6.600
 3242POPC   C3B43833  10.953  11.951   6.985
 3242POPC   C4B43834  10.843  11.787   7.372
 3243POPC   NC343835   8.546  12.590   5.371
 3243POPC   PO443836   8.165  13.131   5.515
 3243POPC   GL143837   8.199  13.009   5.928
 3243POPC   GL243838   8.392  12.700   5.866
 3243POPC   C1A43839   8.008  13.054   6.346
 3243POPC   D2A43840   7.894  13.041   6.782
 3243POPC   C3A43841   8.205  13.137   7.100
 3243POPC   C4A43842   8.148  13.138   7.555
 3243POPC   C1B43843   8.116  12.566   6.216
 3243POPC   C2B43844   8.165  12.611   6.663
 3243POPC   C3B43845   8.357  12.419   7.021
 3243POPC   C4B43846   8.285  12.683   7.382
 3244POPC   NC343847   5.583  19.234   5.599
 3244POPC   PO443848   5.838  18.709   5.239
 3244POPC   GL143849   6.093  18.769   5.727
 3244POPC   GL243850   6.024  19.138   5.854
 3244POPC   C1A43851   5.981  18.744   6.218
 3244POPC   D2A43852   5.715  18.910   6.565
 3244POPC   C3A43853   5.907  18.866   6.975
 3244POPC   C4A43854   5.863  18.821   7.417
 3244POPC   C1B43855   5.938  19.293   6.291
 3244POPC   C2B43856   5.915  19.338   6.768
 3244POPC   C3B43857   5.674  19.271   7.198
 3244POPC   C4B43858   5.565  19.120   7.682
 3245POPC   NC343859  41.042  40.207   5.431
 3245POPC   PO443860  40.608  39.716   5.368
 3245POPC   GL143861  40.706  39.888   5.744
 3245POPC   GL243862  41.039  39.765   5.805
 3245POPC   C1A43863  40.630  40.050   6.171
 3245POPC   D2A43864  40.812  40.107   6.591
 3245POPC   C3A43865  40.572  40.070   6.954
 3245POPC   C4A43866  40.673  40.113   7.362
 3245POPC   C1B43867  41.146  39.976   6.202
 3245POPC   C2B43868  41.268  39.873   6.637
 3245POPC   C3B43869  41.134  39.977   7.050
 3245POPC   C4B43870  40.971  39.729   7.406
 3246POPC   NC343871  23.679   4.325   4.911
 3246POPC   PO443872  23.754   3.941   5.476
 3246POPC   GL143873  23.810   4.202   5.852
 3246POPC   GL243874  23.452   4.266   5.831
 3246POPC   C1A43875  24.037   4.206   6.287
 3246POPC   D2A43876  23.942   4.414   6.673
 3246POPC   C3A43877  23.995   4.269   7.078
 3246POPC   C4A43878  23.868   4.471   7.487
 3246POPC   C1B43879  23.342   4.463   6.221
 3246POPC   C2B43880  23.428   4.324   6.616
 3246POPC   C3B43881  23.518   4.453   7.007
 3246POPC   C4B43882  23.325   4.363   7.390
 3247POPC   NC343883  26.633  13.080   5.451
 3247POPC   PO443884  27.002  12.498   5.500
 3247POPC   GL143885  26.807  12.725   5.804
 3247POPC   GL243886  27.045  13.005   5.764
 3247POPC   C1A43887  26.707  12.762   6.270
 3247POPC   D2A43888  26.503  12.605   6.663
 3247POPC   C3A43889  26.700  12.674   7.090
 3247POPC   C4A43890  26.774  13.070   7.327
 3247POPC   C1B43891  27.219  12.767   6.130
 3247POPC   C2B43892  27.263  12.916   6.521
 3247POPC   C3B43893  27.057  13.021   6.899
 3247POPC   C4B43894  27.185  12.767   7.236
 3248POPC   NC343895  32.747  30.714   5.470
 3248POPC   PO443896  33.361  30.496   5.681
 3248POPC   GL143897  33.028  30.677   5.887
 3248POPC   GL243898  32.704  30.451   5.906
 3248POPC   C1A43899  32.833  30.881   6.233
 3248POPC   D2A43900  32.827  30.707   6.674
 3248POPC   C3A43901  32.923  30.959   7.053
 3248POPC   C4A43902  33.109  30.923   7.469
 3248POPC   C1B43903  32.918  30.369   6.297
 3248POPC   C2B43904  33.296  30.337   6.542
 3248POPC   C3B43905  33.439  30.379   6.943
 3248POPC   C4B43906  33.084  30.493   7.182
 3249POPC   NC343907  26.423  26.417   5.428
 3249POPC   PO443908  26.036  25.947   5.129
 3249POPC   GL143909  25.989  26.107   5.578
 3249POPC   GL243910  26.033  25.818   5.777
 3249POPC   C1A43911  26.052  26.356   6.002
 3249POPC   D2A43912  26.069  26.537   6.446
 3249POPC   C3A43913  26.210  26.421   6.908
 3249POPC   C4A43914  26.053  26.285   7.342
 3249POPC   C1B43915  26.092  25.881   6.194
 3249POPC   C2B43916  26.147  26.042   6.570
 3249POPC   C3B43917  25.975  25.962   6.949
 3249POPC   C4B43918  26.238  25.815   7.258
 3250POPC   NC343919  13.531  18.432   5.352
 3250POPC   PO443920  13.322  18.103   5.866
 3250POPC   GL143921  13.693  18.211   6.038
 3250POPC   GL243922  13.763  18.489   5.816
 3250POPC   C1A43923  13.745  18.217   6.480
 3250POPC   D2A43924  13.335  18.249   6.681
 3250POPC   C3A43925  13.377  18.078   7.068
 3250POPC   C4A43926  13.843  17.992   7.074
 3250POPC   C1B43927  13.713  18.673   6.223
 3250POPC   C2B43928  13.950  18.685   6.605
 3250POPC   C3B43929  13.767  18.540   6.987
 3250POPC   C4B43930  13.343  18.595   7.064
 3251POPC   NC343931  35.598  28.924   5.350
 3251POPC   PO443932  35.025  29.305   5.472
 3251POPC   GL143933  35.258  29.045   5.744
 3251POPC   GL243934  35.558  29.237   5.748
 3251POPC   C1A43935  35.368  28.973   6.185
 3251POPC   D2A43936  35.595  28.802   6.547
 3251POPC   C3A43937  35.404  28.837   6.964
 3251POPC   C4A43938  35.342  29.095   7.332
 3251POPC   C1B43939  35.613  29.438   6.140
 3251POPC   C2B43940  35.654  29.298   6.528
 3251POPC   C3B43941  35.549  29.356   6.933
 3251POPC   C4B43942  35.871  29.499   7.201
 3252POPC   NC343943   5.695  41.714   5.154
 3252POPC   PO443944   5.682  41.239   5.620
 3252POPC   GL143945   5.930  41.420   5.878
 3252POPC   GL243946   6.135  41.669   5.714
 3252POPC   C1A43947   5.811  41.501   6.297
 3252POPC   D2A43948   5.811  41.396   6.742
 3252POPC   C3A43949   5.658  41.725   7.008
 3252POPC   C4A43950   5.715  41.703   7.441
 3252POPC   C1B43951   6.271  41.655   6.168
 3252POPC   C2B43952   6.127  41.770   6.609
 3252POPC   C3B43953   6.158  41.643   7.079
 3252POPC   C4B43954   6.263  41.196   7.196
 3253POPC   NC343955   9.990  28.083   5.497
 3253POPC   PO443956   9.532  28.486   5.556
 3253POPC   GL143957   9.510  28.418   5.974
 3253POPC   GL243958   9.487  28.051   5.903
 3253POPC   C1A43959   9.760  28.554   6.381
 3253POPC   D2A43960  10.076  28.551   6.744
 3253POPC   C3A43961   9.841  28.444   7.128
 3253POPC   C4A43962   9.444  28.368   7.360
 3253POPC   C1B43963   9.864  28.099   6.164
 3253POPC   C2B43964   9.918  28.057   6.610
 3253POPC   C3B43965  10.107  28.018   7.021
 3253POPC   C4B43966  10.324  27.675   7.201
 3254POPC   NC343967   7.134  40.018   5.488
 3254POPC   PO443968   7.776  40.049   5.500
 3254POPC   GL143969   7.533  40.007   5.844
 3254POPC   GL243970   7.743  40.185   6.016
 3254POPC   C1A43971   7.306  39.999   6.242
 3254POPC   D2A43972   7.158  39.888   6.633
 3254POPC   C3A43973   7.396  39.895   6.997
 3254POPC   C4A43974   7.298  39.789   7.413
 3254POPC   C1B43975   7.569  40.424   6.321
 3254POPC   C2B43976   7.462  40.333   6.728
 3254POPC   C3B43977   7.435  40.407   7.148
 3254POPC   C4B43978   7.634  40.182   7.486
 3255POPC   NC343979  24.288  19.124   5.347
 3255POPC   PO443980  23.638  18.903   5.484
 3255POPC   GL143981  23.582  18.873   5.911
 3255POPC   GL243982  23.887  19.016   5.929
 3255POPC   C1A43983  23.638  18.972   6.360
 3255POPC   D2A43984  23.858  19.126   6.719
 3255POPC   C3A43985  23.580  19.069   7.048
 3255POPC   C4A43986  23.323  18.736   7.168
 3255POPC   C1B43987  24.062  19.246   6.255
 3255POPC   C2B43988  24.276  19.579   6.457
 3255POPC   C3B43989  24.148  19.606   6.880
 3255POPC   C4B43990  24.043  19.286   7.175
 3256POPC   NC343991  21.174  28.185   5.498
 3256POPC   PO443992  21.809  28.082   5.360
 3256POPC   GL143993  21.635  28.187   5.744
 3256POPC   GL243994  21.553  28.548   5.778
 3256POPC   C1A43995  21.430  28.215   6.149
 3256POPC   D2A43996  21.604  28.280   6.557
 3256POPC   C3A43997  21.308  28.167   6.895
 3256POPC   C4A43998  21.104  28.142   7.309
 3256POPC   C1B43999  21.497  28.710   6.265
 3256POPC   C2B44000  21.336  28.701   6.716
 3256POPC   C3B44001  21.349  28.585   7.177
 3256POPC   C4B44002  21.135  28.684   7.597
 3257POPC   NC344003  25.856   4.527   5.409
 3257POPC   PO444004  26.142   3.953   5.333
 3257POPC   GL144005  25.938   4.065   5.727
 3257POPC   GL244006  26.205   3.974   5.926
 3257POPC   C1A44007  25.675   4.142   6.114
 3257POPC   D2A44008  25.579   4.488   6.410
 3257POPC   C3A44009  25.598   4.495   6.860
 3257POPC   C4A44010  25.892   4.754   7.108
 3257POPC   C1B44011  26.136   4.312   6.286
 3257POPC   C2B44012  26.111   4.414   6.761
 3257POPC   C3B44013  25.913   4.222   7.157
 3257POPC   C4B44014  26.045   4.053   7.589
 3258POPC   NC344015  25.516  16.551   5.577
 3258POPC   PO444016  25.045  16.994   5.496
 3258POPC   GL144017  25.068  16.652   5.820
 3258POPC   GL244018  25.350  16.769   6.021
 3258POPC   C1A44019  25.038  16.494   6.281
 3258POPC   D2A44020  25.241  16.789   6.569
 3258POPC   C3A44021  25.145  16.641   6.977
 3258POPC   C4A44022  25.316  16.556   7.355
 3258POPC   C1B44023  25.600  17.085   6.273
 3258POPC   C2B44024  25.540  17.265   6.702
 3258POPC   C3B44025  25.441  17.058   7.124
 3258POPC   C4B44026  25.624  16.930   7.529
 3259POPC   NC344027  27.462   4.426   5.337
 3259POPC   PO444028  27.910   4.016   5.568
 3259POPC   GL144029  27.732   4.415   5.792
 3259POPC   GL244030  27.392   4.592   5.829
 3259POPC   C1A44031  27.619   4.403   6.238
 3259POPC   D2A44032  27.400   4.402   6.605
 3259POPC   C3A44033  27.739   4.314   6.863
 3259POPC   C4A44034  27.701   3.997   7.172
 3259POPC   C1B44035  27.268   4.783   6.241
 3259POPC   C2B44036  27.125   4.831   6.663
 3259POPC   C3B44037  27.368   4.800   7.051
 3259POPC   C4B44038  27.657   4.547   7.314
 3260POPC   NC344039  10.384  15.317   5.317
 3260POPC   PO444040  10.981  14.921   5.440
 3260POPC   GL144041  10.684  14.947   5.791
 3260POPC   GL244042  10.617  15.316   5.821
 3260POPC   C1A44043  10.456  15.032   6.221
 3260POPC   D2A44044  10.322  15.450   6.434
 3260POPC   C3A44045  10.146  15.424   6.881
 3260POPC   C4A44046  10.107  15.246   7.308
 3260POPC   C1B44047  10.840  15.383   6.225
 3260POPC   C2B44048  10.750  15.212   6.623
 3260POPC   C3B44049  10.619  15.125   7.023
 3260POPC   C4B44050  10.921  15.306   7.280
 3261POPC   NC344051  30.983  11.575   5.479
 3261POPC   PO444052  30.555  11.184   5.723
 3261POPC   GL144053  30.852  11.308   5.961
 3261POPC   GL244054  30.839  11.001   6.149
 3261POPC   C1A44055  30.760  11.454   6.392
 3261POPC   D2A44056  30.676  11.157   6.743
 3261POPC   C3A44057  30.833  11.266   7.109
 3261POPC   C4A44058  30.951  11.660   7.215
 3261POPC   C1B44059  30.394  11.028   6.341
 3261POPC   C2B44060  30.223  10.885   6.758
 3261POPC   C3B44061  30.468  10.759   7.114
 3261POPC   C4B44062  30.720  10.936   7.475
 3262POPC   NC344063  42.971  10.089   5.494
 3262POPC   PO444064  43.239   9.474   5.296
 3262POPC   GL144065  43.251   9.675   5.675
 3262POPC   GL244066  42.903   9.636   5.747
 3262POPC   C1A44067  43.257   9.817   6.104
 3262POPC   D2A44068  43.372   9.926   6.501
 3262POPC   C3A44069  43.247   9.763   6.875
 3262POPC   C4A44070  43.222   9.932   7.252
 3262POPC   C1B44071  42.877   9.442   6.151
 3262POPC   C2B44072  42.860   9.607   6.569
 3262POPC   C3B44073  42.735   9.423   6.953
 3262POPC   C4B44074  42.993   9.451   7.292
 3263POPC   NC344075   4.618  10.139   5.286
 3263POPC   PO444076   4.007   9.696   5.304
 3263POPC   GL144077   4.273   9.847   5.678
 3263POPC   GL244078   4.661   9.836   5.699
 3263POPC   C1A44079   4.267   9.730   6.149
 3263POPC   D2A44080   4.122   9.524   6.554
 3263POPC   C3A44081   4.349   9.639   6.907
 3263POPC   C4A44082   4.231   9.571   7.297
 3263POPC   C1B44083   4.766   9.947   6.122
 3263POPC   C2B44084   4.614   9.959   6.563
 3263POPC   C3B44085   4.800   9.937   6.970
 3263POPC   C4B44086   4.768   9.597   7.264
 3264POPC   NC344087  26.566  44.769   5.619
 3264POPC   PO444088  27.150  44.519   5.270
 3264POPC   GL144089  26.949  44.367   5.718
 3264POPC   GL244090  26.601  44.304   5.772
 3264POPC   C1A44091  26.959  44.432   6.203
 3264POPC   D2A44092  27.121  44.732   6.551
 3264POPC   C3A44093  26.879  44.814   6.930
 3264POPC   C4A44094  26.904  44.636   7.330
 3264POPC   C1B44095  26.432  44.406   6.185
 3264POPC   C2B44096  26.586  44.511   6.596
 3264POPC   C3B44097  26.450  44.510   7.024
 3264POPC   C4B44098  26.331  44.468   7.441
 3265POPC   NC344099  25.916  16.471   5.207
 3265POPC   PO444100  26.244  16.982   5.471
 3265POPC   GL144101  26.184  16.765   5.841
 3265POPC   GL244102  25.848  16.768   5.894
 3265POPC   C1A44103  26.258  16.531   6.242
 3265POPC   D2A44104  26.101  16.612   6.661
 3265POPC   C3A44105  26.296  16.468   7.027
 3265POPC   C4A44106  26.168  16.659   7.415
 3265POPC   C1B44107  25.733  16.564   6.292
 3265POPC   C2B44108  25.606  16.453   6.721
 3265POPC   C3B44109  25.760  16.578   7.138
 3265POPC   C4B44110  25.759  16.441   7.619
 3266POPC   NC344111  37.109  26.686   5.220
 3266POPC   PO444112  36.592  27.097   5.269
 3266POPC   GL144113  36.740  26.915   5.661
 3266POPC   GL244114  36.455  26.893   5.857
 3266POPC   C1A44115  37.052  27.022   6.023
 3266POPC   D2A44116  37.247  26.899   6.415
 3266POPC   C3A44117  37.051  27.010   6.798
 3266POPC   C4A44118  37.013  26.727   7.114
 3266POPC   C1B44119  36.638  26.841   6.280
 3266POPC   C2B44120  36.580  26.723   6.702
 3266POPC   C3B44121  36.493  26.701   7.112
 3266POPC   C4B44122  36.329  27.011   7.343
 3267POPC   NC344123   5.934  44.754   5.478
 3267POPC   PO444124   5.870  44.155   5.366
 3267POPC   GL144125   5.826  44.282   5.792
 3267POPC   GL244126   5.624  44.593   5.876
 3267POPC   C1A44127   5.998  44.324   6.217
 3267POPC   D2A44128   6.242  44.464   6.577
 3267POPC   C3A44129   6.059  44.509   6.976
 3267POPC   C4A44130   5.697  44.306   7.172
 3267POPC   C1B44131   5.768  44.895   6.221
 3267POPC   C2B44132   5.895  44.959   6.688
 3267POPC   C3B44133   5.761  44.974   7.167
 3267POPC   C4B44134   5.781   0.059   7.665
 3268POPC   NC344135  41.491  11.552   5.491
 3268POPC   PO444136  41.844  11.007   5.259
 3268POPC   GL144137  41.652  11.101   5.727
 3268POPC   GL244138  41.294  11.239   5.825
 3268POPC   C1A44139  41.601  11.094   6.196
 3268POPC   D2A44140  41.518  11.106   6.631
 3268POPC   C3A44141  41.796  11.334   6.887
 3268POPC   C4A44142  41.942  11.057   7.167
 3268POPC   C1B44143  41.428  11.586   6.170
 3268POPC   C2B44144  41.324  11.737   6.622
 3268POPC   C3B44145  41.306  11.490   7.026
 3268POPC   C4B44146  41.582  11.350   7.388
 3269POPC   NC344147  43.311   5.269   5.534
 3269POPC   PO444148  42.764   5.526   5.602
 3269POPC   GL144149  42.999   5.352   5.981
 3269POPC   GL244150  43.213   5.031   5.968
 3269POPC   C1A44151  43.061   5.235   6.438
 3269POPC   D2A44152  43.261   4.900   6.688
 3269POPC   C3A44153  43.049   4.951   7.095
 3269POPC   C4A44154  42.828   5.217   7.426
 3269POPC   C1B44155  43.487   5.306   6.176
 3269POPC   C2B44156  43.581   5.322   6.608
 3269POPC   C3B44157  43.521   5.155   7.038
 3269POPC   C4B44158  43.594   5.393   7.386
 3270POPC   NC344159   5.753  36.000   5.196
 3270POPC   PO444160   6.196  36.479   5.373
 3270POPC   GL144161   5.923  36.373   5.691
 3270POPC   GL244162   5.904  36.024   5.703
 3270POPC   C1A44163   5.858  36.346   6.132
 3270POPC   D2A44164   5.744  36.039   6.440
 3270POPC   C3A44165   5.806  36.086   6.862
 3270POPC   C4A44166   5.769  36.323   7.209
 3270POPC   C1B44167   6.075  35.882   6.093
 3270POPC   C2B44168   6.212  35.869   6.557
 3270POPC   C3B44169   6.134  35.714   6.981
 3270POPC   C4B44170   5.963  35.887   7.342
 3271POPC   NC344171   3.637  13.059   5.023
 3271POPC   PO444172   3.543  13.630   5.268
 3271POPC   GL144173   3.405  13.759   5.697
 3271POPC   GL244174   3.697  13.583   5.800
 3271POPC   C1A44175   3.537  13.877   6.158
 3271POPC   D2A44176   3.619  13.601   6.514
 3271POPC   C3A44177   3.483  13.769   6.885
 3271POPC   C4A44178   3.664  13.732   7.251
 3271POPC   C1B44179   3.594  13.281   6.122
 3271POPC   C2B44180   3.323  13.129   6.425
 3271POPC   C3B44181   3.446  13.150   6.855
 3271POPC   C4B44182   3.253  13.056   7.254
 3272POPC   NC344183  10.369  22.011   5.402
 3272POPC   PO444184   9.770  22.235   5.428
 3272POPC   GL144185   9.795  22.080   5.825
 3272POPC   GL244186  10.150  22.164   5.867
 3272POPC   C1A44187   9.737  22.305   6.218
 3272POPC   D2A44188   9.375  22.483   6.465
 3272POPC   C3A44189   9.488  22.343   6.877
 3272POPC   C4A44190   9.754  22.460   7.237
 3272POPC   C1B44191  10.043  21.865   6.219
 3272POPC   C2B44192   9.779  21.904   6.592
 3272POPC   C3B44193   9.811  21.979   7.034
 3272POPC   C4B44194  10.167  22.132   7.233
 3273POPC   NC344195  13.748  37.131   5.566
 3273POPC   PO444196  13.652  36.503   5.484
 3273POPC   GL144197  13.515  36.741   5.844
 3273POPC   GL244198  13.829  36.859   5.995
 3273POPC   C1A44199  13.392  36.978   6.227
 3273POPC   D2A44200  13.563  36.995   6.633
 3273POPC   C3A44201  13.425  36.741   6.968
 3273POPC   C4A44202  13.597  36.857   7.366
 3273POPC   C1B44203  13.848  37.222   6.284
 3273POPC   C2B44204  14.036  37.202   6.716
 3273POPC   C3B44205  14.016  37.103   7.179
 3273POPC   C4B44206  14.120  36.876   7.592
 3274POPC   NC344207   6.197  35.037   5.565
 3274POPC   PO444208   5.992  35.635   5.390
 3274POPC   GL144209   5.934  35.479   5.788
 3274POPC   GL244210   5.592  35.592   5.761
 3274POPC   C1A44211   6.131  35.394   6.212
 3274POPC   D2A44212   6.288  35.345   6.634
 3274POPC   C3A44213   6.047  35.209   6.980
 3274POPC   C4A44214   5.976  35.375   7.375
 3274POPC   C1B44215   5.643  35.594   6.208
 3274POPC   C2B44216   5.795  35.560   6.637
 3274POPC   C3B44217   5.626  35.627   7.072
 3274POPC   C4B44218   5.568  35.637   7.550
 3275POPC   NC344219   2.990  40.005   5.352
 3275POPC   PO444220   2.652  39.494   5.244
 3275POPC   GL144221   2.727  39.761   5.722
 3275POPC   GL244222   2.912  40.120   5.827
 3275POPC   C1A44223   2.889  39.777   6.203
 3275POPC   D2A44224   3.176  40.031   6.506
 3275POPC   C3A44225   3.040  40.164   6.917
 3275POPC   C4A44226   2.860  39.936   7.217
 3275POPC   C1B44227   2.585  40.181   6.116
 3275POPC   C2B44228   2.681  40.142   6.538
 3275POPC   C3B44229   2.481  40.039   6.880
 3275POPC   C4B44230   2.329  40.098   7.244
 3276POPC   NC344231  41.058  27.279   5.651
 3276POPC   PO444232  40.743  27.850   5.654
 3276POPC   GL144233  40.745  27.535   5.976
 3276POPC   GL244234  41.058  27.638   6.034
 3276POPC   C1A44235  40.772  27.509   6.431
 3276POPC   D2A44236  41.149  27.740   6.569
 3276POPC   C3A44237  41.120  27.964   6.952
 3276POPC   C4A44238  41.034  27.798   7.321
 3276POPC   C1B44239  41.260  27.327   6.261
 3276POPC   C2B44240  41.153  27.231   6.643
 3276POPC   C3B44241  40.909  27.437   6.951
 3276POPC   C4B44242  41.116  27.303   7.306
 3277POPC   NC344243   4.893  42.613   5.579
 3277POPC   PO444244   5.379  42.182   5.697
 3277POPC   GL144245   5.215  42.504   5.953
 3277POPC   GL244246   5.490  42.667   5.846
 3277POPC   C1A44247   5.063  42.535   6.385
 3277POPC   D2A44248   5.121  42.237   6.741
 3277POPC   C3A44249   4.927  42.411   7.117
 3277POPC   C4A44250   4.854  42.787   7.329
 3277POPC   C1B44251   5.572  42.482   6.303
 3277POPC   C2B44252   5.502  42.602   6.747
 3277POPC   C3B44253   5.458  42.333   7.128
 3277POPC   C4B44254   5.199  41.934   7.154
 3278POPC   NC344255  16.526   5.525   5.550
 3278POPC   PO444256  16.800   6.066   5.291
 3278POPC   GL144257  16.785   6.011   5.732
 3278POPC   GL244258  16.819   6.350   5.842
 3278POPC   C1A44259  16.935   5.982   6.184
 3278POPC   D2A44260  17.012   5.798   6.599
 3278POPC   C3A44261  16.899   5.978   6.999
 3278POPC   C4A44262  16.943   5.856   7.454
 3278POPC   C1B44263  16.567   6.370   6.236
 3278POPC   C2B44264  16.349   6.135   6.567
 3278POPC   C3B44265  16.282   6.199   6.990
 3278POPC   C4B44266  16.465   5.935   7.280
 3279POPC   NC344267  23.536  37.239   5.394
 3279POPC   PO444268  24.021  36.862   5.458
 3279POPC   GL144269  23.705  36.956   5.795
 3279POPC   GL244270  23.559  36.664   5.789
 3279POPC   C1A44271  23.463  37.049   6.192
 3279POPC   D2A44272  23.685  37.078   6.576
 3279POPC   C3A44273  23.467  37.148   6.926
 3279POPC   C4A44274  23.632  37.094   7.332
 3279POPC   C1B44275  23.580  36.550   6.193
 3279POPC   C2B44276  23.768  36.558   6.576
 3279POPC   C3B44277  23.703  36.687   6.995
 3279POPC   C4B44278  23.408  36.459   7.256
 3280POPC   NC344279  36.462  14.894   5.323
 3280POPC   PO444280  35.938  15.332   5.378
 3280POPC   GL144281  36.066  15.083   5.718
 3280POPC   GL244282  36.408  15.148   5.766
 3280POPC   C1A44283  35.927  15.236   6.143
 3280POPC   D2A44284  35.671  15.221   6.506
 3280POPC   C3A44285  35.888  15.100   6.874
 3280POPC   C4A44286  35.927  15.296   7.256
 3280POPC   C1B44287  36.406  15.335   6.170
 3280POPC   C2B44288  36.181  15.467   6.544
 3280POPC   C3B44289  36.330  15.388   6.950
 3280POPC   C4B44290  36.409  15.137   7.319
 3281POPC   NC344291  31.076  23.710   5.437
 3281POPC   PO444292  30.504  23.450   5.658
 3281POPC   GL144293  30.422  23.794   5.887
 3281POPC   GL244294  30.726  23.908   5.815
 3281POPC   C1A44295  30.473  23.700   6.311
 3281POPC   D2A44296  30.589  23.399   6.624
 3281POPC   C3A44297  30.533  23.529   7.029
 3281POPC   C4A44298  30.133  23.475   7.219
 3281POPC   C1B44299  30.972  23.765   6.153
 3281POPC   C2B44300  30.908  23.799   6.587
 3281POPC   C3B44301  31.058  23.643   6.970
 3281POPC   C4B44302  30.964  23.726   7.368
 3282POPC   NC344303  14.230  29.001   5.239
 3282POPC   PO444304  14.663  29.491   5.425
 3282POPC   GL144305  14.423  29.183   5.683
 3282POPC   GL244306  14.080  29.234   5.723
 3282POPC   C1A44307  14.380  29.070   6.110
 3282POPC   D2A44308  14.466  29.380   6.396
 3282POPC   C3A44309  14.543  29.296   6.807
 3282POPC   C4A44310  14.621  29.025   7.154
 3282POPC   C1B44311  13.920  29.304   6.150
 3282POPC   C2B44312  13.966  29.188   6.577
 3282POPC   C3B44313  14.032  29.392   6.980
 3282POPC   C4B44314  14.379  29.500   7.246
 3283POPC   NC344315   2.030  12.547   5.422
 3283POPC   PO444316   2.034  11.847   5.492
 3283POPC   GL144317   2.239  12.168   5.740
 3283POPC   GL244318   1.970  12.277   5.861
 3283POPC   C1A44319   2.330  12.085   6.199
 3283POPC   D2A44320   2.176  11.925   6.605
 3283POPC   C3A44321   2.235  12.081   7.033
 3283POPC   C4A44322   2.171  12.125   7.504
 3283POPC   C1B44323   1.825  11.916   6.137
 3283POPC   C2B44324   1.634  11.838   6.532
 3283POPC   C3B44325   1.746  11.979   6.923
 3283POPC   C4B44326   1.875  11.784   7.265
 3284POPC   NC344327  40.623  44.667   5.679
 3284POPC   PO444328  41.211  44.401   5.725
 3284POPC   GL144329  40.943  44.490   6.037
 3284POPC   GL244330  40.578  44.336   6.054
 3284POPC   C1A44331  41.172  44.608   6.383
 3284POPC   D2A44332  41.043  44.932   6.615
 3284POPC   C3A44333  40.794  44.701   6.859
 3284POPC   C4A44334  40.776  44.609   7.252
 3284POPC   C1B44335  40.384  44.706   6.298
 3284POPC   C2B44336  40.375  44.934   6.697
 3284POPC   C3B44337  40.305  44.701   7.066
 3284POPC   C4B44338  40.376  44.296   7.289
 3285POPC   NC344339  43.158  19.732   5.409
 3285POPC   PO444340  43.598  19.399   5.737
 3285POPC   GL144341  43.310  19.758   5.911
 3285POPC   GL244342  42.920  19.754   5.913
 3285POPC   C1A44343  43.183  19.893   6.360
 3285POPC   D2A44344  42.922  19.932   6.750
 3285POPC   C3A44345  43.132  20.021   7.136
 3285POPC   C4A44346  43.553  20.127   7.176
 3285POPC   C1B44347  42.716  19.645   6.343
 3285POPC   C2B44348  42.529  19.611   6.793
 3285POPC   C3B44349  42.690  19.734   7.211
 3285POPC   C4B44350  43.092  19.587   7.407
 3286POPC   NC344351  20.094  31.242   5.484
 3286POPC   PO444352  19.638  31.724   5.301
 3286POPC   GL144353  19.865  31.618   5.731
 3286POPC   GL244354  19.755  31.277   5.882
 3286POPC   C1A44355  19.996  31.622   6.185
 3286POPC   D2A44356  19.875  31.393   6.574
 3286POPC   C3A44357  19.836  31.526   7.015
 3286POPC   C4A44358  19.542  31.442   7.345
 3286POPC   C1B44359  20.155  31.145   6.116
 3286POPC   C2B44360  20.354  31.199   6.519
 3286POPC   C3B44361  20.193  31.137   6.945
 3286POPC   C4B44362  19.970  31.148   7.359
 3287POPC   NC344363   5.008  21.506   5.068
 3287POPC   PO444364   5.280  21.055   5.471
 3287POPC   GL144365   5.133  21.056   5.904
 3287POPC   GL244366   5.095  21.394   5.923
 3287POPC   C1A44367   5.170  21.095   6.382
 3287POPC   D2A44368   5.127  21.406   6.750
 3287POPC   C3A44369   5.046  21.258   7.188
 3287POPC   C4A44370   5.207  21.169   7.595
 3287POPC   C1B44371   5.453  21.494   6.253
 3287POPC   C2B44372   5.616  21.538   6.693
 3287POPC   C3B44373   5.465  21.540   7.130
 3287POPC   C4B44374   5.245  21.656   7.500
 3288POPC   NC344375   7.666  27.128   5.074
 3288POPC   PO444376   8.132  27.492   5.457
 3288POPC   GL144377   8.178  27.401   5.874
 3288POPC   GL244378   8.482  27.203   5.901
 3288POPC   C1A44379   8.027  27.637   6.262
 3288POPC   D2A44380   8.075  27.849   6.674
 3288POPC   C3A44381   8.086  27.604   7.057
 3288POPC   C4A44382   8.413  27.641   7.368
 3288POPC   C1B44383   8.437  27.312   6.319
 3288POPC   C2B44384   8.473  27.397   6.738
 3288POPC   C3B44385   8.427  27.204   7.099
 3288POPC   C4B44386   8.356  27.150   7.539
 3289POPC   NC344387  36.268  41.290   5.353
 3289POPC   PO444388  36.026  41.799   5.715
 3289POPC   GL144389  36.050  41.397   5.931
 3289POPC   GL244390  36.351  41.202   5.841
 3289POPC   C1A44391  35.924  41.403   6.383
 3289POPC   D2A44392  36.126  41.676   6.703
 3289POPC   C3A44393  35.944  41.650   7.080
 3289POPC   C4A44394  35.717  41.917   7.333
 3289POPC   C1B44395  36.491  41.105   6.225
 3289POPC   C2B44396  36.354  41.204   6.625
 3289POPC   C3B44397  36.425  41.360   7.037
 3289POPC   C4B44398  36.362  41.623   7.371
 3290POPC   NC344399  37.385   6.012   5.181
 3290POPC   PO444400  37.823   5.575   5.181
 3290POPC   GL144401  37.823   5.943   5.617
 3290POPC   GL244402  37.517   6.083   5.864
 3290POPC   C1A44403  37.942   6.073   6.113
 3290POPC   D2A44404  37.953   5.839   6.524
 3290POPC   C3A44405  37.800   5.905   6.965
 3290POPC   C4A44406  37.941   5.647   7.351
 3290POPC   C1B44407  37.491   5.865   6.264
 3290POPC   C2B44408  37.305   5.844   6.654
 3290POPC   C3B44409  37.307   6.078   7.004
 3290POPC   C4B44410  37.457   5.891   7.349
 3291POPC   NC344411  34.368   1.572   5.504
 3291POPC   PO444412  34.947   1.849   5.328
 3291POPC   GL144413  34.865   1.481   5.622
 3291POPC   GL244414  34.656   1.160   5.594
 3291POPC   C1A44415  34.738   1.394   6.068
 3291POPC   D2A44416  34.766   1.368   6.521
 3291POPC   C3A44417  34.529   1.407   6.916
 3291POPC   C4A44418  34.901   1.268   7.138
 3291POPC   C1B44419  34.411   1.002   5.957
 3291POPC   C2B44420  34.400   1.006   6.396
 3291POPC   C3B44421  34.620   0.939   6.769
 3291POPC   C4B44422  34.498   0.981   7.208
 3292POPC   NC344423  40.661  11.052   5.245
 3292POPC   PO444424  41.026  11.610   5.383
 3292POPC   GL144425  40.762  11.374   5.702
 3292POPC   GL244426  40.464  11.531   5.903
 3292POPC   C1A44427  40.881  11.160   6.092
 3292POPC   D2A44428  41.090  11.303   6.458
 3292POPC   C3A44429  41.013  11.104   6.853
 3292POPC   C4A44430  40.985  11.137   7.307
 3292POPC   C1B44431  40.382  11.181   6.163
 3292POPC   C2B44432  40.614  11.021   6.516
 3292POPC   C3B44433  40.485  11.087   6.923
 3292POPC   C4B44434  40.383  11.457   7.176
 3293POPC   NC344435  19.978  32.019   5.421
 3293POPC   PO444436  20.122  32.630   5.571
 3293POPC   GL144437  19.816  32.438   5.841
 3293POPC   GL244438  19.888  32.096   5.919
 3293POPC   C1A44439  19.710  32.381   6.295
 3293POPC   D2A44440  19.914  32.380   6.691
 3293POPC   C3A44441  19.698  32.353   7.090
 3293POPC   C4A44442  19.952  32.374   7.454
 3293POPC   C1B44443  20.143  32.080   6.311
 3293POPC   C2B44444  20.048  31.885   6.694
 3293POPC   C3B44445  20.081  31.991   7.102
 3293POPC   C4B44446  19.754  31.907   7.389
 3294POPC   NC344447   2.175   6.620   5.318
 3294POPC   PO444448   1.501   6.643   5.392
 3294POPC   GL144449   1.800   6.541   5.773
 3294POPC   GL244450   2.197   6.514   5.804
 3294POPC   C1A44451   1.933   6.487   6.217
 3294POPC   D2A44452   1.844   6.767   6.532
 3294POPC   C3A44453   1.766   6.501   6.894
 3294POPC   C4A44454   1.636   6.439   7.325
 3294POPC   C1B44455   2.352   6.841   6.091
 3294POPC   C2B44456   2.328   7.039   6.512
 3294POPC   C3B44457   2.198   6.831   6.882
 3294POPC   C4B44458   2.194   6.551   7.219
 3295POPC   NC344459  15.737   3.851   5.457
 3295POPC   PO444460  16.386   3.586   5.424
 3295POPC   GL144461  16.206   3.452   5.823
 3295POPC   GL244462  15.873   3.595   5.895
 3295POPC   C1A44463  15.962   3.164   6.105
 3295POPC   D2A44464  15.818   3.353   6.497
 3295POPC   C3A44465  15.946   3.170   6.883
 3295POPC   C4A44466  15.766   3.139   7.280
 3295POPC   C1B44467  16.216   3.618   6.279
 3295POPC   C2B44468  16.276   3.561   6.725
 3295POPC   C3B44469  16.072   3.774   7.027
 3295POPC   C4B44470  16.241   4.096   7.252
 3296POPC   NC344471   5.995   3.141   5.239
 3296POPC   PO444472   5.660   3.708   5.245
 3296POPC   GL144473   5.901   3.512   5.631
 3296POPC   GL244474   6.195   3.686   5.761
 3296POPC   C1A44475   5.858   3.568   6.124
 3296POPC   D2A44476   5.978   3.382   6.524
 3296POPC   C3A44477   5.764   3.279   6.916
 3296POPC   C4A44478   6.003   3.238   7.279
 3296POPC   C1B44479   6.283   3.929   6.153
 3296POPC   C2B44480   6.017   3.922   6.528
 3296POPC   C3B44481   6.031   3.723   6.936
 3296POPC   C4B44482   6.073   3.793   7.377
 3297POPC   NC344483  34.849  33.645   5.246
 3297POPC   PO444484  34.373  34.112   5.471
 3297POPC   GL144485  34.692  33.852   5.704
 3297POPC   GL244486  34.554  33.552   5.709
 3297POPC   C1A44487  34.865  33.852   6.130
 3297POPC   D2A44488  34.744  33.683   6.510
 3297POPC   C3A44489  34.887  33.808   6.914
 3297POPC   C4A44490  34.926  34.076   7.263
 3297POPC   C1B44491  34.330  33.773   6.074
 3297POPC   C2B44492  34.273  33.911   6.502
 3297POPC   C3B44493  34.371  33.654   6.885
 3297POPC   C4B44494  34.506  33.771   7.299
 3298POPC   NC344495  35.860  32.004   5.204
 3298POPC   PO444496  36.349  32.335   5.473
 3298POPC   GL144497  36.204  32.142   5.784
 3298POPC   GL244498  35.936  32.405   5.789
 3298POPC   C1A44499  36.403  32.020   6.163
 3298POPC   D2A44500  36.329  32.203   6.553
 3298POPC   C3A44501  36.243  31.915   6.852
 3298POPC   C4A44502  36.303  32.043   7.227
 3298POPC   C1B44503  35.875  32.193   6.177
 3298POPC   C2B44504  35.845  32.048   6.579
 3298POPC   C3B44505  35.845  32.251   6.975
 3298POPC   C4B44506  35.804  32.145   7.401
 3299POPC   NC344507  21.708  34.019   5.395
 3299POPC   PO444508  21.045  33.723   5.316
 3299POPC   GL144509  21.186  33.873   5.734
 3299POPC   GL244510  21.529  33.801   5.810
 3299POPC   C1A44511  21.279  34.038   6.173
 3299POPC   D2A44512  21.568  33.992   6.515
 3299POPC   C3A44513  21.519  34.060   6.958
 3299POPC   C4A44514  21.318  33.812   7.257
 3299POPC   C1B44515  21.754  33.676   6.149
 3299POPC   C2B44516  21.814  33.555   6.560
 3299POPC   C3B44517  21.589  33.530   6.923
 3299POPC   C4B44518  21.655  33.349   7.316
 3300POPC   NC344519  10.865  27.602   5.553
 3300POPC   PO444520  11.502  27.286   5.583
 3300POPC   GL144521  11.287  27.423   5.903
 3300POPC   GL244522  11.307  27.753   5.811
 3300POPC   C1A44523  11.426  27.502   6.308
 3300POPC   D2A44524  11.247  27.572   6.703
 3300POPC   C3A44525  11.525  27.671   6.992
 3300POPC   C4A44526  11.480  27.932   7.376
 3300POPC   C1B44527  11.198  27.949   6.164
 3300POPC   C2B44528  10.995  28.007   6.544
 3300POPC   C3B44529  11.138  28.016   6.957
 3300POPC   C4B44530  10.913  28.107   7.327
 3301POPC   NC344531   9.829  14.618   5.428
 3301POPC   PO444532   9.294  14.254   5.496
 3301POPC   GL144533   9.523  14.424   5.831
 3301POPC   GL244534   9.815  14.207   5.882
 3301POPC   C1A44535   9.510  14.428   6.279
 3301POPC   D2A44536   9.484  14.215   6.647
 3301POPC   C3A44537   9.832  14.260   6.887
 3301POPC   C4A44538   9.912  14.534   7.197
 3301POPC   C1B44539   9.984  14.538   6.133
 3301POPC   C2B44540   9.911  14.638   6.562
 3301POPC   C3B44541  10.259  14.718   6.864
 3301POPC   C4B44542  10.335  14.793   7.306
 3302POPC   NC344543   6.849  43.310   5.220
 3302POPC   PO444544   6.311  42.878   5.376
 3302POPC   GL144545   6.612  42.805   5.742
 3302POPC   GL244546   6.854  43.042   5.739
 3302POPC   C1A44547   6.670  42.913   6.199
 3302POPC   D2A44548   6.562  43.134   6.544
 3302POPC   C3A44549   6.592  42.987   6.965
 3302POPC   C4A44550   6.354  43.018   7.351
 3302POPC   C1B44551   7.007  43.277   6.103
 3302POPC   C2B44552   6.983  43.416   6.503
 3302POPC   C3B44553   6.754  43.495   6.856
 3302POPC   C4B44554   6.905  43.365   7.242
 3303POPC   NC344555  18.672  33.844   5.172
 3303POPC   PO444556  18.146  33.912   5.415
 3303POPC   GL144557  18.288  33.861   5.818
 3303POPC   GL244558  18.633  33.920   5.779
 3303POPC   C1A44559  18.172  33.859   6.256
 3303POPC   D2A44560  18.357  33.772   6.673
 3303POPC   C3A44561  18.336  34.083   7.028
 3303POPC   C4A44562  18.309  33.969   7.506
 3303POPC   C1B44563  18.678  33.930   6.252
 3303POPC   C2B44564  18.808  34.024   6.704
 3303POPC   C3B44565  18.806  34.204   7.126
 3303POPC   C4B44566  18.810  33.998   7.538
 3304POPC   NC344567  38.883  11.220   5.405
 3304POPC   PO444568  39.529  11.229   5.417
 3304POPC   GL144569  39.427  11.242   5.840
 3304POPC   GL244570  39.083  11.374   5.844
 3304POPC   C1A44571  39.496  11.360   6.272
 3304POPC   D2A44572  39.429  11.693   6.574
 3304POPC   C3A44573  39.556  11.650   7.008
 3304POPC   C4A44574  39.486  11.248   7.196
 3304POPC   C1B44575  38.996  11.189   6.237
 3304POPC   C2B44576  39.129  11.259   6.659
 3304POPC   C3B44577  39.042  11.528   6.993
 3304POPC   C4B44578  38.967  11.616   7.417
 3305POPC   NC344579  27.831  10.055   5.371
 3305POPC   PO444580  27.163  10.100   5.446
 3305POPC   GL144581  27.481   9.922   5.748
 3305POPC   GL244582  27.555   9.573   5.811
 3305POPC   C1A44583  27.576   9.974   6.185
 3305POPC   D2A44584  27.268  10.120   6.497
 3305POPC   C3A44585  27.359  10.080   6.915
 3305POPC   C4A44586  27.527   9.954   7.333
 3305POPC   C1B44587  27.408   9.491   6.231
 3305POPC   C2B44588  27.575   9.662   6.619
 3305POPC   C3B44589  27.796   9.629   6.998
 3305POPC   C4B44590  27.857   9.266   7.235
 3306POPC   NC344591  21.460   4.228   5.351
 3306POPC   PO444592  20.898   4.571   5.551
 3306POPC   GL144593  21.294   4.516   5.786
 3306POPC   GL244594  21.426   4.205   5.873
 3306POPC   C1A44595  21.566   4.524   6.207
 3306POPC   D2A44596  21.543   4.337   6.619
 3306POPC   C3A44597  21.146   4.408   6.903
 3306POPC   C4A44598  21.125   4.742   7.258
 3306POPC   C1B44599  21.730   4.024   6.211
 3306POPC   C2B44600  21.687   3.838   6.638
 3306POPC   C3B44601  21.507   4.037   7.025
 3306POPC   C4B44602  21.093   3.979   7.182
 3307POPC   NC344603  13.934   3.494   5.275
 3307POPC   PO444604  14.532   3.607   5.236
 3307POPC   GL144605  14.267   3.647   5.655
 3307POPC   GL244606  14.088   3.336   5.751
 3307POPC   C1A44607  14.056   3.731   6.090
 3307POPC   D2A44608  13.933   3.656   6.539
 3307POPC   C3A44609  14.295   3.758   6.850
 3307POPC   C4A44610  14.664   3.541   7.027
 3307POPC   C1B44611  14.105   3.185   6.205
 3307POPC   C2B44612  14.005   2.983   6.593
 3307POPC   C3B44613  14.000   3.281   6.900
 3307POPC   C4B44614  14.232   3.402   7.244
 3308POPC   NC344615  31.632  36.459   5.110
 3308POPC   PO444616  31.352  37.014   5.434
 3308POPC   GL144617  31.484  36.926   5.842
 3308POPC   GL244618  31.651  37.190   5.911
 3308POPC   C1A44619  31.534  36.763   6.269
 3308POPC   D2A44620  31.351  36.525   6.609
 3308POPC   C3A44621  31.385  36.793   6.983
 3308POPC   C4A44622  31.704  36.796   7.296
 3308POPC   C1B44623  31.768  37.202   6.344
 3308POPC   C2B44624  31.793  36.992   6.744
 3308POPC   C3B44625  31.661  37.249   7.100
 3308POPC   C4B44626  31.531  37.325   7.528
 3309POPC   NC344627  36.794  32.406   5.344
 3309POPC   PO444628  37.056  31.780   5.599
 3309POPC   GL144629  37.021  32.194   5.789
 3309POPC   GL244630  36.696  32.341   5.844
 3309POPC   C1A44631  37.072  32.350   6.217
 3309POPC   D2A44632  37.214  32.131   6.598
 3309POPC   C3A44633  37.137  32.376   6.943
 3309POPC   C4A44634  37.146  32.485   7.359
 3309POPC   C1B44635  36.527  32.524   6.197
 3309POPC   C2B44636  36.739  32.532   6.607
 3309POPC   C3B44637  36.616  32.437   7.021
 3309POPC   C4B44638  36.245  32.539   7.272
 3310POPC   NC344639  24.945  38.545   5.378
 3310POPC   PO444640  24.368  38.084   5.456
 3310POPC   GL144641  24.533  38.413   5.721
 3310POPC   GL244642  24.864  38.315   5.832
 3310POPC   C1A44643  24.528  38.575   6.156
 3310POPC   D2A44644  24.413  38.910   6.447
 3310POPC   C3A44645  24.463  38.797   6.864
 3310POPC   C4A44646  24.440  38.489   7.192
 3310POPC   C1B44647  24.913  38.171   6.278
 3310POPC   C2B44648  24.630  38.099   6.601
 3310POPC   C3B44649  24.689  38.040   7.039
 3310POPC   C4B44650  24.755  38.174   7.467
 3311POPC   NC344651   4.473  40.576   5.422
 3311POPC   PO444652   3.875  40.852   5.472
 3311POPC   GL144653   4.189  40.781   5.811
 3311POPC   GL244654   4.463  40.986   5.699
 3311POPC   C1A44655   4.199  40.659   6.250
 3311POPC   D2A44656   4.272  40.731   6.682
 3311POPC   C3A44657   3.958  40.631   6.970
 3311POPC   C4A44658   4.164  40.641   7.322
 3311POPC   C1B44659   4.506  41.082   6.118
 3311POPC   C2B44660   4.647  41.043   6.527
 3311POPC   C3B44661   4.565  41.133   6.931
 3311POPC   C4B44662   4.694  41.070   7.343
 3312POPC   NC344663  12.262  31.434   5.404
 3312POPC   PO444664  11.894  31.890   5.663
 3312POPC   GL144665  11.967  31.493   5.867
 3312POPC   GL244666  12.246  31.227   5.878
 3312POPC   C1A44667  12.052  31.425   6.301
 3312POPC   D2A44668  12.081  31.233   6.686
 3312POPC   C3A44669  12.216  31.459   7.055
 3312POPC   C4A44670  12.236  31.870   7.240
 3312POPC   C1B44671  12.346  31.007   6.285
 3312POPC   C2B44672  12.436  30.877   6.720
 3312POPC   C3B44673  12.598  31.095   7.091
 3312POPC   C4B44674  12.342  31.223   7.497
 3313POPC   NC344675  35.547  44.988   5.402
 3313POPC   PO444676  34.985  44.536   5.442
 3313POPC   GL144677  35.196  44.442   5.808
 3313POPC   GL244678  35.520  44.602   5.764
 3313POPC   C1A44679  35.328  44.613   6.243
 3313POPC   D2A44680  35.325  44.480   6.644
 3313POPC   C3A44681  35.530  44.589   7.002
 3313POPC   C4A44682  35.379  44.345   7.367
 3313POPC   C1B44683  35.622  44.969   6.050
 3313POPC   C2B44684  35.671  44.979   6.501
 3313POPC   C3B44685  35.629   0.110   6.933
 3313POPC   C4B44686  35.447   0.010   7.336
 3314POPC   NC344687  27.280  20.741   5.387
 3314POPC   PO444688  27.820  20.350   5.435
 3314POPC   GL144689  27.603  20.490   5.760
 3314POPC   GL244690  27.646  20.841   5.750
 3314POPC   C1A44691  27.619  20.312   6.150
 3314POPC   D2A44692  27.913  20.317   6.483
 3314POPC   C3A44693  27.628  20.219   6.823
 3314POPC   C4A44694  27.400  20.392   7.178
 3314POPC   C1B44695  27.858  20.762   6.140
 3314POPC   C2B44696  27.618  20.713   6.513
 3314POPC   C3B44697  27.735  20.714   6.914
 3314POPC   C4B44698  27.498  20.915   7.194
 3315POPC   NC344699  30.964  20.147   5.443
 3315POPC   PO444700  30.229  20.252   5.371
 3315POPC   GL144701  30.484  20.045   5.715
 3315POPC   GL244702  30.503  19.697   5.729
 3315POPC   C1A44703  30.718  20.104   6.117
 3315POPC   D2A44704  30.933  19.884   6.453
 3315POPC   C3A44705  30.737  19.960   6.861
 3315POPC   C4A44706  30.811  20.030   7.299
 3315POPC   C1B44707  30.677  19.600   6.114
 3315POPC   C2B44708  30.715  19.359   6.476
 3315POPC   C3B44709  30.756  19.286   6.900
 3315POPC   C4B44710  30.758  19.527   7.247
 3316POPC   NC344711  13.462  26.320   5.673
 3316POPC   PO444712  13.042  25.998   5.267
 3316POPC   GL144713  12.958  26.114   5.706
 3316POPC   GL244714  12.754  25.835   5.837
 3316POPC   C1A44715  13.045  26.130   6.176
 3316POPC   D2A44716  13.205  26.082   6.607
 3316POPC   C3A44717  13.071  26.370   6.948
 3316POPC   C4A44718  13.063  26.214   7.375
 3316POPC   C1B44719  12.519  25.962   6.224
 3316POPC   C2B44720  12.677  26.010   6.643
 3316POPC   C3B44721  12.837  25.906   7.045
 3316POPC   C4B44722  12.561  25.956   7.412
 3317POPC   NC344723  10.163  25.104   5.451
 3317POPC   PO444724  10.722  25.505   5.544
 3317POPC   GL144725  10.406  25.387   5.819
 3317POPC   GL244726  10.461  25.038   5.877
 3317POPC   C1A44727  10.382  25.345   6.290
 3317POPC   D2A44728  10.661  25.514   6.619
 3317POPC   C3A44729  10.528  25.463   7.042
 3317POPC   C4A44730  10.728  25.373   7.423
 3317POPC   C1B44731  10.717  24.917   6.276
 3317POPC   C2B44732  10.585  25.001   6.700
 3317POPC   C3B44733  10.628  24.970   7.128
 3317POPC   C4B44734  10.730  24.786   7.490
 3318POPC   NC344735  15.855  11.892   5.437
 3318POPC   PO444736  15.407  11.549   5.516
 3318POPC   GL144737  15.546  11.826   5.889
 3318POPC   GL244738  15.917  11.926   5.950
 3318POPC   C1A44739  15.601  11.957   6.354
 3318POPC   D2A44740  15.791  12.270   6.640
 3318POPC   C3A44741  15.975  12.165   7.046
 3318POPC   C4A44742  16.068  11.963   7.448
 3318POPC   C1B44743  16.116  11.953   6.386
 3318POPC   C2B44744  16.353  11.893   6.804
 3318POPC   C3B44745  16.508  12.087   7.193
 3318POPC   C4B44746  16.503  12.111   7.673
 3319POPC   NC344747   3.816  10.113   5.380
 3319POPC   PO444748   3.388  10.683   5.343
 3319POPC   GL144749   3.425  10.435   5.720
 3319POPC   GL244750   3.390  10.091   5.742
 3319POPC   C1A44751   3.296  10.410   6.170
 3319POPC   D2A44752   3.221  10.650   6.564
 3319POPC   C3A44753   3.567  10.866   6.789
 3319POPC   C4A44754   3.613  10.805   7.235
 3319POPC   C1B44755   3.751  10.155   6.066
 3319POPC   C2B44756   3.805  10.459   6.428
 3319POPC   C3B44757   3.683  10.387   6.863
 3319POPC   C4B44758   3.590  10.255   7.314
 3320POPC   NC344759  27.656  10.883   5.674
 3320POPC   PO444760  28.085  10.456   5.290
 3320POPC   GL144761  27.796  10.356   5.767
 3320POPC   GL244762  27.432  10.436   5.709
 3320POPC   C1A44763  27.885  10.388   6.269
 3320POPC   D2A44764  27.809  10.125   6.658
 3320POPC   C3A44765  27.803  10.303   7.086
 3320POPC   C4A44766  27.726  10.612   7.449
 3320POPC   C1B44767  27.409  10.456   6.143
 3320POPC   C2B44768  27.545  10.574   6.591
 3320POPC   C3B44769  27.477  10.687   7.011
 3320POPC   C4B44770  27.278  10.401   7.295
 3321POPC   NC344771  44.044   7.671   5.419
 3321POPC   PO444772  44.037   6.995   5.549
 3321POPC   GL144773  44.206   7.345   5.793
 3321POPC   GL244774  43.867   7.422   5.869
 3321POPC   C1A44775  44.153   7.623   6.216
 3321POPC   D2A44776  43.830   7.496   6.490
 3321POPC   C3A44777  43.915   7.566   6.915
 3321POPC   C4A44778  43.766   7.897   7.150
 3321POPC   C1B44779  44.049   7.109   6.206
 3321POPC   C2B44780  43.972   7.004   6.622
 3321POPC   C3B44781  44.118   7.117   7.045
 3321POPC   C4B44782  43.941   7.173   7.444
 3322POPC   NC344783  25.268  32.534   5.394
 3322POPC   PO444784  25.380  31.889   5.394
 3322POPC   GL144785  25.331  32.178   5.815
 3322POPC   GL244786  25.180  32.519   5.880
 3322POPC   C1A44787  25.259  32.264   6.293
 3322POPC   D2A44788  25.091  32.417   6.653
 3322POPC   C3A44789  25.179  32.117   6.905
 3322POPC   C4A44790  25.401  32.120   7.244
 3322POPC   C1B44791  25.582  32.609   6.099
 3322POPC   C2B44792  25.726  32.474   6.507
 3322POPC   C3B44793  25.532  32.496   6.882
 3322POPC   C4B44794  25.208  32.587   7.169
 3323POPC   NC344795   5.571  20.714   5.366
 3323POPC   PO444796   6.110  20.444   5.541
 3323POPC   GL144797   5.775  20.547   5.835
 3323POPC   GL244798   5.996  20.752   5.930
 3323POPC   C1A44799   5.727  20.595   6.312
 3323POPC   D2A44800   5.885  20.482   6.689
 3323POPC   C3A44801   5.609  20.577   6.983
 3323POPC   C4A44802   5.592  20.520   7.403
 3323POPC   C1B44803   6.157  20.921   6.244
 3323POPC   C2B44804   6.268  20.824   6.609
 3323POPC   C3B44805   6.010  20.930   6.925
 3323POPC   C4B44806   6.026  20.732   7.262
 3324POPC   NC344807  33.424  28.474   5.491
 3324POPC   PO444808  33.795  27.903   5.481
 3324POPC   GL144809  33.723  28.184   5.834
 3324POPC   GL244810  33.916  28.480   5.755
 3324POPC   C1A44811  33.584  28.521   6.151
 3324POPC   D2A44812  33.710  28.649   6.567
 3324POPC   C3A44813  33.502  28.355   6.853
 3324POPC   C4A44814  33.517  28.385   7.289
 3324POPC   C1B44815  34.094  28.385   6.181
 3324POPC   C2B44816  33.993  28.236   6.609
 3324POPC   C3B44817  33.957  28.479   7.014
 3324POPC   C4B44818  33.977  28.224   7.380
 3325POPC   NC344819   9.529  12.996   5.470
 3325POPC   PO444820   9.008  12.541   5.438
 3325POPC   GL144821   8.911  12.741   5.778
 3325POPC   GL244822   9.090  13.037   5.717
 3325POPC   C1A44823   8.913  12.605   6.187
 3325POPC   D2A44824   8.666  12.559   6.549
 3325POPC   C3A44825   8.658  12.794   6.903
 3325POPC   C4A44826   8.793  12.781   7.346
 3325POPC   C1B44827   9.272  12.964   6.132
 3325POPC   C2B44828   9.117  12.885   6.559
 3325POPC   C3B44829   9.159  12.802   6.983
 3325POPC   C4B44830   9.267  13.160   7.203
 3326POPC   NC344831  31.395  14.961   5.501
 3326POPC   PO444832  31.573  15.580   5.326
 3326POPC   GL144833  31.438  15.426   5.763
 3326POPC   GL244834  31.738  15.270   5.788
 3326POPC   C1A44835  31.252  15.196   6.159
 3326POPC   D2A44836  31.107  14.955   6.556
 3326POPC   C3A44837  31.341  14.970   6.984
 3326POPC   C4A44838  31.459  15.367   7.252
 3326POPC   C1B44839  31.764  15.177   6.210
 3326POPC   C2B44840  31.599  15.274   6.606
 3326POPC   C3B44841  31.824  15.168   6.961
 3326POPC   C4B44842  31.891  14.954   7.339
 3327POPC   NC344843  44.401  40.317   5.340
 3327POPC   PO444844  44.793  39.764   5.496
 3327POPC   GL144845  44.639  39.934   5.886
 3327POPC   GL244846  44.456  40.224   5.834
 3327POPC   C1A44847  44.723  39.943   6.328
 3327POPC   D2A44848  44.481  39.838   6.700
 3327POPC   C3A44849  44.737  39.639   6.987
 3327POPC   C4A44850  44.916  39.878   7.307
 3327POPC   C1B44851  44.420  40.470   6.182
 3327POPC   C2B44852  44.531  40.345   6.592
 3327POPC   C3B44853  44.469  40.266   7.032
 3327POPC   C4B44854  44.494  40.153   7.458
 3328POPC   NC344855   6.473   3.987   5.475
 3328POPC   PO444856   6.516   3.335   5.340
 3328POPC   GL144857   6.562   3.314   5.765
 3328POPC   GL244858   6.714   3.657   5.830
 3328POPC   C1A44859   6.394   3.425   6.184
 3328POPC   D2A44860   6.427   3.608   6.589
 3328POPC   C3A44861   6.346   3.316   6.916
 3328POPC   C4A44862   6.491   3.526   7.293
 3328POPC   C1B44863   6.913   3.349   6.131
 3328POPC   C2B44864   6.743   3.196   6.522
 3328POPC   C3B44865   6.843   3.344   6.920
 3328POPC   C4B44866   6.900   3.233   7.321
 3329POPC   NC344867  28.454   9.301   5.579
 3329POPC   PO444868  28.606   8.720   5.408
 3329POPC   GL144869  28.543   8.803   5.826
 3329POPC   GL244870  28.909   8.846   5.851
 3329POPC   C1A44871  28.281   8.782   6.226
 3329POPC   D2A44872  28.236   8.620   6.671
 3329POPC   C3A44873  28.108   8.863   7.021
 3329POPC   C4A44874  28.080   8.832   7.457
 3329POPC   C1B44875  28.761   9.053   6.215
 3329POPC   C2B44876  28.548   9.031   6.593
 3329POPC   C3B44877  28.646   8.889   6.979
 3329POPC   C4B44878  28.521   9.047   7.353
 3330POPC   NC344879  11.086   8.561   5.401
 3330POPC   PO444880  11.483   9.033   5.099
 3330POPC   GL144881  11.409   9.000   5.564
 3330POPC   GL244882  11.464   8.699   5.755
 3330POPC   C1A44883  11.290   9.102   6.021
 3330POPC   D2A44884  11.215   9.296   6.454
 3330POPC   C3A44885  11.172   8.986   6.824
 3330POPC   C4A44886  11.186   9.041   7.286
 3330POPC   C1B44887  11.664   8.614   6.155
 3330POPC   C2B44888  11.516   8.544   6.591
 3330POPC   C3B44889  11.553   8.654   7.052
 3330POPC   C4B44890  11.458   8.694   7.543
 3331POPC   NC344891  14.782   1.688   5.428
 3331POPC   PO444892  15.219   1.182   5.356
 3331POPC   GL144893  15.262   1.140   5.789
 3331POPC   GL244894  14.931   1.323   5.785
 3331POPC   C1A44895  15.477   1.148   6.212
 3331POPC   D2A44896  15.449   1.409   6.587
 3331POPC   C3A44897  15.286   1.132   6.860
 3331POPC   C4A44898  15.407   0.959   7.229
 3331POPC   C1B44899  15.065   1.436   6.196
 3331POPC   C2B44900  14.918   1.575   6.574
 3331POPC   C3B44901  14.890   1.457   6.968
 3331POPC   C4B44902  15.264   1.485   7.211
 3332POPC   NC344903  10.565   9.884   5.429
 3332POPC   PO444904  10.152   9.388   5.339
 3332POPC   GL144905  10.288   9.568   5.768
 3332POPC   GL244906  10.263   9.929   5.834
 3332POPC   C1A44907  10.577   9.647   6.177
 3332POPC   D2A44908  10.837   9.641   6.582
 3332POPC   C3A44909  10.717   9.783   7.007
 3332POPC   C4A44910  10.370   9.645   7.223
 3332POPC   C1B44911  10.374  10.108   6.222
 3332POPC   C2B44912  10.418   9.954   6.637
 3332POPC   C3B44913  10.321  10.125   7.036
 3332POPC   C4B44914  10.458  10.087   7.452
 3333POPC   NC344915  43.776  29.579   5.080
 3333POPC   PO444916  43.964  29.036   5.403
 3333POPC   GL144917  43.953  28.882   5.811
 3333POPC   GL244918  43.592  28.770   5.792
 3333POPC   C1A44919  44.122  29.031   6.199
 3333POPC   D2A44920  43.939  29.342   6.498
 3333POPC   C3A44921  44.117  29.290   6.895
 3333POPC   C4A44922  44.073  29.340   7.342
 3333POPC   C1B44923  43.614  29.035   6.197
 3333POPC   C2B44924  43.619  28.936   6.638
 3333POPC   C3B44925  43.757  28.982   7.083
 3333POPC   C4B44926  44.205  28.853   7.148
 3334POPC   NC344927  31.613  44.026   5.470
 3334POPC   PO444928  32.072  44.230   5.905
 3334POPC   GL144929  31.649  44.070   5.991
 3334POPC   GL244930  31.488  43.755   5.913
 3334POPC   C1A44931  31.431  44.119   6.374
 3334POPC   D2A44932  31.630  44.322   6.730
 3334POPC   C3A44933  31.523  44.116   7.122
 3334POPC   C4A44934  31.617  44.009   7.538
 3334POPC   C1B44935  31.175  43.675   6.277
 3334POPC   C2B44936  31.083  43.774   6.735
 3334POPC   C3B44937  31.246  43.479   7.089
 3334POPC   C4B44938  31.294  43.510   7.558
 3335POPC   NC344939  26.405  24.845   5.420
 3335POPC   PO444940  26.937  25.252   5.428
 3335POPC   GL144941  26.879  25.089   5.794
 3335POPC   GL244942  26.527  25.204   5.788
 3335POPC   C1A44943  26.820  25.146   6.238
 3335POPC   D2A44944  26.806  25.493   6.534
 3335POPC   C3A44945  26.888  25.274   6.893
 3335POPC   C4A44946  27.094  25.296   7.257
 3335POPC   C1B44947  26.292  25.098   6.158
 3335POPC   C2B44948  26.423  24.888   6.544
 3335POPC   C3B44949  26.392  25.094   6.945
 3335POPC   C4B44950  26.514  25.364   7.261
 3336POPC   NC344951  39.212  42.786   5.640
 3336POPC   PO444952  39.311  42.095   5.560
 3336POPC   GL144953  39.104  42.208   5.886
 3336POPC   GL244954  39.234  42.516   6.059
 3336POPC   C1A44955  38.901  42.189   6.257
 3336POPC   D2A44956  38.975  42.302   6.678
 3336POPC   C3A44957  38.929  41.968   6.980
 3336POPC   C4A44958  39.008  41.978   7.419
 3336POPC   C1B44959  39.502  42.215   6.247
 3336POPC   C2B44960  39.676  42.192   6.664
 3336POPC   C3B44961  39.428  42.255   7.040
 3336POPC   C4B44962  39.011  42.456   7.169
 3337POPC   NC344963  15.544   2.924   5.546
 3337POPC   PO444964  14.889   2.964   5.508
 3337POPC   GL144965  15.143   2.776   5.827
 3337POPC   GL244966  15.286   2.468   5.706
 3337POPC   C1A44967  15.222   2.808   6.286
 3337POPC   D2A44968  15.086   2.777   6.736
 3337POPC   C3A44969  15.245   2.952   7.104
 3337POPC   C4A44970  15.359   2.727   7.448
 3337POPC   C1B44971  14.965   2.404   6.085
 3337POPC   C2B44972  14.972   2.294   6.517
 3337POPC   C3B44973  14.789   2.351   6.906
 3337POPC   C4B44974  14.891   2.580   7.254
 3338POPC   NC344975  11.063  25.321   5.275
 3338POPC   PO444976  11.675  25.240   5.395
 3338POPC   GL144977  11.324  25.195   5.715
 3338POPC   GL244978  10.953  25.090   5.733
 3338POPC   C1A44979  11.373  25.120   6.151
 3338POPC   D2A44980  11.582  25.290   6.524
 3338POPC   C3A44981  11.513  25.141   6.943
 3338POPC   C4A44982  11.603  25.423   7.274
 3338POPC   C1B44983  10.916  25.349   6.133
 3338POPC   C2B44984  11.057  25.201   6.546
 3338POPC   C3B44985  11.000  25.287   6.946
 3338POPC   C4B44986  11.119  25.104   7.276
 3339POPC   NC344987  44.839  23.520   5.175
 3339POPC   PO444988  44.344  23.920   5.132
 3339POPC   GL144989  44.544  23.662   5.582
 3339POPC   GL244990  44.318  23.511   5.909
 3339POPC   C1A44991  44.781  23.626   6.027
 3339POPC   D2A44992  44.532  23.486   6.435
 3339POPC   C3A44993  44.632  23.609   6.878
 3339POPC   C4A44994  44.851  23.825   7.200
 3339POPC   C1B44995  44.382  23.909   6.187
 3339POPC   C2B44996  44.598  24.069   6.586
 3339POPC   C3B44997  44.550  24.197   7.027
 3339POPC   C4B44998  44.370  23.934   7.371
 3340POPC   NC344999   2.480  11.894   5.362
 3340POPC   PO445000   2.562  12.547   5.433
 3340POPC   GL145001   2.774  12.214   5.721
 3340POPC   GL245002   2.642  11.876   5.849
 3340POPC   C1A45003   2.997  12.134   6.117
 3340POPC   D2A45004   2.767  12.049   6.484
 3340POPC   C3A45005   2.883  12.228   6.861
 3340POPC   C4A45006   2.692  12.066   7.237
 3340POPC   C1B45007   2.834  11.626   6.192
 3340POPC   C2B45008   3.010  11.636   6.627
 3340POPC   C3B45009   3.084  11.791   7.050
 3340POPC   C4B45010   3.099  11.762   7.528
 3341POPC   NC345011  18.804  42.156   5.508
 3341POPC   PO445012  18.159  42.239   5.487
 3341POPC   GL145013  18.284  42.432   5.859
 3341POPC   GL245014  18.620  42.516   5.812
 3341POPC   C1A45015  18.332  42.555   6.268
 3341POPC   D2A45016  18.079  42.591   6.629
 3341POPC   C3A45017  18.059  42.416   6.980
 3341POPC   C4A45018  18.234  42.585   7.314
 3341POPC   C1B45019  18.724  42.257   6.153
 3341POPC   C2B45020  18.768  42.464   6.530
 3341POPC   C3B45021  18.541  42.483   6.888
 3341POPC   C4B45022  18.497  42.159   7.177
 3342POPC   NC345023  44.444   4.787   5.561
 3342POPC   PO445024  44.484   5.486   5.402
 3342POPC   GL145025  44.554   5.252   5.792
 3342POPC   GL245026  44.874   5.271   5.947
 3342POPC   C1A45027  44.465   5.178   6.240
 3342POPC   D2A45028  44.603   5.262   6.670
 3342POPC   C3A45029  44.397   5.061   7.015
 3342POPC   C4A45030  44.428   5.420   7.234
 3342POPC   C1B45031  44.953   4.968   6.288
 3342POPC   C2B45032  44.961   4.922   6.731
 3342POPC   C3B45033  44.902   5.146   7.112
 3342POPC   C4B45034  44.978   4.842   7.421
 3343POPC   NC345035  25.746  13.106   5.462
 3343POPC   PO445036  26.280  12.684   5.441
 3343POPC   GL145037  25.992  12.725   5.828
 3343POPC   GL245038  25.702  12.470   5.833
 3343POPC   C1A45039  26.152  12.832   6.289
 3343POPC   D2A45040  26.203  13.065   6.701
 3343POPC   C3A45041  26.219  12.797   7.067
 3343POPC   C4A45042  26.388  12.812   7.502
 3343POPC   C1B45043  25.714  12.579   6.275
 3343POPC   C2B45044  25.808  12.734   6.687
 3343POPC   C3B45045  25.754  12.979   7.035
 3343POPC   C4B45046  25.512  13.190   7.308
 3344POPC   NC345047  36.091  11.897   5.411
 3344POPC   PO445048  36.144  12.511   5.315
 3344POPC   GL145049  36.189  12.301   5.737
 3344POPC   GL245050  35.899  12.145   5.831
 3344POPC   C1A45051  36.309  12.270   6.186
 3344POPC   D2A45052  36.051  12.196   6.555
 3344POPC   C3A45053  36.295  12.178   6.917
 3344POPC   C4A45054  36.211  12.236   7.337
 3344POPC   C1B45055  36.013  11.840   6.125
 3344POPC   C2B45056  35.811  11.728   6.504
 3344POPC   C3B45057  35.897  11.827   6.918
 3344POPC   C4B45058  35.993  11.768   7.344
 3345POPC   NC345059  21.500  26.158   5.297
 3345POPC   PO445060  21.090  25.750   5.630
 3345POPC   GL145061  21.452  26.042   5.778
 3345POPC   GL245062  21.208  26.147   6.003
 3345POPC   C1A45063  21.661  26.131   6.202
 3345POPC   D2A45064  21.613  25.947   6.625
 3345POPC   C3A45065  21.586  26.105   7.045
 3345POPC   C4A45066  21.531  25.788   7.398
 3345POPC   C1B45067  21.162  25.922   6.399
 3345POPC   C2B45068  21.129  26.114   6.812
 3345POPC   C3B45069  21.106  26.056   7.248
 3345POPC   C4B45070  21.047  25.712   7.510
 3346POPC   NC345071  29.601  15.487   5.332
 3346POPC   PO445072  30.160  14.987   5.398
 3346POPC   GL145073  29.953  15.198   5.720
 3346POPC   GL245074  29.631  15.092   5.702
 3346POPC   C1A45075  29.841  15.201   6.181
 3346POPC   D2A45076  30.066  15.066   6.563
 3346POPC   C3A45077  30.015  15.237   6.954
 3346POPC   C4A45078  29.713  15.451   7.190
 3346POPC   C1B45079  29.579  14.788   6.029
 3346POPC   C2B45080  29.659  14.748   6.437
 3346POPC   C3B45081  29.569  14.661   6.838
 3346POPC   C4B45082  29.720  14.891   7.164
 3347POPC   NC345083  40.320  25.330   5.472
 3347POPC   PO445084  39.558  25.543   5.435
 3347POPC   GL145085  39.883  25.451   5.735
 3347POPC   GL245086  39.883  25.085   5.705
 3347POPC   C1A45087  40.131  25.430   6.126
 3347POPC   D2A45088  39.987  25.299   6.528
 3347POPC   C3A45089  40.134  25.176   6.911
 3347POPC   C4A45090  39.920  25.451   7.189
 3347POPC   C1B45091  39.808  25.004   6.158
 3347POPC   C2B45092  39.768  24.847   6.633
 3347POPC   C3B45093  39.656  24.995   7.069
 3347POPC   C4B45094  39.621  25.178   7.490
 3348POPC   NC345095  29.946   2.251   5.318
 3348POPC   PO445096  30.316   2.739   5.457
 3348POPC   GL145097  30.051   2.730   5.807
 3348POPC   GL245098  29.755   2.535   5.692
 3348POPC   C1A45099  30.075   2.938   6.226
 3348POPC   D2A45100  30.280   2.787   6.605
 3348POPC   C3A45101  30.189   3.000   7.000
 3348POPC   C4A45102  30.023   2.912   7.413
 3348POPC   C1B45103  29.685   2.542   6.139
 3348POPC   C2B45104  29.755   2.697   6.561
 3348POPC   C3B45105  29.878   2.585   6.966
 3348POPC   C4B45106  29.578   2.591   7.288
 3349POPC   NC345107  12.212  36.525   5.302
 3349POPC   PO445108  12.257  35.822   5.436
 3349POPC   GL145109  12.122  35.999   5.800
 3349POPC   GL245110  11.867  36.211   5.684
 3349POPC   C1A45111  12.183  35.944   6.242
 3349POPC   D2A45112  12.064  35.729   6.633
 3349POPC   C3A45113  12.192  35.893   7.017
 3349POPC   C4A45114  12.179  36.225   7.310
 3349POPC   C1B45115  11.760  36.399   6.107
 3349POPC   C2B45116  11.672  36.546   6.553
 3349POPC   C3B45117  11.776  36.384   6.996
 3349POPC   C4B45118  11.735  36.505   7.449
 3350POPC   NC345119   1.650  42.764   5.487
 3350POPC   PO445120   2.005  43.363   5.464
 3350POPC   GL145121   1.751  43.205   5.766
 3350POPC   GL245122   2.008  42.972   5.858
 3350POPC   C1A45123   1.794  43.237   6.225
 3350POPC   D2A45124   1.929  43.013   6.600
 3350POPC   C3A45125   2.129  43.255   6.903
 3350POPC   C4A45126   1.926  43.554   7.123
 3350POPC   C1B45127   2.290  42.997   6.222
 3350POPC   C2B45128   2.428  42.904   6.646
 3350POPC   C3B45129   2.154  42.765   7.011
 3350POPC   C4B45130   1.706  42.767   7.125
 3351POPC   NC345131  17.646  44.776   5.132
 3351POPC   PO445132  17.347  44.410   5.558
 3351POPC   GL145133  17.568  44.745   5.711
 3351POPC   GL245134  17.783  44.498   5.848
 3351POPC   C1A45135  17.402  44.858   6.123
 3351POPC   D2A45136  17.350  44.626   6.537
 3351POPC   C3A45137  17.437  44.831   6.968
 3351POPC   C4A45138  17.366  44.827   7.416
 3351POPC   C1B45139  17.856  44.644   6.261
 3351POPC   C2B45140  17.838  44.730   6.672
 3351POPC   C3B45141  17.861  44.543   7.053
 3351POPC   C4B45142  17.865  44.767   7.442
 3352POPC   NC345143  18.621  16.257   5.289
 3352POPC   PO445144  18.817  15.652   5.373
 3352POPC   GL145145  18.479  15.934   5.681
 3352POPC   GL245146  18.437  16.336   5.746
 3352POPC   C1A45147  18.201  16.051   6.083
 3352POPC   D2A45148  18.166  16.303   6.485
 3352POPC   C3A45149  18.077  16.091   6.881
 3352POPC   C4A45150  18.238  15.989   7.300
 3352POPC   C1B45151  18.626  16.328   6.163
 3352POPC   C2B45152  18.648  16.404   6.606
 3352POPC   C3B45153  18.560  16.247   7.004
 3352POPC   C4B45154  18.762  15.947   7.297
 3353POPC   NC345155   1.727  25.508   5.117
 3353POPC   PO445156   2.229  25.041   5.305
 3353POPC   GL145157   2.226  25.004   5.796
 3353POPC   GL245158   1.895  24.911   5.963
 3353POPC   C1A45159   2.347  25.271   6.181
 3353POPC   D2A45160   2.222  25.463   6.588
 3353POPC   C3A45161   2.067  25.176   6.918
 3353POPC   C4A45162   2.196  24.954   7.287
 3353POPC   C1B45163   1.847  25.224   6.307
 3353POPC   C2B45164   1.609  25.282   6.702
 3353POPC   C3B45165   1.599  25.329   7.176
 3353POPC   C4B45166   1.586  25.427   7.654
 3354POPC   NC345167  16.361   4.610   5.336
 3354POPC   PO445168  15.784   4.295   5.328
 3354POPC   GL145169  16.063   4.320   5.736
 3354POPC   GL245170  16.226   3.981   5.803
 3354POPC   C1A45171  16.207   4.387   6.216
 3354POPC   D2A45172  16.280   4.270   6.653
 3354POPC   C3A45173  16.244   4.577   6.970
 3354POPC   C4A45174  15.973   4.501   7.344
 3354POPC   C1B45175  15.906   4.014   6.139
 3354POPC   C2B45176  15.727   4.243   6.468
 3354POPC   C3B45177  15.815   4.291   6.897
 3354POPC   C4B45178  15.684   4.048   7.216
 3355POPC   NC345179  12.524  30.245   5.032
 3355POPC   PO445180  13.053  29.787   5.213
 3355POPC   GL145181  13.032  29.804   5.689
 3355POPC   GL245182  13.173  29.552   5.902
 3355POPC   C1A45183  12.942  29.948   6.142
 3355POPC   D2A45184  13.024  30.179   6.555
 3355POPC   C3A45185  12.755  30.085   6.925
 3355POPC   C4A45186  12.577  29.760   7.142
 3355POPC   C1B45187  12.915  29.420   6.225
 3355POPC   C2B45188  12.876  29.673   6.600
 3355POPC   C3B45189  13.055  29.632   6.988
 3355POPC   C4B45190  12.962  29.604   7.442
 3356POPC   NC345191  12.218  12.192   5.699
 3356POPC   PO445192  12.154  12.744   5.279
 3356POPC   GL145193  12.138  12.735   5.747
 3356POPC   GL245194  12.302  13.027   5.926
 3356POPC   C1A45195  11.956  12.755   6.169
 3356POPC   D2A45196  11.965  13.057   6.529
 3356POPC   C3A45197  12.105  12.849   6.886
 3356POPC   C4A45198  11.976  12.819   7.310
 3356POPC   C1B45199  12.440  12.984   6.361
 3356POPC   C2B45200  12.486  13.173   6.781
 3356POPC   C3B45201  12.450  13.053   7.214
 3356POPC   C4B45202  12.238  13.127   7.602
 3357POPC   NC345203   2.190  16.214   5.510
 3357POPC   PO445204   2.282  15.535   5.428
 3357POPC   GL145205   2.170  15.764   5.803
 3357POPC   GL245206   2.482  15.918   5.851
 3357POPC   C1A45207   2.087  16.107   6.148
 3357POPC   D2A45208   2.191  16.275   6.565
 3357POPC   C3A45209   1.837  16.225   6.844
 3357POPC   C4A45210   1.884  15.837   7.093
 3357POPC   C1B45211   2.372  15.692   6.273
 3357POPC   C2B45212   2.302  15.710   6.750
 3357POPC   C3B45213   2.378  15.749   7.212
 3357POPC   C4B45214   2.485  15.558   7.651
 3358POPC   NC345215  19.044   3.152   5.367
 3358POPC   PO445216  19.351   3.666   5.630
 3358POPC   GL145217  19.020   3.465   5.857
 3358POPC   GL245218  18.850   3.119   5.835
 3358POPC   C1A45219  19.126   3.419   6.298
 3358POPC   D2A45220  19.384   3.349   6.633
 3358POPC   C3A45221  19.196   3.403   6.995
 3358POPC   C4A45222  19.264   3.553   7.361
 3358POPC   C1B45223  18.648   3.319   6.183
 3358POPC   C2B45224  18.590   3.578   6.520
 3358POPC   C3B45225  18.705   3.433   6.895
 3358POPC   C4B45226  18.774   3.678   7.237
 3359POPC   NC345227  26.732  16.966   5.503
 3359POPC   PO445228  27.058  16.438   5.160
 3359POPC   GL145229  27.009  16.591   5.660
 3359POPC   GL245230  26.652  16.561   5.801
 3359POPC   C1A45231  26.993  16.553   6.159
 3359POPC   D2A45232  27.034  16.623   6.600
 3359POPC   C3A45233  26.818  16.584   6.990
 3359POPC   C4A45234  26.949  16.970   7.209
 3359POPC   C1B45235  26.602  16.899   6.163
 3359POPC   C2B45236  26.527  16.909   6.640
 3359POPC   C3B45237  26.464  16.935   7.109
 3359POPC   C4B45238  26.608  16.845   7.573
 3360POPC   NC345239  36.175  35.605   5.399
 3360POPC   PO445240  36.075  34.972   5.423
 3360POPC   GL145241  36.040  35.163   5.846
 3360POPC   GL245242  36.130  35.508   5.878
 3360POPC   C1A45243  36.103  35.278   6.309
 3360POPC   D2A45244  36.460  35.241   6.601
 3360POPC   C3A45245  36.259  35.278   7.003
 3360POPC   C4A45246  35.781  35.220   7.028
 3360POPC   C1B45247  36.406  35.664   6.213
 3360POPC   C2B45248  36.379  35.860   6.652
 3360POPC   C3B45249  36.425  35.755   7.111
 3360POPC   C4B45250  36.281  35.534   7.507
 3361POPC   NC345251  43.611  16.223   5.448
 3361POPC   PO445252  44.064  15.693   5.317
 3361POPC   GL145253  44.121  15.866   5.760
 3361POPC   GL245254  44.038  16.196   5.783
 3361POPC   C1A45255  44.191  15.981   6.221
 3361POPC   D2A45256  44.222  15.831   6.648
 3361POPC   C3A45257  43.909  15.818   6.968
 3361POPC   C4A45258  43.856  15.954   7.392
 3361POPC   C1B45259  43.701  15.932   6.074
 3361POPC   C2B45260  43.562  15.946   6.552
 3361POPC   C3B45261  43.524  16.155   6.987
 3361POPC   C4B45262  43.403  16.130   7.424
 3362POPC   NC345263  17.137  41.479   5.050
 3362POPC   PO445264  17.693  41.762   5.280
 3362POPC   GL145265  17.614  41.931   5.714
 3362POPC   GL245266  17.266  41.903   5.772
 3362POPC   C1A45267  17.742  41.887   6.170
 3362POPC   D2A45268  17.632  41.675   6.601
 3362POPC   C3A45269  17.757  41.549   7.033
 3362POPC   C4A45270  17.534  41.481   7.421
 3362POPC   C1B45271  17.276  41.679   6.188
 3362POPC   C2B45272  17.153  41.497   6.596
 3362POPC   C3B45273  17.243  41.315   7.010
 3362POPC   C4B45274  17.032  41.421   7.432
 3363POPC   NC345275  28.756   7.636   5.421
 3363POPC   PO445276  29.272   8.242   5.381
 3363POPC   GL145277  29.249   8.064   5.794
 3363POPC   GL245278  29.526   8.207   5.941
 3363POPC   C1A45279  28.996   7.893   6.124
 3363POPC   D2A45280  28.763   7.978   6.488
 3363POPC   C3A45281  28.916   7.901   6.902
 3363POPC   C4A45282  28.947   8.108   7.249
 3363POPC   C1B45283  29.222   8.337   6.268
 3363POPC   C2B45284  29.177   8.300   6.709
 3363POPC   C3B45285  29.408   8.249   7.100
 3363POPC   C4B45286  29.278   8.355   7.536
 3364POPC   NC345287   0.569  37.076   5.119
 3364POPC   PO445288   1.230  37.117   5.307
 3364POPC   GL145289   1.205  36.987   5.750
 3364POPC   GL245290   1.531  37.049   5.916
 3364POPC   C1A45291   1.125  36.962   6.217
 3364POPC   D2A45292   1.313  37.130   6.608
 3364POPC   C3A45293   1.097  36.996   6.973
 3364POPC   C4A45294   1.106  36.818   7.380
 3364POPC   C1B45295   1.630  36.839   6.343
 3364POPC   C2B45296   1.436  36.630   6.727
 3364POPC   C3B45297   1.509  36.516   7.187
 3364POPC   C4B45298   1.538  36.740   7.606
 3365POPC   NC345299  19.968  33.756   5.393
 3365POPC   PO445300  19.666  34.300   5.488
 3365POPC   GL145301  19.834  34.022   5.863
 3365POPC   GL245302  19.866  33.639   5.888
 3365POPC   C1A45303  19.885  33.925   6.339
 3365POPC   D2A45304  20.067  33.796   6.753
 3365POPC   C3A45305  19.977  34.099   7.043
 3365POPC   C4A45306  19.654  34.155   7.349
 3365POPC   C1B45307  20.038  33.408   6.259
 3365POPC   C2B45308  20.198  33.297   6.674
 3365POPC   C3B45309  20.074  33.367   7.093
 3365POPC   C4B45310  19.861  33.690   7.355
 3366POPC   NC345311  16.078  39.483   5.414
 3366POPC   PO445312  15.901  38.874   5.259
 3366POPC   GL145313  15.942  39.077   5.709
 3366POPC   GL245314  15.713  39.333   5.808
 3366POPC   C1A45315  16.191  39.332   6.068
 3366POPC   D2A45316  16.321  39.163   6.466
 3366POPC   C3A45317  16.176  39.205   6.882
 3366POPC   C4A45318  16.035  39.107   7.269
 3366POPC   C1B45319  15.766  39.099   6.254
 3366POPC   C2B45320  15.689  39.032   6.728
 3366POPC   C3B45321  15.568  39.242   7.132
 3366POPC   C4B45322  15.570  39.138   7.600
 3367POPC   NC345323  39.969   2.679   5.416
 3367POPC   PO445324  40.148   3.230   5.553
 3367POPC   GL145325  40.100   2.888   5.868
 3367POPC   GL245326  39.808   2.642   5.918
 3367POPC   C1A45327  40.097   2.905   6.314
 3367POPC   D2A45328  39.782   2.912   6.625
 3367POPC   C3A45329  39.969   2.854   7.043
 3367POPC   C4A45330  40.231   3.027   7.396
 3367POPC   C1B45331  39.975   2.416   6.303
 3367POPC   C2B45332  39.785   2.422   6.731
 3367POPC   C3B45333  39.770   2.394   7.170
 3367POPC   C4B45334  39.936   2.612   7.495
 3368POPC   NC345335  29.298   4.351   5.386
 3368POPC   PO445336  28.723   4.811   5.514
 3368POPC   GL145337  29.055   4.554   5.776
 3368POPC   GL245338  29.020   4.155   5.764
 3368POPC   C1A45339  29.347   4.545   6.116
 3368POPC   D2A45340  29.238   4.664   6.525
 3368POPC   C3A45341  28.990   4.381   6.781
 3368POPC   C4A45342  29.093   4.475   7.194
 3368POPC   C1B45343  29.303   4.006   6.118
 3368POPC   C2B45344  29.343   4.136   6.540
 3368POPC   C3B45345  29.208   3.962   6.975
 3368POPC   C4B45346  29.290   4.055   7.421
 3369POPC   NC345347  39.824  15.032   5.465
 3369POPC   PO445348  39.645  15.774   5.401
 3369POPC   GL145349  39.738  15.436   5.775
 3369POPC   GL245350  40.087  15.232   5.854
 3369POPC   C1A45351  39.892  15.511   6.225
 3369POPC   D2A45352  39.735  15.406   6.629
 3369POPC   C3A45353  39.977  15.325   6.994
 3369POPC   C4A45354  39.938  14.941   7.184
 3369POPC   C1B45355  39.990  15.014   6.286
 3369POPC   C2B45356  40.179  14.934   6.697
 3369POPC   C3B45357  40.494  14.971   7.011
 3369POPC   C4B45358  40.376  15.226   7.350
 3370POPC   NC345359  24.720  35.739   5.484
 3370POPC   PO445360  24.561  36.435   5.384
 3370POPC   GL145361  24.489  36.177   5.766
 3370POPC   GL245362  24.240  36.343   5.973
 3370POPC   C1A45363  24.644  36.121   6.230
 3370POPC   D2A45364  24.658  36.262   6.682
 3370POPC   C3A45365  24.561  36.047   7.065
 3370POPC   C4A45366  24.724  35.759   7.393
 3370POPC   C1B45367  24.241  36.413   6.403
 3370POPC   C2B45368  24.160  36.334   6.815
 3370POPC   C3B45369  24.371  36.523   7.104
 3370POPC   C4B45370  24.287  36.593   7.499
 3371POPC   NC345371  34.913  29.752   5.500
 3371POPC   PO445372  35.504  30.169   5.433
 3371POPC   GL145373  35.323  30.006   5.790
 3371POPC   GL245374  35.284  29.655   5.822
 3371POPC   C1A45375  35.486  29.952   6.213
 3371POPC   D2A45376  35.344  29.736   6.592
 3371POPC   C3A45377  35.511  29.860   7.027
 3371POPC   C4A45378  35.510  29.734   7.498
 3371POPC   C1B45379  34.986  29.807   6.157
 3371POPC   C2B45380  34.865  29.956   6.548
 3371POPC   C3B45381  34.972  29.784   6.929
 3371POPC   C4B45382  35.061  29.870   7.310
 3372POPC   NC345383  35.920  21.525   5.419
 3372POPC   PO445384  36.538  21.331   5.443
 3372POPC   GL145385  36.267  21.373   5.781
 3372POPC   GL245386  35.981  21.114   5.735
 3372POPC   C1A45387  36.298  21.261   6.202
 3372POPC   D2A45388  36.098  21.447   6.544
 3372POPC   C3A45389  36.216  21.509   6.951
 3372POPC   C4A45390  35.911  21.650   7.237
 3372POPC   C1B45391  35.791  21.233   6.126
 3372POPC   C2B45392  35.762  21.060   6.528
 3372POPC   C3B45393  35.759  21.271   6.917
 3372POPC   C4B45394  35.967  21.139   7.274
 3373POPC   NC345395   6.975   6.114   5.149
 3373POPC   PO445396   7.290   6.259   5.615
 3373POPC   GL145397   7.279   5.886   5.856
 3373POPC   GL245398   6.960   5.835   5.893
 3373POPC   C1A45399   7.476   5.787   6.246
 3373POPC   D2A45400   7.750   5.725   6.625
 3373POPC   C3A45401   7.465   5.729   6.967
 3373POPC   C4A45402   7.530   6.059   7.281
 3373POPC   C1B45403   7.080   6.128   6.245
 3373POPC   C2B45404   7.278   6.104   6.639
 3373POPC   C3B45405   7.065   6.071   7.033
 3373POPC   C4B45406   7.077   5.801   7.355
 3374POPC   NC345407  20.684  38.664   5.302
 3374POPC   PO445408  20.362  38.155   5.534
 3374POPC   GL145409  20.709  38.304   5.728
 3374POPC   GL245410  20.849  38.607   5.804
 3374POPC   C1A45411  20.756  38.177   6.156
 3374POPC   D2A45412  20.537  38.042   6.508
 3374POPC   C3A45413  20.525  38.259   6.926
 3374POPC   C4A45414  20.575  38.099   7.322
 3374POPC   C1B45415  20.523  38.639   6.135
 3374POPC   C2B45416  20.516  38.727   6.590
 3374POPC   C3B45417  20.612  38.784   7.025
 3374POPC   C4B45418  20.630  38.590   7.442
 3375POPC   NC345419  43.313  27.224   5.283
 3375POPC   PO445420  42.883  27.750   5.294
 3375POPC   GL145421  43.097  27.685   5.716
 3375POPC   GL245422  43.422  27.521   5.700
 3375POPC   C1A45423  43.105  27.667   6.192
 3375POPC   D2A45424  43.232  27.931   6.542
 3375POPC   C3A45425  43.079  27.841   6.946
 3375POPC   C4A45426  43.319  27.628   7.221
 3375POPC   C1B45427  43.163  27.205   5.936
 3375POPC   C2B45428  43.128  27.151   6.371
 3375POPC   C3B45429  43.147  27.269   6.819
 3375POPC   C4B45430  43.101  27.162   7.249
 3376POPC   NC345431  23.897  26.645   5.402
 3376POPC   PO445432  23.234  26.551   5.137
 3376POPC   GL145433  23.416  26.756   5.595
 3376POPC   GL245434  23.756  26.893   5.811
 3376POPC   C1A45435  23.394  26.736   6.080
 3376POPC   D2A45436  23.794  26.628   6.347
 3376POPC   C3A45437  23.747  26.651   6.799
 3376POPC   C4A45438  23.468  26.753   7.194
 3376POPC   C1B45439  23.718  27.122   6.271
 3376POPC   C2B45440  23.786  27.155   6.785
 3376POPC   C3B45441  23.954  26.914   7.197
 3376POPC   C4B45442  24.024  27.097   7.641
 3377POPC   NC345443  34.480  38.049   5.628
 3377POPC   PO445444  34.630  38.670   5.448
 3377POPC   GL145445  34.681  38.476   5.828
 3377POPC   GL245446  34.934  38.240   5.796
 3377POPC   C1A45447  34.513  38.277   6.224
 3377POPC   D2A45448  34.271  38.072   6.529
 3377POPC   C3A45449  34.412  38.240   6.911
 3377POPC   C4A45450  34.491  38.476   7.276
 3377POPC   C1B45451  35.016  38.391   6.227
 3377POPC   C2B45452  34.804  38.488   6.612
 3377POPC   C3B45453  34.918  38.363   7.015
 3377POPC   C4B45454  34.886  38.197   7.461
 3378POPC   NC345455  32.005  29.078   5.427
 3378POPC   PO445456  32.656  29.324   5.425
 3378POPC   GL145457  32.598  29.062   5.823
 3378POPC   GL245458  32.250  28.916   5.846
 3378POPC   C1A45459  32.478  29.089   6.277
 3378POPC   D2A45460  32.264  29.332   6.574
 3378POPC   C3A45461  32.444  29.245   6.982
 3378POPC   C4A45462  32.264  29.432   7.350
 3378POPC   C1B45463  31.982  29.195   6.129
 3378POPC   C2B45464  31.749  29.234   6.531
 3378POPC   C3B45465  31.926  29.138   6.914
 3378POPC   C4B45466  31.782  29.000   7.289
 3379POPC   NC345467  30.746  27.375   5.555
 3379POPC   PO445468  30.327  27.951   5.559
 3379POPC   GL145469  30.623  27.869   5.928
 3379POPC   GL245470  30.767  27.533   6.022
 3379POPC   C1A45471  30.786  27.870   6.396
 3379POPC   D2A45472  31.092  27.589   6.662
 3379POPC   C3A45473  31.114  27.675   7.118
 3379POPC   C4A45474  30.711  27.653   7.344
 3379POPC   C1B45475  30.665  27.377   6.432
 3379POPC   C2B45476  30.586  27.381   6.872
 3379POPC   C3B45477  30.680  27.135   7.224
 3379POPC   C4B45478  30.632  27.051   7.656
 3380POPC   NC345479  16.278  17.343   5.347
 3380POPC   PO445480  15.900  17.895   5.395
 3380POPC   GL145481  16.111  17.663   5.770
 3380POPC   GL245482  16.175  17.288   5.870
 3380POPC   C1A45483  15.980  17.662   6.229
 3380POPC   D2A45484  16.099  17.733   6.673
 3380POPC   C3A45485  15.853  17.677   7.060
 3380POPC   C4A45486  16.026  17.688   7.486
 3380POPC   C1B45487  15.908  17.130   6.263
 3380POPC   C2B45488  15.968  17.225   6.766
 3380POPC   C3B45489  16.169  17.252   7.204
 3380POPC   C4B45490  16.257  16.903   7.532
 3381POPC   NC345491  25.451  18.553   5.436
 3381POPC   PO445492  25.307  17.874   5.437
 3381POPC   GL145493  25.341  18.071   5.836
 3381POPC   GL245494  25.679  18.019   5.907
 3381POPC   C1A45495  25.362  18.222   6.280
 3381POPC   D2A45496  25.153  18.567   6.499
 3381POPC   C3A45497  25.099  18.517   6.944
 3381POPC   C4A45498  25.325  18.436   7.317
 3381POPC   C1B45499  25.820  18.428   6.109
 3381POPC   C2B45500  25.738  18.616   6.503
 3381POPC   C3B45501  25.622  18.440   6.882
 3381POPC   C4B45502  25.832  18.488   7.273
 3382POPC   NC345503  42.190  23.630   5.596
 3382POPC   PO445504  42.797  23.833   5.320
 3382POPC   GL145505  42.530  24.008   5.714
 3382POPC   GL245506  42.177  24.114   5.735
 3382POPC   C1A45507  42.398  23.928   6.179
 3382POPC   D2A45508  42.223  23.698   6.535
 3382POPC   C3A45509  42.435  23.661   6.933
 3382POPC   C4A45510  42.509  23.579   7.379
 3382POPC   C1B45511  41.983  24.234   6.107
 3382POPC   C2B45512  41.867  24.101   6.532
 3382POPC   C3B45513  42.143  24.092   6.882
 3382POPC   C4B45514  42.131  23.938   7.267
 3383POPC   NC345515  39.716  25.979   5.503
 3383POPC   PO445516  40.373  25.882   5.495
 3383POPC   GL145517  40.092  25.923   5.851
 3383POPC   GL245518  39.904  26.223   5.894
 3383POPC   C1A45519  39.965  25.897   6.274
 3383POPC   D2A45520  40.180  25.807   6.608
 3383POPC   C3A45521  39.984  25.908   6.991
 3383POPC   C4A45522  40.207  25.829   7.390
 3383POPC   C1B45523  39.877  26.438   6.254
 3383POPC   C2B45524  40.016  26.327   6.641
 3383POPC   C3B45525  39.899  26.474   7.040
 3383POPC   C4B45526  40.007  26.269   7.413
 3384POPC   NC345527  21.269  17.890   5.539
 3384POPC   PO445528  21.541  17.310   5.356
 3384POPC   GL145529  21.457  17.440   5.793
 3384POPC   GL245530  21.736  17.579   5.967
 3384POPC   C1A45531  21.255  17.638   6.172
 3384POPC   D2A45532  21.334  17.796   6.565
 3384POPC   C3A45533  21.468  17.508   6.854
 3384POPC   C4A45534  21.462  17.566   7.295
 3384POPC   C1B45535  21.595  17.237   6.271
 3384POPC   C2B45536  21.799  17.140   6.671
 3384POPC   C3B45537  21.715  17.147   7.123
 3384POPC   C4B45538  21.625  17.138   7.566
 3385POPC   NC345539  35.523   9.876   5.092
 3385POPC   PO445540  35.372   9.267   5.299
 3385POPC   GL145541  35.400   9.599   5.594
 3385POPC   GL245542  35.037   9.700   5.641
 3385POPC   C1A45543  35.504   9.660   6.066
 3385POPC   D2A45544  35.759   9.669   6.485
 3385POPC   C3A45545  35.597   9.874   6.875
 3385POPC   C4A45546  35.336   9.689   7.187
 3385POPC   C1B45547  35.004   9.916   6.036
 3385POPC   C2B45548  34.969  10.102   6.441
 3385POPC   C3B45549  35.052   9.803   6.752
 3385POPC   C4B45550  34.910   9.436   7.005
 3386POPC   NC345551   4.677  25.262   5.450
 3386POPC   PO445552   3.985  25.255   5.522
 3386POPC   GL145553   4.190  25.145   5.892
 3386POPC   GL245554   4.540  24.993   5.863
 3386POPC   C1A45555   4.242  25.381   6.298
 3386POPC   D2A45556   4.182  25.670   6.671
 3386POPC   C3A45557   4.296  25.456   7.079
 3386POPC   C4A45558   4.195  25.453   7.558
 3386POPC   C1B45559   4.356  24.842   6.240
 3386POPC   C2B45560   4.350  24.969   6.627
 3386POPC   C3B45561   4.521  24.982   6.997
 3386POPC   C4B45562   4.247  24.995   7.311
 3387POPC   NC345563  29.936   6.386   5.321
 3387POPC   PO445564  30.343   6.932   5.250
 3387POPC   GL145565  30.236   6.714   5.686
 3387POPC   GL245566  29.884   6.596   5.784
 3387POPC   C1A45567  30.306   6.467   6.088
 3387POPC   D2A45568  30.048   6.430   6.500
 3387POPC   C3A45569  30.186   6.617   6.918
 3387POPC   C4A45570  29.999   6.505   7.317
 3387POPC   C1B45571  29.674   6.784   6.121
 3387POPC   C2B45572  29.541   6.636   6.510
 3387POPC   C3B45573  29.677   6.664   6.931
 3387POPC   C4B45574  29.764   6.983   7.234
 3388POPC   NC345575  38.199  15.582   5.408
 3388POPC   PO445576  38.351  14.897   5.286
 3388POPC   GL145577  38.417  15.235   5.706
 3388POPC   GL245578  38.545  15.570   5.767
 3388POPC   C1A45579  38.536  15.221   6.232
 3388POPC   D2A45580  38.735  14.899   6.518
 3388POPC   C3A45581  38.818  15.096   6.918
 3388POPC   C4A45582  38.610  15.077   7.300
 3388POPC   C1B45583  38.168  15.505   6.054
 3388POPC   C2B45584  38.068  15.416   6.487
 3388POPC   C3B45585  38.044  15.478   6.928
 3388POPC   C4B45586  38.241  15.466   7.338
 3389POPC   NC345587  39.188  15.638   5.275
 3389POPC   PO445588  39.335  15.013   5.415
 3389POPC   GL145589  39.277  15.123   5.828
 3389POPC   GL245590  38.932  15.222   5.812
 3389POPC   C1A45591  39.171  15.076   6.265
 3389POPC   D2A45592  39.232  14.891   6.679
 3389POPC   C3A45593  39.478  15.116   7.003
 3389POPC   C4A45594  39.486  15.105   7.464
 3389POPC   C1B45595  38.912  15.526   6.142
 3389POPC   C2B45596  38.987  15.457   6.580
 3389POPC   C3B45597  39.161  15.521   6.996
 3389POPC   C4B45598  39.130  15.534   7.469
 3390POPC   NC345599  30.445  18.159   5.422
 3390POPC   PO445600  30.966  18.566   5.342
 3390POPC   GL145601  30.848  18.332   5.682
 3390POPC   GL245602  31.029  18.471   5.915
 3390POPC   C1A45603  30.699  18.119   6.075
 3390POPC   D2A45604  30.501  18.015   6.469
 3390POPC   C3A45605  30.560  18.007   6.924
 3390POPC   C4A45606  30.826  17.814   7.251
 3390POPC   C1B45607  31.050  18.482   6.307
 3390POPC   C2B45608  30.899  18.286   6.609
 3390POPC   C3B45609  31.048  18.123   6.925
 3390POPC   C4B45610  30.957  18.345   7.274
 3391POPC   NC345611   5.074  39.114   5.398
 3391POPC   PO445612   5.774  38.985   5.485
 3391POPC   GL145613   5.462  39.263   5.699
 3391POPC   GL245614   5.254  38.999   5.849
 3391POPC   C1A45615   5.275  39.481   6.083
 3391POPC   D2A45616   5.249  39.647   6.527
 3391POPC   C3A45617   5.079  39.464   6.902
 3391POPC   C4A45618   4.893  39.474   7.307
 3391POPC   C1B45619   5.594  39.058   6.140
 3391POPC   C2B45620   5.386  39.154   6.527
 3391POPC   C3B45621   5.190  38.962   6.884
 3391POPC   C4B45622   5.333  39.135   7.269
 3392POPC   NC345623  20.068  18.768   5.405
 3392POPC   PO445624  19.782  19.373   5.236
 3392POPC   GL145625  19.823  19.252   5.688
 3392POPC   GL245626  19.839  18.894   5.842
 3392POPC   C1A45627  19.699  19.303   6.137
 3392POPC   D2A45628  19.650  19.113   6.548
 3392POPC   C3A45629  19.846  19.262   6.933
 3392POPC   C4A45630  19.667  19.177   7.342
 3392POPC   C1B45631  20.031  18.629   6.203
 3392POPC   C2B45632  19.966  18.734   6.646
 3392POPC   C3B45633  19.878  18.743   7.078
 3392POPC   C4B45634  20.192  18.531   7.291
 3393POPC   NC345635   1.974   5.604   5.311
 3393POPC   PO445636   1.979   6.213   5.423
 3393POPC   GL145637   1.922   6.037   5.807
 3393POPC   GL245638   2.085   5.704   5.803
 3393POPC   C1A45639   1.736   5.984   6.228
 3393POPC   D2A45640   1.509   6.122   6.610
 3393POPC   C3A45641   1.751   5.976   6.963
 3393POPC   C4A45642   2.050   6.068   7.253
 3393POPC   C1B45643   1.956   5.511   6.181
 3393POPC   C2B45644   1.889   5.597   6.622
 3393POPC   C3B45645   2.161   5.624   6.996
 3393POPC   C4B45646   2.429   5.741   7.392
 3394POPC   NC345647   8.806  30.338   5.320
 3394POPC   PO445648   9.194  30.866   5.310
 3394POPC   GL145649   9.111  30.603   5.652
 3394POPC   GL245650   8.768  30.736   5.667
 3394POPC   C1A45651   9.043  30.559   6.094
 3394POPC   D2A45652   8.916  30.445   6.516
 3394POPC   C3A45653   9.085  30.622   6.871
 3394POPC   C4A45654   9.166  30.490   7.276
 3394POPC   C1B45655   8.856  31.052   6.005
 3394POPC   C2B45656   8.746  31.124   6.456
 3394POPC   C3B45657   8.876  31.107   6.891
 3394POPC   C4B45658   8.777  30.869   7.280
 3395POPC   NC345659  30.188  19.750   5.335
 3395POPC   PO445660  29.590  19.989   5.334
 3395POPC   GL145661  29.747  19.780   5.692
 3395POPC   GL245662  29.979  20.012   5.782
 3395POPC   C1A45663  29.665  19.756   6.146
 3395POPC   D2A45664  29.875  19.934   6.524
 3395POPC   C3A45665  29.745  19.738   6.930
 3395POPC   C4A45666  29.809  19.852   7.378
 3395POPC   C1B45667  30.168  19.720   6.100
 3395POPC   C2B45668  30.359  19.721   6.515
 3395POPC   C3B45669  30.242  19.862   6.934
 3395POPC   C4B45670  30.314  19.774   7.353
 3396POPC   NC345671  15.641   1.014   5.415
 3396POPC   PO445672  16.325   1.203   5.416
 3396POPC   GL145673  16.078   1.126   5.782
 3396POPC   GL245674  15.761   1.317   5.806
 3396POPC   C1A45675  15.984   1.126   6.235
 3396POPC   D2A45676  15.977   1.342   6.612
 3396POPC   C3A45677  15.828   1.155   6.994
 3396POPC   C4A45678  15.995   0.969   7.369
 3396POPC   C1B45679  15.704   1.606   6.156
 3396POPC   C2B45680  15.788   1.807   6.548
 3396POPC   C3B45681  15.756   1.681   6.989
 3396POPC   C4B45682  15.673   1.856   7.409
 3397POPC   NC345683  30.581  32.202   5.449
 3397POPC   PO445684  31.245  32.358   5.310
 3397POPC   GL145685  31.061  32.324   5.739
 3397POPC   GL245686  30.822  32.064   5.919
 3397POPC   C1A45687  31.021  32.437   6.209
 3397POPC   D2A45688  30.685  32.293   6.484
 3397POPC   C3A45689  30.716  32.368   6.917
 3397POPC   C4A45690  30.435  32.535   7.175
 3397POPC   C1B45691  30.956  31.876   6.320
 3397POPC   C2B45692  30.861  31.902   6.766
 3397POPC   C3B45693  30.707  31.952   7.224
 3397POPC   C4B45694  30.696  32.001   7.674
 3398POPC   NC345695  34.934   5.088   5.302
 3398POPC   PO445696  34.316   5.203   5.547
 3398POPC   GL145697  34.504   5.180   5.918
 3398POPC   GL245698  34.257   5.375   6.045
 3398POPC   C1A45699  34.667   5.095   6.336
 3398POPC   D2A45700  34.859   5.319   6.700
 3398POPC   C3A45701  34.778   5.158   7.115
 3398POPC   C4A45702  34.932   5.212   7.528
 3398POPC   C1B45703  34.146   4.956   6.201
 3398POPC   C2B45704  34.008   4.843   6.583
 3398POPC   C3B45705  34.141   5.012   6.955
 3398POPC   C4B45706  34.360   4.792   7.197
 3399POPC   NC345707  42.074  15.748   5.508
 3399POPC   PO445708  42.495  16.211   5.587
 3399POPC   GL145709  42.465  15.796   5.843
 3399POPC   GL245710  42.154  15.730   6.014
 3399POPC   C1A45711  42.592  15.642   6.236
 3399POPC   D2A45712  42.337  15.918   6.496
 3399POPC   C3A45713  42.387  15.923   6.931
 3399POPC   C4A45714  42.137  15.715   7.229
 3399POPC   C1B45715  42.078  16.189   6.135
 3399POPC   C2B45716  42.172  16.411   6.528
 3399POPC   C3B45717  42.080  16.358   6.952
 3399POPC   C4B45718  42.058  16.196   7.364
 3400POPC   NC345719   7.025  18.822   5.374
 3400POPC   PO445720   7.679  19.075   5.582
 3400POPC   GL145721   7.342  19.137   5.852
 3400POPC   GL245722   7.176  18.805   5.887
 3400POPC   C1A45723   7.388  19.281   6.270
 3400POPC   D2A45724   7.668  19.453   6.574
 3400POPC   C3A45725   7.481  19.394   7.008
 3400POPC   C4A45726   7.417  19.168   7.421
 3400POPC   C1B45727   7.560  18.790   6.196
 3400POPC   C2B45728   7.657  18.879   6.656
 3400POPC   C3B45729   7.488  18.770   7.095
 3400POPC   C4B45730   7.341  18.682   7.551
 3401POPC   NC345731   6.273  30.339   5.177
 3401POPC   PO445732   5.879  30.871   5.236
 3401POPC   GL145733   5.972  30.830   5.749
 3401POPC   GL245734   6.208  30.994   5.918
 3401POPC   C1A45735   5.821  30.623   6.144
 3401POPC   D2A45736   5.677  30.681   6.580
 3401POPC   C3A45737   5.853  30.461   6.950
 3401POPC   C4A45738   5.599  30.627   7.254
 3401POPC   C1B45739   6.240  30.871   6.346
 3401POPC   C2B45740   6.150  30.848   6.788
 3401POPC   C3B45741   6.084  30.861   7.235
 3401POPC   C4B45742   5.917  30.797   7.626
 3402POPC   NC345743   7.813  35.183   5.392
 3402POPC   PO445744   7.493  35.637   5.736
 3402POPC   GL145745   7.555  35.361   6.010
 3402POPC   GL245746   7.847  35.231   5.920
 3402POPC   C1A45747   7.474  35.476   6.415
 3402POPC   D2A45748   7.125  35.409   6.654
 3402POPC   C3A45749   7.184  35.386   7.071
 3402POPC   C4A45750   7.033  35.035   7.242
 3402POPC   C1B45751   7.984  35.510   6.275
 3402POPC   C2B45752   7.884  35.510   6.730
 3402POPC   C3B45753   7.710  35.309   7.092
 3402POPC   C4B45754   7.733  35.460   7.537
 3403POPC   NC345755  33.588  17.084   5.511
 3403POPC   PO445756  34.153  16.685   5.444
 3403POPC   GL145757  33.921  16.777   5.801
 3403POPC   GL245758  33.778  17.062   5.964
 3403POPC   C1A45759  34.015  16.709   6.222
 3403POPC   D2A45760  34.180  16.890   6.555
 3403POPC   C3A45761  33.963  16.797   6.930
 3403POPC   C4A45762  33.830  16.425   7.117
 3403POPC   C1B45763  33.498  16.757   6.210
 3403POPC   C2B45764  33.404  16.673   6.663
 3403POPC   C3B45765  33.468  16.838   7.083
 3403POPC   C4B45766  33.679  17.007   7.422
 3404POPC   NC345767  11.807  37.374   5.375
 3404POPC   PO445768  12.393  37.640   5.362
 3404POPC   GL145769  12.155  37.875   5.671
 3404POPC   GL245770  12.062  37.584   5.779
 3404POPC   C1A45771  12.062  37.939   6.141
 3404POPC   D2A45772  11.785  37.793   6.489
 3404POPC   C3A45773  11.971  37.823   6.870
 3404POPC   C4A45774  12.053  37.936   7.265
 3404POPC   C1B45775  11.952  37.423   6.173
 3404POPC   C2B45776  12.109  37.374   6.593
 3404POPC   C3B45777  12.001  37.341   7.010
 3404POPC   C4B45778  12.163  37.432   7.376
 3405POPC   NC345779  31.566  17.566   5.512
 3405POPC   PO445780  31.049  17.267   5.523
 3405POPC   GL145781  31.252  17.459   5.909
 3405POPC   GL245782  31.567  17.683   6.004
 3405POPC   C1A45783  31.250  17.475   6.352
 3405POPC   D2A45784  31.412  17.709   6.670
 3405POPC   C3A45785  31.234  17.625   7.020
 3405POPC   C4A45786  31.243  17.227   7.196
 3405POPC   C1B45787  31.803  17.566   6.381
 3405POPC   C2B45788  31.957  17.830   6.727
 3405POPC   C3B45789  31.952  17.866   7.162
 3405POPC   C4B45790  31.645  17.562   7.303
 3406POPC   NC345791  18.544  22.531   5.472
 3406POPC   PO445792  17.920  22.638   5.470
 3406POPC   GL145793  18.167  22.856   5.827
 3406POPC   GL245794  18.232  23.209   5.814
 3406POPC   C1A45795  18.380  22.965   6.261
 3406POPC   D2A45796  18.556  22.899   6.683
 3406POPC   C3A45797  18.268  23.034   7.017
 3406POPC   C4A45798  18.284  22.897   7.439
 3406POPC   C1B45799  18.037  23.333   6.201
 3406POPC   C2B45800  17.971  23.188   6.607
 3406POPC   C3B45801  17.738  23.350   6.930
 3406POPC   C4B45802  18.002  23.499   7.189
 3407POPC   NC345803   0.573   9.621   5.299
 3407POPC   PO445804  44.912   9.505   5.572
 3407POPC   GL145805   0.314   9.581   5.769
 3407POPC   GL245806   0.696   9.550   5.772
 3407POPC   C1A45807   0.387   9.729   6.186
 3407POPC   D2A45808   0.513   9.504   6.552
 3407POPC   C3A45809   0.347   9.555   6.964
 3407POPC   C4A45810   0.580   9.902   7.073
 3407POPC   C1B45811   0.876   9.429   6.138
 3407POPC   C2B45812   0.978   9.272   6.528
 3407POPC   C3B45813   0.887   9.479   6.896
 3407POPC   C4B45814   0.754   9.437   7.281
 3408POPC   NC345815   2.627   4.459   5.332
 3408POPC   PO445816   2.901   3.992   5.630
 3408POPC   GL145817   2.775   4.366   5.842
 3408POPC   GL245818   2.424   4.553   5.798
 3408POPC   C1A45819   2.991   4.406   6.250
 3408POPC   D2A45820   3.287   4.286   6.591
 3408POPC   C3A45821   3.024   4.189   6.934
 3408POPC   C4A45822   2.820   4.353   7.280
 3408POPC   C1B45823   2.479   4.505   6.224
 3408POPC   C2B45824   2.647   4.667   6.598
 3408POPC   C3B45825   2.484   4.538   6.968
 3408POPC   C4B45826   2.278   4.706   7.299
 3409POPC   NC345827   5.537  41.751   5.718
 3409POPC   PO445828   5.336  41.396   5.163
 3409POPC   GL145829   5.191  41.305   5.653
 3409POPC   GL245830   4.850  41.299   5.701
 3409POPC   C1A45831   5.296  41.371   6.153
 3409POPC   D2A45832   5.377  41.615   6.540
 3409POPC   C3A45833   5.307  41.368   6.891
 3409POPC   C4A45834   5.270  41.459   7.316
 3409POPC   C1B45835   4.817  41.518   6.091
 3409POPC   C2B45836   4.881  41.482   6.548
 3409POPC   C3B45837   4.839  41.577   6.986
 3409POPC   C4B45838   4.682  41.961   7.138
 3410POPC   NC345839  39.813  12.512   5.565
 3410POPC   PO445840  39.167  12.433   5.591
 3410POPC   GL145841  39.332  12.063   5.803
 3410POPC   GL245842  39.602  12.248   5.980
 3410POPC   C1A45843  39.159  11.777   6.141
 3410POPC   D2A45844  38.935  11.843   6.551
 3410POPC   C3A45845  39.206  12.031   6.875
 3410POPC   C4A45846  39.293  12.000   7.297
 3410POPC   C1B45847  39.225  12.281   6.266
 3410POPC   C2B45848  38.960  12.396   6.608
 3410POPC   C3B45849  38.870  12.357   7.073
 3410POPC   C4B45850  38.973  12.303   7.560
 3411POPC   NC345851  43.610  21.639   5.522
 3411POPC   PO445852  43.227  21.004   5.522
 3411POPC   GL145853  43.418  21.318   5.865
 3411POPC   GL245854  43.383  21.703   5.979
 3411POPC   C1A45855  43.346  21.331   6.318
 3411POPC   D2A45856  43.268  21.471   6.725
 3411POPC   C3A45857  43.208  21.096   6.980
 3411POPC   C4A45858  43.142  20.913   7.388
 3411POPC   C1B45859  43.077  21.780   6.354
 3411POPC   C2B45860  42.851  21.792   6.744
 3411POPC   C3B45861  43.033  21.629   7.159
 3411POPC   C4B45862  43.005  21.409   7.558
 3412POPC   NC345863  35.710  11.571   5.084
 3412POPC   PO445864  35.312  11.059   5.288
 3412POPC   GL145865  35.425  11.127   5.720
 3412POPC   GL245866  35.329  11.460   5.852
 3412POPC   C1A45867  35.396  11.022   6.152
 3412POPC   D2A45868  35.589  11.162   6.518
 3412POPC   C3A45869  35.511  11.013   6.898
 3412POPC   C4A45870  35.436  11.140   7.302
 3412POPC   C1B45871  35.300  11.551   6.315
 3412POPC   C2B45872  35.412  11.566   6.781
 3412POPC   C3B45873  35.365  11.680   7.204
 3412POPC   C4B45874  35.141  11.502   7.556
 3413POPC   NC345875   1.552  43.590   5.408
 3413POPC   PO445876   1.206  42.925   5.338
 3413POPC   GL145877   1.261  42.981   5.764
 3413POPC   GL245878   1.237  43.329   5.737
 3413POPC   C1A45879   1.029  42.959   6.151
 3413POPC   D2A45880   0.990  43.076   6.564
 3413POPC   C3A45881   1.252  42.812   6.819
 3413POPC   C4A45882   1.145  42.883   7.226
 3413POPC   C1B45883   1.300  43.394   6.203
 3413POPC   C2B45884   1.480  43.270   6.634
 3413POPC   C3B45885   1.505  43.251   7.100
 3413POPC   C4B45886   1.223  43.339   7.451
 3414POPC   NC345887  25.906  12.398   5.367
 3414POPC   PO445888  26.296  11.815   5.467
 3414POPC   GL145889  25.982  11.994   5.727
 3414POPC   GL245890  26.191  12.264   5.764
 3414POPC   C1A45891  25.899  12.123   6.164
 3414POPC   D2A45892  26.059  12.306   6.556
 3414POPC   C3A45893  26.037  11.977   6.836
 3414POPC   C4A45894  25.926  11.944   7.246
 3414POPC   C1B45895  26.354  12.383   6.133
 3414POPC   C2B45896  26.536  12.137   6.457
 3414POPC   C3B45897  26.541  12.138   6.888
 3414POPC   C4B45898  26.420  11.867   7.181
 3415POPC   NC345899   3.270  11.387   5.413
 3415POPC   PO445900   3.805  11.325   5.119
 3415POPC   GL145901   3.787  11.217   5.609
 3415POPC   GL245902   3.493  11.284   5.849
 3415POPC   C1A45903   3.949  11.224   6.070
 3415POPC   D2A45904   4.100  11.300   6.523
 3415POPC   C3A45905   3.772  11.404   6.846
 3415POPC   C4A45906   3.765  11.306   7.284
 3415POPC   C1B45907   3.462  11.150   6.292
 3415POPC   C2B45908   3.194  11.170   6.645
 3415POPC   C3B45909   3.133  10.994   7.054
 3415POPC   C4B45910   3.227  11.234   7.430
 3416POPC   NC345911  40.578  14.755   5.517
 3416POPC   PO445912  40.947  14.141   5.532
 3416POPC   GL145913  40.814  14.224   5.918
 3416POPC   GL245914  41.157  14.223   6.024
 3416POPC   C1A45915  40.762  14.614   6.166
 3416POPC   D2A45916  40.573  14.651   6.574
 3416POPC   C3A45917  40.750  14.429   6.928
 3416POPC   C4A45918  40.897  14.511   7.363
 3416POPC   C1B45919  40.954  14.213   6.430
 3416POPC   C2B45920  41.008  13.949   6.773
 3416POPC   C3B45921  41.233  14.195   7.058
 3416POPC   C4B45922  41.241  14.191   7.503
 3417POPC   NC345923  43.592   0.350   5.407
 3417POPC   PO445924  42.966   0.716   5.401
 3417POPC   GL145925  43.175   0.500   5.780
 3417POPC   GL245926  43.467   0.713   5.825
 3417POPC   C1A45927  43.180   0.211   6.190
 3417POPC   D2A45928  42.997   0.399   6.584
 3417POPC   C3A45929  43.043   0.297   7.025
 3417POPC   C4A45930  43.008  44.990   7.379
 3417POPC   C1B45931  43.336   0.675   6.274
 3417POPC   C2B45932  43.499   0.503   6.656
 3417POPC   C3B45933  43.583   0.725   7.054
 3417POPC   C4B45934  43.484   0.665   7.511
 3418POPC   NC345935   7.227  43.769   5.418
 3418POPC   PO445936   7.844  43.509   5.321
 3418POPC   GL145937   7.679  43.840   5.634
 3418POPC   GL245938   7.512  43.600   5.818
 3418POPC   C1A45939   7.549  44.078   6.072
 3418POPC   D2A45940   7.369  44.032   6.532
 3418POPC   C3A45941   7.511  44.038   7.000
 3418POPC   C4A45942   7.287  44.159   7.369
 3418POPC   C1B45943   7.347  43.630   6.212
 3418POPC   C2B45944   7.469  43.531   6.623
 3418POPC   C3B45945   7.224  43.652   6.915
 3418POPC   C4B45946   7.333  43.634   7.326
 3419POPC   NC345947  21.325  16.900   5.407
 3419POPC   PO445948  21.703  16.326   5.276
 3419POPC   GL145949  21.663  16.552   5.718
 3419POPC   GL245950  21.473  16.869   5.896
 3419POPC   C1A45951  21.569  16.430   6.149
 3419POPC   D2A45952  21.652  16.639   6.558
 3419POPC   C3A45953  21.394  16.863   6.819
 3419POPC   C4A45954  21.430  16.734   7.233
 3419POPC   C1B45955  21.213  16.767   6.289
 3419POPC   C2B45956  20.951  16.675   6.646
 3419POPC   C3B45957  20.927  16.911   7.033
 3419POPC   C4B45958  21.165  17.142   7.313
 3420POPC   NC345959  29.284  14.044   5.480
 3420POPC   PO445960  29.261  14.772   5.441
 3420POPC   GL145961  29.215  14.492   5.753
 3420POPC   GL245962  29.529  14.351   5.794
 3420POPC   C1A45963  29.021  14.420   6.143
 3420POPC   D2A45964  29.233  14.416   6.519
 3420POPC   C3A45965  29.032  14.465   6.883
 3420POPC   C4A45966  29.272  14.576   7.239
 3420POPC   C1B45967  29.411  14.082   6.151
 3420POPC   C2B45968  29.357  13.922   6.573
 3420POPC   C3B45969  29.385  14.120   6.978
 3420POPC   C4B45970  29.054  14.103   7.284
 3421POPC   NC345971  43.753  33.022   5.282
 3421POPC   PO445972  44.407  33.166   5.320
 3421POPC   GL145973  44.049  33.161   5.683
 3421POPC   GL245974  43.748  32.944   5.791
 3421POPC   C1A45975  43.993  33.218   6.154
 3421POPC   D2A45976  44.054  33.317   6.625
 3421POPC   C3A45977  43.837  33.201   7.033
 3421POPC   C4A45978  43.871  32.890   7.337
 3421POPC   C1B45979  43.642  32.868   6.234
 3421POPC   C2B45980  43.648  32.879   6.664
 3421POPC   C3B45981  43.497  32.695   7.025
 3421POPC   C4B45982  43.460  32.646   7.475
 3422POPC   NC345983  14.239  27.234   5.333
 3422POPC   PO445984  14.781  27.646   5.426
 3422POPC   GL145985  14.509  27.353   5.728
 3422POPC   GL245986  14.215  27.581   5.716
 3422POPC   C1A45987  14.240  27.336   6.138
 3422POPC   D2A45988  14.375  27.520   6.473
 3422POPC   C3A45989  14.363  27.339   6.856
 3422POPC   C4A45990  14.358  27.491   7.241
 3422POPC   C1B45991  14.548  27.764   6.029
 3422POPC   C2B45992  14.815  27.793   6.398
 3422POPC   C3B45993  14.617  27.813   6.813
 3422POPC   C4B45994  14.758  27.995   7.175
 3423POPC   NC345995  25.056  29.579   5.431
 3423POPC   PO445996  25.514  30.048   5.314
 3423POPC   GL145997  25.363  29.913   5.712
 3423POPC   GL245998  25.003  30.003   5.692
 3423POPC   C1A45999  25.412  29.825   6.159
 3423POPC   D2A46000  25.615  29.854   6.549
 3423POPC   C3A46001  25.408  29.714   6.928
 3423POPC   C4A46002  25.455  29.950   7.298
 3423POPC   C1B46003  24.908  29.796   6.116
 3423POPC   C2B46004  24.839  29.931   6.598
 3423POPC   C3B46005  24.949  29.918   7.074
 3423POPC   C4B46006  25.026  29.867   7.547
 3424POPC   NC346007  34.001  17.882   5.101
 3424POPC   PO446008  34.011  17.255   5.438
 3424POPC   GL146009  33.838  17.552   5.727
 3424POPC   GL246010  34.192  17.647   5.755
 3424POPC   C1A46011  33.616  17.497   6.146
 3424POPC   D2A46012  33.706  17.152   6.468
 3424POPC   C3A46013  33.757  17.279   6.892
 3424POPC   C4A46014  33.598  17.477   7.252
 3424POPC   C1B46015  34.127  17.393   6.122
 3424POPC   C2B46016  34.149  17.399   6.529
 3424POPC   C3B46017  34.234  17.504   6.926
 3424POPC   C4B46018  34.078  17.318   7.300
 3425POPC   NC346019  39.290  26.721   5.418
 3425POPC   PO446020  39.284  27.362   5.369
 3425POPC   GL146021  39.418  27.102   5.735
 3425POPC   GL246022  39.062  27.013   5.757
 3425POPC   C1A46023  39.379  26.868   6.158
 3425POPC   D2A46024  39.457  26.566   6.507
 3425POPC   C3A46025  39.359  26.559   6.970
 3425POPC   C4A46026  39.076  26.532   7.334
 3425POPC   C1B46027  38.961  27.166   6.152
 3425POPC   C2B46028  39.172  27.203   6.541
 3425POPC   C3B46029  39.108  27.003   6.916
 3425POPC   C4B46030  39.125  27.073   7.318
 3426POPC   NC346031   2.964  10.435   5.388
 3426POPC   PO446032   2.424  10.795   5.583
 3426POPC   GL146033   2.733  10.574   5.860
 3426POPC   GL246034   2.705  10.215   5.779
 3426POPC   C1A46035   2.769  10.470   6.321
 3426POPC   D2A46036   2.479  10.512   6.724
 3426POPC   C3A46037   2.773  10.533   7.061
 3426POPC   C4A46038   3.209  10.460   7.057
 3426POPC   C1B46039   2.626   9.982   6.148
 3426POPC   C2B46040   2.666  10.038   6.590
 3426POPC   C3B46041   2.896  10.035   6.976
 3426POPC   C4B46042   2.788  10.153   7.418
 3427POPC   NC346043   7.013  39.204   5.536
 3427POPC   PO446044   7.666  39.085   5.394
 3427POPC   GL146045   7.449  39.240   5.796
 3427POPC   GL246046   7.248  39.571   5.813
 3427POPC   C1A46047   7.294  39.165   6.238
 3427POPC   D2A46048   7.427  38.990   6.654
 3427POPC   C3A46049   7.122  38.982   6.973
 3427POPC   C4A46050   7.121  39.124   7.376
 3427POPC   C1B46051   7.586  39.588   6.152
 3427POPC   C2B46052   7.541  39.532   6.608
 3427POPC   C3B46053   7.487  39.362   7.036
 3427POPC   C4B46054   7.552  39.362   7.490
 3428POPC   NC346055  39.880  43.495   5.410
 3428POPC   PO446056  39.586  42.894   5.388
 3428POPC   GL146057  39.942  43.048   5.749
 3428POPC   GL246058  40.136  43.377   5.843
 3428POPC   C1A46059  40.169  42.966   6.162
 3428POPC   D2A46060  40.152  43.097   6.603
 3428POPC   C3A46061  39.837  42.970   6.888
 3428POPC   C4A46062  40.144  42.915   7.204
 3428POPC   C1B46063  40.198  43.475   6.261
 3428POPC   C2B46064  39.979  43.612   6.605
 3428POPC   C3B46065  39.983  43.440   7.004
 3428POPC   C4B46066  40.139  43.391   7.390
 3429POPC   NC346067  29.388  13.357   5.243
 3429POPC   PO446068  28.896  13.760   5.453
 3429POPC   GL146069  29.137  13.632   5.809
 3429POPC   GL246070  28.958  13.333   5.926
 3429POPC   C1A46071  29.363  13.575   6.197
 3429POPC   D2A46072  29.510  13.444   6.624
 3429POPC   C3A46073  29.271  13.608   6.974
 3429POPC   C4A46074  29.448  13.744   7.357
 3429POPC   C1B46075  28.716  13.387   6.283
 3429POPC   C2B46076  28.824  13.478   6.686
 3429POPC   C3B46077  28.814  13.345   7.079
 3429POPC   C4B46078  28.968  13.585   7.398
 3430POPC   NC346079  17.624  13.325   4.725
 3430POPC   PO446080  17.692  13.585   5.315
 3430POPC   GL146081  17.694  13.556   5.816
 3430POPC   GL246082  17.927  13.277   5.868
 3430POPC   C1A46083  17.487  13.613   6.289
 3430POPC   D2A46084  17.333  13.560   6.774
 3430POPC   C3A46085  17.223  13.839   7.162
 3430POPC   C4A46086  17.197  14.049   7.600
 3430POPC   C1B46087  18.009  13.574   6.237
 3430POPC   C2B46088  17.841  13.675   6.658
 3430POPC   C3B46089  17.761  13.492   7.047
 3430POPC   C4B46090  18.001  13.417   7.382
 3431POPC   NC346091  24.404  37.737   5.146
 3431POPC   PO446092  24.731  37.556   5.706
 3431POPC   GL146093  24.741  37.764   6.048
 3431POPC   GL246094  24.496  38.030   6.063
 3431POPC   C1A46095  24.646  37.587   6.405
 3431POPC   D2A46096  24.503  37.644   6.767
 3431POPC   C3A46097  24.412  37.315   6.987
 3431POPC   C4A46098  24.337  37.416   7.411
 3431POPC   C1B46099  24.218  37.860   6.362
 3431POPC   C2B46100  24.023  37.898   6.717
 3431POPC   C3B46101  24.151  37.806   7.091
 3431POPC   C4B46102  24.284  38.015   7.356
 3432POPC   NC346103  36.530  23.450   5.289
 3432POPC   PO446104  35.954  23.674   5.295
 3432POPC   GL146105  36.174  23.740   5.676
 3432POPC   GL246106  36.178  23.399   5.791
 3432POPC   C1A46107  36.156  23.872   6.129
 3432POPC   D2A46108  36.321  24.097   6.501
 3432POPC   C3A46109  36.167  24.085   6.921
 3432POPC   C4A46110  36.379  23.911   7.270
 3432POPC   C1B46111  35.971  23.389   6.216
 3432POPC   C2B46112  36.043  23.322   6.667
 3432POPC   C3B46113  36.094  23.563   7.036
 3432POPC   C4B46114  35.832  23.381   7.352
 3433POPC   NC346115  27.184  32.307   5.437
 3433POPC   PO446116  26.826  31.815   5.438
 3433POPC   GL146117  26.816  32.183   5.771
 3433POPC   GL246118  26.510  32.411   5.797
 3433POPC   C1A46119  27.091  32.277   6.161
 3433POPC   D2A46120  26.983  31.942   6.478
 3433POPC   C3A46121  27.011  32.013   6.922
 3433POPC   C4A46122  27.237  32.371   7.113
 3433POPC   C1B46123  26.597  32.290   6.256
 3433POPC   C2B46124  26.801  32.467   6.643
 3433POPC   C3B46125  26.726  32.394   7.092
 3433POPC   C4B46126  26.516  32.000   7.162
 3434POPC   NC346127  22.285  14.612   5.194
 3434POPC   PO446128  22.658  14.082   5.489
 3434POPC   GL146129  22.365  14.323   5.648
 3434POPC   GL246130  22.549  14.632   5.645
 3434POPC   C1A46131  22.107  14.361   6.034
 3434POPC   D2A46132  22.251  14.439   6.474
 3434POPC   C3A46133  22.066  14.285   6.848
 3434POPC   C4A46134  22.219  14.249   7.270
 3434POPC   C1B46135  22.591  14.545   6.090
 3434POPC   C2B46136  22.721  14.659   6.540
 3434POPC   C3B46137  22.483  14.617   6.964
 3434POPC   C4B46138  22.501  14.650   7.451
 3435POPC   NC346139  17.109   0.434   5.533
 3435POPC   PO446140  16.600   0.069   5.471
 3435POPC   GL146141  16.745   0.231   5.840
 3435POPC   GL246142  16.549   0.524   5.834
 3435POPC   C1A46143  17.032   0.224   6.189
 3435POPC   D2A46144  17.011  44.999   6.564
 3435POPC   C3A46145  17.053   0.189   6.940
 3435POPC   C4A46146  16.779   0.418   7.165
 3435POPC   C1B46147  16.721   0.640   6.246
 3435POPC   C2B46148  16.703   0.605   6.690
 3435POPC   C3B46149  16.463   0.773   7.023
 3435POPC   C4B46150  16.445   0.703   7.426
 3436POPC   NC346151  43.868  44.754   5.348
 3436POPC   PO446152  44.409  44.560   5.536
 3436POPC   GL146153  44.032  44.612   5.819
 3436POPC   GL246154  43.658  44.549   5.769
 3436POPC   C1A46155  43.905  44.476   6.239
 3436POPC   D2A46156  44.034  44.639   6.657
 3436POPC   C3A46157  43.943  44.404   7.046
 3436POPC   C4A46158  43.957  44.464   7.490
 3436POPC   C1B46159  43.682  44.938   6.058
 3436POPC   C2B46160  43.540  44.979   6.516
 3436POPC   C3B46161  43.650  44.832   6.960
 3436POPC   C4B46162  43.619  44.841   7.431
 3437POPC   NC346163  42.694  22.040   5.535
 3437POPC   PO446164  43.365  22.046   5.544
 3437POPC   GL146165  43.268  22.206   5.877
 3437POPC   GL246166  43.003  22.051   5.944
 3437POPC   C1A46167  43.400  22.180   6.276
 3437POPC   D2A46168  43.145  22.228   6.619
 3437POPC   C3A46169  43.314  21.978   6.896
 3437POPC   C4A46170  43.296  22.099   7.290
 3437POPC   C1B46171  42.743  22.185   6.286
 3437POPC   C2B46172  42.610  22.258   6.693
 3437POPC   C3B46173  42.830  22.174   7.081
 3437POPC   C4B46174  42.719  22.391   7.447
 3438POPC   NC346175  31.549  35.637   5.385
 3438POPC   PO446176  31.942  35.115   5.468
 3438POPC   GL146177  31.575  35.194   5.759
 3438POPC   GL246178  31.365  35.475   5.836
 3438POPC   C1A46179  31.346  35.053   6.126
 3438POPC   D2A46180  31.518  35.088   6.540
 3438POPC   C3A46181  31.367  35.158   6.965
 3438POPC   C4A46182  31.546  35.349   7.313
 3438POPC   C1B46183  31.162  35.513   6.262
 3438POPC   C2B46184  31.175  35.536   6.701
 3438POPC   C3B46185  31.103  35.567   7.149
 3438POPC   C4B46186  31.189  35.558   7.606
 3439POPC   NC346187  26.989   4.969   5.412
 3439POPC   PO446188  26.258   4.875   5.405
 3439POPC   GL146189  26.588   4.812   5.734
 3439POPC   GL246190  26.720   5.120   5.829
 3439POPC   C1A46191  26.735   4.722   6.188
 3439POPC   D2A46192  26.609   4.738   6.642
 3439POPC   C3A46193  26.841   4.621   7.058
 3439POPC   C4A46194  26.718   4.722   7.525
 3439POPC   C1B46195  26.954   5.194   6.198
 3439POPC   C2B46196  26.825   5.249   6.594
 3439POPC   C3B46197  26.928   5.394   6.978
 3439POPC   C4B46198  26.980   5.073   7.295
 3440POPC   NC346199  37.954  44.194   5.532
 3440POPC   PO446200  37.439  43.771   5.288
 3440POPC   GL146201  37.601  43.825   5.725
 3440POPC   GL246202  37.947  43.745   5.806
 3440POPC   C1A46203  37.558  43.962   6.171
 3440POPC   D2A46204  37.635  43.868   6.611
 3440POPC   C3A46205  37.642  44.256   6.860
 3440POPC   C4A46206  37.506  44.302   7.288
 3440POPC   C1B46207  38.022  43.750   6.249
 3440POPC   C2B46208  38.042  43.515   6.633
 3440POPC   C3B46209  37.988  43.670   7.038
 3440POPC   C4B46210  37.594  43.821   7.156
 3441POPC   NC346211  15.920   6.295   5.464
 3441POPC   PO446212  16.078   5.668   5.620
 3441POPC   GL146213  15.987   6.016   5.882
 3441POPC   GL246214  16.298   6.226   5.813
 3441POPC   C1A46215  15.772   6.049   6.264
 3441POPC   D2A46216  15.673   5.790   6.636
 3441POPC   C3A46217  16.052   5.762   6.888
 3441POPC   C4A46218  16.006   5.723   7.346
 3441POPC   C1B46219  16.428   5.891   6.113
 3441POPC   C2B46220  16.577   5.594   6.404
 3441POPC   C3B46221  16.566   5.593   6.837
 3441POPC   C4B46222  16.327   5.406   7.147
 3442POPC   NC346223  24.081  17.589   5.096
 3442POPC   PO446224  24.695  17.653   5.347
 3442POPC   GL146225  24.766  17.452   5.736
 3442POPC   GL246226  25.018  17.670   5.832
 3442POPC   C1A46227  24.604  17.514   6.159
 3442POPC   D2A46228  24.649  17.660   6.583
 3442POPC   C3A46229  24.452  17.533   6.960
 3442POPC   C4A46230  24.552  17.263   7.267
 3442POPC   C1B46231  24.967  17.888   6.222
 3442POPC   C2B46232  24.943  18.095   6.619
 3442POPC   C3B46233  24.818  17.883   6.999
 3442POPC   C4B46234  24.742  17.732   7.409
 3443POPC   NC346235  33.947   6.573   5.341
 3443POPC   PO446236  33.388   6.555   5.547
 3443POPC   GL146237  33.567   6.436   5.896
 3443POPC   GL246238  33.860   6.588   5.864
 3443POPC   C1A46239  33.611   6.613   6.309
 3443POPC   D2A46240  33.856   6.902   6.557
 3443POPC   C3A46241  33.740   6.769   6.950
 3443POPC   C4A46242  33.826   6.825   7.349
 3443POPC   C1B46243  34.046   6.356   6.236
 3443POPC   C2B46244  34.205   6.487   6.641
 3443POPC   C3B46245  34.104   6.423   7.059
 3443POPC   C4B46246  33.715   6.270   7.247
 3444POPC   NC346247  37.512  12.509   5.535
 3444POPC   PO446248  37.822  13.059   5.370
 3444POPC   GL146249  37.676  12.953   5.776
 3444POPC   GL246250  37.936  12.680   5.777
 3444POPC   C1A46251  37.363  12.799   6.106
 3444POPC   D2A46252  37.251  12.726   6.524
 3444POPC   C3A46253  37.526  12.799   6.879
 3444POPC   C4A46254  37.374  12.897   7.288
 3444POPC   C1B46255  37.887  12.771   6.223
 3444POPC   C2B46256  38.088  12.557   6.582
 3444POPC   C3B46257  38.098  12.758   6.977
 3444POPC   C4B46258  37.931  13.097   7.218
 3445POPC   NC346259  27.386  21.417   5.189
 3445POPC   PO446260  27.911  21.209   5.490
 3445POPC   GL146261  27.540  21.361   5.740
 3445POPC   GL246262  27.234  21.161   5.788
 3445POPC   C1A46263  27.535  21.538   6.181
 3445POPC   D2A46264  27.744  21.650   6.577
 3445POPC   C3A46265  27.468  21.583   6.924
 3445POPC   C4A46266  27.382  21.484   7.347
 3445POPC   C1B46267  27.420  21.045   6.172
 3445POPC   C2B46268  27.438  21.185   6.610
 3445POPC   C3B46269  27.144  21.184   6.960
 3445POPC   C4B46270  26.895  21.310   7.298
 3446POPC   NC346271   6.518  28.796   5.461
 3446POPC   PO446272   6.522  29.499   5.469
 3446POPC   GL146273   6.727  29.335   5.878
 3446POPC   GL246274   6.701  28.959   5.894
 3446POPC   C1A46275   6.723  29.158   6.332
 3446POPC   D2A46276   6.478  28.998   6.621
 3446POPC   C3A46277   6.755  29.103   6.929
 3446POPC   C4A46278   6.737  29.434   7.208
 3446POPC   C1B46279   6.498  28.638   6.209
 3446POPC   C2B46280   6.366  28.499   6.635
 3446POPC   C3B46281   6.522  28.658   7.041
 3446POPC   C4B46282   6.445  29.025   7.308
 3447POPC   NC346283  10.020  17.701   5.512
 3447POPC   PO446284   9.436  17.350   5.643
 3447POPC   GL146285   9.832  17.361   5.856
 3447POPC   GL246286   9.757  17.721   5.941
 3447POPC   C1A46287   9.966  17.382   6.288
 3447POPC   D2A46288   9.618  17.442   6.585
 3447POPC   C3A46289   9.729  17.413   7.017
 3447POPC   C4A46290  10.043  17.292   7.392
 3447POPC   C1B46291   9.947  17.890   6.299
 3447POPC   C2B46292   9.968  17.808   6.747
 3447POPC   C3B46293  10.068  17.769   7.176
 3447POPC   C4B46294   9.726  17.671   7.449
 3448POPC   NC346295  30.266  11.944   5.463
 3448POPC   PO446296  30.975  12.052   5.496
 3448POPC   GL146297  30.838  12.090   5.891
 3448POPC   GL246298  30.642  11.787   5.913
 3448POPC   C1A46299  31.033  11.896   6.253
 3448POPC   D2A46300  31.107  11.780   6.699
 3448POPC   C3A46301  30.983  12.119   7.013
 3448POPC   C4A46302  30.896  12.439   7.338
 3448POPC   C1B46303  30.553  12.028   6.335
 3448POPC   C2B46304  30.579  11.819   6.740
 3448POPC   C3B46305  30.453  11.780   7.153
 3448POPC   C4B46306  30.444  12.196   7.265
 3449POPC   NC346307  28.264  11.958   5.262
 3449POPC   PO446308  28.816  12.061   5.528
 3449POPC   GL146309  28.444  11.953   5.747
 3449POPC   GL246310  28.247  12.280   5.687
 3449POPC   C1A46311  28.297  11.857   6.160
 3449POPC   D2A46312  28.473  12.099   6.503
 3449POPC   C3A46313  28.338  12.166   6.915
 3449POPC   C4A46314  28.661  12.332   7.179
 3449POPC   C1B46315  28.206  12.354   6.118
 3449POPC   C2B46316  28.119  12.550   6.492
 3449POPC   C3B46317  28.142  12.667   6.904
 3449POPC   C4B46318  28.199  12.507   7.298
 3450POPC   NC346319   0.027  13.476   5.436
 3450POPC   PO446320   0.730  13.184   5.489
 3450POPC   GL146321   0.657  13.486   5.822
 3450POPC   GL246322   0.307  13.558   5.848
 3450POPC   C1A46323   0.619  13.451   6.241
 3450POPC   D2A46324   0.676  13.744   6.523
 3450POPC   C3A46325   0.613  13.585   6.871
 3450POPC   C4A46326   0.446  13.571   7.264
 3450POPC   C1B46327   0.342  13.905   6.151
 3450POPC   C2B46328   0.262  14.038   6.575
 3450POPC   C3B46329   0.116  13.730   6.889
 3450POPC   C4B46330  44.982  13.756   7.331
 3451POPC   NC346331  34.164   1.986   5.127
 3451POPC   PO446332  34.546   2.069   5.572
 3451POPC   GL146333  34.548   1.850   5.922
 3451POPC   GL246334  34.205   1.701   5.950
 3451POPC   C1A46335  34.559   2.133   6.243
 3451POPC   D2A46336  34.397   2.306   6.622
 3451POPC   C3A46337  34.625   2.143   6.978
 3451POPC   C4A46338  34.795   2.247   7.357
 3451POPC   C1B46339  34.309   1.562   6.347
 3451POPC   C2B46340  34.517   1.807   6.622
 3451POPC   C3B46341  34.913   1.750   6.855
 3451POPC   C4B46342  34.825   1.745   7.272
 3452POPC   NC346343  13.150   1.890   5.211
 3452POPC   PO446344  13.778   2.115   5.289
 3452POPC   GL146345  13.723   2.018   5.756
 3452POPC   GL246346  13.342   2.062   5.774
 3452POPC   C1A46347  13.832   2.092   6.215
 3452POPC   D2A46348  14.080   2.034   6.587
 3452POPC   C3A46349  13.926   2.144   6.979
 3452POPC   C4A46350  13.611   1.915   7.098
 3452POPC   C1B46351  13.368   1.841   6.193
 3452POPC   C2B46352  13.347   1.679   6.651
 3452POPC   C3B46353  13.282   1.547   7.095
 3452POPC   C4B46354  13.547   1.471   7.451
 3453POPC   NC346355   6.145  37.781   5.148
 3453POPC   PO446356   6.119  37.188   5.233
 3453POPC   GL146357   5.921  37.453   5.591
 3453POPC   GL246358   5.977  37.818   5.655
 3453POPC   C1A46359   5.722  37.543   6.022
 3453POPC   D2A46360   5.862  37.587   6.482
 3453POPC   C3A46361   5.618  37.494   6.892
 3453POPC   C4A46362   5.686  37.422   7.354
 3453POPC   C1B46363   5.680  38.053   5.972
 3453POPC   C2B46364   5.734  38.116   6.429
 3453POPC   C3B46365   5.845  37.975   6.835
 3453POPC   C4B46366   5.599  37.928   7.193
 3454POPC   NC346367  44.241  16.894   5.582
 3454POPC   PO446368  43.621  16.705   5.486
 3454POPC   GL146369  43.820  16.679   5.848
 3454POPC   GL246370  43.616  16.410   5.942
 3454POPC   C1A46371  43.997  16.853   6.221
 3454POPC   D2A46372  44.128  16.758   6.607
 3454POPC   C3A46373  43.923  16.922   6.961
 3454POPC   C4A46374  43.687  16.997   7.343
 3454POPC   C1B46375  43.860  16.367   6.289
 3454POPC   C2B46376  43.942  16.261   6.692
 3454POPC   C3B46377  43.951  16.421   7.073
 3454POPC   C4B46378  43.818  16.499   7.470
 3455POPC   NC346379   8.039  24.410   5.209
 3455POPC   PO446380   7.701  24.802   5.641
 3455POPC   GL146381   8.080  24.543   5.776
 3455POPC   GL246382   7.882  24.460   6.024
 3455POPC   C1A46383   8.335  24.480   6.202
 3455POPC   D2A46384   8.124  24.328   6.613
 3455POPC   C3A46385   8.200  24.551   7.026
 3455POPC   C4A46386   8.138  24.563   7.487
 3455POPC   C1B46387   7.729  24.129   6.237
 3455POPC   C2B46388   7.724  23.999   6.613
 3455POPC   C3B46389   7.769  24.224   6.996
 3455POPC   C4B46390   7.609  24.091   7.350
 3456POPC   NC346391  12.595  24.740   5.495
 3456POPC   PO446392  12.078  24.325   5.382
 3456POPC   GL146393  12.004  24.543   5.767
 3456POPC   GL246394  12.337  24.389   5.860
 3456POPC   C1A46395  11.774  24.595   6.185
 3456POPC   D2A46396  11.991  24.485   6.551
 3456POPC   C3A46397  11.861  24.328   6.939
 3456POPC   C4A46398  12.129  24.304   7.275
 3456POPC   C1B46399  12.279  24.719   6.183
 3456POPC   C2B46400  12.425  24.740   6.631
 3456POPC   C3B46401  12.105  24.765   6.989
 3456POPC   C4B46402  11.731  24.697   7.284
 3457POPC   NC346403  20.605  22.643   5.496
 3457POPC   PO446404  20.534  23.352   5.385
 3457POPC   GL146405  20.566  23.162   5.772
 3457POPC   GL246406  20.879  23.001   5.751
 3457POPC   C1A46407  20.673  23.103   6.208
 3457POPC   D2A46408  20.532  22.826   6.530
 3457POPC   C3A46409  20.578  23.010   6.920
 3457POPC   C4A46410  20.334  22.988   7.309
 3457POPC   C1B46411  21.048  22.766   6.136
 3457POPC   C2B46412  21.060  22.919   6.577
 3457POPC   C3B46413  21.072  23.146   6.973
 3457POPC   C4B46414  20.895  22.906   7.309
 3458POPC   NC346415  34.396  17.062   5.618
 3458POPC   PO446416  34.812  17.524   5.405
 3458POPC   GL146417  34.709  17.460   5.835
 3458POPC   GL246418  34.885  17.154   5.873
 3458POPC   C1A46419  34.891  17.490   6.267
 3458POPC   D2A46420  34.741  17.701   6.627
 3458POPC   C3A46421  34.798  17.483   6.983
 3458POPC   C4A46422  34.748  17.681   7.328
 3458POPC   C1B46423  34.549  17.118   6.218
 3458POPC   C2B46424  34.601  17.187   6.622
 3458POPC   C3B46425  34.405  17.043   6.981
 3458POPC   C4B46426  34.560  17.185   7.312
 3459POPC   NC346427  22.652  12.074   5.212
 3459POPC   PO446428  21.968  12.013   5.042
 3459POPC   GL146429  21.903  12.054   5.561
 3459POPC   GL246430  22.205  12.134   5.765
 3459POPC   C1A46431  21.788  12.030   6.054
 3459POPC   D2A46432  21.834  12.249   6.469
 3459POPC   C3A46433  22.052  12.144   6.846
 3459POPC   C4A46434  21.862  11.943   7.212
 3459POPC   C1B46435  22.306  12.134   6.238
 3459POPC   C2B46436  22.565  12.301   6.590
 3459POPC   C3B46437  22.524  12.336   7.028
 3459POPC   C4B46438  22.377  12.024   7.262
 3460POPC   NC346439  13.266   7.506   5.519
 3460POPC   PO446440  12.663   7.648   5.342
 3460POPC   GL146441  12.831   7.534   5.769
 3460POPC   GL246442  12.959   7.165   5.757
 3460POPC   C1A46443  12.929   7.676   6.213
 3460POPC   D2A46444  12.974   7.894   6.599
 3460POPC   C3A46445  12.617   7.701   6.832
 3460POPC   C4A46446  12.573   7.481   7.214
 3460POPC   C1B46447  13.219   7.052   6.119
 3460POPC   C2B46448  13.269   7.266   6.510
 3460POPC   C3B46449  13.251   7.094   6.933
 3460POPC   C4B46450  12.839   7.059   7.096
 3461POPC   NC346451  28.254  20.173   5.408
 3461POPC   PO446452  28.539  19.633   5.357
 3461POPC   GL146453  28.298  19.763   5.750
 3461POPC   GL246454  28.097  19.476   5.824
 3461POPC   C1A46455  28.374  19.644   6.199
 3461POPC   D2A46456  28.520  19.573   6.603
 3461POPC   C3A46457  28.389  19.807   6.971
 3461POPC   C4A46458  28.226  19.888   7.412
 3461POPC   C1B46459  27.910  19.412   6.263
 3461POPC   C2B46460  28.014  19.388   6.745
 3461POPC   C3B46461  28.143  19.422   7.219
 3461POPC   C4B46462  28.185  19.454   7.694
 3462POPC   NC346463  21.415  33.456   5.450
 3462POPC   PO446464  21.028  33.001   5.543
 3462POPC   GL146465  21.240  33.066   5.927
 3462POPC   GL246466  21.545  33.268   5.924
 3462POPC   C1A46467  21.152  33.051   6.354
 3462POPC   D2A46468  21.508  33.160   6.548
 3462POPC   C3A46469  21.550  33.015   6.944
 3462POPC   C4A46470  21.340  32.962   7.349
 3462POPC   C1B46471  21.283  33.519   6.222
 3462POPC   C2B46472  21.121  33.498   6.668
 3462POPC   C3B46473  21.128  33.359   7.121
 3462POPC   C4B46474  21.258  33.443   7.613
 3463POPC   NC346475  39.084  28.880   5.477
 3463POPC   PO446476  39.338  29.489   5.411
 3463POPC   GL146477  39.199  29.284   5.812
 3463POPC   GL246478  39.386  28.974   5.893
 3463POPC   C1A46479  39.191  29.387   6.268
 3463POPC   D2A46480  39.253  29.191   6.673
 3463POPC   C3A46481  39.188  29.370   7.076
 3463POPC   C4A46482  39.229  29.388   7.512
 3463POPC   C1B46483  39.017  28.915   6.151
 3463POPC   C2B46484  38.804  28.967   6.553
 3463POPC   C3B46485  38.949  28.896   7.015
 3463POPC   C4B46486  38.993  28.960   7.474
 3464POPC   NC346487   2.311  14.346   5.557
 3464POPC   PO446488   1.591  14.502   5.497
 3464POPC   GL146489   1.806  14.423   5.890
 3464POPC   GL246490   2.130  14.572   5.972
 3464POPC   C1A46491   1.874  14.258   6.311
 3464POPC   D2A46492   1.632  14.087   6.650
 3464POPC   C3A46493   1.661  14.258   7.063
 3464POPC   C4A46494   1.769  14.359   7.469
 3464POPC   C1B46495   2.253  14.762   6.361
 3464POPC   C2B46496   2.279  14.728   6.800
 3464POPC   C3B46497   2.155  14.489   7.162
 3464POPC   C4B46498   2.147  14.634   7.633
 3465POPC   NC346499  44.616   5.928   5.306
 3465POPC   PO446500  44.696   6.548   5.426
 3465POPC   GL146501  44.681   6.180   5.729
 3465POPC   GL246502  44.764   5.780   5.780
 3465POPC   C1A46503  44.639   6.071   6.179
 3465POPC   D2A46504  44.759   5.629   6.361
 3465POPC   C3A46505  44.994   5.601   6.785
 3465POPC   C4A46506  44.900   5.663   7.245
 3465POPC   C1B46507  44.368   5.683   6.025
 3465POPC   C2B46508  44.281   5.709   6.492
 3465POPC   C3B46509  44.520   5.751   6.878
 3465POPC   C4B46510  44.407   5.913   7.341
 3466POPC   NC346511  37.163  15.613   5.375
 3466POPC   PO446512  37.229  16.286   5.375
 3466POPC   GL146513  37.016  16.100   5.762
 3466POPC   GL246514  36.923  15.735   5.801
 3466POPC   C1A46515  37.095  16.014   6.219
 3466POPC   D2A46516  36.976  16.184   6.622
 3466POPC   C3A46517  37.180  16.040   7.016
 3466POPC   C4A46518  36.962  15.919   7.384
 3466POPC   C1B46519  36.660  15.759   6.134
 3466POPC   C2B46520  36.573  15.836   6.530
 3466POPC   C3B46521  36.673  15.858   6.962
 3466POPC   C4B46522  36.578  15.613   7.356
 3467POPC   NC346523  23.711  16.682   5.263
 3467POPC   PO446524  24.284  16.633   5.537
 3467POPC   GL146525  23.866  16.529   5.792
 3467POPC   GL246526  23.559  16.747   5.761
 3467POPC   C1A46527  23.819  16.616   6.271
 3467POPC   D2A46528  24.115  16.695   6.645
 3467POPC   C3A46529  23.885  16.652   7.027
 3467POPC   C4A46530  23.423  16.623   7.096
 3467POPC   C1B46531  23.864  17.032   5.972
 3467POPC   C2B46532  23.889  17.124   6.438
 3467POPC   C3B46533  23.638  17.084   6.797
 3467POPC   C4B46534  23.652  17.114   7.227
 3468POPC   NC346535  29.308  34.939   5.494
 3468POPC   PO446536  28.882  34.495   5.543
 3468POPC   GL146537  29.133  34.662   5.888
 3468POPC   GL246538  29.454  34.853   5.994
 3468POPC   C1A46539  29.233  34.481   6.290
 3468POPC   D2A46540  28.974  34.232   6.561
 3468POPC   C3A46541  29.043  34.364   6.967
 3468POPC   C4A46542  29.176  34.281   7.380
 3468POPC   C1B46543  29.089  34.975   6.274
 3468POPC   C2B46544  28.969  34.783   6.638
 3468POPC   C3B46545  29.070  34.874   7.055
 3468POPC   C4B46546  29.454  34.682   7.229
 3469POPC   NC346547  27.511  15.402   4.978
 3469POPC   PO446548  27.644  14.811   5.350
 3469POPC   GL146549  27.603  14.968   5.786
 3469POPC   GL246550  27.791  15.314   5.738
 3469POPC   C1A46551  27.414  14.884   6.209
 3469POPC   D2A46552  27.405  14.801   6.660
 3469POPC   C3A46553  27.514  15.079   6.974
 3469POPC   C4A46554  27.861  15.069   7.254
 3469POPC   C1B46555  27.511  15.362   6.103
 3469POPC   C2B46556  27.608  15.370   6.560
 3469POPC   C3B46557  27.748  15.535   6.974
 3469POPC   C4B46558  27.890  15.731   7.333
 3470POPC   NC346559  36.666  10.799   5.440
 3470POPC   PO446560  37.167  10.373   5.419
 3470POPC   GL146561  37.149  10.434   5.811
 3470POPC   GL246562  37.047  10.759   5.811
 3470POPC   C1A46563  37.006  10.432   6.212
 3470POPC   D2A46564  36.904  10.277   6.603
 3470POPC   C3A46565  37.062  10.388   6.986
 3470POPC   C4A46566  36.771  10.376   7.362
 3470POPC   C1B46567  37.064  10.979   6.164
 3470POPC   C2B46568  36.963  10.837   6.533
 3470POPC   C3B46569  37.143  10.878   6.892
 3470POPC   C4B46570  36.890  10.830   7.218
 3471POPC   NC346571  44.292  43.873   5.426
 3471POPC   PO446572  43.660  43.906   5.424
 3471POPC   GL146573  43.864  44.059   5.811
 3471POPC   GL246574  44.238  44.148   5.857
 3471POPC   C1A46575  43.698  43.971   6.232
 3471POPC   D2A46576  43.811  44.120   6.630
 3471POPC   C3A46577  43.648  43.883   6.983
 3471POPC   C4A46578  43.810  44.006   7.345
 3471POPC   C1B46579  44.190  43.792   6.145
 3471POPC   C2B46580  44.053  43.676   6.565
 3471POPC   C3B46581  44.157  43.871   6.966
 3471POPC   C4B46582  44.106  43.605   7.326
 3472POPC   NC346583   3.232  42.360   5.489
 3472POPC   PO446584   3.930  42.540   5.363
 3472POPC   GL146585   3.862  42.535   5.801
 3472POPC   GL246586   3.742  42.187   5.806
 3472POPC   C1A46587   3.665  42.571   6.224
 3472POPC   D2A46588   3.390  42.534   6.609
 3472POPC   C3A46589   3.584  42.447   7.025
 3472POPC   C4A46590   3.653  42.725   7.401
 3472POPC   C1B46591   3.553  42.067   6.233
 3472POPC   C2B46592   3.508  42.021   6.693
 3472POPC   C3B46593   3.499  41.940   7.147
 3472POPC   C4B46594   3.751  41.894   7.537
 3473POPC   NC346595   1.093  14.617   5.431
 3473POPC   PO446596   1.433  15.240   5.299
 3473POPC   GL146597   1.352  15.316   5.747
 3473POPC   GL246598   1.035  15.155   5.833
 3473POPC   C1A46599   1.297  15.562   6.139
 3473POPC   D2A46600   1.388  15.442   6.560
 3473POPC   C3A46601   1.030  15.283   6.767
 3473POPC   C4A46602   1.078  15.338   7.200
 3473POPC   C1B46603   1.298  15.052   6.203
 3473POPC   C2B46604   1.416  14.952   6.619
 3473POPC   C3B46605   1.278  14.893   6.994
 3473POPC   C4B46606   1.381  14.637   7.278
 3474POPC   NC346607  44.248  35.784   5.533
 3474POPC   PO446608  44.851  36.041   5.319
 3474POPC   GL146609  44.700  36.112   5.770
 3474POPC   GL246610  44.383  36.046   5.924
 3474POPC   C1A46611  44.717  36.258   6.236
 3474POPC   D2A46612  44.504  36.246   6.658
 3474POPC   C3A46613  44.736  36.344   7.060
 3474POPC   C4A46614  44.904  36.106   7.404
 3474POPC   C1B46615  44.283  35.704   6.204
 3474POPC   C2B46616  44.478  35.695   6.581
 3474POPC   C3B46617  44.640  35.849   6.968
 3474POPC   C4B46618  44.488  35.709   7.353
 3475POPC   NC346619   4.469   3.472   5.404
 3475POPC   PO446620   3.865   3.819   5.431
 3475POPC   GL146621   4.069   3.674   5.839
 3475POPC   GL246622   4.439   3.576   5.905
 3475POPC   C1A46623   4.124   3.662   6.297
 3475POPC   D2A46624   4.370   3.787   6.621
 3475POPC   C3A46625   4.109   3.717   6.972
 3475POPC   C4A46626   4.154   3.398   7.238
 3475POPC   C1B46627   4.543   3.362   6.315
 3475POPC   C2B46628   4.575   3.335   6.786
 3475POPC   C3B46629   4.824   3.179   7.138
 3475POPC   C4B46630   4.862   3.262   7.583
 3476POPC   NC346631  28.039  24.473   5.401
 3476POPC   PO446632  28.621  24.139   5.334
 3476POPC   GL146633  28.578  24.363   5.732
 3476POPC   GL246634  28.243  24.357   5.829
 3476POPC   C1A46635  28.557  24.539   6.172
 3476POPC   D2A46636  28.543  24.761   6.572
 3476POPC   C3A46637  28.597  24.521   6.941
 3476POPC   C4A46638  28.384  24.420   7.330
 3476POPC   C1B46639  28.033  24.384   6.213
 3476POPC   C2B46640  28.074  24.555   6.625
 3476POPC   C3B46641  28.010  24.375   6.988
 3476POPC   C4B46642  27.691  24.266   7.260
 3477POPC   NC346643   2.305  23.138   5.349
 3477POPC   PO446644   1.670  23.071   5.448
 3477POPC   GL146645   1.976  23.094   5.756
 3477POPC   GL246646   1.995  22.743   5.739
 3477POPC   C1A46647   2.059  23.103   6.202
 3477POPC   D2A46648   1.944  23.021   6.636
 3477POPC   C3A46649   2.049  23.154   7.063
 3477POPC   C4A46650   2.198  23.324   7.477
 3477POPC   C1B46651   1.829  22.629   6.136
 3477POPC   C2B46652   1.984  22.522   6.536
 3477POPC   C3B46653   1.889  22.639   6.968
 3477POPC   C4B46654   1.647  22.535   7.318
 3478POPC   NC346655  23.347  39.109   5.531
 3478POPC   PO446656  22.736  38.903   5.537
 3478POPC   GL146657  22.849  39.163   5.894
 3478POPC   GL246658  23.203  39.211   6.000
 3478POPC   C1A46659  22.702  39.398   6.261
 3478POPC   D2A46660  22.824  39.524   6.687
 3478POPC   C3A46661  23.037  39.179   6.876
 3478POPC   C4A46662  23.174  38.857   7.115
 3478POPC   C1B46663  23.217  39.468   6.353
 3478POPC   C2B46664  23.370  39.546   6.776
 3478POPC   C3B46665  23.193  39.508   7.210
 3478POPC   C4B46666  23.203  39.566   7.668
 3479POPC   NC346667  27.305  23.100   5.034
 3479POPC   PO446668  27.894  22.996   5.394
 3479POPC   GL146669  27.964  23.075   5.799
 3479POPC   GL246670  28.199  23.338   5.718
 3479POPC   C1A46671  27.822  22.923   6.216
 3479POPC   D2A46672  27.915  22.823   6.660
 3479POPC   C3A46673  27.553  22.955   6.910
 3479POPC   C4A46674  27.278  22.838   7.273
 3479POPC   C1B46675  28.028  23.412   6.155
 3479POPC   C2B46676  27.798  23.321   6.540
 3479POPC   C3B46677  27.893  23.369   6.963
 3479POPC   C4B46678  27.657  23.235   7.319
 3480POPC   NC346679  24.152  12.976   5.261
 3480POPC   PO446680  24.668  12.590   5.334
 3480POPC   GL146681  24.406  12.795   5.666
 3480POPC   GL246682  24.653  13.074   5.636
 3480POPC   C1A46683  24.395  13.067   6.070
 3480POPC   D2A46684  24.503  13.263   6.490
 3480POPC   C3A46685  24.407  13.039   6.914
 3480POPC   C4A46686  24.332  12.616   7.091
 3480POPC   C1B46687  24.817  12.748   5.954
 3480POPC   C2B46688  24.850  12.628   6.386
 3480POPC   C3B46689  24.794  12.712   6.821
 3480POPC   C4B46690  24.893  12.631   7.259
 3481POPC   NC346691  24.442  29.698   5.407
 3481POPC   PO446692  24.567  30.329   5.474
 3481POPC   GL146693  24.506  30.055   5.809
 3481POPC   GL246694  24.195  29.940   5.786
 3481POPC   C1A46695  24.472  29.983   6.254
 3481POPC   D2A46696  24.391  30.237   6.587
 3481POPC   C3A46697  24.433  30.059   6.980
 3481POPC   C4A46698  24.550  29.950   7.398
 3481POPC   C1B46699  23.996  30.058   6.161
 3481POPC   C2B46700  23.996  29.884   6.565
 3481POPC   C3B46701  24.049  29.692   6.957
 3481POPC   C4B46702  24.034  29.923   7.313
 3482POPC   NC346703  37.084  13.291   5.414
 3482POPC   PO446704  36.670  13.835   5.268
 3482POPC   GL146705  36.840  13.738   5.698
 3482POPC   GL246706  37.124  13.939   5.801
 3482POPC   C1A46707  36.746  13.783   6.160
 3482POPC   D2A46708  36.607  13.455   6.451
 3482POPC   C3A46709  36.769  13.499   6.874
 3482POPC   C4A46710  37.031  13.217   7.096
 3482POPC   C1B46711  37.232  13.668   6.132
 3482POPC   C2B46712  37.124  13.740   6.551
 3482POPC   C3B46713  37.247  13.804   6.974
 3482POPC   C4B46714  37.136  13.650   7.360
 3483POPC   NC346715  25.869  25.587   5.351
 3483POPC   PO446716  25.933  24.856   5.399
 3483POPC   GL146717  25.883  24.974   5.812
 3483POPC   GL246718  26.014  25.291   5.758
 3483POPC   C1A46719  25.725  24.946   6.236
 3483POPC   D2A46720  25.955  25.099   6.582
 3483POPC   C3A46721  25.826  24.971   6.982
 3483POPC   C4A46722  26.041  25.020   7.349
 3483POPC   C1B46723  25.823  25.440   6.131
 3483POPC   C2B46724  25.807  25.593   6.575
 3483POPC   C3B46725  26.014  25.451   6.979
 3483POPC   C4B46726  25.833  25.503   7.399
 3484POPC   NC346727  44.905  26.754   5.286
 3484POPC   PO446728  44.294  26.878   5.484
 3484POPC   GL146729  44.537  26.962   5.819
 3484POPC   GL246730  44.799  27.169   5.675
 3484POPC   C1A46731  44.487  26.757   6.235
 3484POPC   D2A46732  44.304  26.573   6.624
 3484POPC   C3A46733  44.488  26.743   7.015
 3484POPC   C4A46734  44.747  26.540   7.311
 3484POPC   C1B46735  44.919  27.102   6.116
 3484POPC   C2B46736  44.912  27.147   6.563
 3484POPC   C3B46737   0.140  27.128   6.954
 3484POPC   C4B46738  44.930  27.063   7.308
 3485POPC   NC346739  34.825   2.274   5.200
 3485POPC   PO446740  35.201   2.812   5.430
 3485POPC   GL146741  35.118   2.940   5.825
 3485POPC   GL246742  34.934   2.635   5.940
 3485POPC   C1A46743  35.347   2.789   6.224
 3485POPC   D2A46744  35.448   2.495   6.562
 3485POPC   C3A46745  35.593   2.659   6.943
 3485POPC   C4A46746  35.416   2.743   7.307
 3485POPC   C1B46747  34.859   2.977   6.243
 3485POPC   C2B46748  35.002   3.119   6.636
 3485POPC   C3B46749  34.992   2.913   7.057
 3485POPC   C4B46750  34.853   2.757   7.489
 3486POPC   NC346751  13.345   5.680   5.423
 3486POPC   PO446752  13.836   6.111   5.334
 3486POPC   GL146753  13.717   5.975   5.765
 3486POPC   GL246754  13.368   6.057   5.795
 3486POPC   C1A46755  13.652   6.097   6.228
 3486POPC   D2A46756  13.707   6.179   6.678
 3486POPC   C3A46757  13.767   5.842   7.005
 3486POPC   C4A46758  13.601   5.702   7.396
 3486POPC   C1B46759  13.276   5.745   6.161
 3486POPC   C2B46760  13.413   5.742   6.620
 3486POPC   C3B46761  13.215   5.803   7.039
 3486POPC   C4B46762  13.138   5.503   7.387
 3487POPC   NC346763  24.112   4.255   5.407
 3487POPC   PO446764  24.832   4.452   5.542
 3487POPC   GL146765  24.712   4.210   5.899
 3487POPC   GL246766  24.345   4.178   5.864
 3487POPC   C1A46767  24.585   4.266   6.334
 3487POPC   D2A46768  24.479   4.388   6.768
 3487POPC   C3A46769  24.740   4.190   7.094
 3487POPC   C4A46770  24.851   4.083   7.529
 3487POPC   C1B46771  24.297   4.597   6.042
 3487POPC   C2B46772  24.200   4.779   6.448
 3487POPC   C3B46773  24.210   4.788   6.903
 3487POPC   C4B46774  24.394   4.585   7.267
 3488POPC   NC346775   2.698  24.791   5.337
 3488POPC   PO446776   2.678  24.187   5.634
 3488POPC   GL146777   2.891  24.486   5.788
 3488POPC   GL246778   2.714  24.803   5.849
 3488POPC   C1A46779   2.975  24.520   6.220
 3488POPC   D2A46780   2.703  24.421   6.612
 3488POPC   C3A46781   2.900  24.301   7.016
 3488POPC   C4A46782   3.037  24.552   7.352
 3488POPC   C1B46783   2.550  24.810   6.283
 3488POPC   C2B46784   2.493  24.925   6.707
 3488POPC   C3B46785   2.639  24.775   7.111
 3488POPC   C4B46786   2.605  24.714   7.591
 3489POPC   NC346787  44.766  12.630   5.503
 3489POPC   PO446788  44.536  13.203   5.255
 3489POPC   GL146789  44.442  13.103   5.758
 3489POPC   GL246790  44.434  12.753   5.851
 3489POPC   C1A46791  44.568  13.136   6.205
 3489POPC   D2A46792  44.640  13.017   6.656
 3489POPC   C3A46793  44.335  13.113   6.978
 3489POPC   C4A46794  44.335  13.006   7.430
 3489POPC   C1B46795  44.482  12.625   6.280
 3489POPC   C2B46796  44.785  12.533   6.610
 3489POPC   C3B46797   0.051  12.767   6.902
 3489POPC   C4B46798  44.815  13.038   7.188
 3490POPC   NC346799  33.975  14.540   5.356
 3490POPC   PO446800  33.447  14.213   5.652
 3490POPC   GL146801  33.512  14.576   5.929
 3490POPC   GL246802  33.881  14.663   5.879
 3490POPC   C1A46803  33.529  14.561   6.393
 3490POPC   D2A46804  33.458  14.521   6.826
 3490POPC   C3A46805  33.646  14.621   7.211
 3490POPC   C4A46806  33.450  14.686   7.664
 3490POPC   C1B46807  34.026  14.529   6.322
 3490POPC   C2B46808  34.008  14.484   6.792
 3490POPC   C3B46809  34.150  14.448   7.224
 3490POPC   C4B46810  34.152  14.268   7.644
 3491POPC   NC346811  42.262  10.178   5.362
 3491POPC   PO446812  42.221   9.538   5.313
 3491POPC   GL146813  42.176   9.776   5.688
 3491POPC   GL246814  42.498   9.959   5.769
 3491POPC   C1A46815  42.216   9.688   6.121
 3491POPC   D2A46816  42.399   9.465   6.454
 3491POPC   C3A46817  42.334   9.748   6.779
 3491POPC   C4A46818  42.063   9.767   7.153
 3491POPC   C1B46819  42.744   9.947   6.164
 3491POPC   C2B46820  42.708  10.127   6.584
 3491POPC   C3B46821  42.786   9.944   6.959
 3491POPC   C4B46822  42.550   9.788   7.242
 3492POPC   NC346823  38.662  38.244   5.565
 3492POPC   PO446824  38.610  38.814   5.131
 3492POPC   GL146825  38.462  38.743   5.569
 3492POPC   GL246826  38.167  38.512   5.631
 3492POPC   C1A46827  38.521  38.692   6.022
 3492POPC   D2A46828  38.559  38.921   6.416
 3492POPC   C3A46829  38.385  38.686   6.776
 3492POPC   C4A46830  38.570  38.571   7.197
 3492POPC   C1B46831  38.186  38.314   6.066
 3492POPC   C2B46832  38.368  38.219   6.490
 3492POPC   C3B46833  38.280  38.212   6.955
 3492POPC   C4B46834  38.247  38.183   7.417
 3493POPC   NC346835  11.778  40.186   5.198
 3493POPC   PO446836  12.027  39.586   5.301
 3493POPC   GL146837  11.854  39.736   5.695
 3493POPC   GL246838  11.921  40.088   5.732
 3493POPC   C1A46839  12.016  39.764   6.131
 3493POPC   D2A46840  11.913  39.641   6.535
 3493POPC   C3A46841  12.051  39.801   6.946
 3493POPC   C4A46842  11.906  39.733   7.364
 3493POPC   C1B46843  11.751  40.207   6.163
 3493POPC   C2B46844  11.790  40.151   6.635
 3493POPC   C3B46845  11.848  40.379   7.058
 3493POPC   C4B46846  12.152  40.532   7.420
 3494POPC   NC346847  42.079  11.269   4.948
 3494POPC   PO446848  42.387  11.406   5.502
 3494POPC   GL146849  42.462  11.149   5.892
 3494POPC   GL246850  42.117  11.092   5.954
 3494POPC   C1A46851  42.467  11.182   6.364
 3494POPC   D2A46852  42.251  11.475   6.607
 3494POPC   C3A46853  42.430  11.622   6.985
 3494POPC   C4A46854  42.125  11.517   7.292
 3494POPC   C1B46855  42.038  10.875   6.334
 3494POPC   C2B46856  42.155  10.938   6.721
 3494POPC   C3B46857  42.407  11.137   6.968
 3494POPC   C4B46858  42.801  11.157   7.123
 3495POPC   NC346859  34.023  25.482   5.565
 3495POPC   PO446860  33.336  25.286   5.379
 3495POPC   GL146861  33.516  25.362   5.794
 3495POPC   GL246862  33.750  25.597   5.975
 3495POPC   C1A46863  33.636  25.172   6.196
 3495POPC   D2A46864  33.835  25.327   6.563
 3495POPC   C3A46865  33.553  25.432   6.854
 3495POPC   C4A46866  33.462  25.263   7.228
 3495POPC   C1B46867  34.156  25.509   6.215
 3495POPC   C2B46868  34.294  25.586   6.664
 3495POPC   C3B46869  34.054  25.538   7.044
 3495POPC   C4B46870  33.926  25.122   7.035
 3496POPC   NC346871  25.653   6.828   5.643
 3496POPC   PO446872  25.391   6.235   5.465
 3496POPC   GL146873  25.320   6.481   5.851
 3496POPC   GL246874  25.486   6.705   6.095
 3496POPC   C1A46875  25.101   6.394   6.208
 3496POPC   D2A46876  25.265   6.520   6.607
 3496POPC   C3A46877  25.096   6.450   7.031
 3496POPC   C4A46878  25.308   6.415   7.457
 3496POPC   C1B46879  25.207   6.972   6.313
 3496POPC   C2B46880  25.055   6.963   6.727
 3496POPC   C3B46881  25.210   6.940   7.151
 3496POPC   C4B46882  25.169   7.288   7.418
 3497POPC   NC346883  37.115  36.200   5.471
 3497POPC   PO446884  36.488  35.990   5.431
 3497POPC   GL146885  36.711  36.148   5.816
 3497POPC   GL246886  37.076  36.079   5.952
 3497POPC   C1A46887  36.668  36.081   6.252
 3497POPC   D2A46888  37.013  36.078   6.505
 3497POPC   C3A46889  36.824  36.049   6.868
 3497POPC   C4A46890  36.793  36.083   7.279
 3497POPC   C1B46891  37.296  36.401   6.194
 3497POPC   C2B46892  37.166  36.571   6.610
 3497POPC   C3B46893  37.073  36.448   7.052
 3497POPC   C4B46894  37.295  36.208   7.379
 3498POPC   NC346895  43.961  28.555   5.415
 3498POPC   PO446896  44.259  27.878   5.475
 3498POPC   GL146897  44.182  28.067   5.879
 3498POPC   GL246898  43.947  28.348   5.868
 3498POPC   C1A46899  44.009  28.106   6.330
 3498POPC   D2A46900  43.870  27.938   6.751
 3498POPC   C3A46901  44.092  28.115   7.131
 3498POPC   C4A46902  44.018  28.114   7.610
 3498POPC   C1B46903  43.775  28.554   6.226
 3498POPC   C2B46904  43.545  28.399   6.587
 3498POPC   C3B46905  43.577  28.296   7.029
 3498POPC   C4B46906  43.836  28.516   7.306
 3499POPC   NC346907   7.981  39.451   5.495
 3499POPC   PO446908   8.664  39.072   5.452
 3499POPC   GL146909   8.302  39.090   5.759
 3499POPC   GL246910   8.263  39.420   5.925
 3499POPC   C1A46911   8.280  39.026   6.223
 3499POPC   D2A46912   8.548  39.276   6.515
 3499POPC   C3A46913   8.400  39.327   6.925
 3499POPC   C4A46914   8.016  39.096   7.151
 3499POPC   C1B46915   8.077  39.479   6.320
 3499POPC   C2B46916   7.970  39.237   6.654
 3499POPC   C3B46917   7.949  39.548   6.952
 3499POPC   C4B46918   7.795  39.744   7.282
 3500POPC   NC346919  36.047  17.240   5.438
 3500POPC   PO446920  36.241  17.869   5.260
 3500POPC   GL146921  36.263  17.631   5.712
 3500POPC   GL246922  35.980  17.402   5.909
 3500POPC   C1A46923  36.398  17.557   6.174
 3500POPC   D2A46924  36.304  17.764   6.589
 3500POPC   C3A46925  36.124  17.558   6.957
 3500POPC   C4A46926  36.036  17.787   7.327
 3500POPC   C1B46927  35.844  17.048   6.211
 3500POPC   C2B46928  35.687  17.042   6.658
 3500POPC   C3B46929  35.739  17.046   7.123
 3500POPC   C4B46930  35.969  17.294   7.413
 3501POPC   NC346931  10.922  17.628   5.291
 3501POPC   PO446932  10.354  17.363   5.477
 3501POPC   GL146933  10.595  17.619   5.727
 3501POPC   GL246934  10.831  17.357   5.760
 3501POPC   C1A46935  10.432  17.761   6.144
 3501POPC   D2A46936  10.433  17.936   6.572
 3501POPC   C3A46937  10.615  17.702   6.934
 3501POPC   C4A46938  10.512  17.565   7.360
 3501POPC   C1B46939  10.620  17.281   6.164
 3501POPC   C2B46940  10.404  17.375   6.567
 3501POPC   C3B46941  10.334  17.239   6.995
 3501POPC   C4B46942  10.467  17.008   7.401
 3502POPC   NC346943  26.880  29.828   5.230
 3502POPC   PO446944  26.898  30.390   5.538
 3502POPC   GL146945  26.723  30.091   5.805
 3502POPC   GL246946  26.856  29.744   5.756
 3502POPC   C1A46947  26.808  30.023   6.252
 3502POPC   D2A46948  26.739  29.858   6.669
 3502POPC   C3A46949  26.901  30.114   6.987
 3502POPC   C4A46950  26.691  30.146   7.393
 3502POPC   C1B46951  27.109  29.627   6.127
 3502POPC   C2B46952  27.241  29.727   6.578
 3502POPC   C3B46953  27.101  29.613   6.999
 3502POPC   C4B46954  26.708  29.660   7.161
 3503POPC   NC346955   8.366  34.118   5.248
 3503POPC   PO446956   8.015  34.755   5.340
 3503POPC   GL146957   8.268  34.608   5.682
 3503POPC   GL246958   7.989  34.387   5.720
 3503POPC   C1A46959   8.323  34.451   6.113
 3503POPC   D2A46960   8.303  34.306   6.543
 3503POPC   C3A46961   8.432  34.640   6.827
 3503POPC   C4A46962   8.385  34.767   7.246
 3503POPC   C1B46963   7.856  34.676   6.043
 3503POPC   C2B46964   7.815  34.599   6.495
 3503POPC   C3B46965   7.923  34.730   6.937
 3503POPC   C4B46966   7.740  34.556   7.317
 3504POPC   NC346967  26.989  36.774   5.400
 3504POPC   PO446968  26.363  37.101   5.294
 3504POPC   GL146969  26.665  36.952   5.736
 3504POPC   GL246970  27.026  36.964   5.855
 3504POPC   C1A46971  26.663  36.831   6.239
 3504POPC   D2A46972  26.525  36.898   6.706
 3504POPC   C3A46973  26.780  36.751   7.080
 3504POPC   C4A46974  26.676  36.795   7.549
 3504POPC   C1B46975  27.124  37.050   6.250
 3504POPC   C2B46976  27.036  36.919   6.616
 3504POPC   C3B46977  27.280  36.869   6.947
 3504POPC   C4B46978  27.161  37.017   7.333
 3505POPC   NC346979  12.581  20.090   5.448
 3505POPC   PO446980  13.092  19.666   5.460
 3505POPC   GL146981  12.950  19.896   5.808
 3505POPC   GL246982  12.641  19.706   5.864
 3505POPC   C1A46983  13.006  19.920   6.272
 3505POPC   D2A46984  12.851  20.172   6.648
 3505POPC   C3A46985  12.693  19.922   7.006
 3505POPC   C4A46986  12.910  19.636   7.231
 3505POPC   C1B46987  12.714  19.446   6.250
 3505POPC   C2B46988  12.750  19.507   6.709
 3505POPC   C3B46989  12.516  19.352   7.050
 3505POPC   C4B46990  12.403  19.639   7.379
 3506POPC   NC346991  27.453  44.986   5.526
 3506POPC   PO446992  27.749   0.517   5.304
 3506POPC   GL146993  27.619   0.534   5.749
 3506POPC   GL246994  27.706   0.232   5.909
 3506POPC   C1A46995  27.426   0.629   6.178
 3506POPC   D2A46996  27.266   0.709   6.621
 3506POPC   C3A46997  27.531   0.531   6.943
 3506POPC   C4A46998  27.459   0.497   7.356
 3506POPC   C1B46999  27.865   0.145   6.315
 3506POPC   C2B47000  27.879   0.200   6.768
 3506POPC   C3B47001  27.806   0.125   7.193
 3506POPC   C4B47002  27.699   0.085   7.639
 3507POPC   NC347003  21.411  27.290   5.387
 3507POPC   PO447004  21.475  26.638   5.378
 3507POPC   GL147005  21.622  26.555   5.797
 3507POPC   GL247006  21.639  26.918   5.797
 3507POPC   C1A47007  21.678  26.650   6.257
 3507POPC   D2A47008  21.479  26.452   6.606
 3507POPC   C3A47009  21.557  26.636   6.997
 3507POPC   C4A47010  21.302  26.517   7.331
 3507POPC   C1B47011  21.290  26.933   6.092
 3507POPC   C2B47012  21.227  26.917   6.566
 3507POPC   C3B47013  21.068  26.793   6.983
 3507POPC   C4B47014  21.145  26.990   7.422
 3508POPC   NC347015  15.569  20.716   5.490
 3508POPC   PO447016  16.203  20.706   5.264
 3508POPC   GL147017  16.230  20.670   5.712
 3508POPC   GL247018  15.941  20.467   5.852
 3508POPC   C1A47019  16.265  20.742   6.168
 3508POPC   D2A47020  16.072  20.547   6.548
 3508POPC   C3A47021  16.029  20.855   6.908
 3508POPC   C4A47022  16.306  21.051   7.230
 3508POPC   C1B47023  15.639  20.380   6.195
 3508POPC   C2B47024  15.567  20.503   6.611
 3508POPC   C3B47025  15.790  20.391   6.974
 3508POPC   C4B47026  15.650  20.309   7.369
 3509POPC   NC347027  37.189   7.594   5.273
 3509POPC   PO447028  37.767   7.233   5.079
 3509POPC   GL147029  37.818   7.450   5.501
 3509POPC   GL247030  37.490   7.447   5.645
 3509POPC   C1A47031  37.830   7.532   6.013
 3509POPC   D2A47032  37.553   7.707   6.360
 3509POPC   C3A47033  37.577   7.577   6.794
 3509POPC   C4A47034  37.733   7.704   7.182
 3509POPC   C1B47035  37.347   7.301   6.050
 3509POPC   C2B47036  37.323   7.242   6.494
 3509POPC   C3B47037  37.186   7.261   6.946
 3509POPC   C4B47038  37.491   7.223   7.258
 3510POPC   NC347039  34.072  12.764   5.323
 3510POPC   PO447040  33.749  13.272   5.663
 3510POPC   GL147041  33.675  12.966   5.975
 3510POPC   GL247042  33.917  12.719   5.858
 3510POPC   C1A47043  33.701  12.598   6.307
 3510POPC   D2A47044  33.661  12.344   6.690
 3510POPC   C3A47045  33.637  12.630   7.048
 3510POPC   C4A47046  33.602  13.106   7.064
 3510POPC   C1B47047  34.093  12.949   6.253
 3510POPC   C2B47048  33.942  12.894   6.699
 3510POPC   C3B47049  34.063  12.909   7.152
 3510POPC   C4B47050  34.126  12.754   7.576
 3511POPC   NC347051  24.897  43.939   5.353
 3511POPC   PO447052  25.444  43.682   5.497
 3511POPC   GL147053  25.428  43.557   5.961
 3511POPC   GL247054  25.068  43.483   5.943
 3511POPC   C1A47055  25.575  43.730   6.426
 3511POPC   D2A47056  25.671  44.081   6.779
 3511POPC   C3A47057  25.411  44.130   7.205
 3511POPC   C4A47058  25.446  44.136   7.701
 3511POPC   C1B47059  25.067  43.742   6.320
 3511POPC   C2B47060  25.143  43.961   6.726
 3511POPC   C3B47061  24.903  44.156   7.084
 3511POPC   C4B47062  24.975  44.062   7.522
 3512POPC   NC347063  22.719  37.698   5.242
 3512POPC   PO447064  22.178  37.319   5.373
 3512POPC   GL147065  22.248  37.613   5.721
 3512POPC   GL247066  21.968  37.612   5.850
 3512POPC   C1A47067  22.435  37.706   6.173
 3512POPC   D2A47068  22.694  37.617   6.594
 3512POPC   C3A47069  22.503  37.718   7.041
 3512POPC   C4A47070  22.316  37.751   7.510
 3512POPC   C1B47071  21.978  37.522   6.289
 3512POPC   C2B47072  22.022  37.711   6.705
 3512POPC   C3B47073  21.987  37.648   7.130
 3512POPC   C4B47074  21.819  37.295   7.325
 3513POPC   NC347075   1.563  23.509   5.368
 3513POPC   PO447076   1.035  23.978   5.373
 3513POPC   GL147077   1.152  23.782   5.789
 3513POPC   GL247078   1.329  23.464   5.827
 3513POPC   C1A47079   1.331  23.944   6.207
 3513POPC   D2A47080   1.201  24.089   6.631
 3513POPC   C3A47081   1.428  23.872   6.995
 3513POPC   C4A47082   1.328  23.720   7.454
 3513POPC   C1B47083   1.111  23.492   6.229
 3513POPC   C2B47084   1.117  23.593   6.653
 3513POPC   C3B47085   1.174  23.425   7.057
 3513POPC   C4B47086   0.904  23.453   7.380
 3514POPC   NC347087  39.143  22.256   5.305
 3514POPC   PO447088  39.728  22.445   5.480
 3514POPC   GL147089  39.363  22.405   5.804
 3514POPC   GL247090  38.952  22.419   5.775
 3514POPC   C1A47091  39.260  22.300   6.249
 3514POPC   D2A47092  39.283  21.990   6.610
 3514POPC   C3A47093  39.332  22.063   7.093
 3514POPC   C4A47094  39.370  22.167   7.536
 3514POPC   C1B47095  38.755  22.320   6.210
 3514POPC   C2B47096  38.867  22.267   6.624
 3514POPC   C3B47097  38.862  21.963   6.942
 3514POPC   C4B47098  38.849  22.209   7.253
 3515POPC   NC347099  42.792  32.904   5.368
 3515POPC   PO447100  43.462  32.678   5.234
 3515POPC   GL147101  43.249  32.929   5.614
 3515POPC   GL247102  42.941  32.764   5.819
 3515POPC   C1A47103  43.202  33.082   6.072
 3515POPC   D2A47104  43.137  32.828   6.442
 3515POPC   C3A47105  43.157  33.047   6.832
 3515POPC   C4A47106  43.322  33.111   7.233
 3515POPC   C1B47107  42.648  33.001   6.074
 3515POPC   C2B47108  42.662  33.119   6.492
 3515POPC   C3B47109  42.655  32.936   6.868
 3515POPC   C4B47110  42.811  33.041   7.254
 3516POPC   NC347111   7.184  30.434   5.239
 3516POPC   PO447112   7.600  30.695   5.665
 3516POPC   GL147113   7.295  30.689   5.947
 3516POPC   GL247114   7.060  30.522   5.731
 3516POPC   C1A47115   7.468  30.738   6.381
 3516POPC   D2A47116   7.643  31.044   6.693
 3516POPC   C3A47117   7.656  30.879   7.112
 3516POPC   C4A47118   7.348  30.896   7.464
 3516POPC   C1B47119   7.130  30.230   6.080
 3516POPC   C2B47120   7.378  30.191   6.437
 3516POPC   C3B47121   7.222  30.132   6.840
 3516POPC   C4B47122   7.338  30.483   7.116
 3517POPC   NC347123  31.888  16.634   5.336
 3517POPC   PO447124  32.432  17.110   5.193
 3517POPC   GL147125  32.294  17.032   5.678
 3517POPC   GL247126  32.023  16.820   5.770
 3517POPC   C1A47127  32.372  16.860   6.139
 3517POPC   D2A47128  32.280  17.079   6.537
 3517POPC   C3A47129  32.239  16.907   6.935
 3517POPC   C4A47130  32.565  16.813   7.229
 3517POPC   C1B47131  32.099  16.435   6.036
 3517POPC   C2B47132  32.105  16.550   6.471
 3517POPC   C3B47133  32.273  16.405   6.831
 3517POPC   C4B47134  32.149  16.472   7.213
 3518POPC   NC347135   0.807  21.377   5.641
 3518POPC   PO447136   1.462  21.446   5.402
 3518POPC   GL147137   1.430  21.533   5.848
 3518POPC   GL247138   1.129  21.761   5.875
 3518POPC   C1A47139   1.333  21.494   6.297
 3518POPC   D2A47140   1.051  21.153   6.430
 3518POPC   C3A47141   0.913  21.106   6.845
 3518POPC   C4A47142   1.220  21.046   7.130
 3518POPC   C1B47143   0.830  21.678   6.239
 3518POPC   C2B47144   0.882  21.580   6.663
 3518POPC   C3B47145   1.095  21.543   7.054
 3518POPC   C4B47146   1.526  21.679   7.052
 3519POPC   NC347147   4.154  27.767   5.481
 3519POPC   PO447148   4.467  27.254   5.303
 3519POPC   GL147149   4.548  27.371   5.765
 3519POPC   GL247150   4.185  27.442   5.882
 3519POPC   C1A47151   4.551  27.454   6.250
 3519POPC   D2A47152   4.289  27.549   6.632
 3519POPC   C3A47153   4.245  27.436   7.086
 3519POPC   C4A47154   4.462  27.277   7.443
 3519POPC   C1B47155   3.971  27.814   6.105
 3519POPC   C2B47156   4.086  28.020   6.490
 3519POPC   C3B47157   3.956  27.863   6.894
 3519POPC   C4B47158   4.086  27.889   7.318
 3520POPC   NC347159  29.314  28.604   5.457
 3520POPC   PO447160  28.758  28.124   5.443
 3520POPC   GL147161  29.069  28.206   5.809
 3520POPC   GL247162  29.213  28.553   5.946
 3520POPC   C1A47163  28.948  28.248   6.264
 3520POPC   D2A47164  29.096  28.487   6.641
 3520POPC   C3A47165  29.199  28.342   7.042
 3520POPC   C4A47166  29.173  28.124   7.371
 3520POPC   C1B47167  29.494  28.424   6.299
 3520POPC   C2B47168  29.608  28.396   6.753
 3520POPC   C3B47169  29.619  28.604   7.186
 3520POPC   C4B47170  29.487  28.448   7.620
 3521POPC   NC347171  44.434  14.331   5.422
 3521POPC   PO447172  44.912  14.791   5.317
 3521POPC   GL147173  44.675  14.684   5.738
 3521POPC   GL247174  44.653  14.309   5.871
 3521POPC   C1A47175  44.542  14.657   6.206
 3521POPC   D2A47176  44.498  14.412   6.582
 3521POPC   C3A47177  44.613  14.609   6.961
 3521POPC   C4A47178  44.693  14.403   7.349
 3521POPC   C1B47179  44.843  14.133   6.256
 3521POPC   C2B47180  44.732  13.961   6.664
 3521POPC   C3B47181  44.584  13.988   7.104
 3521POPC   C4B47182  44.597  13.965   7.594
 3522POPC   NC347183   3.236   6.604   5.649
 3522POPC   PO447184   2.666   6.613   5.301
 3522POPC   GL147185   2.745   6.469   5.728
 3522POPC   GL247186   2.985   6.189   5.827
 3522POPC   C1A47187   2.658   6.389   6.157
 3522POPC   D2A47188   2.419   6.502   6.512
 3522POPC   C3A47189   2.686   6.752   6.773
 3522POPC   C4A47190   2.709   6.720   7.210
 3522POPC   C1B47191   3.188   6.136   6.214
 3522POPC   C2B47192   3.140   6.366   6.578
 3522POPC   C3B47193   2.926   6.342   6.941
 3522POPC   C4B47194   3.080   6.357   7.302
 3523POPC   NC347195  21.851  21.496   5.171
 3523POPC   PO447196  22.405  21.178   5.340
 3523POPC   GL147197  22.338  21.376   5.752
 3523POPC   GL247198  21.989  21.494   5.681
 3523POPC   C1A47199  22.368  21.414   6.233
 3523POPC   D2A47200  22.117  21.238   6.585
 3523POPC   C3A47201  22.280  21.239   7.033
 3523POPC   C4A47202  22.316  21.604   7.327
 3523POPC   C1B47203  21.883  21.527   6.111
 3523POPC   C2B47204  21.887  21.712   6.524
 3523POPC   C3B47205  21.856  21.506   6.927
 3523POPC   C4B47206  21.842  21.223   7.291
 3524POPC   NC347207  28.420  44.462   5.442
 3524POPC   PO447208  27.867  44.886   5.308
 3524POPC   GL147209  28.091  44.926   5.743
 3524POPC   GL247210  28.441  44.872   5.755
 3524POPC   C1A47211  28.106  44.702   6.185
 3524POPC   D2A47212  27.983  44.346   6.504
 3524POPC   C3A47213  28.078  44.497   6.937
 3524POPC   C4A47214  28.245  44.892   7.041
 3524POPC   C1B47215  28.621  44.713   6.162
 3524POPC   C2B47216  28.486  44.506   6.572
 3524POPC   C3B47217  28.564  44.289   6.963
 3524POPC   C4B47218  28.818  44.407   7.317
 3525POPC   NC347219  11.736  22.283   5.353
 3525POPC   PO447220  12.263  21.964   5.328
 3525POPC   GL147221  12.127  22.259   5.707
 3525POPC   GL247222  11.863  22.458   5.819
 3525POPC   C1A47223  12.199  22.244   6.165
 3525POPC   D2A47224  12.406  22.409   6.562
 3525POPC   C3A47225  12.208  22.312   6.945
 3525POPC   C4A47226  12.005  22.119   7.281
 3525POPC   C1B47227  11.736  22.462   6.243
 3525POPC   C2B47228  11.712  22.265   6.659
 3525POPC   C3B47229  11.631  22.386   7.096
 3525POPC   C4B47230  11.611  22.359   7.585
 3526POPC   NC347231  26.529  43.543   5.457
 3526POPC   PO447232  26.867  43.003   5.403
 3526POPC   GL147233  26.851  43.101   5.810
 3526POPC   GL247234  26.703  43.340   5.872
 3526POPC   C1A47235  26.964  42.874   6.186
 3526POPC   D2A47236  27.246  42.832   6.548
 3526POPC   C3A47237  26.997  42.782   6.945
 3526POPC   C4A47238  26.913  42.834   7.392
 3526POPC   C1B47239  26.840  43.417   6.261
 3526POPC   C2B47240  26.844  43.152   6.595
 3526POPC   C3B47241  26.617  43.138   6.930
 3526POPC   C4B47242  26.617  43.291   7.310
 3527POPC   NC347243  28.115  20.797   5.531
 3527POPC   PO447244  28.673  20.385   5.377
 3527POPC   GL147245  28.453  20.481   5.791
 3527POPC   GL247246  28.112  20.352   5.883
 3527POPC   C1A47247  28.384  20.671   6.221
 3527POPC   D2A47248  28.189  20.755   6.615
 3527POPC   C3A47249  28.411  20.729   7.016
 3527POPC   C4A47250  28.077  20.903   7.251
 3527POPC   C1B47251  28.391  20.162   6.228
 3527POPC   C2B47252  28.393  20.258   6.670
 3527POPC   C3B47253  28.114  20.327   7.002
 3527POPC   C4B47254  28.203  20.431   7.471
 3528POPC   NC347255  35.876  37.958   5.454
 3528POPC   PO447256  36.321  38.330   5.151
 3528POPC   GL147257  36.184  38.329   5.677
 3528POPC   GL247258  35.976  38.611   5.837
 3528POPC   C1A47259  36.144  38.280   6.201
 3528POPC   D2A47260  35.969  38.498   6.584
 3528POPC   C3A47261  36.110  38.370   6.995
 3528POPC   C4A47262  36.141  38.544   7.408
 3528POPC   C1B47263  36.300  38.764   6.152
 3528POPC   C2B47264  36.416  38.918   6.567
 3528POPC   C3B47265  36.617  38.823   6.972
 3528POPC   C4B47266  36.610  38.836   7.421
 3529POPC   NC347267  23.579  12.112   5.240
 3529POPC   PO447268  24.158  11.881   5.440
 3529POPC   GL147269  23.922  12.050   5.792
 3529POPC   GL247270  23.669  12.320   5.710
 3529POPC   C1A47271  23.742  12.059   6.237
 3529POPC   D2A47272  23.542  11.874   6.630
 3529POPC   C3A47273  23.774  11.835   7.019
 3529POPC   C4A47274  23.914  11.946   7.439
 3529POPC   C1B47275  23.933  12.493   6.039
 3529POPC   C2B47276  23.915  12.457   6.483
 3529POPC   C3B47277  23.728  12.326   6.854
 3529POPC   C4B47278  23.815  12.452   7.248
 3530POPC   NC347279   9.542  11.340   5.280
 3530POPC   PO447280   9.192  11.741   5.716
 3530POPC   GL147281   9.650  11.544   5.839
 3530POPC   GL247282   9.956  11.333   5.709
 3530POPC   C1A47283   9.935  11.492   6.229
 3530POPC   D2A47284   9.929  11.522   6.682
 3530POPC   C3A47285   9.598  11.215   6.818
 3530POPC   C4A47286   9.365  11.105   7.171
 3530POPC   C1B47287  10.195  11.086   6.048
 3530POPC   C2B47288  10.257  11.130   6.520
 3530POPC   C3B47289  10.079  11.102   6.957
 3530POPC   C4B47290  10.202  10.985   7.365
 3531POPC   NC347291   7.318  25.104   5.193
 3531POPC   PO447292   7.432  25.648   5.578
 3531POPC   GL147293   7.296  25.388   5.912
 3531POPC   GL247294   7.234  25.077   5.715
 3531POPC   C1A47295   7.529  25.152   6.247
 3531POPC   D2A47296   7.654  25.060   6.693
 3531POPC   C3A47297   7.597  25.314   7.094
 3531POPC   C4A47298   7.568  25.388   7.571
 3531POPC   C1B47299   7.048  24.937   6.095
 3531POPC   C2B47300   7.138  25.036   6.548
 3531POPC   C3B47301   7.154  25.052   6.990
 3531POPC   C4B47302   7.289  24.969   7.397
 3532POPC   NC347303  30.600  31.205   5.377
 3532POPC   PO447304  30.911  31.824   5.489
 3532POPC   GL147305  30.734  31.529   5.753
 3532POPC   GL247306  31.010  31.264   5.761
 3532POPC   C1A47307  30.499  31.570   6.131
 3532POPC   D2A47308  30.598  31.409   6.541
 3532POPC   C3A47309  30.527  31.574   6.923
 3532POPC   C4A47310  30.653  31.445   7.345
 3532POPC   C1B47311  30.962  31.374   6.198
 3532POPC   C2B47312  31.088  31.460   6.635
 3532POPC   C3B47313  31.064  31.538   7.061
 3532POPC   C4B47314  31.111  31.247   7.408
 3533POPC   NC347315   6.872  17.180   5.441
 3533POPC   PO447316   6.560  17.825   5.455
 3533POPC   GL147317   6.623  17.526   5.764
 3533POPC   GL247318   6.984  17.428   5.853
 3533POPC   C1A47319   6.697  17.663   6.181
 3533POPC   D2A47320   6.784  17.387   6.511
 3533POPC   C3A47321   6.623  17.433   6.886
 3533POPC   C4A47322   6.703  17.637   7.215
 3533POPC   C1B47323   7.210  17.420   6.231
 3533POPC   C2B47324   7.226  17.096   6.516
 3533POPC   C3B47325   7.023  17.099   6.887
 3533POPC   C4B47326   7.179  17.290   7.227
 3534POPC   NC347327  44.834  29.837   5.396
 3534POPC   PO447328  44.126  29.665   5.392
 3534POPC   GL147329  44.407  29.830   5.732
 3534POPC   GL247330  44.301  30.160   5.867
 3534POPC   C1A47331  44.762  29.740   6.060
 3534POPC   D2A47332  44.934  29.587   6.478
 3534POPC   C3A47333  44.851  29.842   6.860
 3534POPC   C4A47334  44.849  29.893   7.315
 3534POPC   C1B47335  44.710  30.254   6.123
 3534POPC   C2B47336  44.894  30.415   6.538
 3534POPC   C3B47337  44.693  30.333   6.948
 3534POPC   C4B47338  44.353  30.032   7.052
 3535POPC   NC347339  44.792   4.246   5.286
 3535POPC   PO447340  44.924   4.849   5.581
 3535POPC   GL147341  44.746   4.447   5.776
 3535POPC   GL247342  44.970   4.143   5.824
 3535POPC   C1A47343  44.524   4.512   6.205
 3535POPC   D2A47344  44.484   4.763   6.604
 3535POPC   C3A47345  44.640   4.588   7.035
 3535POPC   C4A47346  44.480   4.210   7.300
 3535POPC   C1B47347   0.034   4.439   6.183
 3535POPC   C2B47348  44.875   4.389   6.613
 3535POPC   C3B47349  44.917   4.127   7.000
 3535POPC   C4B47350  44.958   4.326   7.408
 3536POPC   NC347351   4.310  12.620   5.254
 3536POPC   PO447352   3.946  13.150   5.368
 3536POPC   GL147353   3.978  13.146   5.808
 3536POPC   GL247354   4.277  12.901   5.865
 3536POPC   C1A47355   4.129  13.222   6.238
 3536POPC   D2A47356   4.302  12.808   6.457
 3536POPC   C3A47357   4.300  12.687   6.905
 3536POPC   C4A47358   4.076  12.670   7.304
 3536POPC   C1B47359   4.609  13.095   6.160
 3536POPC   C2B47360   4.543  13.242   6.600
 3536POPC   C3B47361   4.565  13.109   7.046
 3536POPC   C4B47362   4.559  12.757   7.361
 3537POPC   NC347363  35.137  37.524   5.303
 3537POPC   PO447364  35.772  37.562   5.180
 3537POPC   GL147365  35.491  37.672   5.625
 3537POPC   GL247366  35.348  37.995   5.585
 3537POPC   C1A47367  35.471  37.530   6.081
 3537POPC   D2A47368  35.473  37.381   6.495
 3537POPC   C3A47369  35.546  37.595   6.856
 3537POPC   C4A47370  35.572  37.429   7.268
 3537POPC   C1B47371  35.290  37.992   6.040
 3537POPC   C2B47372  35.286  37.906   6.483
 3537POPC   C3B47373  35.200  37.959   6.911
 3537POPC   C4B47374  35.313  37.885   7.321
 3538POPC   NC347375  20.834  43.183   5.417
 3538POPC   PO447376  20.337  42.833   5.478
 3538POPC   GL147377  20.502  43.020   5.815
 3538POPC   GL247378  20.835  43.002   5.897
 3538POPC   C1A47379  20.409  43.007   6.219
 3538POPC   D2A47380  20.551  43.112   6.644
 3538POPC   C3A47381  20.702  42.887   6.970
 3538POPC   C4A47382  20.562  43.013   7.345
 3538POPC   C1B47383  20.854  43.268   6.270
 3538POPC   C2B47384  20.769  43.566   6.651
 3538POPC   C3B47385  20.707  43.434   7.089
 3538POPC   C4B47386  20.814  43.399   7.551
 3539POPC   NC347387  44.895   3.269   5.538
 3539POPC   PO447388  44.652   3.877   5.499
 3539POPC   GL147389  44.464   3.757   5.876
 3539POPC   GL247390  44.456   3.397   5.788
 3539POPC   C1A47391  44.648   3.717   6.300
 3539POPC   D2A47392  44.904   3.674   6.678
 3539POPC   C3A47393  44.652   3.643   7.032
 3539POPC   C4A47394  44.691   3.776   7.447
 3539POPC   C1B47395  44.516   3.210   6.193
 3539POPC   C2B47396  44.579   3.275   6.632
 3539POPC   C3B47397  44.572   3.123   7.070
 3539POPC   C4B47398  44.415   3.354   7.439
 3540POPC   NC347399  20.225  20.738   5.367
 3540POPC   PO447400  19.684  20.235   5.484
 3540POPC   GL147401  19.967  20.421   5.791
 3540POPC   GL247402  20.176  20.109   5.819
 3540POPC   C1A47403  19.912  20.708   6.184
 3540POPC   D2A47404  19.965  20.983   6.582
 3540POPC   C3A47405  19.971  20.819   6.997
 3540POPC   C4A47406  19.606  20.660   7.235
 3540POPC   C1B47407  19.977  20.175   6.246
 3540POPC   C2B47408  19.655  20.144   6.552
 3540POPC   C3B47409  19.838  20.328   6.903
 3540POPC   C4B47410  20.113  20.344   7.258
 3541POPC   NC347411   1.005  29.314   5.592
 3541POPC   PO447412   1.720  29.259   5.445
 3541POPC   GL147413   1.481  29.091   5.814
 3541POPC   GL247414   1.447  29.451   5.847
 3541POPC   C1A47415   1.133  28.978   6.166
 3541POPC   D2A47416   1.006  29.156   6.611
 3541POPC   C3A47417   1.060  29.012   7.071
 3541POPC   C4A47418   0.923  29.136   7.506
 3541POPC   C1B47419   1.215  29.478   6.216
 3541POPC   C2B47420   1.134  29.656   6.597
 3541POPC   C3B47421   1.158  29.514   6.975
 3541POPC   C4B47422   1.329  29.380   7.327
 3542POPC   NC347423  24.732  19.039   5.566
 3542POPC   PO447424  24.133  19.471   5.605
 3542POPC   GL147425  24.371  19.207   5.866
 3542POPC   GL247426  24.348  18.843   5.827
 3542POPC   C1A47427  24.549  19.107   6.256
 3542POPC   D2A47428  24.396  19.132   6.660
 3542POPC   C3A47429  24.604  19.348   6.964
 3542POPC   C4A47430  24.539  19.222   7.364
 3542POPC   C1B47431  24.176  18.724   6.236
 3542POPC   C2B47432  24.129  18.694   6.674
 3542POPC   C3B47433  24.336  18.812   7.058
 3542POPC   C4B47434  24.718  18.728   7.276
 3543POPC   NC347435   0.804   3.642   5.351
 3543POPC   PO447436   0.334   3.140   5.496
 3543POPC   GL147437   0.282   3.507   5.799
 3543POPC   GL247438   0.531   3.773   5.792
 3543POPC   C1A47439   0.168   3.742   6.188
 3543POPC   D2A47440   0.377   3.847   6.588
 3543POPC   C3A47441   0.372   3.527   6.912
 3543POPC   C4A47442   0.135   3.679   7.231
 3543POPC   C1B47443   0.678   3.631   6.205
 3543POPC   C2B47444   0.849   3.694   6.599
 3543POPC   C3B47445   0.740   3.866   6.982
 3543POPC   C4B47446   0.768   3.697   7.375
 3544POPC   NC347447  23.623  28.479   5.193
 3544POPC   PO447448  23.980  27.889   5.243
 3544POPC   GL147449  23.759  28.109   5.607
 3544POPC   GL247450  23.628  28.447   5.725
 3544POPC   C1A47451  23.887  28.145   6.063
 3544POPC   D2A47452  24.093  28.276   6.450
 3544POPC   C3A47453  23.901  28.082   6.769
 3544POPC   C4A47454  23.886  28.129   7.178
 3544POPC   C1B47455  23.737  28.665   6.125
 3544POPC   C2B47456  23.934  28.800   6.528
 3544POPC   C3B47457  23.948  28.581   6.918
 3544POPC   C4B47458  23.584  28.520   7.207
 3545POPC   NC347459  19.005  43.297   5.395
 3545POPC   PO447460  18.851  42.574   5.313
 3545POPC   GL147461  18.970  42.864   5.658
 3545POPC   GL247462  18.682  43.030   5.697
 3545POPC   C1A47463  19.207  43.067   6.027
 3545POPC   D2A47464  19.353  43.303   6.386
 3545POPC   C3A47465  19.264  43.179   6.813
 3545POPC   C4A47466  19.102  43.134   7.237
 3545POPC   C1B47467  18.723  42.904   6.134
 3545POPC   C2B47468  18.874  43.160   6.472
 3545POPC   C3B47469  18.733  43.320   6.887
 3545POPC   C4B47470  18.588  43.304   7.307
 3546POPC   NC347471  15.483  24.647   5.496
 3546POPC   PO447472  15.091  24.071   5.340
 3546POPC   GL147473  15.162  24.306   5.718
 3546POPC   GL247474  15.456  24.185   5.856
 3546POPC   C1A47475  15.171  24.474   6.170
 3546POPC   D2A47476  14.913  24.602   6.553
 3546POPC   C3A47477  14.937  24.370   6.931
 3546POPC   C4A47478  15.276  24.639   7.050
 3546POPC   C1B47479  15.581  24.104   6.267
 3546POPC   C2B47480  15.360  24.270   6.628
 3546POPC   C3B47481  15.478  24.189   7.060
 3546POPC   C4B47482  15.528  24.425   7.456
 3547POPC   NC347483  16.257  10.424   5.414
 3547POPC   PO447484  15.565  10.666   5.451
 3547POPC   GL147485  15.882  10.607   5.741
 3547POPC   GL247486  15.933  10.240   5.764
 3547POPC   C1A47487  15.963  10.557   6.193
 3547POPC   D2A47488  16.109  10.569   6.616
 3547POPC   C3A47489  15.770  10.545   6.915
 3547POPC   C4A47490  15.883  10.752   7.272
 3547POPC   C1B47491  16.041  10.052   6.161
 3547POPC   C2B47492  15.821  10.105   6.541
 3547POPC   C3B47493  16.091  10.106   6.844
 3547POPC   C4B47494  16.211  10.375   7.137
 3548POPC   NC347495  19.658   4.730   5.464
 3548POPC   PO447496  19.451   4.081   5.274
 3548POPC   GL147497  19.641   4.259   5.703
 3548POPC   GL247498  19.483   4.536   5.894
 3548POPC   C1A47499  19.815   4.282   6.170
 3548POPC   D2A47500  19.622   4.307   6.615
 3548POPC   C3A47501  19.819   4.232   7.024
 3548POPC   C4A47502  19.833   4.188   7.461
 3548POPC   C1B47503  19.347   4.585   6.288
 3548POPC   C2B47504  19.357   4.767   6.688
 3548POPC   C3B47505  19.377   4.499   7.061
 3548POPC   C4B47506  19.416   4.547   7.506
 3549POPC   NC347507   5.067   1.089   5.423
 3549POPC   PO447508   4.773   1.698   5.376
 3549POPC   GL147509   4.914   1.460   5.767
 3549POPC   GL247510   4.936   1.098   5.914
 3549POPC   C1A47511   5.254   1.460   6.072
 3549POPC   D2A47512   5.245   1.543   6.481
 3549POPC   C3A47513   5.115   1.315   6.860
 3549POPC   C4A47514   5.478   1.369   7.129
 3549POPC   C1B47515   4.843   1.230   6.316
 3549POPC   C2B47516   4.661   1.117   6.671
 3549POPC   C3B47517   4.790   0.913   7.021
 3549POPC   C4B47518   4.981   1.101   7.349
 3550POPC   NC347519   0.159   7.098   5.325
 3550POPC   PO447520   0.398   7.764   5.426
 3550POPC   GL147521   0.533   7.535   5.823
 3550POPC   GL247522   0.412   7.175   5.812
 3550POPC   C1A47523   0.670   7.447   6.250
 3550POPC   D2A47524   0.464   7.261   6.619
 3550POPC   C3A47525   0.279   7.501   6.920
 3550POPC   C4A47526   0.613   7.593   7.178
 3550POPC   C1B47527   0.499   6.958   6.203
 3550POPC   C2B47528   0.293   6.783   6.565
 3550POPC   C3B47529   0.153   6.952   6.951
 3550POPC   C4B47530   0.342   7.152   7.271
 3551POPC   NC347531  43.410  38.995   5.582
 3551POPC   PO447532  43.128  39.572   5.308
 3551POPC   GL147533  43.216  39.441   5.749
 3551POPC   GL247534  42.995  39.696   5.821
 3551POPC   C1A47535  43.213  39.127   6.156
 3551POPC   D2A47536  43.401  38.859   6.494
 3551POPC   C3A47537  43.441  39.050   6.863
 3551POPC   C4A47538  43.353  38.974   7.283
 3551POPC   C1B47539  42.938  39.551   6.218
 3551POPC   C2B47540  43.125  39.379   6.606
 3551POPC   C3B47541  43.032  39.289   7.055
 3551POPC   C4B47542  42.972  39.254   7.531
 3552POPC   NC347543  44.198   3.925   5.438
 3552POPC   PO447544  43.813   3.398   5.360
 3552POPC   GL147545  43.969   3.540   5.819
 3552POPC   GL247546  43.933   3.887   5.873
 3552POPC   C1A47547  44.146   3.619   6.290
 3552POPC   D2A47548  44.168   3.529   6.764
 3552POPC   C3A47549  44.180   3.789   7.155
 3552POPC   C4A47550  44.219   3.827   7.614
 3552POPC   C1B47551  43.710   3.889   6.273
 3552POPC   C2B47552  43.673   3.565   6.603
 3552POPC   C3B47553  43.730   3.525   7.052
 3552POPC   C4B47554  43.747   3.791   7.444
 3553POPC   NC347555   2.648   7.083   5.253
 3553POPC   PO447556   3.106   7.510   5.344
 3553POPC   GL147557   2.885   7.551   5.775
 3553POPC   GL247558   2.585   7.756   5.803
 3553POPC   C1A47559   2.964   7.552   6.237
 3553POPC   D2A47560   2.866   7.183   6.524
 3553POPC   C3A47561   2.811   7.222   6.974
 3553POPC   C4A47562   2.772   7.616   7.161
 3553POPC   C1B47563   2.465   7.447   6.157
 3553POPC   C2B47564   2.475   7.540   6.616
 3553POPC   C3B47565   2.305   7.366   6.988
 3553POPC   C4B47566   2.245   7.072   7.308
 3554POPC   NC347567  30.980  30.400   5.498
 3554POPC   PO447568  30.342  30.595   5.400
 3554POPC   GL147569  30.593  30.615   5.763
 3554POPC   GL247570  30.581  30.961   5.813
 3554POPC   C1A47571  30.751  30.382   6.132
 3554POPC   D2A47572  30.650  30.507   6.544
 3554POPC   C3A47573  30.767  30.420   6.958
 3554POPC   C4A47574  30.546  30.731   7.162
 3554POPC   C1B47575  30.874  30.875   6.124
 3554POPC   C2B47576  30.923  30.980   6.540
 3554POPC   C3B47577  30.851  31.088   6.957
 3554POPC   C4B47578  31.070  30.781   7.198
 3555POPC   NC347579   0.513  35.151   5.521
 3555POPC   PO447580   0.341  34.544   5.358
 3555POPC   GL147581   0.161  34.586   5.796
 3555POPC   GL247582   0.091  34.958   5.810
 3555POPC   C1A47583   0.378  34.631   6.241
 3555POPC   D2A47584   0.525  34.373   6.626
 3555POPC   C3A47585   0.596  34.444   7.077
 3555POPC   C4A47586   0.616  34.823   7.330
 3555POPC   C1B47587  44.903  34.824   6.216
 3555POPC   C2B47588   0.027  34.597   6.614
 3555POPC   C3B47589  44.969  34.746   7.047
 3555POPC   C4B47590   0.168  34.583   7.406
 3556POPC   NC347591  37.440  21.260   5.320
 3556POPC   PO447592  37.758  21.901   5.340
 3556POPC   GL147593  37.596  21.603   5.686
 3556POPC   GL247594  37.882  21.556   5.896
 3556POPC   C1A47595  37.490  21.377   6.120
 3556POPC   D2A47596  37.637  21.457   6.573
 3556POPC   C3A47597  37.589  21.240   6.970
 3556POPC   C4A47598  37.552  21.327   7.408
 3556POPC   C1B47599  38.006  21.671   6.300
 3556POPC   C2B47600  37.944  21.880   6.687
 3556POPC   C3B47601  37.794  21.724   7.078
 3556POPC   C4B47602  37.831  21.709   7.554
 3557POPC   NC347603   7.184  19.452   5.463
 3557POPC   PO447604   7.784  19.744   5.285
 3557POPC   GL147605   7.557  19.682   5.757
 3557POPC   GL247606   7.780  19.550   6.058
 3557POPC   C1A47607   7.346  19.795   6.175
 3557POPC   D2A47608   7.401  19.875   6.603
 3557POPC   C3A47609   7.151  19.793   6.943
 3557POPC   C4A47610   7.161  20.136   7.201
 3557POPC   C1B47611   7.825  19.950   6.299
 3557POPC   C2B47612   7.891  20.026   6.748
 3557POPC   C3B47613   7.628  19.921   7.113
 3557POPC   C4B47614   7.547  20.117   7.538
 3558POPC   NC347615  33.686  36.054   5.379
 3558POPC   PO447616  34.274  36.287   5.512
 3558POPC   GL147617  33.956  36.137   5.844
 3558POPC   GL247618  33.710  35.831   5.828
 3558POPC   C1A47619  33.678  36.163   6.214
 3558POPC   D2A47620  33.674  36.347   6.603
 3558POPC   C3A47621  33.921  36.245   6.894
 3558POPC   C4A47622  33.799  36.297   7.283
 3558POPC   C1B47623  33.929  35.713   6.208
 3558POPC   C2B47624  33.806  35.834   6.623
 3558POPC   C3B47625  33.616  35.857   7.039
 3558POPC   C4B47626  33.835  35.753   7.428
 3559POPC   NC347627   9.269  44.696   5.536
 3559POPC   PO447628   8.644  44.800   5.239
 3559POPC   GL147629   8.797  44.506   5.677
 3559POPC   GL247630   8.999  44.667   5.983
 3559POPC   C1A47631   8.633  44.399   6.146
 3559POPC   D2A47632   8.889  44.602   6.497
 3559POPC   C3A47633   8.827  44.522   6.940
 3559POPC   C4A47634   8.634  44.205   7.245
 3559POPC   C1B47635   9.269  44.922   6.207
 3559POPC   C2B47636   9.489  44.969   6.572
 3559POPC   C3B47637   9.332  44.798   6.908
 3559POPC   C4B47638   9.164  44.761   7.276
 3560POPC   NC347639  35.131  35.258   5.495
 3560POPC   PO447640  35.724  35.644   5.540
 3560POPC   GL147641  35.552  35.378   5.841
 3560POPC   GL247642  35.544  35.002   5.806
 3560POPC   C1A47643  35.591  35.380   6.275
 3560POPC   D2A47644  35.575  35.585   6.676
 3560POPC   C3A47645  35.285  35.415   6.987
 3560POPC   C4A47646  35.364  35.235   7.377
 3560POPC   C1B47647  35.306  34.938   6.185
 3560POPC   C2B47648  35.436  35.005   6.623
 3560POPC   C3B47649  35.228  34.899   6.997
 3560POPC   C4B47650  34.906  35.012   7.318
 3561POPC   NC347651  25.033  39.297   5.370
 3561POPC   PO447652  24.616  38.813   5.165
 3561POPC   GL147653  24.627  38.911   5.634
 3561POPC   GL247654  24.286  38.903   5.819
 3561POPC   C1A47655  24.690  39.120   6.050
 3561POPC   D2A47656  24.594  39.453   6.388
 3561POPC   C3A47657  24.597  39.299   6.823
 3561POPC   C4A47658  24.621  39.465   7.250
 3561POPC   C1B47659  24.170  39.240   6.139
 3561POPC   C2B47660  24.095  39.354   6.597
 3561POPC   C3B47661  24.151  39.333   7.061
 3561POPC   C4B47662  24.420  39.006   7.329
 3562POPC   NC347663  34.086  42.141   5.415
 3562POPC   PO447664  33.887  41.473   5.285
 3562POPC   GL147665  33.761  41.588   5.749
 3562POPC   GL247666  33.598  41.313   5.960
 3562POPC   C1A47667  33.794  41.721   6.216
 3562POPC   D2A47668  33.538  41.702   6.606
 3562POPC   C3A47669  33.813  41.764   6.952
 3562POPC   C4A47670  33.821  41.503   7.330
 3562POPC   C1B47671  34.065  41.312   6.075
 3562POPC   C2B47672  34.254  41.445   6.450
 3562POPC   C3B47673  34.176  41.396   6.876
 3562POPC   C4B47674  34.143  41.083   7.154
 3563POPC   NC347675  11.206  18.213   5.251
 3563POPC   PO447676  11.556  18.619   5.644
 3563POPC   GL147677  11.339  18.213   5.785
 3563POPC   GL247678  11.105  17.930   5.685
 3563POPC   C1A47679  11.268  18.210   6.220
 3563POPC   D2A47680  11.473  18.479   6.534
 3563POPC   C3A47681  11.241  18.448   6.891
 3563POPC   C4A47682  11.282  18.344   7.295
 3563POPC   C1B47683  10.946  17.834   6.083
 3563POPC   C2B47684  11.140  17.787   6.504
 3563POPC   C3B47685  11.127  17.931   6.936
 3563POPC   C4B47686  11.009  17.650   7.277
 3564POPC   NC347687  30.582  35.398   5.472
 3564POPC   PO447688  31.264  35.249   5.352
 3564POPC   GL147689  30.962  35.175   5.739
 3564POPC   GL247690  30.806  35.516   5.906
 3564POPC   C1A47691  30.839  35.079   6.174
 3564POPC   D2A47692  30.689  35.283   6.548
 3564POPC   C3A47693  30.827  35.173   6.956
 3564POPC   C4A47694  30.781  35.288   7.411
 3564POPC   C1B47695  30.447  35.617   6.206
 3564POPC   C2B47696  30.279  35.587   6.636
 3564POPC   C3B47697  30.500  35.636   7.044
 3564POPC   C4B47698  30.349  35.517   7.459
 3565POPC   NC347699  33.087  35.518   5.448
 3565POPC   PO447700  32.733  35.052   5.155
 3565POPC   GL147701  32.873  35.112   5.658
 3565POPC   GL247702  33.202  35.056   5.743
 3565POPC   C1A47703  32.784  35.263   6.111
 3565POPC   D2A47704  32.929  35.509   6.503
 3565POPC   C3A47705  32.779  35.357   6.915
 3565POPC   C4A47706  32.876  35.478   7.316
 3565POPC   C1B47707  33.231  35.016   6.212
 3565POPC   C2B47708  32.982  35.010   6.606
 3565POPC   C3B47709  33.106  34.965   7.056
 3565POPC   C4B47710  33.534  35.076   7.213
 3566POPC   NC347711  37.854   9.957   5.180
 3566POPC   PO447712  37.386   9.527   5.449
 3566POPC   GL147713  37.573   9.698   5.801
 3566POPC   GL247714  37.795   9.954   5.704
 3566POPC   C1A47715  37.584   9.578   6.232
 3566POPC   D2A47716  37.840   9.608   6.612
 3566POPC   C3A47717  37.620   9.615   6.987
 3566POPC   C4A47718  37.209   9.710   7.126
 3566POPC   C1B47719  37.958   9.916   6.109
 3566POPC   C2B47720  37.883  10.129   6.488
 3566POPC   C3B47721  38.018  10.131   6.879
 3566POPC   C4B47722  38.006   9.867   7.214
 3567POPC   NC347723   3.226  21.542   5.414
 3567POPC   PO447724   3.720  21.125   5.188
 3567POPC   GL147725   3.603  21.264   5.639
 3567POPC   GL247726   3.262  21.159   5.742
 3567POPC   C1A47727   3.499  21.467   6.083
 3567POPC   D2A47728   3.706  21.393   6.476
 3567POPC   C3A47729   3.524  21.349   6.883
 3567POPC   C4A47730   3.667  21.534   7.287
 3567POPC   C1B47731   3.198  20.975   6.146
 3567POPC   C2B47732   3.390  20.953   6.550
 3567POPC   C3B47733   3.249  20.896   6.964
 3567POPC   C4B47734   3.308  21.164   7.318
 3568POPC   NC347735  15.080  44.431   5.257
 3568POPC   PO447736  15.027  44.871   5.593
 3568POPC   GL147737  14.996  44.598   5.963
 3568POPC   GL247738  15.247  44.801   6.147
 3568POPC   C1A47739  14.957  44.507   6.436
 3568POPC   D2A47740  15.170  44.762   6.766
 3568POPC   C3A47741  15.209  44.536   7.172
 3568POPC   C4A47742  15.104  44.126   7.401
 3568POPC   C1B47743  15.536   0.128   6.344
 3568POPC   C2B47744  15.705   0.200   6.765
 3568POPC   C3B47745  15.433   0.071   7.113
 3568POPC   C4B47746  15.063  44.973   7.389
 3569POPC   NC347747  41.640  42.522   5.392
 3569POPC   PO447748  41.267  42.044   5.638
 3569POPC   GL147749  41.298  42.346   5.894
 3569POPC   GL247750  41.600  42.500   5.897
 3569POPC   C1A47751  41.362  42.223   6.303
 3569POPC   D2A47752  41.619  42.266   6.623
 3569POPC   C3A47753  41.390  42.451   6.906
 3569POPC   C4A47754  41.298  42.369   7.318
 3569POPC   C1B47755  41.895  42.390   6.180
 3569POPC   C2B47756  42.077  42.482   6.577
 3569POPC   C3B47757  41.903  42.496   6.989
 3569POPC   C4B47758  41.763  42.180   7.265
 3570POPC   NC347759   7.957   3.304   5.269
 3570POPC   PO447760   8.628   3.385   5.449
 3570POPC   GL147761   8.202   3.547   5.676
 3570POPC   GL247762   7.932   3.331   5.823
 3570POPC   C1A47763   8.142   3.772   6.102
 3570POPC   D2A47764   8.266   3.912   6.558
 3570POPC   C3A47765   8.234   3.578   6.893
 3570POPC   C4A47766   7.969   3.498   7.258
 3570POPC   C1B47767   7.975   3.127   6.260
 3570POPC   C2B47768   8.130   3.100   6.708
 3570POPC   C3B47769   7.975   3.004   7.141
 3570POPC   C4B47770   7.729   3.125   7.539
 3571POPC   NC347771   9.458  28.939   5.581
 3571POPC   PO447772   9.891  29.369   5.364
 3571POPC   GL147773   9.696  29.439   5.753
 3571POPC   GL247774   9.349  29.478   5.710
 3571POPC   C1A47775   9.662  29.198   6.164
 3571POPC   D2A47776   9.833  29.044   6.560
 3571POPC   C3A47777   9.601  28.787   6.837
 3571POPC   C4A47778   9.543  28.885   7.260
 3571POPC   C1B47779   9.407  29.634   6.135
 3571POPC   C2B47780   9.471  29.494   6.560
 3571POPC   C3B47781   9.606  29.327   6.948
 3571POPC   C4B47782   9.413  29.456   7.317
 3572POPC   NC347783   0.718  31.527   5.463
 3572POPC   PO447784   0.149  31.233   5.257
 3572POPC   GL147785   0.129  31.277   5.712
 3572POPC   GL247786   0.368  31.510   5.856
 3572POPC   C1A47787   0.255  31.130   6.143
 3572POPC   D2A47788   0.452  31.235   6.539
 3572POPC   C3A47789   0.229  31.227   6.923
 3572POPC   C4A47790   0.310  31.539   7.214
 3572POPC   C1B47791   0.682  31.503   6.155
 3572POPC   C2B47792   0.674  31.754   6.537
 3572POPC   C3B47793   0.718  31.674   6.947
 3572POPC   C4B47794   1.023  31.815   7.243
 3573POPC   NC347795  33.774  35.192   4.881
 3573POPC   PO447796  33.864  35.616   5.385
 3573POPC   GL147797  33.956  35.375   5.798
 3573POPC   GL247798  33.658  35.260   5.749
 3573POPC   C1A47799  33.838  35.194   6.227
 3573POPC   D2A47800  34.024  35.377   6.601
 3573POPC   C3A47801  33.869  35.413   7.005
 3573POPC   C4A47802  34.068  35.276   7.374
 3573POPC   C1B47803  33.437  35.486   6.092
 3573POPC   C2B47804  33.465  35.444   6.550
 3573POPC   C3B47805  33.285  35.462   6.961
 3573POPC   C4B47806  33.363  35.560   7.398
 3574POPC   NC347807  40.421  31.820   5.586
 3574POPC   PO447808  40.061  32.326   5.255
 3574POPC   GL147809  40.074  32.526   5.724
 3574POPC   GL247810  40.069  32.212   5.768
 3574POPC   C1A47811  39.965  32.541   6.178
 3574POPC   D2A47812  39.883  32.214   6.514
 3574POPC   C3A47813  39.742  32.329   6.924
 3574POPC   C4A47814  39.961  32.371   7.323
 3574POPC   C1B47815  40.253  32.126   6.151
 3574POPC   C2B47816  40.375  32.016   6.565
 3574POPC   C3B47817  40.230  32.145   6.944
 3574POPC   C4B47818  40.452  32.055   7.320
 3575POPC   NC347819  20.334  12.663   5.420
 3575POPC   PO447820  20.506  13.283   5.103
 3575POPC   GL147821  20.634  13.051   5.589
 3575POPC   GL247822  20.753  12.756   5.747
 3575POPC   C1A47823  20.395  12.863   6.076
 3575POPC   D2A47824  20.639  12.890   6.502
 3575POPC   C3A47825  20.506  12.842   6.946
 3575POPC   C4A47826  20.589  12.600   7.338
 3575POPC   C1B47827  20.776  13.166   6.073
 3575POPC   C2B47828  20.892  13.331   6.494
 3575POPC   C3B47829  20.906  13.202   6.925
 3575POPC   C4B47830  20.697  13.126   7.338
 3576POPC   NC347831   9.658  39.665   5.209
 3576POPC   PO447832   9.722  40.335   5.458
 3576POPC   GL147833   9.642  39.982   5.740
 3576POPC   GL247834   9.918  39.764   5.851
 3576POPC   C1A47835   9.443  40.007   6.154
 3576POPC   D2A47836   9.382  40.269   6.556
 3576POPC   C3A47837   9.510  40.149   7.002
 3576POPC   C4A47838   9.702  39.802   7.256
 3576POPC   C1B47839   9.961  39.910   6.289
 3576POPC   C2B47840   9.910  39.966   6.749
 3576POPC   C3B47841  10.102  40.079   7.154
 3576POPC   C4B47842   9.992  40.144   7.582
 3577POPC   NC347843  27.325  37.983   5.306
 3577POPC   PO447844  27.335  37.241   5.436
 3577POPC   GL147845  27.399  37.340   5.833
 3577POPC   GL247846  27.752  37.420   5.866
 3577POPC   C1A47847  27.375  37.481   6.266
 3577POPC   D2A47848  27.331  37.400   6.715
 3577POPC   C3A47849  27.593  37.725   6.923
 3577POPC   C4A47850  27.701  37.695   7.365
 3577POPC   C1B47851  27.834  37.721   6.228
 3577POPC   C2B47852  28.034  37.798   6.641
 3577POPC   C3B47853  28.092  37.881   7.111
 3577POPC   C4B47854  28.164  37.751   7.571
 3578POPC   NC347855   5.919  33.446   5.354
 3578POPC   PO447856   6.279  32.939   5.360
 3578POPC   GL147857   6.113  33.176   5.769
 3578POPC   GL247858   5.875  32.946   5.938
 3578POPC   C1A47859   6.212  33.160   6.251
 3578POPC   D2A47860   5.959  32.973   6.537
 3578POPC   C3A47861   5.760  33.287   6.808
 3578POPC   C4A47862   6.047  33.400   7.201
 3578POPC   C1B47863   5.533  32.954   6.250
 3578POPC   C2B47864   5.509  32.814   6.693
 3578POPC   C3B47865   5.602  32.551   7.053
 3578POPC   C4B47866   5.700  32.700   7.485
 3579POPC   NC347867  27.444   1.817   5.394
 3579POPC   PO447868  27.896   2.293   5.601
 3579POPC   GL147869  27.678   2.043   5.841
 3579POPC   GL247870  27.944   1.844   5.957
 3579POPC   C1A47871  27.562   1.980   6.282
 3579POPC   D2A47872  27.652   2.131   6.692
 3579POPC   C3A47873  27.346   2.027   6.992
 3579POPC   C4A47874  27.376   1.866   7.396
 3579POPC   C1B47875  27.858   1.570   6.282
 3579POPC   C2B47876  27.717   1.607   6.693
 3579POPC   C3B47877  27.785   1.769   7.091
 3579POPC   C4B47878  28.098   1.696   7.364
 3580POPC   NC347879   8.244  30.626   5.395
 3580POPC   PO447880   7.644  30.416   5.145
 3580POPC   GL147881   8.005  30.379   5.726
 3580POPC   GL247882   8.389  30.429   5.846
 3580POPC   C1A47883   8.033  30.629   6.160
 3580POPC   D2A47884   8.134  30.915   6.536
 3580POPC   C3A47885   8.095  30.718   6.927
 3580POPC   C4A47886   8.257  30.707   7.339
 3580POPC   C1B47887   8.545  30.661   6.184
 3580POPC   C2B47888   8.416  30.490   6.556
 3580POPC   C3B47889   8.577  30.535   6.951
 3580POPC   C4B47890   8.637  30.368   7.361
 3581POPC   NC347891   4.650  18.399   5.474
 3581POPC   PO447892   4.096  18.689   5.374
 3581POPC   GL147893   4.156  18.309   5.661
 3581POPC   GL247894   4.314  18.500   5.859
 3581POPC   C1A47895   4.110  18.091   6.100
 3581POPC   D2A47896   4.281  18.166   6.545
 3581POPC   C3A47897   4.055  18.082   6.955
 3581POPC   C4A47898   4.162  17.878   7.376
 3581POPC   C1B47899   4.563  18.460   6.193
 3581POPC   C2B47900   4.859  18.453   6.500
 3581POPC   C3B47901   4.759  18.372   6.910
 3581POPC   C4B47902   4.522  18.164   7.177
 3582POPC   NC347903  18.067  41.769   5.540
 3582POPC   PO447904  18.558  41.343   5.556
 3582POPC   GL147905  18.462  41.608   5.887
 3582POPC   GL247906  18.470  41.947   5.816
 3582POPC   C1A47907  18.153  41.548   6.213
 3582POPC   D2A47908  18.103  41.452   6.635
 3582POPC   C3A47909  18.479  41.530   6.850
 3582POPC   C4A47910  18.431  41.635   7.254
 3582POPC   C1B47911  18.240  42.052   6.183
 3582POPC   C2B47912  18.333  42.113   6.598
 3582POPC   C3B47913  18.123  41.900   6.915
 3582POPC   C4B47914  18.053  41.987   7.317
 3583POPC   NC347915  31.679   7.892   5.459
 3583POPC   PO447916  31.489   8.576   5.402
 3583POPC   GL147917  31.620   8.298   5.747
 3583POPC   GL247918  31.361   8.066   5.869
 3583POPC   C1A47919  31.725   8.254   6.187
 3583POPC   D2A47920  31.499   8.139   6.577
 3583POPC   C3A47921  31.693   8.316   6.969
 3583POPC   C4A47922  31.684   8.475   7.415
 3583POPC   C1B47923  31.127   7.833   6.209
 3583POPC   C2B47924  30.993   8.021   6.582
 3583POPC   C3B47925  31.163   8.073   6.983
 3583POPC   C4B47926  31.304   8.110   7.391
 3584POPC   NC347927  24.760  26.238   5.304
 3584POPC   PO447928  24.610  25.628   5.499
 3584POPC   GL147929  24.733  25.977   5.754
 3584POPC   GL247930  24.413  26.111   5.775
 3584POPC   C1A47931  24.717  26.191   6.163
 3584POPC   D2A47932  24.621  25.979   6.534
 3584POPC   C3A47933  24.683  26.181   6.904
 3584POPC   C4A47934  24.434  26.176   7.273
 3584POPC   C1B47935  24.271  25.900   6.117
 3584POPC   C2B47936  24.145  25.784   6.520
 3584POPC   C3B47937  24.171  26.014   6.862
 3584POPC   C4B47938  24.025  25.853   7.239
 3585POPC   NC347939  15.575  11.139   5.416
 3585POPC   PO447940  16.153  11.566   5.332
 3585POPC   GL147941  16.084  11.204   5.618
 3585POPC   GL247942  15.838  11.421   5.774
 3585POPC   C1A47943  15.998  11.043   6.066
 3585POPC   D2A47944  16.131  11.094   6.509
 3585POPC   C3A47945  15.908  11.128   6.913
 3585POPC   C4A47946  16.047  11.227   7.333
 3585POPC   C1B47947  15.830  11.503   6.233
 3585POPC   C2B47948  15.950  11.562   6.646
 3585POPC   C3B47949  15.986  11.644   7.051
 3585POPC   C4B47950  15.670  11.630   7.329
 3586POPC   NC347951  11.409   0.162   5.259
 3586POPC   PO447952  11.018   0.680   5.398
 3586POPC   GL147953  11.001   0.524   5.781
 3586POPC   GL247954  11.233   0.250   5.747
 3586POPC   C1A47955  11.157   0.583   6.208
 3586POPC   D2A47956  11.332   0.698   6.610
 3586POPC   C3A47957  11.031   0.685   6.905
 3586POPC   C4A47958  11.049   0.492   7.289
 3586POPC   C1B47959  11.414   0.155   6.145
 3586POPC   C2B47960  11.571   0.248   6.576
 3586POPC   C3B47961  11.406   0.303   6.945
 3586POPC   C4B47962  11.412   0.107   7.308
 3587POPC   NC347963  27.499   9.202   5.472
 3587POPC   PO447964  27.810   8.701   5.572
 3587POPC   GL147965  27.527   8.720   5.937
 3587POPC   GL247966  27.381   9.054   5.945
 3587POPC   C1A47967  27.439   8.775   6.392
 3587POPC   D2A47968  27.090   8.724   6.680
 3587POPC   C3A47969  27.249   8.616   7.087
 3587POPC   C4A47970  27.612   8.800   7.276
 3587POPC   C1B47971  27.789   9.129   6.197
 3587POPC   C2B47972  27.810   9.152   6.667
 3587POPC   C3B47973  27.430   9.128   6.932
 3587POPC   C4B47974  27.300   9.212   7.384
 3588POPC   NC347975  41.269  32.315   5.396
 3588POPC   PO447976  40.538  32.286   5.532
 3588POPC   GL147977  40.741  32.156   5.848
 3588POPC   GL247978  41.073  32.285   5.848
 3588POPC   C1A47979  40.739  32.219   6.243
 3588POPC   D2A47980  40.566  32.510   6.491
 3588POPC   C3A47981  40.674  32.373   6.885
 3588POPC   C4A47982  40.487  32.548   7.232
 3588POPC   C1B47983  41.254  32.251   6.244
 3588POPC   C2B47984  41.040  32.085   6.616
 3588POPC   C3B47985  41.152  32.172   7.006
 3588POPC   C4B47986  40.924  32.302   7.354
 3589POPC   NC347987  10.740  12.897   5.317
 3589POPC   PO447988  10.164  12.643   5.101
 3589POPC   GL147989  10.327  12.844   5.587
 3589POPC   GL247990  10.505  13.155   5.738
 3589POPC   C1A47991  10.498  12.709   6.003
 3589POPC   D2A47992  10.464  12.538   6.411
 3589POPC   C3A47993  10.705  12.730   6.720
 3589POPC   C4A47994  10.579  12.738   7.130
 3589POPC   C1B47995  10.695  13.152   6.196
 3589POPC   C2B47996  10.630  13.225   6.652
 3589POPC   C3B47997  10.624  13.244   7.112
 3589POPC   C4B47998  10.707  13.074   7.498
 3590POPC   NC347999  42.013  29.816   5.280
 3590POPC   PO448000  42.644  30.089   5.216
 3590POPC   GL148001  42.465  29.982   5.625
 3590POPC   GL248002  42.126  30.133   5.667
 3590POPC   C1A48003  42.413  29.771   6.033
 3590POPC   D2A48004  42.430  29.885   6.497
 3590POPC   C3A48005  42.579  29.703   6.878
 3590POPC   C4A48006  42.374  29.805   7.260
 3590POPC   C1B48007  41.980  30.031   6.089
 3590POPC   C2B48008  42.000  30.162   6.508
 3590POPC   C3B48009  42.040  29.972   6.904
 3590POPC   C4B48010  42.070  30.252   7.251
 3591POPC   NC348011  12.280  42.931   5.713
 3591POPC   PO448012  11.674  42.825   5.434
 3591POPC   GL148013  11.769  43.025   5.847
 3591POPC   GL248014  11.538  43.336   5.897
 3591POPC   C1A48015  11.924  42.819   6.255
 3591POPC   D2A48016  12.135  42.660   6.628
 3591POPC   C3A48017  12.215  43.001   6.967
 3591POPC   C4A48018  12.144  43.249   7.368
 3591POPC   C1B48019  11.797  43.352   6.309
 3591POPC   C2B48020  11.796  43.297   6.782
 3591POPC   C3B48021  11.690  43.448   7.213
 3591POPC   C4B48022  11.699  43.288   7.651
 3592POPC   NC348023  13.345  33.571   5.534
 3592POPC   PO448024  13.814  33.909   5.259
 3592POPC   GL148025  13.706  33.982   5.713
 3592POPC   GL248026  13.364  34.069   5.726
 3592POPC   C1A48027  13.726  33.946   6.224
 3592POPC   D2A48028  13.922  33.870   6.687
 3592POPC   C3A48029  13.891  33.564   7.032
 3592POPC   C4A48030  13.764  33.667   7.459
 3592POPC   C1B48031  13.249  34.101   6.103
 3592POPC   C2B48032  13.235  33.880   6.465
 3592POPC   C3B48033  13.456  33.671   6.759
 3592POPC   C4B48034  13.379  33.497   7.146
 3593POPC   NC348035   5.676   4.142   5.071
 3593POPC   PO448036   6.272   4.350   5.272
 3593POPC   GL148037   6.078   4.288   5.695
 3593POPC   GL248038   6.097   4.614   5.845
 3593POPC   C1A48039   5.906   4.284   6.156
 3593POPC   D2A48040   6.109   4.469   6.513
 3593POPC   C3A48041   6.063   4.263   6.921
 3593POPC   C4A48042   5.725   4.071   7.147
 3593POPC   C1B48043   5.704   4.767   6.001
 3593POPC   C2B48044   5.662   4.724   6.433
 3593POPC   C3B48045   5.760   4.704   6.856
 3593POPC   C4B48046   5.817   4.557   7.263
 3594POPC   NC348047   0.312  27.314   5.449
 3594POPC   PO448048   0.321  26.602   5.447
 3594POPC   GL148049   0.202  26.831   5.772
 3594POPC   GL248050  44.951  26.614   5.910
 3594POPC   C1A48051   0.424  27.020   6.114
 3594POPC   D2A48052   0.377  26.949   6.534
 3594POPC   C3A48053   0.664  26.823   6.826
 3594POPC   C4A48054   0.642  26.991   7.214
 3594POPC   C1B48055  44.972  26.652   6.369
 3594POPC   C2B48056  44.952  26.676   6.825
 3594POPC   C3B48057   0.238  26.662   7.185
 3594POPC   C4B48058   0.173  26.582   7.624
 3595POPC   NC348059  24.408   5.555   5.164
 3595POPC   PO448060  24.784   6.018   5.377
 3595POPC   GL148061  24.699   5.843   5.752
 3595POPC   GL248062  24.729   6.150   5.888
 3595POPC   C1A48063  24.506   5.723   6.151
 3595POPC   D2A48064  24.701   5.664   6.566
 3595POPC   C3A48065  24.513   5.692   6.931
 3595POPC   C4A48066  24.575   5.704   7.304
 3595POPC   C1B48067  24.623   6.219   6.286
 3595POPC   C2B48068  24.440   6.116   6.664
 3595POPC   C3B48069  24.574   6.204   7.075
 3595POPC   C4B48070  24.456   6.174   7.484
 3596POPC   NC348071  32.212  26.634   5.309
 3596POPC   PO448072  31.949  27.219   5.537
 3596POPC   GL148073  32.268  27.079   5.801
 3596POPC   GL248074  32.280  26.752   5.787
 3596POPC   C1A48075  32.326  27.179   6.219
 3596POPC   D2A48076  32.075  27.259   6.592
 3596POPC   C3A48077  32.133  27.028   6.979
 3596POPC   C4A48078  32.379  27.089   7.349
 3596POPC   C1B48079  32.387  26.675   6.180
 3596POPC   C2B48080  32.454  26.831   6.603
 3596POPC   C3B48081  32.623  26.795   7.006
 3596POPC   C4B48082  32.397  26.528   7.288
 3597POPC   NC348083  43.668  18.100   5.476
 3597POPC   PO448084  44.370  18.007   5.313
 3597POPC   GL148085  44.141  18.015   5.748
 3597POPC   GL248086  43.816  17.937   5.931
 3597POPC   C1A48087  44.145  18.255   6.155
 3597POPC   D2A48088  44.091  18.543   6.501
 3597POPC   C3A48089  44.049  18.493   6.945
 3597POPC   C4A48090  43.950  18.154   7.243
 3597POPC   C1B48091  43.649  18.283   6.255
 3597POPC   C2B48092  43.511  18.530   6.647
 3597POPC   C3B48093  43.516  18.633   7.114
 3597POPC   C4B48094  43.533  18.358   7.490
 3598POPC   NC348095  21.923   5.076   5.090
 3598POPC   PO448096  22.441   4.879   5.499
 3598POPC   GL148097  22.317   5.143   5.871
 3598POPC   GL248098  21.945   5.208   5.904
 3598POPC   C1A48099  22.238   5.201   6.334
 3598POPC   D2A48100  21.959   5.248   6.728
 3598POPC   C3A48101  22.215   5.317   7.110
 3598POPC   C4A48102  22.598   5.486   7.216
 3598POPC   C1B48103  21.797   4.961   6.285
 3598POPC   C2B48104  21.888   4.730   6.662
 3598POPC   C3B48105  21.979   4.867   7.088
 3598POPC   C4B48106  22.189   4.958   7.469
 3599POPC   NC348107  34.178  44.136   5.280
 3599POPC   PO448108  34.310  43.529   5.543
 3599POPC   GL148109  33.998  43.819   5.699
 3599POPC   GL248110  34.202  44.072   5.785
 3599POPC   C1A48111  33.751  43.877   6.105
 3599POPC   D2A48112  33.869  43.787   6.551
 3599POPC   C3A48113  33.698  43.815   6.966
 3599POPC   C4A48114  33.866  43.753   7.399
 3599POPC   C1B48115  34.211  44.063   6.225
 3599POPC   C2B48116  34.158  44.225   6.612
 3599POPC   C3B48117  33.929  44.426   6.909
 3599POPC   C4B48118  33.774  44.230   7.275
 3600POPC   NC348119  28.225  33.247   5.419
 3600POPC   PO448120  28.781  32.865   5.141
 3600POPC   GL148121  28.596  32.896   5.559
 3600POPC   GL248122  28.676  33.195   5.716
 3600POPC   C1A48123  28.445  32.859   6.023
 3600POPC   D2A48124  28.203  33.056   6.384
 3600POPC   C3A48125  28.309  32.862   6.784
 3600POPC   C4A48126  28.160  32.875   7.192
 3600POPC   C1B48127  28.575  33.348   6.148
 3600POPC   C2B48128  28.605  33.286   6.625
 3600POPC   C3B48129  28.377  33.326   7.044
 3600POPC   C4B48130  28.473  33.276   7.480
 3601POPC   NC348131  28.633  10.635   5.244
 3601POPC   PO448132  28.131  10.706   5.724
 3601POPC   GL148133  28.341  10.465   6.059
 3601POPC   GL248134  28.194  10.115   6.001
 3601POPC   C1A48135  28.415  10.709   6.419
 3601POPC   D2A48136  28.076  10.982   6.565
 3601POPC   C3A48137  27.962  10.779   6.933
 3601POPC   C4A48138  28.205  10.575   7.243
 3601POPC   C1B48139  28.280  10.087   6.445
 3601POPC   C2B48140  28.376  10.360   6.800
 3601POPC   C3B48141  28.661  10.355   7.174
 3601POPC   C4B48142  28.515  10.354   7.590
 3602POPC   NC348143  41.312  37.827   5.524
 3602POPC   PO448144  41.858  38.232   5.648
 3602POPC   GL148145  41.615  37.898   5.915
 3602POPC   GL248146  41.605  37.510   5.820
 3602POPC   C1A48147  41.542  37.806   6.349
 3602POPC   D2A48148  41.832  37.874   6.682
 3602POPC   C3A48149  41.708  37.643   7.012
 3602POPC   C4A48150  41.602  37.829   7.341
 3602POPC   C1B48151  41.472  37.330   6.211
 3602POPC   C2B48152  41.481  37.207   6.667
 3602POPC   C3B48153  41.335  37.306   7.108
 3602POPC   C4B48154  41.450  37.375   7.530
 3603POPC   NC348155  37.978  41.169   5.287
 3603POPC   PO448156  37.574  40.732   5.579
 3603POPC   GL148157  37.463  41.025   5.894
 3603POPC   GL248158  37.624  41.282   5.689
 3603POPC   C1A48159  37.468  41.029   6.360
 3603POPC   D2A48160  37.646  40.686   6.627
 3603POPC   C3A48161  37.651  40.670   7.048
 3603POPC   C4A48162  37.945  40.702   7.335
 3603POPC   C1B48163  37.906  41.254   6.073
 3603POPC   C2B48164  38.012  41.029   6.486
 3603POPC   C3B48165  38.013  41.059   6.960
 3603POPC   C4B48166  37.740  41.154   7.350
 3604POPC   NC348167  18.154  24.043   5.454
 3604POPC   PO448168  17.884  23.447   5.532
 3604POPC   GL148169  18.087  23.721   5.868
 3604POPC   GL248170  18.446  23.736   5.792
 3604POPC   C1A48171  18.100  23.820   6.339
 3604POPC   D2A48172  18.441  23.880   6.671
 3604POPC   C3A48173  18.349  23.876   7.122
 3604POPC   C4A48174  17.927  23.968   7.335
 3604POPC   C1B48175  18.512  23.546   6.210
 3604POPC   C2B48176  18.440  23.382   6.620
 3604POPC   C3B48177  18.625  23.403   7.034
 3604POPC   C4B48178  18.820  23.649   7.343
 3605POPC   NC348179  25.879  29.669   5.395
 3605POPC   PO448180  26.196  30.243   5.294
 3605POPC   GL148181  25.925  30.102   5.661
 3605POPC   GL248182  26.130  29.804   5.824
 3605POPC   C1A48183  25.849  30.086   6.129
 3605POPC   D2A48184  26.126  29.850   6.443
 3605POPC   C3A48185  26.172  29.996   6.877
 3605POPC   C4A48186  26.274  29.859   7.280
 3605POPC   C1B48187  25.836  29.527   6.098
 3605POPC   C2B48188  25.689  29.345   6.502
 3605POPC   C3B48189  25.888  29.548   6.854
 3605POPC   C4B48190  25.827  29.628   7.277
 3606POPC   NC348191  43.098  23.439   5.167
 3606POPC   PO448192  42.921  22.815   5.340
 3606POPC   GL148193  42.851  22.793   5.794
 3606POPC   GL248194  42.723  22.471   5.854
 3606POPC   C1A48195  42.851  23.006   6.219
 3606POPC   D2A48196  43.148  23.260   6.479
 3606POPC   C3A48197  43.106  23.150   6.903
 3606POPC   C4A48198  43.337  23.124   7.277
 3606POPC   C1B48199  43.072  22.554   6.182
 3606POPC   C2B48200  43.091  22.737   6.593
 3606POPC   C3B48201  42.913  22.673   6.995
 3606POPC   C4B48202  43.106  22.689   7.369
 3607POPC   NC348203  17.711  22.191   5.578
 3607POPC   PO448204  18.457  22.071   5.454
 3607POPC   GL148205  18.145  21.960   5.741
 3607POPC   GL248206  18.167  22.322   5.811
 3607POPC   C1A48207  18.174  21.912   6.178
 3607POPC   D2A48208  18.313  22.174   6.516
 3607POPC   C3A48209  17.965  22.171   6.792
 3607POPC   C4A48210  18.045  22.002   7.177
 3607POPC   C1B48211  18.131  22.522   6.204
 3607POPC   C2B48212  18.111  22.658   6.643
 3607POPC   C3B48213  18.244  22.510   7.084
 3607POPC   C4B48214  18.188  22.394   7.533
 3608POPC   NC348215  27.517  28.310   5.486
 3608POPC   PO448216  27.847  28.838   5.351
 3608POPC   GL148217  27.823  28.589   5.776
 3608POPC   GL248218  27.490  28.540   5.936
 3608POPC   C1A48219  27.869  28.312   6.175
 3608POPC   D2A48220  27.635  28.284   6.572
 3608POPC   C3A48221  27.886  28.395   6.908
 3608POPC   C4A48222  27.908  28.695   7.254
 3608POPC   C1B48223  27.313  28.204   6.179
 3608POPC   C2B48224  27.066  28.207   6.544
 3608POPC   C3B48225  27.260  28.151   6.923
 3608POPC   C4B48226  27.473  28.413   7.202
 3609POPC   NC348227  30.972  12.575   5.474
 3609POPC   PO448228  30.463  13.047   5.325
 3609POPC   GL148229  30.552  13.003   5.765
 3609POPC   GL248230  30.545  12.637   5.801
 3609POPC   C1A48231  30.697  12.899   6.219
 3609POPC   D2A48232  30.806  12.498   6.473
 3609POPC   C3A48233  31.030  12.608   6.860
 3609POPC   C4A48234  30.866  12.924   7.163
 3609POPC   C1B48235  30.333  12.548   6.221
 3609POPC   C2B48236  30.297  12.408   6.615
 3609POPC   C3B48237  30.511  12.586   6.953
 3609POPC   C4B48238  30.410  12.717   7.372
 3610POPC   NC348239  32.040  37.966   5.628
 3610POPC   PO448240  32.371  37.441   5.435
 3610POPC   GL148241  32.332  37.575   5.873
 3610POPC   GL248242  31.977  37.572   5.966
 3610POPC   C1A48243  32.397  37.670   6.324
 3610POPC   D2A48244  32.580  37.778   6.732
 3610POPC   C3A48245  32.328  37.657   7.091
 3610POPC   C4A48246  32.409  37.626   7.548
 3610POPC   C1B48247  31.965  37.926   6.253
 3610POPC   C2B48248  32.155  38.050   6.626
 3610POPC   C3B48249  32.043  38.080   7.042
 3610POPC   C4B48250  32.296  38.099   7.395
 3611POPC   NC348251  29.560  21.380   5.538
 3611POPC   PO448252  29.050  21.698   5.201
 3611POPC   GL148253  29.086  21.551   5.664
 3611POPC   GL248254  28.809  21.362   5.805
 3611POPC   C1A48255  29.271  21.393   6.102
 3611POPC   D2A48256  29.295  21.485   6.569
 3611POPC   C3A48257  29.336  21.127   6.865
 3611POPC   C4A48258  29.287  21.167   7.308
 3611POPC   C1B48259  28.819  21.573   6.202
 3611POPC   C2B48260  28.782  21.600   6.629
 3611POPC   C3B48261  28.937  21.421   7.012
 3611POPC   C4B48262  28.750  21.545   7.383
 3612POPC   NC348263  25.932   1.196   5.562
 3612POPC   PO448264  26.468   0.826   5.560
 3612POPC   GL148265  26.304   1.121   5.917
 3612POPC   GL248266  25.946   1.188   6.067
 3612POPC   C1A48267  26.372   1.296   6.342
 3612POPC   D2A48268  26.173   1.349   6.757
 3612POPC   C3A48269  26.198   0.978   7.031
 3612POPC   C4A48270  26.087   0.817   7.443
 3612POPC   C1B48271  25.835   1.503   6.385
 3612POPC   C2B48272  25.673   1.478   6.820
 3612POPC   C3B48273  25.642   1.058   6.986
 3612POPC   C4B48274  25.676   0.637   7.188
 3613POPC   NC348275  43.257  24.050   5.423
 3613POPC   PO448276  43.558  23.563   5.151
 3613POPC   GL148277  43.265  23.579   5.629
 3613POPC   GL248278  43.020  23.878   5.808
 3613POPC   C1A48279  42.995  23.453   6.029
 3613POPC   D2A48280  42.855  23.731   6.399
 3613POPC   C3A48281  43.027  23.683   6.828
 3613POPC   C4A48282  42.995  23.504   7.245
 3613POPC   C1B48283  43.211  24.026   6.177
 3613POPC   C2B48284  43.252  24.109   6.594
 3613POPC   C3B48285  43.322  24.235   7.007
 3613POPC   C4B48286  43.217  23.967   7.322
 3614POPC   NC348287   1.461  13.059   5.534
 3614POPC   PO448288   1.576  12.466   5.293
 3614POPC   GL148289   1.293  12.591   5.709
 3614POPC   GL248290   0.969  12.826   5.784
 3614POPC   C1A48291   1.273  12.759   6.173
 3614POPC   D2A48292   1.106  12.782   6.589
 3614POPC   C3A48293   1.376  12.940   6.880
 3614POPC   C4A48294   1.350  13.024   7.302
 3614POPC   C1B48295   1.057  13.225   6.080
 3614POPC   C2B48296   1.029  13.355   6.547
 3614POPC   C3B48297   0.986  13.260   6.998
 3614POPC   C4B48298   0.900  12.837   7.112
 3615POPC   NC348299  10.463   3.642   5.432
 3615POPC   PO448300  10.896   3.153   5.460
 3615POPC   GL148301  10.643   3.328   5.819
 3615POPC   GL248302  10.612   3.708   5.910
 3615POPC   C1A48303  10.507   3.361   6.270
 3615POPC   D2A48304  10.671   3.294   6.701
 3615POPC   C3A48305  10.468   3.487   7.089
 3615POPC   C4A48306  10.207   3.851   7.234
 3615POPC   C1B48307  10.698   3.914   6.289
 3615POPC   C2B48308  10.596   3.848   6.722
 3615POPC   C3B48309  10.690   3.943   7.135
 3615POPC   C4B48310  10.848   3.754   7.488
 3616POPC   NC348311   6.373  21.561   5.094
 3616POPC   PO448312   7.014  21.342   5.290
 3616POPC   GL148313   6.683  21.237   5.595
 3616POPC   GL248314   6.583  21.543   5.780
 3616POPC   C1A48315   6.586  21.098   6.034
 3616POPC   D2A48316   6.550  21.242   6.435
 3616POPC   C3A48317   6.593  21.124   6.865
 3616POPC   C4A48318   6.367  21.147   7.224
 3616POPC   C1B48319   6.671  21.701   6.233
 3616POPC   C2B48320   6.635  21.657   6.720
 3616POPC   C3B48321   6.440  21.680   7.126
 3616POPC   C4B48322   6.583  21.739   7.578
 3617POPC   NC348323  32.415  10.401   5.237
 3617POPC   PO448324  32.118  10.927   5.329
 3617POPC   GL148325  32.392  10.653   5.689
 3617POPC   GL248326  32.490  10.253   5.710
 3617POPC   C1A48327  32.469  10.687   6.148
 3617POPC   D2A48328  32.114  10.631   6.468
 3617POPC   C3A48329  32.191  10.754   6.895
 3617POPC   C4A48330  32.283  10.815   7.333
 3617POPC   C1B48331  32.211  10.262   6.061
 3617POPC   C2B48332  32.344  10.189   6.498
 3617POPC   C3B48333  32.183  10.250   6.867
 3617POPC   C4B48334  31.972  10.186   7.214
 3618POPC   NC348335   5.630  13.919   5.393
 3618POPC   PO448336   6.111  14.402   5.416
 3618POPC   GL148337   5.950  14.436   5.830
 3618POPC   GL248338   5.647  14.248   5.813
 3618POPC   C1A48339   5.870  14.388   6.268
 3618POPC   D2A48340   5.862  14.612   6.628
 3618POPC   C3A48341   5.551  14.650   6.931
 3618POPC   C4A48342   5.765  14.516   7.281
 3618POPC   C1B48343   5.385  14.210   6.194
 3618POPC   C2B48344   5.508  14.193   6.612
 3618POPC   C3B48345   5.483  14.159   7.032
 3618POPC   C4B48346   5.255  14.434   7.307
 3619POPC   NC348347  27.630  17.496   5.512
 3619POPC   PO448348  27.037  17.227   5.239
 3619POPC   GL148349  27.181  17.584   5.700
 3619POPC   GL248350  27.437  17.395   5.967
 3619POPC   C1A48351  27.374  17.843   6.151
 3619POPC   D2A48352  27.713  17.736   6.447
 3619POPC   C3A48353  27.556  17.611   6.863
 3619POPC   C4A48354  27.538  17.697   7.317
 3619POPC   C1B48355  27.899  17.339   6.126
 3619POPC   C2B48356  28.093  17.144   6.501
 3619POPC   C3B48357  28.114  17.237   6.954
 3619POPC   C4B48358  27.742  17.242   7.213
 3620POPC   NC348359  44.377  33.890   5.130
 3620POPC   PO448360  43.888  33.643   5.439
 3620POPC   GL148361  43.781  33.608   5.839
 3620POPC   GL248362  43.488  33.396   5.766
 3620POPC   C1A48363  43.754  33.911   6.205
 3620POPC   D2A48364  43.585  33.900   6.634
 3620POPC   C3A48365  43.844  33.711   6.964
 3620POPC   C4A48366  43.989  33.895   7.364
 3620POPC   C1B48367  43.523  33.438   6.234
 3620POPC   C2B48368  43.535  33.379   6.648
 3620POPC   C3B48369  43.348  33.559   6.990
 3620POPC   C4B48370  43.572  33.552   7.364
 3621POPC   NC348371  14.483  18.308   5.418
 3621POPC   PO448372  14.051  17.811   5.343
 3621POPC   GL148373  14.103  18.119   5.721
 3621POPC   GL248374  14.437  18.073   5.863
 3621POPC   C1A48375  14.150  18.396   6.147
 3621POPC   D2A48376  14.262  18.252   6.584
 3621POPC   C3A48377  14.277  18.449   7.010
 3621POPC   C4A48378  14.172  18.283   7.448
 3621POPC   C1B48379  14.655  18.301   6.175
 3621POPC   C2B48380  14.759  18.380   6.578
 3621POPC   C3B48381  14.744  18.197   6.945
 3621POPC   C4B48382  14.677  18.311   7.340
 3622POPC   NC348383  40.858  24.731   5.336
 3622POPC   PO448384  40.369  24.900   5.681
 3622POPC   GL148385  40.665  24.578   5.853
 3622POPC   GL248386  41.011  24.457   5.758
 3622POPC   C1A48387  40.771  24.566   6.281
 3622POPC   D2A48388  40.741  24.397   6.687
 3622POPC   C3A48389  40.741  24.694   7.020
 3622POPC   C4A48390  40.580  24.808   7.422
 3622POPC   C1B48391  40.993  24.159   6.111
 3622POPC   C2B48392  40.874  23.934   6.498
 3622POPC   C3B48393  40.835  23.965   6.955
 3622POPC   C4B48394  41.039  24.292   7.167
 3623POPC   NC348395   0.739  10.483   5.394
 3623POPC   PO448396   0.241  10.022   5.331
 3623POPC   GL148397   0.204  10.383   5.648
 3623POPC   GL248398   0.401  10.665   5.755
 3623POPC   C1A48399   0.186  10.388   6.125
 3623POPC   D2A48400   0.424  10.494   6.493
 3623POPC   C3A48401   0.320  10.335   6.906
 3623POPC   C4A48402   0.335  10.491   7.332
 3623POPC   C1B48403   0.334  10.878   6.145
 3623POPC   C2B48404   0.556  11.015   6.493
 3623POPC   C3B48405   0.544  10.800   6.895
 3623POPC   C4B48406   0.759  10.805   7.251
 3624POPC   NC348407  10.920  22.793   5.524
 3624POPC   PO448408  10.568  23.297   5.579
 3624POPC   GL148409  10.370  22.920   5.765
 3624POPC   GL248410  10.033  23.055   5.816
 3624POPC   C1A48411  10.223  22.689   6.157
 3624POPC   D2A48412  10.268  22.675   6.635
 3624POPC   C3A48413  10.688  22.763   6.816
 3624POPC   C4A48414  10.725  22.816   7.259
 3624POPC   C1B48415  10.229  23.278   6.195
 3624POPC   C2B48416  10.453  23.328   6.600
 3624POPC   C3B48417  10.404  23.155   6.998
 3624POPC   C4B48418  10.316  23.145   7.414
 3625POPC   NC348419  44.165  10.542   5.469
 3625POPC   PO448420  43.416  10.254   5.389
 3625POPC   GL148421  43.675  10.524   5.709
 3625POPC   GL248422  43.988  10.375   5.897
 3625POPC   C1A48423  43.721  10.735   6.146
 3625POPC   D2A48424  43.942  10.640   6.555
 3625POPC   C3A48425  43.759  10.531   6.947
 3625POPC   C4A48426  43.813  10.749   7.381
 3625POPC   C1B48427  44.276  10.643   6.155
 3625POPC   C2B48428  44.447  10.568   6.597
 3625POPC   C3B48429  44.246  10.394   6.988
 3625POPC   C4B48430  44.320  10.576   7.390
 3626POPC   NC348431  35.679  39.292   5.465
 3626POPC   PO448432  35.132  38.970   5.310
 3626POPC   GL148433  35.180  39.265   5.682
 3626POPC   GL248434  35.071  39.640   5.693
 3626POPC   C1A48435  35.402  39.339   6.082
 3626POPC   D2A48436  35.527  39.100   6.437
 3626POPC   C3A48437  35.475  39.245   6.864
 3626POPC   C4A48438  35.650  39.113   7.258
 3626POPC   C1B48439  34.908  39.444   6.091
 3626POPC   C2B48440  35.052  39.318   6.499
 3626POPC   C3B48441  34.935  39.275   6.920
 3626POPC   C4B48442  35.146  39.319   7.295
 3627POPC   NC348443  28.397  27.097   5.556
 3627POPC   PO448444  28.156  26.527   5.455
 3627POPC   GL148445  28.359  26.652   5.802
 3627POPC   GL248446  28.713  26.747   5.819
 3627POPC   C1A48447  28.419  26.538   6.183
 3627POPC   D2A48448  28.377  26.584   6.588
 3627POPC   C3A48449  28.362  27.006   6.778
 3627POPC   C4A48450  28.282  27.058   7.218
 3627POPC   C1B48451  28.876  26.756   6.286
 3627POPC   C2B48452  28.838  26.798   6.765
 3627POPC   C3B48453  28.541  26.602   7.067
 3627POPC   C4B48454  28.573  26.543   7.542
 3628POPC   NC348455  40.565  30.124   5.052
 3628POPC   PO448456  40.934  30.221   5.632
 3628POPC   GL148457  40.931  29.926   5.895
 3628POPC   GL248458  40.586  29.934   5.884
 3628POPC   C1A48459  41.012  29.916   6.325
 3628POPC   D2A48460  41.203  29.710   6.629
 3628POPC   C3A48461  41.031  29.891   6.980
 3628POPC   C4A48462  40.841  30.061   7.308
 3628POPC   C1B48463  40.514  29.998   6.265
 3628POPC   C2B48464  40.571  29.768   6.634
 3628POPC   C3B48465  40.549  30.121   6.898
 3628POPC   C4B48466  40.356  30.224   7.271
 3629POPC   NC348467   6.326  43.348   5.523
 3629POPC   PO448468   5.712  43.066   5.402
 3629POPC   GL148469   5.819  43.042   5.839
 3629POPC   GL248470   6.164  43.005   5.871
 3629POPC   C1A48471   5.857  42.883   6.241
 3629POPC   D2A48472   6.093  42.909   6.583
 3629POPC   C3A48473   5.840  42.945   6.926
 3629POPC   C4A48474   5.789  43.156   7.283
 3629POPC   C1B48475   6.174  43.304   6.245
 3629POPC   C2B48476   6.282  43.560   6.618
 3629POPC   C3B48477   6.301  43.557   7.063
 3629POPC   C4B48478   6.126  43.481   7.437
 3630POPC   NC348479  27.104  24.814   5.300
 3630POPC   PO448480  26.732  24.288   5.596
 3630POPC   GL148481  26.553  24.366   5.959
 3630POPC   GL248482  26.575  24.710   5.937
 3630POPC   C1A48483  26.672  24.454   6.370
 3630POPC   D2A48484  27.070  24.309   6.527
 3630POPC   C3A48485  26.933  24.296   6.942
 3630POPC   C4A48486  26.661  24.099   7.224
 3630POPC   C1B48487  27.036  24.688   6.093
 3630POPC   C2B48488  27.185  24.824   6.515
 3630POPC   C3B48489  27.074  24.788   6.945
 3630POPC   C4B48490  26.783  24.870   7.250
 3631POPC   NC348491  41.774   9.815   5.285
 3631POPC   PO448492  41.226   9.490   5.404
 3631POPC   GL148493  41.431   9.574   5.787
 3631POPC   GL248494  41.283   9.853   5.979
 3631POPC   C1A48495  41.664   9.415   6.141
 3631POPC   D2A48496  41.881   9.454   6.533
 3631POPC   C3A48497  41.644   9.569   6.922
 3631POPC   C4A48498  41.382   9.513   7.293
 3631POPC   C1B48499  41.741   9.928   6.063
 3631POPC   C2B48500  41.949   9.969   6.485
 3631POPC   C3B48501  41.845  10.136   6.891
 3631POPC   C4B48502  41.555  10.025   7.207
 3632POPC   NC348503  42.545  26.587   5.348
 3632POPC   PO448504  42.161  27.201   5.354
 3632POPC   GL148505  42.376  27.123   5.749
 3632POPC   GL248506  42.364  26.757   5.830
 3632POPC   C1A48507  42.293  27.098   6.213
 3632POPC   D2A48508  42.527  26.942   6.561
 3632POPC   C3A48509  42.363  27.142   6.889
 3632POPC   C4A48510  42.576  27.131   7.242
 3632POPC   C1B48511  42.264  26.584   6.269
 3632POPC   C2B48512  42.137  26.676   6.714
 3632POPC   C3B48513  42.350  26.670   7.114
 3632POPC   C4B48514  42.202  26.386   7.441
 3633POPC   NC348515  26.295  24.128   5.479
 3633POPC   PO448516  26.238  23.473   5.292
 3633POPC   GL148517  26.275  23.470   5.706
 3633POPC   GL248518  25.948  23.554   5.810
 3633POPC   C1A48519  26.294  23.400   6.150
 3633POPC   D2A48520  26.154  23.655   6.493
 3633POPC   C3A48521  26.069  23.492   6.902
 3633POPC   C4A48522  26.207  23.680   7.251
 3633POPC   C1B48523  25.810  23.838   6.161
 3633POPC   C2B48524  25.818  24.037   6.608
 3633POPC   C3B48525  25.731  23.861   7.030
 3633POPC   C4B48526  25.717  23.488   7.334
 3634POPC   NC348527  43.191  38.199   5.377
 3634POPC   PO448528  42.926  38.874   5.579
 3634POPC   GL148529  43.118  38.552   5.737
 3634POPC   GL248530  43.017  38.200   5.857
 3634POPC   C1A48531  43.273  38.535   6.131
 3634POPC   D2A48532  43.107  38.304   6.456
 3634POPC   C3A48533  43.229  38.402   6.861
 3634POPC   C4A48534  43.320  38.474   7.267
 3634POPC   C1B48535  42.748  38.019   6.182
 3634POPC   C2B48536  42.806  37.921   6.629
 3634POPC   C3B48537  42.769  38.230   6.982
 3634POPC   C4B48538  42.863  38.325   7.402
 3635POPC   NC348539  31.446  26.210   5.342
 3635POPC   PO448540  31.729  25.569   5.540
 3635POPC   GL148541  31.484  25.864   5.753
 3635POPC   GL248542  31.189  25.698   5.655
 3635POPC   C1A48543  31.436  26.159   6.111
 3635POPC   D2A48544  31.654  26.295   6.492
 3635POPC   C3A48545  31.455  26.181   6.877
 3635POPC   C4A48546  31.492  25.927   7.240
 3635POPC   C1B48547  31.123  25.743   6.117
 3635POPC   C2B48548  31.121  25.962   6.510
 3635POPC   C3B48549  31.155  25.770   6.890
 3635POPC   C4B48550  31.161  25.410   7.155
 3636POPC   NC348551   8.549  37.985   5.322
 3636POPC   PO448552   8.106  37.540   5.553
 3636POPC   GL148553   8.291  37.614   5.927
 3636POPC   GL248554   8.527  37.835   5.814
 3636POPC   C1A48555   8.274  37.700   6.366
 3636POPC   D2A48556   8.059  37.888   6.724
 3636POPC   C3A48557   8.006  37.742   7.172
 3636POPC   C4A48558   7.834  37.870   7.601
 3636POPC   C1B48559   8.601  38.075   6.202
 3636POPC   C2B48560   8.532  38.114   6.657
 3636POPC   C3B48561   8.350  38.184   7.070
 3636POPC   C4B48562   8.330  37.979   7.489
 3637POPC   NC348563   8.565  16.875   5.132
 3637POPC   PO448564   8.948  16.565   5.662
 3637POPC   GL148565   8.907  16.700   6.039
 3637POPC   GL248566   9.250  16.762   6.066
 3637POPC   C1A48567   8.678  16.574   6.419
 3637POPC   D2A48568   8.682  16.480   6.853
 3637POPC   C3A48569   9.048  16.647   6.995
 3637POPC   C4A48570   9.092  16.851   7.343
 3637POPC   C1B48571   9.283  17.019   6.415
 3637POPC   C2B48572   9.414  17.009   6.839
 3637POPC   C3B48573   9.160  17.271   7.074
 3637POPC   C4B48574   8.917  17.319   7.461
 3638POPC   NC348575  37.404  31.727   5.280
 3638POPC   PO448576  37.281  32.415   5.351
 3638POPC   GL148577  37.522  32.317   5.724
 3638POPC   GL248578  37.532  31.985   5.719
 3638POPC   C1A48579  37.611  32.457   6.139
 3638POPC   D2A48580  37.480  32.568   6.553
 3638POPC   C3A48581  37.675  32.375   6.916
 3638POPC   C4A48582  37.790  32.556   7.326
 3638POPC   C1B48583  37.423  31.968   6.159
 3638POPC   C2B48584  37.596  31.757   6.548
 3638POPC   C3B48585  37.700  31.855   6.980
 3638POPC   C4B48586  37.501  32.108   7.328
 3639POPC   NC348587  14.608   8.759   5.516
 3639POPC   PO448588  14.841   8.122   5.308
 3639POPC   GL148589  14.655   8.260   5.742
 3639POPC   GL248590  14.330   8.454   5.834
 3639POPC   C1A48591  14.541   8.109   6.188
 3639POPC   D2A48592  14.384   8.310   6.576
 3639POPC   C3A48593  14.234   8.168   6.973
 3639POPC   C4A48594  14.577   7.941   7.092
 3639POPC   C1B48595  13.968   8.572   6.112
 3639POPC   C2B48596  13.948   8.555   6.560
 3639POPC   C3B48597  14.145   8.682   6.948
 3639POPC   C4B48598  14.131   8.538   7.393
 3640POPC   NC348599  43.353   1.085   5.467
 3640POPC   PO448600  42.835   1.507   5.458
 3640POPC   GL148601  42.999   1.257   5.803
 3640POPC   GL248602  42.871   0.938   5.841
 3640POPC   C1A48603  43.169   1.159   6.223
 3640POPC   D2A48604  43.159   1.350   6.650
 3640POPC   C3A48605  42.868   1.216   6.994
 3640POPC   C4A48606  42.961   1.247   7.417
 3640POPC   C1B48607  42.831   0.735   6.213
 3640POPC   C2B48608  42.848   0.930   6.559
 3640POPC   C3B48609  43.152   0.845   6.811
 3640POPC   C4B48610  43.112   0.784   7.214
 3641POPC   NC348611  34.104  35.155   5.369
 3641POPC   PO448612  34.742  35.506   5.409
 3641POPC   GL148613  34.715  35.305   5.815
 3641POPC   GL248614  34.424  35.085   5.764
 3641POPC   C1A48615  34.753  35.518   6.240
 3641POPC   D2A48616  34.408  35.713   6.503
 3641POPC   C3A48617  34.424  35.639   6.967
 3641POPC   C4A48618  34.805  35.502   7.227
 3641POPC   C1B48619  34.341  35.228   6.185
 3641POPC   C2B48620  34.390  35.033   6.590
 3641POPC   C3B48621  34.472  35.113   7.028
 3641POPC   C4B48622  34.401  34.867   7.377
 3642POPC   NC348623  13.423  29.562   5.426
 3642POPC   PO448624  13.802  28.984   5.386
 3642POPC   GL148625  13.625  28.930   5.759
 3642POPC   GL248626  13.564  29.250   5.790
 3642POPC   C1A48627  13.771  28.813   6.177
 3642POPC   D2A48628  13.541  28.833   6.575
 3642POPC   C3A48629  13.762  28.903   6.964
 3642POPC   C4A48630  13.737  29.145   7.341
 3642POPC   C1B48631  13.404  29.188   6.195
 3642POPC   C2B48632  13.272  29.311   6.578
 3642POPC   C3B48633  13.459  29.314   6.947
 3642POPC   C4B48634  13.209  29.193   7.263
 3643POPC   NC348635  32.696  19.785   5.340
 3643POPC   PO448636  33.360  19.939   5.390
 3643POPC   GL148637  33.188  20.019   5.775
 3643POPC   GL248638  32.956  19.778   5.792
 3643POPC   C1A48639  33.340  19.919   6.172
 3643POPC   D2A48640  33.200  19.758   6.548
 3643POPC   C3A48641  33.393  19.882   6.936
 3643POPC   C4A48642  33.195  19.661   7.254
 3643POPC   C1B48643  32.828  19.965   6.166
 3643POPC   C2B48644  32.819  20.141   6.551
 3643POPC   C3B48645  32.881  19.960   6.942
 3643POPC   C4B48646  32.677  19.699   7.240
 3644POPC   NC348647  35.286   4.216   5.455
 3644POPC   PO448648  34.824   4.676   5.512
 3644POPC   GL148649  35.153   4.514   5.821
 3644POPC   GL248650  35.467   4.701   5.762
 3644POPC   C1A48651  35.271   4.265   6.221
 3644POPC   D2A48652  35.381   4.089   6.635
 3644POPC   C3A48653  35.146   4.264   7.006
 3644POPC   C4A48654  34.776   4.064   7.186
 3644POPC   C1B48655  35.628   4.631   6.198
 3644POPC   C2B48656  35.496   4.582   6.630
 3644POPC   C3B48657  35.633   4.500   7.055
 3644POPC   C4B48658  35.775   4.681   7.430
 3645POPC   NC348659   9.560  40.416   5.026
 3645POPC   PO448660   8.935  40.145   5.317
 3645POPC   GL148661   9.071  40.106   5.735
 3645POPC   GL248662   8.800  39.899   5.835
 3645POPC   C1A48663   9.001  40.263   6.161
 3645POPC   D2A48664   8.910  40.034   6.556
 3645POPC   C3A48665   8.995  40.249   6.947
 3645POPC   C4A48666   9.009  40.153   7.393
 3645POPC   C1B48667   8.554  39.750   6.193
 3645POPC   C2B48668   8.435  39.778   6.609
 3645POPC   C3B48669   8.630  39.792   6.980
 3645POPC   C4B48670   8.385  39.660   7.320
 3646POPC   NC348671  34.185  10.269   5.326
 3646POPC   PO448672  34.560  10.873   5.290
 3646POPC   GL148673  34.607  10.731   5.711
 3646POPC   GL248674  34.307  10.524   5.762
 3646POPC   C1A48675  34.528  10.774   6.161
 3646POPC   D2A48676  34.616  10.538   6.521
 3646POPC   C3A48677  34.659  10.703   6.899
 3646POPC   C4A48678  34.448  10.835   7.212
 3646POPC   C1B48679  34.128  10.335   6.148
 3646POPC   C2B48680  34.064  10.441   6.592
 3646POPC   C3B48681  34.237  10.383   7.014
 3646POPC   C4B48682  34.218   9.976   7.239
 3647POPC   NC348683  44.760  19.313   5.419
 3647POPC   PO448684  44.182  18.918   5.422
 3647POPC   GL148685  44.495  19.047   5.779
 3647POPC   GL248686  44.848  18.892   5.789
 3647POPC   C1A48687  44.481  19.221   6.208
 3647POPC   D2A48688  44.250  19.051   6.568
 3647POPC   C3A48689  44.372  19.119   6.990
 3647POPC   C4A48690  44.738  19.184   7.239
 3647POPC   C1B48691  44.978  19.022   6.211
 3647POPC   C2B48692  44.801  19.058   6.629
 3647POPC   C3B48693   0.030  18.886   6.955
 3647POPC   C4B48694   0.129  18.832   7.348
 3648POPC   NC348695   3.184  25.663   5.279
 3648POPC   PO448696   3.569  26.110   5.548
 3648POPC   GL148697   3.593  25.806   5.864
 3648POPC   GL248698   3.853  25.554   5.940
 3648POPC   C1A48699   3.503  26.028   6.227
 3648POPC   D2A48700   3.683  26.373   6.445
 3648POPC   C3A48701   3.385  26.411   6.757
 3648POPC   C4A48702   3.477  26.395   7.158
 3648POPC   C1B48703   3.737  25.610   6.383
 3648POPC   C2B48704   3.655  25.901   6.703
 3648POPC   C3B48705   3.577  25.887   7.121
 3648POPC   C4B48706   3.237  25.879   7.424
 3649POPC   NC348707  10.844  11.642   5.371
 3649POPC   PO448708  10.701  10.983   5.412
 3649POPC   GL148709  10.657  11.228   5.786
 3649POPC   GL248710  10.979  11.416   5.803
 3649POPC   C1A48711  10.496  11.507   6.151
 3649POPC   D2A48712  10.599  11.695   6.555
 3649POPC   C3A48713  10.430  11.466   6.913
 3649POPC   C4A48714  10.529  11.393   7.342
 3649POPC   C1B48715  10.926  11.233   6.206
 3649POPC   C2B48716  10.782  11.216   6.607
 3649POPC   C3B48717  10.939  11.437   6.946
 3649POPC   C4B48718  11.011  11.282   7.323
 3650POPC   NC348719  19.232  31.554   5.088
 3650POPC   PO448720  18.788  31.378   5.571
 3650POPC   GL148721  19.036  31.533   5.914
 3650POPC   GL248722  19.360  31.604   5.780
 3650POPC   C1A48723  18.943  31.538   6.363
 3650POPC   D2A48724  18.661  31.343   6.674
 3650POPC   C3A48725  18.679  31.508   7.029
 3650POPC   C4A48726  19.081  31.515   7.150
 3650POPC   C1B48727  19.471  31.549   6.249
 3650POPC   C2B48728  19.429  31.656   6.712
 3650POPC   C3B48729  19.358  31.938   7.081
 3650POPC   C4B48730  19.236  31.832   7.520
 3651POPC   NC348731  15.063   8.415   5.020
 3651POPC   PO448732  15.546   8.072   5.330
 3651POPC   GL148733  15.210   8.241   5.623
 3651POPC   GL248734  15.106   8.014   5.812
 3651POPC   C1A48735  15.039   8.487   5.993
 3651POPC   D2A48736  14.887   8.427   6.429
 3651POPC   C3A48737  15.066   8.498   6.892
 3651POPC   C4A48738  15.156   8.329   7.284
 3651POPC   C1B48739  15.043   7.936   6.257
 3651POPC   C2B48740  15.093   8.038   6.690
 3651POPC   C3B48741  15.063   7.850   7.075
 3651POPC   C4B48742  15.033   7.558   7.426
 3652POPC   NC348743  27.200  29.251   5.371
 3652POPC   PO448744  27.726  29.569   5.558
 3652POPC   GL148745  27.457  29.381   5.849
 3652POPC   GL248746  27.367  29.019   5.800
 3652POPC   C1A48747  27.581  29.448   6.287
 3652POPC   D2A48748  27.726  29.595   6.697
 3652POPC   C3A48749  27.572  29.394   7.062
 3652POPC   C4A48750  27.748  29.298   7.452
 3652POPC   C1B48751  27.713  28.975   6.101
 3652POPC   C2B48752  27.824  28.765   6.489
 3652POPC   C3B48753  27.618  28.841   6.868
 3652POPC   C4B48754  27.460  28.923   7.276
 3653POPC   NC348755  36.432  25.046   5.524
 3653POPC   PO448756  35.879  25.385   5.350
 3653POPC   GL148757  35.856  25.330   5.799
 3653POPC   GL248758  36.206  25.292   5.899
 3653POPC   C1A48759  35.882  25.212   6.258
 3653POPC   D2A48760  36.074  25.280   6.665
 3653POPC   C3A48761  35.789  25.284   7.008
 3653POPC   C4A48762  35.910  25.048   7.337
 3653POPC   C1B48763  36.442  25.311   6.279
 3653POPC   C2B48764  36.568  25.086   6.637
 3653POPC   C3B48765  36.463  25.101   7.081
 3653POPC   C4B48766  36.295  25.428   7.345
 3654POPC   NC348767  34.008  18.714   5.163
 3654POPC   PO448768  33.607  18.148   5.239
 3654POPC   GL148769  33.599  18.169   5.712
 3654POPC   GL248770  33.944  18.105   5.766
 3654POPC   C1A48771  33.661  18.316   6.168
 3654POPC   D2A48772  34.075  18.383   6.338
 3654POPC   C3A48773  34.002  18.285   6.737
 3654POPC   C4A48774  33.834  18.362   7.117
 3654POPC   C1B48775  33.946  17.886   6.170
 3654POPC   C2B48776  33.762  17.744   6.582
 3654POPC   C3B48777  33.823  17.853   7.010
 3654POPC   C4B48778  33.604  17.976   7.392
 3655POPC   NC348779  44.390  33.565   5.569
 3655POPC   PO448780  44.724  34.167   5.274
 3655POPC   GL148781  44.543  34.038   5.696
 3655POPC   GL248782  44.172  33.951   5.788
 3655POPC   C1A48783  44.672  33.883   6.119
 3655POPC   D2A48784  44.613  34.002   6.537
 3655POPC   C3A48785  44.804  33.886   6.974
 3655POPC   C4A48786  44.636  33.869   7.411
 3655POPC   C1B48787  44.206  33.683   6.172
 3655POPC   C2B48788  44.133  33.823   6.565
 3655POPC   C3B48789  44.306  33.931   6.962
 3655POPC   C4B48790  44.307  33.540   7.177
 3656POPC   NC348791  11.825  11.361   5.306
 3656POPC   PO448792  12.462  11.119   5.402
 3656POPC   GL148793  12.151  11.172   5.710
 3656POPC   GL248794  12.248  10.975   5.982
 3656POPC   C1A48795  11.837  11.257   6.042
 3656POPC   D2A48796  11.779  11.389   6.473
 3656POPC   C3A48797  11.903  11.201   6.893
 3656POPC   C4A48798  11.917  11.313   7.369
 3656POPC   C1B48799  12.300  11.371   6.235
 3656POPC   C2B48800  12.199  11.585   6.643
 3656POPC   C3B48801  12.224  11.569   7.036
 3656POPC   C4B48802  12.373  11.198   7.177
 3657POPC   NC348803   9.476  21.853   5.385
 3657POPC   PO448804   9.854  21.243   5.336
 3657POPC   GL148805   9.671  21.225   5.778
 3657POPC   GL248806   9.439  21.491   5.744
 3657POPC   C1A48807   9.853  21.183   6.201
 3657POPC   D2A48808  10.048  21.424   6.512
 3657POPC   C3A48809   9.873  21.491   6.918
 3657POPC   C4A48810  10.078  21.610   7.312
 3657POPC   C1B48811   9.594  21.625   6.132
 3657POPC   C2B48812   9.526  21.469   6.527
 3657POPC   C3B48813   9.353  21.570   6.929
 3657POPC   C4B48814   9.427  21.772   7.322
 3658POPC   NC348815  23.848  13.866   5.451
 3658POPC   PO448816  23.283  13.492   5.250
 3658POPC   GL148817  23.429  13.659   5.724
 3658POPC   GL248818  23.531  13.944   5.860
 3658POPC   C1A48819  23.749  13.569   6.107
 3658POPC   D2A48820  24.005  13.424   6.475
 3658POPC   C3A48821  23.887  13.536   6.904
 3658POPC   C4A48822  23.736  13.389   7.293
 3658POPC   C1B48823  23.332  13.886   6.201
 3658POPC   C2B48824  23.458  13.672   6.552
 3658POPC   C3B48825  23.529  13.897   6.879
 3658POPC   C4B48826  23.603  13.907   7.262
 3659POPC   NC348827  36.265   9.976   5.461
 3659POPC   PO448828  36.208  10.652   5.466
 3659POPC   GL148829  36.126  10.551   5.901
 3659POPC   GL248830  35.739  10.593   5.895
 3659POPC   C1A48831  36.359  10.615   6.334
 3659POPC   D2A48832  36.509  10.780   6.767
 3659POPC   C3A48833  36.358  10.490   7.100
 3659POPC   C4A48834  35.959  10.278   7.213
 3659POPC   C1B48835  35.910  10.894   6.199
 3659POPC   C2B48836  35.999  10.856   6.638
 3659POPC   C3B48837  35.943  10.799   7.064
 3659POPC   C4B48838  35.626  10.640   7.358
 3660POPC   NC348839   7.063  25.864   5.118
 3660POPC   PO448840   6.607  26.233   5.472
 3660POPC   GL148841   6.480  26.087   5.833
 3660POPC   GL248842   6.563  25.760   5.943
 3660POPC   C1A48843   6.611  26.203   6.212
 3660POPC   D2A48844   6.362  26.225   6.592
 3660POPC   C3A48845   6.495  26.033   6.923
 3660POPC   C4A48846   6.816  26.329   7.037
 3660POPC   C1B48847   6.588  25.763   6.412
 3660POPC   C2B48848   6.919  25.968   6.639
 3660POPC   C3B48849   6.943  25.835   7.057
 3660POPC   C4B48850   6.578  25.565   7.189
 3661POPC   NC348851  19.595   5.817   5.071
 3661POPC   PO448852  19.765   5.203   5.453
 3661POPC   GL148853  19.686   5.038   5.873
 3661POPC   GL248854  19.933   4.772   5.919
 3661POPC   C1A48855  19.632   5.192   6.290
 3661POPC   D2A48856  19.905   5.206   6.665
 3661POPC   C3A48857  19.728   5.169   7.089
 3661POPC   C4A48858  19.615   5.477   7.383
 3661POPC   C1B48859  19.839   4.740   6.390
 3661POPC   C2B48860  19.852   4.716   6.839
 3661POPC   C3B48861  19.861   4.680   7.281
 3661POPC   C4B48862  19.963   4.615   7.717
 3662POPC   NC348863   3.344  36.100   5.495
 3662POPC   PO448864   2.784  36.297   5.444
 3662POPC   GL148865   2.759  36.329   5.887
 3662POPC   GL248866   3.087  36.200   5.946
 3662POPC   C1A48867   2.540  36.188   6.285
 3662POPC   D2A48868   2.463  35.800   6.576
 3662POPC   C3A48869   2.640  35.744   7.019
 3662POPC   C4A48870   3.012  35.934   7.248
 3662POPC   C1B48871   3.023  36.077   6.383
 3662POPC   C2B48872   2.767  36.169   6.760
 3662POPC   C3B48873   2.904  36.411   7.101
 3662POPC   C4B48874   3.332  36.404   7.274
 3663POPC   NC348875  23.178  35.927   5.563
 3663POPC   PO448876  22.632  36.474   5.545
 3663POPC   GL148877  22.840  36.333   5.921
 3663POPC   GL248878  23.199  36.279   5.925
 3663POPC   C1A48879  22.844  36.030   6.270
 3663POPC   D2A48880  22.843  35.623   6.490
 3663POPC   C3A48881  22.665  35.745   6.899
 3663POPC   C4A48882  22.538  36.167   7.074
 3663POPC   C1B48883  23.350  36.094   6.270
 3663POPC   C2B48884  23.242  36.215   6.669
 3663POPC   C3B48885  23.132  36.040   7.065
 3663POPC   C4B48886  23.445  35.972   7.353
 3664POPC   NC348887  13.890   2.464   5.564
 3664POPC   PO448888  14.475   2.056   5.571
 3664POPC   GL148889  14.234   2.059   5.884
 3664POPC   GL248890  14.278   2.397   5.877
 3664POPC   C1A48891  14.386   1.831   6.241
 3664POPC   D2A48892  14.598   1.966   6.618
 3664POPC   C3A48893  14.400   1.927   6.989
 3664POPC   C4A48894  14.417   1.558   7.170
 3664POPC   C1B48895  14.457   2.325   6.278
 3664POPC   C2B48896  14.314   2.462   6.689
 3664POPC   C3B48897  14.332   2.423   7.131
 3664POPC   C4B48898  14.553   2.198   7.425
 3665POPC   NC348899  43.349  31.353   5.312
 3665POPC   PO448900  42.854  31.641   5.596
 3665POPC   GL148901  43.043  31.303   5.803
 3665POPC   GL248902  43.336  31.465   5.839
 3665POPC   C1A48903  42.967  31.215   6.234
 3665POPC   D2A48904  42.872  31.463   6.593
 3665POPC   C3A48905  43.004  31.330   7.013
 3665POPC   C4A48906  43.014  31.011   7.341
 3665POPC   C1B48907  43.198  31.683   6.216
 3665POPC   C2B48908  43.420  31.876   6.551
 3665POPC   C3B48909  43.568  31.877   6.947
 3665POPC   C4B48910  43.331  31.652   7.252
 3666POPC   NC348911  24.707  14.469   5.455
 3666POPC   PO448912  24.224  14.150   5.478
 3666POPC   GL148913  24.338  14.478   5.829
 3666POPC   GL248914  24.717  14.554   5.940
 3666POPC   C1A48915  24.352  14.432   6.286
 3666POPC   D2A48916  24.668  14.272   6.578
 3666POPC   C3A48917  24.464  14.119   6.975
 3666POPC   C4A48918  24.572  14.192   7.404
 3666POPC   C1B48919  25.012  14.754   6.228
 3666POPC   C2B48920  24.868  14.807   6.645
 3666POPC   C3B48921  24.635  14.605   6.976
 3666POPC   C4B48922  24.648  14.692   7.366
 3667POPC   NC348923   0.128  21.157   5.441
 3667POPC   PO448924   0.538  21.759   5.546
 3667POPC   GL148925   0.277  21.523   5.820
 3667POPC   GL248926   0.378  21.190   5.892
 3667POPC   C1A48927   0.239  21.598   6.258
 3667POPC   D2A48928   0.417  21.778   6.633
 3667POPC   C3A48929   0.518  21.576   7.020
 3667POPC   C4A48930   0.270  21.479   7.365
 3667POPC   C1B48931   0.576  21.225   6.273
 3667POPC   C2B48932   0.409  21.234   6.667
 3667POPC   C3B48933   0.443  21.084   7.081
 3667POPC   C4B48934   0.764  21.138   7.344
 3668POPC   NC348935  42.265  10.838   5.507
 3668POPC   PO448936  41.825  10.290   5.434
 3668POPC   GL148937  42.073  10.264   5.830
 3668POPC   GL248938  42.167  10.579   5.925
 3668POPC   C1A48939  42.313  10.210   6.229
 3668POPC   D2A48940  42.232  10.416   6.644
 3668POPC   C3A48941  42.341  10.203   7.042
 3668POPC   C4A48942  42.512  10.262   7.486
 3668POPC   C1B48943  42.498  10.695   6.203
 3668POPC   C2B48944  42.632  10.752   6.634
 3668POPC   C3B48945  42.527  10.668   7.045
 3668POPC   C4B48946  42.180  10.634   7.306
 3669POPC   NC348947  44.265  18.445   5.448
 3669POPC   PO448948  44.898  18.113   5.570
 3669POPC   GL148949  44.593  18.233   5.867
 3669POPC   GL248950  44.470  18.554   5.904
 3669POPC   C1A48951  44.630  18.244   6.313
 3669POPC   D2A48952  44.884  18.009   6.538
 3669POPC   C3A48953  44.760  17.970   6.947
 3669POPC   C4A48954  44.476  18.240   7.157
 3669POPC   C1B48955  44.545  18.729   6.310
 3669POPC   C2B48956  44.517  18.649   6.784
 3669POPC   C3B48957  44.643  18.695   7.221
 3669POPC   C4B48958  44.889  18.417   7.498
 3670POPC   NC348959   8.819   9.988   5.477
 3670POPC   PO448960   9.406   9.878   5.186
 3670POPC   GL148961   9.245   9.774   5.678
 3670POPC   GL248962   8.888   9.567   5.779
 3670POPC   C1A48963   9.174   9.679   6.159
 3670POPC   D2A48964   8.872   9.893   6.438
 3670POPC   C3A48965   8.922   9.851   6.863
 3670POPC   C4A48966   9.031   9.691   7.264
 3670POPC   C1B48967   8.657   9.507   6.193
 3670POPC   C2B48968   8.495   9.539   6.634
 3670POPC   C3B48969   8.505   9.616   7.097
 3670POPC   C4B48970   8.658   9.501   7.524
 3671POPC   NC348971   0.687  44.071   5.290
 3671POPC   PO448972   0.402  43.481   5.235
 3671POPC   GL148973   0.506  43.760   5.656
 3671POPC   GL248974   0.691  44.106   5.785
 3671POPC   C1A48975   0.432  43.840   6.127
 3671POPC   D2A48976   0.682  43.925   6.520
 3671POPC   C3A48977   0.525  43.822   6.942
 3671POPC   C4A48978   0.861  43.590   7.152
 3671POPC   C1B48979   0.598  44.321   6.202
 3671POPC   C2B48980   0.415  44.340   6.630
 3671POPC   C3B48981   0.696  44.283   6.981
 3671POPC   C4B48982   0.623  44.100   7.414
 3672POPC   NC348983  24.869  16.151   5.388
 3672POPC   PO448984  25.566  16.128   5.373
 3672POPC   GL148985  25.261  16.090   5.722
 3672POPC   GL248986  25.026  15.790   5.738
 3672POPC   C1A48987  25.303  16.056   6.172
 3672POPC   D2A48988  25.256  15.794   6.553
 3672POPC   C3A48989  25.392  15.973   6.952
 3672POPC   C4A48990  25.267  15.688   7.257
 3672POPC   C1B48991  24.861  15.792   6.146
 3672POPC   C2B48992  24.797  16.013   6.475
 3672POPC   C3B48993  24.866  15.942   6.886
 3672POPC   C4B48994  24.990  16.174   7.241
 3673POPC   NC348995  18.519  39.667   5.564
 3673POPC   PO448996  18.212  39.076   5.448
 3673POPC   GL148997  18.180  39.291   5.827
 3673POPC   GL248998  17.920  39.021   5.885
 3673POPC   C1A48999  18.504  39.367   6.177
 3673POPC   D2A49000  18.825  39.282   6.484
 3673POPC   C3A49001  18.715  39.437   6.890
 3673POPC   C4A49002  18.667  39.388   7.316
 3673POPC   C1B49003  18.054  39.158   6.306
 3673POPC   C2B49004  18.339  39.126   6.635
 3673POPC   C3B49005  18.341  39.095   7.057
 3673POPC   C4B49006  18.054  39.020   7.349
 3674POPC   NC349007  35.051  20.057   5.419
 3674POPC   PO449008  35.723  20.160   5.500
 3674POPC   GL149009  35.447  19.967   5.725
 3674POPC   GL249010  35.399  19.681   5.508
 3674POPC   C1A49011  35.234  20.060   6.101
 3674POPC   D2A49012  35.327  20.044   6.537
 3674POPC   C3A49013  35.063  20.073   6.901
 3674POPC   C4A49014  35.309  20.201   7.273
 3674POPC   C1B49015  35.274  19.539   5.918
 3674POPC   C2B49016  35.236  19.545   6.347
 3674POPC   C3B49017  35.140  19.566   6.770
 3674POPC   C4B49018  35.261  19.702   7.186
 3675POPC   NC349019  28.996  22.985   5.224
 3675POPC   PO449020  29.621  22.999   5.528
 3675POPC   GL149021  29.220  22.891   5.798
 3675POPC   GL249022  29.100  23.234   5.997
 3675POPC   C1A49023  29.175  22.847   6.260
 3675POPC   D2A49024  29.286  23.187   6.527
 3675POPC   C3A49025  29.344  23.059   6.923
 3675POPC   C4A49026  29.054  22.834   7.151
 3675POPC   C1B49027  28.790  23.173   6.345
 3675POPC   C2B49028  28.785  23.085   6.779
 3675POPC   C3B49029  28.841  23.290   7.181
 3675POPC   C4B49030  28.692  23.353   7.639
 3676POPC   NC349031   6.975   3.472   5.358
 3676POPC   PO449032   7.677   3.699   5.347
 3676POPC   GL149033   7.586   3.731   5.792
 3676POPC   GL249034   7.237   3.671   5.800
 3676POPC   C1A49035   7.575   3.768   6.238
 3676POPC   D2A49036   7.860   3.585   6.526
 3676POPC   C3A49037   7.688   3.375   6.865
 3676POPC   C4A49038   7.346   3.414   7.147
 3676POPC   C1B49039   7.062   3.844   6.178
 3676POPC   C2B49040   6.918   3.746   6.591
 3676POPC   C3B49041   6.961   3.814   7.048
 3676POPC   C4B49042   7.052   3.697   7.470
 3677POPC   NC349043   1.410  41.883   5.481
 3677POPC   PO449044   1.025  41.285   5.413
 3677POPC   GL149045   1.151  41.544   5.788
 3677POPC   GL249046   1.547  41.511   5.809
 3677POPC   C1A49047   1.080  41.380   6.201
 3677POPC   D2A49048   1.242  41.425   6.613
 3677POPC   C3A49049   1.010  41.467   6.990
 3677POPC   C4A49050   1.174  41.556   7.397
 3677POPC   C1B49051   1.513  41.662   6.213
 3677POPC   C2B49052   1.511  41.865   6.609
 3677POPC   C3B49053   1.473  41.769   7.026
 3677POPC   C4B49054   1.508  41.955   7.430
 3678POPC   NC349055  25.983  40.323   5.484
 3678POPC   PO449056  25.764  39.708   5.533
 3678POPC   GL149057  26.045  39.951   5.819
 3678POPC   GL249058  25.787  40.164   5.918
 3678POPC   C1A49059  26.319  40.234   6.087
 3678POPC   D2A49060  26.383  40.309   6.574
 3678POPC   C3A49061  26.006  40.165   6.872
 3678POPC   C4A49062  25.962  39.826   7.225
 3678POPC   C1B49063  25.901  40.267   6.347
 3678POPC   C2B49064  25.765  40.575   6.622
 3678POPC   C3B49065  25.497  40.453   6.908
 3678POPC   C4B49066  25.618  40.182   7.233
 3679POPC   NC349067  23.122  27.821   5.538
 3679POPC   PO449068  22.512  27.840   5.791
 3679POPC   GL149069  22.849  27.565   5.923
 3679POPC   GL249070  22.976  27.850   6.034
 3679POPC   C1A49071  23.096  27.484   6.342
 3679POPC   D2A49072  22.953  27.575   6.778
 3679POPC   C3A49073  23.264  27.544   7.090
 3679POPC   C4A49074  23.246  27.468   7.554
 3679POPC   C1B49075  22.650  27.730   6.379
 3679POPC   C2B49076  22.528  27.873   6.727
 3679POPC   C3B49077  22.617  27.877   7.107
 3679POPC   C4B49078  22.995  27.912   7.307
 3680POPC   NC349079  32.708   4.096   5.305
 3680POPC   PO449080  33.246   4.420   4.995
 3680POPC   GL149081  33.254   4.482   5.555
 3680POPC   GL249082  32.919   4.344   5.720
 3680POPC   C1A49083  33.289   4.361   6.074
 3680POPC   D2A49084  33.335   4.156   6.529
 3680POPC   C3A49085  33.204   4.326   6.951
 3680POPC   C4A49086  32.885   4.457   7.266
 3680POPC   C1B49087  32.731   4.043   6.044
 3680POPC   C2B49088  32.832   4.062   6.487
 3680POPC   C3B49089  32.746   4.012   6.908
 3680POPC   C4B49090  32.507   4.071   7.268
 3681POPC   NC349091  27.457  37.258   4.987
 3681POPC   PO449092  27.416  36.660   5.245
 3681POPC   GL149093  27.476  36.782   5.705
 3681POPC   GL249094  27.729  36.566   5.837
 3681POPC   C1A49095  27.613  36.968   6.139
 3681POPC   D2A49096  27.663  36.745   6.549
 3681POPC   C3A49097  27.801  36.918   6.931
 3681POPC   C4A49098  27.613  37.194   7.235
 3681POPC   C1B49099  27.707  36.301   6.227
 3681POPC   C2B49100  27.857  36.236   6.647
 3681POPC   C3B49101  27.624  36.398   6.956
 3681POPC   C4B49102  27.562  36.646   7.309
 3682POPC   NC349103  10.500  30.328   5.287
 3682POPC   PO449104  10.740  29.634   5.316
 3682POPC   GL149105  10.583  29.748   5.728
 3682POPC   GL249106  10.767  30.004   5.903
 3682POPC   C1A49107  10.417  29.715   6.171
 3682POPC   D2A49108  10.222  29.918   6.548
 3682POPC   C3A49109  10.276  29.668   6.935
 3682POPC   C4A49110  10.383  29.688   7.368
 3682POPC   C1B49111  10.709  30.098   6.363
 3682POPC   C2B49112  10.698  29.990   6.828
 3682POPC   C3B49113  10.599  30.148   7.254
 3682POPC   C4B49114  10.701  30.399   7.630
 3683POPC   NC349115   6.299  38.429   5.231
 3683POPC   PO449116   5.785  38.092   5.254
 3683POPC   GL149117   5.929  38.332   5.644
 3683POPC   GL249118   5.917  38.638   5.812
 3683POPC   C1A49119   6.134  38.231   6.086
 3683POPC   D2A49120   6.227  38.303   6.549
 3683POPC   C3A49121   5.965  38.470   6.847
 3683POPC   C4A49122   5.934  38.330   7.228
 3683POPC   C1B49123   5.799  38.585   6.227
 3683POPC   C2B49124   5.763  38.831   6.572
 3683POPC   C3B49125   5.684  38.906   6.964
 3683POPC   C4B49126   5.710  38.775   7.390
 3684POPC   NC349127  38.855  14.789   5.505
 3684POPC   PO449128  38.960  14.101   5.363
 3684POPC   GL149129  39.077  14.352   5.755
 3684POPC   GL249130  39.421  14.494   5.843
 3684POPC   C1A49131  39.031  14.554   6.188
 3684POPC   D2A49132  39.052  14.388   6.602
 3684POPC   C3A49133  38.924  14.575   6.958
 3684POPC   C4A49134  39.121  14.826   7.237
 3684POPC   C1B49135  39.547  14.663   6.279
 3684POPC   C2B49136  39.716  14.747   6.723
 3684POPC   C3B49137  39.564  14.589   7.135
 3684POPC   C4B49138  39.508  14.611   7.607
 3685POPC   NC349139  27.776  37.102   5.454
 3685POPC   PO449140  28.377  36.817   5.474
 3685POPC   GL149141  28.363  36.841   5.873
 3685POPC   GL249142  28.049  36.972   5.860
 3685POPC   C1A49143  28.481  36.951   6.307
 3685POPC   D2A49144  28.293  37.065   6.712
 3685POPC   C3A49145  28.529  36.978   7.114
 3685POPC   C4A49146  28.458  36.930   7.586
 3685POPC   C1B49147  28.050  36.691   6.228
 3685POPC   C2B49148  28.275  36.533   6.559
 3685POPC   C3B49149  28.210  36.609   6.957
 3685POPC   C4B49150  28.030  36.412   7.261
 3686POPC   NC349151  29.459  29.388   5.618
 3686POPC   PO449152  29.823  28.799   5.395
 3686POPC   GL149153  29.661  28.927   5.783
 3686POPC   GL249154  29.894  29.203   5.878
 3686POPC   C1A49155  29.602  28.941   6.235
 3686POPC   D2A49156  29.844  28.858   6.613
 3686POPC   C3A49157  29.872  29.208   6.912
 3686POPC   C4A49158  29.897  29.061   7.335
 3686POPC   C1B49159  29.966  29.293   6.342
 3686POPC   C2B49160  30.297  29.293   6.651
 3686POPC   C3B49161  30.245  29.579   7.017
 3686POPC   C4B49162  30.138  29.492   7.444
 3687POPC   NC349163  34.873   5.437   5.688
 3687POPC   PO449164  35.407   5.090   5.389
 3687POPC   GL149165  35.290   5.178   5.821
 3687POPC   GL249166  34.997   4.988   5.874
 3687POPC   C1A49167  35.154   5.251   6.272
 3687POPC   D2A49168  35.347   5.097   6.620
 3687POPC   C3A49169  35.297   5.277   7.000
 3687POPC   C4A49170  35.651   5.369   7.244
 3687POPC   C1B49171  35.124   4.760   6.247
 3687POPC   C2B49172  34.998   4.734   6.651
 3687POPC   C3B49173  35.215   4.784   7.043
 3687POPC   C4B49174  35.366   4.990   7.437
 3688POPC   NC349175  25.125  41.678   5.465
 3688POPC   PO449176  25.598  41.318   5.643
 3688POPC   GL149177  25.505  41.712   5.863
 3688POPC   GL249178  25.152  41.693   5.955
 3688POPC   C1A49179  25.468  41.836   6.317
 3688POPC   D2A49180  25.324  41.599   6.666
 3688POPC   C3A49181  25.301  41.754   7.079
 3688POPC   C4A49182  25.554  41.525   7.387
 3688POPC   C1B49183  24.931  41.510   6.304
 3688POPC   C2B49184  24.801  41.642   6.704
 3688POPC   C3B49185  24.800  41.566   7.141
 3688POPC   C4B49186  25.061  41.537   7.477
 3689POPC   NC349187  11.719  32.269   5.491
 3689POPC   PO449188  12.334  31.900   5.299
 3689POPC   GL149189  12.202  32.277   5.686
 3689POPC   GL249190  12.179  32.115   6.013
 3689POPC   C1A49191  12.007  32.580   6.050
 3689POPC   D2A49192  11.934  32.620   6.534
 3689POPC   C3A49193  12.218  32.633   6.924
 3689POPC   C4A49194  12.173  32.403   7.326
 3689POPC   C1B49195  11.874  31.902   6.306
 3689POPC   C2B49196  11.986  31.776   6.713
 3689POPC   C3B49197  11.969  32.158   6.927
 3689POPC   C4B49198  11.673  32.401   7.135
 3690POPC   NC349199   1.681   7.421   5.562
 3690POPC   PO449200   2.199   7.093   5.289
 3690POPC   GL149201   2.172   7.267   5.737
 3690POPC   GL249202   2.079   7.637   5.837
 3690POPC   C1A49203   1.985   7.214   6.153
 3690POPC   D2A49204   1.967   7.435   6.536
 3690POPC   C3A49205   1.810   7.183   6.869
 3690POPC   C4A49206   1.742   6.926   7.188
 3690POPC   C1B49207   2.171   7.863   6.242
 3690POPC   C2B49208   2.070   7.931   6.691
 3690POPC   C3B49209   1.882   7.668   6.984
 3690POPC   C4B49210   1.952   7.482   7.376
 3691POPC   NC349211  38.913  43.739   5.588
 3691POPC   PO449212  39.157  44.370   5.449
 3691POPC   GL149213  39.284  44.100   5.846
 3691POPC   GL249214  39.265  43.726   5.967
 3691POPC   C1A49215  39.246  44.087   6.305
 3691POPC   D2A49216  39.059  44.304   6.619
 3691POPC   C3A49217  39.280  44.098   6.899
 3691POPC   C4A49218  39.384  44.130   7.346
 3691POPC   C1B49219  38.876  43.740   6.268
 3691POPC   C2B49220  38.844  43.853   6.730
 3691POPC   C3B49221  39.012  43.812   7.195
 3691POPC   C4B49222  39.247  43.642   7.560
 3692POPC   NC349223  13.133   3.106   5.689
 3692POPC   PO449224  13.452   3.530   5.219
 3692POPC   GL149225  13.571   3.380   5.649
 3692POPC   GL249226  13.686   3.682   5.735
 3692POPC   C1A49227  13.637   3.368   6.142
 3692POPC   D2A49228  13.539   3.242   6.606
 3692POPC   C3A49229  13.527   3.464   7.006
 3692POPC   C4A49230  13.867   3.756   7.126
 3692POPC   C1B49231  13.453   3.833   6.135
 3692POPC   C2B49232  13.444   3.822   6.591
 3692POPC   C3B49233  13.385   3.950   7.013
 3692POPC   C4B49234  13.481   3.836   7.439
 3693POPC   NC349235  40.090  22.022   5.526
 3693POPC   PO449236  40.479  22.556   5.501
 3693POPC   GL149237  40.292  22.339   5.888
 3693POPC   GL249238  39.915  22.313   5.935
 3693POPC   C1A49239  40.243  22.011   6.200
 3693POPC   D2A49240  40.196  21.939   6.633
 3693POPC   C3A49241  40.188  22.274   6.955
 3693POPC   C4A49242  40.300  22.298   7.399
 3693POPC   C1B49243  39.766  22.171   6.358
 3693POPC   C2B49244  39.743  22.008   6.799
 3693POPC   C3B49245  39.818  22.016   7.237
 3693POPC   C4B49246  39.673  21.782   7.616
 3694POPC   NC349247  10.085   2.136   5.091
 3694POPC   PO449248   9.557   1.782   5.299
 3694POPC   GL149249   9.720   2.024   5.647
 3694POPC   GL249250  10.043   1.872   5.647
 3694POPC   C1A49251   9.667   2.176   6.096
 3694POPC   D2A49252   9.763   2.043   6.520
 3694POPC   C3A49253   9.685   2.232   6.916
 3694POPC   C4A49254   9.686   1.930   7.236
 3694POPC   C1B49255  10.132   1.898   6.108
 3694POPC   C2B49256  10.153   1.694   6.522
 3694POPC   C3B49257  10.061   1.838   6.923
 3694POPC   C4B49258  10.139   2.169   7.228
 3695POPC   NC349259   6.314  42.485   5.105
 3695POPC   PO449260   6.823  42.103   5.199
 3695POPC   GL149261   6.700  42.305   5.603
 3695POPC   GL249262   6.340  42.390   5.607
 3695POPC   C1A49263   6.788  42.411   6.065
 3695POPC   D2A49264   7.012  42.412   6.484
 3695POPC   C3A49265   6.817  42.342   6.899
 3695POPC   C4A49266   6.627  42.552   7.258
 3695POPC   C1B49267   6.374  42.112   5.963
 3695POPC   C2B49268   6.502  42.085   6.406
 3695POPC   C3B49269   6.370  42.123   6.845
 3695POPC   C4B49270   6.476  42.054   7.247
 3696POPC   NC349271  11.113  20.514   5.221
 3696POPC   PO449272  11.461  21.036   5.477
 3696POPC   GL149273  11.423  20.622   5.642
 3696POPC   GL249274  11.111  20.748   5.775
 3696POPC   C1A49275  11.430  20.414   6.047
 3696POPC   D2A49276  11.274  20.612   6.457
 3696POPC   C3A49277  11.494  20.574   6.849
 3696POPC   C4A49278  11.562  20.793   7.219
 3696POPC   C1B49279  10.869  20.907   6.154
 3696POPC   C2B49280  10.928  21.012   6.610
 3696POPC   C3B49281  11.135  21.057   7.024
 3696POPC   C4B49282  10.970  21.159   7.462
 3697POPC   NC349283   1.277  12.122   5.237
 3697POPC   PO449284   0.756  12.301   5.601
 3697POPC   GL149285   1.133  12.068   5.766
 3697POPC   GL249286   1.502  12.107   5.705
 3697POPC   C1A49287   1.254  11.940   6.185
 3697POPC   D2A49288   1.053  11.884   6.568
 3697POPC   C3A49289   1.251  11.960   6.918
 3697POPC   C4A49290   1.146  12.002   7.310
 3697POPC   C1B49291   1.543  12.347   6.094
 3697POPC   C2B49292   1.405  12.317   6.513
 3697POPC   C3B49293   1.482  12.435   6.913
 3697POPC   C4B49294   1.254  12.510   7.234
 3698POPC   NC349295  42.945   8.357   5.403
 3698POPC   PO449296  43.462   7.915   5.439
 3698POPC   GL149297  43.340   8.210   5.782
 3698POPC   GL249298  42.996   8.115   5.886
 3698POPC   C1A49299  43.423   8.216   6.254
 3698POPC   D2A49300  43.280   8.074   6.685
 3698POPC   C3A49301  43.204   8.400   6.981
 3698POPC   C4A49302  43.205   8.483   7.428
 3698POPC   C1B49303  42.893   8.185   6.339
 3698POPC   C2B49304  42.764   8.365   6.751
 3698POPC   C3B49305  42.761   8.196   7.182
 3698POPC   C4B49306  42.439   8.047   7.487
 3699POPC   NC349307  35.079  31.282   5.377
 3699POPC   PO449308  35.556  31.688   5.358
 3699POPC   GL149309  35.400  31.521   5.707
 3699POPC   GL249310  35.119  31.722   5.670
 3699POPC   C1A49311  35.417  31.246   6.055
 3699POPC   D2A49312  35.238  31.297   6.451
 3699POPC   C3A49313  35.470  31.208   6.837
 3699POPC   C4A49314  35.302  31.361   7.215
 3699POPC   C1B49315  35.044  31.633   6.077
 3699POPC   C2B49316  35.048  31.778   6.484
 3699POPC   C3B49317  35.037  31.657   6.892
 3699POPC   C4B49318  35.032  31.821   7.304
 3700POPC   NC349319  14.698  21.719   5.384
 3700POPC   PO449320  14.235  21.286   5.346
 3700POPC   GL149321  14.312  21.437   5.749
 3700POPC   GL249322  14.671  21.314   5.734
 3700POPC   C1A49323  14.123  21.603   6.154
 3700POPC   D2A49324  14.065  21.746   6.612
 3700POPC   C3A49325  14.163  21.421   6.912
 3700POPC   C4A49326  14.416  21.279   7.262
 3700POPC   C1B49327  14.646  21.548   6.111
 3700POPC   C2B49328  14.494  21.481   6.519
 3700POPC   C3B49329  14.625  21.632   6.918
 3700POPC   C4B49330  14.751  21.914   7.272
 3701POPC   NC349331  34.404  40.390   5.342
 3701POPC   PO449332  34.824  40.912   5.305
 3701POPC   GL149333  34.572  40.852   5.737
 3701POPC   GL249334  34.364  40.549   5.815
 3701POPC   C1A49335  34.382  40.912   6.193
 3701POPC   D2A49336  34.486  41.031   6.636
 3701POPC   C3A49337  34.681  40.756   6.945
 3701POPC   C4A49338  34.535  40.792   7.357
 3701POPC   C1B49339  34.491  40.403   6.202
 3701POPC   C2B49340  34.361  40.490   6.625
 3701POPC   C3B49341  34.354  40.351   7.060
 3701POPC   C4B49342  34.426  40.332   7.528
 3702POPC   NC349343   2.950  18.345   5.425
 3702POPC   PO449344   2.457  17.872   5.504
 3702POPC   GL149345   2.746  18.048   5.771
 3702POPC   GL249346   2.541  18.361   5.775
 3702POPC   C1A49347   2.890  18.312   6.127
 3702POPC   D2A49348   2.665  18.438   6.499
 3702POPC   C3A49349   2.821  18.258   6.867
 3702POPC   C4A49350   2.896  18.332   7.272
 3702POPC   C1B49351   2.440  18.074   6.163
 3702POPC   C2B49352   2.568  17.909   6.599
 3702POPC   C3B49353   2.399  18.041   7.044
 3702POPC   C4B49354   2.486  18.091   7.507
 3703POPC   NC349355  23.148  19.917   5.106
 3703POPC   PO449356  22.797  19.425   5.442
 3703POPC   GL149357  22.843  19.536   5.905
 3703POPC   GL249358  23.145  19.736   5.874
 3703POPC   C1A49359  22.926  19.578   6.360
 3703POPC   D2A49360  23.210  19.760   6.639
 3703POPC   C3A49361  23.008  19.842   7.031
 3703POPC   C4A49362  22.742  19.541   7.252
 3703POPC   C1B49363  22.959  20.043   6.172
 3703POPC   C2B49364  22.819  20.112   6.606
 3703POPC   C3B49365  22.778  20.304   7.032
 3703POPC   C4B49366  22.774  20.099   7.439
 3704POPC   NC349367  25.890  17.305   5.419
 3704POPC   PO449368  26.322  17.784   5.521
 3704POPC   GL149369  26.012  17.613   5.842
 3704POPC   GL249370  25.986  17.253   5.901
 3704POPC   C1A49371  25.888  17.532   6.297
 3704POPC   D2A49372  26.097  17.669   6.622
 3704POPC   C3A49373  25.903  17.584   6.964
 3704POPC   C4A49374  26.139  17.723   7.286
 3704POPC   C1B49375  26.123  17.052   6.272
 3704POPC   C2B49376  26.047  17.143   6.685
 3704POPC   C3B49377  25.973  17.062   7.114
 3704POPC   C4B49378  26.209  17.157   7.510
 3705POPC   NC349379   6.898   1.948   5.502
 3705POPC   PO449380   6.392   2.438   5.546
 3705POPC   GL149381   6.556   2.178   5.794
 3705POPC   GL249382   6.889   2.314   5.879
 3705POPC   C1A49383   6.566   2.034   6.168
 3705POPC   D2A49384   6.598   2.137   6.561
 3705POPC   C3A49385   6.762   1.796   6.732
 3705POPC   C4A49386   6.941   1.641   7.083
 3705POPC   C1B49387   7.119   2.290   6.287
 3705POPC   C2B49388   7.124   2.496   6.690
 3705POPC   C3B49389   6.823   2.337   6.975
 3705POPC   C4B49390   6.922   2.088   7.321
 3706POPC   NC349391  31.762   4.130   5.600
 3706POPC   PO449392  32.365   4.437   5.319
 3706POPC   GL149393  32.243   4.276   5.733
 3706POPC   GL249394  32.464   4.458   5.928
 3706POPC   C1A49395  32.092   4.215   6.187
 3706POPC   D2A49396  32.318   4.315   6.551
 3706POPC   C3A49397  32.174   4.089   6.888
 3706POPC   C4A49398  32.037   4.238   7.294
 3706POPC   C1B49399  32.734   4.531   6.295
 3706POPC   C2B49400  32.729   4.524   6.776
 3706POPC   C3B49401  32.415   4.574   7.133
 3706POPC   C4B49402  32.367   4.457   7.609
 3707POPC   NC349403  19.635   2.804   5.445
 3707POPC   PO449404  19.805   2.216   5.464
 3707POPC   GL149405  19.778   2.487   5.839
 3707POPC   GL249406  19.974   2.841   5.820
 3707POPC   C1A49407  19.846   2.637   6.271
 3707POPC   D2A49408  19.637   2.920   6.518
 3707POPC   C3A49409  19.788   2.957   6.925
 3707POPC   C4A49410  19.867   2.736   7.294
 3707POPC   C1B49411  20.111   3.078   6.186
 3707POPC   C2B49412  20.256   2.961   6.605
 3707POPC   C3B49413  20.285   2.910   7.049
 3707POPC   C4B49414  20.038   3.224   7.305
 3708POPC   NC349415  32.846   3.384   5.439
 3708POPC   PO449416  33.163   4.022   5.418
 3708POPC   GL149417  33.057   3.761   5.752
 3708POPC   GL249418  33.116   3.397   5.849
 3708POPC   C1A49419  33.186   3.827   6.172
 3708POPC   D2A49420  33.174   3.635   6.575
 3708POPC   C3A49421  33.236   3.821   6.968
 3708POPC   C4A49422  32.958   3.828   7.341
 3708POPC   C1B49423  32.849   3.437   6.181
 3708POPC   C2B49424  32.809   3.244   6.560
 3708POPC   C3B49425  32.879   3.409   6.946
 3708POPC   C4B49426  32.718   3.216   7.297
 3709POPC   NC349427  39.505  44.075   5.371
 3709POPC   PO449428  40.121  43.899   5.250
 3709POPC   GL149429  40.133  43.895   5.709
 3709POPC   GL249430  39.818  44.037   5.778
 3709POPC   C1A49431  40.245  43.966   6.166
 3709POPC   D2A49432  40.418  43.879   6.580
 3709POPC   C3A49433  40.227  43.917   6.963
 3709POPC   C4A49434  40.511  43.794   7.257
 3709POPC   C1B49435  39.726  43.901   6.181
 3709POPC   C2B49436  39.702  44.076   6.582
 3709POPC   C3B49437  39.714  43.874   6.965
 3709POPC   C4B49438  39.710  43.698   7.354
 3710POPC   NC349439  23.062  33.406   5.038
 3710POPC   PO449440  23.006  33.931   5.373
 3710POPC   GL149441  22.970  33.664   5.719
 3710POPC   GL249442  23.039  33.956   5.931
 3710POPC   C1A49443  23.193  33.500   6.102
 3710POPC   D2A49444  23.224  33.590   6.557
 3710POPC   C3A49445  22.867  33.614   6.841
 3710POPC   C4A49446  22.951  33.547   7.264
 3710POPC   C1B49447  23.090  34.258   6.282
 3710POPC   C2B49448  22.962  34.100   6.686
 3710POPC   C3B49449  23.039  34.045   7.100
 3710POPC   C4B49450  23.096  34.325   7.467
 3711POPC   NC349451   1.991  13.419   5.360
 3711POPC   PO449452   2.028  14.004   5.699
 3711POPC   GL149453   1.918  13.555   5.854
 3711POPC   GL249454   2.169  13.254   5.869
 3711POPC   C1A49455   1.949  13.461   6.301
 3711POPC   D2A49456   2.059  13.775   6.635
 3711POPC   C3A49457   1.850  13.771   7.034
 3711POPC   C4A49458   1.949  13.709   7.484
 3711POPC   C1B49459   2.318  13.075   6.259
 3711POPC   C2B49460   2.338  13.315   6.649
 3711POPC   C3B49461   2.210  13.392   7.084
 3711POPC   C4B49462   2.338  13.392   7.520
 3712POPC   NC349463  33.280  44.353   5.335
 3712POPC   PO449464  32.996  44.922   5.444
 3712POPC   GL149465  33.013  44.602   5.733
 3712POPC   GL249466  33.357  44.613   5.767
 3712POPC   C1A49467  33.091  44.666   6.191
 3712POPC   D2A49468  33.209  44.557   6.587
 3712POPC   C3A49469  33.075  44.812   6.935
 3712POPC   C4A49470  32.917  44.770   7.351
 3712POPC   C1B49471  33.476  44.329   6.087
 3712POPC   C2B49472  33.624  44.245   6.513
 3712POPC   C3B49473  33.424  44.257   6.923
 3712POPC   C4B49474  33.307  44.458   7.316
 3713POPC   NC349475   5.475  10.675   5.520
 3713POPC   PO449476   4.899  10.519   5.302
 3713POPC   GL149477   4.979  10.678   5.731
 3713POPC   GL249478   5.001  10.332   5.796
 3713POPC   C1A49479   5.295  10.675   6.120
 3713POPC   D2A49480   5.351  10.449   6.524
 3713POPC   C3A49481   5.301  10.595   6.969
 3713POPC   C4A49482   5.098  10.687   7.384
 3713POPC   C1B49483   4.848  10.445   6.227
 3713POPC   C2B49484   4.857  10.414   6.686
 3713POPC   C3B49485   4.728  10.465   7.114
 3713POPC   C4B49486   4.727  10.264   7.530
 3714POPC   NC349487   9.376  23.701   5.444
 3714POPC   PO449488   9.973  23.876   5.022
 3714POPC   GL149489   9.879  23.754   5.518
 3714POPC   GL249490   9.926  23.998   5.786
 3714POPC   C1A49491   9.835  23.514   5.965
 3714POPC   D2A49492   9.629  23.442   6.405
 3714POPC   C3A49493   9.640  23.461   6.867
 3714POPC   C4A49494   9.416  23.572   7.278
 3714POPC   C1B49495   9.663  23.915   6.211
 3714POPC   C2B49496   9.568  23.935   6.637
 3714POPC   C3B49497   9.729  23.920   7.064
 3714POPC   C4B49498   9.814  23.934   7.487
 3715POPC   NC349499  44.520  15.050   5.279
 3715POPC   PO449500  44.857  15.558   5.356
 3715POPC   GL149501  44.759  15.282   5.703
 3715POPC   GL249502  44.494  15.524   5.751
 3715POPC   C1A49503  44.713  15.135   6.170
 3715POPC   D2A49504  44.794  14.981   6.633
 3715POPC   C3A49505  44.752  15.111   7.104
 3715POPC   C4A49506  44.670  14.867   7.499
 3715POPC   C1B49507  44.384  15.523   6.192
 3715POPC   C2B49508  44.471  15.380   6.610
 3715POPC   C3B49509  44.379  15.529   7.035
 3715POPC   C4B49510  44.245  15.639   7.444
 3716POPC   NC349511  29.660  31.825   5.326
 3716POPC   PO449512  30.147  31.321   5.287
 3716POPC   GL149513  30.195  31.370   5.737
 3716POPC   GL249514  30.078  31.059   5.839
 3716POPC   C1A49515  30.004  31.440   6.171
 3716POPC   D2A49516  30.101  31.387   6.593
 3716POPC   C3A49517  29.908  31.560   6.920
 3716POPC   C4A49518  29.841  31.278   7.259
 3716POPC   C1B49519  30.341  31.058   6.239
 3716POPC   C2B49520  30.407  30.960   6.679
 3716POPC   C3B49521  30.301  31.166   7.068
 3716POPC   C4B49522  30.253  31.177   7.533
 3717POPC   NC349523  21.700  24.007   5.248
 3717POPC   PO449524  22.124  23.461   5.391
 3717POPC   GL149525  21.856  23.621   5.728
 3717POPC   GL249526  21.749  23.970   5.827
 3717POPC   C1A49527  21.969  23.662   6.172
 3717POPC   D2A49528  22.218  23.896   6.488
 3717POPC   C3A49529  22.362  23.737   6.882
 3717POPC   C4A49530  22.587  23.998   7.175
 3717POPC   C1B49531  21.946  24.176   6.161
 3717POPC   C2B49532  21.758  24.233   6.567
 3717POPC   C3B49533  21.704  24.049   6.965
 3717POPC   C4B49534  21.898  23.671   7.086
 3718POPC   NC349535  23.633  27.572   5.152
 3718POPC   PO449536  24.105  27.161   5.469
 3718POPC   GL149537  23.721  27.382   5.801
 3718POPC   GL249538  23.523  27.700   5.812
 3718POPC   C1A49539  23.812  27.621   6.210
 3718POPC   D2A49540  23.988  27.598   6.609
 3718POPC   C3A49541  23.757  27.640   6.996
 3718POPC   C4A49542  23.669  27.331   7.293
 3718POPC   C1B49543  23.426  27.957   6.200
 3718POPC   C2B49544  23.430  27.833   6.641
 3718POPC   C3B49545  23.412  28.037   7.046
 3718POPC   C4B49546  23.480  27.917   7.495
 3719POPC   NC349547  43.734  41.787   5.260
 3719POPC   PO449548  44.353  41.736   5.549
 3719POPC   GL149549  44.007  41.642   5.783
 3719POPC   GL249550  43.857  41.989   5.709
 3719POPC   C1A49551  43.891  41.380   6.177
 3719POPC   D2A49552  44.132  41.323   6.592
 3719POPC   C3A49553  43.951  41.392   7.002
 3719POPC   C4A49554  43.542  41.400   7.177
 3719POPC   C1B49555  43.686  41.879   6.112
 3719POPC   C2B49556  43.776  41.765   6.539
 3719POPC   C3B49557  43.666  41.834   6.961
 3719POPC   C4B49558  43.838  41.773   7.374
 3720POPC   NC349559  28.415  10.300   5.592
 3720POPC   PO449560  28.060   9.668   5.540
 3720POPC   GL149561  28.385   9.672   5.890
 3720POPC   GL249562  28.645   9.836   5.707
 3720POPC   C1A49563  28.355   9.412   6.256
 3720POPC   D2A49564  28.148   9.551   6.607
 3720POPC   C3A49565  28.286   9.331   6.940
 3720POPC   C4A49566  28.344   9.556   7.265
 3720POPC   C1B49567  28.694  10.033   6.124
 3720POPC   C2B49568  28.771  10.027   6.577
 3720POPC   C3B49569  28.567   9.902   6.959
 3720POPC   C4B49570  28.731   9.869   7.370
 3721POPC   NC349571  38.374   6.053   5.042
 3721POPC   PO449572  38.519   5.608   5.571
 3721POPC   GL149573  38.291   5.789   5.878
 3721POPC   GL249574  38.447   6.123   6.028
 3721POPC   C1A49575  38.375   5.674   6.283
 3721POPC   D2A49576  38.349   5.476   6.673
 3721POPC   C3A49577  38.281   5.782   6.918
 3721POPC   C4A49578  38.267   6.035   7.248
 3721POPC   C1B49579  38.769   5.965   6.376
 3721POPC   C2B49580  38.810   5.673   6.759
 3721POPC   C3B49581  38.739   5.840   7.186
 3721POPC   C4B49582  38.834   6.036   7.602
 3722POPC   NC349583   8.973  19.428   5.466
 3722POPC   PO449584   9.312  18.854   5.338
 3722POPC   GL149585   9.088  18.886   5.759
 3722POPC   GL249586   8.871  19.191   5.905
 3722POPC   C1A49587   9.145  18.898   6.213
 3722POPC   D2A49588   8.998  19.182   6.505
 3722POPC   C3A49589   9.213  19.013   6.829
 3722POPC   C4A49590   8.976  18.869   7.122
 3722POPC   C1B49591   9.238  19.424   6.116
 3722POPC   C2B49592   9.289  19.602   6.537
 3722POPC   C3B49593   9.083  19.494   6.924
 3722POPC   C4B49594   9.167  19.299   7.280
 3723POPC   NC349595  37.836   9.284   5.393
 3723POPC   PO449596  37.365   8.768   5.337
 3723POPC   GL149597  37.675   8.828   5.674
 3723POPC   GL249598  37.579   9.172   5.806
 3723POPC   C1A49599  37.677   8.615   6.096
 3723POPC   D2A49600  37.889   8.615   6.510
 3723POPC   C3A49601  37.661   8.639   6.912
 3723POPC   C4A49602  37.825   8.760   7.342
 3723POPC   C1B49603  37.873   9.085   6.134
 3723POPC   C2B49604  38.027   9.112   6.578
 3723POPC   C3B49605  37.806   9.133   6.972
 3723POPC   C4B49606  37.716   9.310   7.388
 3724POPC   NC349607   8.291   4.660   5.472
 3724POPC   PO449608   8.669   4.211   5.317
 3724POPC   GL149609   8.375   4.087   5.680
 3724POPC   GL249610   7.994   4.038   5.651
 3724POPC   C1A49611   8.311   4.322   6.090
 3724POPC   D2A49612   8.117   4.547   6.463
 3724POPC   C3A49613   8.186   4.343   6.877
 3724POPC   C4A49614   8.191   4.442   7.341
 3724POPC   C1B49615   7.826   4.190   6.075
 3724POPC   C2B49616   7.788   4.143   6.539
 3724POPC   C3B49617   7.867   3.936   6.928
 3724POPC   C4B49618   8.161   3.956   7.237
 3725POPC   NC349619   4.035  24.323   5.367
 3725POPC   PO449620   4.525  24.793   5.395
 3725POPC   GL149621   4.371  24.516   5.741
 3725POPC   GL249622   4.054  24.659   5.793
 3725POPC   C1A49623   4.284  24.337   6.168
 3725POPC   D2A49624   4.476  24.436   6.559
 3725POPC   C3A49625   4.338  24.506   6.952
 3725POPC   C4A49626   4.287  24.311   7.330
 3725POPC   C1B49627   3.867  24.640   6.188
 3725POPC   C2B49628   3.943  24.505   6.620
 3725POPC   C3B49629   3.893  24.725   7.035
 3725POPC   C4B49630   3.893  24.668   7.486
 3726POPC   NC349631  19.504   1.073   5.497
 3726POPC   PO449632  19.749   1.589   5.206
 3726POPC   GL149633  19.946   1.374   5.611
 3726POPC   GL249634  19.719   1.340   5.877
 3726POPC   C1A49635  20.138   1.267   6.097
 3726POPC   D2A49636  19.922   1.326   6.519
 3726POPC   C3A49637  20.014   1.148   6.914
 3726POPC   C4A49638  20.116   0.895   7.263
 3726POPC   C1B49639  19.601   1.605   6.237
 3726POPC   C2B49640  19.683   1.789   6.614
 3726POPC   C3B49641  19.674   1.529   6.952
 3726POPC   C4B49642  19.691   1.284   7.297
 3727POPC   NC349643  40.544  10.370   5.387
 3727POPC   PO449644  41.070  10.731   5.195
 3727POPC   GL149645  40.910  10.644   5.650
 3727POPC   GL249646  40.877  10.268   5.784
 3727POPC   C1A49647  40.768  10.658   6.104
 3727POPC   D2A49648  40.895  10.309   6.400
 3727POPC   C3A49649  40.850  10.342   6.851
 3727POPC   C4A49650  40.799  10.706   7.099
 3727POPC   C1B49651  40.500  10.236   6.080
 3727POPC   C2B49652  40.428  10.083   6.516
 3727POPC   C3B49653  40.406  10.111   6.974
 3727POPC   C4B49654  40.617  10.291   7.344
 3728POPC   NC349655  25.790   8.201   5.619
 3728POPC   PO449656  25.193   7.906   5.490
 3728POPC   GL149657  25.368   8.025   5.903
 3728POPC   GL249658  25.394   8.377   5.891
 3728POPC   C1A49659  25.253   8.197   6.353
 3728POPC   D2A49660  25.093   8.397   6.732
 3728POPC   C3A49661  25.318   8.226   7.040
 3728POPC   C4A49662  25.352   7.788   7.147
 3728POPC   C1B49663  25.695   8.416   6.242
 3728POPC   C2B49664  25.631   8.412   6.673
 3728POPC   C3B49665  25.556   8.698   7.026
 3728POPC   C4B49666  25.499   8.767   7.478
 3729POPC   NC349667  17.662  10.218   5.589
 3729POPC   PO449668  17.601   9.571   5.374
 3729POPC   GL149669  17.371   9.785   5.749
 3729POPC   GL249670  17.156   9.532   5.916
 3729POPC   C1A49671  17.255   9.991   6.181
 3729POPC   D2A49672  17.216   9.879   6.645
 3729POPC   C3A49673  17.530  10.001   6.976
 3729POPC   C4A49674  17.563  10.048   7.429
 3729POPC   C1B49675  17.482   9.523   6.203
 3729POPC   C2B49676  17.471   9.403   6.619
 3729POPC   C3B49677  17.398   9.500   7.034
 3729POPC   C4B49678  17.781   9.574   7.256
 3730POPC   NC349679  26.571  31.443   5.302
 3730POPC   PO449680  27.086  31.134   5.683
 3730POPC   GL149681  26.868  31.420   5.953
 3730POPC   GL249682  26.532  31.516   5.809
 3730POPC   C1A49683  26.895  31.435   6.428
 3730POPC   D2A49684  27.063  31.265   6.832
 3730POPC   C3A49685  27.022  31.572   7.200
 3730POPC   C4A49686  26.925  31.940   7.457
 3730POPC   C1B49687  26.385  31.272   6.184
 3730POPC   C2B49688  26.393  31.426   6.622
 3730POPC   C3B49689  26.587  31.360   7.034
 3730POPC   C4B49690  26.888  31.082   7.281
 3731POPC   NC349691  36.480  34.163   5.517
 3731POPC   PO449692  35.867  34.067   5.742
 3731POPC   GL149693  36.275  33.849   5.929
 3731POPC   GL249694  36.345  33.486   5.836
 3731POPC   C1A49695  36.297  33.605   6.340
 3731POPC   D2A49696  36.091  33.755   6.726
 3731POPC   C3A49697  36.408  33.798   7.042
 3731POPC   C4A49698  36.482  34.146   7.308
 3731POPC   C1B49699  35.977  33.353   6.059
 3731POPC   C2B49700  35.969  33.158   6.467
 3731POPC   C3B49701  36.132  33.266   6.849
 3731POPC   C4B49702  35.992  33.519   7.188
 3732POPC   NC349703   3.204   1.699   5.483
 3732POPC   PO449704   2.669   1.993   5.174
 3732POPC   GL149705   2.706   1.862   5.632
 3732POPC   GL249706   2.723   1.489   5.639
 3732POPC   C1A49707   2.802   1.989   6.079
 3732POPC   D2A49708   3.026   2.149   6.479
 3732POPC   C3A49709   2.834   2.187   6.868
 3732POPC   C4A49710   2.676   2.027   7.230
 3732POPC   C1B49711   2.882   1.490   6.054
 3732POPC   C2B49712   3.018   1.652   6.420
 3732POPC   C3B49713   2.960   1.690   6.834
 3732POPC   C4B49714   3.030   1.678   7.256
 3733POPC   NC349715  28.114  25.465   5.512
 3733POPC   PO449716  28.291  24.875   5.344
 3733POPC   GL149717  28.316  24.873   5.801
 3733POPC   GL249718  28.292  25.253   5.933
 3733POPC   C1A49719  28.161  24.876   6.229
 3733POPC   D2A49720  28.289  25.217   6.480
 3733POPC   C3A49721  28.402  25.159   6.896
 3733POPC   C4A49722  28.484  24.913   7.257
 3733POPC   C1B49723  28.560  25.552   6.179
 3733POPC   C2B49724  28.718  25.489   6.602
 3733POPC   C3B49725  28.672  25.556   7.051
 3733POPC   C4B49726  28.427  25.551   7.431
 3734POPC   NC349727  44.987  43.491   5.452
 3734POPC   PO449728  44.612  44.036   5.145
 3734POPC   GL149729  44.718  44.051   5.660
 3734POPC   GL249730   0.020  43.887   5.775
 3734POPC   C1A49731  44.686  44.053   6.134
 3734POPC   D2A49732  44.473  43.973   6.540
 3734POPC   C3A49733  44.679  43.990   6.946
 3734POPC   C4A49734  44.612  43.699   7.265
 3734POPC   C1B49735  44.969  43.611   6.169
 3734POPC   C2B49736   0.001  43.799   6.581
 3734POPC   C3B49737   0.054  43.626   6.995
 3734POPC   C4B49738   0.107  43.882   7.357
 3735POPC   NC349739  17.759  42.230   5.263
 3735POPC   PO449740  17.205  42.583   5.247
 3735POPC   GL149741  17.405  42.417   5.646
 3735POPC   GL249742  17.762  42.424   5.753
 3735POPC   C1A49743  17.379  42.273   6.092
 3735POPC   D2A49744  17.333  42.084   6.502
 3735POPC   C3A49745  17.191  42.326   6.840
 3735POPC   C4A49746  17.200  42.395   7.273
 3735POPC   C1B49747  17.852  42.408   6.200
 3735POPC   C2B49748  17.822  42.156   6.589
 3735POPC   C3B49749  17.644  42.128   7.009
 3735POPC   C4B49750  17.737  42.402   7.362
 3736POPC   NC349751  10.120  32.780   5.364
 3736POPC   PO449752   9.896  33.431   5.315
 3736POPC   GL149753   9.924  33.149   5.702
 3736POPC   GL249754  10.139  33.376   5.871
 3736POPC   C1A49755   9.672  32.950   6.085
 3736POPC   D2A49756   9.682  33.054   6.569
 3736POPC   C3A49757   9.952  32.908   6.920
 3736POPC   C4A49758   9.822  32.937   7.368
 3736POPC   C1B49759   9.897  33.378   6.237
 3736POPC   C2B49760   9.926  33.528   6.666
 3736POPC   C3B49761   9.856  33.374   7.090
 3736POPC   C4B49762   9.808  33.413   7.557
 3737POPC   NC349763   8.720  11.702   5.595
 3737POPC   PO449764   9.062  11.234   5.220
 3737POPC   GL149765   8.899  11.223   5.688
 3737POPC   GL249766   8.549  11.118   5.699
 3737POPC   C1A49767   8.826  11.338   6.173
 3737POPC   D2A49768   8.889  11.643   6.557
 3737POPC   C3A49769   8.903  11.625   7.042
 3737POPC   C4A49770   9.086  11.451   7.445
 3737POPC   C1B49771   8.628  10.856   6.074
 3737POPC   C2B49772   8.778  10.924   6.508
 3737POPC   C3B49773   8.937  11.149   6.869
 3737POPC   C4B49774   8.879  11.006   7.316
 3738POPC   NC349775  15.465  31.019   5.377
 3738POPC   PO449776  15.171  30.347   5.512
 3738POPC   GL149777  15.371  30.597   5.821
 3738POPC   GL249778  15.145  30.863   5.821
 3738POPC   C1A49779  15.406  30.635   6.294
 3738POPC   D2A49780  15.316  30.366   6.693
 3738POPC   C3A49781  15.270  30.602   7.101
 3738POPC   C4A49782  15.260  30.910   7.464
 3738POPC   C1B49783  14.917  30.793   6.230
 3738POPC   C2B49784  14.971  30.755   6.687
 3738POPC   C3B49785  14.901  30.985   7.095
 3738POPC   C4B49786  14.782  31.049   7.543
 3739POPC   NC349787  24.820  24.374   5.417
 3739POPC   PO449788  24.207  24.713   5.478
 3739POPC   GL149789  24.465  24.516   5.842
 3739POPC   GL249790  24.612  24.179   5.832
 3739POPC   C1A49791  24.515  24.488   6.316
 3739POPC   D2A49792  24.444  24.264   6.736
 3739POPC   C3A49793  24.438  24.593   7.052
 3739POPC   C4A49794  24.753  24.831   7.273
 3739POPC   C1B49795  24.942  24.329   6.103
 3739POPC   C2B49796  25.015  24.641   6.424
 3739POPC   C3B49797  24.919  24.574   6.850
 3739POPC   C4B49798  24.864  24.318   7.191
 3740POPC   NC349799  23.577  15.451   5.484
 3740POPC   PO449800  23.746  16.142   5.436
 3740POPC   GL149801  23.753  15.911   5.786
 3740POPC   GL249802  23.977  15.649   5.893
 3740POPC   C1A49803  23.806  16.112   6.154
 3740POPC   D2A49804  23.946  16.190   6.547
 3740POPC   C3A49805  23.655  16.205   6.881
 3740POPC   C4A49806  23.732  16.229   7.337
 3740POPC   C1B49807  23.885  15.637   6.332
 3740POPC   C2B49808  23.865  15.720   6.773
 3740POPC   C3B49809  23.754  15.743   7.180
 3740POPC   C4B49810  23.339  15.629   7.361
 3741POPC   NC349811   9.519  20.922   5.404
 3741POPC   PO449812   9.890  20.389   5.474
 3741POPC   GL149813   9.829  20.704   5.811
 3741POPC   GL249814   9.471  20.724   5.869
 3741POPC   C1A49815   9.868  20.678   6.277
 3741POPC   D2A49816   9.745  20.495   6.683
 3741POPC   C3A49817   9.751  20.762   7.057
 3741POPC   C4A49818   9.708  20.550   7.439
 3741POPC   C1B49819   9.375  21.015   6.197
 3741POPC   C2B49820   9.508  20.966   6.618
 3741POPC   C3B49821   9.296  21.058   6.999
 3741POPC   C4B49822   9.579  21.249   7.263
 3742POPC   NC349823  34.711  43.326   5.429
 3742POPC   PO449824  34.285  42.961   5.160
 3742POPC   GL149825  34.532  42.897   5.630
 3742POPC   GL249826  34.304  42.844   5.931
 3742POPC   C1A49827  34.715  43.112   6.059
 3742POPC   D2A49828  34.727  43.271   6.515
 3742POPC   C3A49829  34.667  43.145   6.962
 3742POPC   C4A49830  34.944  43.029   7.292
 3742POPC   C1B49831  34.408  42.844   6.384
 3742POPC   C2B49832  34.200  43.037   6.748
 3742POPC   C3B49833  34.101  42.988   7.208
 3742POPC   C4B49834  34.131  42.827   7.669
 3743POPC   NC349835  40.151  39.755   5.401
 3743POPC   PO449836  39.881  40.405   5.332
 3743POPC   GL149837  39.966  40.113   5.702
 3743POPC   GL249838  39.659  39.943   5.728
 3743POPC   C1A49839  40.107  39.966   6.117
 3743POPC   D2A49840  40.269  40.120   6.531
 3743POPC   C3A49841  40.052  40.211   6.930
 3743POPC   C4A49842  40.198  39.956   7.302
 3743POPC   C1B49843  39.639  39.748   6.134
 3743POPC   C2B49844  39.810  39.851   6.547
 3743POPC   C3B49845  39.873  39.748   6.985
 3743POPC   C4B49846  39.693  40.012   7.318
 3744POPC   NC349847  24.456  27.965   5.165
 3744POPC   PO449848  24.717  28.535   5.445
 3744POPC   GL149849  24.532  28.387   5.814
 3744POPC   GL249850  24.161  28.431   5.748
 3744POPC   C1A49851  24.602  28.276   6.273
 3744POPC   D2A49852  24.751  28.225   6.716
 3744POPC   C3A49853  24.379  28.249   6.995
 3744POPC   C4A49854  24.304  28.137   7.435
 3744POPC   C1B49855  24.260  28.651   6.157
 3744POPC   C2B49856  24.423  28.667   6.635
 3744POPC   C3B49857  24.388  28.724   7.113
 3744POPC   C4B49858  24.054  28.611   7.438
 3745POPC   NC349859  43.774  20.938   4.828
 3745POPC   PO449860  43.997  21.283   5.406
 3745POPC   GL149861  44.023  21.499   5.780
 3745POPC   GL249862  44.090  21.228   5.933
 3745POPC   C1A49863  43.816  21.539   6.207
 3745POPC   D2A49864  43.893  21.617   6.658
 3745POPC   C3A49865  43.690  21.312   6.937
 3745POPC   C4A49866  43.472  21.306   7.354
 3745POPC   C1B49867  44.268  21.295   6.338
 3745POPC   C2B49868  44.410  21.381   6.748
 3745POPC   C3B49869  44.159  21.487   7.085
 3745POPC   C4B49870  43.982  21.174   7.317
 3746POPC   NC349871  22.441  31.297   5.460
 3746POPC   PO449872  22.119  31.887   5.682
 3746POPC   GL149873  22.107  31.484   5.930
 3746POPC   GL249874  22.395  31.251   5.943
 3746POPC   C1A49875  22.129  31.297   6.360
 3746POPC   D2A49876  22.021  31.320   6.753
 3746POPC   C3A49877  21.962  31.698   6.947
 3746POPC   C4A49878  21.954  31.673   7.349
 3746POPC   C1B49879  22.565  31.533   6.267
 3746POPC   C2B49880  22.457  31.604   6.741
 3746POPC   C3B49881  22.360  31.385   7.155
 3746POPC   C4B49882  22.340  31.121   7.544
 3747POPC   NC349883  34.639  35.986   5.455
 3747POPC   PO449884  34.669  36.618   5.174
 3747POPC   GL149885  34.605  36.569   5.731
 3747POPC   GL249886  34.646  36.230   5.917
 3747POPC   C1A49887  34.278  36.506   6.104
 3747POPC   D2A49888  34.160  36.165   6.401
 3747POPC   C3A49889  34.420  36.162   6.785
 3747POPC   C4A49890  34.320  36.190   7.218
 3747POPC   C1B49891  34.821  36.034   6.325
 3747POPC   C2B49892  34.856  35.860   6.769
 3747POPC   C3B49893  34.835  36.001   7.223
 3747POPC   C4B49894  34.830  35.828   7.658
 3748POPC   NC349895  39.809  11.596   5.384
 3748POPC   PO449896  40.305  11.206   5.496
 3748POPC   GL149897  39.985  11.311   5.802
 3748POPC   GL249898  39.901  11.014   5.994
 3748POPC   C1A49899  40.008  11.525   6.212
 3748POPC   D2A49900  40.229  11.423   6.620
 3748POPC   C3A49901  39.954  11.301   6.949
 3748POPC   C4A49902  39.900  11.477   7.361
 3748POPC   C1B49903  39.894  11.065   6.426
 3748POPC   C2B49904  39.587  10.992   6.729
 3748POPC   C3B49905  39.801  10.801   7.047
 3748POPC   C4B49906  39.969  10.945   7.411
 3749POPC   NC349907   8.809  39.593   5.410
 3749POPC   PO449908   9.384  39.252   5.271
 3749POPC   GL149909   9.152  39.281   5.663
 3749POPC   GL249910   9.236  39.622   5.772
 3749POPC   C1A49911   9.222  39.159   6.103
 3749POPC   D2A49912   9.020  38.994   6.478
 3749POPC   C3A49913   9.153  39.078   6.877
 3749POPC   C4A49914   8.887  39.364   7.124
 3749POPC   C1B49915   9.071  39.649   6.201
 3749POPC   C2B49916   8.995  39.528   6.627
 3749POPC   C3B49917   9.149  39.770   6.970
 3749POPC   C4B49918   9.230  39.677   7.384
 3750POPC   NC349919  19.261  15.653   5.538
 3750POPC   PO449920  19.937  15.662   5.382
 3750POPC   GL149921  19.704  15.864   5.747
 3750POPC   GL249922  19.522  16.187   5.720
 3750POPC   C1A49923  19.711  15.830   6.219
 3750POPC   D2A49924  20.006  16.009   6.587
 3750POPC   C3A49925  20.007  15.882   7.052
 3750POPC   C4A49926  19.669  15.687   7.281
 3750POPC   C1B49927  19.519  16.293   6.172
 3750POPC   C2B49928  19.502  16.113   6.592
 3750POPC   C3B49929  19.689  16.261   6.936
 3750POPC   C4B49930  19.591  16.278   7.311
 3751POPC   NC349931  11.284  30.944   5.360
 3751POPC   PO449932  10.932  30.434   5.114
 3751POPC   GL149933  11.312  30.467   5.522
 3751POPC   GL249934  11.685  30.457   5.633
 3751POPC   C1A49935  11.387  30.701   5.964
 3751POPC   D2A49936  11.279  30.754   6.415
 3751POPC   C3A49937  11.348  30.667   6.857
 3751POPC   C4A49938  11.134  30.602   7.286
 3751POPC   C1B49939  11.750  30.371   6.104
 3751POPC   C2B49940  11.639  30.340   6.562
 3751POPC   C3B49941  11.766  30.352   7.019
 3751POPC   C4B49942  11.635  30.757   7.257
 3752POPC   NC349943  19.666  21.610   5.354
 3752POPC   PO449944  19.791  20.951   5.415
 3752POPC   GL149945  19.710  21.279   5.769
 3752POPC   GL249946  19.936  21.624   5.790
 3752POPC   C1A49947  19.896  21.323   6.209
 3752POPC   D2A49948  20.017  21.506   6.621
 3752POPC   C3A49949  19.790  21.316   6.970
 3752POPC   C4A49950  19.698  21.149   7.401
 3752POPC   C1B49951  19.560  21.680   6.066
 3752POPC   C2B49952  19.492  21.645   6.501
 3752POPC   C3B49953  19.636  21.808   6.904
 3752POPC   C4B49954  19.493  21.621   7.267
 3753POPC   NC349955  42.576  12.761   5.394
 3753POPC   PO449956  41.863  12.869   5.418
 3753POPC   GL149957  42.173  12.820   5.730
 3753POPC   GL249958  42.171  13.156   5.756
 3753POPC   C1A49959  42.488  12.858   6.077
 3753POPC   D2A49960  42.554  13.070   6.476
 3753POPC   C3A49961  42.479  12.846   6.855
 3753POPC   C4A49962  42.497  12.940   7.280
 3753POPC   C1B49963  42.095  13.190   6.187
 3753POPC   C2B49964  42.052  13.052   6.616
 3753POPC   C3B49965  42.190  13.266   6.990
 3753POPC   C4B49966  42.148  13.266   7.456
 3754POPC   NC349967  39.574  27.664   5.591
 3754POPC   PO449968  38.909  27.832   5.344
 3754POPC   GL149969  38.859  27.683   5.790
 3754POPC   GL249970  39.145  27.523   5.822
 3754POPC   C1A49971  39.024  27.653   6.269
 3754POPC   D2A49972  39.288  27.696   6.638
 3754POPC   C3A49973  39.078  27.537   6.996
 3754POPC   C4A49974  38.942  27.534   7.435
 3754POPC   C1B49975  39.470  27.389   6.159
 3754POPC   C2B49976  39.689  27.305   6.539
 3754POPC   C3B49977  39.538  27.322   6.937
 3754POPC   C4B49978  39.452  27.494   7.347
 3755POPC   NC349979  14.419  26.257   5.464
 3755POPC   PO449980  14.532  26.910   5.184
 3755POPC   GL149981  14.520  26.798   5.604
 3755POPC   GL249982  14.664  26.513   5.811
 3755POPC   C1A49983  14.478  26.923   6.015
 3755POPC   D2A49984  14.472  26.982   6.473
 3755POPC   C3A49985  14.549  26.875   6.901
 3755POPC   C4A49986  14.386  26.972   7.299
 3755POPC   C1B49987  14.784  26.614   6.251
 3755POPC   C2B49988  14.676  26.467   6.638
 3755POPC   C3B49989  14.821  26.414   7.019
 3755POPC   C4B49990  14.764  26.641   7.329
 3756POPC   NC349991  44.222  25.794   5.324
 3756POPC   PO449992  43.639  26.128   5.395
 3756POPC   GL149993  43.979  26.062   5.695
 3756POPC   GL249994  43.769  25.812   5.794
 3756POPC   C1A49995  44.122  25.935   6.129
 3756POPC   D2A49996  43.873  25.933   6.511
 3756POPC   C3A49997  44.041  26.021   6.903
 3756POPC   C4A49998  43.834  26.080   7.292
 3756POPC   C1B49999  43.510  25.804   6.153
 3756POPC   C2B50000  43.401  25.708   6.553
 3756POPC   C3B50001  43.495  25.931   6.906
 3756POPC   C4B50002  43.455  25.686   7.247
 3757POPC   NC350003   8.471  15.261   5.411
 3757POPC   PO450004   9.133  14.968   5.456
 3757POPC   GL150005   9.079  15.241   5.785
 3757POPC   GL250006   8.751  15.134   5.826
 3757POPC   C1A50007   9.097  15.317   6.232
 3757POPC   D2A50008   8.830  15.075   6.526
 3757POPC   C3A50009   9.029  15.001   6.921
 3757POPC   C4A50010   9.191  15.215   7.273
 3757POPC   C1B50011   8.609  15.477   6.078
 3757POPC   C2B50012   8.530  15.563   6.525
 3757POPC   C3B50013   8.740  15.446   6.906
 3757POPC   C4B50014   8.665  15.189   7.268
 3758POPC   NC350015   4.224  36.570   5.440
 3758POPC   PO450016   3.780  36.220   5.504
 3758POPC   GL150017   4.094  36.322   5.879
 3758POPC   GL250018   4.474  36.408   5.860
 3758POPC   C1A50019   4.211  36.446   6.326
 3758POPC   D2A50020   4.362  36.552   6.751
 3758POPC   C3A50021   4.241  36.332   7.161
 3758POPC   C4A50022   4.102  35.935   7.406
 3758POPC   C1B50023   4.738  36.290   6.227
 3758POPC   C2B50024   4.847  36.438   6.648
 3758POPC   C3B50025   4.796  36.431   7.096
 3758POPC   C4B50026   4.639  36.478   7.527
 3759POPC   NC350027  26.433   3.597   5.438
 3759POPC   PO450028  25.831   3.246   5.402
 3759POPC   GL150029  25.986   3.526   5.722
 3759POPC   GL250030  26.268   3.408   5.903
 3759POPC   C1A50031  25.822   3.635   6.113
 3759POPC   D2A50032  25.912   3.330   6.463
 3759POPC   C3A50033  25.955   3.302   6.899
 3759POPC   C4A50034  25.971   3.145   7.325
 3759POPC   C1B50035  26.288   3.651   6.303
 3759POPC   C2B50036  26.095   3.770   6.710
 3759POPC   C3B50037  26.006   3.724   7.175
 3759POPC   C4B50038  26.209   3.568   7.533
 3760POPC   NC350039   4.982  33.763   5.501
 3760POPC   PO450040   5.603  33.777   5.440
 3760POPC   GL150041   5.383  33.777   5.894
 3760POPC   GL250042   5.083  34.010   5.944
 3760POPC   C1A50043   5.210  33.752   6.369
 3760POPC   D2A50044   5.029  33.963   6.769
 3760POPC   C3A50045   5.301  33.881   7.115
 3760POPC   C4A50046   5.446  33.497   7.142
 3760POPC   C1B50047   4.722  33.780   6.156
 3760POPC   C2B50048   4.713  33.512   6.536
 3760POPC   C3B50049   4.964  33.466   6.924
 3760POPC   C4B50050   4.876  33.636   7.326
 3761POPC   NC350051  20.093  32.756   5.119
 3761POPC   PO450052  19.856  33.316   5.441
 3761POPC   GL150053  20.013  33.113   5.831
 3761POPC   GL250054  19.665  33.142   5.971
 3761POPC   C1A50055  19.986  32.805   6.168
 3761POPC   D2A50056  19.902  32.890   6.560
 3761POPC   C3A50057  20.185  32.804   6.872
 3761POPC   C4A50058  20.098  32.875   7.291
 3761POPC   C1B50059  19.481  32.832   6.267
 3761POPC   C2B50060  19.479  32.634   6.695
 3761POPC   C3B50061  19.674  32.872   7.025
 3761POPC   C4B50062  19.552  33.308   7.130
 3762POPC   NC350063  44.503   6.901   5.662
 3762POPC   PO450064  44.266   6.244   5.357
 3762POPC   GL150065  44.150   6.478   5.728
 3762POPC   GL250066  44.206   6.178   5.898
 3762POPC   C1A50067  43.928   6.571   6.167
 3762POPC   D2A50068  43.647   6.565   6.578
 3762POPC   C3A50069  43.723   6.792   7.016
 3762POPC   C4A50070  43.899   6.671   7.439
 3762POPC   C1B50071  44.012   6.059   6.244
 3762POPC   C2B50072  44.075   6.275   6.624
 3762POPC   C3B50073  43.966   6.358   7.055
 3762POPC   C4B50074  43.927   6.141   7.455
 3763POPC   NC350075   2.254  43.755   5.468
 3763POPC   PO450076   1.702  44.048   5.381
 3763POPC   GL150077   1.894  43.959   5.775
 3763POPC   GL250078   2.001  43.641   5.909
 3763POPC   C1A50079   1.963  44.137   6.188
 3763POPC   D2A50080   1.801  44.255   6.606
 3763POPC   C3A50081   1.984  44.014   6.889
 3763POPC   C4A50082   2.112  43.992   7.289
 3763POPC   C1B50083   2.238  43.517   6.267
 3763POPC   C2B50084   2.281  43.676   6.670
 3763POPC   C3B50085   2.436  43.662   7.070
 3763POPC   C4B50086   2.521  43.277   7.258
 3764POPC   NC350087  17.799  39.332   5.439
 3764POPC   PO450088  17.358  38.705   5.458
 3764POPC   GL150089  17.274  38.923   5.842
 3764POPC   GL250090  17.445  39.209   5.782
 3764POPC   C1A50091  17.225  39.164   6.238
 3764POPC   D2A50092  17.069  39.418   6.566
 3764POPC   C3A50093  17.276  39.351   6.965
 3764POPC   C4A50094  17.463  38.940   7.109
 3764POPC   C1B50095  17.670  39.409   6.109
 3764POPC   C2B50096  17.628  39.378   6.546
 3764POPC   C3B50097  17.875  39.290   6.911
 3764POPC   C4B50098  17.694  39.361   7.300
 3765POPC   NC350099  41.128   1.413   5.217
 3765POPC   PO450100  40.660   0.961   5.489
 3765POPC   GL150101  40.787   0.993   5.915
 3765POPC   GL250102  41.134   0.857   5.983
 3765POPC   C1A50103  40.524   1.148   6.295
 3765POPC   D2A50104  40.310   1.157   6.707
 3765POPC   C3A50105  40.608   1.179   7.054
 3765POPC   C4A50106  40.662   1.434   7.411
 3765POPC   C1B50107  41.058   1.190   6.283
 3765POPC   C2B50108  40.934   1.336   6.675
 3765POPC   C3B50109  41.061   1.403   7.093
 3765POPC   C4B50110  41.013   1.065   7.423
 3766POPC   NC350111  22.009   4.732   5.694
 3766POPC   PO450112  21.841   4.082   5.571
 3766POPC   GL150113  22.140   4.214   5.855
 3766POPC   GL250114  22.474   4.290   5.685
 3766POPC   C1A50115  22.068   4.393   6.264
 3766POPC   D2A50116  22.053   4.187   6.656
 3766POPC   C3A50117  21.916   4.357   7.025
 3766POPC   C4A50118  21.572   4.577   7.106
 3766POPC   C1B50119  22.577   4.204   6.130
 3766POPC   C2B50120  22.493   4.475   6.504
 3766POPC   C3B50121  22.629   4.486   6.884
 3766POPC   C4B50122  22.364   4.553   7.199
 3767POPC   NC350123   7.677  26.489   5.403
 3767POPC   PO450124   7.212  26.989   5.219
 3767POPC   GL150125   7.287  26.821   5.657
 3767POPC   GL250126   7.147  27.124   5.791
 3767POPC   C1A50127   7.404  26.749   6.120
 3767POPC   D2A50128   7.500  27.020   6.524
 3767POPC   C3A50129   7.457  27.008   6.972
 3767POPC   C4A50130   7.651  26.680   7.233
 3767POPC   C1B50131   7.051  27.088   6.240
 3767POPC   C2B50132   7.029  27.225   6.662
 3767POPC   C3B50133   6.962  27.124   7.077
 3767POPC   C4B50134   6.893  26.994   7.509
 3768POPC   NC350135  41.096  13.704   5.461
 3768POPC   PO450136  40.390  13.693   5.514
 3768POPC   GL150137  40.721  13.676   5.827
 3768POPC   GL250138  40.874  13.331   5.761
 3768POPC   C1A50139  40.853  13.729   6.267
 3768POPC   D2A50140  40.710  13.458   6.618
 3768POPC   C3A50141  40.663  13.639   7.024
 3768POPC   C4A50142  40.802  14.017   7.245
 3768POPC   C1B50143  41.099  13.284   6.156
 3768POPC   C2B50144  41.220  13.475   6.549
 3768POPC   C3B50145  41.123  13.382   6.966
 3768POPC   C4B50146  40.906  13.378   7.392
 3769POPC   NC350147  21.689  39.810   5.394
 3769POPC   PO450148  22.313  39.927   5.314
 3769POPC   GL150149  22.104  40.091   5.676
 3769POPC   GL250150  22.371  40.337   5.810
 3769POPC   C1A50151  22.017  40.160   6.107
 3769POPC   D2A50152  22.080  40.307   6.504
 3769POPC   C3A50153  21.993  40.033   6.824
 3769POPC   C4A50154  22.020  40.111   7.243
 3769POPC   C1B50155  22.543  40.268   6.232
 3769POPC   C2B50156  22.461  39.975   6.588
 3769POPC   C3B50157  22.422  39.820   7.003
 3769POPC   C4B50158  22.632  39.493   7.164
 3770POPC   NC350159   7.982  10.923   5.443
 3770POPC   PO450160   8.271  11.527   5.549
 3770POPC   GL150161   8.005  11.300   5.811
 3770POPC   GL250162   8.114  10.976   5.928
 3770POPC   C1A50163   7.855  11.446   6.201
 3770POPC   D2A50164   7.829  11.691   6.577
 3770POPC   C3A50165   7.973  11.485   6.950
 3770POPC   C4A50166   8.144  11.590   7.335
 3770POPC   C1B50167   8.323  11.233   6.218
 3770POPC   C2B50168   8.357  11.214   6.640
 3770POPC   C3B50169   8.469  11.284   7.047
 3770POPC   C4B50170   8.356  10.964   7.288
 3771POPC   NC350171   6.956  34.686   5.469
 3771POPC   PO450172   6.276  34.453   5.526
 3771POPC   GL150173   6.598  34.560   5.851
 3771POPC   GL250174   6.889  34.373   5.864
 3771POPC   C1A50175   6.867  34.751   6.210
 3771POPC   D2A50176   7.125  34.696   6.594
 3771POPC   C3A50177   6.913  34.612   6.972
 3771POPC   C4A50178   6.566  34.824   7.178
 3771POPC   C1B50179   6.801  34.231   6.289
 3771POPC   C2B50180   6.740  34.171   6.728
 3771POPC   C3B50181   6.492  34.319   7.101
 3771POPC   C4B50182   6.744  34.406   7.416
 3772POPC   NC350183  44.128  30.136   5.352
 3772POPC   PO450184  43.803  30.759   5.360
 3772POPC   GL150185  43.737  30.801   5.753
 3772POPC   GL250186  43.456  30.989   5.654
 3772POPC   C1A50187  43.893  30.891   6.177
 3772POPC   D2A50188  43.975  30.655   6.558
 3772POPC   C3A50189  43.757  30.760   6.900
 3772POPC   C4A50190  43.775  30.643   7.295
 3772POPC   C1B50191  43.401  31.008   6.082
 3772POPC   C2B50192  43.428  30.776   6.471
 3772POPC   C3B50193  43.263  30.904   6.879
 3772POPC   C4B50194  43.497  31.064   7.244
 3773POPC   NC350195   3.682   9.354   5.204
 3773POPC   PO450196   4.107   8.874   5.482
 3773POPC   GL150197   3.706   8.975   5.731
 3773POPC   GL250198   3.943   9.051   5.960
 3773POPC   C1A50199   3.543   9.039   6.216
 3773POPC   D2A50200   3.791   9.069   6.593
 3773POPC   C3A50201   3.506   9.138   6.923
 3773POPC   C4A50202   3.332   8.871   7.203
 3773POPC   C1B50203   3.923   8.667   6.223
 3773POPC   C2B50204   3.714   8.527   6.603
 3773POPC   C3B50205   3.756   8.690   7.005
 3773POPC   C4B50206   3.753   8.722   7.460
 3774POPC   NC350207  23.894  18.504   5.454
 3774POPC   PO450208  23.713  17.942   5.051
 3774POPC   GL150209  23.609  18.013   5.593
 3774POPC   GL250210  23.530  18.352   5.782
 3774POPC   C1A50211  23.556  17.925   6.096
 3774POPC   D2A50212  23.380  18.064   6.533
 3774POPC   C3A50213  23.617  18.148   6.939
 3774POPC   C4A50214  23.858  18.066   7.341
 3774POPC   C1B50215  23.626  18.466   6.249
 3774POPC   C2B50216  23.628  18.615   6.728
 3774POPC   C3B50217  23.841  18.635   7.163
 3774POPC   C4B50218  23.837  18.491   7.615
 3775POPC   NC350219  25.993  28.033   5.473
 3775POPC   PO450220  26.449  27.554   5.329
 3775POPC   GL150221  26.192  27.540   5.717
 3775POPC   GL250222  26.053  27.812   5.927
 3775POPC   C1A50223  26.150  27.355   6.129
 3775POPC   D2A50224  25.981  27.141   6.471
 3775POPC   C3A50225  25.978  27.377   6.837
 3775POPC   C4A50226  26.195  27.389   7.213
 3775POPC   C1B50227  26.357  27.818   6.245
 3775POPC   C2B50228  26.314  27.721   6.669
 3775POPC   C3B50229  26.094  27.874   7.007
 3775POPC   C4B50230  25.834  27.733   7.325
 3776POPC   NC350231  24.367  39.767   5.522
 3776POPC   PO450232  24.955  39.957   5.218
 3776POPC   GL150233  24.689  40.109   5.696
 3776POPC   GL250234  24.396  40.319   5.706
 3776POPC   C1A50235  24.537  40.005   6.135
 3776POPC   D2A50236  24.595  40.093   6.567
 3776POPC   C3A50237  24.490  39.793   6.860
 3776POPC   C4A50238  24.268  39.824   7.229
 3776POPC   C1B50239  24.115  40.311   6.077
 3776POPC   C2B50240  24.173  40.409   6.510
 3776POPC   C3B50241  24.230  40.239   6.915
 3776POPC   C4B50242  24.420  40.327   7.323
 3777POPC   NC350243   2.109  44.724   5.270
 3777POPC   PO450244   1.833  44.957   5.778
 3777POPC   GL150245   1.919  44.594   5.929
 3777POPC   GL250246   2.119  44.419   5.721
 3777POPC   C1A50247   1.953  44.667   6.353
 3777POPC   D2A50248   1.852  44.988   6.600
 3777POPC   C3A50249   1.943  44.738   6.905
 3777POPC   C4A50250   1.774  44.404   7.124
 3777POPC   C1B50251   2.370  44.478   6.148
 3777POPC   C2B50252   2.309  44.405   6.649
 3777POPC   C3B50253   2.290  44.463   7.134
 3777POPC   C4B50254   2.351  44.699   7.562
 3778POPC   NC350255  42.341  35.242   5.203
 3778POPC   PO450256  42.399  35.806   5.645
 3778POPC   GL150257  42.430  35.519   5.919
 3778POPC   GL250258  42.398  35.205   5.735
 3778POPC   C1A50259  42.361  35.523   6.360
 3778POPC   D2A50260  42.152  35.327   6.673
 3778POPC   C3A50261  42.365  35.481   7.038
 3778POPC   C4A50262  42.223  35.409   7.449
 3778POPC   C1B50263  42.267  35.083   6.153
 3778POPC   C2B50264  42.507  34.991   6.553
 3778POPC   C3B50265  42.403  34.970   7.000
 3778POPC   C4B50266  41.991  35.089   7.122
 3779POPC   NC350267  15.141  26.179   5.245
 3779POPC   PO450268  15.628  25.787   5.344
 3779POPC   GL150269  15.399  26.051   5.671
 3779POPC   GL250270  15.010  26.112   5.715
 3779POPC   C1A50271  15.301  25.977   6.102
 3779POPC   D2A50272  15.212  25.771   6.483
 3779POPC   C3A50273  15.414  25.993   6.793
 3779POPC   C4A50274  15.221  26.124   7.181
 3779POPC   C1B50275  14.819  26.132   6.095
 3779POPC   C2B50276  14.691  26.011   6.450
 3779POPC   C3B50277  14.883  25.951   6.822
 3779POPC   C4B50278  14.765  25.928   7.234
 3780POPC   NC350279  30.540  19.075   5.305
 3780POPC   PO450280  30.894  19.672   5.403
 3780POPC   GL150281  30.829  19.286   5.736
 3780POPC   GL250282  30.792  18.890   5.733
 3780POPC   C1A50283  30.470  19.145   6.039
 3780POPC   D2A50284  30.229  19.212   6.425
 3780POPC   C3A50285  30.347  18.977   6.802
 3780POPC   C4A50286  30.358  19.160   7.231
 3780POPC   C1B50287  30.574  18.635   6.099
 3780POPC   C2B50288  30.436  18.529   6.544
 3780POPC   C3B50289  30.578  18.538   6.987
 3780POPC   C4B50290  30.614  18.747   7.404
 3781POPC   NC350291  15.960  31.713   4.854
 3781POPC   PO450292  15.815  31.347   5.389
 3781POPC   GL150293  15.830  31.232   5.859
 3781POPC   GL250294  15.571  31.064   6.011
 3781POPC   C1A50295  15.995  31.323   6.303
 3781POPC   D2A50296  16.222  31.493   6.673
 3781POPC   C3A50297  16.164  31.580   7.119
 3781POPC   C4A50298  16.166  31.572   7.591
 3781POPC   C1B50299  15.571  31.132   6.502
 3781POPC   C2B50300  15.713  31.424   6.852
 3781POPC   C3B50301  15.709  31.430   7.318
 3781POPC   C4B50302  15.602  31.242   7.748
 3782POPC   NC350303  27.496  33.022   5.222
 3782POPC   PO450304  28.079  32.780   5.442
 3782POPC   GL150305  27.781  33.079   5.695
 3782POPC   GL250306  27.382  33.110   5.720
 3782POPC   C1A50307  27.693  33.051   6.166
 3782POPC   D2A50308  27.772  32.842   6.591
 3782POPC   C3A50309  27.892  33.158   6.861
 3782POPC   C4A50310  27.867  33.286   7.266
 3782POPC   C1B50311  27.241  32.783   6.051
 3782POPC   C2B50312  27.266  32.750   6.523
 3782POPC   C3B50313  27.366  33.124   6.825
 3782POPC   C4B50314  27.341  33.273   7.258
 3783POPC   NC350315  33.901  27.540   5.212
 3783POPC   PO450316  33.462  27.317   5.648
 3783POPC   GL150317  33.756  27.551   5.890
 3783POPC   GL250318  34.100  27.607   5.775
 3783POPC   C1A50319  33.758  27.521   6.346
 3783POPC   D2A50320  33.743  27.278   6.726
 3783POPC   C3A50321  33.844  27.486   7.102
 3783POPC   C4A50322  33.660  27.918   7.103
 3783POPC   C1B50323  34.147  27.835   6.194
 3783POPC   C2B50324  34.313  27.821   6.631
 3783POPC   C3B50325  34.221  27.847   7.102
 3783POPC   C4B50326  34.283  27.553   7.436
 3784POPC   NC350327   3.482  14.967   5.129
 3784POPC   PO450328   3.706  15.491   5.402
 3784POPC   GL150329   3.466  15.276   5.736
 3784POPC   GL250330   3.416  14.924   5.698
 3784POPC   C1A50331   3.484  15.351   6.196
 3784POPC   D2A50332   3.731  15.470   6.584
 3784POPC   C3A50333   3.568  15.386   7.016
 3784POPC   C4A50334   3.351  15.430   7.445
 3784POPC   C1B50335   3.550  14.826   6.109
 3784POPC   C2B50336   3.570  14.959   6.552
 3784POPC   C3B50337   3.469  14.879   6.990
 3784POPC   C4B50338   3.601  15.022   7.391
 3785POPC   NC350339  32.734   8.960   5.122
 3785POPC   PO450340  33.171   8.848   5.640
 3785POPC   GL150341  33.038   8.797   6.027
 3785POPC   GL250342  32.707   8.640   5.980
 3785POPC   C1A50343  32.829   9.042   6.358
 3785POPC   D2A50344  32.964   9.361   6.603
 3785POPC   C3A50345  33.042   9.115   6.918
 3785POPC   C4A50346  33.113   9.243   7.290
 3785POPC   C1B50347  32.873   8.508   6.392
 3785POPC   C2B50348  32.761   8.469   6.812
 3785POPC   C3B50349  32.890   8.640   7.176
 3785POPC   C4B50350  33.316   8.795   7.246
 3786POPC   NC350351  24.429  36.849   5.245
 3786POPC   PO450352  24.747  37.410   5.176
 3786POPC   GL150353  24.649  37.083   5.629
 3786POPC   GL250354  24.433  36.782   5.770
 3786POPC   C1A50355  24.741  37.020   6.110
 3786POPC   D2A50356  24.660  36.727   6.463
 3786POPC   C3A50357  24.708  36.888   6.895
 3786POPC   C4A50358  24.593  36.988   7.342
 3786POPC   C1B50359  24.217  36.894   6.213
 3786POPC   C2B50360  24.182  36.871   6.714
 3786POPC   C3B50361  24.102  36.957   7.186
 3786POPC   C4B50362  24.064  37.056   7.660
 3787POPC   NC350363  39.267   4.184   5.533
 3787POPC   PO450364  39.349   4.737   5.711
 3787POPC   GL150365  39.114   4.461   5.959
 3787POPC   GL250366  39.395   4.303   6.060
 3787POPC   C1A50367  39.022   4.338   6.418
 3787POPC   D2A50368  39.218   4.320   6.857
 3787POPC   C3A50369  39.103   3.989   7.136
 3787POPC   C4A50370  39.283   3.650   7.406
 3787POPC   C1B50371  39.411   4.697   6.348
 3787POPC   C2B50372  39.540   4.770   6.794
 3787POPC   C3B50373  39.561   4.555   7.204
 3787POPC   C4B50374  39.540   4.136   7.346
 3788POPC   NC350375  23.108  24.359   5.422
 3788POPC   PO450376  22.654  24.830   5.644
 3788POPC   GL150377  22.892  24.608   5.914
 3788POPC   GL250378  23.283  24.571   5.851
 3788POPC   C1A50379  22.744  24.651   6.336
 3788POPC   D2A50380  22.686  24.340   6.653
 3788POPC   C3A50381  22.653  24.520   7.037
 3788POPC   C4A50382  22.722  24.394   7.439
 3788POPC   C1B50383  23.253  24.650   6.296
 3788POPC   C2B50384  23.077  24.693   6.727
 3788POPC   C3B50385  23.145  24.636   7.165
 3788POPC   C4B50386  23.471  24.782   7.418
 3789POPC   NC350387   3.561   1.018   5.422
 3789POPC   PO450388   3.789   1.591   5.517
 3789POPC   GL150389   3.815   1.253   5.833
 3789POPC   GL250390   3.480   1.088   5.911
 3789POPC   C1A50391   3.869   1.233   6.283
 3789POPC   D2A50392   3.852   1.446   6.695
 3789POPC   C3A50393   3.812   1.154   7.056
 3789POPC   C4A50394   3.548   0.825   7.205
 3789POPC   C1B50395   3.407   1.424   6.176
 3789POPC   C2B50396   3.339   1.305   6.611
 3789POPC   C3B50397   3.409   1.462   7.005
 3789POPC   C4B50398   3.392   1.284   7.361
 3790POPC   NC350399  13.877   7.231   5.343
 3790POPC   PO450400  13.504   7.793   5.243
 3790POPC   GL150401  13.673   7.572   5.760
 3790POPC   GL250402  13.361   7.526   6.004
 3790POPC   C1A50403  13.712   7.255   6.180
 3790POPC   D2A50404  13.834   7.358   6.610
 3790POPC   C3A50405  13.725   7.246   7.006
 3790POPC   C4A50406  13.548   7.471   7.301
 3790POPC   C1B50407  13.489   7.718   6.394
 3790POPC   C2B50408  13.369   7.644   6.839
 3790POPC   C3B50409  13.070   7.510   7.176
 3790POPC   C4B50410  13.167   7.536   7.626
 3791POPC   NC350411  23.185  12.732   5.347
 3791POPC   PO450412  22.600  12.423   5.563
 3791POPC   GL150413  22.785  12.750   5.902
 3791POPC   GL250414  23.050  12.925   6.065
 3791POPC   C1A50415  22.652  12.724   6.323
 3791POPC   D2A50416  23.001  12.694   6.594
 3791POPC   C3A50417  22.926  12.640   7.023
 3791POPC   C4A50418  22.802  12.595   7.428
 3791POPC   C1B50419  22.726  13.209   6.246
 3791POPC   C2B50420  22.647  13.072   6.693
 3791POPC   C3B50421  22.879  13.137   7.016
 3791POPC   C4B50422  22.860  13.108   7.411
 3792POPC   NC350423  36.174  20.116   5.391
 3792POPC   PO450424  36.229  19.374   5.337
 3792POPC   GL150425  36.249  19.699   5.645
 3792POPC   GL250426  35.905  19.741   5.716
 3792POPC   C1A50427  36.253  19.817   6.090
 3792POPC   D2A50428  36.171  20.015   6.514
 3792POPC   C3A50429  36.185  19.721   6.898
 3792POPC   C4A50430  36.191  19.684   7.364
 3792POPC   C1B50431  35.700  19.771   6.150
 3792POPC   C2B50432  35.697  19.692   6.626
 3792POPC   C3B50433  35.732  19.859   7.074
 3792POPC   C4B50434  35.687  19.629   7.461
 3793POPC   NC350435   9.292  38.071   5.393
 3793POPC   PO450436   9.824  37.628   5.404
 3793POPC   GL150437   9.633  37.589   5.795
 3793POPC   GL250438   9.523  37.933   5.845
 3793POPC   C1A50439   9.807  37.434   6.199
 3793POPC   D2A50440   9.819  37.493   6.641
 3793POPC   C3A50441   9.862  37.363   7.017
 3793POPC   C4A50442   9.538  37.540   7.272
 3793POPC   C1B50443   9.802  37.953   6.201
 3793POPC   C2B50444   9.998  37.996   6.621
 3793POPC   C3B50445   9.869  37.869   7.009
 3793POPC   C4B50446   9.491  38.058   7.167
 3794POPC   NC350447   4.740  15.839   5.635
 3794POPC   PO450448   5.399  15.779   5.640
 3794POPC   GL150449   5.172  15.991   5.910
 3794POPC   GL250450   5.021  16.287   5.775
 3794POPC   C1A50451   5.065  15.872   6.295
 3794POPC   D2A50452   5.115  16.140   6.606
 3794POPC   C3A50453   5.201  15.925   6.960
 3794POPC   C4A50454   5.132  16.059   7.358
 3794POPC   C1B50455   4.765  16.268   6.176
 3794POPC   C2B50456   4.646  16.393   6.586
 3794POPC   C3B50457   4.776  16.245   6.993
 3794POPC   C4B50458   4.631  16.143   7.416
 3795POPC   NC350459  36.490  34.889   5.216
 3795POPC   PO450460  36.890  34.396   5.480
 3795POPC   GL150461  36.883  34.224   5.868
 3795POPC   GL250462  36.577  34.309   6.016
 3795POPC   C1A50463  37.141  34.268   6.226
 3795POPC   D2A50464  37.287  34.628   6.471
 3795POPC   C3A50465  37.108  34.573   6.859
 3795POPC   C4A50466  37.168  34.639   7.284
 3795POPC   C1B50467  36.725  34.564   6.381
 3795POPC   C2B50468  36.622  34.765   6.793
 3795POPC   C3B50469  36.639  34.650   7.228
 3795POPC   C4B50470  36.462  34.708   7.663
 3796POPC   NC350471  10.526  31.098   5.462
 3796POPC   PO450472  10.814  30.439   5.627
 3796POPC   GL150473  10.408  30.607   5.735
 3796POPC   GL250474  10.313  30.246   5.807
 3796POPC   C1A50475  10.394  30.896   6.111
 3796POPC   D2A50476  10.234  30.777   6.531
 3796POPC   C3A50477  10.409  30.913   6.901
 3796POPC   C4A50478  10.630  30.760   7.255
 3796POPC   C1B50479  10.033  30.312   6.194
 3796POPC   C2B50480   9.938  30.364   6.644
 3796POPC   C3B50481  10.239  30.436   6.972
 3796POPC   C4B50482  10.223  30.477   7.426
 3797POPC   NC350483  41.793  20.676   5.319
 3797POPC   PO450484  42.228  20.976   5.558
 3797POPC   GL150485  41.956  20.669   5.821
 3797POPC   GL250486  42.247  20.624   6.029
 3797POPC   C1A50487  41.681  20.583   6.253
 3797POPC   D2A50488  41.502  20.508   6.714
 3797POPC   C3A50489  41.516  20.550   7.206
 3797POPC   C4A50490  41.489  20.297   7.597
 3797POPC   C1B50491  42.002  20.968   6.212
 3797POPC   C2B50492  41.863  20.964   6.628
 3797POPC   C3B50493  41.947  20.729   7.016
 3797POPC   C4B50494  41.884  20.861   7.455
 3798POPC   NC350495  37.758  24.701   5.409
 3798POPC   PO450496  37.262  24.269   5.565
 3798POPC   GL150497  37.576  24.470   5.826
 3798POPC   GL250498  37.670  24.834   5.881
 3798POPC   C1A50499  37.796  24.374   6.185
 3798POPC   D2A50500  37.478  24.404   6.525
 3798POPC   C3A50501  37.588  24.383   6.954
 3798POPC   C4A50502  37.894  24.237   7.259
 3798POPC   C1B50503  37.861  24.863   6.286
 3798POPC   C2B50504  37.838  24.795   6.718
 3798POPC   C3B50505  37.844  24.785   7.157
 3798POPC   C4B50506  37.573  24.558   7.457
 3799POPC   NC350507  25.819  15.599   5.622
 3799POPC   PO450508  26.103  16.045   5.154
 3799POPC   GL150509  26.068  16.054   5.605
 3799POPC   GL250510  26.329  15.795   5.711
 3799POPC   C1A50511  25.955  16.131   6.070
 3799POPC   D2A50512  26.104  16.097   6.532
 3799POPC   C3A50513  25.917  16.122   6.972
 3799POPC   C4A50514  26.124  16.151   7.392
 3799POPC   C1B50515  26.438  15.529   6.081
 3799POPC   C2B50516  26.394  15.566   6.535
 3799POPC   C3B50517  26.192  15.704   6.891
 3799POPC   C4B50518  26.292  15.687   7.305
 3800POPC   NC350519  43.522  17.194   5.534
 3800POPC   PO450520  42.886  17.052   5.639
 3800POPC   GL150521  43.213  17.262   5.964
 3800POPC   GL250522  43.407  17.583   5.889
 3800POPC   C1A50523  43.384  17.255   6.405
 3800POPC   D2A50524  43.490  17.177   6.847
 3800POPC   C3A50525  43.292  17.501   7.123
 3800POPC   C4A50526  43.307  17.842   7.435
 3800POPC   C1B50527  43.269  17.762   6.315
 3800POPC   C2B50528  43.114  17.838   6.769
 3800POPC   C3B50529  42.859  17.801   7.171
 3800POPC   C4B50530  42.837  17.955   7.606
 3801POPC   NC350531   2.008  17.783   5.664
 3801POPC   PO450532   1.690  17.305   5.203
 3801POPC   GL150533   1.844  17.280   5.732
 3801POPC   GL250534   1.807  17.509   6.061
 3801POPC   C1A50535   2.145  17.169   6.122
 3801POPC   D2A50536   1.966  17.260   6.531
 3801POPC   C3A50537   2.216  17.200   6.907
 3801POPC   C4A50538   2.049  17.185   7.332
 3801POPC   C1B50539   2.087  17.742   6.346
 3801POPC   C2B50540   2.146  17.687   6.779
 3801POPC   C3B50541   1.818  17.500   6.986
 3801POPC   C4B50542   1.597  17.789   7.198
 3802POPC   NC350543   8.254  42.521   5.303
 3802POPC   PO450544   8.485  41.980   5.552
 3802POPC   GL150545   8.299  42.309   5.796
 3802POPC   GL250546   7.937  42.303   5.831
 3802POPC   C1A50547   8.450  42.525   6.184
 3802POPC   D2A50548   8.290  42.550   6.619
 3802POPC   C3A50549   8.337  42.384   7.069
 3802POPC   C4A50550   7.957  42.475   7.332
 3802POPC   C1B50551   7.972  42.341   6.258
 3802POPC   C2B50552   7.978  42.063   6.588
 3802POPC   C3B50553   7.930  42.083   6.995
 3802POPC   C4B50554   8.099  41.986   7.378
 3803POPC   NC350555  11.396   0.854   5.615
 3803POPC   PO450556  11.140   1.417   5.296
 3803POPC   GL150557  11.302   1.375   5.673
 3803POPC   GL250558  11.651   1.293   5.687
 3803POPC   C1A50559  11.136   1.404   6.075
 3803POPC   D2A50560  11.253   1.153   6.418
 3803POPC   C3A50561  11.144   1.216   6.835
 3803POPC   C4A50562  11.114   1.071   7.250
 3803POPC   C1B50563  11.856   1.235   6.102
 3803POPC   C2B50564  11.727   1.247   6.546
 3803POPC   C3B50565  11.621   1.122   6.937
 3803POPC   C4B50566  11.523   0.761   7.110
 3804POPC   NC350567  14.650   2.497   5.416
 3804POPC   PO450568  13.932   2.808   5.269
 3804POPC   GL150569  14.251   2.844   5.602
 3804POPC   GL250570  14.001   2.843   5.868
 3804POPC   C1A50571  14.477   2.831   6.037
 3804POPC   D2A50572  14.706   2.733   6.416
 3804POPC   C3A50573  14.581   2.859   6.835
 3804POPC   C4A50574  14.703   3.050   7.206
 3804POPC   C1B50575  14.023   2.598   6.251
 3804POPC   C2B50576  13.796   2.488   6.598
 3804POPC   C3B50577  13.877   2.669   7.004
 3804POPC   C4B50578  14.210   2.904   7.188
 3805POPC   NC350579  37.517  30.488   5.370
 3805POPC   PO450580  37.784  31.103   5.492
 3805POPC   GL150581  37.714  30.771   5.731
 3805POPC   GL250582  37.980  30.563   5.657
 3805POPC   C1A50583  37.650  30.628   6.126
 3805POPC   D2A50584  37.852  30.663   6.512
 3805POPC   C3A50585  37.635  30.853   6.858
 3805POPC   C4A50586  37.435  30.560   7.116
 3805POPC   C1B50587  38.147  30.752   6.054
 3805POPC   C2B50588  38.172  31.041   6.415
 3805POPC   C3B50589  38.153  30.933   6.862
 3805POPC   C4B50590  37.925  30.716   7.240
 3806POPC   NC350591  35.352   1.589   5.325
 3806POPC   PO450592  35.150   1.024   5.586
 3806POPC   GL150593  35.363   1.266   5.866
 3806POPC   GL250594  35.600   1.477   5.774
 3806POPC   C1A50595  35.242   1.321   6.289
 3806POPC   D2A50596  35.063   0.946   6.489
 3806POPC   C3A50597  35.166   0.849   6.917
 3806POPC   C4A50598  35.355   1.065   7.260
 3806POPC   C1B50599  35.676   1.613   6.205
 3806POPC   C2B50600  35.593   1.499   6.647
 3806POPC   C3B50601  35.393   1.546   7.059
 3806POPC   C4B50602  35.667   1.438   7.412
 3807POPC   NC350603  37.616  40.259   5.562
 3807POPC   PO450604  38.077  39.590   5.468
 3807POPC   GL150605  37.806  39.842   5.839
 3807POPC   GL250606  37.906  40.225   5.976
 3807POPC   C1A50607  37.673  39.898   6.270
 3807POPC   D2A50608  37.872  40.191   6.554
 3807POPC   C3A50609  37.833  40.043   6.973
 3807POPC   C4A50610  37.539  39.734   7.095
 3807POPC   C1B50611  37.515  40.392   6.223
 3807POPC   C2B50612  37.347  40.248   6.650
 3807POPC   C3B50613  37.372  40.228   7.100
 3807POPC   C4B50614  37.638  40.309   7.457
 3808POPC   NC350615  18.124   2.092   5.485
 3808POPC   PO450616  18.487   1.595   5.795
 3808POPC   GL150617  18.332   1.961   5.934
 3808POPC   GL250618  18.499   2.248   5.810
 3808POPC   C1A50619  17.964   2.080   6.178
 3808POPC   D2A50620  17.856   1.928   6.583
 3808POPC   C3A50621  18.185   1.946   6.884
 3808POPC   C4A50622  18.121   1.971   7.306
 3808POPC   C1B50623  18.406   2.356   6.247
 3808POPC   C2B50624  18.094   2.399   6.598
 3808POPC   C3B50625  18.187   2.432   7.053
 3808POPC   C4B50626  18.565   2.240   7.189
 3809POPC   NC350627  16.994  39.877   5.426
 3809POPC   PO450628  16.516  40.230   5.161
 3809POPC   GL150629  16.539  40.110   5.686
 3809POPC   GL250630  16.797  39.885   5.874
 3809POPC   C1A50631  16.416  39.993   6.167
 3809POPC   D2A50632  16.505  40.173   6.596
 3809POPC   C3A50633  16.470  39.993   7.014
 3809POPC   C4A50634  16.605  40.043   7.458
 3809POPC   C1B50635  16.918  40.023   6.303
 3809POPC   C2B50636  16.890  39.863   6.714
 3809POPC   C3B50637  16.903  39.761   7.128
 3809POPC   C4B50638  16.994  39.761   7.593
 3810POPC   NC350639  28.134  44.089   5.616
 3810POPC   PO450640  28.578  43.755   5.231
 3810POPC   GL150641  28.386  43.643   5.674
 3810POPC   GL250642  28.674  43.594   5.860
 3810POPC   C1A50643  28.201  43.721   6.141
 3810POPC   D2A50644  28.375  43.967   6.521
 3810POPC   C3A50645  28.130  43.986   6.892
 3810POPC   C4A50646  27.983  43.693   7.179
 3810POPC   C1B50647  28.629  43.528   6.307
 3810POPC   C2B50648  28.809  43.697   6.669
 3810POPC   C3B50649  28.583  43.755   7.013
 3810POPC   C4B50650  28.652  43.942   7.387
 3811POPC   NC350651  20.983  32.555   5.410
 3811POPC   PO450652  21.509  32.147   5.346
 3811POPC   GL150653  21.295  32.279   5.732
 3811POPC   GL250654  21.411  32.627   5.727
 3811POPC   C1A50655  21.180  32.095   6.151
 3811POPC   D2A50656  21.216  32.194   6.591
 3811POPC   C3A50657  21.312  31.889   6.862
 3811POPC   C4A50658  21.502  31.962   7.241
 3811POPC   C1B50659  21.273  32.590   6.167
 3811POPC   C2B50660  21.425  32.653   6.586
 3811POPC   C3B50661  21.427  32.511   7.011
 3811POPC   C4B50662  21.391  32.460   7.442
 3812POPC   NC350663  10.219  36.055   5.394
 3812POPC   PO450664  10.871  36.326   5.392
 3812POPC   GL150665  10.606  36.163   5.762
 3812POPC   GL250666  10.892  36.167   5.923
 3812POPC   C1A50667  10.508  36.189   6.253
 3812POPC   D2A50668  10.540  36.081   6.706
 3812POPC   C3A50669  10.367  36.347   7.035
 3812POPC   C4A50670  10.344  36.286   7.486
 3812POPC   C1B50671  10.831  35.797   6.166
 3812POPC   C2B50672  10.806  35.637   6.552
 3812POPC   C3B50673  10.930  35.819   6.911
 3812POPC   C4B50674  10.672  35.970   7.234
 3813POPC   NC350675  34.384  30.567   5.450
 3813POPC   PO450676  34.888  30.874   5.388
 3813POPC   GL150677  34.720  30.802   5.787
 3813POPC   GL250678  34.426  31.002   5.746
 3813POPC   C1A50679  34.639  30.558   6.175
 3813POPC   D2A50680  34.821  30.465   6.584
 3813POPC   C3A50681  34.642  30.676   6.940
 3813POPC   C4A50682  34.296  30.535   7.159
 3813POPC   C1B50683  34.281  30.933   6.168
 3813POPC   C2B50684  34.304  30.775   6.573
 3813POPC   C3B50685  34.246  31.025   6.931
 3813POPC   C4B50686  34.222  31.383   7.195
 3814POPC   NC350687  43.682   8.326   5.404
 3814POPC   PO450688  44.202   8.021   5.154
 3814POPC   GL150689  44.112   8.171   5.620
 3814POPC   GL250690  44.278   8.448   5.801
 3814POPC   C1A50691  43.880   8.032   6.013
 3814POPC   D2A50692  43.910   8.037   6.492
 3814POPC   C3A50693  43.698   8.377   6.748
 3814POPC   C4A50694  43.642   8.374   7.198
 3814POPC   C1B50695  44.098   8.454   6.195
 3814POPC   C2B50696  44.197   8.474   6.621
 3814POPC   C3B50697  44.143   8.218   6.978
 3814POPC   C4B50698  44.431   8.182   7.298
 3815POPC   NC350699   3.508  28.217   5.299
 3815POPC   PO450700   3.960  28.669   5.499
 3815POPC   GL150701   3.541  28.461   5.740
 3815POPC   GL250702   3.210  28.634   5.770
 3815POPC   C1A50703   3.471  28.069   6.005
 3815POPC   D2A50704   3.587  28.005   6.431
 3815POPC   C3A50705   3.513  28.135   6.848
 3815POPC   C4A50706   3.692  28.159   7.223
 3815POPC   C1B50707   3.421  28.692   6.191
 3815POPC   C2B50708   3.323  28.526   6.605
 3815POPC   C3B50709   3.459  28.642   7.033
 3815POPC   C4B50710   3.589  28.579   7.467
 3816POPC   NC350711   7.867  37.126   5.419
 3816POPC   PO450712   7.661  36.424   5.160
 3816POPC   GL150713   7.491  36.774   5.545
 3816POPC   GL250714   7.138  36.867   5.698
 3816POPC   C1A50715   7.541  36.946   6.017
 3816POPC   D2A50716   7.542  37.159   6.434
 3816POPC   C3A50717   7.634  36.947   6.845
 3816POPC   C4A50718   7.456  37.106   7.233
 3816POPC   C1B50719   7.040  37.018   6.156
 3816POPC   C2B50720   7.085  36.965   6.644
 3816POPC   C3B50721   6.966  36.974   7.102
 3816POPC   C4B50722   7.112  36.844   7.541
 3817POPC   NC350723  39.406  13.962   5.397
 3817POPC   PO450724  39.065  13.428   5.599
 3817POPC   GL150725  39.106  13.809   5.810
 3817POPC   GL250726  39.432  13.966   5.888
 3817POPC   C1A50727  39.018  13.676   6.223
 3817POPC   D2A50728  38.707  13.456   6.462
 3817POPC   C3A50729  38.918  13.563   6.831
 3817POPC   C4A50730  39.131  13.701   7.226
 3817POPC   C1B50731  39.292  14.099   6.252
 3817POPC   C2B50732  39.240  13.919   6.659
 3817POPC   C3B50733  39.286  14.163   7.023
 3817POPC   C4B50734  39.155  14.330   7.399
 3818POPC   NC350735  41.626  12.536   5.609
 3818POPC   PO450736  41.317  13.213   5.495
 3818POPC   GL150737  41.370  12.937   5.807
 3818POPC   GL250738  41.709  12.916   5.942
 3818POPC   C1A50739  41.255  12.793   6.203
 3818POPC   D2A50740  41.438  13.011   6.553
 3818POPC   C3A50741  41.301  12.902   6.950
 3818POPC   C4A50742  41.351  13.060   7.320
 3818POPC   C1B50743  41.755  12.661   6.338
 3818POPC   C2B50744  41.747  12.687   6.796
 3818POPC   C3B50745  41.932  12.853   7.152
 3818POPC   C4B50746  41.763  12.599   7.427
 3819POPC   NC350747  27.357  13.363   4.822
 3819POPC   PO450748  27.624  13.846   5.197
 3819POPC   GL150749  27.687  13.897   5.675
 3819POPC   GL250750  27.382  14.039   5.643
 3819POPC   C1A50751  27.721  13.643   6.114
 3819POPC   D2A50752  27.930  13.435   6.499
 3819POPC   C3A50753  27.782  13.591   6.874
 3819POPC   C4A50754  27.647  13.624   7.283
 3819POPC   C1B50755  27.318  13.984   6.068
 3819POPC   C2B50756  27.440  13.911   6.510
 3819POPC   C3B50757  27.478  14.017   6.947
 3819POPC   C4B50758  27.187  13.890   7.252
 3820POPC   NC350759  25.069  37.868   5.663
 3820POPC   PO450760  25.692  37.552   5.471
 3820POPC   GL150761  25.497  37.678   5.845
 3820POPC   GL250762  25.212  37.455   5.918
 3820POPC   C1A50763  25.383  37.798   6.282
 3820POPC   D2A50764  25.073  37.816   6.609
 3820POPC   C3A50765  25.259  37.724   6.972
 3820POPC   C4A50766  25.494  37.724   7.325
 3820POPC   C1B50767  25.088  37.354   6.323
 3820POPC   C2B50768  24.937  37.350   6.781
 3820POPC   C3B50769  24.809  37.564   7.187
 3820POPC   C4B50770  24.847  37.363   7.572
 3821POPC   NC350771  30.203  36.265   5.624
 3821POPC   PO450772  29.961  35.799   5.237
 3821POPC   GL150773  30.014  35.808   5.768
 3821POPC   GL250774  29.826  36.071   5.896
 3821POPC   C1A50775  30.004  35.873   6.297
 3821POPC   D2A50776  29.738  35.983   6.657
 3821POPC   C3A50777  29.845  36.144   7.044
 3821POPC   C4A50778  30.138  35.961   7.293
 3821POPC   C1B50779  29.779  36.362   6.236
 3821POPC   C2B50780  29.976  36.438   6.620
 3821POPC   C3B50781  30.157  36.561   6.998
 3821POPC   C4B50782  30.304  36.445   7.428
 3822POPC   NC350783   3.843  19.049   5.542
 3822POPC   PO450784   3.356  18.606   5.369
 3822POPC   GL150785   3.349  18.962   5.683
 3822POPC   GL250786   3.464  18.757   5.940
 3822POPC   C1A50787   3.277  19.207   6.083
 3822POPC   D2A50788   3.299  18.941   6.455
 3822POPC   C3A50789   3.488  18.969   6.870
 3822POPC   C4A50790   3.400  19.230   7.235
 3822POPC   C1B50791   3.745  19.026   6.180
 3822POPC   C2B50792   3.925  19.056   6.558
 3822POPC   C3B50793   3.982  18.983   6.963
 3822POPC   C4B50794   3.824  18.984   7.396
 3823POPC   NC350795  34.078  28.893   5.489
 3823POPC   PO450796  33.349  29.335   5.465
 3823POPC   GL150797  33.670  29.283   5.881
 3823POPC   GL250798  33.831  28.957   5.967
 3823POPC   C1A50799  33.907  29.355   6.288
 3823POPC   D2A50800  34.173  29.248   6.648
 3823POPC   C3A50801  33.934  29.012   6.945
 3823POPC   C4A50802  33.670  29.273   7.191
 3823POPC   C1B50803  33.491  29.029   6.286
 3823POPC   C2B50804  33.451  29.063   6.715
 3823POPC   C3B50805  33.343  28.819   7.052
 3823POPC   C4B50806  33.184  29.170   7.192
 3824POPC   NC350807  25.074  25.662   5.477
 3824POPC   PO450808  25.561  25.281   5.502
 3824POPC   GL150809  25.311  25.304   5.873
 3824POPC   GL250810  24.957  25.386   5.893
 3824POPC   C1A50811  25.342  25.407   6.303
 3824POPC   D2A50812  25.440  25.155   6.657
 3824POPC   C3A50813  25.513  25.426   6.994
 3824POPC   C4A50814  25.297  25.575   7.351
 3824POPC   C1B50815  24.901  25.142   6.299
 3824POPC   C2B50816  24.847  25.079   6.749
 3824POPC   C3B50817  25.127  25.117   7.093
 3824POPC   C4B50818  25.046  25.131   7.559
 3825POPC   NC350819  37.499  28.025   5.568
 3825POPC   PO450820  37.983  27.642   5.208
 3825POPC   GL150821  37.938  27.785   5.626
 3825POPC   GL250822  37.676  27.576   5.784
 3825POPC   C1A50823  38.009  27.931   6.056
 3825POPC   D2A50824  38.115  27.722   6.477
 3825POPC   C3A50825  37.860  27.707   6.854
 3825POPC   C4A50826  37.779  27.495   7.244
 3825POPC   C1B50827  37.576  27.717   6.225
 3825POPC   C2B50828  37.423  27.836   6.630
 3825POPC   C3B50829  37.333  27.735   7.068
 3825POPC   C4B50830  36.941  27.906   7.261
 3826POPC   NC350831   6.478  20.160   5.495
 3826POPC   PO450832   6.892  19.673   5.732
 3826POPC   GL150833   6.541  19.843   5.879
 3826POPC   GL250834   6.311  19.648   5.766
 3826POPC   C1A50835   6.534  19.990   6.271
 3826POPC   D2A50836   6.844  20.010   6.585
 3826POPC   C3A50837   6.690  20.053   6.992
 3826POPC   C4A50838   6.795  19.790   7.330
 3826POPC   C1B50839   6.407  19.489   6.205
 3826POPC   C2B50840   6.328  19.662   6.626
 3826POPC   C3B50841   6.434  19.464   6.991
 3826POPC   C4B50842   6.177  19.226   7.243
 3827POPC   NC350843  22.527  32.159   5.646
 3827POPC   PO450844  23.219  32.391   5.373
 3827POPC   GL150845  23.162  32.514   5.792
 3827POPC   GL250846  22.995  32.224   5.810
 3827POPC   C1A50847  23.265  32.336   6.215
 3827POPC   D2A50848  23.146  32.108   6.565
 3827POPC   C3A50849  23.230  32.257   6.969
 3827POPC   C4A50850  23.231  31.978   7.306
 3827POPC   C1B50851  22.882  31.953   6.136
 3827POPC   C2B50852  22.624  32.015   6.477
 3827POPC   C3B50853  22.767  32.005   6.897
 3827POPC   C4B50854  22.804  32.250   7.256
 3828POPC   NC350855  14.702  28.119   5.381
 3828POPC   PO450856  14.249  28.564   5.048
 3828POPC   GL150857  14.298  28.611   5.554
 3828POPC   GL250858  14.664  28.574   5.695
 3828POPC   C1A50859  14.244  28.582   6.032
 3828POPC   D2A50860  14.420  28.672   6.454
 3828POPC   C3A50861  14.256  28.816   6.846
 3828POPC   C4A50862  14.315  28.619   7.255
 3828POPC   C1B50863  14.702  28.284   6.070
 3828POPC   C2B50864  14.436  28.156   6.423
 3828POPC   C3B50865  14.399  28.284   6.861
 3828POPC   C4B50866  14.230  28.017   7.191
 3829POPC   NC350867   3.116  19.009   5.230
 3829POPC   PO450868   2.609  18.698   5.314
 3829POPC   GL150869   2.615  18.891   5.740
 3829POPC   GL250870   2.405  19.222   5.753
 3829POPC   C1A50871   2.867  18.852   6.145
 3829POPC   D2A50872   2.739  18.951   6.582
 3829POPC   C3A50873   2.994  19.069   6.929
 3829POPC   C4A50874   3.026  18.841   7.318
 3829POPC   C1B50875   2.439  19.173   6.219
 3829POPC   C2B50876   2.451  19.382   6.649
 3829POPC   C3B50877   2.515  19.205   7.045
 3829POPC   C4B50878   2.486  19.136   7.509
 3830POPC   NC350879   2.257  42.148   5.548
 3830POPC   PO450880   2.883  42.049   5.451
 3830POPC   GL150881   2.756  42.249   5.829
 3830POPC   GL250882   2.514  42.005   5.975
 3830POPC   C1A50883   2.915  42.244   6.260
 3830POPC   D2A50884   2.755  42.115   6.662
 3830POPC   C3A50885   2.910  42.338   7.016
 3830POPC   C4A50886   2.809  42.453   7.480
 3830POPC   C1B50887   2.402  42.372   6.243
 3830POPC   C2B50888   2.325  42.405   6.691
 3830POPC   C3B50889   2.411  42.319   7.142
 3830POPC   C4B50890   2.320  42.305   7.591
 3831POPC   NC350891   3.570  44.286   5.457
 3831POPC   PO450892   3.355  44.969   5.429
 3831POPC   GL150893   3.488  44.746   5.786
 3831POPC   GL250894   3.467  44.425   5.930
 3831POPC   C1A50895   3.378  44.883   6.178
 3831POPC   D2A50896   3.576  44.823   6.560
 3831POPC   C3A50897   3.340  44.895   6.960
 3831POPC   C4A50898   3.639  44.810   7.289
 3831POPC   C1B50899   3.842  44.357   6.198
 3831POPC   C2B50900   3.985  44.347   6.636
 3831POPC   C3B50901   3.642  44.450   6.922
 3831POPC   C4B50902   3.185  44.407   7.047
 3832POPC   NC350903  24.927  12.201   5.416
 3832POPC   PO450904  25.456  11.747   5.478
 3832POPC   GL150905  25.314  12.083   5.769
 3832POPC   GL250906  24.990  11.989   5.878
 3832POPC   C1A50907  25.297  12.287   6.192
 3832POPC   D2A50908  25.546  12.173   6.576
 3832POPC   C3A50909  25.672  12.342   6.991
 3832POPC   C4A50910  25.543  12.228   7.427
 3832POPC   C1B50911  24.789  12.133   6.249
 3832POPC   C2B50912  25.007  12.190   6.631
 3832POPC   C3B50913  25.204  12.119   7.028
 3832POPC   C4B50914  25.229  11.826   7.372
 3833POPC   NC350915  13.017  16.133   5.365
 3833POPC   PO450916  12.428  15.792   5.387
 3833POPC   GL150917  12.676  15.936   5.751
 3833POPC   GL250918  12.715  15.632   5.983
 3833POPC   C1A50919  12.844  16.087   6.170
 3833POPC   D2A50920  12.566  16.111   6.537
 3833POPC   C3A50921  12.711  16.308   6.898
 3833POPC   C4A50922  13.059  16.186   7.156
 3833POPC   C1B50923  12.785  15.640   6.451
 3833POPC   C2B50924  12.880  15.783   6.859
 3833POPC   C3B50925  12.878  15.573   7.285
 3833POPC   C4B50926  12.777  15.335   7.696
 3834POPC   NC350927  28.709  13.226   5.489
 3834POPC   PO450928  29.185  13.004   5.039
 3834POPC   GL150929  29.199  12.979   5.576
 3834POPC   GL250930  29.417  13.199   5.751
 3834POPC   C1A50931  29.056  12.825   6.051
 3834POPC   D2A50932  29.157  12.600   6.508
 3834POPC   C3A50933  29.077  12.640   7.004
 3834POPC   C4A50934  29.183  12.665   7.467
 3834POPC   C1B50935  29.468  13.092   6.179
 3834POPC   C2B50936  29.149  13.119   6.484
 3834POPC   C3B50937  29.262  13.097   6.909
 3834POPC   C4B50938  29.279  13.200   7.329
 3835POPC   NC350939  30.204   4.733   5.487
 3835POPC   PO450940  29.747   4.276   5.263
 3835POPC   GL150941  29.673   4.250   5.721
 3835POPC   GL250942  29.784   4.593   5.802
 3835POPC   C1A50943  29.761   4.234   6.175
 3835POPC   D2A50944  29.737   4.498   6.561
 3835POPC   C3A50945  29.622   4.283   6.969
 3835POPC   C4A50946  29.798   4.040   7.345
 3835POPC   C1B50947  30.123   4.600   6.179
 3835POPC   C2B50948  30.249   4.387   6.607
 3835POPC   C3B50949  30.123   4.416   7.063
 3835POPC   C4B50950  30.010   4.471   7.521
 3836POPC   NC350951  28.478  36.368   5.457
 3836POPC   PO450952  27.893  35.942   5.478
 3836POPC   GL150953  27.981  36.051   5.888
 3836POPC   GL250954  28.191  36.353   5.877
 3836POPC   C1A50955  28.209  36.069   6.295
 3836POPC   D2A50956  28.598  36.071   6.532
 3836POPC   C3A50957  28.469  36.160   6.932
 3836POPC   C4A50958  28.299  35.986   7.300
 3836POPC   C1B50959  28.569  36.455   6.138
 3836POPC   C2B50960  28.789  36.570   6.528
 3836POPC   C3B50961  28.856  36.487   6.967
 3836POPC   C4B50962  28.560  36.494   7.322
 3837POPC   NC350963   4.685  39.698   5.479
 3837POPC   PO450964   4.162  39.361   5.489
 3837POPC   GL150965   4.545  39.235   5.724
 3837POPC   GL250966   4.379  39.073   6.001
 3837POPC   C1A50967   4.747  39.447   6.102
 3837POPC   D2A50968   4.710  39.598   6.543
 3837POPC   C3A50969   4.595  39.308   6.883
 3837POPC   C4A50970   4.367  39.275   7.261
 3837POPC   C1B50971   4.083  39.105   6.378
 3837POPC   C2B50972   4.146  39.061   6.834
 3837POPC   C3B50973   4.315  38.767   7.162
 3837POPC   C4B50974   4.317  38.870   7.625
 3838POPC   NC350975  17.866  16.624   5.073
 3838POPC   PO450976  17.313  16.830   5.418
 3838POPC   GL150977  17.621  16.708   5.753
 3838POPC   GL250978  17.904  16.477   5.667
 3838POPC   C1A50979  17.697  16.868   6.200
 3838POPC   D2A50980  17.508  16.912   6.618
 3838POPC   C3A50981  17.629  17.099   7.003
 3838POPC   C4A50982  17.482  16.972   7.398
 3838POPC   C1B50983  17.766  16.351   6.105
 3838POPC   C2B50984  17.671  16.432   6.536
 3838POPC   C3B50985  17.750  16.587   6.956
 3838POPC   C4B50986  18.166  16.553   7.100
 3839POPC   NC350987  36.869  16.674   5.375
 3839POPC   PO450988  36.948  17.331   5.448
 3839POPC   GL150989  36.866  16.997   5.785
 3839POPC   GL250990  37.163  16.791   5.788
 3839POPC   C1A50991  36.793  16.667   6.157
 3839POPC   D2A50992  36.814  16.713   6.633
 3839POPC   C3A50993  36.810  16.428   7.039
 3839POPC   C4A50994  37.080  16.401   7.442
 3839POPC   C1B50995  37.196  16.977   6.210
 3839POPC   C2B50996  37.287  16.951   6.665
 3839POPC   C3B50997  37.060  16.870   7.057
 3839POPC   C4B50998  36.690  17.083   7.173
 3840POPC   NC350999  22.422  18.320   5.521
 3840POPC   PO451000  21.756  18.186   5.536
 3840POPC   GL151001  21.989  18.308   5.905
 3840POPC   GL251002  22.005  18.672   5.939
 3840POPC   C1A51003  22.263  18.281   6.271
 3840POPC   D2A51004  22.320  18.022   6.628
 3840POPC   C3A51005  22.114  18.145   6.960
 3840POPC   C4A51006  21.904  18.514   7.039
 3840POPC   C1B51007  22.273  18.800   6.312
 3840POPC   C2B51008  22.631  18.679   6.535
 3840POPC   C3B51009  22.519  18.505   6.919
 3840POPC   C4B51010  22.417  18.346   7.320
 3841POPC   NC351011  26.506  28.892   5.455
 3841POPC   PO451012  26.760  29.418   5.347
 3841POPC   GL151013  26.882  29.212   5.767
 3841POPC   GL251014  26.607  29.044   5.920
 3841POPC   C1A51015  27.033  29.125   6.203
 3841POPC   D2A51016  26.855  29.375   6.548
 3841POPC   C3A51017  26.763  29.202   6.942
 3841POPC   C4A51018  26.972  29.005   7.200
 3841POPC   C1B51019  26.533  28.731   6.200
 3841POPC   C2B51020  26.728  28.650   6.597
 3841POPC   C3B51021  26.568  28.730   7.026
 3841POPC   C4B51022  26.633  28.773   7.499
 3842POPC   NC351023   9.139  28.270   5.473
 3842POPC   PO451024   8.496  28.388   5.203
 3842POPC   GL151025   8.682  28.393   5.687
 3842POPC   GL251026   8.869  28.699   5.689
 3842POPC   C1A51027   9.004  28.273   6.096
 3842POPC   D2A51028   9.372  28.206   6.413
 3842POPC   C3A51029   9.301  28.349   6.841
 3842POPC   C4A51030   9.011  28.195   7.144
 3842POPC   C1B51031   8.916  28.778   6.128
 3842POPC   C2B51032   8.936  28.597   6.546
 3842POPC   C3B51033   8.815  28.645   6.962
 3842POPC   C4B51034   9.057  28.683   7.328
 3843POPC   NC351035   3.493  13.223   5.501
 3843POPC   PO451036   3.514  12.627   5.137
 3843POPC   GL151037   3.632  12.749   5.619
 3843POPC   GL251038   3.333  12.883   5.826
 3843POPC   C1A51039   3.763  12.777   6.101
 3843POPC   D2A51040   3.800  12.979   6.518
 3843POPC   C3A51041   3.787  12.783   6.895
 3843POPC   C4A51042   3.589  12.693   7.252
 3843POPC   C1B51043   3.265  12.613   6.158
 3843POPC   C2B51044   3.053  12.654   6.524
 3843POPC   C3B51045   3.230  12.647   6.903
 3843POPC   C4B51046   3.281  12.289   7.188
 3844POPC   NC351047  25.509  10.575   5.360
 3844POPC   PO451048  24.891  10.232   5.354
 3844POPC   GL151049  25.188  10.395   5.733
 3844POPC   GL251050  25.394  10.731   5.837
 3844POPC   C1A51051  25.389  10.324   6.153
 3844POPC   D2A51052  25.323  10.418   6.602
 3844POPC   C3A51053  25.223  10.083   6.905
 3844POPC   C4A51054  25.062  10.273   7.301
 3844POPC   C1B51055  25.654  10.806   6.241
 3844POPC   C2B51056  25.707  10.787   6.735
 3844POPC   C3B51057  25.427  10.657   7.083
 3844POPC   C4B51058  25.002  10.797   7.223
 3845POPC   NC351059  20.115  38.523   5.590
 3845POPC   PO451060  19.750  38.045   5.275
 3845POPC   GL151061  19.683  38.211   5.742
 3845POPC   GL251062  19.797  38.510   5.951
 3845POPC   C1A51063  19.527  38.204   6.200
 3845POPC   D2A51064  19.773  38.075   6.527
 3845POPC   C3A51065  19.769  38.235   6.930
 3845POPC   C4A51066  19.569  38.499   7.197
 3845POPC   C1B51067  20.119  38.276   6.194
 3845POPC   C2B51068  20.158  38.378   6.609
 3845POPC   C3B51069  20.123  38.632   6.973
 3845POPC   C4B51070  20.146  38.444   7.358
 3846POPC   NC351071  28.570  30.237   5.430
 3846POPC   PO451072  28.318  29.636   5.226
 3846POPC   GL151073  28.340  29.809   5.681
 3846POPC   GL251074  28.689  29.761   5.694
 3846POPC   C1A51075  28.540  30.065   6.091
 3846POPC   D2A51076  28.440  30.268   6.475
 3846POPC   C3A51077  28.546  30.139   6.914
 3846POPC   C4A51078  28.421  29.998   7.337
 3846POPC   C1B51079  28.541  29.563   6.099
 3846POPC   C2B51080  28.600  29.692   6.544
 3846POPC   C3B51081  28.459  29.593   6.978
 3846POPC   C4B51082  28.641  29.535   7.382
 3847POPC   NC351083  34.373   4.571   5.659
 3847POPC   PO451084  34.082   4.075   5.249
 3847POPC   GL151085  34.359   4.050   5.730
 3847POPC   GL251086  34.721   4.178   5.720
 3847POPC   C1A51087  34.313   4.156   6.255
 3847POPC   D2A51088  34.235   4.368   6.714
 3847POPC   C3A51089  34.280   4.224   7.171
 3847POPC   C4A51090  34.417   4.063   7.599
 3847POPC   C1B51091  34.775   4.362   6.153
 3847POPC   C2B51092  34.785   4.241   6.601
 3847POPC   C3B51093  34.682   4.496   6.957
 3847POPC   C4B51094  34.825   4.686   7.336
 3848POPC   NC351095  42.691  21.040   5.567
 3848POPC   PO451096  42.479  21.638   5.542
 3848POPC   GL151097  42.252  21.430   5.934
 3848POPC   GL251098  42.445  21.186   6.030
 3848POPC   C1A51099  42.114  21.421   6.393
 3848POPC   D2A51100  42.262  21.290   6.805
 3848POPC   C3A51101  41.912  21.215   7.087
 3848POPC   C4A51102  41.730  21.430   7.442
 3848POPC   C1B51103  42.616  21.459   6.395
 3848POPC   C2B51104  42.780  21.289   6.773
 3848POPC   C3B51105  42.707  21.149   7.203
 3848POPC   C4B51106  42.694  21.030   7.656
 3849POPC   NC351107  16.354  21.524   5.626
 3849POPC   PO451108  16.825  21.402   5.154
 3849POPC   GL151109  16.887  21.586   5.713
 3849POPC   GL251110  16.623  21.690   6.006
 3849POPC   C1A51111  16.951  21.339   6.167
 3849POPC   D2A51112  16.820  21.395   6.591
 3849POPC   C3A51113  16.868  21.206   6.987
 3849POPC   C4A51114  16.982  21.449   7.393
 3849POPC   C1B51115  16.429  21.314   6.281
 3849POPC   C2B51116  16.366  21.249   6.755
 3849POPC   C3B51117  16.510  21.510   7.155
 3849POPC   C4B51118  16.550  21.315   7.611
 3850POPC   NC351119  11.535  44.064   5.006
 3850POPC   PO451120  11.174  43.607   5.402
 3850POPC   GL151121  11.288  43.893   5.767
 3850POPC   GL251122  10.969  43.913   5.844
 3850POPC   C1A51123  11.260  44.190   6.173
 3850POPC   D2A51124  11.265  44.325   6.646
 3850POPC   C3A51125  11.317  44.052   7.051
 3850POPC   C4A51126  11.332  43.987   7.553
 3850POPC   C1B51127  11.065  43.544   6.088
 3850POPC   C2B51128  11.065  43.442   6.503
 3850POPC   C3B51129  11.299  43.456   6.869
 3850POPC   C4B51130  11.190  43.586   7.283
 3851POPC   NC351131   7.828  27.875   5.404
 3851POPC   PO451132   7.888  28.578   5.575
 3851POPC   GL151133   8.167  28.476   5.914
 3851POPC   GL251134   8.429  28.739   5.974
 3851POPC   C1A51135   8.072  28.287   6.334
 3851POPC   D2A51136   7.920  28.525   6.688
 3851POPC   C3A51137   8.010  28.330   7.066
 3851POPC   C4A51138   8.029  28.012   7.372
 3851POPC   C1B51139   8.547  28.425   6.280
 3851POPC   C2B51140   8.423  28.286   6.716
 3851POPC   C3B51141   8.504  28.245   7.146
 3851POPC   C4B51142   8.562  28.564   7.451
 3852POPC   NC351143   8.437   6.927   5.357
 3852POPC   PO451144   7.865   7.087   5.591
 3852POPC   GL151145   8.230   6.923   5.841
 3852POPC   GL251146   8.351   6.564   5.817
 3852POPC   C1A51147   8.239   6.797   6.270
 3852POPC   D2A51148   8.145   6.524   6.597
 3852POPC   C3A51149   8.394   6.697   6.893
 3852POPC   C4A51150   8.330   6.993   7.178
 3852POPC   C1B51151   8.027   6.367   6.086
 3852POPC   C2B51152   7.744   6.218   6.410
 3852POPC   C3B51153   7.751   6.243   6.850
 3852POPC   C4B51154   8.105   6.368   7.156
 3853POPC   NC351155  33.495  20.353   5.540
 3853POPC   PO451156  33.920  20.857   5.393
 3853POPC   GL151157  33.850  20.670   5.815
 3853POPC   GL251158  33.949  20.322   5.883
 3853POPC   C1A51159  34.045  20.668   6.257
 3853POPC   D2A51160  33.993  20.927   6.634
 3853POPC   C3A51161  33.829  20.804   7.040
 3853POPC   C4A51162  33.477  20.719   7.292
 3853POPC   C1B51163  33.646  20.362   6.214
 3853POPC   C2B51164  33.743  20.473   6.651
 3853POPC   C3B51165  33.664  20.308   7.070
 3853POPC   C4B51166  33.852  20.404   7.469
 3854POPC   NC351167  32.425  36.132   5.531
 3854POPC   PO451168  31.738  36.092   5.403
 3854POPC   GL151169  31.976  36.134   5.833
 3854POPC   GL251170  32.264  35.969   5.970
 3854POPC   C1A51171  32.138  36.388   6.209
 3854POPC   D2A51172  32.271  36.125   6.564
 3854POPC   C3A51173  32.092  36.071   6.970
 3854POPC   C4A51174  32.352  36.198   7.321
 3854POPC   C1B51175  32.201  35.694   6.293
 3854POPC   C2B51176  32.394  35.606   6.688
 3854POPC   C3B51177  32.435  35.696   7.128
 3854POPC   C4B51178  32.415  35.574   7.558
 3855POPC   NC351179  13.189  36.464   5.509
 3855POPC   PO451180  13.213  37.124   5.607
 3855POPC   GL151181  13.000  36.785   5.853
 3855POPC   GL251182  12.660  36.801   5.931
 3855POPC   C1A51183  13.000  36.678   6.291
 3855POPC   D2A51184  13.041  36.962   6.626
 3855POPC   C3A51185  12.869  36.830   6.985
 3855POPC   C4A51186  13.097  36.884   7.318
 3855POPC   C1B51187  12.822  37.177   6.178
 3855POPC   C2B51188  12.760  37.402   6.579
 3855POPC   C3B51189  12.919  37.336   7.027
 3855POPC   C4B51190  12.812  37.251   7.460
 3856POPC   NC351191   3.891  25.712   5.443
 3856POPC   PO451192   4.537  25.918   5.440
 3856POPC   GL151193   4.235  25.905   5.777
 3856POPC   GL251194   4.369  25.607   5.850
 3856POPC   C1A51195   4.036  25.984   6.190
 3856POPC   D2A51196   4.171  26.209   6.565
 3856POPC   C3A51197   4.053  26.088   6.974
 3856POPC   C4A51198   4.090  25.884   7.342
 3856POPC   C1B51199   4.532  25.805   6.228
 3856POPC   C2B51200   4.633  25.962   6.643
 3856POPC   C3B51201   4.550  25.893   7.078
 3856POPC   C4B51202   4.658  25.590   7.432
 3857POPC   NC351203   5.630  15.413   5.470
 3857POPC   PO451204   6.271  15.092   5.458
 3857POPC   GL151205   6.045  14.970   5.792
 3857POPC   GL251206   5.959  15.314   5.876
 3857POPC   C1A51207   5.855  14.912   6.198
 3857POPC   D2A51208   5.634  15.073   6.570
 3857POPC   C3A51209   5.898  15.009   6.945
 3857POPC   C4A51210   5.746  15.001   7.317
 3857POPC   C1B51211   5.915  15.443   6.320
 3857POPC   C2B51212   5.929  15.469   6.757
 3857POPC   C3B51213   5.950  15.449   7.235
 3857POPC   C4B51214   5.953  15.631   7.643
 3858POPC   NC351215  19.937   8.449   5.397
 3858POPC   PO451216  19.479   7.952   5.349
 3858POPC   GL151217  19.416   8.135   5.702
 3858POPC   GL251218  19.747   8.171   5.796
 3858POPC   C1A51219  19.384   8.239   6.144
 3858POPC   D2A51220  19.672   8.047   6.434
 3858POPC   C3A51221  19.644   8.075   6.887
 3858POPC   C4A51222  19.899   8.151   7.277
 3858POPC   C1B51223  19.804   8.511   6.097
 3858POPC   C2B51224  19.664   8.555   6.523
 3858POPC   C3B51225  19.742   8.588   6.946
 3858POPC   C4B51226  19.406   8.439   7.194
 3859POPC   NC351227   7.897   9.979   5.737
 3859POPC   PO451228   8.477   9.654   5.478
 3859POPC   GL151229   8.313   9.698   5.852
 3859POPC   GL251230   8.441   9.948   6.007
 3859POPC   C1A51231   8.120   9.570   6.219
 3859POPC   D2A51232   7.979   9.387   6.568
 3859POPC   C3A51233   7.982   9.633   6.896
 3859POPC   C4A51234   8.010   9.514   7.292
 3859POPC   C1B51235   8.205  10.092   6.364
 3859POPC   C2B51236   8.108  10.122   6.789
 3859POPC   C3B51237   8.018  10.027   7.211
 3859POPC   C4B51238   8.285   9.880   7.504
 3860POPC   NC351239  43.518   2.075   5.470
 3860POPC   PO451240  42.949   2.318   5.398
 3860POPC   GL151241  43.059   2.050   5.778
 3860POPC   GL251242  43.261   1.738   5.770
 3860POPC   C1A51243  43.148   2.124   6.227
 3860POPC   D2A51244  42.981   2.404   6.547
 3860POPC   C3A51245  43.109   2.364   6.944
 3860POPC   C4A51246  43.115   2.079   7.262
 3860POPC   C1B51247  43.016   1.645   6.143
 3860POPC   C2B51248  42.812   1.777   6.531
 3860POPC   C3B51249  42.940   1.722   6.944
 3860POPC   C4B51250  43.282   1.586   7.146
 3861POPC   NC351251  39.369  25.020   5.459
 3861POPC   PO451252  38.902  25.453   5.725
 3861POPC   GL151253  39.088  25.073   5.882
 3861POPC   GL251254  39.418  25.259   5.897
 3861POPC   C1A51255  39.312  24.938   6.275
 3861POPC   D2A51256  39.437  25.220   6.613
 3861POPC   C3A51257  39.174  25.189   6.972
 3861POPC   C4A51258  39.117  25.099   7.399
 3861POPC   C1B51259  39.621  25.520   6.201
 3861POPC   C2B51260  39.670  25.671   6.631
 3861POPC   C3B51261  39.439  25.639   7.004
 3861POPC   C4B51262  38.985  25.640   7.119
 3862POPC   NC351263   0.373  29.348   5.324
 3862POPC   PO451264   0.818  28.893   5.439
 3862POPC   GL151265   0.635  29.054   5.820
 3862POPC   GL251266   0.319  29.257   5.837
 3862POPC   C1A51267   0.651  29.232   6.226
 3862POPC   D2A51268   0.306  29.196   6.521
 3862POPC   C3A51269   0.537  29.093   6.883
 3862POPC   C4A51270   0.686  29.406   7.161
 3862POPC   C1B51271   0.269  28.859   6.130
 3862POPC   C2B51272   0.282  28.666   6.570
 3862POPC   C3B51273   0.174  28.743   7.024
 3862POPC   C4B51274   0.324  29.079   7.351
 3863POPC   NC351275  11.569  17.224   5.314
 3863POPC   PO451276  11.323  17.792   5.141
 3863POPC   GL151277  11.545  17.715   5.569
 3863POPC   GL251278  11.325  17.458   5.720
 3863POPC   C1A51279  11.513  17.760   6.066
 3863POPC   D2A51280  11.627  17.500   6.452
 3863POPC   C3A51281  11.432  17.527   6.880
 3863POPC   C4A51282  11.503  17.746   7.280
 3863POPC   C1B51283  11.143  17.372   6.176
 3863POPC   C2B51284  10.924  17.293   6.602
 3863POPC   C3B51285  10.877  17.204   7.059
 3863POPC   C4B51286  11.275  17.220   7.297
 3864POPC   NC351287  37.428   3.185   5.487
 3864POPC   PO451288  37.277   3.845   5.399
 3864POPC   GL151289  37.550   3.673   5.754
 3864POPC   GL251290  37.497   3.342   5.961
 3864POPC   C1A51291  37.808   3.701   6.148
 3864POPC   D2A51292  37.679   3.700   6.580
 3864POPC   C3A51293  38.004   3.727   6.898
 3864POPC   C4A51294  37.891   3.701   7.313
 3864POPC   C1B51295  37.610   3.030   6.306
 3864POPC   C2B51296  37.775   2.975   6.748
 3864POPC   C3B51297  37.745   3.185   7.147
 3864POPC   C4B51298  37.417   3.129   7.423
 3865POPC   NC351299  19.014   9.696   5.230
 3865POPC   PO451300  19.580   9.891   5.507
 3865POPC   GL151301  19.224   9.720   5.816
 3865POPC   GL251302  18.883   9.549   5.817
 3865POPC   C1A51303  19.135   9.870   6.257
 3865POPC   D2A51304  19.084  10.105   6.661
 3865POPC   C3A51305  19.425  10.064   6.913
 3865POPC   C4A51306  19.505   9.709   7.166
 3865POPC   C1B51307  18.666   9.885   6.074
 3865POPC   C2B51308  18.603  10.115   6.469
 3865POPC   C3B51309  18.591  10.000   6.911
 3865POPC   C4B51310  18.965   9.874   7.148
 3866POPC   NC351311  15.998  24.666   5.044
 3866POPC   PO451312  15.780  24.264   5.472
 3866POPC   GL151313  15.836  24.521   5.859
 3866POPC   GL251314  16.011  24.250   6.022
 3866POPC   C1A51315  15.691  24.584   6.300
 3866POPC   D2A51316  15.849  24.369   6.694
 3866POPC   C3A51317  15.874  24.562   7.103
 3866POPC   C4A51318  16.126  24.737   7.454
 3866POPC   C1B51319  16.198  24.500   6.331
 3866POPC   C2B51320  16.398  24.408   6.724
 3866POPC   C3B51321  16.369  24.351   7.168
 3866POPC   C4B51322  16.510  24.410   7.603
 3867POPC   NC351323   9.504  42.970   5.487
 3867POPC   PO451324   9.982  43.367   5.264
 3867POPC   GL151325   9.959  43.236   5.722
 3867POPC   GL251326   9.918  42.935   5.804
 3867POPC   C1A51327   9.949  43.263   6.186
 3867POPC   D2A51328   9.605  43.438   6.427
 3867POPC   C3A51329   9.611  43.189   6.776
 3867POPC   C4A51330   9.454  43.123   7.168
 3867POPC   C1B51331   9.621  42.762   6.115
 3867POPC   C2B51332   9.742  42.752   6.529
 3867POPC   C3B51333   9.722  42.712   6.939
 3867POPC   C4B51334   9.937  42.849   7.278
 3868POPC   NC351335  35.987  22.373   5.587
 3868POPC   PO451336  36.162  22.882   5.158
 3868POPC   GL151337  36.183  22.872   5.663
 3868POPC   GL251338  36.464  22.695   5.825
 3868POPC   C1A51339  36.106  22.872   6.181
 3868POPC   D2A51340  35.918  22.820   6.651
 3868POPC   C3A51341  36.002  22.995   7.078
 3868POPC   C4A51342  36.385  23.193   7.185
 3868POPC   C1B51343  36.369  22.399   6.184
 3868POPC   C2B51344  36.288  22.417   6.617
 3868POPC   C3B51345  36.392  22.710   6.928
 3868POPC   C4B51346  36.390  22.722   7.369
 3869POPC   NC351347  26.898  14.001   5.441
 3869POPC   PO451348  26.421  14.486   5.435
 3869POPC   GL151349  26.659  14.496   5.814
 3869POPC   GL251350  26.835  14.188   5.904
 3869POPC   C1A51351  26.919  14.711   6.109
 3869POPC   D2A51352  26.930  14.710   6.530
 3869POPC   C3A51353  27.085  14.399   6.807
 3869POPC   C4A51354  26.966  14.556   7.201
 3869POPC   C1B51355  26.886  14.227   6.324
 3869POPC   C2B51356  26.544  14.369   6.586
 3869POPC   C3B51357  26.444  14.328   7.001
 3869POPC   C4B51358  26.711  14.048   7.220
 3870POPC   NC351359  43.419  30.444   5.432
 3870POPC   PO451360  43.022  31.003   5.369
 3870POPC   GL151361  43.025  30.770   5.796
 3870POPC   GL251362  43.338  30.543   5.924
 3870POPC   C1A51363  42.944  30.696   6.242
 3870POPC   D2A51364  42.784  30.912   6.625
 3870POPC   C3A51365  42.810  30.640   6.979
 3870POPC   C4A51366  43.021  30.494   7.321
 3870POPC   C1B51367  43.277  30.232   6.224
 3870POPC   C2B51368  43.132  30.363   6.605
 3870POPC   C3B51369  43.369  30.418   6.963
 3870POPC   C4B51370  43.487  30.214   7.308
 3871POPC   NC351371  20.786  34.169   5.571
 3871POPC   PO451372  20.447  34.774   5.399
 3871POPC   GL151373  20.482  34.544   5.758
 3871POPC   GL251374  20.291  34.242   5.743
 3871POPC   C1A51375  20.634  34.533   6.160
 3871POPC   D2A51376  20.652  34.815   6.480
 3871POPC   C3A51377  20.562  34.622   6.836
 3871POPC   C4A51378  20.466  34.807   7.216
 3871POPC   C1B51379  20.148  34.333   6.139
 3871POPC   C2B51380  20.295  34.221   6.525
 3871POPC   C3B51381  20.485  34.107   6.872
 3871POPC   C4B51382  20.435  34.306   7.241
 3872POPC   NC351383  37.980  41.892   5.068
 3872POPC   PO451384  37.605  42.262   5.476
 3872POPC   GL151385  37.810  42.421   5.827
 3872POPC   GL251386  37.492  42.421   6.034
 3872POPC   C1A51387  37.900  42.265   6.246
 3872POPC   D2A51388  37.553  42.067   6.494
 3872POPC   C3A51389  37.642  42.160   6.928
 3872POPC   C4A51390  37.995  42.318   7.152
 3872POPC   C1B51391  37.348  42.611   6.415
 3872POPC   C2B51392  37.334  42.586   6.866
 3872POPC   C3B51393  37.474  42.505   7.283
 3872POPC   C4B51394  37.339  42.373   7.734
 3873POPC   NC351395  39.039  31.674   5.446
 3873POPC   PO451396  39.759  31.678   5.374
 3873POPC   GL151397  39.458  31.585   5.716
 3873POPC   GL251398  39.392  31.905   5.802
 3873POPC   C1A51399  39.313  31.475   6.137
 3873POPC   D2A51400  39.308  31.262   6.531
 3873POPC   C3A51401  39.263  31.426   6.919
 3873POPC   C4A51402  38.992  31.413   7.240
 3873POPC   C1B51403  39.587  31.898   6.210
 3873POPC   C2B51404  39.621  31.747   6.630
 3873POPC   C3B51405  39.472  31.892   7.011
 3873POPC   C4B51406  39.435  31.668   7.352
 3874POPC   NC351407  15.522  23.878   5.434
 3874POPC   PO451408  16.072  23.373   5.348
 3874POPC   GL151409  15.760  23.464   5.738
 3874POPC   GL251410  15.807  23.800   5.873
 3874POPC   C1A51411  15.556  23.492   6.194
 3874POPC   D2A51412  15.574  23.694   6.635
 3874POPC   C3A51413  15.850  23.511   6.959
 3874POPC   C4A51414  16.279  23.564   7.044
 3874POPC   C1B51415  15.968  23.775   6.318
 3874POPC   C2B51416  16.112  23.931   6.722
 3874POPC   C3B51417  15.973  24.020   7.146
 3874POPC   C4B51418  16.005  24.245   7.557
 3875POPC   NC351419  18.749   2.270   5.355
 3875POPC   PO451420  19.201   2.718   5.345
 3875POPC   GL151421  19.209   2.743   5.781
 3875POPC   GL251422  18.899   2.578   5.803
 3875POPC   C1A51423  19.135   2.924   6.213
 3875POPC   D2A51424  18.944   3.038   6.628
 3875POPC   C3A51425  19.280   2.908   6.909
 3875POPC   C4A51426  19.452   2.518   7.067
 3875POPC   C1B51427  18.968   2.443   6.238
 3875POPC   C2B51428  19.052   2.491   6.686
 3875POPC   C3B51429  18.941   2.607   7.133
 3875POPC   C4B51430  18.923   3.061   7.245
 3876POPC   NC351431  35.584  33.725   5.593
 3876POPC   PO451432  35.022  34.106   5.252
 3876POPC   GL151433  35.195  34.019   5.755
 3876POPC   GL251434  35.306  33.673   6.000
 3876POPC   C1A51435  35.383  34.117   6.192
 3876POPC   D2A51436  35.230  33.953   6.552
 3876POPC   C3A51437  35.524  33.910   6.917
 3876POPC   C4A51438  35.424  33.949   7.366
 3876POPC   C1B51439  35.515  33.538   6.375
 3876POPC   C2B51440  35.264  33.475   6.728
 3876POPC   C3B51441  35.241  33.531   7.151
 3876POPC   C4B51442  35.555  33.430   7.412
 3877POPC   NC351443   4.264   1.670   5.534
 3877POPC   PO451444   4.611   1.089   5.532
 3877POPC   GL151445   4.346   1.098   5.848
 3877POPC   GL251446   4.419   1.419   5.959
 3877POPC   C1A51447   4.355   0.941   6.261
 3877POPC   D2A51448   4.138   0.994   6.641
 3877POPC   C3A51449   4.296   1.018   7.037
 3877POPC   C4A51450   4.219   1.246   7.389
 3877POPC   C1B51451   4.336   1.442   6.399
 3877POPC   C2B51452   4.349   1.479   6.830
 3877POPC   C3B51453   4.643   1.405   7.133
 3877POPC   C4B51454   4.658   1.399   7.606
 3878POPC   NC351455  39.372  27.795   5.159
 3878POPC   PO451456  39.297  28.478   5.413
 3878POPC   GL151457  39.178  28.433   5.804
 3878POPC   GL251458  39.211  28.058   5.732
 3878POPC   C1A51459  39.264  28.430   6.236
 3878POPC   D2A51460  39.214  28.656   6.610
 3878POPC   C3A51461  39.198  28.420   6.989
 3878POPC   C4A51462  39.355  28.529   7.391
 3878POPC   C1B51463  38.898  28.104   6.064
 3878POPC   C2B51464  38.950  28.092   6.511
 3878POPC   C3B51465  38.847  27.987   6.919
 3878POPC   C4B51466  39.063  28.007   7.298
 3879POPC   NC351467   6.861  18.161   5.570
 3879POPC   PO451468   6.575  18.753   5.502
 3879POPC   GL151469   6.667  18.549   5.890
 3879POPC   GL251470   6.402  18.298   5.819
 3879POPC   C1A51471   6.741  18.202   6.241
 3879POPC   D2A51472   6.760  17.908   6.623
 3879POPC   C3A51473   6.651  18.089   7.017
 3879POPC   C4A51474   6.773  18.482   7.140
 3879POPC   C1B51475   6.236  18.079   6.200
 3879POPC   C2B51476   6.309  18.175   6.642
 3879POPC   C3B51477   6.148  18.182   7.074
 3879POPC   C4B51478   6.366  18.202   7.496
 3880POPC   NC351479  18.622  30.932   5.580
 3880POPC   PO451480  18.106  30.830   5.109
 3880POPC   GL151481  18.237  30.586   5.652
 3880POPC   GL251482  18.399  30.816   5.998
 3880POPC   C1A51483  18.003  30.565   6.117
 3880POPC   D2A51484  18.235  30.701   6.526
 3880POPC   C3A51485  18.051  30.701   6.967
 3880POPC   C4A51486  18.050  30.592   7.418
 3880POPC   C1B51487  18.707  30.937   6.355
 3880POPC   C2B51488  18.751  30.869   6.835
 3880POPC   C3B51489  18.545  30.671   7.211
 3880POPC   C4B51490  18.559  30.495   7.638
 3881POPC   NC351491  30.143   8.590   5.293
 3881POPC   PO451492  29.760   9.070   5.196
 3881POPC   GL151493  29.841   9.073   5.657
 3881POPC   GL251494  30.176   8.973   5.709
 3881POPC   C1A51495  29.826   9.160   6.105
 3881POPC   D2A51496  29.922   8.892   6.462
 3881POPC   C3A51497  29.854   8.982   6.917
 3881POPC   C4A51498  30.075   9.056   7.328
 3881POPC   C1B51499  30.320   8.749   6.107
 3881POPC   C2B51500  30.280   8.553   6.541
 3881POPC   C3B51501  30.314   8.674   6.980
 3881POPC   C4B51502  30.436   8.682   7.433
 3882POPC   NC351503  34.466  37.377   5.337
 3882POPC   PO451504  34.854  37.887   5.402
 3882POPC   GL151505  34.947  37.692   5.782
 3882POPC   GL251506  34.638  37.545   5.783
 3882POPC   C1A51507  34.827  37.815   6.220
 3882POPC   D2A51508  34.780  37.992   6.627
 3882POPC   C3A51509  34.728  37.864   7.065
 3882POPC   C4A51510  34.437  37.964   7.359
 3882POPC   C1B51511  34.511  37.408   6.170
 3882POPC   C2B51512  34.458  37.580   6.579
 3882POPC   C3B51513  34.547  37.408   6.966
 3882POPC   C4B51514  34.659  37.310   7.368
 3883POPC   NC351515  15.828  22.964   5.421
 3883POPC   PO451516  16.434  22.904   5.602
 3883POPC   GL151517  16.166  23.170   5.843
 3883POPC   GL251518  15.858  22.954   5.913
 3883POPC   C1A51519  16.017  23.247   6.285
 3883POPC   D2A51520  16.035  22.874   6.579
 3883POPC   C3A51521  16.262  22.983   6.942
 3883POPC   C4A51522  16.110  23.160   7.294
 3883POPC   C1B51523  15.599  22.941   6.260
 3883POPC   C2B51524  15.620  23.171   6.631
 3883POPC   C3B51525  15.712  22.972   7.031
 3883POPC   C4B51526  15.730  22.847   7.483
 3884POPC   NC351527  37.473  29.503   5.436
 3884POPC   PO451528  37.786  30.113   5.352
 3884POPC   GL151529  37.464  29.999   5.627
 3884POPC   GL251530  37.645  30.194   5.863
 3884POPC   C1A51531  37.331  29.853   6.053
 3884POPC   D2A51532  37.540  30.022   6.420
 3884POPC   C3A51533  37.441  29.808   6.804
 3884POPC   C4A51534  37.441  30.057   7.212
 3884POPC   C1B51535  37.848  29.781   6.072
 3884POPC   C2B51536  37.851  29.617   6.535
 3884POPC   C3B51537  37.894  29.912   6.959
 3884POPC   C4B51538  37.852  29.741   7.358
 3885POPC   NC351539   4.126  20.173   5.621
 3885POPC   PO451540   4.574  19.761   5.309
 3885POPC   GL151541   4.459  19.792   5.774
 3885POPC   GL251542   4.082  19.737   5.889
 3885POPC   C1A51543   4.439  19.882   6.241
 3885POPC   D2A51544   4.566  19.720   6.668
 3885POPC   C3A51545   4.610  20.098   6.917
 3885POPC   C4A51546   4.399  20.234   7.286
 3885POPC   C1B51547   4.040  19.460   6.256
 3885POPC   C2B51548   4.059  19.550   6.707
 3885POPC   C3B51549   4.078  19.900   7.033
 3885POPC   C4B51550   3.738  20.041   7.331
 3886POPC   NC351551   1.222  41.035   5.081
 3886POPC   PO451552   1.224  40.518   5.467
 3886POPC   GL151553   1.306  40.712   5.855
 3886POPC   GL251554   1.303  41.058   5.815
 3886POPC   C1A51555   1.085  40.843   6.227
 3886POPC   D2A51556   1.088  40.673   6.599
 3886POPC   C3A51557   1.091  40.947   6.909
 3886POPC   C4A51558   1.268  40.804   7.225
 3886POPC   C1B51559   1.534  41.132   6.210
 3886POPC   C2B51560   1.534  41.010   6.645
 3886POPC   C3B51561   1.487  41.240   7.051
 3886POPC   C4B51562   1.484  41.152   7.498
 3887POPC   NC351563   5.889  42.661   5.502
 3887POPC   PO451564   6.056  42.083   5.235
 3887POPC   GL151565   5.902  42.142   5.712
 3887POPC   GL251566   5.948  42.457   5.945
 3887POPC   C1A51567   5.915  42.028   6.181
 3887POPC   D2A51568   6.037  42.326   6.489
 3887POPC   C3A51569   5.852  42.205   6.829
 3887POPC   C4A51570   5.953  42.133   7.223
 3887POPC   C1B51571   6.304  42.587   6.149
 3887POPC   C2B51572   6.493  42.589   6.575
 3887POPC   C3B51573   6.227  42.587   6.956
 3887POPC   C4B51574   5.994  42.658   7.316
 3888POPC   NC351575  32.650  12.945   5.387
 3888POPC   PO451576  32.056  13.165   5.417
 3888POPC   GL151577  32.089  12.782   5.651
 3888POPC   GL251578  32.419  12.830   5.828
 3888POPC   C1A51579  32.022  12.667   6.100
 3888POPC   D2A51580  32.364  12.830   6.359
 3888POPC   C3A51581  32.365  12.870   6.773
 3888POPC   C4A51582  32.315  12.816   7.222
 3888POPC   C1B51583  32.712  13.086   6.083
 3888POPC   C2B51584  32.669  13.269   6.510
 3888POPC   C3B51585  32.774  13.128   6.941
 3888POPC   C4B51586  32.694  13.189   7.351
 3889POPC   NC351587  26.485  38.523   5.354
 3889POPC   PO451588  27.139  38.408   5.340
 3889POPC   GL151589  26.846  38.322   5.691
 3889POPC   GL251590  26.706  38.647   5.789
 3889POPC   C1A51591  26.843  38.279   6.152
 3889POPC   D2A51592  26.721  38.420   6.596
 3889POPC   C3A51593  26.817  38.257   6.999
 3889POPC   C4A51594  27.098  38.285   7.324
 3889POPC   C1B51595  26.661  38.758   6.214
 3889POPC   C2B51596  26.408  38.824   6.596
 3889POPC   C3B51597  26.466  38.661   7.030
 3889POPC   C4B51598  26.576  38.764   7.474
 3890POPC   NC351599  36.184  36.489   5.505
 3890POPC   PO451600  36.000  35.973   5.144
 3890POPC   GL151601  36.053  35.986   5.697
 3890POPC   GL251602  36.215  36.138   5.910
 3890POPC   C1A51603  35.900  35.850   6.173
 3890POPC   D2A51604  35.755  36.059   6.569
 3890POPC   C3A51605  35.887  35.919   6.983
 3890POPC   C4A51606  36.064  35.979   7.386
 3890POPC   C1B51607  36.010  36.386   6.253
 3890POPC   C2B51608  36.109  36.389   6.701
 3890POPC   C3B51609  36.367  36.264   7.030
 3890POPC   C4B51610  36.446  36.460   7.416
 3891POPC   NC351611  37.258   2.503   5.443
 3891POPC   PO451612  37.854   2.935   5.449
 3891POPC   GL151613  37.691   2.834   5.830
 3891POPC   GL251614  37.335   2.818   5.883
 3891POPC   C1A51615  37.850   2.585   6.166
 3891POPC   D2A51616  37.639   2.521   6.558
 3891POPC   C3A51617  37.881   2.426   6.958
 3891POPC   C4A51618  38.019   2.752   7.247
 3891POPC   C1B51619  37.190   2.727   6.316
 3891POPC   C2B51620  37.274   2.791   6.778
 3891POPC   C3B51621  37.504   2.687   7.192
 3891POPC   C4B51622  37.305   2.589   7.621
 3892POPC   NC351623   5.905  34.144   5.452
 3892POPC   PO451624   6.328  33.697   5.371
 3892POPC   GL151625   6.058  33.714   5.764
 3892POPC   GL251626   5.866  33.991   5.939
 3892POPC   C1A51627   5.889  33.538   6.153
 3892POPC   D2A51628   6.060  33.597   6.569
 3892POPC   C3A51629   5.820  33.786   6.954
 3892POPC   C4A51630   5.767  33.762   7.435
 3892POPC   C1B51631   5.780  34.003   6.415
 3892POPC   C2B51632   5.895  34.261   6.808
 3892POPC   C3B51633   5.993  34.268   7.265
 3892POPC   C4B51634   6.034  34.137   7.710
 3893POPC   NC351635   5.082  40.303   5.382
 3893POPC   PO451636   5.133  39.589   5.413
 3893POPC   GL151637   5.026  39.929   5.767
 3893POPC   GL251638   5.164  40.288   5.882
 3893POPC   C1A51639   4.979  39.916   6.197
 3893POPC   D2A51640   4.927  40.056   6.630
 3893POPC   C3A51641   5.194  39.959   6.987
 3893POPC   C4A51642   4.891  40.091   7.281
 3893POPC   C1B51643   5.179  40.382   6.315
 3893POPC   C2B51644   5.286  40.420   6.757
 3893POPC   C3B51645   5.226  40.464   7.183
 3893POPC   C4B51646   5.272  40.333   7.613
 3894POPC   NC351647  28.081  30.896   5.313
 3894POPC   PO451648  28.169  30.306   5.638
 3894POPC   GL151649  28.456  30.601   5.800
 3894POPC   GL251650  28.485  30.922   5.630
 3894POPC   C1A51651  28.353  30.733   6.214
 3894POPC   D2A51652  28.057  30.603   6.492
 3894POPC   C3A51653  28.277  30.599   6.848
 3894POPC   C4A51654  28.167  30.905   7.118
 3894POPC   C1B51655  28.706  31.035   5.997
 3894POPC   C2B51656  28.689  31.135   6.458
 3894POPC   C3B51657  28.624  31.000   6.914
 3894POPC   C4B51658  28.685  30.594   7.176
 3895POPC   NC351659  11.872  29.566   5.375
 3895POPC   PO451660  12.148  30.206   5.288
 3895POPC   GL151661  12.048  30.117   5.762
 3895POPC   GL251662  11.768  29.872   5.783
 3895POPC   C1A51663  12.137  30.051   6.243
 3895POPC   D2A51664  12.338  29.841   6.641
 3895POPC   C3A51665  12.123  29.968   7.032
 3895POPC   C4A51666  11.992  30.036   7.466
 3895POPC   C1B51667  11.620  29.868   6.203
 3895POPC   C2B51668  11.814  29.869   6.609
 3895POPC   C3B51669  11.713  29.663   6.982
 3895POPC   C4B51670  11.544  29.816   7.349
 3896POPC   NC351671  12.733   6.979   5.310
 3896POPC   PO451672  13.121   6.333   5.355
 3896POPC   GL151673  12.858   6.567   5.612
 3896POPC   GL251674  12.588   6.376   5.719
 3896POPC   C1A51675  12.865   6.652   6.061
 3896POPC   D2A51676  13.167   6.576   6.395
 3896POPC   C3A51677  13.015   6.653   6.788
 3896POPC   C4A51678  13.124   6.635   7.219
 3896POPC   C1B51679  12.452   6.276   6.146
 3896POPC   C2B51680  12.573   6.383   6.594
 3896POPC   C3B51681  12.545   6.654   6.971
 3896POPC   C4B51682  12.659   6.702   7.394
 3897POPC   NC351683  41.919  40.186   5.596
 3897POPC   PO451684  41.393  39.804   5.404
 3897POPC   GL151685  41.430  40.118   5.762
 3897POPC   GL251686  41.652  39.852   5.859
 3897POPC   C1A51687  41.425  40.413   6.158
 3897POPC   D2A51688  41.270  40.385   6.587
 3897POPC   C3A51689  41.587  40.230   6.857
 3897POPC   C4A51690  41.606  40.115   7.284
 3897POPC   C1B51691  41.937  39.733   6.151
 3897POPC   C2B51692  41.772  39.888   6.513
 3897POPC   C3B51693  41.708  39.721   6.932
 3897POPC   C4B51694  41.762  39.637   7.373
 3898POPC   NC351695   8.411  20.250   5.374
 3898POPC   PO451696   9.032  20.626   5.441
 3898POPC   GL151697   8.996  20.466   5.829
 3898POPC   GL251698   8.768  20.218   5.738
 3898POPC   C1A51699   9.147  20.530   6.209
 3898POPC   D2A51700   9.052  20.763   6.544
 3898POPC   C3A51701   9.226  20.564   6.890
 3898POPC   C4A51702   8.952  20.699   7.209
 3898POPC   C1B51703   8.745  20.094   6.161
 3898POPC   C2B51704   8.843  20.302   6.541
 3898POPC   C3B51705   8.781  20.309   6.935
 3898POPC   C4B51706   8.775  20.213   7.347
 3899POPC   NC351707  38.467   9.429   5.169
 3899POPC   PO451708  38.109   8.849   5.318
 3899POPC   GL151709  38.211   8.949   5.748
 3899POPC   GL251710  38.547   9.099   5.711
 3899POPC   C1A51711  38.353   8.919   6.199
 3899POPC   D2A51712  38.450   8.713   6.593
 3899POPC   C3A51713  38.173   8.734   6.931
 3899POPC   C4A51714  38.329   8.904   7.279
 3899POPC   C1B51715  38.641   9.342   6.096
 3899POPC   C2B51716  38.531   9.286   6.535
 3899POPC   C3B51717  38.676   9.262   6.940
 3899POPC   C4B51718  38.681   9.271   7.358
 3900POPC   NC351719  20.960   3.430   5.215
 3900POPC   PO451720  20.369   3.728   5.456
 3900POPC   GL151721  20.553   3.625   5.815
 3900POPC   GL251722  20.873   3.645   5.696
 3900POPC   C1A51723  20.400   3.520   6.220
 3900POPC   D2A51724  20.336   3.711   6.619
 3900POPC   C3A51725  20.365   3.400   6.920
 3900POPC   C4A51726  20.490   3.476   7.335
 3900POPC   C1B51727  20.917   3.479   6.135
 3900POPC   C2B51728  20.779   3.456   6.560
 3900POPC   C3B51729  20.838   3.601   6.959
 3900POPC   C4B51730  20.997   3.519   7.368
 3901POPC   NC351731  31.877  28.339   5.048
 3901POPC   PO451732  31.247  28.254   5.312
 3901POPC   GL151733  31.424  28.395   5.729
 3901POPC   GL251734  31.784  28.326   5.805
 3901POPC   C1A51735  31.445  28.418   6.190
 3901POPC   D2A51736  31.538  28.467   6.636
 3901POPC   C3A51737  31.187  28.470   6.986
 3901POPC   C4A51738  31.228  28.170   7.301
 3901POPC   C1B51739  31.973  28.599   6.132
 3901POPC   C2B51740  32.083  28.812   6.515
 3901POPC   C3B51741  31.946  28.628   6.908
 3901POPC   C4B51742  31.656  28.456   7.186
 3902POPC   NC351743  44.904  34.595   5.246
 3902POPC   PO451744  44.686  35.159   5.393
 3902POPC   GL151745  44.657  34.734   5.677
 3902POPC   GL251746  44.450  34.873   5.947
 3902POPC   C1A51747  44.663  34.416   6.029
 3902POPC   D2A51748  44.555  34.526   6.469
 3902POPC   C3A51749  44.634  34.375   6.861
 3902POPC   C4A51750  44.714  34.348   7.257
 3902POPC   C1B51751  44.156  34.717   6.258
 3902POPC   C2B51752  44.176  34.805   6.697
 3902POPC   C3B51753  44.462  34.847   7.015
 3902POPC   C4B51754  44.467  34.745   7.432
 3903POPC   NC351755  32.660   1.251   5.195
 3903POPC   PO451756  33.157   1.528   5.528
 3903POPC   GL151757  33.105   1.237   5.843
 3903POPC   GL251758  32.936   1.487   6.048
 3903POPC   C1A51759  33.005   1.036   6.254
 3903POPC   D2A51760  32.815   1.182   6.635
 3903POPC   C3A51761  32.970   1.080   7.023
 3903POPC   C4A51762  32.806   0.911   7.411
 3903POPC   C1B51763  33.311   1.460   6.285
 3903POPC   C2B51764  33.381   1.179   6.634
 3903POPC   C3B51765  33.529   1.270   7.057
 3903POPC   C4B51766  33.446   1.606   7.371
 3904POPC   NC351767  35.032  22.652   5.192
 3904POPC   PO451768  35.562  22.195   5.345
 3904POPC   GL151769  35.433  22.320   5.752
 3904POPC   GL251770  35.096  22.159   5.808
 3904POPC   C1A51771  35.386  22.311   6.224
 3904POPC   D2A51772  35.170  22.193   6.626
 3904POPC   C3A51773  35.336  22.311   6.996
 3904POPC   C4A51774  35.662  22.070   7.116
 3904POPC   C1B51775  34.881  22.316   6.206
 3904POPC   C2B51776  34.793  22.529   6.601
 3904POPC   C3B51777  34.822  22.372   7.028
 3904POPC   C4B51778  34.845  22.407   7.484
 3905POPC   NC351779  20.191   5.104   5.325
 3905POPC   PO451780  20.774   5.394   5.501
 3905POPC   GL151781  20.550   5.105   5.792
 3905POPC   GL251782  20.186   5.228   5.815
 3905POPC   C1A51783  20.707   4.931   6.216
 3905POPC   D2A51784  20.814   4.727   6.636
 3905POPC   C3A51785  20.719   4.956   7.031
 3905POPC   C4A51786  20.804   5.126   7.463
 3905POPC   C1B51787  20.215   5.052   6.234
 3905POPC   C2B51788  20.312   4.888   6.653
 3905POPC   C3B51789  20.215   5.006   7.081
 3905POPC   C4B51790  20.370   4.842   7.464
 3906POPC   NC351791  10.543   7.422   5.345
 3906POPC   PO451792  11.192   7.251   5.423
 3906POPC   GL151793  10.924   7.475   5.776
 3906POPC   GL251794  10.562   7.582   5.828
 3906POPC   C1A51795  10.773   7.341   6.216
 3906POPC   D2A51796  10.536   7.324   6.587
 3906POPC   C3A51797  10.637   7.517   6.950
 3906POPC   C4A51798  10.523   7.256   7.231
 3906POPC   C1B51799  10.277   7.555   6.201
 3906POPC   C2B51800  10.091   7.587   6.656
 3906POPC   C3B51801  10.148   7.618   7.134
 3906POPC   C4B51802   9.979   7.783   7.565
 3907POPC   NC351803  32.298   2.166   5.370
 3907POPC   PO451804  32.162   1.512   5.621
 3907POPC   GL151805  32.309   1.898   5.799
 3907POPC   GL251806  32.016   2.139   5.796
 3907POPC   C1A51807  32.535   1.971   6.171
 3907POPC   D2A51808  32.386   2.157   6.534
 3907POPC   C3A51809  32.451   1.961   6.917
 3907POPC   C4A51810  32.310   2.262   7.228
 3907POPC   C1B51811  32.013   1.928   6.209
 3907POPC   C2B51812  32.027   1.804   6.617
 3907POPC   C3B51813  31.952   2.098   6.905
 3907POPC   C4B51814  31.851   2.062   7.311
 3908POPC   NC351815   5.892   0.751   5.411
 3908POPC   PO451816   5.749   0.155   5.576
 3908POPC   GL151817   5.834   0.481   5.865
 3908POPC   GL251818   6.102   0.764   5.863
 3908POPC   C1A51819   5.648   0.417   6.264
 3908POPC   D2A51820   5.595   0.669   6.618
 3908POPC   C3A51821   5.677   0.448   6.974
 3908POPC   C4A51822   5.333   0.276   7.174
 3908POPC   C1B51823   5.929   0.830   6.256
 3908POPC   C2B51824   6.094   0.617   6.637
 3908POPC   C3B51825   6.186   0.684   7.073
 3908POPC   C4B51826   6.013   0.429   7.396
 3909POPC   NC351827  22.623   6.120   5.222
 3909POPC   PO451828  23.078   5.649   5.446
 3909POPC   GL151829  23.047   5.775   5.854
 3909POPC   GL251830  22.691   5.685   5.839
 3909POPC   C1A51831  23.124   5.905   6.305
 3909POPC   D2A51832  23.058   5.584   6.652
 3909POPC   C3A51833  23.295   5.654   6.999
 3909POPC   C4A51834  23.188   6.002   7.199
 3909POPC   C1B51835  22.687   5.633   6.283
 3909POPC   C2B51836  22.688   5.928   6.656
 3909POPC   C3B51837  22.667   5.987   7.122
 3909POPC   C4B51838  22.390   5.898   7.503
 3910POPC   NC351839  29.670  24.264   5.402
 3910POPC   PO451840  30.082  24.835   5.461
 3910POPC   GL151841  29.929  24.595   5.812
 3910POPC   GL251842  29.554  24.605   5.758
 3910POPC   C1A51843  30.164  24.589   6.224
 3910POPC   D2A51844  30.400  24.687   6.608
 3910POPC   C3A51845  30.253  24.410   6.928
 3910POPC   C4A51846  30.278  24.383   7.360
 3910POPC   C1B51847  29.568  24.652   6.189
 3910POPC   C2B51848  29.767  24.448   6.525
 3910POPC   C3B51849  29.845  24.705   6.843
 3910POPC   C4B51850  29.788  24.809   7.234
 3911POPC   NC351851  41.018  29.810   5.380
 3911POPC   PO451852  41.654  30.160   5.336
 3911POPC   GL151853  41.458  30.125   5.749
 3911POPC   GL251854  41.711  30.382   5.842
 3911POPC   C1A51855  41.482  29.855   6.154
 3911POPC   D2A51856  41.719  29.726   6.556
 3911POPC   C3A51857  41.538  29.847   6.996
 3911POPC   C4A51858  41.311  29.619   7.326
 3911POPC   C1B51859  41.594  30.338   6.238
 3911POPC   C2B51860  41.463  30.167   6.590
 3911POPC   C3B51861  41.665  30.322   6.921
 3911POPC   C4B51862  41.573  30.263   7.327
 3912POPC   NC351863   0.825  13.654   5.385
 3912POPC   PO451864   1.523  13.508   5.415
 3912POPC   GL151865   1.389  13.525   5.811
 3912POPC   GL251866   1.135  13.760   5.780
 3912POPC   C1A51867   1.364  13.656   6.243
 3912POPC   D2A51868   1.171  13.871   6.586
 3912POPC   C3A51869   1.342  13.828   6.993
 3912POPC   C4A51870   1.511  13.490   7.268
 3912POPC   C1B51871   0.891  13.932   6.103
 3912POPC   C2B51872   0.846  14.233   6.466
 3912POPC   C3B51873   0.814  14.057   6.906
 3912POPC   C4B51874   0.919  13.734   7.247
 3913POPC   NC351875  38.276  29.441   5.296
 3913POPC   PO451876  38.625  28.788   5.427
 3913POPC   GL151877  38.666  29.025   5.777
 3913POPC   GL251878  38.314  29.157   5.783
 3913POPC   C1A51879  38.705  29.346   6.080
 3913POPC   D2A51880  38.459  29.341   6.455
 3913POPC   C3A51881  38.714  29.372   6.846
 3913POPC   C4A51882  38.725  29.375   7.289
 3913POPC   C1B51883  38.358  28.826   6.128
 3913POPC   C2B51884  38.314  28.677   6.558
 3913POPC   C3B51885  38.444  28.885   6.917
 3913POPC   C4B51886  38.517  28.853   7.324
 3914POPC   NC351887  40.476  30.293   5.536
 3914POPC   PO451888  39.875  30.014   5.258
 3914POPC   GL151889  40.063  29.979   5.684
 3914POPC   GL251890  40.194  29.666   5.709
 3914POPC   C1A51891  39.988  29.945   6.158
 3914POPC   D2A51892  40.131  30.082   6.584
 3914POPC   C3A51893  39.893  30.108   6.932
 3914POPC   C4A51894  39.908  29.893   7.343
 3914POPC   C1B51895  40.315  29.547   6.115
 3914POPC   C2B51896  40.121  29.428   6.495
 3914POPC   C3B51897  40.042  29.632   6.869
 3914POPC   C4B51898  40.366  29.715   7.157
 3915POPC   NC351899  24.161  38.810   5.314
 3915POPC   PO451900  24.025  39.440   5.509
 3915POPC   GL151901  23.725  39.335   5.848
 3915POPC   GL251902  23.760  38.976   5.848
 3915POPC   C1A51903  23.664  39.219   6.295
 3915POPC   D2A51904  23.453  38.986   6.636
 3915POPC   C3A51905  23.612  39.161   7.027
 3915POPC   C4A51906  23.696  39.550   7.286
 3915POPC   C1B51907  23.938  38.775   6.219
 3915POPC   C2B51908  23.944  38.823   6.670
 3915POPC   C3B51909  24.006  38.834   7.100
 3915POPC   C4B51910  23.926  39.103   7.453
 3916POPC   NC351911  34.260  23.109   5.413
 3916POPC   PO451912  34.945  23.032   5.438
 3916POPC   GL151913  34.604  22.916   5.744
 3916POPC   GL251914  34.437  23.230   5.871
 3916POPC   C1A51915  34.601  22.782   6.188
 3916POPC   D2A51916  34.574  23.037   6.567
 3916POPC   C3A51917  34.602  22.834   6.970
 3916POPC   C4A51918  34.333  22.545   7.176
 3916POPC   C1B51919  34.846  23.249   6.089
 3916POPC   C2B51920  35.074  23.164   6.467
 3916POPC   C3B51921  35.029  23.306   6.883
 3916POPC   C4B51922  34.834  23.157   7.278
 3917POPC   NC351923  29.047  16.471   5.133
 3917POPC   PO451924  29.164  15.829   5.502
 3917POPC   GL151925  29.163  15.724   5.928
 3917POPC   GL251926  29.140  16.041   6.090
 3917POPC   C1A51927  28.958  15.571   6.312
 3917POPC   D2A51928  29.061  15.793   6.708
 3917POPC   C3A51929  29.202  15.606   7.108
 3917POPC   C4A51930  29.406  15.744   7.476
 3917POPC   C1B51931  29.375  16.428   6.211
 3917POPC   C2B51932  29.616  16.514   6.567
 3917POPC   C3B51933  29.487  16.284   6.893
 3917POPC   C4B51934  29.333  16.205   7.289
 3918POPC   NC351935  42.345  13.836   5.458
 3918POPC   PO451936  42.598  13.234   5.487
 3918POPC   GL151937  42.545  13.526   5.814
 3918POPC   GL251938  42.190  13.647   5.913
 3918POPC   C1A51939  42.554  13.520   6.229
 3918POPC   D2A51940  42.257  13.540   6.537
 3918POPC   C3A51941  42.454  13.740   6.853
 3918POPC   C4A51942  42.448  13.625   7.252
 3918POPC   C1B51943  41.892  13.791   6.233
 3918POPC   C2B51944  41.928  13.925   6.652
 3918POPC   C3B51945  41.989  13.742   7.062
 3918POPC   C4B51946  42.052  13.804   7.549
 3919POPC   NC351947  42.703   1.088   5.371
 3919POPC   PO451948  42.121   0.813   5.365
 3919POPC   GL151949  42.361   0.931   5.734
 3919POPC   GL251950  42.455   1.297   5.763
 3919POPC   C1A51951  42.398   1.001   6.182
 3919POPC   D2A51952  42.369   0.746   6.546
 3919POPC   C3A51953  42.329   1.025   6.926
 3919POPC   C4A51954  42.201   1.045   7.387
 3919POPC   C1B51955  42.526   1.509   6.153
 3919POPC   C2B51956  42.526   1.349   6.572
 3919POPC   C3B51957  42.466   1.524   6.978
 3919POPC   C4B51958  42.506   1.436   7.377
 3920POPC   NC351959  36.697  30.145   5.396
 3920POPC   PO451960  37.009  29.457   5.439
 3920POPC   GL151961  36.934  29.847   5.731
 3920POPC   GL251962  37.039  30.232   5.800
 3920POPC   C1A51963  36.655  30.018   6.083
 3920POPC   D2A51964  36.391  29.923   6.444
 3920POPC   C3A51965  36.566  30.096   6.819
 3920POPC   C4A51966  36.557  29.912   7.228
 3920POPC   C1B51967  37.096  30.275   6.243
 3920POPC   C2B51968  37.007  29.944   6.545
 3920POPC   C3B51969  37.000  29.905   7.003
 3920POPC   C4B51970  36.893  30.299   7.187
 3921POPC   NC351971  30.634   6.569   5.402
 3921POPC   PO451972  31.217   6.915   5.331
 3921POPC   GL151973  30.937   6.918   5.740
 3921POPC   GL251974  30.855   6.598   5.845
 3921POPC   C1A51975  30.689   6.953   6.158
 3921POPC   D2A51976  30.500   6.713   6.498
 3921POPC   C3A51977  30.734   6.690   6.858
 3921POPC   C4A51978  30.601   6.838   7.240
 3921POPC   C1B51979  30.877   6.273   6.085
 3921POPC   C2B51980  30.811   6.256   6.498
 3921POPC   C3B51981  30.502   6.235   6.805
 3921POPC   C4B51982  30.466   6.330   7.242
 3922POPC   NC351983   4.436  29.294   5.358
 3922POPC   PO451984   4.818  28.822   5.549
 3922POPC   GL151985   4.531  28.870   5.888
 3922POPC   GL251986   4.194  29.022   5.809
 3922POPC   C1A51987   4.482  29.001   6.297
 3922POPC   D2A51988   4.548  29.321   6.597
 3922POPC   C3A51989   4.628  29.129   6.985
 3922POPC   C4A51990   4.356  29.046   7.287
 3922POPC   C1B51991   3.997  28.860   6.214
 3922POPC   C2B51992   4.145  28.839   6.667
 3922POPC   C3B51993   3.930  28.876   7.057
 3922POPC   C4B51994   3.903  28.960   7.492
 3923POPC   NC351995  44.233  42.653   5.288
 3923POPC   PO451996  43.776  42.259   5.183
 3923POPC   GL151997  43.882  42.514   5.632
 3923POPC   GL251998  44.197  42.730   5.791
 3923POPC   C1A51999  43.875  42.379   6.075
 3923POPC   D2A52000  43.656  42.273   6.461
 3923POPC   C3A52001  43.928  42.229   6.804
 3923POPC   C4A52002  43.787  42.280   7.224
 3923POPC   C1B52003  44.158  42.791   6.272
 3923POPC   C2B52004  44.114  42.685   6.723
 3923POPC   C3B52005  44.222  42.519   7.136
 3923POPC   C4B52006  44.366  42.765   7.462
 3924POPC   NC352007  41.169   9.931   5.500
 3924POPC   PO452008  40.555   9.928   5.496
 3924POPC   GL152009  40.770   9.733   5.793
 3924POPC   GL252010  40.531   9.462   5.837
 3924POPC   C1A52011  40.788   9.804   6.222
 3924POPC   D2A52012  41.146   9.849   6.489
 3924POPC   C3A52013  41.060   9.696   6.897
 3924POPC   C4A52014  41.076   9.909   7.279
 3924POPC   C1B52015  40.247   9.356   6.178
 3924POPC   C2B52016  40.323   9.563   6.553
 3924POPC   C3B52017  40.471   9.519   6.975
 3924POPC   C4B52018  40.610   9.777   7.309
 3925POPC   NC352019  25.854  32.002   5.362
 3925POPC   PO452020  25.961  32.678   5.490
 3925POPC   GL152021  25.823  32.315   5.756
 3925POPC   GL252022  26.099  32.076   5.832
 3925POPC   C1A52023  25.723  32.089   6.161
 3925POPC   D2A52024  25.999  32.029   6.541
 3925POPC   C3A52025  25.830  32.097   6.964
 3925POPC   C4A52026  25.801  32.440   7.299
 3925POPC   C1B52027  26.115  32.418   6.155
 3925POPC   C2B52028  26.245  32.516   6.581
 3925POPC   C3B52029  26.228  32.399   7.021
 3925POPC   C4B52030  26.356  32.471   7.452
 3926POPC   NC352031  18.100   3.781   5.530
 3926POPC   PO452032  18.671   3.416   5.346
 3926POPC   GL152033  18.503   3.541   5.751
 3926POPC   GL252034  18.358   3.233   5.765
 3926POPC   C1A52035  18.231   3.618   6.158
 3926POPC   D2A52036  18.121   3.877   6.550
 3926POPC   C3A52037  18.349   3.838   6.947
 3926POPC   C4A52038  18.206   3.714   7.334
 3926POPC   C1B52039  18.176   3.100   6.158
 3926POPC   C2B52040  18.332   3.146   6.563
 3926POPC   C3B52041  18.224   3.327   6.958
 3926POPC   C4B52042  18.463   3.253   7.319
 3927POPC   NC352043  42.923   5.908   5.433
 3927POPC   PO452044  43.506   5.680   5.475
 3927POPC   GL152045  43.314   5.740   5.856
 3927POPC   GL252046  43.641   5.768   5.992
 3927POPC   C1A52047  43.194   5.715   6.316
 3927POPC   D2A52048  42.969   5.721   6.721
 3927POPC   C3A52049  43.112   5.975   7.118
 3927POPC   C4A52050  43.483   5.891   7.412
 3927POPC   C1B52051  43.500   6.117   6.257
 3927POPC   C2B52052  43.344   6.109   6.668
 3927POPC   C3B52053  43.427   6.369   7.021
 3927POPC   C4B52054  43.458   6.414   7.462
 3928POPC   NC352055  34.035   2.424   5.477
 3928POPC   PO452056  33.889   1.742   5.428
 3928POPC   GL152057  33.854   2.049   5.793
 3928POPC   GL252058  34.168   2.228   5.917
 3928POPC   C1A52059  33.577   2.078   6.175
 3928POPC   D2A52060  33.366   1.930   6.567
 3928POPC   C3A52061  33.537   2.048   6.934
 3928POPC   C4A52062  33.721   2.029   7.297
 3928POPC   C1B52063  34.068   2.042   6.294
 3928POPC   C2B52064  33.964   2.041   6.683
 3928POPC   C3B52065  34.106   2.250   7.042
 3928POPC   C4B52066  34.259   1.934   7.250
 3929POPC   NC352067   8.262  19.428   5.164
 3929POPC   PO452068   8.182  19.913   5.605
 3929POPC   GL152069   8.250  19.888   5.996
 3929POPC   GL252070   8.305  20.262   5.934
 3929POPC   C1A52071   8.213  19.614   6.360
 3929POPC   D2A52072   8.456  19.516   6.700
 3929POPC   C3A52073   8.241  19.628   7.091
 3929POPC   C4A52074   8.334  19.442   7.512
 3929POPC   C1B52075   8.253  20.240   6.357
 3929POPC   C2B52076   8.404  20.040   6.680
 3929POPC   C3B52077   8.312  20.163   7.064
 3929POPC   C4B52078   7.984  20.234   7.309
 3930POPC   NC352079   1.485   6.195   5.498
 3930POPC   PO452080   1.149   5.731   5.141
 3930POPC   GL152081   1.246   5.730   5.637
 3930POPC   GL252082   1.565   5.688   5.772
 3930POPC   C1A52083   1.235   5.929   6.102
 3930POPC   D2A52084   0.989   6.161   6.412
 3930POPC   C3A52085   1.028   5.947   6.801
 3930POPC   C4A52086   1.291   5.956   7.159
 3930POPC   C1B52087   1.443   5.464   6.137
 3930POPC   C2B52088   1.369   5.625   6.558
 3930POPC   C3B52089   1.511   5.494   6.986
 3930POPC   C4B52090   1.448   5.573   7.441
 3931POPC   NC352091   7.195  13.807   5.383
 3931POPC   PO452092   7.487  13.194   5.449
 3931POPC   GL152093   7.446  13.504   5.779
 3931POPC   GL252094   7.375  13.852   5.841
 3931POPC   C1A52095   7.313  13.521   6.217
 3931POPC   D2A52096   7.273  13.766   6.567
 3931POPC   C3A52097   7.291  13.508   6.914
 3931POPC   C4A52098   6.986  13.265   7.197
 3931POPC   C1B52099   7.621  13.944   6.214
 3931POPC   C2B52100   7.574  14.204   6.578
 3931POPC   C3B52101   7.410  14.048   7.000
 3931POPC   C4B52102   7.288  14.012   7.454
 3932POPC   NC352103  21.635  38.925   5.452
 3932POPC   PO452104  21.270  39.599   5.308
 3932POPC   GL152105  21.326  39.340   5.671
 3932POPC   GL252106  21.497  39.601   5.838
 3932POPC   C1A52107  21.368  39.071   6.052
 3932POPC   D2A52108  21.671  39.060   6.402
 3932POPC   C3A52109  21.526  38.956   6.838
 3932POPC   C4A52110  21.615  39.225   7.194
 3932POPC   C1B52111  21.155  39.541   6.107
 3932POPC   C2B52112  21.043  39.414   6.509
 3932POPC   C3B52113  21.228  39.388   6.915
 3932POPC   C4B52114  21.106  39.427   7.368
 3933POPC   NC352115  33.427   1.912   5.522
 3933POPC   PO452116  32.716   1.957   5.466
 3933POPC   GL152117  32.880   2.137   5.813
 3933POPC   GL252118  32.719   2.463   5.832
 3933POPC   C1A52119  33.062   1.959   6.174
 3933POPC   D2A52120  32.903   1.674   6.526
 3933POPC   C3A52121  33.137   1.635   6.930
 3933POPC   C4A52122  33.133   2.001   7.227
 3933POPC   C1B52123  32.815   2.387   6.269
 3933POPC   C2B52124  32.882   2.176   6.638
 3933POPC   C3B52125  32.736   2.375   6.986
 3933POPC   C4B52126  32.839   2.620   7.299
 3934POPC   NC352127  39.224  37.690   5.469
 3934POPC   PO452128  38.623  37.803   5.719
 3934POPC   GL152129  38.989  37.535   5.890
 3934POPC   GL252130  39.189  37.851   5.944
 3934POPC   C1A52131  39.425  37.428   6.113
 3934POPC   D2A52132  39.617  37.491   6.544
 3934POPC   C3A52133  39.297  37.589   6.844
 3934POPC   C4A52134  39.147  37.393   7.201
 3934POPC   C1B52135  39.468  38.087   6.204
 3934POPC   C2B52136  39.725  38.007   6.594
 3934POPC   C3B52137  39.717  37.822   7.004
 3934POPC   C4B52138  39.370  37.913   7.250
 3935POPC   NC352139  11.900   8.594   5.496
 3935POPC   PO452140  12.319   9.071   5.508
 3935POPC   GL152141  12.175   8.869   5.868
 3935POPC   GL252142  11.862   9.009   5.822
 3935POPC   C1A52143  12.092   8.820   6.319
 3935POPC   D2A52144  12.014   8.545   6.663
 3935POPC   C3A52145  12.077   8.845   6.999
 3935POPC   C4A52146  12.385   9.177   7.047
 3935POPC   C1B52147  11.758   9.195   6.192
 3935POPC   C2B52148  11.641   9.036   6.563
 3935POPC   C3B52149  11.591   9.253   6.924
 3935POPC   C4B52150  11.692   9.072   7.272
 3936POPC   NC352151  16.665   6.494   5.346
 3936POPC   PO452152  16.838   7.074   5.417
 3936POPC   GL152153  16.739   6.845   5.784
 3936POPC   GL252154  16.410   6.730   5.879
 3936POPC   C1A52155  16.893   6.763   6.202
 3936POPC   D2A52156  17.155   6.723   6.577
 3936POPC   C3A52157  16.974   6.679   6.965
 3936POPC   C4A52158  16.796   7.034   7.066
 3936POPC   C1B52159  16.406   6.883   6.290
 3936POPC   C2B52160  16.560   6.712   6.674
 3936POPC   C3B52161  16.470   6.657   7.139
 3936POPC   C4B52162  16.309   6.407   7.474
 3937POPC   NC352163  41.803  39.564   5.347
 3937POPC   PO452164  41.380  39.083   5.431
 3937POPC   GL152165  41.541  39.366   5.760
 3937POPC   GL252166  41.943  39.355   5.782
 3937POPC   C1A52167  41.415  39.537   6.194
 3937POPC   D2A52168  41.209  39.376   6.594
 3937POPC   C3A52169  41.282  39.483   7.071
 3937POPC   C4A52170  41.342  39.383   7.539
 3937POPC   C1B52171  41.821  39.197   6.162
 3937POPC   C2B52172  41.765  39.379   6.536
 3937POPC   C3B52173  41.606  39.174   6.846
 3937POPC   C4B52174  41.671  39.148   7.245
 3938POPC   NC352175  34.240  22.085   5.417
 3938POPC   PO452176  34.729  22.459   5.485
 3938POPC   GL152177  34.573  22.200   5.808
 3938POPC   GL252178  34.672  21.850   5.691
 3938POPC   C1A52179  34.371  22.300   6.222
 3938POPC   D2A52180  34.291  22.462   6.652
 3938POPC   C3A52181  34.375  22.103   6.937
 3938POPC   C4A52182  34.552  22.020   7.330
 3938POPC   C1B52183  34.690  21.819   6.143
 3938POPC   C2B52184  34.693  22.013   6.562
 3938POPC   C3B52185  34.891  21.861   6.945
 3938POPC   C4B52186  35.095  21.989   7.323
 3939POPC   NC352187  33.801  23.777   5.433
 3939POPC   PO452188  34.414  23.543   5.414
 3939POPC   GL152189  34.111  23.640   5.829
 3939POPC   GL252190  33.692  23.606   5.893
 3939POPC   C1A52191  33.995  23.757   6.274
 3939POPC   D2A52192  34.173  23.724   6.687
 3939POPC   C3A52193  33.949  23.821   7.072
 3939POPC   C4A52194  34.127  23.961   7.459
 3939POPC   C1B52195  33.467  23.637   6.280
 3939POPC   C2B52196  33.570  23.883   6.645
 3939POPC   C3B52197  33.388  23.938   7.038
 3939POPC   C4B52198  33.409  23.550   7.245
 3940POPC   NC352199   4.539   6.583   5.333
 3940POPC   PO452200   3.894   6.480   5.361
 3940POPC   GL152201   4.151   6.366   5.730
 3940POPC   GL252202   4.406   6.631   5.846
 3940POPC   C1A52203   4.092   6.434   6.200
 3940POPC   D2A52204   4.406   6.488   6.546
 3940POPC   C3A52205   4.365   6.718   6.937
 3940POPC   C4A52206   4.283   6.449   7.315
 3940POPC   C1B52207   4.609   6.836   6.233
 3940POPC   C2B52208   4.903   6.629   6.576
 3940POPC   C3B52209   4.821   6.531   7.041
 3940POPC   C4B52210   4.615   6.799   7.417
 3941POPC   NC352211  21.055  25.312   5.519
 3941POPC   PO452212  21.451  25.700   5.124
 3941POPC   GL152213  21.516  25.498   5.671
 3941POPC   GL252214  21.390  25.627   6.033
 3941POPC   C1A52215  21.493  25.153   6.050
 3941POPC   D2A52216  21.580  25.266   6.510
 3941POPC   C3A52217  21.494  25.071   6.903
 3941POPC   C4A52218  21.663  25.248   7.291
 3941POPC   C1B52219  21.110  25.379   6.316
 3941POPC   C2B52220  21.018  25.278   6.753
 3941POPC   C3B52221  21.050  25.259   7.192
 3941POPC   C4B52222  20.692  25.364   7.431
 3942POPC   NC352223  28.893   3.439   5.319
 3942POPC   PO452224  29.372   3.876   5.485
 3942POPC   GL152225  29.104   3.626   5.785
 3942POPC   GL252226  28.914   3.284   5.796
 3942POPC   C1A52227  29.235   3.461   6.178
 3942POPC   D2A52228  29.289   3.627   6.565
 3942POPC   C3A52229  29.354   3.372   6.889
 3942POPC   C4A52230  29.338   3.541   7.282
 3942POPC   C1B52231  28.727   3.398   6.163
 3942POPC   C2B52232  28.884   3.321   6.564
 3942POPC   C3B52233  28.887   3.546   6.933
 3942POPC   C4B52234  28.859   3.315   7.288
 3943POPC   NC352235  36.993   1.764   5.435
 3943POPC   PO452236  36.517   2.202   5.479
 3943POPC   GL152237  36.752   2.018   5.789
 3943POPC   GL252238  37.092   2.129   5.795
 3943POPC   C1A52239  36.739   1.703   6.102
 3943POPC   D2A52240  36.960   1.693   6.495
 3943POPC   C3A52241  36.729   1.649   6.873
 3943POPC   C4A52242  36.785   1.778   7.303
 3943POPC   C1B52243  36.950   2.164   6.225
 3943POPC   C2B52244  36.931   2.371   6.597
 3943POPC   C3B52245  36.886   2.136   6.946
 3943POPC   C4B52246  37.002   2.257   7.347
 3944POPC   NC352247  40.360  32.706   5.370
 3944POPC   PO452248  39.724  32.951   5.499
 3944POPC   GL152249  39.904  33.002   5.899
 3944POPC   GL252250  40.245  33.039   5.781
 3944POPC   C1A52251  39.888  33.017   6.356
 3944POPC   D2A52252  40.122  32.722   6.663
 3944POPC   C3A52253  40.086  32.854   7.100
 3944POPC   C4A52254  39.646  32.780   7.165
 3944POPC   C1B52255  40.388  32.930   6.202
 3944POPC   C2B52256  40.324  33.199   6.572
 3944POPC   C3B52257  40.384  33.415   6.963
 3944POPC   C4B52258  40.238  33.321   7.371
 3945POPC   NC352259  32.238   0.679   5.447
 3945POPC   PO452260  32.321   0.055   5.398
 3945POPC   GL152261  32.306   0.288   5.780
 3945POPC   GL252262  32.642   0.425   5.687
 3945POPC   C1A52263  32.213   0.286   6.250
 3945POPC   D2A52264  32.260   0.102   6.697
 3945POPC   C3A52265  32.176   0.393   7.054
 3945POPC   C4A52266  31.966   0.361   7.469
 3945POPC   C1B52267  32.589   0.662   6.094
 3945POPC   C2B52268  32.601   0.713   6.579
 3945POPC   C3B52269  32.455   0.823   7.035
 3945POPC   C4B52270  32.401   0.630   7.473
 3946POPC   NC352271  36.212  37.698   5.096
 3946POPC   PO452272  35.968  37.561   5.685
 3946POPC   GL152273  36.085  37.865   5.924
 3946POPC   GL252274  35.774  38.078   5.920
 3946POPC   C1A52275  36.289  37.772   6.324
 3946POPC   D2A52276  36.514  37.509   6.632
 3946POPC   C3A52277  36.346  37.785   6.935
 3946POPC   C4A52278  35.967  37.714   7.131
 3946POPC   C1B52279  35.768  37.872   6.313
 3946POPC   C2B52280  35.915  37.968   6.678
 3946POPC   C3B52281  35.675  38.097   6.995
 3946POPC   C4B52282  35.803  38.161   7.381
 3947POPC   NC352283  25.732  20.076   5.394
 3947POPC   PO452284  26.152  19.566   5.234
 3947POPC   GL152285  26.021  19.759   5.707
 3947POPC   GL252286  25.735  19.657   5.928
 3947POPC   C1A52287  25.901  20.107   6.080
 3947POPC   D2A52288  25.896  20.310   6.518
 3947POPC   C3A52289  25.920  20.121   6.953
 3947POPC   C4A52290  26.160  20.126   7.340
 3947POPC   C1B52291  26.125  19.673   6.213
 3947POPC   C2B52292  26.037  19.686   6.661
 3947POPC   C3B52293  25.818  19.612   7.060
 3947POPC   C4B52294  25.877  19.717   7.507
 3948POPC   NC352295  29.741  25.189   5.411
 3948POPC   PO452296  30.077  25.799   5.196
 3948POPC   GL152297  30.102  25.618   5.638
 3948POPC   GL252298  29.749  25.653   5.685
 3948POPC   C1A52299  30.127  25.489   6.116
 3948POPC   D2A52300  29.876  25.385   6.526
 3948POPC   C3A52301  29.986  25.194   6.947
 3948POPC   C4A52302  30.278  24.883   7.102
 3948POPC   C1B52303  29.623  25.629   6.111
 3948POPC   C2B52304  29.593  25.842   6.484
 3948POPC   C3B52305  29.637  25.695   6.874
 3948POPC   C4B52306  29.672  25.475   7.241
 3949POPC   NC352307   7.828  35.957   5.670
 3949POPC   PO452308   8.503  36.201   5.460
 3949POPC   GL152309   8.354  35.966   5.796
 3949POPC   GL252310   8.198  36.233   5.932
 3949POPC   C1A52311   8.359  35.921   6.264
 3949POPC   D2A52312   8.221  36.250   6.578
 3949POPC   C3A52313   8.120  35.980   6.859
 3949POPC   C4A52314   8.414  36.029   7.138
 3949POPC   C1B52315   7.871  36.069   6.277
 3949POPC   C2B52316   7.677  36.393   6.486
 3949POPC   C3B52317   7.759  36.386   6.891
 3949POPC   C4B52318   7.985  36.268   7.273
 3950POPC   NC352319  40.520  43.687   5.383
 3950POPC   PO452320  40.678  44.364   5.336
 3950POPC   GL152321  40.851  44.053   5.699
 3950POPC   GL252322  40.632  43.838   5.850
 3950POPC   C1A52323  40.970  44.029   6.196
 3950POPC   D2A52324  40.755  44.282   6.527
 3950POPC   C3A52325  40.753  44.134   6.945
 3950POPC   C4A52326  40.954  44.164   7.347
 3950POPC   C1B52327  40.674  43.640   6.228
 3950POPC   C2B52328  40.894  43.699   6.636
 3950POPC   C3B52329  41.089  43.717   7.050
 3950POPC   C4B52330  40.947  43.687   7.487
 3951POPC   NC352331  27.248  33.989   5.162
 3951POPC   PO452332  27.650  33.452   5.283
 3951POPC   GL152333  27.648  33.594   5.702
 3951POPC   GL252334  27.503  33.930   5.709
 3951POPC   C1A52335  27.586  33.637   6.139
 3951POPC   D2A52336  27.739  33.856   6.498
 3951POPC   C3A52337  27.622  33.602   6.855
 3951POPC   C4A52338  27.593  33.707   7.271
 3951POPC   C1B52339  27.596  34.161   6.069
 3951POPC   C2B52340  27.388  34.254   6.460
 3951POPC   C3B52341  27.451  34.089   6.878
 3951POPC   C4B52342  27.743  34.181   7.205
 3952POPC   NC352343  38.140  25.577   5.151
 3952POPC   PO452344  37.635  25.177   5.375
 3952POPC   GL152345  37.632  25.342   5.770
 3952POPC   GL252346  37.950  25.482   5.717
 3952POPC   C1A52347  37.556  25.265   6.206
 3952POPC   D2A52348  37.802  25.307   6.564
 3952POPC   C3A52349  37.645  25.219   6.955
 3952POPC   C4A52350  37.427  25.305   7.311
 3952POPC   C1B52351  37.946  25.665   6.153
 3952POPC   C2B52352  38.198  25.648   6.541
 3952POPC   C3B52353  37.952  25.666   6.899
 3952POPC   C4B52354  37.890  25.550   7.311
 3953POPC   NC352355  38.585  16.170   5.042
 3953POPC   PO452356  38.142  16.044   5.541
 3953POPC   GL152357  38.199  15.989   5.939
 3953POPC   GL252358  38.536  15.979   6.074
 3953POPC   C1A52359  38.083  16.016   6.364
 3953POPC   D2A52360  38.254  16.229   6.738
 3953POPC   C3A52361  38.382  15.915   7.012
 3953POPC   C4A52362  38.712  15.666   7.187
 3953POPC   C1B52363  38.625  16.390   6.283
 3953POPC   C2B52364  38.802  16.478   6.703
 3953POPC   C3B52365  38.689  16.321   7.140
 3953POPC   C4B52366  38.472  16.412   7.549
 3954POPC   NC352367  31.126  16.833   5.345
 3954POPC   PO452368  31.742  17.118   5.383
 3954POPC   GL152369  31.541  17.009   5.801
 3954POPC   GL252370  31.235  16.809   5.845
 3954POPC   C1A52371  31.654  16.658   6.135
 3954POPC   D2A52372  31.595  16.459   6.565
 3954POPC   C3A52373  31.755  16.643   6.949
 3954POPC   C4A52374  31.563  16.862   7.303
 3954POPC   C1B52375  31.297  16.982   6.283
 3954POPC   C2B52376  31.277  16.908   6.752
 3954POPC   C3B52377  31.250  16.526   6.998
 3954POPC   C4B52378  31.472  16.364   7.357
 3955POPC   NC352379  14.420  26.509   4.990
 3955POPC   PO452380  14.730  25.938   5.312
 3955POPC   GL152381  14.569  25.841   5.760
 3955POPC   GL252382  14.350  26.104   5.927
 3955POPC   C1A52383  14.416  25.691   6.161
 3955POPC   D2A52384  14.174  25.968   6.457
 3955POPC   C3A52385  14.360  25.996   6.883
 3955POPC   C4A52386  14.291  25.756   7.281
 3955POPC   C1B52387  14.304  26.439   6.246
 3955POPC   C2B52388  14.178  26.566   6.675
 3955POPC   C3B52389  14.312  26.470   7.108
 3955POPC   C4B52390  14.407  26.214   7.479
 3956POPC   NC352391   6.708   1.121   5.360
 3956POPC   PO452392   6.397   1.765   5.471
 3956POPC   GL152393   6.655   1.608   5.828
 3956POPC   GL252394   6.746   1.235   5.852
 3956POPC   C1A52395   6.643   1.550   6.281
 3956POPC   D2A52396   6.602   1.263   6.591
 3956POPC   C3A52397   6.487   1.432   6.968
 3956POPC   C4A52398   6.406   1.139   7.241
 3956POPC   C1B52399   7.018   1.222   6.199
 3956POPC   C2B52400   7.091   1.366   6.638
 3956POPC   C3B52401   6.936   1.150   7.032
 3956POPC   C4B52402   7.104   0.947   7.393
 3957POPC   NC352403  35.883  12.841   5.126
 3957POPC   PO452404  35.243  12.688   5.377
 3957POPC   GL152405  35.461  12.832   5.751
 3957POPC   GL252406  35.208  13.081   5.795
 3957POPC   C1A52407  35.587  12.983   6.179
 3957POPC   D2A52408  35.339  13.048   6.557
 3957POPC   C3A52409  35.471  12.898   6.933
 3957POPC   C4A52410  35.383  12.509   7.049
 3957POPC   C1B52411  35.075  12.843   6.144
 3957POPC   C2B52412  34.757  12.807   6.450
 3957POPC   C3B52413  34.913  12.751   6.857
 3957POPC   C4B52414  35.059  12.823   7.256
 3958POPC   NC352415  26.089  36.425   5.661
 3958POPC   PO452416  26.136  35.767   5.554
 3958POPC   GL152417  26.064  35.973   5.936
 3958POPC   GL252418  25.743  36.044   5.832
 3958POPC   C1A52419  26.071  36.303   6.287
 3958POPC   D2A52420  26.165  36.505   6.686
 3958POPC   C3A52421  26.004  36.244   6.996
 3958POPC   C4A52422  25.967  35.993   7.398
 3958POPC   C1B52423  25.699  35.934   6.278
 3958POPC   C2B52424  25.775  35.855   6.731
 3958POPC   C3B52425  25.536  36.043   7.089
 3958POPC   C4B52426  25.522  36.128   7.562
 3959POPC   NC352427   6.732   7.083   5.194
 3959POPC   PO452428   6.362   6.620   5.527
 3959POPC   GL152429   6.623   6.763   5.855
 3959POPC   GL252430   6.793   7.109   5.767
 3959POPC   C1A52431   6.710   6.499   6.242
 3959POPC   D2A52432   6.744   6.218   6.626
 3959POPC   C3A52433   6.778   6.509   6.945
 3959POPC   C4A52434   6.689   6.601   7.390
 3959POPC   C1B52435   6.796   7.025   6.237
 3959POPC   C2B52436   6.520   6.875   6.588
 3959POPC   C3B52437   6.548   6.947   7.026
 3959POPC   C4B52438   7.005   6.917   7.164
 3960POPC   NC352439  33.728  26.578   5.497
 3960POPC   PO452440  33.708  25.844   5.525
 3960POPC   GL152441  33.861  26.078   5.842
 3960POPC   GL252442  34.081  26.298   5.772
 3960POPC   C1A52443  33.901  25.978   6.278
 3960POPC   D2A52444  33.842  25.833   6.683
 3960POPC   C3A52445  33.667  25.888   7.081
 3960POPC   C4A52446  33.957  26.122   7.282
 3960POPC   C1B52447  34.222  26.354   6.189
 3960POPC   C2B52448  34.212  26.215   6.612
 3960POPC   C3B52449  34.233  26.418   6.970
 3960POPC   C4B52450  34.161  26.570   7.370
 3961POPC   NC352451  31.904  11.341   5.167
 3961POPC   PO452452  31.266  11.160   5.474
 3961POPC   GL152453  31.360  11.406   5.793
 3961POPC   GL252454  31.708  11.458   5.674
 3961POPC   C1A52455  31.251  11.445   6.223
 3961POPC   D2A52456  31.454  11.381   6.581
 3961POPC   C3A52457  31.311  11.398   6.985
 3961POPC   C4A52458  31.555  11.343   7.347
 3961POPC   C1B52459  31.736  11.216   6.081
 3961POPC   C2B52460  31.792  11.016   6.485
 3961POPC   C3B52461  31.670  11.035   6.899
 3961POPC   C4B52462  31.794  10.901   7.285
 3962POPC   NC352463  26.944  35.355   4.938
 3962POPC   PO452464  26.549  34.927   5.370
 3962POPC   GL152465  26.763  35.240   5.698
 3962POPC   GL252466  26.593  35.579   5.798
 3962POPC   C1A52467  26.760  35.224   6.164
 3962POPC   D2A52468  26.978  35.046   6.502
 3962POPC   C3A52469  26.792  35.109   6.876
 3962POPC   C4A52470  26.744  35.185   7.306
 3962POPC   C1B52471  26.938  35.674   6.025
 3962POPC   C2B52472  27.007  35.667   6.451
 3962POPC   C3B52473  26.975  35.858   6.833
 3962POPC   C4B52474  26.689  35.644   7.085
 3963POPC   NC352475  33.955  26.159   5.293
 3963POPC   PO452476  34.437  25.711   5.456
 3963POPC   GL152477  34.357  25.888   5.866
 3963POPC   GL252478  34.610  26.168   5.922
 3963POPC   C1A52479  34.480  25.886   6.300
 3963POPC   D2A52480  34.665  25.966   6.678
 3963POPC   C3A52481  34.411  25.924   7.054
 3963POPC   C4A52482  34.350  25.869   7.512
 3963POPC   C1B52483  34.735  26.397   6.314
 3963POPC   C2B52484  34.745  26.473   6.763
 3963POPC   C3B52485  34.693  26.345   7.187
 3963POPC   C4B52486  34.591  26.334   7.623
 3964POPC   NC352487  35.001   9.024   5.418
 3964POPC   PO452488  35.678   8.764   5.506
 3964POPC   GL152489  35.435   9.016   5.783
 3964POPC   GL252490  35.139   8.812   5.858
 3964POPC   C1A52491  35.379   9.162   6.236
 3964POPC   D2A52492  35.335   9.393   6.656
 3964POPC   C3A52493  35.317   9.126   7.041
 3964POPC   C4A52494  35.277   9.156   7.501
 3964POPC   C1B52495  35.232   8.663   6.268
 3964POPC   C2B52496  35.366   8.751   6.675
 3964POPC   C3B52497  35.248   8.595   7.080
 3964POPC   C4B52498  35.064   8.705   7.517
 3965POPC   NC352499  22.100  16.262   5.053
 3965POPC   PO452500  21.872  15.838   5.564
 3965POPC   GL152501  22.106  15.761   5.897
 3965POPC   GL252502  22.387  15.955   5.823
 3965POPC   C1A52503  22.016  15.811   6.316
 3965POPC   D2A52504  21.835  16.163   6.493
 3965POPC   C3A52505  21.860  16.147   6.913
 3965POPC   C4A52506  21.998  15.747   7.059
 3965POPC   C1B52507  22.339  16.191   6.209
 3965POPC   C2B52508  22.592  16.231   6.558
 3965POPC   C3B52509  22.380  16.205   6.929
 3965POPC   C4B52510  22.395  15.992   7.268
 3966POPC   NC352511   2.944  13.723   5.351
 3966POPC   PO452512   2.462  13.212   5.271
 3966POPC   GL152513   2.588  13.483   5.708
 3966POPC   GL252514   2.888  13.669   5.838
 3966POPC   C1A52515   2.557  13.551   6.210
 3966POPC   D2A52516   2.569  13.765   6.656
 3966POPC   C3A52517   2.656  13.657   7.097
 3966POPC   C4A52518   3.009  13.932   6.997
 3966POPC   C1B52519   3.144  13.571   6.164
 3966POPC   C2B52520   3.079  13.612   6.570
 3966POPC   C3B52521   3.035  13.403   6.931
 3966POPC   C4B52522   3.185  13.558   7.331
 3967POPC   NC352523  22.752  25.283   5.563
 3967POPC   PO452524  23.325  24.928   5.361
 3967POPC   GL152525  23.157  25.066   5.858
 3967POPC   GL252526  22.800  25.109   6.041
 3967POPC   C1A52527  23.172  25.137   6.362
 3967POPC   D2A52528  22.756  25.135   6.608
 3967POPC   C3A52529  22.815  25.056   7.064
 3967POPC   C4A52530  23.099  25.264   7.378
 3967POPC   C1B52531  22.866  25.541   6.271
 3967POPC   C2B52532  22.698  25.725   6.678
 3967POPC   C3B52533  22.794  25.605   7.153
 3967POPC   C4B52534  22.792  25.612   7.636
 3968POPC   NC352535  25.609  28.364   5.135
 3968POPC   PO452536  26.306  28.371   5.397
 3968POPC   GL152537  26.243  28.277   5.833
 3968POPC   GL252538  25.845  28.317   5.844
 3968POPC   C1A52539  26.184  28.351   6.242
 3968POPC   D2A52540  26.219  28.596   6.589
 3968POPC   C3A52541  26.216  28.369   6.954
 3968POPC   C4A52542  26.237  28.486   7.349
 3968POPC   C1B52543  25.736  28.120   6.214
 3968POPC   C2B52544  25.858  28.178   6.628
 3968POPC   C3B52545  25.715  28.288   7.031
 3968POPC   C4B52546  25.742  28.218   7.466
 3969POPC   NC352547  25.685  31.145   5.508
 3969POPC   PO452548  26.118  31.646   5.264
 3969POPC   GL152549  26.010  31.578   5.694
 3969POPC   GL252550  25.684  31.726   5.775
 3969POPC   C1A52551  26.041  31.655   6.159
 3969POPC   D2A52552  25.862  31.529   6.573
 3969POPC   C3A52553  26.057  31.630   6.978
 3969POPC   C4A52554  26.131  31.314   7.275
 3969POPC   C1B52555  25.526  31.613   6.184
 3969POPC   C2B52556  25.494  31.873   6.580
 3969POPC   C3B52557  25.524  31.687   6.972
 3969POPC   C4B52558  25.681  31.733   7.388
 3970POPC   NC352559  36.567  14.186   5.564
 3970POPC   PO452560  36.043  14.612   5.315
 3970POPC   GL152561  35.971  14.553   5.736
 3970POPC   GL252562  36.341  14.609   5.772
 3970POPC   C1A52563  35.936  14.389   6.174
 3970POPC   D2A52564  36.261  14.425   6.523
 3970POPC   C3A52565  36.176  14.269   6.944
 3970POPC   C4A52566  35.918  14.287   7.296
 3970POPC   C1B52567  36.224  14.823   6.152
 3970POPC   C2B52568  36.310  14.964   6.568
 3970POPC   C3B52569  36.288  14.774   6.970
 3970POPC   C4B52570  36.082  14.757   7.373
 3971POPC   NC352571  12.907  21.646   5.474
 3971POPC   PO452572  12.727  21.113   5.082
 3971POPC   GL152573  12.769  21.191   5.622
 3971POPC   GL252574  12.567  21.500   5.844
 3971POPC   C1A52575  12.961  21.266   6.065
 3971POPC   D2A52576  12.961  21.097   6.496
 3971POPC   C3A52577  13.062  21.254   6.929
 3971POPC   C4A52578  12.806  21.054   7.278
 3971POPC   C1B52579  12.506  21.319   6.304
 3971POPC   C2B52580  12.549  21.258   6.781
 3971POPC   C3B52581  12.675  21.533   7.119
 3971POPC   C4B52582  13.063  21.753   7.106
 3972POPC   NC352583  33.548  22.818   5.310
 3972POPC   PO452584  33.859  23.296   5.537
 3972POPC   GL152585  33.938  22.942   5.779
 3972POPC   GL252586  33.596  22.839   5.824
 3972POPC   C1A52587  34.132  22.968   6.188
 3972POPC   D2A52588  34.071  23.213   6.551
 3972POPC   C3A52589  34.109  22.937   6.898
 3972POPC   C4A52590  34.140  23.032   7.324
 3972POPC   C1B52591  33.662  23.158   6.171
 3972POPC   C2B52592  33.509  23.192   6.594
 3972POPC   C3B52593  33.647  23.135   7.023
 3972POPC   C4B52594  33.482  22.909   7.363
 3973POPC   NC352595  40.724   7.557   5.485
 3973POPC   PO452596  41.178   7.240   5.533
 3973POPC   GL152597  40.963   7.475   5.927
 3973POPC   GL252598  40.695   7.235   5.908
 3973POPC   C1A52599  40.579   7.599   6.235
 3973POPC   D2A52600  40.460   7.455   6.648
 3973POPC   C3A52601  40.582   7.536   7.073
 3973POPC   C4A52602  40.867   7.498   7.432
 3973POPC   C1B52603  40.830   7.159   6.341
 3973POPC   C2B52604  40.653   6.979   6.720
 3973POPC   C3B52605  40.825   7.081   7.117
 3973POPC   C4B52606  41.250   7.249   7.230
 3974POPC   NC352607  22.771  21.471   5.408
 3974POPC   PO452608  23.326  21.654   5.131
 3974POPC   GL152609  23.238  21.524   5.651
 3974POPC   GL252610  22.996  21.300   5.843
 3974POPC   C1A52611  23.259  21.712   6.120
 3974POPC   D2A52612  23.450  21.795   6.574
 3974POPC   C3A52613  23.266  21.538   6.942
 3974POPC   C4A52614  23.024  21.696   7.310
 3974POPC   C1B52615  22.774  21.055   6.186
 3974POPC   C2B52616  22.627  21.139   6.615
 3974POPC   C3B52617  22.762  21.375   7.002
 3974POPC   C4B52618  22.707  21.280   7.448
 3975POPC   NC352619  30.571  44.076   5.408
 3975POPC   PO452620  31.163  44.001   5.559
 3975POPC   GL152621  30.866  43.846   5.879
 3975POPC   GL252622  30.474  43.816   5.883
 3975POPC   C1A52623  30.776  44.006   6.298
 3975POPC   D2A52624  30.695  44.249   6.664
 3975POPC   C3A52625  30.713  44.004   7.022
 3975POPC   C4A52626  31.080  43.912   7.271
 3975POPC   C1B52627  30.645  43.507   6.211
 3975POPC   C2B52628  30.850  43.347   6.591
 3975POPC   C3B52629  30.718  43.473   7.019
 3975POPC   C4B52630  30.777  43.533   7.456
 3976POPC   NC352631  17.729  10.727   5.005
 3976POPC   PO452632  17.299  10.436   5.433
 3976POPC   GL152633  17.593  10.675   5.752
 3976POPC   GL252634  17.319  10.779   5.846
 3976POPC   C1A52635  17.783  10.508   6.154
 3976POPC   D2A52636  17.598  10.269   6.495
 3976POPC   C3A52637  17.742  10.469   6.845
 3976POPC   C4A52638  17.858  10.431   7.231
 3976POPC   C1B52639  17.248  10.532   6.202
 3976POPC   C2B52640  17.284  10.620   6.657
 3976POPC   C3B52641  17.256  10.435   7.050
 3976POPC   C4B52642  17.007  10.680   7.282
 3977POPC   NC352643  37.015  19.677   5.260
 3977POPC   PO452644  36.622  20.119   5.506
 3977POPC   GL152645  36.721  19.846   5.837
 3977POPC   GL252646  36.974  19.605   5.760
 3977POPC   C1A52647  36.700  19.945   6.274
 3977POPC   D2A52648  36.612  19.754   6.639
 3977POPC   C3A52649  36.693  19.995   6.978
 3977POPC   C4A52650  37.021  20.001   7.281
 3977POPC   C1B52651  36.944  19.439   6.168
 3977POPC   C2B52652  37.016  19.267   6.589
 3977POPC   C3B52653  36.968  19.526   6.964
 3977POPC   C4B52654  36.711  19.567   7.308
 3978POPC   NC352655  43.247  37.439   5.472
 3978POPC   PO452656  42.785  37.938   5.416
 3978POPC   GL152657  42.950  37.680   5.799
 3978POPC   GL252658  43.293  37.769   5.855
 3978POPC   C1A52659  43.152  37.373   6.130
 3978POPC   D2A52660  43.087  37.493   6.556
 3978POPC   C3A52661  43.135  37.286   6.942
 3978POPC   C4A52662  43.204  37.477   7.347
 3978POPC   C1B52663  43.229  37.866   6.238
 3978POPC   C2B52664  43.404  37.930   6.624
 3978POPC   C3B52665  43.180  37.847   6.961
 3978POPC   C4B52666  43.207  37.981   7.330
 3979POPC   NC352667  44.334  17.594   5.111
 3979POPC   PO452668  43.727  17.630   5.472
 3979POPC   GL152669  43.966  17.422   5.795
 3979POPC   GL252670  43.739  17.205   5.991
 3979POPC   C1A52671  44.197  17.340   6.191
 3979POPC   D2A52672  44.102  17.477   6.622
 3979POPC   C3A52673  44.267  17.309   6.989
 3979POPC   C4A52674  44.124  17.490   7.370
 3979POPC   C1B52675  43.749  17.579   6.273
 3979POPC   C2B52676  43.602  17.655   6.704
 3979POPC   C3B52677  43.748  17.705   7.127
 3979POPC   C4B52678  43.774  17.774   7.600
 3980POPC   NC352679  21.905   2.151   5.480
 3980POPC   PO452680  22.210   1.659   5.601
 3980POPC   GL152681  22.002   1.937   5.935
 3980POPC   GL252682  22.153   2.289   5.895
 3980POPC   C1A52683  21.941   1.844   6.376
 3980POPC   D2A52684  22.218   1.922   6.751
 3980POPC   C3A52685  22.142   1.658   7.142
 3980POPC   C4A52686  22.198   1.382   7.531
 3980POPC   C1B52687  21.925   2.365   6.266
 3980POPC   C2B52688  21.776   2.226   6.671
 3980POPC   C3B52689  21.891   2.117   7.072
 3980POPC   C4B52690  22.116   2.082   7.436
 3981POPC   NC352691  16.388  30.186   5.384
 3981POPC   PO452692  17.017  30.186   5.071
 3981POPC   GL152693  16.869  30.054   5.568
 3981POPC   GL252694  16.646  29.747   5.681
 3981POPC   C1A52695  16.856  30.006   6.064
 3981POPC   D2A52696  16.592  30.032   6.478
 3981POPC   C3A52697  16.624  30.074   6.953
 3981POPC   C4A52698  16.523  30.398   7.257
 3981POPC   C1B52699  16.508  29.620   6.148
 3981POPC   C2B52700  16.583  29.515   6.607
 3981POPC   C3B52701  16.571  29.571   7.083
 3981POPC   C4B52702  16.668  29.427   7.545
 3982POPC   NC352703   4.034  26.696   5.339
 3982POPC   PO452704   4.654  26.661   5.530
 3982POPC   GL152705   4.371  26.908   5.854
 3982POPC   GL252706   3.989  26.944   5.814
 3982POPC   C1A52707   4.191  27.101   6.274
 3982POPC   D2A52708   4.089  27.078   6.719
 3982POPC   C3A52709   4.335  26.924   7.055
 3982POPC   C4A52710   4.267  26.795   7.487
 3982POPC   C1B52711   4.085  26.614   6.171
 3982POPC   C2B52712   4.394  26.685   6.526
 3982POPC   C3B52713   4.650  26.558   6.879
 3982POPC   C4B52714   4.452  26.398   7.218
 3983POPC   NC352715  22.788   5.267   5.554
 3983POPC   PO452716  23.155   4.850   5.201
 3983POPC   GL152717  23.191   4.974   5.646
 3983POPC   GL252718  23.326   5.314   5.742
 3983POPC   C1A52719  23.215   4.950   6.119
 3983POPC   D2A52720  22.858   5.151   6.399
 3983POPC   C3A52721  22.827   5.156   6.857
 3983POPC   C4A52722  22.647   4.968   7.223
 3983POPC   C1B52723  23.240   5.432   6.184
 3983POPC   C2B52724  23.384   5.224   6.550
 3983POPC   C3B52725  23.301   5.148   6.974
 3983POPC   C4B52726  23.069   5.310   7.331
 3984POPC   NC352727  21.717  25.354   5.241
 3984POPC   PO452728  22.324  25.293   5.391
 3984POPC   GL152729  22.311  25.202   5.820
 3984POPC   GL252730  21.951  25.232   5.767
 3984POPC   C1A52731  22.400  25.385   6.202
 3984POPC   D2A52732  22.210  25.456   6.575
 3984POPC   C3A52733  22.409  25.382   6.938
 3984POPC   C4A52734  22.163  25.467   7.273
 3984POPC   C1B52735  21.968  25.152   6.195
 3984POPC   C2B52736  22.105  24.969   6.537
 3984POPC   C3B52737  22.008  25.098   6.932
 3984POPC   C4B52738  22.314  24.890   7.174
 3985POPC   NC352739   2.178  30.364   5.378
 3985POPC   PO452740   1.845  31.022   5.427
 3985POPC   GL152741   1.859  30.666   5.743
 3985POPC   GL252742   2.210  30.613   5.825
 3985POPC   C1A52743   1.804  30.625   6.217
 3985POPC   D2A52744   1.612  30.568   6.626
 3985POPC   C3A52745   1.764  30.721   7.059
 3985POPC   C4A52746   2.076  31.008   7.219
 3985POPC   C1B52747   2.300  30.688   6.276
 3985POPC   C2B52748   2.124  30.595   6.682
 3985POPC   C3B52749   2.297  30.578   7.091
 3985POPC   C4B52750   2.610  30.798   7.376
 3986POPC   NC352751  37.088  33.354   5.466
 3986POPC   PO452752  36.692  32.846   5.295
 3986POPC   GL152753  36.866  32.836   5.710
 3986POPC   GL252754  36.753  33.161   5.801
 3986POPC   C1A52755  36.907  32.854   6.187
 3986POPC   D2A52756  37.107  32.906   6.605
 3986POPC   C3A52757  36.985  32.877   7.045
 3986POPC   C4A52758  36.743  32.809   7.432
 3986POPC   C1B52759  36.777  33.378   6.200
 3986POPC   C2B52760  36.710  33.569   6.634
 3986POPC   C3B52761  36.893  33.637   7.030
 3986POPC   C4B52762  36.950  33.325   7.355
 3987POPC   NC352763  44.271  34.983   5.481
 3987POPC   PO452764  43.842  34.637   5.271
 3987POPC   GL152765  43.928  34.669   5.733
 3987POPC   GL252766  44.207  34.455   5.803
 3987POPC   C1A52767  43.682  34.607   6.140
 3987POPC   D2A52768  43.700  34.883   6.524
 3987POPC   C3A52769  43.756  34.705   6.965
 3987POPC   C4A52770  44.004  34.885   7.281
 3987POPC   C1B52771  44.219  34.213   6.225
 3987POPC   C2B52772  44.097  34.313   6.671
 3987POPC   C3B52773  44.192  34.414   7.120
 3987POPC   C4B52774  44.311  34.264   7.552
 3988POPC   NC352775  26.601  12.247   5.458
 3988POPC   PO452776  27.058  11.753   5.350
 3988POPC   GL152777  26.877  11.964   5.755
 3988POPC   GL252778  26.551  11.898   5.912
 3988POPC   C1A52779  26.852  12.297   6.100
 3988POPC   D2A52780  27.062  12.428   6.504
 3988POPC   C3A52781  27.021  12.314   6.939
 3988POPC   C4A52782  26.824  12.213   7.338
 3988POPC   C1B52783  26.888  11.809   6.237
 3988POPC   C2B52784  26.942  11.891   6.666
 3988POPC   C3B52785  26.926  11.783   7.092
 3988POPC   C4B52786  27.168  11.807   7.436
 3989POPC   NC352787  40.325  41.669   5.231
 3989POPC   PO452788  39.882  41.360   5.675
 3989POPC   GL152789  39.923  41.631   5.973
 3989POPC   GL252790  40.252  41.672   6.035
 3989POPC   C1A52791  39.679  41.717   6.280
 3989POPC   D2A52792  39.866  41.726   6.625
 3989POPC   C3A52793  39.955  41.380   6.845
 3989POPC   C4A52794  39.794  41.457   7.218
 3989POPC   C1B52795  40.112  41.303   6.321
 3989POPC   C2B52796  40.330  41.096   6.654
 3989POPC   C3B52797  40.515  41.367   6.935
 3989POPC   C4B52798  40.294  41.548   7.223
 3990POPC   NC352799  26.398  18.236   5.385
 3990POPC   PO452800  25.888  18.705   5.452
 3990POPC   GL152801  26.209  18.555   5.755
 3990POPC   GL252802  26.159  18.170   5.811
 3990POPC   C1A52803  26.353  18.447   6.167
 3990POPC   D2A52804  26.202  18.411   6.542
 3990POPC   C3A52805  26.466  18.389   6.859
 3990POPC   C4A52806  26.376  18.424   7.253
 3990POPC   C1B52807  26.102  17.990   6.199
 3990POPC   C2B52808  25.823  18.081   6.524
 3990POPC   C3B52809  26.008  18.105   6.939
 3990POPC   C4B52810  25.721  17.999   7.263
 3991POPC   NC352811   7.675  24.261   5.595
 3991POPC   PO452812   7.391  24.649   5.159
 3991POPC   GL152813   7.263  24.559   5.664
 3991POPC   GL252814   7.143  24.202   5.680
 3991POPC   C1A52815   7.422  24.597   6.181
 3991POPC   D2A52816   7.618  24.523   6.603
 3991POPC   C3A52817   7.576  24.691   7.054
 3991POPC   C4A52818   7.619  24.546   7.521
 3991POPC   C1B52819   6.982  24.404   6.051
 3991POPC   C2B52820   6.984  24.568   6.451
 3991POPC   C3B52821   7.133  24.543   6.856
 3991POPC   C4B52822   7.171  24.448   7.289
 3992POPC   NC352823  19.824  38.857   5.194
 3992POPC   PO452824  19.693  39.498   5.467
 3992POPC   GL152825  19.905  39.112   5.699
 3992POPC   GL252826  19.672  38.991   5.976
 3992POPC   C1A52827  20.147  39.101   6.112
 3992POPC   D2A52828  20.107  39.388   6.498
 3992POPC   C3A52829  20.213  39.204   6.922
 3992POPC   C4A52830  20.092  39.419   7.274
 3992POPC   C1B52831  19.694  39.400   6.163
 3992POPC   C2B52832  19.601  39.526   6.576
 3992POPC   C3B52833  19.701  39.315   6.953
 3992POPC   C4B52834  19.796  38.967   7.239
 3993POPC   NC352835   6.250  19.103   5.383
 3993POPC   PO452836   6.896  19.226   5.187
 3993POPC   GL152837   6.836  19.163   5.689
 3993POPC   GL252838   6.539  19.198   5.786
 3993POPC   C1A52839   6.886  19.189   6.173
 3993POPC   D2A52840   6.802  19.459   6.576
 3993POPC   C3A52841   6.933  19.314   7.015
 3993POPC   C4A52842   6.991  18.925   7.266
 3993POPC   C1B52843   6.418  18.982   6.147
 3993POPC   C2B52844   6.358  19.117   6.587
 3993POPC   C3B52845   6.514  18.944   6.985
 3993POPC   C4B52846   6.303  18.645   7.243
 3994POPC   NC352847  13.329  38.695   5.410
 3994POPC   PO452848  13.772  38.271   5.599
 3994POPC   GL152849  13.629  38.469   5.953
 3994POPC   GL252850  13.297  38.425   5.859
 3994POPC   C1A52851  13.440  38.455   6.381
 3994POPC   D2A52852  13.430  38.701   6.750
 3994POPC   C3A52853  13.767  38.476   6.963
 3994POPC   C4A52854  14.046  38.345   7.289
 3994POPC   C1B52855  13.385  38.026   6.104
 3994POPC   C2B52856  13.396  37.955   6.561
 3994POPC   C3B52857  13.270  38.234   6.914
 3994POPC   C4B52858  13.380  38.537   7.261
 3995POPC   NC352859  17.045  18.755   5.552
 3995POPC   PO452860  17.722  18.396   5.622
 3995POPC   GL152861  17.416  18.540   5.884
 3995POPC   GL252862  17.147  18.296   5.760
 3995POPC   C1A52863  17.564  18.533   6.334
 3995POPC   D2A52864  17.638  18.633   6.773
 3995POPC   C3A52865  17.692  18.314   7.055
 3995POPC   C4A52866  17.674  18.005   7.369
 3995POPC   C1B52867  17.279  18.137   6.172
 3995POPC   C2B52868  17.213  18.287   6.607
 3995POPC   C3B52869  17.169  18.478   6.986
 3995POPC   C4B52870  17.244  18.263   7.361
 3996POPC   NC352871   1.930  21.863   5.341
 3996POPC   PO452872   1.523  22.264   5.302
 3996POPC   GL152873   1.855  22.231   5.683
 3996POPC   GL252874   1.596  21.992   5.739
 3996POPC   C1A52875   2.214  22.316   6.027
 3996POPC   D2A52876   2.331  22.115   6.448
 3996POPC   C3A52877   2.240  22.242   6.874
 3996POPC   C4A52878   2.203  22.056   7.269
 3996POPC   C1B52879   1.470  22.069   6.154
 3996POPC   C2B52880   1.556  22.255   6.547
 3996POPC   C3B52881   1.752  22.144   6.951
 3996POPC   C4B52882   1.706  22.034   7.393
 3997POPC   NC352883  21.759  23.143   5.343
 3997POPC   PO452884  21.158  23.343   5.365
 3997POPC   GL152885  21.374  23.007   5.642
 3997POPC   GL252886  21.572  23.208   5.828
 3997POPC   C1A52887  21.574  22.729   5.983
 3997POPC   D2A52888  21.478  22.596   6.410
 3997POPC   C3A52889  21.689  22.666   6.788
 3997POPC   C4A52890  21.422  22.808   7.140
 3997POPC   C1B52891  21.420  23.147   6.275
 3997POPC   C2B52892  21.532  23.156   6.734
 3997POPC   C3B52893  21.655  23.246   7.189
 3997POPC   C4B52894  21.711  23.079   7.616
 3998POPC   NC352895   5.352  13.026   5.520
 3998POPC   PO452896   4.671  12.815   5.501
 3998POPC   GL152897   4.943  12.895   5.826
 3998POPC   GL252898   5.125  12.587   5.928
 3998POPC   C1A52899   5.132  13.043   6.200
 3998POPC   D2A52900   5.331  12.730   6.441
 3998POPC   C3A52901   5.315  12.803   6.857
 3998POPC   C4A52902   5.032  12.955   7.175
 3998POPC   C1B52903   4.831  12.628   6.299
 3998POPC   C2B52904   4.812  12.669   6.764
 3998POPC   C3B52905   4.876  12.432   7.157
 3998POPC   C4B52906   4.677  12.332   7.610
 3999POPC   NC352907  32.452  42.660   5.289
 3999POPC   PO452908  31.868  42.768   5.409
 3999POPC   GL152909  32.034  42.550   5.766
 3999POPC   GL252910  32.318  42.341   5.762
 3999POPC   C1A52911  32.266  42.662   6.163
 3999POPC   D2A52912  32.584  42.545   6.520
 3999POPC   C3A52913  32.470  42.539   6.953
 3999POPC   C4A52914  32.773  42.414   7.277
 3999POPC   C1B52915  32.255  42.167   6.223
 3999POPC   C2B52916  32.392  42.083   6.665
 3999POPC   C3B52917  32.399  42.062   7.144
 3999POPC   C4B52918  32.213  41.852   7.507
 4000POPC   NC352919  30.020  12.871   5.398
 4000POPC   PO452920  29.602  12.352   5.595
 4000POPC   GL152921  29.614  12.706   5.870
 4000POPC   GL252922  29.865  12.972   5.857
 4000POPC   C1A52923  29.808  12.724   6.290
 4000POPC   D2A52924  29.763  12.983   6.621
 4000POPC   C3A52925  29.960  12.827   6.984
 4000POPC   C4A52926  29.609  12.836   7.241
 4000POPC   C1B52927  30.195  13.028   6.136
 4000POPC   C2B52928  30.295  12.938   6.569
 4000POPC   C3B52929  30.418  13.092   6.967
 4000POPC   C4B52930  30.171  13.180   7.298
 4001POPC   NC352931  14.189  34.101   5.450
 4001POPC   PO452932  14.761  33.887   5.578
 4001POPC   GL152933  14.383  33.887   5.889
 4001POPC   GL252934  14.126  34.168   5.956
 4001POPC   C1A52935  14.231  33.764   6.303
 4001POPC   D2A52936  14.327  33.550   6.713
 4001POPC   C3A52937  14.345  33.277   7.070
 4001POPC   C4A52938  14.551  33.211   7.489
 4001POPC   C1B52939  14.103  34.261   6.405
 4001POPC   C2B52940  14.392  34.088   6.747
 4001POPC   C3B52941  14.574  33.819   7.069
 4001POPC   C4B52942  14.283  33.664   7.391
 4002POPC   NC352943  30.045   0.620   5.416
 4002POPC   PO452944  29.648   0.065   5.248
 4002POPC   GL152945  29.875   0.160   5.732
 4002POPC   GL252946  30.149   0.377   5.844
 4002POPC   C1A52947  29.814   0.300   6.209
 4002POPC   D2A52948  29.590   0.406   6.583
 4002POPC   C3A52949  29.793   0.328   6.987
 4002POPC   C4A52950  29.718   0.520   7.373
 4002POPC   C1B52951  30.075   0.734   6.140
 4002POPC   C2B52952  29.908   0.825   6.576
 4002POPC   C3B52953  30.140   0.725   6.961
 4002POPC   C4B52954  30.261   0.382   7.207
 4003POPC   NC352955  35.566  32.726   5.542
 4003POPC   PO452956  35.467  32.310   5.002
 4003POPC   GL152957  35.534  32.194   5.544
 4003POPC   GL252958  35.734  31.921   5.762
 4003POPC   C1A52959  35.313  32.119   5.960
 4003POPC   D2A52960  35.389  32.155   6.402
 4003POPC   C3A52961  35.328  32.098   6.836
 4003POPC   C4A52962  35.313  32.231   7.259
 4003POPC   C1B52963  35.544  31.728   6.183
 4003POPC   C2B52964  35.525  31.672   6.647
 4003POPC   C3B52965  35.630  31.763   7.086
 4003POPC   C4B52966  35.582  31.654   7.534
 4004POPC   NC352967  17.031  44.748   5.466
 4004POPC   PO452968  16.959  44.167   5.222
 4004POPC   GL152969  16.838  44.323   5.700
 4004POPC   GL252970  16.647  44.651   5.793
 4004POPC   C1A52971  16.994  44.481   6.141
 4004POPC   D2A52972  16.802  44.520   6.563
 4004POPC   C3A52973  16.962  44.659   6.965
 4004POPC   C4A52974  16.984  44.495   7.374
 4004POPC   C1B52975  16.644  44.878   6.201
 4004POPC   C2B52976  16.501   0.125   6.573
 4004POPC   C3B52977  16.551  44.978   7.007
 4004POPC   C4B52978  16.485  44.677   7.389
 4005POPC   NC352979   5.204   6.460   5.131
 4005POPC   PO452980   4.773   6.930   5.519
 4005POPC   GL152981   4.942   6.724   5.871
 4005POPC   GL252982   4.845   6.409   6.060
 4005POPC   C1A52983   5.223   6.767   6.197
 4005POPC   D2A52984   5.451   7.016   6.544
 4005POPC   C3A52985   5.230   6.851   6.926
 4005POPC   C4A52986   5.129   6.775   7.362
 4005POPC   C1B52987   5.251   6.239   6.203
 4005POPC   C2B52988   5.326   6.027   6.565
 4005POPC   C3B52989   5.244   6.230   6.942
 4005POPC   C4B52990   5.207   6.214   7.357
 4006POPC   NC352991   8.386  17.800   5.466
 4006POPC   PO452992   8.311  17.185   5.413
 4006POPC   GL152993   8.026  17.431   5.718
 4006POPC   GL252994   8.019  17.780   5.810
 4006POPC   C1A52995   8.030  17.448   6.187
 4006POPC   D2A52996   8.211  17.242   6.511
 4006POPC   C3A52997   8.089  17.311   6.915
 4006POPC   C4A52998   8.080  17.054   7.257
 4006POPC   C1B52999   8.139  17.952   6.200
 4006POPC   C2B53000   8.217  17.766   6.577
 4006POPC   C3B53001   8.079  17.828   6.963
 4006POPC   C4B53002   7.990  17.695   7.332
 4007POPC   NC353003   7.278  42.157   5.211
 4007POPC   PO453004   7.799  42.514   5.395
 4007POPC   GL153005   7.439  42.376   5.645
 4007POPC   GL253006   7.154  42.607   5.689
 4007POPC   C1A53007   7.332  42.279   6.077
 4007POPC   D2A53008   7.477  42.155   6.498
 4007POPC   C3A53009   7.337  42.296   6.909
 4007POPC   C4A53010   7.512  42.151   7.292
 4007POPC   C1B53011   7.153  42.782   6.123
 4007POPC   C2B53012   7.130  42.910   6.583
 4007POPC   C3B53013   7.070  42.766   7.042
 4007POPC   C4B53014   7.244  42.581   7.433
 4008POPC   NC353015  10.611  39.497   5.421
 4008POPC   PO453016  10.446  38.862   5.405
 4008POPC   GL153017  10.614  39.084   5.808
 4008POPC   GL253018  10.442  39.407   5.885
 4008POPC   C1A53019  10.588  39.160   6.296
 4008POPC   D2A53020  10.327  39.154   6.659
 4008POPC   C3A53021  10.589  39.124   6.987
 4008POPC   C4A53022  10.566  39.359   7.321
 4008POPC   C1B53023  10.113  39.393   6.198
 4008POPC   C2B53024   9.946  39.478   6.594
 4008POPC   C3B53025  10.158  39.578   6.994
 4008POPC   C4B53026  10.151  39.641   7.455
 4009POPC   NC353027   4.563  21.824   5.489
 4009POPC   PO453028   4.041  22.214   5.416
 4009POPC   GL153029   4.222  22.221   5.832
 4009POPC   GL253030   4.246  21.867   5.916
 4009POPC   C1A53031   4.379  22.217   6.280
 4009POPC   D2A53032   4.334  22.021   6.705
 4009POPC   C3A53033   4.591  22.126   7.093
 4009POPC   C4A53034   4.472  22.087   7.541
 4009POPC   C1B53035   3.964  21.888   6.300
 4009POPC   C2B53036   3.872  21.802   6.760
 4009POPC   C3B53037   3.989  21.923   7.213
 4009POPC   C4B53038   3.845  21.839   7.665
 4010POPC   NC353039   3.910  29.844   5.424
 4010POPC   PO453040   3.202  29.909   5.262
 4010POPC   GL153041   3.348  29.946   5.742
 4010POPC   GL253042   3.689  30.021   5.836
 4010POPC   C1A53043   3.342  30.083   6.214
 4010POPC   D2A53044   3.572  30.224   6.615
 4010POPC   C3A53045   3.361  30.120   7.022
 4010POPC   C4A53046   3.351  29.682   7.124
 4010POPC   C1B53047   3.687  29.695   6.170
 4010POPC   C2B53048   3.607  29.645   6.621
 4010POPC   C3B53049   3.821  29.863   6.962
 4010POPC   C4B53050   3.817  30.325   7.083
 4011POPC   NC353051  30.088  44.947   5.315
 4011POPC   PO453052  29.471  44.478   5.427
 4011POPC   GL153053  29.826  44.655   5.668
 4011POPC   GL253054  29.655  44.738   5.966
 4011POPC   C1A53055  30.080  44.476   6.011
 4011POPC   D2A53056  29.884  44.547   6.414
 4011POPC   C3A53057  30.101  44.595   6.822
 4011POPC   C4A53058  30.180  44.872   7.168
 4011POPC   C1B53059  29.470  44.945   6.303
 4011POPC   C2B53060  29.696  44.923   6.690
 4011POPC   C3B53061  29.672  44.811   7.107
 4011POPC   C4B53062  29.504  44.971   7.494
 4012POPC   NC353063  38.900  41.855   5.456
 4012POPC   PO453064  38.263  41.511   5.428
 4012POPC   GL153065  38.502  41.677   5.750
 4012POPC   GL253066  38.731  41.399   5.763
 4012POPC   C1A53067  38.504  41.580   6.197
 4012POPC   D2A53068  38.234  41.482   6.527
 4012POPC   C3A53069  38.426  41.593   6.874
 4012POPC   C4A53070  38.551  41.745   7.258
 4012POPC   C1B53071  38.941  41.300   6.167
 4012POPC   C2B53072  38.948  41.511   6.588
 4012POPC   C3B53073  38.894  41.426   7.014
 4012POPC   C4B53074  38.517  41.164   7.105
 4013POPC   NC353075  38.332  34.204   5.446
 4013POPC   PO453076  38.387  33.609   5.402
 4013POPC   GL153077  38.213  33.807   5.771
 4013POPC   GL253078  38.537  33.905   5.853
 4013POPC   C1A53079  38.100  33.904   6.194
 4013POPC   D2A53080  38.115  33.671   6.560
 4013POPC   C3A53081  38.274  33.736   6.951
 4013POPC   C4A53082  38.223  33.929   7.307
 4013POPC   C1B53083  38.538  33.614   6.238
 4013POPC   C2B53084  38.692  33.601   6.690
 4013POPC   C3B53085  38.765  33.961   6.997
 4013POPC   C4B53086  38.676  34.145   7.402
 4014POPC   NC353087  30.144   1.467   5.484
 4014POPC   PO453088  29.678   1.050   5.417
 4014POPC   GL153089  29.944   1.095   5.764
 4014POPC   GL253090  29.800   1.445   5.832
 4014POPC   C1A53091  30.181   1.229   6.125
 4014POPC   D2A53092  29.971   1.390   6.485
 4014POPC   C3A53093  30.015   1.247   6.887
 4014POPC   C4A53094  29.729   1.002   7.107
 4014POPC   C1B53095  29.567   1.520   6.167
 4014POPC   C2B53096  29.516   1.665   6.566
 4014POPC   C3B53097  29.496   1.460   6.926
 4014POPC   C4B53098  29.386   1.356   7.340
 4015POPC   NC353099   5.348  43.265   5.216
 4015POPC   PO453100   4.719  43.074   5.494
 4015POPC   GL153101   4.960  43.312   5.758
 4015POPC   GL253102   5.311  43.190   5.754
 4015POPC   C1A53103   4.939  43.326   6.206
 4015POPC   D2A53104   4.940  43.021   6.554
 4015POPC   C3A53105   4.890  43.173   6.966
 4015POPC   C4A53106   5.035  43.302   7.360
 4015POPC   C1B53107   5.336  42.993   6.179
 4015POPC   C2B53108   5.513  43.112   6.555
 4015POPC   C3B53109   5.399  43.239   6.956
 4015POPC   C4B53110   5.343  42.889   7.207
 4016POPC   NC353111  29.893  17.894   5.020
 4016POPC   PO453112  29.902  17.456   5.427
 4016POPC   GL153113  29.794  17.597   5.825
 4016POPC   GL253114  29.639  17.271   5.851
 4016POPC   C1A53115  29.723  17.779   6.241
 4016POPC   D2A53116  29.708  17.572   6.626
 4016POPC   C3A53117  29.909  17.770   6.983
 4016POPC   C4A53118  29.688  17.654   7.373
 4016POPC   C1B53119  29.926  17.291   6.228
 4016POPC   C2B53120  30.001  17.168   6.671
 4016POPC   C3B53121  29.934  17.262   7.103
 4016POPC   C4B53122  30.227  17.289   7.440
 4017POPC   NC353123   2.829  15.513   5.194
 4017POPC   PO453124   3.062  16.156   5.364
 4017POPC   GL153125   3.026  15.916   5.780
 4017POPC   GL253126   3.027  15.564   5.699
 4017POPC   C1A53127   2.825  15.989   6.198
 4017POPC   D2A53128   2.867  16.102   6.615
 4017POPC   C3A53129   2.572  16.124   6.925
 4017POPC   C4A53130   2.874  16.081   7.264
 4017POPC   C1B53131   2.984  15.498   6.154
 4017POPC   C2B53132   2.793  15.595   6.537
 4017POPC   C3B53133   2.821  15.671   6.932
 4017POPC   C4B53134   2.894  15.583   7.352
 4018POPC   NC353135  29.109   0.077   5.158
 4018POPC   PO453136  29.434   0.365   5.676
 4018POPC   GL153137  29.280   0.370   6.009
 4018POPC   GL253138  28.963   0.539   5.901
 4018POPC   C1A53139  29.236   0.652   6.313
 4018POPC   D2A53140  29.092   0.625   6.677
 4018POPC   C3A53141  29.375   0.643   6.984
 4018POPC   C4A53142  29.319   0.848   7.347
 4018POPC   C1B53143  28.721   0.565   6.318
 4018POPC   C2B53144  28.699   0.283   6.707
 4018POPC   C3B53145  29.061   0.204   6.985
 4018POPC   C4B53146  29.209   0.358   7.380
 4019POPC   NC353147   3.869  30.824   5.622
 4019POPC   PO453148   3.246  30.711   5.457
 4019POPC   GL153149   3.323  30.491   5.879
 4019POPC   GL253150   3.692  30.508   6.005
 4019POPC   C1A53151   3.298  30.581   6.339
 4019POPC   D2A53152   3.201  30.536   6.767
 4019POPC   C3A53153   3.463  30.710   7.092
 4019POPC   C4A53154   3.495  31.072   7.391
 4019POPC   C1B53155   4.100  30.621   6.242
 4019POPC   C2B53156   4.211  30.801   6.661
 4019POPC   C3B53157   4.008  30.831   7.075
 4019POPC   C4B53158   3.887  30.737   7.491
 4020POPC   NC353159  40.227  21.171   5.019
 4020POPC   PO453160  40.208  21.600   5.389
 4020POPC   GL153161  40.077  21.563   5.855
 4020POPC   GL253162  39.819  21.810   5.942
 4020POPC   C1A53163  40.039  21.207   6.198
 4020POPC   D2A53164  39.910  21.016   6.622
 4020POPC   C3A53165  40.001  21.233   6.994
 4020POPC   C4A53166  40.129  21.654   7.052
 4020POPC   C1B53167  39.874  21.660   6.361
 4020POPC   C2B53168  39.661  21.492   6.698
 4020POPC   C3B53169  39.583  21.568   7.132
 4020POPC   C4B53170  39.370  21.372   7.495
 4021POPC   NC353171  35.652  14.878   5.371
 4021POPC   PO453172  35.236  15.372   5.291
 4021POPC   GL153173  35.286  15.388   5.729
 4021POPC   GL253174  35.575  15.214   5.772
 4021POPC   C1A53175  35.267  15.271   6.190
 4021POPC   D2A53176  35.154  15.405   6.629
 4021POPC   C3A53177  35.403  15.302   7.037
 4021POPC   C4A53178  35.472  15.361   7.542
 4021POPC   C1B53179  35.637  14.831   6.076
 4021POPC   C2B53180  35.762  14.709   6.528
 4021POPC   C3B53181  35.702  14.629   6.983
 4021POPC   C4B53182  35.603  14.910   7.317
 4022POPC   NC353183  41.560  23.308   5.438
 4022POPC   PO453184  41.377  22.668   5.606
 4022POPC   GL153185  41.674  22.911   5.883
 4022POPC   GL253186  41.767  23.283   5.914
 4022POPC   C1A53187  41.554  23.031   6.316
 4022POPC   D2A53188  41.506  23.201   6.712
 4022POPC   C3A53189  41.666  23.088   7.074
 4022POPC   C4A53190  41.324  22.821   7.174
 4022POPC   C1B53191  42.019  23.257   6.290
 4022POPC   C2B53192  42.149  23.221   6.739
 4022POPC   C3B53193  42.114  23.303   7.206
 4022POPC   C4B53194  41.826  23.169   7.574
 4023POPC   NC353195   0.751  22.942   5.500
 4023POPC   PO453196   0.237  23.376   5.341
 4023POPC   GL153197   0.431  23.271   5.771
 4023POPC   GL253198   0.804  23.352   5.831
 4023POPC   C1A53199   0.405  22.985   6.184
 4023POPC   D2A53200   0.497  22.747   6.597
 4023POPC   C3A53201   0.423  22.901   7.019
 4023POPC   C4A53202   0.259  22.860   7.485
 4023POPC   C1B53203   0.614  23.454   6.204
 4023POPC   C2B53204   0.676  23.251   6.560
 4023POPC   C3B53205   0.671  23.384   6.942
 4023POPC   C4B53206   0.414  23.327   7.288
 4024POPC   NC353207  38.544  24.456   5.430
 4024POPC   PO453208  37.878  24.207   5.385
 4024POPC   GL153209  38.085  24.421   5.724
 4024POPC   GL253210  38.270  24.136   5.825
 4024POPC   C1A53211  38.289  24.588   6.097
 4024POPC   D2A53212  38.540  24.552   6.477
 4024POPC   C3A53213  38.306  24.616   6.861
 4024POPC   C4A53214  38.453  24.785   7.229
 4024POPC   C1B53215  38.644  24.177   6.114
 4024POPC   C2B53216  38.880  24.108   6.523
 4024POPC   C3B53217  38.773  24.285   6.932
 4024POPC   C4B53218  38.387  24.247   7.211
 4025POPC   NC353219  32.468  37.017   5.183
 4025POPC   PO453220  32.140  36.499   5.473
 4025POPC   GL153221  32.296  36.760   5.821
 4025POPC   GL253222  32.132  37.090   5.766
 4025POPC   C1A53223  32.534  36.752   6.235
 4025POPC   D2A53224  32.576  36.541   6.647
 4025POPC   C3A53225  32.202  36.586   6.927
 4025POPC   C4A53226  32.217  36.719   7.344
 4025POPC   C1B53227  32.258  37.184   6.211
 4025POPC   C2B53228  32.414  37.216   6.647
 4025POPC   C3B53229  32.174  37.174   7.067
 4025POPC   C4B53230  32.004  37.153   7.493
 4026POPC   NC353231   1.158  24.415   5.497
 4026POPC   PO453232   1.758  24.727   5.470
 4026POPC   GL153233   1.478  24.608   5.851
 4026POPC   GL253234   1.106  24.734   5.878
 4026POPC   C1A53235   1.265  24.463   6.265
 4026POPC   D2A53236   1.171  24.679   6.666
 4026POPC   C3A53237   1.026  24.396   6.999
 4026POPC   C4A53238   1.250  24.229   7.323
 4026POPC   C1B53239   0.903  25.002   6.170
 4026POPC   C2B53240   0.696  24.966   6.574
 4026POPC   C3B53241   0.786  24.853   7.001
 4026POPC   C4B53242   0.860  24.720   7.443
 4027POPC   NC353243   6.473  16.328   5.101
 4027POPC   PO453244   6.368  17.071   5.376
 4027POPC   GL153245   6.577  16.999   5.817
 4027POPC   GL253246   6.573  16.625   5.905
 4027POPC   C1A53247   6.585  16.960   6.294
 4027POPC   D2A53248   6.499  16.640   6.648
 4027POPC   C3A53249   6.665  16.752   7.061
 4027POPC   C4A53250   6.689  17.119   7.309
 4027POPC   C1B53251   6.863  16.510   6.281
 4027POPC   C2B53252   7.041  16.608   6.704
 4027POPC   C3B53253   6.995  16.370   7.102
 4027POPC   C4B53254   6.914  16.464   7.564
 4028POPC   NC353255  21.408  36.495   5.545
 4028POPC   PO453256  21.742  35.872   5.667
 4028POPC   GL153257  21.535  36.044   5.947
 4028POPC   GL253258  21.216  36.132   5.854
 4028POPC   C1A53259  21.587  36.001   6.364
 4028POPC   D2A53260  21.641  36.200   6.720
 4028POPC   C3A53261  21.644  35.908   7.051
 4028POPC   C4A53262  21.670  35.951   7.495
 4028POPC   C1B53263  21.106  35.896   6.202
 4028POPC   C2B53264  21.130  35.979   6.633
 4028POPC   C3B53265  20.952  36.148   6.987
 4028POPC   C4B53266  21.217  36.074   7.314
 4029POPC   NC353267  28.270  38.001   5.397
 4029POPC   PO453268  28.124  37.355   5.293
 4029POPC   GL153269  28.250  37.540   5.712
 4029POPC   GL253270  28.492  37.322   5.910
 4029POPC   C1A53271  28.364  37.740   6.135
 4029POPC   D2A53272  28.555  37.459   6.460
 4029POPC   C3A53273  28.444  37.549   6.874
 4029POPC   C4A53274  28.571  37.746   7.267
 4029POPC   C1B53275  28.119  37.294   6.218
 4029POPC   C2B53276  27.829  37.298   6.555
 4029POPC   C3B53277  27.972  37.399   6.965
 4029POPC   C4B53278  28.231  37.332   7.301
 4030POPC   NC353279  28.894  19.936   5.333
 4030POPC   PO453280  29.154  19.345   5.623
 4030POPC   GL153281  29.135  19.795   5.783
 4030POPC   GL253282  28.773  19.922   5.820
 4030POPC   C1A53283  29.266  20.064   6.164
 4030POPC   D2A53284  29.340  19.836   6.585
 4030POPC   C3A53285  29.355  20.041   7.016
 4030POPC   C4A53286  29.310  19.851   7.411
 4030POPC   C1B53287  28.837  19.821   6.229
 4030POPC   C2B53288  28.843  20.015   6.596
 4030POPC   C3B53289  28.898  19.852   6.995
 4030POPC   C4B53290  28.744  19.760   7.391
 4031POPC   NC353291   8.946  14.557   5.552
 4031POPC   PO453292   8.555  14.035   5.681
 4031POPC   GL153293   8.816  14.274   5.957
 4031POPC   GL253294   8.824  14.657   6.034
 4031POPC   C1A53295   9.024  14.250   6.335
 4031POPC   D2A53296   9.054  14.575   6.615
 4031POPC   C3A53297   8.757  14.555   6.946
 4031POPC   C4A53298   8.875  14.391   7.322
 4031POPC   C1B53299   9.207  14.824   6.157
 4031POPC   C2B53300   9.445  14.900   6.546
 4031POPC   C3B53301   9.472  14.666   6.915
 4031POPC   C4B53302   9.249  14.708   7.281
 4032POPC   NC353303   5.667  27.309   5.424
 4032POPC   PO453304   6.012  27.888   5.508
 4032POPC   GL153305   5.834  27.610   5.820
 4032POPC   GL253306   6.001  27.283   5.831
 4032POPC   C1A53307   5.637  27.503   6.211
 4032POPC   D2A53308   5.681  27.211   6.533
 4032POPC   C3A53309   5.642  27.415   6.923
 4032POPC   C4A53310   5.775  27.620   7.279
 4032POPC   C1B53311   6.148  27.468   6.240
 4032POPC   C2B53312   6.081  27.543   6.703
 4032POPC   C3B53313   6.254  27.680   7.137
 4032POPC   C4B53314   6.173  27.517   7.603
 4033POPC   NC353315  31.025   5.975   5.438
 4033POPC   PO453316  30.362   6.151   5.382
 4033POPC   GL153317  30.585   6.011   5.753
 4033POPC   GL253318  30.783   5.678   5.785
 4033POPC   C1A53319  30.499   5.924   6.191
 4033POPC   D2A53320  30.656   5.787   6.576
 4033POPC   C3A53321  30.429   5.760   6.964
 4033POPC   C4A53322  30.778   5.917   7.216
 4033POPC   C1B53323  31.015   5.774   6.179
 4033POPC   C2B53324  31.111   5.516   6.556
 4033POPC   C3B53325  31.324   5.486   6.958
 4033POPC   C4B53326  31.203   5.362   7.385
 4034POPC   NC353327   6.261  36.794   5.036
 4034POPC   PO453328   6.816  36.940   5.301
 4034POPC   GL153329   6.592  36.859   5.640
 4034POPC   GL253330   6.722  36.519   5.600
 4034POPC   C1A53331   6.513  37.074   6.049
 4034POPC   D2A53332   6.659  37.222   6.453
 4034POPC   C3A53333   6.462  37.069   6.797
 4034POPC   C4A53334   6.482  37.042   7.228
 4034POPC   C1B53335   6.737  36.590   6.052
 4034POPC   C2B53336   6.681  36.665   6.502
 4034POPC   C3B53337   6.610  36.617   6.962
 4034POPC   C4B53338   6.657  36.607   7.425
 4035POPC   NC353339   7.827  16.023   5.472
 4035POPC   PO453340   7.145  15.912   5.495
 4035POPC   GL153341   7.239  15.993   5.884
 4035POPC   GL253342   7.592  15.995   5.917
 4035POPC   C1A53343   7.260  16.150   6.285
 4035POPC   D2A53344   7.081  16.104   6.661
 4035POPC   C3A53345   7.360  16.002   6.989
 4035POPC   C4A53346   7.805  16.076   7.063
 4035POPC   C1B53347   7.723  15.626   6.106
 4035POPC   C2B53348   7.558  15.561   6.509
 4035POPC   C3B53349   7.450  15.495   6.898
 4035POPC   C4B53350   7.764  15.493   7.167
 4036POPC   NC353351  17.012  19.733   5.344
 4036POPC   PO453352  16.555  20.182   5.521
 4036POPC   GL153353  16.583  19.825   5.768
 4036POPC   GL253354  16.913  19.719   5.845
 4036POPC   C1A53355  16.535  19.805   6.197
 4036POPC   D2A53356  16.755  19.813   6.570
 4036POPC   C3A53357  16.577  19.514   6.825
 4036POPC   C4A53358  16.306  19.538   7.190
 4036POPC   C1B53359  16.983  20.080   6.122
 4036POPC   C2B53360  17.014  20.306   6.507
 4036POPC   C3B53361  16.964  20.151   6.913
 4036POPC   C4B53362  16.798  19.822   7.166
 4037POPC   NC353363  29.298  37.655   5.315
 4037POPC   PO453364  28.677  37.770   5.435
 4037POPC   GL153365  28.952  37.461   5.685
 4037POPC   GL253366  29.340  37.437   5.773
 4037POPC   C1A53367  28.957  37.491   6.135
 4037POPC   D2A53368  29.112  37.789   6.463
 4037POPC   C3A53369  29.129  37.660   6.891
 4037POPC   C4A53370  28.874  37.399   7.081
 4037POPC   C1B53371  29.468  37.506   6.201
 4037POPC   C2B53372  29.289  37.307   6.540
 4037POPC   C3B53373  29.419  37.212   6.908
 4037POPC   C4B53374  29.344  37.327   7.289
 4038POPC   NC353375   6.714   4.572   5.280
 4038POPC   PO453376   6.944   3.957   5.462
 4038POPC   GL153377   6.876   4.206   5.826
 4038POPC   GL253378   6.582   4.415   5.788
 4038POPC   C1A53379   6.793   4.285   6.290
 4038POPC   D2A53380   6.484   4.132   6.619
 4038POPC   C3A53381   6.485   3.992   7.066
 4038POPC   C4A53382   6.756   4.104   7.447
 4038POPC   C1B53383   6.485   4.697   6.159
 4038POPC   C2B53384   6.598   4.808   6.557
 4038POPC   C3B53385   6.381   4.681   6.898
 4038POPC   C4B53386   6.641   4.484   7.146
 4039POPC   NC353387   8.220   7.966   5.103
 4039POPC   PO453388   8.285   7.365   5.306
 4039POPC   GL153389   8.276   7.440   5.737
 4039POPC   GL253390   8.337   7.798   5.692
 4039POPC   C1A53391   8.246   7.314   6.199
 4039POPC   D2A53392   8.292   7.164   6.645
 4039POPC   C3A53393   8.000   7.337   6.926
 4039POPC   C4A53394   8.003   7.358   7.350
 4039POPC   C1B53395   8.650   7.598   6.036
 4039POPC   C2B53396   8.705   7.462   6.482
 4039POPC   C3B53397   8.487   7.581   6.891
 4039POPC   C4B53398   8.409   7.825   7.251
 4040POPC   NC353399  27.221  31.558   5.551
 4040POPC   PO453400  27.808  31.270   5.361
 4040POPC   GL153401  27.630  31.249   5.796
 4040POPC   GL253402  27.697  31.584   5.869
 4040POPC   C1A53403  27.401  31.346   6.233
 4040POPC   D2A53404  27.402  31.604   6.632
 4040POPC   C3A53405  27.506  31.449   7.059
 4040POPC   C4A53406  27.369  31.282   7.474
 4040POPC   C1B53407  27.862  31.557   6.310
 4040POPC   C2B53408  27.898  31.786   6.712
 4040POPC   C3B53409  27.946  31.759   7.167
 4040POPC   C4B53410  27.766  31.682   7.614
 4041POPC   NC353411   5.928  28.339   5.412
 4041POPC   PO453412   5.261  28.410   5.410
 4041POPC   GL153413   5.583  28.443   5.748
 4041POPC   GL253414   5.663  28.113   5.838
 4041POPC   C1A53415   5.856  28.487   6.153
 4041POPC   D2A53416   5.712  28.331   6.577
 4041POPC   C3A53417   5.893  28.491   6.976
 4041POPC   C4A53418   5.749  28.802   7.307
 4041POPC   C1B53419   5.910  27.963   6.204
 4041POPC   C2B53420   6.149  28.032   6.583
 4041POPC   C3B53421   5.889  27.978   6.936
 4041POPC   C4B53422   5.816  28.141   7.346
 4042POPC   NC353423  41.366  15.289   5.543
 4042POPC   PO453424  41.757  14.733   5.463
 4042POPC   GL153425  41.834  15.012   5.807
 4042POPC   GL253426  41.795  15.383   5.856
 4042POPC   C1A53427  41.661  15.040   6.198
 4042POPC   D2A53428  41.763  15.287   6.527
 4042POPC   C3A53429  41.467  15.089   6.759
 4042POPC   C4A53430  41.630  15.027   7.144
 4042POPC   C1B53431  41.441  15.504   6.170
 4042POPC   C2B53432  41.372  15.592   6.614
 4042POPC   C3B53433  41.533  15.519   7.021
 4042POPC   C4B53434  41.319  15.458   7.376
 4043POPC   NC353435  10.213  38.461   5.388
 4043POPC   PO453436   9.532  38.583   5.361
 4043POPC   GL153437   9.812  38.567   5.718
 4043POPC   GL253438   9.974  38.229   5.792
 4043POPC   C1A53439   9.701  38.499   6.132
 4043POPC   D2A53440   9.414  38.675   6.392
 4043POPC   C3A53441   9.454  38.611   6.826
 4043POPC   C4A53442   9.608  38.757   7.224
 4043POPC   C1B53443  10.164  38.312   6.233
 4043POPC   C2B53444   9.944  38.516   6.610
 4043POPC   C3B53445   9.906  38.381   7.048
 4043POPC   C4B53446   9.948  38.138   7.433
 4044POPC   NC353447  28.785  19.223   5.376
 4044POPC   PO453448  28.466  18.659   5.530
 4044POPC   GL153449  28.561  19.014   5.842
 4044POPC   GL253450  28.648  19.392   5.830
 4044POPC   C1A53451  28.327  19.121   6.227
 4044POPC   D2A53452  28.096  18.914   6.559
 4044POPC   C3A53453  28.285  19.004   6.964
 4044POPC   C4A53454  28.024  18.917   7.327
 4044POPC   C1B53455  28.799  19.305   6.242
 4044POPC   C2B53456  28.840  19.171   6.681
 4044POPC   C3B53457  28.655  19.367   7.047
 4044POPC   C4B53458  28.585  19.254   7.454
 4045POPC   NC353459  11.661   7.131   5.508
 4045POPC   PO453460  11.682   7.837   5.392
 4045POPC   GL153461  11.464   7.545   5.772
 4045POPC   GL253462  11.348   7.202   5.891
 4045POPC   C1A53463  11.236   7.552   6.217
 4045POPC   D2A53464  11.060   7.462   6.651
 4045POPC   C3A53465  11.278   7.627   7.046
 4045POPC   C4A53466  11.407   7.405   7.416
 4045POPC   C1B53467  11.604   7.111   6.222
 4045POPC   C2B53468  11.477   7.054   6.621
 4045POPC   C3B53469  11.308   7.114   7.009
 4045POPC   C4B53470  11.402   6.896   7.344
 4046POPC   NC353471  24.303   2.339   5.436
 4046POPC   PO453472  24.768   1.890   5.535
 4046POPC   GL153473  24.446   2.013   5.846
 4046POPC   GL253474  24.240   1.783   6.066
 4046POPC   C1A53475  24.394   2.329   6.151
 4046POPC   D2A53476  24.265   2.463   6.574
 4046POPC   C3A53477  24.358   2.185   6.903
 4046POPC   C4A53478  24.718   2.042   7.120
 4046POPC   C1B53479  24.404   1.915   6.474
 4046POPC   C2B53480  24.489   1.662   6.848
 4046POPC   C3B53481  24.698   1.544   7.238
 4046POPC   C4B53482  24.712   1.554   7.699
 4047POPC   NC353483   8.959  36.449   5.414
 4047POPC   PO453484   9.090  35.830   5.533
 4047POPC   GL153485   8.876  35.897   5.882
 4047POPC   GL253486   8.781  36.242   5.913
 4047POPC   C1A53487   8.857  35.860   6.306
 4047POPC   D2A53488   8.656  35.961   6.676
 4047POPC   C3A53489   8.925  35.940   6.974
 4047POPC   C4A53490   9.118  35.879   7.332
 4047POPC   C1B53491   8.662  36.379   6.354
 4047POPC   C2B53492   8.656  36.438   6.862
 4047POPC   C3B53493   8.798  36.309   7.310
 4047POPC   C4B53494   8.697  36.531   7.769
 4048POPC   NC353495  28.883  20.829   5.444
 4048POPC   PO453496  29.506  20.910   5.581
 4048POPC   GL153497  29.237  20.640   5.824
 4048POPC   GL253498  29.086  20.322   5.700
 4048POPC   C1A53499  29.284  20.581   6.261
 4048POPC   D2A53500  29.273  20.345   6.628
 4048POPC   C3A53501  29.261  20.591   7.013
 4048POPC   C4A53502  28.917  20.876   7.094
 4048POPC   C1B53503  28.844  20.364   6.102
 4048POPC   C2B53504  28.800  20.552   6.525
 4048POPC   C3B53505  28.812  20.394   6.937
 4048POPC   C4B53506  28.570  20.208   7.203
 4049POPC   NC353507  43.489  18.952   5.781
 4049POPC   PO453508  43.280  19.321   5.272
 4049POPC   GL153509  43.108  19.305   5.752
 4049POPC   GL253510  42.818  19.206   5.954
 4049POPC   C1A53511  43.181  19.400   6.233
 4049POPC   D2A53512  43.474  19.275   6.534
 4049POPC   C3A53513  43.282  18.999   6.821
 4049POPC   C4A53514  43.250  19.108   7.261
 4049POPC   C1B53515  43.042  18.919   6.310
 4049POPC   C2B53516  42.984  18.620   6.683
 4049POPC   C3B53517  42.932  18.736   7.126
 4049POPC   C4B53518  43.110  18.668   7.547
 4050POPC   NC353519   0.202  22.154   5.467
 4050POPC   PO453520   0.308  22.819   5.547
 4050POPC   GL153521   0.311  22.460   5.857
 4050POPC   GL253522   0.627  22.282   5.771
 4050POPC   C1A53523   0.406  22.135   6.197
 4050POPC   D2A53524   0.605  22.241   6.561
 4050POPC   C3A53525   0.346  22.216   6.917
 4050POPC   C4A53526   0.392  21.988   7.294
 4050POPC   C1B53527   0.727  22.580   6.137
 4050POPC   C2B53528   0.977  22.600   6.546
 4050POPC   C3B53529   0.844  22.473   6.949
 4050POPC   C4B53530   0.571  22.503   7.291
 4051POPC   NC353531  31.968  21.543   5.382
 4051POPC   PO453532  31.374  21.223   5.319
 4051POPC   GL153533  31.492  21.429   5.713
 4051POPC   GL253534  31.209  21.434   5.948
 4051POPC   C1A53535  31.674  21.261   6.106
 4051POPC   D2A53536  31.669  21.049   6.503
 4051POPC   C3A53537  31.379  21.167   6.838
 4051POPC   C4A53538  31.653  21.183   7.203
 4051POPC   C1B53539  31.456  21.703   6.252
 4051POPC   C2B53540  31.583  21.627   6.712
 4051POPC   C3B53541  31.377  21.599   7.158
 4051POPC   C4B53542  31.331  21.662   7.684
 4052POPC   NC353543  11.288  28.754   5.387
 4052POPC   PO453544  11.103  28.064   5.434
 4052POPC   GL153545  11.153  28.370   5.777
 4052POPC   GL253546  11.487  28.531   5.822
 4052POPC   C1A53547  11.167  28.458   6.234
 4052POPC   D2A53548  11.312  28.408   6.662
 4052POPC   C3A53549  10.954  28.492   6.936
 4052POPC   C4A53550  10.929  28.642   7.348
 4052POPC   C1B53551  11.499  28.843   6.169
 4052POPC   C2B53552  11.611  28.843   6.594
 4052POPC   C3B53553  11.413  28.777   7.006
 4052POPC   C4B53554  11.352  28.397   7.238
 4053POPC   NC353555   5.458  22.268   5.533
 4053POPC   PO453556   5.036  21.771   5.446
 4053POPC   GL153557   5.097  22.031   5.816
 4053POPC   GL253558   5.337  21.841   5.892
 4053POPC   C1A53559   5.356  22.192   6.228
 4053POPC   D2A53560   5.398  22.028   6.657
 4053POPC   C3A53561   5.155  22.338   6.878
 4053POPC   C4A53562   5.000  22.534   7.246
 4053POPC   C1B53563   5.021  21.774   6.259
 4053POPC   C2B53564   4.826  21.812   6.671
 4053POPC   C3B53565   5.050  21.855   7.058
 4053POPC   C4B53566   4.961  22.060   7.467
 4054POPC   NC353567  26.570  35.821   5.360
 4054POPC   PO453568  26.964  36.312   5.421
 4054POPC   GL153569  26.855  36.122   5.812
 4054POPC   GL253570  26.524  36.114   5.791
 4054POPC   C1A53571  26.948  36.158   6.277
 4054POPC   D2A53572  26.717  36.403   6.616
 4054POPC   C3A53573  26.621  36.189   7.003
 4054POPC   C4A53574  26.805  36.288   7.427
 4054POPC   C1B53575  26.500  35.915   6.209
 4054POPC   C2B53576  26.297  35.965   6.615
 4054POPC   C3B53577  26.227  35.798   7.013
 4054POPC   C4B53578  26.449  35.940   7.421
 4055POPC   NC353579   3.175  23.225   5.373
 4055POPC   PO453580   2.716  22.716   5.394
 4055POPC   GL153581   2.811  23.016   5.744
 4055POPC   GL253582   2.506  23.206   5.836
 4055POPC   C1A53583   2.945  22.888   6.178
 4055POPC   D2A53584   2.987  22.707   6.602
 4055POPC   C3A53585   2.894  23.035   6.892
 4055POPC   C4A53586   3.087  23.118   7.273
 4055POPC   C1B53587   2.440  22.788   6.044
 4055POPC   C2B53588   2.483  22.619   6.480
 4055POPC   C3B53589   2.392  22.747   6.914
 4055POPC   C4B53590   2.513  22.985   7.274
 4056POPC   NC353591  17.292  29.763   5.450
 4056POPC   PO453592  17.812  30.088   5.551
 4056POPC   GL153593  17.513  29.939   5.900
 4056POPC   GL253594  17.697  29.700   6.154
 4056POPC   C1A53595  17.324  30.028   6.326
 4056POPC   D2A53596  17.426  29.692   6.633
 4056POPC   C3A53597  17.496  29.829   7.074
 4056POPC   C4A53598  17.518  29.796   7.527
 4056POPC   C1B53599  17.831  30.107   6.288
 4056POPC   C2B53600  17.847  30.349   6.653
 4056POPC   C3B53601  17.802  30.245   7.126
 4056POPC   C4B53602  17.707  30.262   7.596
 4057POPC   NC353603  37.148   9.929   5.544
 4057POPC   PO453604  36.536   9.608   5.436
 4057POPC   GL153605  36.792   9.628   5.840
 4057POPC   GL253606  37.111   9.413   5.865
 4057POPC   C1A53607  36.763   9.874   6.255
 4057POPC   D2A53608  36.532   9.930   6.665
 4057POPC   C3A53609  36.790   9.975   7.048
 4057POPC   C4A53610  36.738   9.874   7.505
 4057POPC   C1B53611  37.040   9.438   6.290
 4057POPC   C2B53612  36.942   9.617   6.684
 4057POPC   C3B53613  36.617   9.510   6.986
 4057POPC   C4B53614  36.756   9.365   7.361
 4058POPC   NC353615  39.047  34.120   5.162
 4058POPC   PO453616  39.381  33.616   5.511
 4058POPC   GL153617  39.372  33.684   5.937
 4058POPC   GL253618  39.032  33.556   6.000
 4058POPC   C1A53619  39.492  33.679   6.362
 4058POPC   D2A53620  39.321  33.920   6.688
 4058POPC   C3A53621  39.193  33.668   6.992
 4058POPC   C4A53622  39.538  33.664   7.252
 4058POPC   C1B53623  38.960  33.875   6.336
 4058POPC   C2B53624  38.982  34.281   6.533
 4058POPC   C3B53625  39.188  34.356   6.924
 4058POPC   C4B53626  39.205  34.103   7.266
 4059POPC   NC353627  41.752   2.211   5.275
 4059POPC   PO453628  41.522   1.613   5.377
 4059POPC   GL153629  41.778   1.728   5.791
 4059POPC   GL253630  41.896   2.098   5.791
 4059POPC   C1A53631  41.696   1.785   6.271
 4059POPC   D2A53632  41.814   2.024   6.655
 4059POPC   C3A53633  41.656   1.872   7.040
 4059POPC   C4A53634  41.235   1.918   7.245
 4059POPC   C1B53635  41.824   2.310   6.205
 4059POPC   C2B53636  41.671   2.516   6.604
 4059POPC   C3B53637  41.757   2.390   7.041
 4059POPC   C4B53638  41.915   2.201   7.427
 4060POPC   NC353639  37.077  34.062   5.217
 4060POPC   PO453640  36.666  33.547   5.441
 4060POPC   GL153641  36.821  33.717   5.794
 4060POPC   GL253642  37.167  33.814   5.695
 4060POPC   C1A53643  36.731  33.880   6.214
 4060POPC   D2A53644  36.486  34.040   6.523
 4060POPC   C3A53645  36.695  34.246   6.831
 4060POPC   C4A53646  36.967  34.169   7.147
 4060POPC   C1B53647  37.204  33.739   6.136
 4060POPC   C2B53648  37.139  33.899   6.590
 4060POPC   C3B53649  37.348  33.881   7.002
 4060POPC   C4B53650  37.309  33.693   7.418
 4061POPC   NC353651   9.977  16.228   5.392
 4061POPC   PO453652   9.414  15.854   5.219
 4061POPC   GL153653   9.548  15.962   5.643
 4061POPC   GL253654   9.877  15.862   5.756
 4061POPC   C1A53655   9.494  15.877   6.097
 4061POPC   D2A53656   9.614  16.068   6.482
 4061POPC   C3A53657   9.585  15.867   6.861
 4061POPC   C4A53658   9.650  15.918   7.265
 4061POPC   C1B53659  10.047  15.968   6.195
 4061POPC   C2B53660  10.060  15.906   6.682
 4061POPC   C3B53661  10.114  16.068   7.122
 4061POPC   C4B53662  10.252  16.092   7.598
 4062POPC   NC353663  28.537  34.800   5.456
 4062POPC   PO453664  28.301  34.162   5.549
 4062POPC   GL153665  28.457  34.463   5.841
 4062POPC   GL253666  28.290  34.336   6.114
 4062POPC   C1A53667  28.713  34.603   6.209
 4062POPC   D2A53668  28.523  34.489   6.600
 4062POPC   C3A53669  28.609  34.641   6.981
 4062POPC   C4A53670  28.656  34.357   7.316
 4062POPC   C1B53671  28.225  34.775   6.302
 4062POPC   C2B53672  28.097  34.774   6.723
 4062POPC   C3B53673  28.144  34.425   6.983
 4062POPC   C4B53674  28.229  34.694   7.315
 4063POPC   NC353675   3.988  42.982   5.528
 4063POPC   PO453676   3.633  43.494   5.361
 4063POPC   GL153677   3.569  43.163   5.759
 4063POPC   GL253678   3.850  43.170   5.977
 4063POPC   C1A53679   3.403  43.013   6.199
 4063POPC   D2A53680   3.415  43.196   6.632
 4063POPC   C3A53681   3.452  42.949   6.986
 4063POPC   C4A53682   3.178  42.703   7.235
 4063POPC   C1B53683   3.877  43.204   6.392
 4063POPC   C2B53684   3.813  42.847   6.635
 4063POPC   C3B53685   3.991  42.761   7.008
 4063POPC   C4B53686   3.923  43.128   7.244
 4064POPC   NC353687  20.422  41.697   5.145
 4064POPC   PO453688  20.626  41.254   5.542
 4064POPC   GL153689  20.793  41.438   5.921
 4064POPC   GL253690  20.483  41.616   5.964
 4064POPC   C1A53691  20.877  41.666   6.319
 4064POPC   D2A53692  20.534  41.698   6.576
 4064POPC   C3A53693  20.510  41.700   7.031
 4064POPC   C4A53694  20.822  41.637   7.352
 4064POPC   C1B53695  20.318  41.263   6.189
 4064POPC   C2B53696  20.214  41.269   6.620
 4064POPC   C3B53697  20.438  41.159   6.967
 4064POPC   C4B53698  20.478  41.264   7.380
 4065POPC   NC353699  20.564  21.677   5.424
 4065POPC   PO453700  20.642  20.989   5.435
 4065POPC   GL153701  20.561  21.268   5.771
 4065POPC   GL253702  20.216  21.164   5.818
 4065POPC   C1A53703  20.713  21.424   6.170
 4065POPC   D2A53704  20.564  21.485   6.593
 4065POPC   C3A53705  20.698  21.639   7.023
 4065POPC   C4A53706  20.664  21.303   7.307
 4065POPC   C1B53707  20.376  20.964   6.215
 4065POPC   C2B53708  20.488  20.962   6.655
 4065POPC   C3B53709  20.308  21.224   6.940
 4065POPC   C4B53710  20.167  21.259   7.323
 4066POPC   NC353711   7.418   4.067   5.439
 4066POPC   PO453712   7.210   4.691   5.212
 4066POPC   GL153713   7.316   4.533   5.652
 4066POPC   GL253714   7.684   4.507   5.681
 4066POPC   C1A53715   7.324   4.284   6.068
 4066POPC   D2A53716   7.270   4.198   6.514
 4066POPC   C3A53717   7.403   3.827   6.749
 4066POPC   C4A53718   7.433   3.949   7.191
 4066POPC   C1B53719   7.596   4.727   6.103
 4066POPC   C2B53720   7.609   4.643   6.571
 4066POPC   C3B53721   7.566   4.423   6.975
 4066POPC   C4B53722   7.629   4.584   7.405
 4067POPC   NC353723   8.577  26.092   5.422
 4067POPC   PO453724   9.267  26.253   5.398
 4067POPC   GL153725   9.001  25.992   5.703
 4067POPC   GL253726   9.240  25.832   5.929
 4067POPC   C1A53727   8.720  25.930   6.106
 4067POPC   D2A53728   8.889  25.853   6.532
 4067POPC   C3A53729   8.736  25.897   6.950
 4067POPC   C4A53730   8.907  25.993   7.344
 4067POPC   C1B53731   9.142  26.227   6.146
 4067POPC   C2B53732   9.086  26.362   6.559
 4067POPC   C3B53733   9.219  26.140   6.918
 4067POPC   C4B53734   9.208  26.385   7.249
 4068POPC   NC353735   3.139  26.349   5.578
 4068POPC   PO453736   3.585  26.793   5.254
 4068POPC   GL153737   3.478  26.790   5.688
 4068POPC   GL253738   3.130  26.880   5.731
 4068POPC   C1A53739   3.600  26.814   6.135
 4068POPC   D2A53740   3.614  27.053   6.529
 4068POPC   C3A53741   3.661  26.829   6.906
 4068POPC   C4A53742   3.964  26.567   7.130
 4068POPC   C1B53743   3.188  27.128   6.118
 4068POPC   C2B53744   3.142  27.210   6.575
 4068POPC   C3B53745   3.273  27.200   7.017
 4068POPC   C4B53746   3.355  26.871   7.330
 4069POPC   NC353747  29.839  16.993   5.450
 4069POPC   PO453748  30.338  16.565   5.551
 4069POPC   GL153749  30.015  16.745   5.859
 4069POPC   GL253750  29.634  16.716   5.830
 4069POPC   C1A53751  29.952  16.784   6.291
 4069POPC   D2A53752  30.208  16.710   6.649
 4069POPC   C3A53753  29.912  16.753   6.973
 4069POPC   C4A53754  29.770  16.482   7.280
 4069POPC   C1B53755  29.450  16.939   6.174
 4069POPC   C2B53756  29.524  17.021   6.577
 4069POPC   C3B53757  29.398  16.800   6.944
 4069POPC   C4B53758  29.555  16.977   7.302
 4070POPC   NC353759   1.025  15.450   5.371
 4070POPC   PO453760   0.940  16.108   5.370
 4070POPC   GL153761   1.055  15.983   5.774
 4070POPC   GL253762   0.914  15.675   5.812
 4070POPC   C1A53763   1.209  16.079   6.189
 4070POPC   D2A53764   1.528  15.919   6.496
 4070POPC   C3A53765   1.409  15.844   6.938
 4070POPC   C4A53766   1.533  16.171   7.282
 4070POPC   C1B53767   0.800  15.731   6.213
 4070POPC   C2B53768   0.995  15.766   6.577
 4070POPC   C3B53769   0.852  15.754   6.961
 4070POPC   C4B53770   1.040  15.875   7.311
 4071POPC   NC353771   7.494   5.050   5.272
 4071POPC   PO453772   7.290   5.714   5.221
 4071POPC   GL153773   7.317   5.417   5.642
 4071POPC   GL253774   7.197   5.046   5.701
 4071POPC   C1A53775   7.482   5.285   6.065
 4071POPC   D2A53776   7.392   5.371   6.517
 4071POPC   C3A53777   7.509   5.109   6.818
 4071POPC   C4A53778   7.787   5.235   7.133
 4071POPC   C1B53779   6.976   4.884   6.078
 4071POPC   C2B53780   7.099   4.699   6.471
 4071POPC   C3B53781   7.139   4.761   6.919
 4071POPC   C4B53782   7.345   4.979   7.280
 4072POPC   NC353783  28.398  27.828   5.601
 4072POPC   PO453784  27.997  27.333   5.393
 4072POPC   GL153785  27.946  27.549   5.777
 4072POPC   GL253786  28.135  27.292   5.954
 4072POPC   C1A53787  28.080  27.743   6.190
 4072POPC   D2A53788  28.369  27.559   6.521
 4072POPC   C3A53789  28.304  27.661   6.963
 4072POPC   C4A53790  27.973  27.735   7.266
 4072POPC   C1B53791  28.405  27.058   6.245
 4072POPC   C2B53792  28.760  27.217   6.489
 4072POPC   C3B53793  28.746  27.383   6.904
 4072POPC   C4B53794  28.610  27.452   7.339
 4073POPC   NC353795  12.051  25.471   5.283
 4073POPC   PO453796  12.551  25.201   5.619
 4073POPC   GL153797  12.106  25.136   5.726
 4073POPC   GL253798  11.948  25.470   5.789
 4073POPC   C1A53799  11.894  25.098   6.134
 4073POPC   D2A53800  12.092  25.111   6.530
 4073POPC   C3A53801  12.011  25.301   6.923
 4073POPC   C4A53802  12.024  25.122   7.346
 4073POPC   C1B53803  12.235  25.500   6.163
 4073POPC   C2B53804  12.225  25.683   6.589
 4073POPC   C3B53805  12.431  25.622   6.984
 4073POPC   C4B53806  12.522  25.430   7.391
 4074POPC   NC353807   1.821  21.222   5.584
 4074POPC   PO453808   2.340  21.688   5.265
 4074POPC   GL153809   2.297  21.556   5.704
 4074POPC   GL253810   1.974  21.650   5.791
 4074POPC   C1A53811   2.234  21.484   6.188
 4074POPC   D2A53812   1.892  21.322   6.462
 4074POPC   C3A53813   1.924  21.220   6.906
 4074POPC   C4A53814   1.664  21.216   7.275
 4074POPC   C1B53815   1.947  21.904   6.118
 4074POPC   C2B53816   1.857  21.847   6.521
 4074POPC   C3B53817   2.082  21.729   6.848
 4074POPC   C4B53818   1.985  21.611   7.236
 4075POPC   NC353819  31.467  42.565   5.439
 4075POPC   PO453820  30.908  42.498   5.465
 4075POPC   GL153821  31.167  42.464   5.862
 4075POPC   GL253822  31.515  42.304   5.873
 4075POPC   C1A53823  31.328  42.582   6.292
 4075POPC   D2A53824  31.518  42.349   6.642
 4075POPC   C3A53825  31.531  42.485   7.080
 4075POPC   C4A53826  31.384  42.249   7.477
 4075POPC   C1B53827  31.810  42.432   6.203
 4075POPC   C2B53828  32.035  42.459   6.594
 4075POPC   C3B53829  31.950  42.189   6.931
 4075POPC   C4B53830  31.898  42.226   7.367
 4076POPC   NC353831  19.390  39.177   5.610
 4076POPC   PO453832  18.955  39.743   5.390
 4076POPC   GL153833  18.950  39.501   5.793
 4076POPC   GL253834  18.700  39.202   5.724
 4076POPC   C1A53835  19.179  39.594   6.195
 4076POPC   D2A53836  19.111  39.715   6.623
 4076POPC   C3A53837  19.196  39.325   6.850
 4076POPC   C4A53838  19.180  39.327   7.268
 4076POPC   C1B53839  18.757  38.912   6.085
 4076POPC   C2B53840  18.712  38.773   6.521
 4076POPC   C3B53841  18.809  38.945   6.947
 4076POPC   C4B53842  18.892  38.939   7.396
 4077POPC   NC353843  33.799  29.339   5.412
 4077POPC   PO453844  33.747  29.961   5.229
 4077POPC   GL153845  33.754  29.830   5.674
 4077POPC   GL253846  33.762  30.181   5.775
 4077POPC   C1A53847  33.998  29.813   6.082
 4077POPC   D2A53848  34.142  29.768   6.522
 4077POPC   C3A53849  33.871  29.633   6.875
 4077POPC   C4A53850  33.811  29.771   7.331
 4077POPC   C1B53851  33.618  30.148   6.200
 4077POPC   C2B53852  33.757  30.090   6.620
 4077POPC   C3B53853  33.997  30.130   6.982
 4077POPC   C4B53854  33.876  30.291   7.349
 4078POPC   NC353855  37.086  43.559   5.058
 4078POPC   PO453856  37.063  42.940   5.349
 4078POPC   GL153857  36.878  42.985   5.775
 4078POPC   GL253858  37.140  43.196   5.832
 4078POPC   C1A53859  36.688  43.029   6.200
 4078POPC   D2A53860  36.880  43.103   6.615
 4078POPC   C3A53861  36.672  43.197   6.974
 4078POPC   C4A53862  36.884  43.205   7.322
 4078POPC   C1B53863  37.248  43.141   6.257
 4078POPC   C2B53864  37.280  43.458   6.591
 4078POPC   C3B53865  37.152  43.493   7.003
 4078POPC   C4B53866  37.315  43.480   7.404
 4079POPC   NC353867  26.540   0.421   5.344
 4079POPC   PO453868  26.988  44.932   5.583
 4079POPC   GL153869  26.935   0.289   5.865
 4079POPC   GL253870  26.892   0.657   5.818
 4079POPC   C1A53871  26.967   0.442   6.292
 4079POPC   D2A53872  26.897   0.285   6.691
 4079POPC   C3A53873  27.039   0.459   7.063
 4079POPC   C4A53874  26.878   0.181   7.349
 4079POPC   C1B53875  26.645   0.833   6.205
 4079POPC   C2B53876  26.749   0.798   6.664
 4079POPC   C3B53877  26.566   0.607   7.031
 4079POPC   C4B53878  26.413   0.417   7.400
 4080POPC   NC353879  13.267  30.192   5.410
 4080POPC   PO453880  13.799  29.824   5.495
 4080POPC   GL153881  13.516  29.927   5.840
 4080POPC   GL253882  13.507  30.278   5.871
 4080POPC   C1A53883  13.412  29.785   6.285
 4080POPC   D2A53884  13.690  29.627   6.611
 4080POPC   C3A53885  13.680  29.794   7.044
 4080POPC   C4A53886  13.318  29.938   7.275
 4080POPC   C1B53887  13.522  30.305   6.336
 4080POPC   C2B53888  13.738  30.283   6.777
 4080POPC   C3B53889  13.740  30.291   7.253
 4080POPC   C4B53890  13.860  30.425   7.684
 4081POPC   NC353891  32.607  44.697   5.361
 4081POPC   PO453892  31.999  44.519   5.380
 4081POPC   GL153893  32.241  44.700   5.776
 4081POPC   GL253894  32.577  44.863   5.838
 4081POPC   C1A53895  32.205  44.758   6.250
 4081POPC   D2A53896  32.136  44.407   6.559
 4081POPC   C3A53897  32.053  44.519   6.992
 4081POPC   C4A53898  32.111  44.915   7.190
 4081POPC   C1B53899  32.628  44.486   6.109
 4081POPC   C2B53900  32.664  44.448   6.565
 4081POPC   C3B53901  32.546  44.716   6.950
 4081POPC   C4B53902  32.444  44.596   7.389
 4082POPC   NC353903  17.729  17.146   5.219
 4082POPC   PO453904  17.323  17.594   5.458
 4082POPC   GL153905  17.555  17.493   5.816
 4082POPC   GL253906  17.469  17.183   5.873
 4082POPC   C1A53907  17.516  17.631   6.246
 4082POPC   D2A53908  17.630  17.959   6.538
 4082POPC   C3A53909  17.431  17.900   6.926
 4082POPC   C4A53910  17.467  17.558   7.204
 4082POPC   C1B53911  17.244  17.198   6.274
 4082POPC   C2B53912  17.304  17.372   6.715
 4082POPC   C3B53913  17.084  17.253   7.125
 4082POPC   C4B53914  17.171  17.329   7.569
 4083POPC   NC353915   2.085  16.974   5.330
 4083POPC   PO453916   1.756  16.374   5.562
 4083POPC   GL153917   1.763  16.774   5.762
 4083POPC   GL253918   2.122  16.786   5.800
 4083POPC   C1A53919   1.652  17.025   6.149
 4083POPC   D2A53920   1.628  16.855   6.569
 4083POPC   C3A53921   1.807  16.917   6.978
 4083POPC   C4A53922   1.842  16.621   7.339
 4083POPC   C1B53923   2.015  16.650   6.210
 4083POPC   C2B53924   2.159  16.791   6.596
 4083POPC   C3B53925   2.245  16.612   6.983
 4083POPC   C4B53926   2.170  16.250   7.225
 4084POPC   NC353927  33.688  32.756   5.561
 4084POPC   PO453928  33.822  33.297   5.294
 4084POPC   GL153929  33.668  33.238   5.738
 4084POPC   GL253930  33.318  33.354   5.700
 4084POPC   C1A53931  33.780  33.024   6.156
 4084POPC   D2A53932  33.938  33.010   6.577
 4084POPC   C3A53933  34.031  32.712   6.933
 4084POPC   C4A53934  33.897  32.928   7.277
 4084POPC   C1B53935  33.349  33.464   6.133
 4084POPC   C2B53936  33.496  33.292   6.503
 4084POPC   C3B53937  33.292  33.331   6.876
 4084POPC   C4B53938  33.448  33.226   7.251
 4085POPC   NC353939   0.213  34.095   5.363
 4085POPC   PO453940   0.584  33.576   5.425
 4085POPC   GL153941   0.247  33.710   5.787
 4085POPC   GL253942   0.049  34.035   5.827
 4085POPC   C1A53943   0.170  33.702   6.272
 4085POPC   D2A53944   0.323  33.630   6.746
 4085POPC   C3A53945   0.508  33.909   7.075
 4085POPC   C4A53946   0.889  33.995   7.329
 4085POPC   C1B53947   0.075  34.216   6.232
 4085POPC   C2B53948   0.110  34.088   6.625
 4085POPC   C3B53949   0.141  34.260   7.003
 4085POPC   C4B53950   0.125  34.065   7.405
 4086POPC   NC353951  13.388  20.081   5.461
 4086POPC   PO453952  13.857  19.565   5.465
 4086POPC   GL153953  13.899  19.807   5.847
 4086POPC   GL253954  13.849  20.168   5.806
 4086POPC   C1A53955  13.921  19.680   6.285
 4086POPC   D2A53956  14.090  19.786   6.696
 4086POPC   C3A53957  13.742  19.791   6.995
 4086POPC   C4A53958  13.709  19.483   7.313
 4086POPC   C1B53959  13.552  20.055   6.153
 4086POPC   C2B53960  13.470  19.863   6.553
 4086POPC   C3B53961  13.225  19.930   6.932
 4086POPC   C4B53962  13.358  19.866   7.367
 4087POPC   NC353963  33.279  14.590   5.459
 4087POPC   PO453964  32.902  14.041   5.431
 4087POPC   GL153965  32.987  14.345   5.791
 4087POPC   GL253966  32.726  14.578   5.895
 4087POPC   C1A53967  33.070  14.471   6.214
 4087POPC   D2A53968  32.865  14.698   6.523
 4087POPC   C3A53969  32.946  14.539   6.933
 4087POPC   C4A53970  33.233  14.326   7.257
 4087POPC   C1B53971  32.693  14.133   6.129
 4087POPC   C2B53972  32.598  13.988   6.553
 4087POPC   C3B53973  32.668  14.105   6.969
 4087POPC   C4B53974  32.717  14.337   7.352
 4088POPC   NC353975   9.246  12.131   5.465
 4088POPC   PO453976   8.544  12.078   5.367
 4088POPC   GL153977   8.689  12.268   5.742
 4088POPC   GL253978   8.986  12.200   5.884
 4088POPC   C1A53979   8.522  12.270   6.144
 4088POPC   D2A53980   8.373  12.155   6.537
 4088POPC   C3A53981   8.728  12.099   6.784
 4088POPC   C4A53982   8.882  12.335   7.108
 4088POPC   C1B53983   8.988  12.111   6.317
 4088POPC   C2B53984   9.131  12.375   6.639
 4088POPC   C3B53985   9.366  12.329   6.980
 4088POPC   C4B53986   9.385  12.044   7.340
 4089POPC   NC353987   7.092  28.362   5.346
 4089POPC   PO453988   6.413  28.346   5.334
 4089POPC   GL153989   6.431  28.308   5.735
 4089POPC   GL253990   6.766  28.436   5.804
 4089POPC   C1A53991   6.414  28.122   6.129
 4089POPC   D2A53992   6.729  28.170   6.419
 4089POPC   C3A53993   6.670  28.146   6.851
 4089POPC   C4A53994   6.315  28.197   7.082
 4089POPC   C1B53995   7.002  28.641   6.175
 4089POPC   C2B53996   6.873  28.642   6.608
 4089POPC   C3B53997   7.057  28.677   7.004
 4089POPC   C4B53998   6.936  28.824   7.413
 4090POPC   NC353999  42.312  37.090   5.408
 4090POPC   PO454000  42.675  36.497   5.365
 4090POPC   GL154001  42.377  36.686   5.741
 4090POPC   GL254002  42.452  37.042   5.890
 4090POPC   C1A54003  42.263  36.686   6.203
 4090POPC   D2A54004  42.251  37.018   6.536
 4090POPC   C3A54005  42.364  36.918   6.982
 4090POPC   C4A54006  42.321  36.487   7.172
 4090POPC   C1B54007  42.164  37.351   6.075
 4090POPC   C2B54008  41.931  37.424   6.456
 4090POPC   C3B54009  42.126  37.426   6.849
 4090POPC   C4B54010  42.045  37.285   7.264
 4091POPC   NC354011  15.096  32.675   5.876
 4091POPC   PO454012  14.961  32.157   5.482
 4091POPC   GL154013  15.145  32.146   5.916
 4091POPC   GL254014  15.496  32.042   6.004
 4091POPC   C1A54015  15.092  32.203   6.385
 4091POPC   D2A54016  14.812  32.047   6.706
 4091POPC   C3A54017  14.820  32.281   7.109
 4091POPC   C4A54018  15.179  32.341   7.384
 4091POPC   C1B54019  15.601  32.189   6.440
 4091POPC   C2B54020  15.397  32.141   6.856
 4091POPC   C3B54021  15.580  31.927   7.216
 4091POPC   C4B54022  16.034  32.009   7.365
 4092POPC   NC354023  21.045   1.642   5.482
 4092POPC   PO454024  21.420   2.251   5.439
 4092POPC   GL154025  21.558   2.219   5.852
 4092POPC   GL254026  21.684   2.517   5.862
 4092POPC   C1A54027  21.500   2.094   6.266
 4092POPC   D2A54028  21.416   1.843   6.604
 4092POPC   C3A54029  21.073   1.834   6.907
 4092POPC   C4A54030  20.932   2.189   7.159
 4092POPC   C1B54031  21.417   2.580   6.228
 4092POPC   C2B54032  21.289   2.408   6.643
 4092POPC   C3B54033  21.403   2.197   7.033
 4092POPC   C4B54034  21.508   2.150   7.470
 4093POPC   NC354035  25.103   4.902   5.042
 4093POPC   PO454036  25.423   5.240   5.566
 4093POPC   GL154037  25.234   5.191   5.904
 4093POPC   GL254038  25.060   5.498   5.836
 4093POPC   C1A54039  25.381   5.122   6.307
 4093POPC   D2A54040  25.325   4.877   6.666
 4093POPC   C3A54041  25.398   5.088   7.030
 4093POPC   C4A54042  25.029   5.007   7.263
 4093POPC   C1B54043  24.843   5.352   6.183
 4093POPC   C2B54044  24.945   5.208   6.576
 4093POPC   C3B54045  24.975   5.409   6.962
 4093POPC   C4B54046  25.369   5.602   7.152
 4094POPC   NC354047  22.526  23.170   5.278
 4094POPC   PO454048  21.935  22.714   5.316
 4094POPC   GL154049  22.012  22.911   5.738
 4094POPC   GL254050  22.369  22.970   5.739
 4094POPC   C1A54051  21.940  23.118   6.180
 4094POPC   D2A54052  21.970  23.395   6.596
 4094POPC   C3A54053  22.109  23.209   6.964
 4094POPC   C4A54054  21.991  22.815   7.174
 4094POPC   C1B54055  22.432  22.895   6.179
 4094POPC   C2B54056  22.210  22.883   6.571
 4094POPC   C3B54057  22.460  22.844   6.921
 4094POPC   C4B54058  22.608  22.899   7.293
 4095POPC   NC354059   8.504  34.915   5.312
 4095POPC   PO454060   8.143  35.568   5.344
 4095POPC   GL154061   8.278  35.234   5.639
 4095POPC   GL254062   8.353  35.463   5.864
 4095POPC   C1A54063   8.258  34.999   6.068
 4095POPC   D2A54064   8.096  35.039   6.517
 4095POPC   C3A54065   8.224  35.167   6.954
 4095POPC   C4A54066   8.147  35.559   7.215
 4095POPC   C1B54067   8.490  35.417   6.269
 4095POPC   C2B54068   8.389  35.537   6.660
 4095POPC   C3B54069   8.612  35.569   7.042
 4095POPC   C4B54070   8.613  35.732   7.482
 4096POPC   NC354071  12.534  32.325   5.321
 4096POPC   PO454072  13.217  32.177   5.544
 4096POPC   GL154073  12.949  32.134   5.854
 4096POPC   GL254074  12.633  31.987   5.755
 4096POPC   C1A54075  12.903  32.314   6.230
 4096POPC   D2A54076  12.905  32.151   6.618
 4096POPC   C3A54077  13.116  32.378   6.892
 4096POPC   C4A54078  13.090  32.203   7.240
 4096POPC   C1B54079  12.586  31.941   6.233
 4096POPC   C2B54080  12.392  32.130   6.611
 4096POPC   C3B54081  12.562  32.236   7.033
 4096POPC   C4B54082  12.657  32.053   7.446
 4097POPC   NC354083  38.942   4.877   5.486
 4097POPC   PO454084  39.243   5.345   5.149
 4097POPC   GL154085  38.992   5.363   5.644
 4097POPC   GL254086  39.064   5.087   5.926
 4097POPC   C1A54087  38.970   5.512   6.139
 4097POPC   D2A54088  39.182   5.200   6.443
 4097POPC   C3A54089  39.265   5.278   6.880
 4097POPC   C4A54090  39.194   5.609   7.199
 4097POPC   C1B54091  38.902   4.812   6.250
 4097POPC   C2B54092  39.030   4.753   6.674
 4097POPC   C3B54093  39.098   4.827   7.064
 4097POPC   C4B54094  38.892   5.199   7.221
 4098POPC   NC354095  19.523  35.490   5.508
 4098POPC   PO454096  20.156  35.726   5.327
 4098POPC   GL154097  19.996  35.542   5.718
 4098POPC   GL254098  19.754  35.753   5.908
 4098POPC   C1A54099  19.995  35.178   6.031
 4098POPC   D2A54100  20.154  35.007   6.449
 4098POPC   C3A54101  19.841  35.075   6.772
 4098POPC   C4A54102  19.859  35.013   7.198
 4098POPC   C1B54103  19.691  35.529   6.330
 4098POPC   C2B54104  19.404  35.441   6.720
 4098POPC   C3B54105  19.212  35.632   7.137
 4098POPC   C4B54106  19.416  35.615   7.563
 4099POPC   NC354107  27.878  42.527   5.300
 4099POPC   PO454108  27.293  42.189   5.445
 4099POPC   GL154109  27.343  42.394   5.792
 4099POPC   GL254110  27.678  42.547   5.773
 4099POPC   C1A54111  27.330  42.481   6.204
 4099POPC   D2A54112  27.556  42.391   6.599
 4099POPC   C3A54113  27.485  42.632   6.961
 4099POPC   C4A54114  27.282  42.458   7.323
 4099POPC   C1B54115  27.855  42.555   6.198
 4099POPC   C2B54116  27.904  42.771   6.612
 4099POPC   C3B54117  27.984  42.582   7.024
 4099POPC   C4B54118  27.742  42.188   7.069
 4100POPC   NC354119  33.029  23.385   5.607
 4100POPC   PO454120  33.074  22.752   5.258
 4100POPC   GL154121  33.054  22.882   5.722
 4100POPC   GL254122  32.773  23.103   5.927
 4100POPC   C1A54123  33.217  22.925   6.151
 4100POPC   D2A54124  33.088  22.823   6.554
 4100POPC   C3A54125  33.139  22.950   6.980
 4100POPC   C4A54126  32.752  23.014   7.206
 4100POPC   C1B54127  32.758  22.718   6.115
 4100POPC   C2B54128  32.707  22.490   6.465
 4100POPC   C3B54129  32.850  22.508   6.885
 4100POPC   C4B54130  32.634  22.504   7.242
 4101POPC   NC354131  24.985  31.575   5.379
 4101POPC   PO454132  25.260  31.067   5.718
 4101POPC   GL154133  25.048  31.384   5.958
 4101POPC   GL254134  25.139  31.713   5.864
 4101POPC   C1A54135  24.922  31.304   6.367
 4101POPC   D2A54136  25.297  31.361   6.602
 4101POPC   C3A54137  25.225  31.271   7.018
 4101POPC   C4A54138  25.594  31.251   7.290
 4101POPC   C1B54139  25.069  31.789   6.328
 4101POPC   C2B54140  24.935  31.682   6.766
 4101POPC   C3B54141  25.073  31.730   7.217
 4101POPC   C4B54142  25.211  31.801   7.650
 4102POPC   NC354143  41.207  40.939   5.327
 4102POPC   PO454144  41.678  40.568   5.567
 4102POPC   GL154145  41.481  40.815   5.792
 4102POPC   GL254146  41.177  40.614   5.749
 4102POPC   C1A54147  41.657  40.930   6.199
 4102POPC   D2A54148  41.677  40.706   6.618
 4102POPC   C3A54149  41.779  40.920   7.007
 4102POPC   C4A54150  41.936  41.195   7.336
 4102POPC   C1B54151  41.066  40.923   6.059
 4102POPC   C2B54152  41.229  40.881   6.449
 4102POPC   C3B54153  41.259  40.868   6.885
 4102POPC   C4B54154  41.408  40.580   7.189
 4103POPC   NC354155  27.518  11.747   5.426
 4103POPC   PO454156  27.897  12.295   5.296
 4103POPC   GL154157  27.704  12.178   5.683
 4103POPC   GL254158  27.342  12.150   5.676
 4103POPC   C1A54159  27.795  12.006   6.097
 4103POPC   D2A54160  27.966  12.043   6.506
 4103POPC   C3A54161  27.832  12.247   6.853
 4103POPC   C4A54162  27.862  12.081   7.243
 4103POPC   C1B54163  27.331  12.187   6.119
 4103POPC   C2B54164  27.429  12.019   6.540
 4103POPC   C3B54165  27.401  11.967   6.976
 4103POPC   C4B54166  27.372  12.267   7.309
 4104POPC   NC354167  34.811  28.886   5.461
 4104POPC   PO454168  34.257  29.303   5.328
 4104POPC   GL154169  34.234  29.281   5.793
 4104POPC   GL254170  34.612  29.243   5.810
 4104POPC   C1A54171  34.327  29.039   6.194
 4104POPC   D2A54172  34.652  29.035   6.552
 4104POPC   C3A54173  34.482  29.013   6.996
 4104POPC   C4A54174  34.218  28.927   7.376
 4104POPC   C1B54175  34.954  29.290   6.129
 4104POPC   C2B54176  35.129  29.277   6.544
 4104POPC   C3B54177  35.003  29.255   6.962
 4104POPC   C4B54178  34.695  29.450   7.218
 4105POPC   NC354179  36.242  26.797   5.398
 4105POPC   PO454180  35.601  27.065   5.403
 4105POPC   GL154181  35.931  27.013   5.759
 4105POPC   GL254182  35.985  26.642   5.827
 4105POPC   C1A54183  36.096  26.924   6.213
 4105POPC   D2A54184  36.103  26.643   6.556
 4105POPC   C3A54185  36.104  26.948   6.881
 4105POPC   C4A54186  35.870  27.189   7.199
 4105POPC   C1B54187  36.345  26.447   6.107
 4105POPC   C2B54188  36.429  26.230   6.535
 4105POPC   C3B54189  36.222  26.303   6.939
 4105POPC   C4B54190  35.857  26.553   7.109
 4106POPC   NC354191  26.624  15.767   5.259
 4106POPC   PO454192  26.945  16.106   5.690
 4106POPC   GL154193  26.830  15.794   5.896
 4106POPC   GL254194  27.121  15.576   5.796
 4106POPC   C1A54195  26.651  15.966   6.296
 4106POPC   D2A54196  26.580  16.251   6.651
 4106POPC   C3A54197  26.655  15.928   6.982
 4106POPC   C4A54198  26.671  15.448   7.036
 4106POPC   C1B54199  27.146  15.687   6.260
 4106POPC   C2B54200  26.912  15.633   6.613
 4106POPC   C3B54201  27.184  15.521   6.929
 4106POPC   C4B54202  27.332  15.728   7.266
 4107POPC   NC354203  25.128   9.843   5.384
 4107POPC   PO454204  25.592  10.152   5.550
 4107POPC   GL154205  25.409   9.884   5.843
 4107POPC   GL254206  25.069   9.930   5.912
 4107POPC   C1A54207  25.554   9.678   6.231
 4107POPC   D2A54208  25.651   9.813   6.659
 4107POPC   C3A54209  25.488   9.619   7.049
 4107POPC   C4A54210  25.270   9.798   7.374
 4107POPC   C1B54211  25.143   9.935   6.381
 4107POPC   C2B54212  25.163   9.588   6.673
 4107POPC   C3B54213  24.975   9.502   7.088
 4107POPC   C4B54214  24.753   9.867   7.267
 4108POPC   NC354215  32.772  17.063   5.530
 4108POPC   PO454216  33.050  16.453   5.297
 4108POPC   GL154217  33.042  16.663   5.761
 4108POPC   GL254218  33.207  16.976   5.856
 4108POPC   C1A54219  32.887  16.782   6.228
 4108POPC   D2A54220  32.671  16.711   6.666
 4108POPC   C3A54221  32.990  16.616   7.010
 4108POPC   C4A54222  33.329  16.343   7.183
 4108POPC   C1B54223  33.215  17.195   6.247
 4108POPC   C2B54224  33.284  17.388   6.668
 4108POPC   C3B54225  33.164  17.259   7.099
 4108POPC   C4B54226  33.008  17.202   7.537
 4109POPC   NC354227   0.746   5.880   5.304
 4109POPC   PO454228   0.075   5.815   5.371
 4109POPC   GL154229   0.372   6.042   5.654
 4109POPC   GL254230   0.153   6.135   5.902
 4109POPC   C1A54231   0.606   5.950   6.081
 4109POPC   D2A54232   0.573   5.767   6.506
 4109POPC   C3A54233   0.524   5.946   6.911
 4109POPC   C4A54234   0.765   5.921   7.274
 4109POPC   C1B54235   0.128   5.952   6.280
 4109POPC   C2B54236  44.867   6.071   6.635
 4109POPC   C3B54237   0.022   6.105   6.999
 4109POPC   C4B54238   0.278   6.027   7.355
 4110POPC   NC354239  21.887  35.573   5.345
 4110POPC   PO454240  22.415  35.254   5.260
 4110POPC   GL154241  22.417  35.243   5.729
 4110POPC   GL254242  22.066  35.200   5.752
 4110POPC   C1A54243  22.327  35.401   6.185
 4110POPC   D2A54244  22.431  35.344   6.643
 4110POPC   C3A54245  22.277  35.416   7.069
 4110POPC   C4A54246  22.319  35.468   7.504
 4110POPC   C1B54247  21.829  35.374   6.106
 4110POPC   C2B54248  21.904  35.591   6.493
 4110POPC   C3B54249  21.781  35.428   6.904
 4110POPC   C4B54250  21.834  35.494   7.341
 4111POPC   NC354251  39.658  37.294   5.237
 4111POPC   PO454252  40.218  36.995   5.304
 4111POPC   GL154253  40.160  36.951   5.751
 4111POPC   GL254254  39.992  36.642   5.856
 4111POPC   C1A54255  40.302  36.884   6.194
 4111POPC   D2A54256  40.427  36.627   6.548
 4111POPC   C3A54257  40.330  36.893   6.898
 4111POPC   C4A54258  39.984  36.893   7.213
 4111POPC   C1B54259  39.798  37.020   6.120
 4111POPC   C2B54260  39.700  36.989   6.579
 4111POPC   C3B54261  39.574  37.163   6.993
 4111POPC   C4B54262  39.475  36.988   7.386
 4112POPC   NC354263  10.673  43.581   5.429
 4112POPC   PO454264  10.443  44.237   5.140
 4112POPC   GL154265  10.522  44.065   5.661
 4112POPC   GL254266  10.232  44.050   5.907
 4112POPC   C1A54267  10.598  43.768   6.140
 4112POPC   D2A54268  10.560  43.541   6.569
 4112POPC   C3A54269  10.822  43.673   6.917
 4112POPC   C4A54270  10.839  43.976   7.233
 4112POPC   C1B54271  10.378  44.167   6.340
 4112POPC   C2B54272  10.323  43.982   6.727
 4112POPC   C3B54273  10.328  44.045   7.146
 4112POPC   C4B54274  10.332  44.025   7.588
 4113POPC   NC354275  24.292  37.712   5.731
 4113POPC   PO454276  23.602  37.710   5.467
 4113POPC   GL154277  23.538  37.860   5.886
 4113POPC   GL254278  23.384  37.555   6.074
 4113POPC   C1A54279  23.705  37.878   6.300
 4113POPC   D2A54280  23.596  37.619   6.643
 4113POPC   C3A54281  23.545  37.981   6.903
 4113POPC   C4A54282  23.730  38.026   7.277
 4113POPC   C1B54283  23.836  37.404   6.184
 4113POPC   C2B54284  24.089  37.392   6.576
 4113POPC   C3B54285  23.904  37.390   6.997
 4113POPC   C4B54286  23.519  37.570   7.181
 4114POPC   NC354287   6.164  21.773   5.588
 4114POPC   PO454288   6.714  21.847   5.221
 4114POPC   GL154289   6.636  22.069   5.661
 4114POPC   GL254290   6.316  22.247   5.778
 4114POPC   C1A54291   6.759  22.211   6.103
 4114POPC   D2A54292   6.826  22.404   6.538
 4114POPC   C3A54293   6.837  22.118   6.900
 4114POPC   C4A54294   6.668  22.154   7.316
 4114POPC   C1B54295   6.252  22.035   6.181
 4114POPC   C2B54296   6.422  22.107   6.572
 4114POPC   C3B54297   6.282  22.186   6.982
 4114POPC   C4B54298   6.180  22.031   7.389
 4115POPC   NC354299   9.584  33.785   5.328
 4115POPC   PO454300  10.275  34.067   5.357
 4115POPC   GL154301   9.976  33.856   5.681
 4115POPC   GL254302   9.689  33.602   5.776
 4115POPC   C1A54303   9.946  33.861   6.131
 4115POPC   D2A54304   9.628  33.903   6.474
 4115POPC   C3A54305   9.669  33.932   6.915
 4115POPC   C4A54306   9.966  33.836   7.241
 4115POPC   C1B54307   9.437  33.580   6.134
 4115POPC   C2B54308   9.200  33.612   6.516
 4115POPC   C3B54309   9.428  33.491   6.849
 4115POPC   C4B54310   9.463  33.650   7.278
 4116POPC   NC354311  18.516  38.743   5.394
 4116POPC   PO454312  18.178  38.284   5.283
 4116POPC   GL154313  18.135  38.571   5.689
 4116POPC   GL254314  18.270  38.331   5.859
 4116POPC   C1A54315  18.272  38.726   6.151
 4116POPC   D2A54316  18.268  38.494   6.556
 4116POPC   C3A54317  18.511  38.520   6.935
 4116POPC   C4A54318  18.462  38.665   7.329
 4116POPC   C1B54319  17.940  38.310   6.198
 4116POPC   C2B54320  17.889  38.168   6.655
 4116POPC   C3B54321  18.087  38.250   7.075
 4116POPC   C4B54322  17.978  38.170   7.510
 4117POPC   NC354323  22.781   4.594   5.270
 4117POPC   PO454324  22.760   3.939   5.376
 4117POPC   GL154325  22.959   4.089   5.739
 4117POPC   GL254326  22.970   4.464   5.776
 4117POPC   C1A54327  23.090   4.052   6.135
 4117POPC   D2A54328  22.943   4.239   6.518
 4117POPC   C3A54329  23.057   4.178   6.944
 4117POPC   C4A54330  22.813   3.978   7.226
 4117POPC   C1B54331  22.854   4.630   6.192
 4117POPC   C2B54332  23.085   4.737   6.607
 4117POPC   C3B54333  23.070   4.702   7.057
 4117POPC   C4B54334  22.840   4.457   7.347
 4118POPC   NC354335  25.739  15.745   5.109
 4118POPC   PO454336  26.183  15.350   5.489
 4118POPC   GL154337  25.999  15.150   5.832
 4118POPC   GL254338  25.712  14.937   5.708
 4118POPC   C1A54339  26.037  15.273   6.258
 4118POPC   D2A54340  26.120  15.061   6.643
 4118POPC   C3A54341  26.219  15.217   7.037
 4118POPC   C4A54342  26.042  15.081   7.413
 4118POPC   C1B54343  25.571  15.077   6.129
 4118POPC   C2B54344  25.646  15.254   6.573
 4118POPC   C3B54345  25.720  15.123   7.016
 4118POPC   C4B54346  25.544  15.256   7.427
 4119POPC   NC354347  20.388  17.826   5.507
 4119POPC   PO454348  20.538  17.126   5.236
 4119POPC   GL154349  20.658  17.241   5.684
 4119POPC   GL254350  21.009  17.268   5.602
 4119POPC   C1A54351  20.600  17.403   6.156
 4119POPC   D2A54352  20.340  17.412   6.574
 4119POPC   C3A54353  20.487  17.344   6.998
 4119POPC   C4A54354  20.401  17.544   7.382
 4119POPC   C1B54355  21.071  17.186   6.037
 4119POPC   C2B54356  21.055  17.241   6.497
 4119POPC   C3B54357  20.974  17.434   6.899
 4119POPC   C4B54358  20.896  17.567   7.323
 4120POPC   NC354359  13.535   8.385   5.365
 4120POPC   PO454360  13.264   7.915   5.716
 4120POPC   GL154361  13.642   8.079   5.874
 4120POPC   GL254362  13.529   8.400   5.887
 4120POPC   C1A54363  13.944   8.066   6.252
 4120POPC   D2A54364  14.121   7.823   6.607
 4120POPC   C3A54365  13.857   7.760   6.957
 4120POPC   C4A54366  13.829   7.940   7.329
 4120POPC   C1B54367  13.435   8.248   6.312
 4120POPC   C2B54368  13.640   8.132   6.676
 4120POPC   C3B54369  13.740   8.354   7.024
 4120POPC   C4B54370  13.540   8.361   7.413
 4121POPC   NC354371  24.680  21.694   5.498
 4121POPC   PO454372  24.242  21.328   5.220
 4121POPC   GL154373  24.444  21.295   5.688
 4121POPC   GL254374  24.280  21.606   5.817
 4121POPC   C1A54375  24.456  21.314   6.177
 4121POPC   D2A54376  24.104  21.422   6.467
 4121POPC   C3A54377  24.226  21.410   6.937
 4121POPC   C4A54378  24.596  21.293   7.193
 4121POPC   C1B54379  24.394  21.837   6.202
 4121POPC   C2B54380  24.455  21.763   6.624
 4121POPC   C3B54381  24.579  21.986   6.968
 4121POPC   C4B54382  24.349  21.876   7.284
 4122POPC   NC354383  28.742   0.958   5.367
 4122POPC   PO454384  28.157   0.925   5.561
 4122POPC   GL154385  28.462   1.190   5.748
 4122POPC   GL254386  28.235   1.447   5.764
 4122POPC   C1A54387  28.706   1.201   6.128
 4122POPC   D2A54388  28.857   1.054   6.519
 4122POPC   C3A54389  28.653   1.231   6.896
 4122POPC   C4A54390  28.435   1.288   7.281
 4122POPC   C1B54391  28.183   1.196   6.195
 4122POPC   C2B54392  28.113   1.202   6.677
 4122POPC   C3B54393  27.957   1.274   7.116
 4122POPC   C4B54394  28.045   1.228   7.606
 4123POPC   NC354395  32.278  24.689   5.298
 4123POPC   PO454396  31.859  24.089   5.246
 4123POPC   GL154397  32.058  24.247   5.624
 4123POPC   GL254398  32.333  24.483   5.762
 4123POPC   C1A54399  31.963  24.254   6.057
 4123POPC   D2A54400  31.903  24.113   6.477
 4123POPC   C3A54401  32.083  24.401   6.783
 4123POPC   C4A54402  31.993  24.514   7.185
 4123POPC   C1B54403  32.256  24.779   6.121
 4123POPC   C2B54404  32.140  24.872   6.560
 4123POPC   C3B54405  32.316  24.859   6.988
 4123POPC   C4B54406  32.697  24.863   7.276
 4124POPC   NC354407  18.030  11.318   5.564
 4124POPC   PO454408  18.541  11.045   5.293
 4124POPC   GL154409  18.469  10.938   5.737
 4124POPC   GL254410  18.105  10.851   5.750
 4124POPC   C1A54411  18.500  11.185   6.126
 4124POPC   D2A54412  18.303  11.403   6.441
 4124POPC   C3A54413  18.338  11.314   6.878
 4124POPC   C4A54414  18.164  11.630   7.122
 4124POPC   C1B54415  18.040  10.960   6.170
 4124POPC   C2B54416  18.057  10.758   6.552
 4124POPC   C3B54417  18.091  10.843   6.996
 4124POPC   C4B54418  17.908  11.191   7.167
 4125POPC   NC354419   8.394   0.105   5.502
 4125POPC   PO454420   8.019   0.683   5.523
 4125POPC   GL154421   7.880   0.501   5.892
 4125POPC   GL254422   7.640   0.220   5.842
 4125POPC   C1A54423   8.125   0.508   6.227
 4125POPC   D2A54424   8.280   0.278   6.579
 4125POPC   C3A54425   8.130   0.433   6.930
 4125POPC   C4A54426   8.115   0.613   7.318
 4125POPC   C1B54427   7.962   0.035   6.138
 4125POPC   C2B54428   7.919  44.904   6.542
 4125POPC   C3B54429   7.886  44.923   6.967
 4125POPC   C4B54430   8.132   0.068   7.299
 4126POPC   NC354431  17.111  21.213   5.466
 4126POPC   PO454432  17.525  21.626   5.157
 4126POPC   GL154433  17.589  21.220   5.581
 4126POPC   GL254434  17.354  21.357   5.872
 4126POPC   C1A54435  17.790  21.182   6.041
 4126POPC   D2A54436  18.003  21.434   6.405
 4126POPC   C3A54437  17.850  21.552   6.832
 4126POPC   C4A54438  17.794  21.316   7.203
 4126POPC   C1B54439  17.445  21.480   6.296
 4126POPC   C2B54440  17.315  21.270   6.640
 4126POPC   C3B54441  17.336  21.368   7.042
 4126POPC   C4B54442  17.481  21.694   7.292
 4127POPC   NC354443  44.944   9.955   5.691
 4127POPC   PO454444  44.409  10.135   5.386
 4127POPC   GL154445  44.292   9.885   5.793
 4127POPC   GL254446  44.574   9.664   5.947
 4127POPC   C1A54447  44.240   9.891   6.263
 4127POPC   D2A54448  44.378   9.995   6.690
 4127POPC   C3A54449  44.515   9.656   6.952
 4127POPC   C4A54450  44.832   9.580   7.224
 4127POPC   C1B54451  44.758   9.803   6.371
 4127POPC   C2B54452  44.990   9.874   6.785
 4127POPC   C3B54453   0.108   9.998   7.230
 4127POPC   C4B54454  44.915   9.901   7.640
 4128POPC   NC354455  31.645  12.960   5.314
 4128POPC   PO454456  31.065  12.980   5.676
 4128POPC   GL154457  31.295  12.699   5.912
 4128POPC   GL254458  31.599  12.793   5.794
 4128POPC   C1A54459  31.455  12.649   6.351
 4128POPC   D2A54460  31.584  12.593   6.789
 4128POPC   C3A54461  31.398  12.915   7.050
 4128POPC   C4A54462  31.273  12.810   7.445
 4128POPC   C1B54463  31.681  13.052   6.147
 4128POPC   C2B54464  31.884  12.938   6.528
 4128POPC   C3B54465  31.905  12.987   6.968
 4128POPC   C4B54466  31.793  12.739   7.314
 4129POPC   NC354467  10.185  41.996   5.457
 4129POPC   PO454468   9.883  42.612   5.436
 4129POPC   GL154469  10.211  42.467   5.721
 4129POPC   GL254470   9.961  42.433   5.926
 4129POPC   C1A54471  10.348  42.188   6.119
 4129POPC   D2A54472  10.296  42.009   6.558
 4129POPC   C3A54473  10.537  42.219   6.878
 4129POPC   C4A54474  10.667  42.146   7.306
 4129POPC   C1B54475  10.130  42.711   6.198
 4129POPC   C2B54476  10.246  42.525   6.539
 4129POPC   C3B54477  10.238  42.614   6.945
 4129POPC   C4B54478  10.214  42.356   7.297
 4130POPC   NC354479  26.384  32.843   5.414
 4130POPC   PO454480  27.079  32.826   5.366
 4130POPC   GL154481  26.796  32.860   5.755
 4130POPC   GL254482  26.706  33.205   5.898
 4130POPC   C1A54483  26.722  32.792   6.218
 4130POPC   D2A54484  26.834  33.019   6.609
 4130POPC   C3A54485  27.003  32.807   6.973
 4130POPC   C4A54486  27.141  32.831   7.379
 4130POPC   C1B54487  26.432  33.236   6.269
 4130POPC   C2B54488  26.324  33.017   6.617
 4130POPC   C3B54489  26.491  32.831   6.958
 4130POPC   C4B54490  26.643  32.879   7.372
 4131POPC   NC354491  39.221   7.964   5.664
 4131POPC   PO454492  38.993   8.527   5.485
 4131POPC   GL154493  39.059   8.371   5.907
 4131POPC   GL254494  38.788   8.088   5.902
 4131POPC   C1A54495  39.279   8.263   6.311
 4131POPC   D2A54496  39.635   8.170   6.615
 4131POPC   C3A54497  39.596   8.041   7.013
 4131POPC   C4A54498  39.404   8.124   7.357
 4131POPC   C1B54499  38.984   7.866   6.266
 4131POPC   C2B54500  39.167   7.918   6.686
 4131POPC   C3B54501  39.103   7.800   7.118
 4131POPC   C4B54502  38.967   7.972   7.547
 4132POPC   NC354503   9.431  18.501   5.626
 4132POPC   PO454504   8.793  18.060   5.471
 4132POPC   GL154505   8.942  18.343   5.775
 4132POPC   GL254506   9.077  18.031   5.926
 4132POPC   C1A54507   8.738  18.612   6.115
 4132POPC   D2A54508   8.853  18.687   6.574
 4132POPC   C3A54509   8.663  18.506   6.965
 4132POPC   C4A54510   8.904  18.190   7.241
 4132POPC   C1B54511   9.104  18.299   6.289
 4132POPC   C2B54512   9.028  18.232   6.713
 4132POPC   C3B54513   9.243  18.468   6.981
 4132POPC   C4B54514   9.417  18.450   7.382
 4133POPC   NC354515  21.814  36.503   5.114
 4133POPC   PO454516  21.295  36.890   5.315
 4133POPC   GL154517  21.410  36.964   5.788
 4133POPC   GL254518  21.625  36.731   5.947
 4133POPC   C1A54519  21.527  37.198   6.218
 4133POPC   D2A54520  21.747  37.253   6.657
 4133POPC   C3A54521  21.469  37.142   6.978
 4133POPC   C4A54522  21.494  36.875   7.329
 4133POPC   C1B54523  21.416  36.462   6.205
 4133POPC   C2B54524  21.218  36.469   6.560
 4133POPC   C3B54525  21.228  36.640   6.935
 4133POPC   C4B54526  21.102  36.556   7.311
 4134POPC   NC354527  34.874  11.239   5.244
 4134POPC   PO454528  34.303  11.464   5.249
 4134POPC   GL154529  34.524  11.282   5.631
 4134POPC   GL254530  34.874  11.189   5.764
 4134POPC   C1A54531  34.417  11.271   6.078
 4134POPC   D2A54532  34.290  11.128   6.499
 4134POPC   C3A54533  34.497  11.211   6.860
 4134POPC   C4A54534  34.462  11.348   7.256
 4134POPC   C1B54535  34.905  11.148   6.236
 4134POPC   C2B54536  34.954  11.352   6.652
 4134POPC   C3B54537  34.979  11.273   7.094
 4134POPC   C4B54538  34.853  11.034   7.463
 4135POPC   NC354539  39.192   9.532   5.389
 4135POPC   PO454540  38.752  10.080   5.407
 4135POPC   GL154541  38.949   9.824   5.736
 4135POPC   GL254542  39.309   9.931   5.714
 4135POPC   C1A54543  39.177   9.604   6.100
 4135POPC   D2A54544  39.393   9.817   6.469
 4135POPC   C3A54545  39.231   9.804   6.883
 4135POPC   C4A54546  39.147   9.483   7.196
 4135POPC   C1B54547  39.169  10.144   6.108
 4135POPC   C2B54548  38.962  10.235   6.515
 4135POPC   C3B54549  38.965  10.225   6.982
 4135POPC   C4B54550  39.142   9.998   7.353
 4136POPC   NC354551  19.725  28.248   5.769
 4136POPC   PO454552  20.104  28.688   5.650
 4136POPC   GL154553  19.808  28.737   5.996
 4136POPC   GL254554  19.442  28.653   5.968
 4136POPC   C1A54555  19.890  28.538   6.414
 4136POPC   D2A54556  20.130  28.320   6.735
 4136POPC   C3A54557  20.020  28.444   7.150
 4136POPC   C4A54558  19.709  28.249   7.438
 4136POPC   C1B54559  19.407  28.658   6.451
 4136POPC   C2B54560  19.652  28.706   6.861
 4136POPC   C3B54561  19.663  28.765   7.327
 4136POPC   C4B54562  19.391  28.592   7.665
 4137POPC   NC354563  33.324  36.950   5.119
 4137POPC   PO454564  32.718  36.752   5.495
 4137POPC   GL154565  33.032  36.791   5.773
 4137POPC   GL254566  33.150  37.119   5.771
 4137POPC   C1A54567  33.049  36.690   6.211
 4137POPC   D2A54568  32.934  36.941   6.579
 4137POPC   C3A54569  33.059  36.732   6.943
 4137POPC   C4A54570  32.788  36.492   7.245
 4137POPC   C1B54571  33.277  37.162   6.238
 4137POPC   C2B54572  33.427  37.280   6.696
 4137POPC   C3B54573  33.227  37.207   7.103
 4137POPC   C4B54574  32.967  36.956   7.422
 4138POPC   NC354575  40.087  22.690   5.311
 4138POPC   PO454576  39.856  23.231   5.538
 4138POPC   GL154577  39.967  23.108   5.944
 4138POPC   GL254578  40.081  22.793   5.828
 4138POPC   C1A54579  40.294  23.008   6.274
 4138POPC   D2A54580  40.576  23.053   6.624
 4138POPC   C3A54581  40.381  23.172   7.028
 4138POPC   C4A54582  39.977  23.067   7.249
 4138POPC   C1B54583  39.891  22.707   6.249
 4138POPC   C2B54584  39.771  23.008   6.594
 4138POPC   C3B54585  39.538  22.942   7.000
 4138POPC   C4B54586  39.703  22.575   7.274
 4139POPC   NC354587   6.578  33.300   5.341
 4139POPC   PO454588   6.962  32.764   5.515
 4139POPC   GL154589   6.914  33.087   5.857
 4139POPC   GL254590   6.592  33.051   5.799
 4139POPC   C1A54591   6.751  33.124   6.327
 4139POPC   D2A54592   6.793  32.993   6.794
 4139POPC   C3A54593   6.899  33.277   7.142
 4139POPC   C4A54594   6.574  33.483   7.376
 4139POPC   C1B54595   6.403  32.734   6.066
 4139POPC   C2B54596   6.424  32.726   6.506
 4139POPC   C3B54597   6.387  32.734   6.935
 4139POPC   C4B54598   6.505  32.993   7.264
 4140POPC   NC354599  16.835   4.961   5.264
 4140POPC   PO454600  17.056   5.470   5.549
 4140POPC   GL154601  16.794   5.156   5.805
 4140POPC   GL254602  16.701   4.821   5.718
 4140POPC   C1A54603  16.862   5.021   6.251
 4140POPC   D2A54604  16.978   5.283   6.589
 4140POPC   C3A54605  17.026   5.134   6.985
 4140POPC   C4A54606  16.827   5.423   7.239
 4140POPC   C1B54607  16.482   4.758   6.048
 4140POPC   C2B54608  16.421   4.781   6.497
 4140POPC   C3B54609  16.548   5.044   6.816
 4140POPC   C4B54610  16.582   4.977   7.222
 4141POPC   NC354611  24.965  22.642   5.360
 4141POPC   PO454612  25.355  23.228   5.332
 4141POPC   GL154613  25.343  23.139   5.758
 4141POPC   GL254614  25.660  23.126   5.824
 4141POPC   C1A54615  25.173  23.077   6.181
 4141POPC   D2A54616  25.061  23.336   6.549
 4141POPC   C3A54617  25.186  23.079   6.901
 4141POPC   C4A54618  25.046  22.821   7.218
 4141POPC   C1B54619  25.813  23.201   6.197
 4141POPC   C2B54620  25.586  23.059   6.539
 4141POPC   C3B54621  25.711  23.134   6.940
 4141POPC   C4B54622  25.564  22.969   7.300
 4142POPC   NC354623  35.184  16.489   5.660
 4142POPC   PO454624  35.636  16.949   5.466
 4142POPC   GL154625  35.652  16.691   5.843
 4142POPC   GL254626  35.649  16.330   5.765
 4142POPC   C1A54627  35.459  16.647   6.268
 4142POPC   D2A54628  35.187  16.507   6.630
 4142POPC   C3A54629  35.367  16.699   6.992
 4142POPC   C4A54630  35.395  16.750   7.422
 4142POPC   C1B54631  35.514  16.140   6.147
 4142POPC   C2B54632  35.624  16.252   6.560
 4142POPC   C3B54633  35.746  16.123   6.937
 4142POPC   C4B54634  35.444  16.225   7.212
 4143POPC   NC354635  18.411   5.675   5.502
 4143POPC   PO454636  18.426   5.017   5.329
 4143POPC   GL154637  18.197   5.106   5.765
 4143POPC   GL254638  18.040   5.445   5.835
 4143POPC   C1A54639  18.261   5.196   6.232
 4143POPC   D2A54640  18.500   5.220   6.607
 4143POPC   C3A54641  18.490   4.838   6.850
 4143POPC   C4A54642  18.402   4.894   7.265
 4143POPC   C1B54643  17.803   5.442   6.217
 4143POPC   C2B54644  17.840   5.194   6.558
 4143POPC   C3B54645  18.088   5.184   6.926
 4143POPC   C4B54646  18.249   5.410   7.250
 4144POPC   NC354647  35.039   7.563   5.244
 4144POPC   PO454648  35.453   7.135   5.412
 4144POPC   GL154649  35.640   7.307   5.770
 4144POPC   GL254650  35.393   7.560   5.749
 4144POPC   C1A54651  35.667   7.446   6.188
 4144POPC   D2A54652  35.376   7.318   6.486
 4144POPC   C3A54653  35.482   7.231   6.886
 4144POPC   C4A54654  35.165   7.215   7.145
 4144POPC   C1B54655  35.179   7.661   6.113
 4144POPC   C2B54656  35.267   7.819   6.507
 4144POPC   C3B54657  35.239   7.676   6.887
 4144POPC   C4B54658  35.271   7.748   7.287
 4145POPC   NC354659  19.666  18.161   5.345
 4145POPC   PO454660  20.285  18.361   5.414
 4145POPC   GL154661  20.015  18.151   5.714
 4145POPC   GL254662  19.731  18.383   5.811
 4145POPC   C1A54663  19.939  18.085   6.153
 4145POPC   D2A54664  19.763  18.278   6.513
 4145POPC   C3A54665  20.020  18.255   6.869
 4145POPC   C4A54666  19.870  18.118   7.247
 4145POPC   C1B54667  19.545  18.611   6.172
 4145POPC   C2B54668  19.436  18.661   6.619
 4145POPC   C3B54669  19.500  18.380   6.974
 4145POPC   C4B54670  19.568  18.470   7.426
 4146POPC   NC354671  29.801  11.122   5.450
 4146POPC   PO454672  30.133  11.603   5.198
 4146POPC   GL154673  30.110  11.468   5.720
 4146POPC   GL254674  30.072  11.096   5.883
 4146POPC   C1A54675  29.845  11.448   6.171
 4146POPC   D2A54676  29.972  11.287   6.555
 4146POPC   C3A54677  30.060  11.479   6.962
 4146POPC   C4A54678  30.330  11.247   7.225
 4146POPC   C1B54679  29.652  10.982   6.081
 4146POPC   C2B54680  29.517  11.054   6.496
 4146POPC   C3B54681  29.697  11.036   6.897
 4146POPC   C4B54682  29.826  11.115   7.294
 4147POPC   NC354683  32.893  18.647   5.529
 4147POPC   PO454684  32.957  19.403   5.424
 4147POPC   GL154685  33.153  19.312   5.837
 4147POPC   GL254686  33.063  18.979   5.895
 4147POPC   C1A54687  32.979  19.340   6.268
 4147POPC   D2A54688  32.772  19.095   6.619
 4147POPC   C3A54689  32.851  19.220   7.055
 4147POPC   C4A54690  33.219  19.142   7.290
 4147POPC   C1B54691  33.268  18.891   6.286
 4147POPC   C2B54692  33.196  18.626   6.648
 4147POPC   C3B54693  33.025  18.703   7.050
 4147POPC   C4B54694  33.182  18.667   7.469
 4148POPC   NC354695  30.854  10.854   5.634
 4148POPC   PO454696  30.605  10.271   5.482
 4148POPC   GL154697  30.724  10.381   5.873
 4148POPC   GL254698  31.040  10.317   5.824
 4148POPC   C1A54699  30.603  10.554   6.258
 4148POPC   D2A54700  30.761  10.647   6.673
 4148POPC   C3A54701  30.735  10.332   7.015
 4148POPC   C4A54702  30.593  10.410   7.502
 4148POPC   C1B54703  31.117  10.474   6.220
 4148POPC   C2B54704  31.114  10.272   6.604
 4148POPC   C3B54705  31.215  10.460   6.968
 4148POPC   C4B54706  31.056  10.512   7.384
 4149POPC   NC354707   5.011   0.096   5.523
 4149POPC   PO454708   4.957   0.672   5.250
 4149POPC   GL154709   5.144   0.658   5.700
 4149POPC   GL254710   5.461   0.852   5.789
 4149POPC   C1A54711   5.138   0.517   6.150
 4149POPC   D2A54712   5.223   0.325   6.563
 4149POPC   C3A54713   4.942   0.430   6.888
 4149POPC   C4A54714   4.715   0.153   7.148
 4149POPC   C1B54715   5.365   0.973   6.227
 4149POPC   C2B54716   5.125   0.858   6.616
 4149POPC   C3B54717   5.286   0.801   7.063
 4149POPC   C4B54718   5.439   0.997   7.490
 4150POPC   NC354719  17.036  17.867   5.237
 4150POPC   PO454720  16.751  18.420   5.387
 4150POPC   GL154721  16.631  18.383   5.796
 4150POPC   GL254722  16.508  18.709   5.852
 4150POPC   C1A54723  16.821  18.396   6.223
 4150POPC   D2A54724  16.735  18.506   6.667
 4150POPC   C3A54725  16.748  18.160   6.994
 4150POPC   C4A54726  16.599  18.023   7.422
 4150POPC   C1B54727  16.330  18.848   6.279
 4150POPC   C2B54728  16.263  18.757   6.747
 4150POPC   C3B54729  16.398  18.510   7.127
 4150POPC   C4B54730  16.793  18.497   7.390
 4151POPC   NC354731  37.805  35.554   5.224
 4151POPC   PO454732  37.393  35.074   5.334
 4151POPC   GL154733  37.619  35.342   5.691
 4151POPC   GL254734  37.772  35.688   5.722
 4151POPC   C1A54735  37.467  35.439   6.128
 4151POPC   D2A54736  37.365  35.655   6.509
 4151POPC   C3A54737  37.386  35.446   6.898
 4151POPC   C4A54738  37.632  35.322   7.240
 4151POPC   C1B54739  37.968  35.544   6.098
 4151POPC   C2B54740  37.922  35.445   6.521
 4151POPC   C3B54741  37.921  35.646   6.914
 4151POPC   C4B54742  38.065  35.563   7.347
 4152POPC   NC354743  22.089  27.806   5.635
 4152POPC   PO454744  21.873  27.229   5.325
 4152POPC   GL154745  22.015  27.288   5.765
 4152POPC   GL254746  22.378  27.314   5.792
 4152POPC   C1A54747  22.033  27.399   6.224
 4152POPC   D2A54748  22.062  27.751   6.552
 4152POPC   C3A54749  22.152  27.663   6.997
 4152POPC   C4A54750  21.899  27.699   7.365
 4152POPC   C1B54751  22.541  27.251   6.212
 4152POPC   C2B54752  22.374  27.339   6.627
 4152POPC   C3B54753  22.543  27.348   7.023
 4152POPC   C4B54754  22.821  27.437   7.301
 4153POPC   NC354755  22.622  28.190   5.521
 4153POPC   PO454756  23.253  28.283   5.397
 4153POPC   GL154757  23.138  28.290   5.819
 4153POPC   GL254758  22.849  28.524   5.849
 4153POPC   C1A54759  23.244  28.476   6.226
 4153POPC   D2A54760  22.949  28.615   6.561
 4153POPC   C3A54761  23.120  28.708   6.946
 4153POPC   C4A54762  23.110  28.624   7.360
 4153POPC   C1B54763  22.779  28.275   6.215
 4153POPC   C2B54764  22.993  28.075   6.527
 4153POPC   C3B54765  22.942  28.224   6.918
 4153POPC   C4B54766  22.664  28.454   7.174
 4154POPC   NC354767  23.394  20.534   5.478
 4154POPC   PO454768  23.869  20.852   5.382
 4154POPC   GL154769  23.811  20.662   5.794
 4154POPC   GL254770  23.993  20.341   5.843
 4154POPC   C1A54771  23.593  20.858   6.139
 4154POPC   D2A54772  23.364  20.756   6.486
 4154POPC   C3A54773  23.403  20.982   6.863
 4154POPC   C4A54774  23.469  20.853   7.247
 4154POPC   C1B54775  23.822  20.435   6.304
 4154POPC   C2B54776  23.748  20.507   6.780
 4154POPC   C3B54777  23.814  20.456   7.232
 4154POPC   C4B54778  23.809  20.180   7.601
 4155POPC   NC354779  34.731   3.070   5.376
 4155POPC   PO454780  34.383   2.414   5.170
 4155POPC   GL154781  34.487   2.566   5.678
 4155POPC   GL254782  34.507   2.899   5.794
 4155POPC   C1A54783  34.461   2.630   6.210
 4155POPC   D2A54784  34.691   2.715   6.651
 4155POPC   C3A54785  34.558   2.614   7.091
 4155POPC   C4A54786  34.345   2.417   7.488
 4155POPC   C1B54787  34.399   3.158   6.132
 4155POPC   C2B54788  34.494   3.255   6.537
 4155POPC   C3B54789  34.285   3.242   6.903
 4155POPC   C4B54790  34.487   3.085   7.248
 4156POPC   NC354791  27.406   8.424   5.513
 4156POPC   PO454792  27.612   7.792   5.429
 4156POPC   GL154793  27.560   8.009   5.832
 4156POPC   GL254794  27.784   8.266   5.809
 4156POPC   C1A54795  27.397   8.220   6.229
 4156POPC   D2A54796  27.250   8.183   6.701
 4156POPC   C3A54797  27.515   8.120   7.076
 4156POPC   C4A54798  27.453   8.324   7.461
 4156POPC   C1B54799  27.962   8.287   6.177
 4156POPC   C2B54800  27.785   8.253   6.568
 4156POPC   C3B54801  27.756   8.518   6.885
 4156POPC   C4B54802  27.910   8.391   7.292
 4157POPC   NC354803  42.188  25.272   5.323
 4157POPC   PO454804  42.745  25.380   5.542
 4157POPC   GL154805  42.420  25.362   5.875
 4157POPC   GL254806  42.371  25.014   5.881
 4157POPC   C1A54807  42.325  25.192   6.341
 4157POPC   D2A54808  42.375  25.055   6.739
 4157POPC   C3A54809  42.168  25.334   7.022
 4157POPC   C4A54810  42.373  25.462   7.388
 4157POPC   C1B54811  42.719  24.893   6.263
 4157POPC   C2B54812  42.838  24.765   6.669
 4157POPC   C3B54813  42.783  24.996   7.070
 4157POPC   C4B54814  42.381  24.928   7.255
 4158POPC   NC354815   0.868  40.883   5.609
 4158POPC   PO454816   0.254  40.651   5.485
 4158POPC   GL154817   0.492  40.612   5.851
 4158POPC   GL254818   0.834  40.420   5.848
 4158POPC   C1A54819   0.282  40.722   6.228
 4158POPC   D2A54820   0.224  41.026   6.525
 4158POPC   C3A54821   0.197  40.840   6.909
 4158POPC   C4A54822   0.323  40.725   7.278
 4158POPC   C1B54823   0.717  40.451   6.284
 4158POPC   C2B54824   0.579  40.622   6.656
 4158POPC   C3B54825   0.752  40.588   7.050
 4158POPC   C4B54826   0.831  40.733   7.460
 4159POPC   NC354827  35.709  25.798   5.452
 4159POPC   PO454828  36.105  26.350   5.431
 4159POPC   GL154829  35.937  26.129   5.785
 4159POPC   GL254830  36.095  25.796   5.829
 4159POPC   C1A54831  35.994  26.114   6.239
 4159POPC   D2A54832  36.056  25.780   6.534
 4159POPC   C3A54833  35.925  25.789   6.959
 4159POPC   C4A54834  36.013  26.047   7.335
 4159POPC   C1B54835  36.427  25.830   6.175
 4159POPC   C2B54836  36.570  25.708   6.607
 4159POPC   C3B54837  36.438  25.829   7.017
 4159POPC   C4B54838  36.530  26.114   7.352
 4160POPC   NC354839  32.618  11.050   5.455
 4160POPC   PO454840  32.193  11.534   5.472
 4160POPC   GL154841  32.281  11.263   5.795
 4160POPC   GL254842  32.604  11.425   5.850
 4160POPC   C1A54843  32.245  11.165   6.233
 4160POPC   D2A54844  32.087  11.419   6.574
 4160POPC   C3A54845  32.129  11.238   6.987
 4160POPC   C4A54846  32.071  11.304   7.417
 4160POPC   C1B54847  32.587  11.547   6.290
 4160POPC   C2B54848  32.563  11.445   6.729
 4160POPC   C3B54849  32.428  11.615   7.122
 4160POPC   C4B54850  32.570  11.237   7.297
 4161POPC   NC354851  26.617   6.903   5.513
 4161POPC   PO454852  26.983   6.360   5.386
 4161POPC   GL154853  27.003   6.538   5.775
 4161POPC   GL254854  26.938   6.187   5.888
 4161POPC   C1A54855  26.909   6.875   6.117
 4161POPC   D2A54856  26.554   6.880   6.422
 4161POPC   C3A54857  26.595   6.781   6.879
 4161POPC   C4A54858  26.920   6.942   7.149
 4161POPC   C1B54859  26.749   6.423   6.207
 4161POPC   C2B54860  26.957   6.557   6.548
 4161POPC   C3B54861  27.038   6.300   6.891
 4161POPC   C4B54862  26.793   6.417   7.249
 4162POPC   NC354863  33.618  37.903   5.408
 4162POPC   PO454864  34.028  37.327   5.466
 4162POPC   GL154865  34.060  37.573   5.828
 4162POPC   GL254866  33.728  37.782   5.888
 4162POPC   C1A54867  34.048  37.615   6.261
 4162POPC   D2A54868  33.901  37.563   6.660
 4162POPC   C3A54869  34.143  37.788   6.949
 4162POPC   C4A54870  34.169  37.534   7.270
 4162POPC   C1B54871  33.874  38.082   6.189
 4162POPC   C2B54872  33.755  38.031   6.582
 4162POPC   C3B54873  33.640  37.879   6.992
 4162POPC   C4B54874  33.540  38.118   7.339
 4163POPC   NC354875  26.947  41.870   5.391
 4163POPC   PO454876  27.083  41.242   5.492
 4163POPC   GL154877  26.860  41.474   5.840
 4163POPC   GL254878  26.665  41.765   5.794
 4163POPC   C1A54879  26.956  41.606   6.305
 4163POPC   D2A54880  27.025  41.748   6.758
 4163POPC   C3A54881  27.097  41.461   7.130
 4163POPC   C4A54882  27.320  41.499   7.548
 4163POPC   C1B54883  26.470  41.602   6.160
 4163POPC   C2B54884  26.521  41.815   6.532
 4163POPC   C3B54885  26.597  41.961   6.927
 4163POPC   C4B54886  26.553  41.632   7.214
 4164POPC   NC354887  11.886  33.165   5.381
 4164POPC   PO454888  12.390  32.748   5.442
 4164POPC   GL154889  12.309  32.966   5.865
 4164POPC   GL254890  12.038  33.265   5.867
 4164POPC   C1A54891  12.175  33.043   6.315
 4164POPC   D2A54892  11.792  33.156   6.535
 4164POPC   C3A54893  11.806  32.963   6.919
 4164POPC   C4A54894  11.938  32.879   7.332
 4164POPC   C1B54895  12.406  33.449   6.080
 4164POPC   C2B54896  12.447  33.513   6.532
 4164POPC   C3B54897  12.240  33.243   6.835
 4164POPC   C4B54898  12.092  33.369   7.238
 4165POPC   NC354899  13.850   4.470   5.476
 4165POPC   PO454900  13.655   5.151   5.551
 4165POPC   GL154901  13.508   5.019   5.915
 4165POPC   GL254902  13.616   4.689   5.874
 4165POPC   C1A54903  13.381   5.237   6.279
 4165POPC   D2A54904  13.331   5.110   6.686
 4165POPC   C3A54905  13.485   5.341   7.028
 4165POPC   C4A54906  13.909   5.338   7.199
 4165POPC   C1B54907  13.675   4.701   6.340
 4165POPC   C2B54908  13.708   4.671   6.809
 4165POPC   C3B54909  13.621   4.778   7.273
 4165POPC   C4B54910  13.550   4.694   7.733
 4166POPC   NC354911   4.550  30.853   5.317
 4166POPC   PO454912   4.140  30.276   5.356
 4166POPC   GL154913   4.268  30.340   5.786
 4166POPC   GL254914   4.416  30.664   5.778
 4166POPC   C1A54915   4.538  30.317   6.180
 4166POPC   D2A54916   4.618  30.475   6.624
 4166POPC   C3A54917   4.300  30.401   6.949
 4166POPC   C4A54918   4.212  30.351   7.393
 4166POPC   C1B54919   4.607  30.824   6.161
 4166POPC   C2B54920   4.690  30.982   6.580
 4166POPC   C3B54921   4.585  30.933   7.027
 4166POPC   C4B54922   4.593  31.262   7.376
 4167POPC   NC354923  33.196  33.753   5.361
 4167POPC   PO454924  32.785  34.303   5.272
 4167POPC   GL154925  32.979  34.082   5.694
 4167POPC   GL254926  32.886  33.715   5.756
 4167POPC   C1A54927  33.093  33.981   6.173
 4167POPC   D2A54928  33.113  34.160   6.631
 4167POPC   C3A54929  33.108  33.923   7.047
 4167POPC   C4A54930  33.228  33.888   7.527
 4167POPC   C1B54931  32.844  33.513   6.137
 4167POPC   C2B54932  32.954  33.636   6.559
 4167POPC   C3B54933  32.782  33.538   6.953
 4167POPC   C4B54934  33.031  33.480   7.311
 4168POPC   NC354935  34.510  32.268   5.355
 4168POPC   PO454936  35.140  32.523   5.450
 4168POPC   GL154937  34.873  32.175   5.704
 4168POPC   GL254938  34.504  32.004   5.779
 4168POPC   C1A54939  34.824  32.103   6.155
 4168POPC   D2A54940  34.928  32.292   6.541
 4168POPC   C3A54941  34.827  32.151   6.930
 4168POPC   C4A54942  34.627  32.450   7.195
 4168POPC   C1B54943  34.257  32.101   6.140
 4168POPC   C2B54944  34.067  32.034   6.518
 4168POPC   C3B54945  34.279  32.202   6.882
 4168POPC   C4B54946  34.127  32.283   7.292
 4169POPC   NC354947  39.499  41.055   5.482
 4169POPC   PO454948  40.146  41.201   5.253
 4169POPC   GL154949  39.982  40.872   5.636
 4169POPC   GL254950  40.182  40.582   5.710
 4169POPC   C1A54951  39.897  40.819   6.111
 4169POPC   D2A54952  39.775  40.966   6.542
 4169POPC   C3A54953  39.922  40.815   6.920
 4169POPC   C4A54954  40.212  40.998   7.166
 4169POPC   C1B54955  40.288  40.467   6.121
 4169POPC   C2B54956  40.208  40.624   6.521
 4169POPC   C3B54957  40.406  40.579   6.916
 4169POPC   C4B54958  40.296  40.448   7.317
 4170POPC   NC354959  43.676  35.946   5.476
 4170POPC   PO454960  44.256  36.326   5.481
 4170POPC   GL154961  43.963  36.344   5.814
 4170POPC   GL254962  43.639  36.533   5.732
 4170POPC   C1A54963  43.941  36.083   6.199
 4170POPC   D2A54964  43.803  35.843   6.561
 4170POPC   C3A54965  44.117  35.845   6.915
 4170POPC   C4A54966  44.025  35.928   7.366
 4170POPC   C1B54967  43.489  36.257   6.072
 4170POPC   C2B54968  43.473  36.266   6.521
 4170POPC   C3B54969  43.624  36.167   6.932
 4170POPC   C4B54970  43.627  36.239   7.347
 4171POPC   NC354971  13.474  34.221   5.267
 4171POPC   PO454972  13.955  34.477   5.558
 4171POPC   GL154973  13.682  34.460   5.910
 4171POPC   GL254974  13.363  34.594   5.843
 4171POPC   C1A54975  13.549  34.450   6.323
 4171POPC   D2A54976  13.563  34.218   6.690
 4171POPC   C3A54977  13.461  34.488   7.027
 4171POPC   C4A54978  13.734  34.841   7.139
 4171POPC   C1B54979  13.297  34.942   6.178
 4171POPC   C2B54980  13.327  34.812   6.630
 4171POPC   C3B54981  13.219  34.954   7.063
 4171POPC   C4B54982  13.337  34.751   7.452
 4172POPC   NC354983  13.867  14.189   5.702
 4172POPC   PO454984  13.417  13.897   5.591
 4172POPC   GL154985  13.337  14.286   5.867
 4172POPC   GL254986  13.613  14.533   5.999
 4172POPC   C1A54987  13.248  14.359   6.318
 4172POPC   D2A54988  13.215  14.080   6.664
 4172POPC   C3A54989  13.229  14.307   7.022
 4172POPC   C4A54990  13.271  14.699   7.244
 4172POPC   C1B54991  13.762  14.384   6.433
 4172POPC   C2B54992  13.706  14.134   6.839
 4172POPC   C3B54993  13.678  14.313   7.268
 4172POPC   C4B54994  13.756  14.712   7.456
 4173POPC   NC354995   9.682   7.188   5.313
 4173POPC   PO454996  10.152   7.615   5.501
 4173POPC   GL154997   9.962   7.317   5.817
 4173POPC   GL254998   9.585   7.223   5.810
 4173POPC   C1A54999   9.778   7.437   6.232
 4173POPC   D2A55000   9.548   7.373   6.582
 4173POPC   C3A55001   9.769   7.257   6.956
 4173POPC   C4A55002   9.653   7.618   7.157
 4173POPC   C1B55003   9.345   7.085   6.155
 4173POPC   C2B55004   9.138   7.078   6.528
 4173POPC   C3B55005   9.291   7.055   6.918
 4173POPC   C4B55006   9.291   7.302   7.252
 4174POPC   NC355007   3.731   2.023   5.383
 4174POPC   PO455008   3.128   2.209   5.524
 4174POPC   GL155009   3.439   1.979   5.830
 4174POPC   GL255010   3.831   1.946   5.863
 4174POPC   C1A55011   3.446   1.933   6.254
 4174POPC   D2A55012   3.466   1.822   6.666
 4174POPC   C3A55013   3.304   2.041   7.021
 4174POPC   C4A55014   3.120   2.174   7.423
 4174POPC   C1B55015   3.864   2.231   6.132
 4174POPC   C2B55016   3.831   2.181   6.556
 4174POPC   C3B55017   3.781   2.290   6.966
 4174POPC   C4B55018   3.727   2.017   7.303
 4175POPC   NC355019  19.006   8.000   5.259
 4175POPC   PO455020  18.770   8.641   5.495
 4175POPC   GL155021  18.950   8.343   5.783
 4175POPC   GL255022  18.933   7.963   5.766
 4175POPC   C1A55023  18.903   8.377   6.225
 4175POPC   D2A55024  18.598   8.486   6.528
 4175POPC   C3A55025  18.752   8.342   6.920
 4175POPC   C4A55026  18.856   8.394   7.354
 4175POPC   C1B55027  19.035   7.883   6.215
 4175POPC   C2B55028  19.169   8.116   6.611
 4175POPC   C3B55029  19.147   8.024   7.060
 4175POPC   C4B55030  19.015   7.722   7.334
 4176POPC   NC355031   6.010   5.851   5.170
 4176POPC   PO455032   5.493   6.156   5.352
 4176POPC   GL155033   5.702   5.823   5.650
 4176POPC   GL255034   6.016   5.913   5.695
 4176POPC   C1A55035   5.894   5.597   6.059
 4176POPC   D2A55036   5.721   5.710   6.462
 4176POPC   C3A55037   5.921   5.604   6.816
 4176POPC   C4A55038   5.748   5.540   7.206
 4176POPC   C1B55039   5.806   6.083   6.112
 4176POPC   C2B55040   5.827   6.188   6.577
 4176POPC   C3B55041   5.762   6.083   7.019
 4176POPC   C4B55042   6.083   5.943   7.307
 4177POPC   NC355043  42.640  29.038   5.257
 4177POPC   PO455044  42.023  29.248   5.325
 4177POPC   GL155045  42.350  29.288   5.682
 4177POPC   GL255046  42.675  29.481   5.613
 4177POPC   C1A55047  42.327  29.051   6.114
 4177POPC   D2A55048  42.122  28.999   6.552
 4177POPC   C3A55049  42.216  29.252   6.953
 4177POPC   C4A55050  42.115  29.208   7.461
 4177POPC   C1B55051  42.735  29.389   6.058
 4177POPC   C2B55052  42.583  29.307   6.485
 4177POPC   C3B55053  42.752  29.182   6.874
 4177POPC   C4B55054  42.616  29.350   7.261
 4178POPC   NC355055  25.133   7.446   5.490
 4178POPC   PO455056  24.613   7.665   5.188
 4178POPC   GL155057  24.645   7.571   5.657
 4178POPC   GL255058  24.854   7.316   5.889
 4178POPC   C1A55059  24.543   7.641   6.103
 4178POPC   D2A55060  24.708   7.488   6.511
 4178POPC   C3A55061  24.484   7.677   6.805
 4178POPC   C4A55062  24.417   7.830   7.180
 4178POPC   C1B55063  24.538   7.125   6.190
 4178POPC   C2B55064  24.528   7.042   6.677
 4178POPC   C3B55065  24.707   6.887   7.080
 4178POPC   C4B55066  24.689   7.031   7.491
 4179POPC   NC355067  25.012   2.288   5.463
 4179POPC   PO455068  25.416   1.764   5.399
 4179POPC   GL155069  25.310   1.876   5.843
 4179POPC   GL255070  25.412   2.227   5.800
 4179POPC   C1A55071  25.249   1.784   6.308
 4179POPC   D2A55072  24.904   1.876   6.613
 4179POPC   C3A55073  25.104   1.742   6.974
 4179POPC   C4A55074  25.091   1.795   7.426
 4179POPC   C1B55075  25.373   2.279   6.253
 4179POPC   C2B55076  25.273   2.191   6.696
 4179POPC   C3B55077  25.203   2.218   7.159
 4179POPC   C4B55078  25.152   2.280   7.594
 4180POPC   NC355079  34.209  13.783   5.215
 4180POPC   PO455080  34.688  13.331   5.553
 4180POPC   GL155081  34.553  13.688   5.835
 4180POPC   GL255082  34.287  13.936   5.711
 4180POPC   C1A55083  34.647  13.786   6.259
 4180POPC   D2A55084  34.540  13.667   6.674
 4180POPC   C3A55085  34.883  13.730   6.931
 4180POPC   C4A55086  34.915  13.876   7.330
 4180POPC   C1B55087  34.345  14.181   6.093
 4180POPC   C2B55088  34.299  14.129   6.553
 4180POPC   C3B55089  34.438  14.070   6.996
 4180POPC   C4B55090  34.453  13.679   7.244
 4181POPC   NC355091  28.173  43.520   5.215
 4181POPC   PO455092  28.567  42.978   5.255
 4181POPC   GL155093  28.338  43.161   5.553
 4181POPC   GL255094  28.585  43.102   5.798
 4181POPC   C1A55095  28.101  43.257   5.919
 4181POPC   D2A55096  28.206  43.189   6.341
 4181POPC   C3A55097  28.230  43.494   6.709
 4181POPC   C4A55098  28.304  43.295   7.124
 4181POPC   C1B55099  28.710  43.027   6.238
 4181POPC   C2B55100  28.598  43.157   6.657
 4181POPC   C3B55101  28.787  43.237   6.997
 4181POPC   C4B55102  28.749  43.450   7.384
 4182POPC   NC355103  24.920  15.371   5.439
 4182POPC   PO455104  25.573  15.345   5.319
 4182POPC   GL155105  25.359  15.368   5.711
 4182POPC   GL255106  25.143  15.069   5.814
 4182POPC   C1A55107  25.299  15.504   6.132
 4182POPC   D2A55108  25.158  15.201   6.452
 4182POPC   C3A55109  25.250  15.080   6.856
 4182POPC   C4A55110  25.104  14.871   7.196
 4182POPC   C1B55111  24.828  15.298   6.094
 4182POPC   C2B55112  24.735  15.464   6.566
 4182POPC   C3B55113  24.911  15.436   7.002
 4182POPC   C4B55114  25.027  15.319   7.478
 4183POPC   NC355115  23.309  31.782   5.345
 4183POPC   PO455116  22.639  31.744   5.429
 4183POPC   GL155117  22.870  31.489   5.757
 4183POPC   GL255118  23.089  31.178   5.697
 4183POPC   C1A55119  23.141  31.515   6.147
 4183POPC   D2A55120  22.971  31.639   6.550
 4183POPC   C3A55121  23.139  31.658   6.929
 4183POPC   C4A55122  22.826  31.639   7.260
 4183POPC   C1B55123  22.849  31.108   6.095
 4183POPC   C2B55124  22.982  31.141   6.504
 4183POPC   C3B55125  22.798  31.249   6.882
 4183POPC   C4B55126  22.709  30.971   7.211
 4184POPC   NC355127  15.488  21.498   5.297
 4184POPC   PO455128  15.182  20.965   5.462
 4184POPC   GL155129  15.202  21.348   5.721
 4184POPC   GL255130  15.513  21.542   5.798
 4184POPC   C1A55131  15.156  21.437   6.156
 4184POPC   D2A55132  15.283  21.237   6.521
 4184POPC   C3A55133  15.098  21.439   6.868
 4184POPC   C4A55134  14.890  21.416   7.286
 4184POPC   C1B55135  15.512  21.821   6.117
 4184POPC   C2B55136  15.427  21.747   6.518
 4184POPC   C3B55137  15.533  21.704   6.901
 4184POPC   C4B55138  15.306  21.704   7.260
 4185POPC   NC355139  29.735  14.774   5.337
 4185POPC   PO455140  29.727  14.087   5.367
 4185POPC   GL155141  30.016  14.248   5.710
 4185POPC   GL255142  29.991  14.630   5.746
 4185POPC   C1A55143  29.879  14.326   6.157
 4185POPC   D2A55144  29.722  14.254   6.546
 4185POPC   C3A55145  29.927  14.286   6.902
 4185POPC   C4A55146  29.756  14.368   7.250
 4185POPC   C1B55147  30.117  14.761   6.148
 4185POPC   C2B55148  30.165  14.568   6.559
 4185POPC   C3B55149  30.204  14.740   7.000
 4185POPC   C4B55150  30.088  14.738   7.466
 4186POPC   NC355151  14.287   6.001   5.328
 4186POPC   PO455152  14.770   6.426   5.485
 4186POPC   GL155153  14.610   6.043   5.735
 4186POPC   GL255154  14.255   6.171   5.826
 4186POPC   C1A55155  14.416   5.758   6.085
 4186POPC   D2A55156  14.136   5.942   6.454
 4186POPC   C3A55157  14.267   5.959   6.927
 4186POPC   C4A55158  14.203   5.764   7.363
 4186POPC   C1B55159  14.533   6.222   6.221
 4186POPC   C2B55160  14.678   6.211   6.625
 4186POPC   C3B55161  14.721   6.167   7.036
 4186POPC   C4B55162  14.695   5.833   7.280
 4187POPC   NC355163  30.915  36.944   5.324
 4187POPC   PO455164  30.417  36.654   5.482
 4187POPC   GL155165  30.615  36.902   5.800
 4187POPC   GL255166  30.976  36.858   5.821
 4187POPC   C1A55167  30.557  36.860   6.252
 4187POPC   D2A55168  30.500  36.556   6.616
 4187POPC   C3A55169  30.650  36.640   7.057
 4187POPC   C4A55170  30.612  36.874   7.455
 4187POPC   C1B55171  31.028  36.704   6.237
 4187POPC   C2B55172  30.942  36.804   6.655
 4187POPC   C3B55173  30.920  37.056   6.988
 4187POPC   C4B55174  31.127  37.012   7.370
 4188POPC   NC355175  41.180  30.370   5.269
 4188POPC   PO455176  41.519  30.994   5.345
 4188POPC   GL155177  41.519  30.864   5.777
 4188POPC   GL255178  41.251  30.594   5.843
 4188POPC   C1A55179  41.594  30.835   6.220
 4188POPC   D2A55180  41.400  30.677   6.613
 4188POPC   C3A55181  41.595  30.811   7.005
 4188POPC   C4A55182  41.832  30.720   7.354
 4188POPC   C1B55183  41.098  30.426   6.247
 4188POPC   C2B55184  40.974  30.296   6.659
 4188POPC   C3B55185  41.166  30.419   7.019
 4188POPC   C4B55186  41.093  30.482   7.424
 4189POPC   NC355187  38.532  39.557   5.566
 4189POPC   PO455188  38.032  40.094   5.471
 4189POPC   GL155189  38.306  39.956   5.798
 4189POPC   GL255190  38.629  40.049   5.717
 4189POPC   C1A55191  38.210  39.880   6.244
 4189POPC   D2A55192  38.287  39.903   6.699
 4189POPC   C3A55193  38.553  39.681   6.990
 4189POPC   C4A55194  38.342  39.768   7.356
 4189POPC   C1B55195  38.717  39.982   6.178
 4189POPC   C2B55196  38.790  40.050   6.645
 4189POPC   C3B55197  38.589  40.183   7.053
 4189POPC   C4B55198  38.724  40.056   7.486
 4190POPC   NC355199   0.749  26.423   5.507
 4190POPC   PO455200   0.624  25.763   5.353
 4190POPC   GL155201   0.403  25.905   5.722
 4190POPC   GL255202   0.388  26.253   5.824
 4190POPC   C1A55203   0.466  25.844   6.157
 4190POPC   D2A55204   0.342  25.948   6.545
 4190POPC   C3A55205   0.399  25.773   6.913
 4190POPC   C4A55206   0.363  25.869   7.337
 4190POPC   C1B55207   0.439  26.498   6.213
 4190POPC   C2B55208   0.363  26.437   6.659
 4190POPC   C3B55209   0.543  26.286   7.029
 4190POPC   C4B55210   0.925  26.487   7.124
 4191POPC   NC355211  12.114  28.755   5.383
 4191POPC   PO455212  12.103  28.068   5.416
 4191POPC   GL155213  12.186  28.290   5.796
 4191POPC   GL255214  12.009  28.612   5.869
 4191POPC   C1A55215  12.290  28.143   6.201
 4191POPC   D2A55216  12.083  28.044   6.574
 4191POPC   C3A55217  12.323  28.154   6.953
 4191POPC   C4A55218  12.330  28.594   7.115
 4191POPC   C1B55219  11.889  28.480   6.308
 4191POPC   C2B55220  11.958  28.508   6.771
 4191POPC   C3B55221  11.833  28.585   7.219
 4191POPC   C4B55222  11.858  28.797   7.607
 4192POPC   NC355223  25.706   3.760   5.382
 4192POPC   PO455224  25.114   3.484   5.323
 4192POPC   GL155225  25.311   3.617   5.704
 4192POPC   GL255226  25.475   3.319   5.766
 4192POPC   C1A55227  25.124   3.650   6.140
 4192POPC   D2A55228  24.920   3.666   6.550
 4192POPC   C3A55229  25.170   3.549   6.927
 4192POPC   C4A55230  25.161   3.725   7.362
 4192POPC   C1B55231  25.467   3.283   6.223
 4192POPC   C2B55232  25.503   3.049   6.609
 4192POPC   C3B55233  25.509   3.108   7.044
 4192POPC   C4B55234  25.578   3.461   7.287
 4193POPC   NC355235  10.884   1.812   5.315
 4193POPC   PO455236  11.221   2.410   5.387
 4193POPC   GL155237  11.347   2.073   5.689
 4193POPC   GL255238  11.571   1.809   5.580
 4193POPC   C1A55239  11.239   2.028   6.125
 4193POPC   D2A55240  11.267   2.175   6.568
 4193POPC   C3A55241  11.160   1.981   6.971
 4193POPC   C4A55242  11.301   2.063   7.417
 4193POPC   C1B55243  11.580   1.669   6.023
 4193POPC   C2B55244  11.402   1.659   6.454
 4193POPC   C3B55245  11.508   1.621   6.882
 4193POPC   C4B55246  11.289   1.571   7.270
 4194POPC   NC355247  38.670  32.391   5.366
 4194POPC   PO455248  38.582  31.695   5.379
 4194POPC   GL155249  38.441  32.041   5.685
 4194POPC   GL255250  38.059  32.131   5.679
 4194POPC   C1A55251  38.584  32.270   6.111
 4194POPC   D2A55252  38.854  32.348   6.517
 4194POPC   C3A55253  38.658  32.276   6.932
 4194POPC   C4A55254  38.798  32.361   7.329
 4194POPC   C1B55255  37.941  32.029   6.136
 4194POPC   C2B55256  38.022  32.038   6.612
 4194POPC   C3B55257  38.125  32.133   7.064
 4194POPC   C4B55258  38.292  32.442   7.338
 4195POPC   NC355259  41.895  31.307   5.395
 4195POPC   PO455260  41.388  31.767   5.401
 4195POPC   GL155261  41.483  31.478   5.724
 4195POPC   GL255262  41.819  31.564   5.848
 4195POPC   C1A55263  41.459  31.343   6.151
 4195POPC   D2A55264  41.652  31.471   6.571
 4195POPC   C3A55265  41.518  31.324   7.006
 4195POPC   C4A55266  41.171  31.361   7.345
 4195POPC   C1B55267  41.940  31.210   6.188
 4195POPC   C2B55268  41.869  31.018   6.618
 4195POPC   C3B55269  42.019  31.125   7.040
 4195POPC   C4B55270  42.107  31.505   7.278
 4196POPC   NC355271  35.734   2.677   5.312
 4196POPC   PO455272  36.224   3.053   5.632
 4196POPC   GL155273  35.970   2.764   5.790
 4196POPC   GL255274  35.642   2.876   5.799
 4196POPC   C1A55275  36.075   2.594   6.170
 4196POPC   D2A55276  35.919   2.738   6.550
 4196POPC   C3A55277  36.172   2.749   6.898
 4196POPC   C4A55278  36.061   2.453   7.183
 4196POPC   C1B55279  35.804   3.088   6.186
 4196POPC   C2B55280  35.997   3.238   6.603
 4196POPC   C3B55281  35.847   3.100   7.028
 4196POPC   C4B55282  35.656   3.189   7.412
 4197POPC   NC355283  27.026  11.298   5.243
 4197POPC   PO455284  27.711  11.327   5.463
 4197POPC   GL155285  27.434  11.323   5.810
 4197POPC   GL255286  27.182  11.559   5.791
 4197POPC   C1A55287  27.529  11.171   6.249
 4197POPC   D2A55288  27.565  11.083   6.680
 4197POPC   C3A55289  27.843  11.281   6.957
 4197POPC   C4A55290  27.675  11.115   7.342
 4197POPC   C1B55291  27.366  11.655   6.187
 4197POPC   C2B55292  27.221  11.474   6.590
 4197POPC   C3B55293  27.316  11.423   7.040
 4197POPC   C4B55294  27.639  11.625   7.284
 4198POPC   NC355295  37.842   0.851   5.509
 4198POPC   PO455296  37.472   0.310   5.471
 4198POPC   GL155297  37.737   0.441   5.804
 4198POPC   GL255298  37.689   0.166   6.048
 4198POPC   C1A55299  37.914   0.624   6.184
 4198POPC   D2A55300  37.807   0.451   6.585
 4198POPC   C3A55301  37.654   0.646   6.962
 4198POPC   C4A55302  37.701   0.346   7.275
 4198POPC   C1B55303  37.394   0.541   6.148
 4198POPC   C2B55304  37.332   0.707   6.568
 4198POPC   C3B55305  37.111   0.689   6.970
 4198POPC   C4B55306  37.238   0.575   7.372
 4199POPC   NC355307  24.269  28.856   5.487
 4199POPC   PO455308  24.648  29.343   5.619
 4199POPC   GL155309  24.307  29.192   5.874
 4199POPC   GL255310  24.088  29.434   5.721
 4199POPC   C1A55311  24.338  29.117   6.327
 4199POPC   D2A55312  24.712  29.106   6.551
 4199POPC   C3A55313  24.682  29.100   6.981
 4199POPC   C4A55314  24.847  28.877   7.318
 4199POPC   C1B55315  24.175  29.580   6.168
 4199POPC   C2B55316  24.432  29.577   6.587
 4199POPC   C3B55317  24.530  29.569   7.044
 4199POPC   C4B55318  24.310  29.522   7.459
 4200POPC   NC355319  43.797   4.717   5.036
 4200POPC   PO455320  44.331   4.382   5.331
 4200POPC   GL155321  44.259   4.288   5.785
 4200POPC   GL255322  43.927   4.419   5.834
 4200POPC   C1A55323  44.164   4.151   6.228
 4200POPC   D2A55324  44.094   4.444   6.540
 4200POPC   C3A55325  44.163   4.396   6.947
 4200POPC   C4A55326  43.955   4.245   7.300
 4200POPC   C1B55327  43.691   4.452   6.225
 4200POPC   C2B55328  43.589   4.387   6.669
 4200POPC   C3B55329  43.501   4.491   7.092
 4200POPC   C4B55330  43.496   4.239   7.493
 4201POPC   NC355331   8.797  43.006   5.325
 4201POPC   PO455332   9.296  43.421   5.477
 4201POPC   GL155333   8.973  43.227   5.745
 4201POPC   GL255334   8.614  43.346   5.679
 4201POPC   C1A55335   8.911  43.300   6.177
 4201POPC   D2A55336   9.082  43.125   6.545
 4201POPC   C3A55337   8.814  43.258   6.873
 4201POPC   C4A55338   8.924  43.075   7.249
 4201POPC   C1B55339   8.507  43.039   6.020
 4201POPC   C2B55340   8.577  42.973   6.473
 4201POPC   C3B55341   8.637  42.778   6.921
 4201POPC   C4B55342   8.775  42.577   7.329
 4202POPC   NC355343  37.352   5.694   5.616
 4202POPC   PO455344  36.892   6.130   5.345
 4202POPC   GL155345  36.767   6.035   5.806
 4202POPC   GL255346  37.018   5.824   6.007
 4202POPC   C1A55347  36.626   6.187   6.232
 4202POPC   D2A55348  36.820   6.023   6.618
 4202POPC   C3A55349  36.822   6.237   7.008
 4202POPC   C4A55350  36.933   6.056   7.388
 4202POPC   C1B55351  37.162   5.469   6.296
 4202POPC   C2B55352  37.155   5.365   6.749
 4202POPC   C3B55353  37.051   5.658   7.115
 4202POPC   C4B55354  37.195   5.588   7.634
 4203POPC   NC355355  34.791  34.323   5.594
 4203POPC   PO455356  34.308  34.722   5.331
 4203POPC   GL155357  34.396  34.574   5.778
 4203POPC   GL255358  34.180  34.315   5.923
 4203POPC   C1A55359  34.630  34.767   6.165
 4203POPC   D2A55360  34.851  34.793   6.598
 4203POPC   C3A55361  34.785  34.592   7.017
 4203POPC   C4A55362  34.795  34.551   7.482
 4203POPC   C1B55363  34.553  34.242   6.175
 4203POPC   C2B55364  34.771  34.216   6.566
 4203POPC   C3B55365  34.511  34.153   6.897
 4203POPC   C4B55366  34.446  34.276   7.269
 4204POPC   NC355367  31.361  31.907   5.362
 4204POPC   PO455368  31.759  31.361   5.235
 4204POPC   GL155369  31.499  31.459   5.604
 4204POPC   GL255370  31.807  31.516   5.771
 4204POPC   C1A55371  31.396  31.586   6.054
 4204POPC   D2A55372  31.551  31.499   6.474
 4204POPC   C3A55373  31.530  31.696   6.875
 4204POPC   C4A55374  31.518  31.578   7.303
 4204POPC   C1B55375  31.833  31.252   6.145
 4204POPC   C2B55376  31.961  31.232   6.617
 4204POPC   C3B55377  31.917  31.323   7.073
 4204POPC   C4B55378  31.909  31.356   7.558
 4205POPC   NC355379  20.157  13.490   5.338
 4205POPC   PO455380  19.542  13.578   5.255
 4205POPC   GL155381  19.621  13.700   5.693
 4205POPC   GL255382  19.973  13.804   5.732
 4205POPC   C1A55383  19.758  13.577   6.135
 4205POPC   D2A55384  19.886  13.292   6.463
 4205POPC   C3A55385  19.877  13.342   6.904
 4205POPC   C4A55386  19.752  13.571   7.269
 4205POPC   C1B55387  20.174  13.846   6.159
 4205POPC   C2B55388  19.967  13.798   6.584
 4205POPC   C3B55389  20.140  13.786   7.000
 4205POPC   C4B55390  20.287  13.891   7.417
 4206POPC   NC355391  43.967   5.652   5.404
 4206POPC   PO455392  43.642   5.022   5.335
 4206POPC   GL155393  43.778   5.266   5.734
 4206POPC   GL255394  43.745   4.941   5.881
 4206POPC   C1A55395  43.978   5.388   6.163
 4206POPC   D2A55396  44.104   5.244   6.598
 4206POPC   C3A55397  43.975   5.359   7.007
 4206POPC   C4A55398  44.041   5.136   7.410
 4206POPC   C1B55399  44.004   4.871   6.244
 4206POPC   C2B55400  43.796   4.851   6.643
 4206POPC   C3B55401  43.898   4.816   7.048
 4206POPC   C4B55402  43.743   4.718   7.470
 4207POPC   NC355403   8.359   1.021   5.514
 4207POPC   PO455404   8.008   1.644   5.526
 4207POPC   GL155405   7.949   1.395   5.896
 4207POPC   GL255406   7.978   1.036   5.885
 4207POPC   C1A55407   7.991   1.293   6.333
 4207POPC   D2A55408   8.193   1.329   6.710
 4207POPC   C3A55409   7.990   1.355   7.088
 4207POPC   C4A55410   8.049   1.504   7.481
 4207POPC   C1B55411   8.354   0.977   6.168
 4207POPC   C2B55412   8.505   0.950   6.578
 4207POPC   C3B55413   8.345   0.945   6.999
 4207POPC   C4B55414   8.294   1.073   7.422
 4208POPC   NC355415  22.870  13.681   5.347
 4208POPC   PO455416  23.080  13.101   5.596
 4208POPC   GL155417  22.967  13.436   5.837
 4208POPC   GL255418  22.963  13.818   5.847
 4208POPC   C1A55419  23.233  13.394   6.175
 4208POPC   D2A55420  23.137  13.217   6.554
 4208POPC   C3A55421  22.985  13.565   6.781
 4208POPC   C4A55422  23.271  13.527   7.133
 4208POPC   C1B55423  22.843  13.731   6.294
 4208POPC   C2B55424  22.584  14.012   6.603
 4208POPC   C3B55425  22.541  13.894   7.038
 4208POPC   C4B55426  22.792  13.583   7.255
 4209POPC   NC355427  39.058  29.867   5.317
 4209POPC   PO455428  39.248  30.478   5.527
 4209POPC   GL155429  39.227  30.062   5.783
 4209POPC   GL255430  38.971  29.742   5.785
 4209POPC   C1A55431  39.470  29.800   6.110
 4209POPC   D2A55432  39.625  29.601   6.527
 4209POPC   C3A55433  39.515  29.749   6.966
 4209POPC   C4A55434  39.443  30.129   7.221
 4209POPC   C1B55435  38.959  29.874   6.175
 4209POPC   C2B55436  39.151  29.823   6.570
 4209POPC   C3B55437  38.971  29.830   6.967
 4209POPC   C4B55438  39.008  29.820   7.402
 4210POPC   NC355439  30.003  30.886   5.336
 4210POPC   PO455440  29.732  30.243   5.320
 4210POPC   GL155441  29.768  30.563   5.672
 4210POPC   GL255442  30.087  30.548   5.846
 4210POPC   C1A55443  29.714  30.799   6.084
 4210POPC   D2A55444  29.876  30.919   6.492
 4210POPC   C3A55445  29.658  30.703   6.832
 4210POPC   C4A55446  29.547  30.864   7.227
 4210POPC   C1B55447  30.187  30.570   6.316
 4210POPC   C2B55448  30.151  30.547   6.822
 4210POPC   C3B55449  30.056  30.777   7.261
 4210POPC   C4B55450  30.294  30.679   7.673
 4211POPC   NC355451  23.029  14.281   5.293
 4211POPC   PO455452  23.332  14.910   5.351
 4211POPC   GL155453  23.061  14.679   5.673
 4211POPC   GL255454  22.977  14.344   5.806
 4211POPC   C1A55455  23.053  14.787   6.130
 4211POPC   D2A55456  23.314  14.729   6.512
 4211POPC   C3A55457  23.131  14.804   6.940
 4211POPC   C4A55458  23.177  14.609   7.361
 4211POPC   C1B55459  22.949  14.237   6.260
 4211POPC   C2B55460  23.098  14.047   6.642
 4211POPC   C3B55461  23.067  14.014   7.080
 4211POPC   C4B55462  22.791  14.310   7.222
 4212POPC   NC355463  12.714  35.936   5.402
 4212POPC   PO455464  12.659  36.613   5.443
 4212POPC   GL155465  12.595  36.301   5.779
 4212POPC   GL255466  12.907  36.135   5.840
 4212POPC   C1A55467  12.633  36.335   6.258
 4212POPC   D2A55468  13.006  36.241   6.591
 4212POPC   C3A55469  13.040  36.357   7.045
 4212POPC   C4A55470  12.667  36.443   7.314
 4212POPC   C1B55471  12.855  35.894   6.220
 4212POPC   C2B55472  12.562  35.929   6.600
 4212POPC   C3B55473  12.775  35.904   6.998
 4212POPC   C4B55474  13.238  35.848   7.065
 4213POPC   NC355475   6.648  22.548   5.390
 4213POPC   PO455476   6.646  23.203   5.342
 4213POPC   GL155477   6.431  22.963   5.677
 4213POPC   GL255478   6.607  22.681   5.880
 4213POPC   C1A55479   6.402  23.061   6.142
 4213POPC   D2A55480   6.705  22.904   6.455
 4213POPC   C3A55481   6.765  23.061   6.864
 4213POPC   C4A55482   6.791  23.042   7.297
 4213POPC   C1B55483   6.378  22.534   6.260
 4213POPC   C2B55484   6.338  22.643   6.726
 4213POPC   C3B55485   6.641  22.593   7.080
 4213POPC   C4B55486   6.807  22.602   7.549
 4214POPC   NC355487  32.292  32.057   5.405
 4214POPC   PO455488  32.420  32.784   5.525
 4214POPC   GL155489  32.292  32.405   5.798
 4214POPC   GL255490  32.552  32.129   5.884
 4214POPC   C1A55491  32.166  32.321   6.232
 4214POPC   D2A55492  31.985  32.225   6.658
 4214POPC   C3A55493  32.214  32.286   7.093
 4214POPC   C4A55494  32.317  32.551   7.471
 4214POPC   C1B55495  32.460  31.922   6.285
 4214POPC   C2B55496  32.461  32.002   6.727
 4214POPC   C3B55497  32.563  31.749   7.067
 4214POPC   C4B55498  32.307  31.610   7.375
 4215POPC   NC355499  41.183  31.337   5.320
 4215POPC   PO455500  40.521  31.503   5.215
 4215POPC   GL155501  40.753  31.445   5.623
 4215POPC   GL255502  40.937  31.745   5.614
 4215POPC   C1A55503  40.769  31.403   6.118
 4215POPC   D2A55504  40.689  31.583   6.580
 4215POPC   C3A55505  40.746  31.343   6.999
 4215POPC   C4A55506  40.673  31.400   7.463
 4215POPC   C1B55507  41.085  31.804   6.035
 4215POPC   C2B55508  41.169  31.633   6.429
 4215POPC   C3B55509  41.142  31.645   6.868
 4215POPC   C4B55510  40.903  31.797   7.249
 4216POPC   NC355511  13.858   9.169   5.409
 4216POPC   PO455512  14.543   9.244   5.578
 4216POPC   GL155513  14.414   8.997   5.932
 4216POPC   GL255514  14.129   8.931   5.774
 4216POPC   C1A55515  14.412   8.773   6.335
 4216POPC   D2A55516  14.640   8.739   6.742
 4216POPC   C3A55517  14.572   8.950   7.112
 4216POPC   C4A55518  14.511   8.881   7.553
 4216POPC   C1B55519  13.908   9.097   6.127
 4216POPC   C2B55520  14.044   9.073   6.544
 4216POPC   C3B55521  14.161   9.250   6.917
 4216POPC   C4B55522  14.116   9.063   7.293
 4217POPC   NC355523  41.659  26.123   5.322
 4217POPC   PO455524  41.927  25.580   5.545
 4217POPC   GL155525  41.822  25.987   5.777
 4217POPC   GL255526  41.804  25.769   6.016
 4217POPC   C1A55527  41.474  26.151   6.090
 4217POPC   D2A55528  41.336  25.967   6.487
 4217POPC   C3A55529  41.333  26.218   6.862
 4217POPC   C4A55530  41.207  26.173   7.266
 4217POPC   C1B55531  41.939  26.066   6.321
 4217POPC   C2B55532  41.798  25.995   6.742
 4217POPC   C3B55533  41.623  25.895   7.125
 4217POPC   C4B55534  41.680  26.153   7.494
 4218POPC   NC355535  35.653  36.096   5.426
 4218POPC   PO455536  35.035  36.182   5.589
 4218POPC   GL155537  35.370  35.961   5.831
 4218POPC   GL255538  35.645  36.204   5.913
 4218POPC   C1A55539  35.376  35.899   6.264
 4218POPC   D2A55540  35.260  36.163   6.618
 4218POPC   C3A55541  35.323  35.925   6.990
 4218POPC   C4A55542  35.281  35.748   7.424
 4218POPC   C1B55543  35.470  36.455   6.211
 4218POPC   C2B55544  35.622  36.641   6.586
 4218POPC   C3B55545  35.583  36.410   6.957
 4218POPC   C4B55546  35.549  36.181   7.347
 4219POPC   NC355547   5.374  25.584   5.634
 4219POPC   PO455548   5.845  25.201   5.227
 4219POPC   GL155549   5.734  25.134   5.683
 4219POPC   GL255550   5.996  24.894   5.825
 4219POPC   C1A55551   5.836  25.310   6.091
 4219POPC   D2A55552   5.885  25.280   6.536
 4219POPC   C3A55553   5.672  25.514   6.845
 4219POPC   C4A55554   5.735  25.441   7.291
 4219POPC   C1B55555   6.145  24.909   6.265
 4219POPC   C2B55556   6.206  24.886   6.730
 4219POPC   C3B55557   6.203  24.791   7.164
 4219POPC   C4B55558   5.864  24.794   7.495
 4220POPC   NC355559  31.668  34.027   5.398
 4220POPC   PO455560  31.089  33.542   5.530
 4220POPC   GL155561  31.317  33.848   5.847
 4220POPC   GL255562  31.680  33.887   5.874
 4220POPC   C1A55563  31.454  34.049   6.274
 4220POPC   D2A55564  31.310  34.219   6.635
 4220POPC   C3A55565  31.463  34.084   6.997
 4220POPC   C4A55566  31.296  33.756   7.251
 4220POPC   C1B55567  31.757  33.616   6.193
 4220POPC   C2B55568  31.875  33.597   6.609
 4220POPC   C3B55569  31.780  33.708   7.027
 4220POPC   C4B55570  31.768  33.924   7.414
 4221POPC   NC355571   9.941  24.437   5.344
 4221POPC   PO455572   9.405  24.126   5.642
 4221POPC   GL155573   9.608  24.348   5.973
 4221POPC   GL255574   9.862  24.505   5.856
 4221POPC   C1A55575   9.967  24.311   6.304
 4221POPC   D2A55576  10.018  24.150   6.709
 4221POPC   C3A55577  10.188  24.185   7.115
 4221POPC   C4A55578   9.863  24.399   7.246
 4221POPC   C1B55579   9.746  24.777   6.193
 4221POPC   C2B55580   9.849  24.831   6.601
 4221POPC   C3B55581   9.682  24.821   6.987
 4221POPC   C4B55582   9.832  24.924   7.388
 4222POPC   NC355583  38.105  21.930   5.650
 4222POPC   PO455584  38.693  22.195   5.332
 4222POPC   GL155585  38.549  22.101   5.795
 4222POPC   GL255586  38.382  22.388   5.864
 4222POPC   C1A55587  38.310  22.075   6.256
 4222POPC   D2A55588  38.440  21.972   6.678
 4222POPC   C3A55589  38.302  21.840   7.120
 4222POPC   C4A55590  38.343  21.638   7.560
 4222POPC   C1B55591  38.217  22.587   6.231
 4222POPC   C2B55592  38.421  22.498   6.598
 4222POPC   C3B55593  38.403  22.358   7.019
 4222POPC   C4B55594  38.205  22.571   7.345
 4223POPC   NC355595  32.633   1.529   5.660
 4223POPC   PO455596  32.228   1.107   5.262
 4223POPC   GL155597  32.405   1.069   5.726
 4223POPC   GL255598  32.076   1.088   5.908
 4223POPC   C1A55599  32.495   1.162   6.205
 4223POPC   D2A55600  32.288   1.129   6.635
 4223POPC   C3A55601  32.441   1.332   7.021
 4223POPC   C4A55602  32.396   1.203   7.479
 4223POPC   C1B55603  32.003   1.385   6.284
 4223POPC   C2B55604  31.824   1.351   6.736
 4223POPC   C3B55605  31.960   1.568   7.115
 4223POPC   C4B55606  32.321   1.718   7.347
 4224POPC   NC355607   2.292  37.404   5.535
 4224POPC   PO455608   1.754  37.889   5.405
 4224POPC   GL155609   1.906  37.675   5.744
 4224POPC   GL255610   1.602  37.543   5.818
 4224POPC   C1A55611   2.122  37.684   6.146
 4224POPC   D2A55612   2.308  37.785   6.594
 4224POPC   C3A55613   2.197  37.718   7.043
 4224POPC   C4A55614   1.833  37.505   7.164
 4224POPC   C1B55615   1.621  37.848   6.157
 4224POPC   C2B55616   1.805  37.808   6.569
 4224POPC   C3B55617   1.803  38.010   6.971
 4224POPC   C4B55618   1.884  37.975   7.389
 4225POPC   NC355619  11.385  40.843   5.482
 4225POPC   PO455620  11.321  40.265   5.099
 4225POPC   GL155621  11.116  40.387   5.585
 4225POPC   GL255622  10.930  40.702   5.592
 4225POPC   C1A55623  11.268  40.461   6.072
 4225POPC   D2A55624  11.528  40.563   6.463
 4225POPC   C3A55625  11.330  40.410   6.844
 4225POPC   C4A55626  11.320  40.381   7.294
 4225POPC   C1B55627  10.938  40.871   6.008
 4225POPC   C2B55628  11.157  40.886   6.379
 4225POPC   C3B55629  11.215  41.045   6.791
 4225POPC   C4B55630  11.270  40.962   7.228
 4226POPC   NC355631   0.512  44.816   5.402
 4226POPC   PO455632   0.265  44.253   5.387
 4226POPC   GL155633   0.337  44.492   5.777
 4226POPC   GL255634   0.685  44.628   5.818
 4226POPC   C1A55635   0.186  44.618   6.203
 4226POPC   D2A55636   0.098  44.801   6.597
 4226POPC   C3A55637  44.978  44.515   6.901
 4226POPC   C4A55638   0.229  44.303   7.136
 4226POPC   C1B55639   0.644  44.852   6.168
 4226POPC   C2B55640   0.625  44.788   6.579
 4226POPC   C3B55641   0.496  44.743   6.989
 4226POPC   C4B55642   0.554  44.971   7.360
 4227POPC   NC355643  23.138  34.322   5.581
 4227POPC   PO455644  22.731  34.849   5.560
 4227POPC   GL155645  22.931  34.694   5.883
 4227POPC   GL255646  22.743  34.382   5.893
 4227POPC   C1A55647  23.113  34.776   6.282
 4227POPC   D2A55648  22.974  34.604   6.670
 4227POPC   C3A55649  23.081  34.819   7.054
 4227POPC   C4A55650  22.903  34.808   7.483
 4227POPC   C1B55651  22.630  34.584   6.267
 4227POPC   C2B55652  22.459  34.861   6.498
 4227POPC   C3B55653  22.561  34.801   6.898
 4227POPC   C4B55654  22.749  34.455   7.108
 4228POPC   NC355655  23.506   5.157   5.252
 4228POPC   PO455656  23.891   4.663   5.426
 4228POPC   GL155657  23.739   4.989   5.689
 4228POPC   GL255658  23.586   4.743   5.834
 4228POPC   C1A55659  23.693   5.156   6.126
 4228POPC   D2A55660  23.912   5.201   6.517
 4228POPC   C3A55661  23.735   5.423   6.874
 4228POPC   C4A55662  23.647   5.330   7.304
 4228POPC   C1B55663  23.798   4.650   6.173
 4228POPC   C2B55664  23.624   4.784   6.547
 4228POPC   C3B55665  23.732   4.909   6.952
 4228POPC   C4B55666  23.510   4.846   7.350
 4229POPC   NC355667  31.828  23.935   4.817
 4229POPC   PO455668  31.603  23.611   5.378
 4229POPC   GL155669  31.646  23.882   5.719
 4229POPC   GL255670  31.617  23.541   5.888
 4229POPC   C1A55671  31.508  23.993   6.138
 4229POPC   D2A55672  31.422  23.786   6.525
 4229POPC   C3A55673  31.631  23.956   6.882
 4229POPC   C4A55674  31.426  23.880   7.243
 4229POPC   C1B55675  31.935  23.681   6.161
 4229POPC   C2B55676  31.894  23.572   6.584
 4229POPC   C3B55677  31.613  23.444   6.906
 4229POPC   C4B55678  31.874  23.569   7.226
 4230POPC   NC355679  12.547  11.510   5.624
 4230POPC   PO455680  13.048  11.145   5.256
 4230POPC   GL155681  12.932  11.108   5.705
 4230POPC   GL255682  12.698  11.200   5.960
 4230POPC   C1A55683  13.085  10.947   6.125
 4230POPC   D2A55684  13.050  10.833   6.592
 4230POPC   C3A55685  12.874  11.034   6.980
 4230POPC   C4A55686  13.109  11.271   7.274
 4230POPC   C1B55687  12.817  11.312   6.388
 4230POPC   C2B55688  12.663  11.441   6.779
 4230POPC   C3B55689  12.714  11.552   7.194
 4230POPC   C4B55690  12.795  11.713   7.599
 4231POPC   NC355691   3.358  27.184   5.318
 4231POPC   PO455692   3.623  27.782   5.399
 4231POPC   GL155693   3.655  27.448   5.691
 4231POPC   GL255694   3.324  27.522   5.814
 4231POPC   C1A55695   3.718  27.333   6.115
 4231POPC   D2A55696   3.801  27.538   6.508
 4231POPC   C3A55697   3.742  27.389   6.937
 4231POPC   C4A55698   3.723  27.532   7.377
 4231POPC   C1B55699   3.287  27.622   6.271
 4231POPC   C2B55700   3.357  27.661   6.734
 4231POPC   C3B55701   3.305  27.714   7.164
 4231POPC   C4B55702   3.231  27.407   7.512
 4232POPC   NC355703  39.369  33.185   5.310
 4232POPC   PO455704  38.856  32.824   5.317
 4232POPC   GL155705  39.192  32.882   5.708
 4232POPC   GL255706  39.393  33.183   5.828
 4232POPC   C1A55707  39.483  32.732   6.080
 4232POPC   D2A55708  39.577  32.647   6.530
 4232POPC   C3A55709  39.255  32.798   6.794
 4232POPC   C4A55710  39.097  32.754   7.215
 4232POPC   C1B55711  39.352  33.192   6.286
 4232POPC   C2B55712  39.544  33.253   6.707
 4232POPC   C3B55713  39.359  33.196   7.107
 4232POPC   C4B55714  38.925  33.245   7.183
 4233POPC   NC355715  22.382  41.412   5.316
 4233POPC   PO455716  22.996  41.313   5.392
 4233POPC   GL155717  22.937  41.411   5.833
 4233POPC   GL255718  22.587  41.574   5.914
 4233POPC   C1A55719  23.037  41.657   6.218
 4233POPC   D2A55720  22.894  41.604   6.632
 4233POPC   C3A55721  22.785  41.845   7.000
 4233POPC   C4A55722  23.092  41.623   7.233
 4233POPC   C1B55723  22.677  41.287   6.273
 4233POPC   C2B55724  22.603  41.119   6.682
 4233POPC   C3B55725  22.735  41.334   7.023
 4233POPC   C4B55726  22.609  41.550   7.408
 4234POPC   NC355727   4.111   9.341   5.596
 4234POPC   PO455728   3.496   9.694   5.451
 4234POPC   GL155729   3.645   9.489   5.761
 4234POPC   GL255730   3.338   9.382   5.901
 4234POPC   C1A55731   3.782   9.494   6.186
 4234POPC   D2A55732   3.565   9.543   6.583
 4234POPC   C3A55733   3.789   9.569   6.959
 4234POPC   C4A55734   3.743   9.776   7.344
 4234POPC   C1B55735   3.369   9.788   6.148
 4234POPC   C2B55736   3.473  10.049   6.508
 4234POPC   C3B55737   3.435   9.949   6.935
 4234POPC   C4B55738   3.236   9.867   7.331
 4235POPC   NC355739   5.085   6.304   5.600
 4235POPC   PO455740   4.982   5.680   5.265
 4235POPC   GL155741   5.193   5.804   5.649
 4235POPC   GL255742   4.952   5.903   5.876
 4235POPC   C1A55743   5.368   5.747   6.102
 4235POPC   D2A55744   5.258   5.513   6.542
 4235POPC   C3A55745   5.297   5.702   6.977
 4235POPC   C4A55746   5.316   5.721   7.443
 4235POPC   C1B55747   4.858   5.906   6.294
 4235POPC   C2B55748   4.789   6.125   6.665
 4235POPC   C3B55749   4.731   5.919   7.045
 4235POPC   C4B55750   4.827   5.868   7.445
 4236POPC   NC355751  44.269  21.654   5.320
 4236POPC   PO455752  44.678  21.262   5.432
 4236POPC   GL155753  44.546  21.440   5.801
 4236POPC   GL255754  44.591  21.144   5.972
 4236POPC   C1A55755  44.717  21.553   6.226
 4236POPC   D2A55756  44.911  21.360   6.580
 4236POPC   C3A55757  44.940  21.600   6.960
 4236POPC   C4A55758  44.613  21.692   7.276
 4236POPC   C1B55759  44.984  21.013   6.187
 4236POPC   C2B55760   0.076  20.847   6.627
 4236POPC   C3B55761  44.939  21.081   7.018
 4236POPC   C4B55762  44.553  21.190   7.204
 4237POPC   NC355763   7.634  16.995   5.477
 4237POPC   PO455764   7.008  16.754   5.563
 4237POPC   GL155765   7.091  16.902   5.980
 4237POPC   GL255766   7.391  17.098   5.908
 4237POPC   C1A55767   7.377  16.665   6.289
 4237POPC   D2A55768   7.594  16.397   6.618
 4237POPC   C3A55769   7.464  16.516   7.013
 4237POPC   C4A55770   7.174  16.793   7.272
 4237POPC   C1B55771   7.747  17.025   6.196
 4237POPC   C2B55772   7.788  16.917   6.634
 4237POPC   C3B55773   7.608  16.994   7.028
 4237POPC   C4B55774   7.644  16.798   7.459
 4238POPC   NC355775  39.088  25.741   5.422
 4238POPC   PO455776  38.953  26.419   5.471
 4238POPC   GL155777  39.070  26.258   5.847
 4238POPC   GL255778  39.398  26.393   5.946
 4238POPC   C1A55779  38.993  26.208   6.289
 4238POPC   D2A55780  39.123  25.899   6.616
 4238POPC   C3A55781  39.082  26.120   6.981
 4238POPC   C4A55782  38.732  26.122   7.210
 4238POPC   C1B55783  39.497  26.090   6.294
 4238POPC   C2B55784  39.563  26.135   6.755
 4238POPC   C3B55785  39.553  26.102   7.185
 4238POPC   C4B55786  39.531  26.375   7.490
 4239POPC   NC355787  21.057   5.022   5.587
 4239POPC   PO455788  21.673   4.905   5.427
 4239POPC   GL155789  21.501   4.962   5.860
 4239POPC   GL255790  21.378   5.289   5.933
 4239POPC   C1A55791  21.246   4.905   6.259
 4239POPC   D2A55792  21.357   4.818   6.689
 4239POPC   C3A55793  21.508   5.109   7.000
 4239POPC   C4A55794  21.768   5.292   7.333
 4239POPC   C1B55795  21.027   5.362   6.241
 4239POPC   C2B55796  21.005   5.217   6.677
 4239POPC   C3B55797  21.062   5.364   7.092
 4239POPC   C4B55798  21.384   5.630   7.273
 4240POPC   NC355799  19.639  41.780   5.440
 4240POPC   PO455800  19.873  42.436   5.117
 4240POPC   GL155801  19.732  42.425   5.580
 4240POPC   GL255802  19.786  42.157   5.742
 4240POPC   C1A55803  19.661  42.549   6.052
 4240POPC   D2A55804  19.889  42.524   6.501
 4240POPC   C3A55805  19.779  42.417   6.948
 4240POPC   C4A55806  19.887  42.509   7.400
 4240POPC   C1B55807  19.876  42.109   6.171
 4240POPC   C2B55808  19.657  42.026   6.564
 4240POPC   C3B55809  19.670  41.923   7.023
 4240POPC   C4B55810  20.070  42.031   7.208
 4241POPC   NC355811  25.880   8.210   5.102
 4241POPC   PO455812  26.427   8.337   5.526
 4241POPC   GL155813  26.392   8.114   5.908
 4241POPC   GL255814  26.049   8.094   6.020
 4241POPC   C1A55815  26.401   7.950   6.327
 4241POPC   D2A55816  26.067   8.095   6.572
 4241POPC   C3A55817  26.291   8.058   6.922
 4241POPC   C4A55818  26.420   7.754   7.200
 4241POPC   C1B55819  25.703   7.894   6.256
 4241POPC   C2B55820  25.554   7.897   6.676
 4241POPC   C3B55821  25.793   8.052   7.028
 4241POPC   C4B55822  25.761   8.339   7.344
 4242POPC   NC355823  22.301  23.856   5.603
 4242POPC   PO455824  22.948  23.900   5.424
 4242POPC   GL155825  23.048  23.789   5.835
 4242POPC   GL255826  23.248  24.059   5.832
 4242POPC   C1A55827  22.961  23.684   6.269
 4242POPC   D2A55828  22.817  23.847   6.658
 4242POPC   C3A55829  22.887  23.617   7.022
 4242POPC   C4A55830  22.565  23.367   7.166
 4242POPC   C1B55831  23.012  24.195   6.182
 4242POPC   C2B55832  23.174  24.202   6.578
 4242POPC   C3B55833  23.055  24.155   7.013
 4242POPC   C4B55834  23.083  24.021   7.443
 4243POPC   NC355835  40.224  13.295   5.731
 4243POPC   PO455836  39.880  13.826   5.346
 4243POPC   GL155837  39.855  13.671   5.749
 4243POPC   GL255838  40.124  13.796   5.946
 4243POPC   C1A55839  39.668  13.620   6.167
 4243POPC   D2A55840  39.733  13.782   6.578
 4243POPC   C3A55841  40.109  13.680   6.808
 4243POPC   C4A55842  40.185  13.490   7.205
 4243POPC   C1B55843  40.344  13.759   6.340
 4243POPC   C2B55844  40.501  14.007   6.705
 4243POPC   C3B55845  40.311  14.027   7.133
 4243POPC   C4B55846  40.081  13.924   7.512
 4244POPC   NC355847   4.031  43.727   5.324
 4244POPC   PO455848   4.647  44.069   5.413
 4244POPC   GL155849   4.364  44.118   5.782
 4244POPC   GL255850   3.989  44.064   5.772
 4244POPC   C1A55851   4.336  44.184   6.235
 4244POPC   D2A55852   4.596  44.095   6.597
 4244POPC   C3A55853   4.405  44.190   6.973
 4244POPC   C4A55854   4.383  44.003   7.390
 4244POPC   C1B55855   3.963  43.841   6.180
 4244POPC   C2B55856   4.165  43.782   6.574
 4244POPC   C3B55857   4.255  43.695   6.981
 4244POPC   C4B55858   4.021  43.635   7.349
 4245POPC   NC355859   5.550  11.619   5.492
 4245POPC   PO455860   6.015  11.133   5.411
 4245POPC   GL155861   5.870  11.312   5.779
 4245POPC   GL255862   5.568  11.111   5.851
 4245POPC   C1A55863   5.991  11.411   6.207
 4245POPC   D2A55864   5.927  11.266   6.632
 4245POPC   C3A55865   5.869  11.404   7.051
 4245POPC   C4A55866   6.001  11.188   7.441
 4245POPC   C1B55867   5.515  11.216   6.313
 4245POPC   C2B55868   5.421  11.331   6.740
 4245POPC   C3B55869   5.325  11.603   7.112
 4245POPC   C4B55870   5.553  11.441   7.453
 4246POPC   NC355871  16.019   7.939   5.326
 4246POPC   PO455872  15.852   7.238   5.436
 4246POPC   GL155873  15.974   7.351   5.834
 4246POPC   GL255874  15.975   7.701   5.785
 4246POPC   C1A55875  15.896   7.485   6.276
 4246POPC   D2A55876  15.579   7.326   6.575
 4246POPC   C3A55877  15.718   7.189   6.968
 4246POPC   C4A55878  15.929   7.019   7.295
 4246POPC   C1B55879  16.339   7.669   6.056
 4246POPC   C2B55880  16.339   7.816   6.481
 4246POPC   C3B55881  16.092   7.859   6.861
 4246POPC   C4B55882  15.991   7.564   7.156
 4247POPC   NC355883   4.881  41.258   5.168
 4247POPC   PO455884   4.272  41.603   5.294
 4247POPC   GL155885   4.324  41.483   5.762
 4247POPC   GL255886   4.040  41.271   5.828
 4247POPC   C1A55887   4.337  41.560   6.232
 4247POPC   D2A55888   4.476  41.849   6.552
 4247POPC   C3A55889   4.314  41.677   6.910
 4247POPC   C4A55890   4.414  41.479   7.291
 4247POPC   C1B55891   3.997  41.163   6.252
 4247POPC   C2B55892   4.118  41.249   6.671
 4247POPC   C3B55893   4.080  41.102   7.100
 4247POPC   C4B55894   4.130  41.097   7.549
 4248POPC   NC355895  14.025   0.909   5.299
 4248POPC   PO455896  13.441   0.714   5.396
 4248POPC   GL155897  13.588   0.646   5.859
 4248POPC   GL255898  13.769   0.356   5.952
 4248POPC   C1A55899  13.636   0.741   6.337
 4248POPC   D2A55900  13.437   0.753   6.759
 4248POPC   C3A55901  13.728   0.809   7.120
 4248POPC   C4A55902  13.943   0.772   7.523
 4248POPC   C1B55903  13.971   0.353   6.381
 4248POPC   C2B55904  13.802   0.378   6.811
 4248POPC   C3B55905  14.010   0.364   7.212
 4248POPC   C4B55906  13.967   0.268   7.671
 4249POPC   NC355907  23.385   2.721   5.348
 4249POPC   PO455908  23.832   2.221   5.419
 4249POPC   GL155909  23.918   2.119   5.858
 4249POPC   GL255910  23.697   1.845   6.003
 4249POPC   C1A55911  23.941   2.134   6.333
 4249POPC   D2A55912  23.925   1.789   6.595
 4249POPC   C3A55913  24.011   1.802   7.002
 4249POPC   C4A55914  23.898   2.104   7.287
 4249POPC   C1B55915  23.458   1.839   6.405
 4249POPC   C2B55916  23.111   1.864   6.717
 4249POPC   C3B55917  23.096   1.978   7.152
 4249POPC   C4B55918  23.432   1.914   7.455
 4250POPC   NC355919  22.698  19.869   5.537
 4250POPC   PO455920  22.027  19.689   5.437
 4250POPC   GL155921  22.012  19.720   5.826
 4250POPC   GL255922  22.339  19.604   5.840
 4250POPC   C1A55923  22.013  19.929   6.202
 4250POPC   D2A55924  21.788  19.901   6.557
 4250POPC   C3A55925  21.981  19.943   6.951
 4250POPC   C4A55926  21.791  19.945   7.342
 4250POPC   C1B55927  22.496  19.789   6.202
 4250POPC   C2B55928  22.501  19.697   6.634
 4250POPC   C3B55929  22.478  19.897   7.018
 4250POPC   C4B55930  22.265  19.770   7.380
 4251POPC   NC355931  37.397  10.777   5.432
 4251POPC   PO455932  37.938  10.368   5.387
 4251POPC   GL155933  37.653  10.442   5.739
 4251POPC   GL255934  37.890  10.407   6.008
 4251POPC   C1A55935  37.478  10.674   6.123
 4251POPC   D2A55936  37.389  10.510   6.541
 4251POPC   C3A55937  37.661  10.559   6.870
 4251POPC   C4A55938  37.415  10.629   7.256
 4251POPC   C1B55939  37.489  10.147   6.155
 4251POPC   C2B55940  37.372   9.979   6.603
 4251POPC   C3B55941  37.519  10.110   7.036
 4251POPC   C4B55942  37.828  10.326   7.314
 4252POPC   NC355943  23.689   1.777   5.476
 4252POPC   PO455944  23.606   1.248   5.388
 4252POPC   GL155945  23.600   1.366   5.793
 4252POPC   GL255946  23.931   1.435   5.829
 4252POPC   C1A55947  23.490   1.235   6.194
 4252POPC   D2A55948  23.539   1.375   6.609
 4252POPC   C3A55949  23.526   1.116   6.993
 4252POPC   C4A55950  23.785   1.093   7.380
 4252POPC   C1B55951  23.962   1.391   6.295
 4252POPC   C2B55952  24.004   1.332   6.780
 4252POPC   C3B55953  24.221   1.329   7.154
 4252POPC   C4B55954  24.292   1.278   7.581
 4253POPC   NC355955  19.767   3.796   5.454
 4253POPC   PO455956  19.913   3.164   5.410
 4253POPC   GL155957  19.766   3.342   5.771
 4253POPC   GL255958  20.040   3.546   5.847
 4253POPC   C1A55959  19.685   3.363   6.219
 4253POPC   D2A55960  19.925   3.355   6.621
 4253POPC   C3A55961  19.697   3.471   7.020
 4253POPC   C4A55962  19.743   3.635   7.457
 4253POPC   C1B55963  19.966   3.794   6.245
 4253POPC   C2B55964  19.845   3.851   6.686
 4253POPC   C3B55965  20.076   3.793   7.086
 4253POPC   C4B55966  20.200   3.845   7.512
 4254POPC   NC355967  43.612  11.442   5.252
 4254POPC   PO455968  44.053  10.989   5.540
 4254POPC   GL155969  43.846  11.229   5.868
 4254POPC   GL255970  43.679  11.538   5.778
 4254POPC   C1A55971  43.846  11.231   6.318
 4254POPC   D2A55972  43.588  11.025   6.600
 4254POPC   C3A55973  43.741  11.022   6.974
 4254POPC   C4A55974  44.164  10.905   7.014
 4254POPC   C1B55975  43.546  11.649   6.197
 4254POPC   C2B55976  43.689  11.605   6.626
 4254POPC   C3B55977  44.024  11.411   6.861
 4254POPC   C4B55978  43.699  11.492   7.151
 4255POPC   NC355979  31.914  25.188   5.704
 4255POPC   PO455980  32.386  25.186   5.304
 4255POPC   GL155981  32.440  25.252   5.749
 4255POPC   GL255982  32.594  24.939   5.756
 4255POPC   C1A55983  32.267  25.313   6.225
 4255POPC   D2A55984  31.925  25.346   6.562
 4255POPC   C3A55985  32.128  25.494   6.955
 4255POPC   C4A55986  32.203  25.240   7.296
 4255POPC   C1B55987  32.729  25.080   6.159
 4255POPC   C2B55988  32.631  25.059   6.600
 4255POPC   C3B55989  32.616  25.290   6.982
 4255POPC   C4B55990  32.549  25.590   7.312
 4256POPC   NC355991  40.639  37.163   5.380
 4256POPC   PO455992  41.183  36.795   5.473
 4256POPC   GL155993  40.993  36.993   5.848
 4256POPC   GL255994  40.641  37.098   5.879
 4256POPC   C1A55995  40.826  36.823   6.259
 4256POPC   D2A55996  40.821  36.945   6.684
 4256POPC   C3A55997  40.743  36.582   6.957
 4256POPC   C4A55998  40.391  36.486   7.206
 4256POPC   C1B55999  40.625  37.310   6.287
 4256POPC   C2B56000  40.541  37.433   6.709
 4256POPC   C3B56001  40.817  37.322   7.027
 4256POPC   C4B56002  40.730  36.953   7.286
 4257POPC   NC356003  19.453  40.791   5.509
 4257POPC   PO456004  18.889  40.935   5.184
 4257POPC   GL156005  18.976  40.926   5.668
 4257POPC   GL256006  19.180  41.158   5.804
 4257POPC   C1A56007  19.061  40.707   6.093
 4257POPC   D2A56008  18.976  40.775   6.545
 4257POPC   C3A56009  19.004  40.649   6.996
 4257POPC   C4A56010  18.829  40.809   7.408
 4257POPC   C1B56011  19.279  41.128   6.278
 4257POPC   C2B56012  19.326  41.104   6.735
 4257POPC   C3B56013  19.207  41.085   7.172
 4257POPC   C4B56014  19.302  41.303   7.545
 4258POPC   NC356015  20.081  30.419   5.379
 4258POPC   PO456016  19.707  30.958   5.468
 4258POPC   GL156017  19.807  30.750   5.780
 4258POPC   GL256018  19.643  30.458   5.695
 4258POPC   C1A56019  19.731  30.862   6.192
 4258POPC   D2A56020  19.937  30.892   6.550
 4258POPC   C3A56021  19.713  30.968   6.911
 4258POPC   C4A56022  19.984  30.704   7.152
 4258POPC   C1B56023  19.797  30.351   6.116
 4258POPC   C2B56024  19.709  30.418   6.568
 4258POPC   C3B56025  19.604  30.436   7.013
 4258POPC   C4B56026  19.882  30.255   7.380
 4259POPC   NC356027  14.451  25.581   5.350
 4259POPC   PO456028  14.254  24.994   5.537
 4259POPC   GL156029  14.383  25.259   5.847
 4259POPC   GL256030  14.710  25.323   5.739
 4259POPC   C1A56031  14.283  25.234   6.299
 4259POPC   D2A56032  14.264  25.503   6.673
 4259POPC   C3A56033  14.241  25.284   7.068
 4259POPC   C4A56034  14.126  24.861   7.134
 4259POPC   C1B56035  14.766  25.121   6.171
 4259POPC   C2B56036  14.652  25.043   6.622
 4259POPC   C3B56037  14.827  24.988   7.026
 4259POPC   C4B56038  14.606  25.126   7.403
 4260POPC   NC356039  43.771  19.176   5.365
 4260POPC   PO456040  43.647  18.539   5.620
 4260POPC   GL156041  43.948  18.720   5.920
 4260POPC   GL256042  43.989  19.082   5.881
 4260POPC   C1A56043  43.791  18.903   6.333
 4260POPC   D2A56044  43.800  18.924   6.766
 4260POPC   C3A56045  43.669  19.237   7.020
 4260POPC   C4A56046  43.914  19.104   7.260
 4260POPC   C1B56047  43.980  19.370   6.255
 4260POPC   C2B56048  43.962  19.451   6.689
 4260POPC   C3B56049  44.105  19.554   7.127
 4260POPC   C4B56050  44.331  19.508   7.539
 4261POPC   NC356051  11.048  19.577   5.564
 4261POPC   PO456052  11.355  20.105   5.304
 4261POPC   GL156053  11.431  19.898   5.728
 4261POPC   GL256054  11.106  19.959   5.914
 4261POPC   C1A56055  11.470  19.754   6.173
 4261POPC   D2A56056  11.278  20.081   6.435
 4261POPC   C3A56057  11.315  20.054   6.876
 4261POPC   C4A56058  11.492  19.751   7.173
 4261POPC   C1B56059  10.991  19.650   6.252
 4261POPC   C2B56060  11.167  19.603   6.660
 4261POPC   C3B56061  10.983  19.687   7.054
 4261POPC   C4B56062  10.919  20.047   7.253
 4262POPC   NC356063   9.014  24.390   5.482
 4262POPC   PO456064   8.368  24.700   5.365
 4262POPC   GL156065   8.614  24.567   5.776
 4262POPC   GL256066   8.910  24.762   5.914
 4262POPC   C1A56067   8.817  24.247   6.116
 4262POPC   D2A56068   9.077  24.190   6.525
 4262POPC   C3A56069   9.042  24.592   6.812
 4262POPC   C4A56070   8.778  24.672   7.206
 4262POPC   C1B56071   9.226  24.578   6.194
 4262POPC   C2B56072   9.519  24.442   6.523
 4262POPC   C3B56073   9.463  24.349   6.953
 4262POPC   C4B56074   9.386  24.606   7.337
 4263POPC   NC356075   0.157  18.534   5.489
 4263POPC   PO456076   0.820  18.451   5.524
 4263POPC   GL156077   0.556  18.110   5.738
 4263POPC   GL256078   0.355  18.354   5.918
 4263POPC   C1A56079   0.383  17.924   6.150
 4263POPC   D2A56080   0.358  18.220   6.489
 4263POPC   C3A56081   0.495  18.103   6.897
 4263POPC   C4A56082   0.742  18.009   7.249
 4263POPC   C1B56083   0.008  18.510   6.136
 4263POPC   C2B56084  44.967  18.553   6.572
 4263POPC   C3B56085   0.050  18.383   6.995
 4263POPC   C4B56086   0.406  18.426   7.279
 4264POPC   NC356087  11.478   9.471   5.267
 4264POPC   PO456088  11.026   9.843   5.510
 4264POPC   GL156089  11.248   9.658   5.895
 4264POPC   GL256090  11.569   9.489   5.775
 4264POPC   C1A56091  11.237   9.876   6.325
 4264POPC   D2A56092  11.174   9.957   6.786
 4264POPC   C3A56093  11.177   9.550   7.040
 4264POPC   C4A56094  11.231   9.505   7.500
 4264POPC   C1B56095  11.716   9.706   6.150
 4264POPC   C2B56096  11.636   9.666   6.598
 4264POPC   C3B56097  11.601   9.822   7.018
 4264POPC   C4B56098  11.706   9.563   7.356
 4265POPC   NC356099  30.251  20.730   5.300
 4265POPC   PO456100  30.911  20.810   5.446
 4265POPC   GL156101  30.567  20.848   5.727
 4265POPC   GL256102  30.659  20.510   5.792
 4265POPC   C1A56103  30.367  20.838   6.152
 4265POPC   D2A56104  30.464  20.713   6.588
 4265POPC   C3A56105  30.491  20.938   6.985
 4265POPC   C4A56106  30.863  21.027   7.246
 4265POPC   C1B56107  30.854  20.611   6.173
 4265POPC   C2B56108  30.872  20.387   6.558
 4265POPC   C3B56109  30.740  20.468   6.970
 4265POPC   C4B56110  30.934  20.515   7.341
 4266POPC   NC356111  42.149  41.260   5.233
 4266POPC   PO456112  42.562  41.665   5.454
 4266POPC   GL156113  42.294  41.372   5.715
 4266POPC   GL256114  42.572  41.282   5.836
 4266POPC   C1A56115  42.209  41.253   6.178
 4266POPC   D2A56116  42.136  41.504   6.558
 4266POPC   C3A56117  42.229  41.426   6.974
 4266POPC   C4A56118  42.358  41.463   7.410
 4266POPC   C1B56119  42.615  41.660   6.129
 4266POPC   C2B56120  42.440  41.918   6.469
 4266POPC   C3B56121  42.519  41.868   6.879
 4266POPC   C4B56122  42.725  41.900   7.251
 4267POPC   NC356123  16.278   2.394   5.457
 4267POPC   PO456124  15.947   1.864   5.305
 4267POPC   GL156125  16.102   1.958   5.704
 4267POPC   GL256126  16.161   1.631   5.854
 4267POPC   C1A56127  15.939   2.052   6.088
 4267POPC   D2A56128  15.943   2.293   6.432
 4267POPC   C3A56129  15.835   2.214   6.846
 4267POPC   C4A56130  16.077   2.065   7.155
 4267POPC   C1B56131  16.232   1.672   6.296
 4267POPC   C2B56132  16.299   1.845   6.709
 4267POPC   C3B56133  16.406   1.710   7.130
 4267POPC   C4B56134  16.098   1.484   7.367
 4268POPC   NC356135   1.068   6.822   5.401
 4268POPC   PO456136   0.991   6.163   5.569
 4268POPC   GL156137   1.195   6.489   5.808
 4268POPC   GL256138   1.366   6.822   5.846
 4268POPC   C1A56139   1.415   6.432   6.189
 4268POPC   D2A56140   1.338   6.641   6.573
 4268POPC   C3A56141   1.222   6.432   6.971
 4268POPC   C4A56142   1.129   6.350   7.432
 4268POPC   C1B56143   1.254   7.069   6.206
 4268POPC   C2B56144   0.968   7.090   6.545
 4268POPC   C3B56145   1.174   6.959   6.928
 4268POPC   C4B56146   1.252   6.836   7.336
 4269POPC   NC356147  34.804   6.864   5.233
 4269POPC   PO456148  34.567   7.579   5.270
 4269POPC   GL156149  34.434   7.465   5.696
 4269POPC   GL256150  34.433   7.775   5.835
 4269POPC   C1A56151  34.559   7.299   6.119
 4269POPC   D2A56152  34.866   7.392   6.429
 4269POPC   C3A56153  34.736   7.276   6.828
 4269POPC   C4A56154  34.670   7.164   7.241
 4269POPC   C1B56155  34.656   7.845   6.245
 4269POPC   C2B56156  34.776   7.817   6.693
 4269POPC   C3B56157  34.772   7.670   7.142
 4269POPC   C4B56158  34.755   7.916   7.507
 4270POPC   NC356159  41.769  22.413   5.606
 4270POPC   PO456160  41.591  21.747   5.550
 4270POPC   GL156161  41.825  21.974   5.905
 4270POPC   GL256162  41.558  22.217   6.019
 4270POPC   C1A56163  41.859  22.028   6.386
 4270POPC   D2A56164  41.755  22.204   6.796
 4270POPC   C3A56165  41.697  21.945   7.170
 4270POPC   C4A56166  41.315  21.735   7.325
 4270POPC   C1B56167  41.705  22.533   6.318
 4270POPC   C2B56168  41.621  22.700   6.742
 4270POPC   C3B56169  41.772  22.575   7.166
 4270POPC   C4B56170  41.926  22.275   7.489
 4271POPC   NC356171  37.848  16.686   5.172
 4271POPC   PO456172  37.641  17.158   5.419
 4271POPC   GL156173  37.667  16.898   5.829
 4271POPC   GL256174  37.617  16.518   5.728
 4271POPC   C1A56175  37.706  16.989   6.308
 4271POPC   D2A56176  37.719  17.237   6.729
 4271POPC   C3A56177  37.575  16.973   7.093
 4271POPC   C4A56178  37.425  16.514   7.065
 4271POPC   C1B56179  37.955  16.469   6.053
 4271POPC   C2B56180  38.078  16.631   6.470
 4271POPC   C3B56181  37.920  16.605   6.913
 4271POPC   C4B56182  38.023  16.360   7.298
 4272POPC   NC356183  29.854  27.772   5.502
 4272POPC   PO456184  30.490  27.574   5.221
 4272POPC   GL156185  30.257  27.441   5.667
 4272POPC   GL256186  29.885  27.361   5.792
 4272POPC   C1A56187  30.253  27.449   6.135
 4272POPC   D2A56188  29.929  27.316   6.451
 4272POPC   C3A56189  30.058  27.303   6.867
 4272POPC   C4A56190  30.205  27.494   7.244
 4272POPC   C1B56191  29.802  27.694   6.138
 4272POPC   C2B56192  29.763  27.931   6.520
 4272POPC   C3B56193  29.899  27.985   6.941
 4272POPC   C4B56194  29.671  28.060   7.316
 4273POPC   NC356195  18.712  40.157   5.276
 4273POPC   PO456196  18.105  39.826   5.445
 4273POPC   GL156197  18.093  39.981   5.800
 4273POPC   GL256198  18.409  40.125   5.796
 4273POPC   C1A56199  18.231  39.793   6.170
 4273POPC   D2A56200  18.076  39.626   6.541
 4273POPC   C3A56201  18.284  39.675   6.924
 4273POPC   C4A56202  18.183  39.519   7.313
 4273POPC   C1B56203  18.191  40.295   6.183
 4273POPC   C2B56204  18.259  40.129   6.602
 4273POPC   C3B56205  18.241  40.187   7.058
 4273POPC   C4B56206  18.446  39.957   7.378
 4274POPC   NC356207  14.108   5.066   5.621
 4274POPC   PO456208  14.537   5.594   5.387
 4274POPC   GL156209  14.529   5.323   5.783
 4274POPC   GL256210  14.648   4.989   5.750
 4274POPC   C1A56211  14.561   5.285   6.252
 4274POPC   D2A56212  14.538   5.648   6.590
 4274POPC   C3A56213  14.411   5.462   6.992
 4274POPC   C4A56214  14.367   5.195   7.347
 4274POPC   C1B56215  14.591   4.753   6.157
 4274POPC   C2B56216  14.754   4.805   6.585
 4274POPC   C3B56217  14.540   4.911   6.962
 4274POPC   C4B56218  14.116   4.776   7.131
 4275POPC   NC356219  22.243  40.405   5.306
 4275POPC   PO456220  22.021  41.099   5.348
 4275POPC   GL156221  22.127  40.785   5.683
 4275POPC   GL256222  21.874  40.550   5.735
 4275POPC   C1A56223  22.163  40.672   6.154
 4275POPC   D2A56224  22.215  40.773   6.611
 4275POPC   C3A56225  22.318  40.698   7.038
 4275POPC   C4A56226  22.467  41.032   7.286
 4275POPC   C1B56227  21.651  40.511   6.120
 4275POPC   C2B56228  21.724  40.697   6.513
 4275POPC   C3B56229  21.830  40.531   6.931
 4275POPC   C4B56230  21.913  40.601   7.372
 4276POPC   NC356231  38.245  36.048   5.468
 4276POPC   PO456232  38.817  36.305   5.262
 4276POPC   GL156233  38.653  36.386   5.694
 4276POPC   GL256234  38.341  36.386   5.881
 4276POPC   C1A56235  38.690  36.191   6.136
 4276POPC   D2A56236  38.409  36.304   6.460
 4276POPC   C3A56237  38.479  36.061   6.801
 4276POPC   C4A56238  38.663  36.151   7.181
 4276POPC   C1B56239  38.199  36.003   6.101
 4276POPC   C2B56240  38.009  35.948   6.479
 4276POPC   C3B56241  37.978  36.198   6.830
 4276POPC   C4B56242  38.156  36.041   7.198
 4277POPC   NC356243  19.113   6.372   5.358
 4277POPC   PO456244  18.930   6.917   5.611
 4277POPC   GL156245  18.900   6.504   5.819
 4277POPC   GL256246  19.248   6.449   5.851
 4277POPC   C1A56247  18.861   6.331   6.239
 4277POPC   D2A56248  19.071   6.363   6.664
 4277POPC   C3A56249  18.874   6.509   7.063
 4277POPC   C4A56250  18.618   6.272   7.361
 4277POPC   C1B56251  19.203   6.713   6.230
 4277POPC   C2B56252  19.087   6.905   6.631
 4277POPC   C3B56253  19.274   6.823   7.014
 4277POPC   C4B56254  19.370   6.369   7.103
 4278POPC   NC356255  43.428  39.870   5.105
 4278POPC   PO456256  43.893  40.199   5.457
 4278POPC   GL156257  43.960  40.124   5.867
 4278POPC   GL256258  44.112  39.805   5.875
 4278POPC   C1A56259  43.721  40.052   6.235
 4278POPC   D2A56260  43.475  39.881   6.535
 4278POPC   C3A56261  43.592  40.103   6.908
 4278POPC   C4A56262  43.587  39.947   7.302
 4278POPC   C1B56263  44.220  40.016   6.285
 4278POPC   C2B56264  44.071  40.157   6.702
 4278POPC   C3B56265  44.080  39.930   7.108
 4278POPC   C4B56266  44.035  39.972   7.567
 4279POPC   NC356267  21.745  15.320   5.649
 4279POPC   PO456268  22.346  15.056   5.423
 4279POPC   GL156269  22.270  15.282   5.782
 4279POPC   GL256270  22.544  15.483   5.853
 4279POPC   C1A56271  22.140  15.317   6.220
 4279POPC   D2A56272  22.038  15.414   6.661
 4279POPC   C3A56273  22.190  15.113   6.966
 4279POPC   C4A56274  22.009  14.739   7.121
 4279POPC   C1B56275  22.507  15.680   6.237
 4279POPC   C2B56276  22.413  15.754   6.665
 4279POPC   C3B56277  22.493  15.528   7.047
 4279POPC   C4B56278  22.471  15.505   7.498
 4280POPC   NC356279  23.192  15.221   5.000
 4280POPC   PO456280  23.908  15.159   5.345
 4280POPC   GL156281  23.758  15.105   5.798
 4280POPC   GL256282  23.495  14.872   5.858
 4280POPC   C1A56283  23.550  15.229   6.210
 4280POPC   D2A56284  23.685  15.086   6.622
 4280POPC   C3A56285  23.551  15.319   6.987
 4280POPC   C4A56286  23.684  15.283   7.455
 4280POPC   C1B56287  23.805  14.717   6.180
 4280POPC   C2B56288  23.930  14.555   6.587
 4280POPC   C3B56289  23.949  14.789   6.965
 4280POPC   C4B56290  23.596  14.865   7.199
 4281POPC   NC356291   7.789  42.989   5.428
 4281POPC   PO456292   7.201  43.308   5.499
 4281POPC   GL156293   7.435  43.088   5.824
 4281POPC   GL256294   7.634  42.777   5.888
 4281POPC   C1A56295   7.558  43.158   6.253
 4281POPC   D2A56296   7.634  43.038   6.685
 4281POPC   C3A56297   7.364  43.180   7.004
 4281POPC   C4A56298   7.307  43.070   7.430
 4281POPC   C1B56299   7.586  42.647   6.337
 4281POPC   C2B56300   7.770  42.528   6.727
 4281POPC   C3B56301   7.596  42.711   7.086
 4281POPC   C4B56302   7.773  43.047   7.285
 4282POPC   NC356303   8.968  34.090   5.440
 4282POPC   PO456304   9.210  33.508   5.383
 4282POPC   GL156305   9.181  33.775   5.760
 4282POPC   GL256306   8.851  33.855   5.887
 4282POPC   C1A56307   9.238  34.051   6.145
 4282POPC   D2A56308   9.204  34.158   6.590
 4282POPC   C3A56309   9.132  33.922   6.970
 4282POPC   C4A56310   8.934  34.146   7.334
 4282POPC   C1B56311   8.804  33.527   6.206
 4282POPC   C2B56312   8.739  33.296   6.561
 4282POPC   C3B56313   8.547  33.426   6.894
 4282POPC   C4B56314   8.659  33.765   7.132
 4283POPC   NC356315  11.289  36.530   5.508
 4283POPC   PO456316  11.384  37.183   5.426
 4283POPC   GL156317  11.415  36.952   5.798
 4283POPC   GL256318  11.068  36.983   5.849
 4283POPC   C1A56319  11.323  36.750   6.220
 4283POPC   D2A56320  11.160  36.632   6.609
 4283POPC   C3A56321  11.395  36.720   6.968
 4283POPC   C4A56322  11.572  37.090   7.126
 4283POPC   C1B56323  10.855  37.109   6.230
 4283POPC   C2B56324  10.625  37.172   6.620
 4283POPC   C3B56325  10.710  36.980   7.017
 4283POPC   C4B56326  11.058  36.956   7.259
 4284POPC   NC356327  24.189  23.263   5.468
 4284POPC   PO456328  24.508  22.696   5.319
 4284POPC   GL156329  24.472  22.915   5.741
 4284POPC   GL256330  24.128  22.852   5.793
 4284POPC   C1A56331  24.623  22.991   6.193
 4284POPC   D2A56332  24.873  22.823   6.552
 4284POPC   C3A56333  24.644  22.686   6.923
 4284POPC   C4A56334  24.531  22.890   7.317
 4284POPC   C1B56335  24.113  22.925   6.236
 4284POPC   C2B56336  24.271  22.762   6.574
 4284POPC   C3B56337  24.181  22.902   6.958
 4284POPC   C4B56338  24.198  23.275   7.185
 4285POPC   NC356339   5.257   1.709   5.445
 4285POPC   PO456340   5.115   2.429   5.349
 4285POPC   GL156341   5.073   2.200   5.722
 4285POPC   GL256342   4.775   2.400   5.762
 4285POPC   C1A56343   5.183   1.984   6.131
 4285POPC   D2A56344   5.273   2.042   6.593
 4285POPC   C3A56345   5.207   1.812   6.970
 4285POPC   C4A56346   5.311   1.989   7.375
 4285POPC   C1B56347   4.707   2.235   6.195
 4285POPC   C2B56348   4.804   2.278   6.633
 4285POPC   C3B56349   5.011   2.298   7.043
 4285POPC   C4B56350   4.908   2.291   7.496
 4286POPC   NC356351  20.956   2.459   5.415
 4286POPC   PO456352  20.649   1.886   5.439
 4286POPC   GL156353  20.451   1.907   5.812
 4286POPC   GL256354  20.417   1.568   5.811
 4286POPC   C1A56355  20.476   2.095   6.215
 4286POPC   D2A56356  20.691   2.025   6.615
 4286POPC   C3A56357  20.496   2.002   7.039
 4286POPC   C4A56358  20.575   2.198   7.509
 4286POPC   C1B56359  20.604   1.594   6.237
 4286POPC   C2B56360  20.397   1.530   6.658
 4286POPC   C3B56361  20.398   1.500   7.105
 4286POPC   C4B56362  20.768   1.694   7.336
 4287POPC   NC356363   1.330   2.009   5.393
 4287POPC   PO456364   0.765   1.687   5.184
 4287POPC   GL156365   0.860   1.944   5.675
 4287POPC   GL256366   1.243   1.932   5.867
 4287POPC   C1A56367   0.888   1.895   6.191
 4287POPC   D2A56368   1.018   1.765   6.613
 4287POPC   C3A56369   0.989   2.012   6.997
 4287POPC   C4A56370   1.006   1.783   7.382
 4287POPC   C1B56371   1.289   2.233   6.143
 4287POPC   C2B56372   1.275   2.242   6.574
 4287POPC   C3B56373   1.475   1.996   6.878
 4287POPC   C4B56374   1.435   2.027   7.313
 4288POPC   NC356375  28.593   2.709   5.480
 4288POPC   PO456376  28.141   3.055   5.421
 4288POPC   GL156377  28.212   2.886   5.832
 4288POPC   GL256378  28.558   2.923   5.948
 4288POPC   C1A56379  28.135   2.671   6.220
 4288POPC   D2A56380  28.276   2.455   6.604
 4288POPC   C3A56381  28.482   2.694   6.900
 4288POPC   C4A56382  28.511   2.860   7.301
 4288POPC   C1B56383  28.515   2.972   6.407
 4288POPC   C2B56384  28.125   3.026   6.622
 4288POPC   C3B56385  28.047   2.952   7.036
 4288POPC   C4B56386  28.037   2.969   7.473
 4289POPC   NC356387  31.354  20.755   5.336
 4289POPC   PO456388  32.016  20.704   5.341
 4289POPC   GL156389  31.657  20.559   5.703
 4289POPC   GL256390  31.230  20.493   5.757
 4289POPC   C1A56391  31.516  20.686   6.129
 4289POPC   D2A56392  31.255  20.735   6.491
 4289POPC   C3A56393  31.506  20.658   6.845
 4289POPC   C4A56394  31.321  20.795   7.192
 4289POPC   C1B56395  31.230  20.238   6.143
 4289POPC   C2B56396  31.362  20.232   6.550
 4289POPC   C3B56397  31.210  20.249   6.966
 4289POPC   C4B56398  31.431  20.322   7.355
 4290POPC   NC356399  44.857  12.032   5.224
 4290POPC   PO456400  44.328  12.449   5.439
 4290POPC   GL156401  44.425  12.142   5.708
 4290POPC   GL256402  44.784  12.150   5.723
 4290POPC   C1A56403  44.475  12.032   6.140
 4290POPC   D2A56404  44.313  12.185   6.510
 4290POPC   C3A56405  44.578  12.169   6.919
 4290POPC   C4A56406  44.883  11.901   7.194
 4290POPC   C1B56407  44.899  12.323   6.138
 4290POPC   C2B56408   0.019  12.101   6.523
 4290POPC   C3B56409   0.123  12.251   6.930
 4290POPC   C4B56410   0.308  12.198   7.358
 4291POPC   NC356411  37.359  31.270   5.549
 4291POPC   PO456412  37.849  31.603   5.214
 4291POPC   GL156413  37.796  31.545   5.736
 4291POPC   GL256414  37.884  31.206   5.963
 4291POPC   C1A56415  37.506  31.470   6.134
 4291POPC   D2A56416  37.660  31.217   6.492
 4291POPC   C3A56417  37.532  31.361   6.905
 4291POPC   C4A56418  37.336  31.177   7.258
 4291POPC   C1B56419  38.009  31.515   6.240
 4291POPC   C2B56420  38.123  31.519   6.653
 4291POPC   C3B56421  38.033  31.421   7.070
 4291POPC   C4B56422  38.063  31.680   7.433
 4292POPC   NC356423   8.894  42.020   5.319
 4292POPC   PO456424   9.168  42.677   5.337
 4292POPC   GL156425   8.933  42.436   5.658
 4292POPC   GL256426   8.649  42.672   5.696
 4292POPC   C1A56427   8.889  42.264   6.101
 4292POPC   D2A56428   8.992  42.072   6.529
 4292POPC   C3A56429   8.901  42.274   6.927
 4292POPC   C4A56430   9.104  42.209   7.338
 4292POPC   C1B56431   8.929  42.771   6.074
 4292POPC   C2B56432   8.922  42.611   6.512
 4292POPC   C3B56433   9.154  42.755   6.905
 4292POPC   C4B56434   9.290  42.686   7.321
 4293POPC   NC356435  30.546   3.158   5.430
 4293POPC   PO456436  30.930   3.611   5.085
 4293POPC   GL156437  30.912   3.482   5.619
 4293POPC   GL256438  30.718   3.707   5.874
 4293POPC   C1A56439  30.920   3.305   6.098
 4293POPC   D2A56440  30.822   3.515   6.539
 4293POPC   C3A56441  30.935   3.335   6.995
 4293POPC   C4A56442  30.900   3.402   7.482
 4293POPC   C1B56443  30.419   3.400   6.108
 4293POPC   C2B56444  30.332   3.295   6.539
 4293POPC   C3B56445  30.441   3.446   6.957
 4293POPC   C4B56446  30.372   3.320   7.386
 4294POPC   NC356447  16.783  42.411   5.222
 4294POPC   PO456448  16.447  42.814   5.482
 4294POPC   GL156449  16.865  42.659   5.691
 4294POPC   GL256450  16.914  42.288   5.743
 4294POPC   C1A56451  16.964  42.575   6.172
 4294POPC   D2A56452  16.753  42.475   6.595
 4294POPC   C3A56453  16.858  42.707   6.983
 4294POPC   C4A56454  16.783  42.744   7.418
 4294POPC   C1B56455  16.916  42.057   6.181
 4294POPC   C2B56456  16.857  41.972   6.651
 4294POPC   C3B56457  16.791  42.105   7.110
 4294POPC   C4B56458  16.686  41.822   7.474
 4295POPC   NC356459  42.723  16.623   5.583
 4295POPC   PO456460  43.164  16.118   5.411
 4295POPC   GL156461  43.142  16.435   5.787
 4295POPC   GL256462  43.268  16.773   5.824
 4295POPC   C1A56463  42.993  16.633   6.224
 4295POPC   D2A56464  43.117  16.856   6.630
 4295POPC   C3A56465  42.824  16.765   6.986
 4295POPC   C4A56466  42.797  16.745   7.462
 4295POPC   C1B56467  43.481  16.796   6.222
 4295POPC   C2B56468  43.613  16.666   6.622
 4295POPC   C3B56469  43.444  16.680   7.012
 4295POPC   C4B56470  43.185  17.019   7.236
 4296POPC   NC356471  16.808   3.805   5.448
 4296POPC   PO456472  16.816   4.486   5.250
 4296POPC   GL156473  16.875   4.343   5.699
 4296POPC   GL256474  17.125   4.097   5.790
 4296POPC   C1A56475  16.985   4.502   6.132
 4296POPC   D2A56476  16.774   4.390   6.521
 4296POPC   C3A56477  16.819   4.601   6.918
 4296POPC   C4A56478  16.611   4.480   7.300
 4296POPC   C1B56479  16.795   4.017   6.121
 4296POPC   C2B56480  16.618   3.894   6.530
 4296POPC   C3B56481  16.692   4.082   6.975
 4296POPC   C4B56482  16.702   4.011   7.459
 4297POPC   NC356483  10.945  23.597   5.593
 4297POPC   PO456484  11.283  24.192   5.414
 4297POPC   GL156485  11.376  23.863   5.744
 4297POPC   GL256486  11.612  23.571   5.690
 4297POPC   C1A56487  11.206  23.726   6.175
 4297POPC   D2A56488  11.118  23.924   6.572
 4297POPC   C3A56489  11.101  23.649   6.926
 4297POPC   C4A56490  11.139  23.824   7.308
 4297POPC   C1B56491  11.714  23.705   6.125
 4297POPC   C2B56492  11.600  23.634   6.548
 4297POPC   C3B56493  11.711  23.510   6.956
 4297POPC   C4B56494  11.503  23.482   7.326
 4298POPC   NC356495  34.699  39.116   5.359
 4298POPC   PO456496  34.014  39.124   5.413
 4298POPC   GL156497  34.352  38.990   5.765
 4298POPC   GL256498  34.745  38.994   5.837
 4298POPC   C1A56499  34.431  39.248   6.152
 4298POPC   D2A56500  34.563  39.507   6.500
 4298POPC   C3A56501  34.427  39.340   6.922
 4298POPC   C4A56502  34.632  39.459   7.321
 4298POPC   C1B56503  34.640  38.789   6.211
 4298POPC   C2B56504  34.657  38.992   6.573
 4298POPC   C3B56505  34.655  38.846   6.964
 4298POPC   C4B56506  34.458  38.986   7.332
 4299POPC   NC356507  44.163  22.388   5.579
 4299POPC   PO456508  44.806  22.415   5.367
 4299POPC   GL156509  44.693  22.219   5.736
 4299POPC   GL256510  44.436  21.952   5.717
 4299POPC   C1A56511  44.912  22.019   6.073
 4299POPC   D2A56512  44.939  21.940   6.503
 4299POPC   C3A56513  44.710  22.218   6.726
 4299POPC   C4A56514  44.845  22.092   7.095
 4299POPC   C1B56515  44.282  21.790   6.107
 4299POPC   C2B56516  44.367  21.847   6.557
 4299POPC   C3B56517  44.322  22.020   6.994
 4299POPC   C4B56518  44.156  22.335   7.328
 4300POPC   NC356519  37.076   9.140   5.432
 4300POPC   PO456520  36.671   8.664   5.568
 4300POPC   GL156521  36.893   8.674   5.917
 4300POPC   GL256522  37.196   8.827   5.858
 4300POPC   C1A56523  36.873   8.929   6.291
 4300POPC   D2A56524  36.670   9.178   6.604
 4300POPC   C3A56525  36.681   8.993   7.030
 4300POPC   C4A56526  36.932   8.665   7.198
 4300POPC   C1B56527  37.377   9.039   6.248
 4300POPC   C2B56528  37.389   9.304   6.634
 4300POPC   C3B56529  37.152   9.226   7.000
 4300POPC   C4B56530  37.369   8.952   7.241
 4301POPC   NC356531   9.206  20.148   5.480
 4301POPC   PO456532   8.640  19.715   5.307
 4301POPC   GL156533   8.678  19.707   5.776
 4301POPC   GL256534   9.030  19.786   5.833
 4301POPC   C1A56535   8.730  19.579   6.234
 4301POPC   D2A56536   8.855  19.818   6.605
 4301POPC   C3A56537   8.708  19.807   7.046
 4301POPC   C4A56538   8.798  19.665   7.461
 4301POPC   C1B56539   9.260  19.985   6.168
 4301POPC   C2B56540   9.334  20.138   6.581
 4301POPC   C3B56541   9.198  19.996   6.977
 4301POPC   C4B56542   9.287  19.789   7.370
 4302POPC   NC356543  21.428   0.732   5.322
 4302POPC   PO456544  21.295   1.258   5.465
 4302POPC   GL156545  21.338   1.148   5.935
 4302POPC   GL256546  21.084   1.340   6.117
 4302POPC   C1A56547  21.205   0.901   6.334
 4302POPC   D2A56548  21.287   0.868   6.774
 4302POPC   C3A56549  21.412   1.239   7.011
 4302POPC   C4A56550  21.789   1.285   7.243
 4302POPC   C1B56551  21.387   1.341   6.496
 4302POPC   C2B56552  21.766   1.506   6.740
 4302POPC   C3B56553  21.602   1.724   7.076
 4302POPC   C4B56554  21.291   1.685   7.369
 4303POPC   NC356555  21.107  38.079   5.378
 4303POPC   PO456556  21.119  38.795   5.398
 4303POPC   GL156557  21.364  38.471   5.677
 4303POPC   GL256558  21.193  38.198   5.866
 4303POPC   C1A56559  21.616  38.351   6.078
 4303POPC   D2A56560  21.614  38.567   6.484
 4303POPC   C3A56561  21.469  38.397   6.867
 4303POPC   C4A56562  21.478  38.613   7.256
 4303POPC   C1B56563  21.145  38.492   6.229
 4303POPC   C2B56564  20.929  38.432   6.630
 4303POPC   C3B56565  20.990  38.425   7.087
 4303POPC   C4B56566  21.211  38.085   7.266
 4304POPC   NC356567  11.712  12.842   5.436
 4304POPC   PO456568  11.079  12.576   5.379
 4304POPC   GL156569  10.980  12.611   5.820
 4304POPC   GL256570  11.056  12.972   5.847
 4304POPC   C1A56571  10.974  12.707   6.288
 4304POPC   D2A56572  11.117  13.069   6.568
 4304POPC   C3A56573  11.058  12.973   7.018
 4304POPC   C4A56574  11.052  12.504   7.059
 4304POPC   C1B56575  11.429  12.729   6.057
 4304POPC   C2B56576  11.559  12.731   6.492
 4304POPC   C3B56577  11.587  12.939   6.882
 4304POPC   C4B56578  11.465  12.781   7.260
 4305POPC   NC356579  12.394  14.529   5.611
 4305POPC   PO456580  11.755  14.288   5.433
 4305POPC   GL156581  11.993  14.193   5.830
 4305POPC   GL256582  12.344  14.060   5.822
 4305POPC   C1A56583  12.112  14.427   6.223
 4305POPC   D2A56584  12.002  14.630   6.624
 4305POPC   C3A56585  12.235  14.526   7.009
 4305POPC   C4A56586  12.201  14.407   7.418
 4305POPC   C1B56587  12.308  13.953   6.245
 4305POPC   C2B56588  12.262  14.145   6.660
 4305POPC   C3B56589  12.283  14.021   7.095
 4305POPC   C4B56590  12.356  13.910   7.563
 4306POPC   NC356591  12.477  39.494   5.379
 4306POPC   PO456592  12.138  38.903   5.451
 4306POPC   GL156593  12.200  39.221   5.752
 4306POPC   GL256594  11.869  39.265   5.898
 4306POPC   C1A56595  12.324  39.354   6.174
 4306POPC   D2A56596  12.362  39.287   6.616
 4306POPC   C3A56597  12.002  39.265   6.873
 4306POPC   C4A56598  12.141  39.024   7.184
 4306POPC   C1B56599  11.888  39.144   6.344
 4306POPC   C2B56600  11.623  38.928   6.639
 4306POPC   C3B56601  11.551  39.056   7.056
 4306POPC   C4B56602  11.727  38.963   7.466
 4307POPC   NC356603   9.320   8.346   5.308
 4307POPC   PO456604   8.648   8.025   5.283
 4307POPC   GL156605   8.821   8.012   5.693
 4307POPC   GL256606   8.979   8.338   5.711
 4307POPC   C1A56607   8.808   8.077   6.149
 4307POPC   D2A56608   8.915   8.283   6.538
 4307POPC   C3A56609   8.924   8.056   6.890
 4307POPC   C4A56610   8.796   8.166   7.285
 4307POPC   C1B56611   9.286   8.244   6.067
 4307POPC   C2B56612   9.424   8.393   6.469
 4307POPC   C3B56613   9.400   8.269   6.892
 4307POPC   C4B56614   9.331   8.367   7.327
 4308POPC   NC356615  37.906  15.025   5.295
 4308POPC   PO456616  37.437  15.340   5.620
 4308POPC   GL156617  37.735  15.210   5.925
 4308POPC   GL256618  37.673  14.901   5.827
 4308POPC   C1A56619  37.621  15.165   6.391
 4308POPC   D2A56620  37.241  15.177   6.700
 4308POPC   C3A56621  37.374  15.143   7.158
 4308POPC   C4A56622  37.732  15.340   7.315
 4308POPC   C1B56623  37.955  14.776   6.144
 4308POPC   C2B56624  38.191  14.911   6.492
 4308POPC   C3B56625  37.973  14.962   6.887
 4308POPC   C4B56626  38.083  14.997   7.320
 4309POPC   NC356627  25.990  10.047   5.358
 4309POPC   PO456628  25.471   9.521   5.397
 4309POPC   GL156629  25.862   9.684   5.717
 4309POPC   GL256630  26.163   9.931   5.800
 4309POPC   C1A56631  26.062   9.576   6.143
 4309POPC   D2A56632  25.937   9.388   6.531
 4309POPC   C3A56633  26.003   9.558   6.951
 4309POPC   C4A56634  25.867   9.819   7.294
 4309POPC   C1B56635  26.356   9.994   6.227
 4309POPC   C2B56636  26.145  10.034   6.620
 4309POPC   C3B56637  26.205  10.125   7.049
 4309POPC   C4B56638  26.363   9.794   7.227
 4310POPC   NC356639  35.981   1.739   5.555
 4310POPC   PO456640  36.063   2.350   5.222
 4310POPC   GL156641  36.032   2.241   5.687
 4310POPC   GL256642  36.260   1.982   5.861
 4310POPC   C1A56643  35.857   2.141   6.114
 4310POPC   D2A56644  35.999   2.209   6.536
 4310POPC   C3A56645  36.065   1.805   6.745
 4310POPC   C4A56646  36.295   1.726   7.144
 4310POPC   C1B56647  36.419   2.158   6.180
 4310POPC   C2B56648  36.540   2.011   6.550
 4310POPC   C3B56649  36.380   2.168   6.905
 4310POPC   C4B56650  36.498   2.232   7.284
 4311POPC   NC356651  22.633  17.256   5.603
 4311POPC   PO456652  23.126  17.713   5.585
 4311POPC   GL156653  22.849  17.605   5.878
 4311POPC   GL256654  23.033  17.342   5.937
 4311POPC   C1A56655  22.602  17.447   6.238
 4311POPC   D2A56656  22.367  17.520   6.611
 4311POPC   C3A56657  22.672  17.404   6.904
 4311POPC   C4A56658  22.829  17.591   7.272
 4311POPC   C1B56659  23.124  17.641   6.293
 4311POPC   C2B56660  23.146  17.432   6.688
 4311POPC   C3B56661  23.170  17.259   7.096
 4311POPC   C4B56662  23.319  17.412   7.480
 4312POPC   NC356663  18.096   4.713   5.433
 4312POPC   PO456664  18.481   4.146   5.511
 4312POPC   GL156665  18.235   4.208   5.834
 4312POPC   GL256666  18.291   4.567   5.898
 4312POPC   C1A56667  18.432   4.099   6.204
 4312POPC   D2A56668  18.609   4.098   6.591
 4312POPC   C3A56669  18.321   4.336   6.788
 4312POPC   C4A56670  18.335   4.388   7.195
 4312POPC   C1B56671  18.367   4.637   6.337
 4312POPC   C2B56672  18.042   4.737   6.614
 4312POPC   C3B56673  17.938   4.716   7.037
 4312POPC   C4B56674  18.011   4.659   7.476
 4313POPC   NC356675  37.554  19.371   5.381
 4313POPC   PO456676  37.663  18.730   5.422
 4313POPC   GL156677  37.393  19.007   5.729
 4313POPC   GL256678  37.422  19.385   5.864
 4313POPC   C1A56679  37.234  19.019   6.165
 4313POPC   D2A56680  37.475  18.985   6.532
 4313POPC   C3A56681  37.439  18.850   6.942
 4313POPC   C4A56682  37.684  18.941   7.334
 4313POPC   C1B56683  37.451  19.467   6.319
 4313POPC   C2B56684  37.458  19.443   6.797
 4313POPC   C3B56685  37.709  19.427   7.180
 4313POPC   C4B56686  37.735  19.369   7.644
 4314POPC   NC356687  34.973   2.154   5.696
 4314POPC   PO456688  35.561   1.934   5.535
 4314POPC   GL156689  35.402   1.937   5.903
 4314POPC   GL256690  35.151   1.721   5.952
 4314POPC   C1A56691  35.385   2.065   6.299
 4314POPC   D2A56692  35.349   1.972   6.702
 4314POPC   C3A56693  35.656   2.152   6.920
 4314POPC   C4A56694  35.790   1.860   7.167
 4314POPC   C1B56695  34.948   1.819   6.335
 4314POPC   C2B56696  34.931   2.238   6.570
 4314POPC   C3B56697  35.107   2.386   6.960
 4314POPC   C4B56698  35.244   2.041   7.210
 4315POPC   NC356699  13.270  35.467   5.507
 4315POPC   PO456700  13.864  35.526   5.526
 4315POPC   GL156701  13.627  35.345   5.865
 4315POPC   GL256702  13.691  34.990   5.830
 4315POPC   C1A56703  13.559  35.409   6.294
 4315POPC   D2A56704  13.317  35.308   6.634
 4315POPC   C3A56705  13.465  35.396   7.001
 4315POPC   C4A56706  13.565  35.265   7.359
 4315POPC   C1B56707  13.787  34.919   6.282
 4315POPC   C2B56708  13.788  35.123   6.702
 4315POPC   C3B56709  13.992  35.312   7.079
 4315POPC   C4B56710  14.253  35.674   7.282
 4316POPC   NC356711  28.190  16.766   5.413
 4316POPC   PO456712  28.814  16.860   5.261
 4316POPC   GL156713  28.645  16.921   5.681
 4316POPC   GL256714  28.604  16.570   5.731
 4316POPC   C1A56715  28.433  16.891   6.113
 4316POPC   D2A56716  28.541  16.691   6.513
 4316POPC   C3A56717  28.358  16.797   6.894
 4316POPC   C4A56718  28.506  16.969   7.289
 4316POPC   C1B56719  28.340  16.401   6.083
 4316POPC   C2B56720  28.304  16.237   6.509
 4316POPC   C3B56721  28.533  16.291   6.867
 4316POPC   C4B56722  28.465  16.439   7.263
 4317POPC   NC356723   3.585  39.460   5.062
 4317POPC   PO456724   3.467  40.066   5.346
 4317POPC   GL156725   3.626  40.192   5.729
 4317POPC   GL256726   3.976  40.309   5.735
 4317POPC   C1A56727   3.513  40.041   6.127
 4317POPC   D2A56728   3.683  39.892   6.510
 4317POPC   C3A56729   3.468  39.842   6.905
 4317POPC   C4A56730   3.394  39.602   7.282
 4317POPC   C1B56731   4.012  40.174   6.188
 4317POPC   C2B56732   3.992  40.250   6.647
 4317POPC   C3B56733   3.923  40.091   7.076
 4317POPC   C4B56734   3.804  40.322   7.445
 4318POPC   NC356735  12.816  27.966   5.550
 4318POPC   PO456736  12.790  28.500   5.141
 4318POPC   GL156737  12.653  28.467   5.631
 4318POPC   GL256738  12.941  28.436   5.876
 4318POPC   C1A56739  12.511  28.595   6.100
 4318POPC   D2A56740  12.463  28.477   6.569
 4318POPC   C3A56741  12.779  28.446   6.947
 4318POPC   C4A56742  12.648  28.309   7.388
 4318POPC   C1B56743  12.836  28.213   6.239
 4318POPC   C2B56744  12.753  28.011   6.622
 4318POPC   C3B56745  13.031  27.996   6.960
 4318POPC   C4B56746  13.139  28.209   7.329
 4319POPC   NC356747  30.248  13.845   5.386
 4319POPC   PO456748  29.798  13.320   5.439
 4319POPC   GL156749  29.838  13.489   5.844
 4319POPC   GL256750  29.689  13.818   5.811
 4319POPC   C1A56751  29.886  13.394   6.298
 4319POPC   D2A56752  30.031  13.377   6.774
 4319POPC   C3A56753  29.720  13.329   7.097
 4319POPC   C4A56754  29.726  13.303   7.558
 4319POPC   C1B56755  30.063  13.856   6.105
 4319POPC   C2B56756  30.006  13.836   6.542
 4319POPC   C3B56757  29.772  13.804   6.902
 4319POPC   C4B56758  29.981  13.867   7.273
 4320POPC   NC356759  12.448   1.720   5.318
 4320POPC   PO456760  12.855   2.182   5.002
 4320POPC   GL156761  12.852   2.151   5.542
 4320POPC   GL256762  12.834   1.819   5.729
 4320POPC   C1A56763  12.858   2.205   6.056
 4320POPC   D2A56764  12.929   1.922   6.445
 4320POPC   C3A56765  12.948   2.058   6.877
 4320POPC   C4A56766  13.166   2.075   7.259
 4320POPC   C1B56767  12.575   1.770   6.124
 4320POPC   C2B56768  12.403   1.732   6.577
 4320POPC   C3B56769  12.461   1.762   7.036
 4320POPC   C4B56770  12.594   1.764   7.491
 4321POPC   NC356771  10.709  25.931   5.393
 4321POPC   PO456772  10.259  26.375   5.358
 4321POPC   GL156773  10.237  25.932   5.590
 4321POPC   GL256774  10.487  26.072   5.830
 4321POPC   C1A56775  10.134  25.774   6.046
 4321POPC   D2A56776  10.383  25.870   6.401
 4321POPC   C3A56777  10.316  25.886   6.845
 4321POPC   C4A56778  10.356  25.893   7.294
 4321POPC   C1B56779  10.696  26.237   6.194
 4321POPC   C2B56780  10.581  26.294   6.627
 4321POPC   C3B56781  10.732  26.185   7.033
 4321POPC   C4B56782  10.599  26.328   7.416
 4322POPC   NC356783   6.230  40.096   5.535
 4322POPC   PO456784   6.845  39.651   5.466
 4322POPC   GL156785   6.788  39.895   5.860
 4322POPC   GL256786   6.427  39.844   5.918
 4322POPC   C1A56787   6.805  40.096   6.282
 4322POPC   D2A56788   6.517  40.295   6.584
 4322POPC   C3A56789   6.490  40.192   7.029
 4322POPC   C4A56790   6.861  39.994   7.224
 4322POPC   C1B56791   6.479  39.723   6.334
 4322POPC   C2B56792   6.674  39.783   6.725
 4322POPC   C3B56793   6.478  39.680   7.103
 4322POPC   C4B56794   6.412  39.852   7.508
 4323POPC   NC356795  20.457   5.736   5.467
 4323POPC   PO456796  20.472   6.344   5.594
 4323POPC   GL156797  20.700   6.090   5.940
 4323POPC   GL256798  20.800   5.751   5.860
 4323POPC   C1A56799  20.829   5.838   6.368
 4323POPC   D2A56800  20.832   5.787   6.842
 4323POPC   C3A56801  20.520   6.041   7.102
 4323POPC   C4A56802  20.617   6.317   7.451
 4323POPC   C1B56803  20.536   5.486   6.123
 4323POPC   C2B56804  20.539   5.336   6.523
 4323POPC   C3B56805  20.496   5.416   6.949
 4323POPC   C4B56806  20.662   5.599   7.322
 4324POPC   NC356807  19.934   0.060   5.416
 4324POPC   PO456808  19.689   0.657   5.564
 4324POPC   GL156809  19.684   0.304   5.860
 4324POPC   GL256810  19.888   0.486   6.118
 4324POPC   C1A56811  19.577   0.148   6.305
 4324POPC   D2A56812  19.707  44.970   6.722
 4324POPC   C3A56813  19.882   0.268   7.022
 4324POPC   C4A56814  19.860   0.444   7.421
 4324POPC   C1B56815  20.107   0.237   6.485
 4324POPC   C2B56816  20.359   0.194   6.903
 4324POPC   C3B56817  20.350   0.411   7.305
 4324POPC   C4B56818  20.229   0.661   7.698
 4325POPC   NC356819  34.194  24.368   5.434
 4325POPC   PO456820  34.602  24.842   5.225
 4325POPC   GL156821  34.460  24.714   5.712
 4325POPC   GL256822  34.712  24.546   5.931
 4325POPC   C1A56823  34.323  24.634   6.205
 4325POPC   D2A56824  34.665  24.600   6.545
 4325POPC   C3A56825  34.522  24.671   6.976
 4325POPC   C4A56826  34.352  24.369   7.266
 4325POPC   C1B56827  34.890  24.203   6.193
 4325POPC   C2B56828  34.867  24.078   6.635
 4325POPC   C3B56829  34.846  24.276   7.062
 4325POPC   C4B56830  34.789  24.410   7.508
 4326POPC   NC356831  31.260  22.238   5.509
 4326POPC   PO456832  31.849  22.022   5.509
 4326POPC   GL156833  31.571  22.072   5.858
 4326POPC   GL256834  31.619  22.433   5.866
 4326POPC   C1A56835  31.307  22.222   6.200
 4326POPC   D2A56836  31.423  22.101   6.575
 4326POPC   C3A56837  31.257  22.209   6.932
 4326POPC   C4A56838  31.345  22.054   7.352
 4326POPC   C1B56839  31.672  22.618   6.291
 4326POPC   C2B56840  31.647  22.515   6.756
 4326POPC   C3B56841  31.588  22.485   7.201
 4326POPC   C4B56842  31.793  22.567   7.565
 4327POPC   NC356843  28.314   4.178   5.391
 4327POPC   PO456844  28.290   4.775   5.119
 4327POPC   GL156845  28.258   4.604   5.665
 4327POPC   GL256846  28.571   4.471   5.877
 4327POPC   C1A56847  28.131   4.409   6.102
 4327POPC   D2A56848  28.428   4.294   6.412
 4327POPC   C3A56849  28.322   4.380   6.823
 4327POPC   C4A56850  28.145   4.282   7.212
 4327POPC   C1B56851  28.893   4.310   6.218
 4327POPC   C2B56852  28.875   3.900   6.395
 4327POPC   C3B56853  28.649   3.952   6.738
 4327POPC   C4B56854  28.677   4.180   7.126
 4328POPC   NC356855   3.761  24.860   5.426
 4328POPC   PO456856   3.583  25.447   5.166
 4328POPC   GL156857   3.479  25.315   5.624
 4328POPC   GL256858   3.673  25.071   5.870
 4328POPC   C1A56859   3.349  25.409   6.073
 4328POPC   D2A56860   3.323  25.280   6.510
 4328POPC   C3A56861   3.313  25.526   6.862
 4328POPC   C4A56862   3.324  25.403   7.276
 4328POPC   C1B56863   3.807  25.128   6.278
 4328POPC   C2B56864   3.896  25.224   6.703
 4328POPC   C3B56865   3.800  25.413   7.089
 4328POPC   C4B56866   3.793  25.166   7.463
 4329POPC   NC356867  16.788  32.633   5.387
 4329POPC   PO456868  16.358  32.649   5.941
 4329POPC   GL156869  16.575  32.277   6.037
 4329POPC   GL256870  16.928  32.329   5.918
 4329POPC   C1A56871  16.629  32.078   6.435
 4329POPC   D2A56872  16.957  32.205   6.718
 4329POPC   C3A56873  16.791  32.407   7.094
 4329POPC   C4A56874  16.528  32.202   7.452
 4329POPC   C1B56875  17.085  31.969   6.214
 4329POPC   C2B56876  16.996  31.706   6.615
 4329POPC   C3B56877  17.060  31.836   7.075
 4329POPC   C4B56878  17.022  32.132   7.428
 4330POPC   NC356879  35.043  40.055   5.356
 4330POPC   PO456880  35.561  39.730   5.491
 4330POPC   GL156881  35.619  40.042   5.801
 4330POPC   GL256882  35.310  40.166   5.801
 4330POPC   C1A56883  35.647  40.175   6.249
 4330POPC   D2A56884  35.386  40.162   6.631
 4330POPC   C3A56885  35.498  40.064   7.053
 4330POPC   C4A56886  35.556  39.632   7.224
 4330POPC   C1B56887  35.249  39.856   6.122
 4330POPC   C2B56888  35.047  39.814   6.488
 4330POPC   C3B56889  35.202  39.699   6.860
 4330POPC   C4B56890  35.097  39.833   7.268
 4331POPC   NC356891  44.487   8.403   5.317
 4331POPC   PO456892  44.427   7.789   5.666
 4331POPC   GL156893  44.665   8.131   5.831
 4331POPC   GL256894  44.788   8.494   5.757
 4331POPC   C1A56895  44.539   8.216   6.267
 4331POPC   D2A56896  44.450   7.962   6.631
 4331POPC   C3A56897  44.820   7.765   6.821
 4331POPC   C4A56898  44.799   7.855   7.246
 4331POPC   C1B56899   0.012   8.339   6.124
 4331POPC   C2B56900  44.990   8.186   6.531
 4331POPC   C3B56901  44.843   8.274   6.940
 4331POPC   C4B56902   0.062   8.286   7.311
 4332POPC   NC356903   8.991   4.559   5.323
 4332POPC   PO456904   9.370   4.047   5.341
 4332POPC   GL156905   9.191   4.248   5.676
 4332POPC   GL256906   8.890   4.124   5.777
 4332POPC   C1A56907   9.183   4.525   6.041
 4332POPC   D2A56908   9.356   4.573   6.477
 4332POPC   C3A56909   9.122   4.374   6.862
 4332POPC   C4A56910   8.686   4.366   7.042
 4332POPC   C1B56911   9.182   3.990   6.114
 4332POPC   C2B56912   9.349   4.015   6.540
 4332POPC   C3B56913   9.232   3.866   6.965
 4332POPC   C4B56914   9.012   4.064   7.319
 4333POPC   NC356915  32.427   5.645   5.478
 4333POPC   PO456916  32.109   6.296   5.428
 4333POPC   GL156917  32.255   6.041   5.762
 4333POPC   GL256918  32.095   5.733   5.915
 4333POPC   C1A56919  32.369   6.067   6.166
 4333POPC   D2A56920  32.289   5.823   6.517
 4333POPC   C3A56921  32.370   6.021   6.886
 4333POPC   C4A56922  32.085   6.083   7.207
 4333POPC   C1B56923  32.509   5.583   6.118
 4333POPC   C2B56924  32.670   5.469   6.529
 4333POPC   C3B56925  32.414   5.455   6.877
 4333POPC   C4B56926  32.407   5.666   7.256
 4334POPC   NC356927   0.974   4.015   5.691
 4334POPC   PO456928   1.141   3.346   5.493
 4334POPC   GL156929   0.998   3.514   5.833
 4334POPC   GL256930   0.729   3.253   5.841
 4334POPC   C1A56931   1.217   3.673   6.231
 4334POPC   D2A56932   1.291   3.931   6.612
 4334POPC   C3A56933   1.240   3.739   6.973
 4334POPC   C4A56934   1.611   3.616   7.115
 4334POPC   C1B56935   0.998   3.178   6.209
 4334POPC   C2B56936   1.113   3.254   6.627
 4334POPC   C3B56937   0.892   3.364   6.998
 4334POPC   C4B56938   1.218   3.308   7.269
 4335POPC   NC356939  12.075  15.438   5.426
 4335POPC   PO456940  12.410  14.958   5.755
 4335POPC   GL156941  12.325  15.266   6.028
 4335POPC   GL256942  11.965  15.297   5.910
 4335POPC   C1A56943  12.632  15.148   6.345
 4335POPC   D2A56944  12.493  14.825   6.662
 4335POPC   C3A56945  12.261  15.024   7.007
 4335POPC   C4A56946  12.389  15.363   7.255
 4335POPC   C1B56947  11.824  15.533   6.240
 4335POPC   C2B56948  11.856  15.626   6.644
 4335POPC   C3B56949  11.838  15.335   6.963
 4335POPC   C4B56950  11.896  15.346   7.389
 4336POPC   NC356951   0.524  12.711   5.531
 4336POPC   PO456952  44.915  13.052   5.632
 4336POPC   GL156953   0.142  12.820   5.887
 4336POPC   GL256954   0.450  13.024   5.924
 4336POPC   C1A56955   0.187  12.739   6.321
 4336POPC   D2A56956   0.440  12.472   6.540
 4336POPC   C3A56957   0.526  12.538   6.958
 4336POPC   C4A56958   0.426  12.719   7.306
 4336POPC   C1B56959   0.710  12.905   6.268
 4336POPC   C2B56960   0.635  12.972   6.678
 4336POPC   C3B56961   0.463  13.125   7.033
 4336POPC   C4B56962   0.694  13.174   7.440
 4337POPC   NC356963   7.053  23.464   5.387
 4337POPC   PO456964   7.688  23.802   5.605
 4337POPC   GL156965   7.395  23.550   5.771
 4337POPC   GL256966   7.069  23.696   5.844
 4337POPC   C1A56967   7.358  23.433   6.178
 4337POPC   D2A56968   7.331  23.649   6.536
 4337POPC   C3A56969   7.593  23.550   6.819
 4337POPC   C4A56970   7.508  23.630   7.173
 4337POPC   C1B56971   7.268  23.961   6.118
 4337POPC   C2B56972   7.244  24.153   6.503
 4337POPC   C3B56973   7.295  24.041   6.922
 4337POPC   C4B56974   7.134  23.944   7.318
 4338POPC   NC356975  30.458  29.379   5.551
 4338POPC   PO456976  30.903  29.924   5.547
 4338POPC   GL156977  30.590  29.848   5.894
 4338POPC   GL256978  30.381  30.134   5.850
 4338POPC   C1A56979  30.561  29.621   6.332
 4338POPC   D2A56980  30.736  29.535   6.783
 4338POPC   C3A56981  30.942  29.881   7.005
 4338POPC   C4A56982  30.894  29.918   7.474
 4338POPC   C1B56983  30.349  30.098   6.292
 4338POPC   C2B56984  30.541  30.011   6.693
 4338POPC   C3B56985  30.480  30.021   7.127
 4338POPC   C4B56986  30.272  30.325   7.295
 4339POPC   NC356987  29.984  35.335   5.330
 4339POPC   PO456988  29.530  35.694   5.659
 4339POPC   GL156989  29.806  35.332   5.830
 4339POPC   GL256990  30.197  35.323   5.806
 4339POPC   C1A56991  29.923  35.379   6.262
 4339POPC   D2A56992  29.740  35.455   6.671
 4339POPC   C3A56993  29.946  35.565   7.042
 4339POPC   C4A56994  29.854  35.544   7.480
 4339POPC   C1B56995  30.337  35.117   6.185
 4339POPC   C2B56996  30.161  35.102   6.624
 4339POPC   C3B56997  30.289  35.175   7.073
 4339POPC   C4B56998  30.202  34.991   7.503
 4340POPC   NC356999  44.812  10.195   5.153
 4340POPC   PO457000  44.651  10.812   5.374
 4340POPC   GL157001  44.635  10.525   5.731
 4340POPC   GL257002  44.887  10.729   5.872
 4340POPC   C1A57003  44.669  10.322   6.172
 4340POPC   D2A57004  44.917  10.344   6.565
 4340POPC   C3A57005  44.740  10.279   6.978
 4340POPC   C4A57006  44.796  10.348   7.415
 4340POPC   C1B57007  44.792  10.895   6.270
 4340POPC   C2B57008   0.057  10.848   6.627
 4340POPC   C3B57009  44.998  10.734   7.049
 4340POPC   C4B57010  44.891  10.823   7.491
 4341POPC   NC357011  21.625  19.420   5.393
 4341POPC   PO457012  21.176  18.957   5.501
 4341POPC   GL157013  21.458  19.098   5.777
 4341POPC   GL257014  21.250  19.388   5.836
 4341POPC   C1A57015  21.417  19.060   6.216
 4341POPC   D2A57016  21.193  19.230   6.572
 4341POPC   C3A57017  21.366  19.111   6.986
 4341POPC   C4A57018  21.131  18.900   7.325
 4341POPC   C1B57019  21.613  19.529   6.104
 4341POPC   C2B57020  21.699  19.393   6.541
 4341POPC   C3B57021  21.658  19.542   6.948
 4341POPC   C4B57022  21.880  19.429   7.315
 4342POPC   NC357023   3.005  27.807   5.492
 4342POPC   PO457024   2.899  27.096   5.327
 4342POPC   GL157025   2.825  27.358   5.793
 4342POPC   GL257026   2.859  27.711   5.982
 4342POPC   C1A57027   2.741  27.351   6.288
 4342POPC   D2A57028   2.877  27.641   6.604
 4342POPC   C3A57029   2.826  27.572   7.043
 4342POPC   C4A57030   2.499  27.795   7.246
 4342POPC   C1B57031   2.566  27.915   6.312
 4342POPC   C2B57032   2.614  28.053   6.748
 4342POPC   C3B57033   2.999  28.068   6.925
 4342POPC   C4B57034   3.209  28.226   7.273
 4343POPC   NC357035  23.262  30.727   5.429
 4343POPC   PO457036  22.693  30.894   5.514
 4343POPC   GL157037  22.813  30.629   5.852
 4343POPC   GL257038  23.148  30.694   5.914
 4343POPC   C1A57039  22.853  30.664   6.318
 4343POPC   D2A57040  22.643  30.795   6.661
 4343POPC   C3A57041  22.615  30.481   6.928
 4343POPC   C4A57042  22.834  30.480   7.306
 4343POPC   C1B57043  23.353  31.038   6.135
 4343POPC   C2B57044  23.472  31.007   6.569
 4343POPC   C3B57045  23.241  30.952   6.955
 4343POPC   C4B57046  23.155  31.247   7.241
 4344POPC   NC357047  19.715  14.017   5.260
 4344POPC   PO457048  19.946  14.665   5.390
 4344POPC   GL157049  19.935  14.313   5.652
 4344POPC   GL257050  19.614  14.215   5.717
 4344POPC   C1A57051  19.928  14.285   6.112
 4344POPC   D2A57052  20.106  14.497   6.482
 4344POPC   C3A57053  19.814  14.451   6.820
 4344POPC   C4A57054  20.058  14.276   7.158
 4344POPC   C1B57055  19.449  13.996   6.103
 4344POPC   C2B57056  19.516  14.056   6.561
 4344POPC   C3B57057  19.617  14.022   7.016
 4344POPC   C4B57058  19.476  14.352   7.341
 4345POPC   NC357059   8.477  15.893   5.304
 4345POPC   PO457060   8.847  16.408   5.096
 4345POPC   GL157061   8.549  16.306   5.566
 4345POPC   GL257062   8.617  15.972   5.793
 4345POPC   C1A57063   8.391  16.343   6.043
 4345POPC   D2A57064   8.054  16.266   6.354
 4345POPC   C3A57065   8.223  16.242   6.764
 4345POPC   C4A57066   8.329  16.173   7.188
 4345POPC   C1B57067   8.242  15.842   6.090
 4345POPC   C2B57068   8.046  15.775   6.527
 4345POPC   C3B57069   8.194  15.740   6.955
 4345POPC   C4B57070   8.497  15.675   7.296
 4346POPC   NC357071  25.793   5.482   5.699
 4346POPC   PO457072  26.270   5.874   5.446
 4346POPC   GL157073  26.109   5.948   5.827
 4346POPC   GL257074  26.421   6.128   5.876
 4346POPC   C1A57075  25.925   5.882   6.245
 4346POPC   D2A57076  26.099   5.967   6.657
 4346POPC   C3A57077  25.898   5.896   7.026
 4346POPC   C4A57078  25.964   5.684   7.396
 4346POPC   C1B57079  26.310   6.213   6.267
 4346POPC   C2B57080  26.246   6.495   6.586
 4346POPC   C3B57081  26.196   6.374   6.966
 4346POPC   C4B57082  26.313   6.108   7.254
 4347POPC   NC357083   2.296   2.109   5.417
 4347POPC   PO457084   1.741   1.801   5.423
 4347POPC   GL157085   2.010   1.877   5.792
 4347POPC   GL257086   1.849   2.199   5.841
 4347POPC   C1A57087   2.282   1.986   6.166
 4347POPC   D2A57088   2.566   1.899   6.527
 4347POPC   C3A57089   2.317   1.988   6.890
 4347POPC   C4A57090   1.932   1.981   7.109
 4347POPC   C1B57091   1.737   1.959   6.211
 4347POPC   C2B57092   1.909   2.062   6.585
 4347POPC   C3B57093   1.799   2.409   6.849
 4347POPC   C4B57094   1.829   2.444   7.301
 4348POPC   NC357095  25.119  17.442   5.361
 4348POPC   PO457096  25.654  16.922   5.327
 4348POPC   GL157097  25.491  17.151   5.719
 4348POPC   GL257098  25.512  17.511   5.757
 4348POPC   C1A57099  25.167  17.241   6.062
 4348POPC   D2A57100  25.054  17.401   6.444
 4348POPC   C3A57101  25.091  17.472   6.874
 4348POPC   C4A57102  25.427  17.579   7.137
 4348POPC   C1B57103  25.424  17.673   6.181
 4348POPC   C2B57104  25.399  17.799   6.621
 4348POPC   C3B57105  25.292  18.040   6.999
 4348POPC   C4B57106  25.258  17.932   7.472
 4349POPC   NC357107  12.557  34.024   5.297
 4349POPC   PO457108  12.944  33.507   5.321
 4349POPC   GL157109  12.909  33.799   5.706
 4349POPC   GL257110  12.594  33.965   5.795
 4349POPC   C1A57111  12.905  33.623   6.141
 4349POPC   D2A57112  13.085  33.381   6.501
 4349POPC   C3A57113  12.942  33.597   6.845
 4349POPC   C4A57114  12.848  33.740   7.229
 4349POPC   C1B57115  12.757  34.109   6.166
 4349POPC   C2B57116  12.732  33.956   6.547
 4349POPC   C3B57117  12.668  34.115   6.911
 4349POPC   C4B57118  12.651  34.196   7.320
 4350POPC   NC357119  30.676   1.753   5.036
 4350POPC   PO457120  31.066   2.223   5.309
 4350POPC   GL157121  30.787   1.950   5.570
 4350POPC   GL257122  31.069   1.954   5.788
 4350POPC   C1A57123  30.604   1.944   6.018
 4350POPC   D2A57124  30.767   2.026   6.465
 4350POPC   C3A57125  30.606   1.992   6.886
 4350POPC   C4A57126  30.266   2.072   7.165
 4350POPC   C1B57127  31.083   1.760   6.190
 4350POPC   C2B57128  31.097   1.697   6.659
 4350POPC   C3B57129  31.089   1.932   7.077
 4350POPC   C4B57130  30.961   1.991   7.539
 4351POPC   NC357131  22.436   3.048   5.435
 4351POPC   PO457132  22.007   2.595   5.466
 4351POPC   GL157133  22.126   2.809   5.818
 4351POPC   GL257134  22.467   2.753   5.880
 4351POPC   C1A57135  22.128   2.839   6.255
 4351POPC   D2A57136  22.228   3.019   6.648
 4351POPC   C3A57137  22.121   2.827   6.994
 4351POPC   C4A57138  22.317   2.758   7.382
 4351POPC   C1B57139  22.463   2.469   6.257
 4351POPC   C2B57140  22.229   2.457   6.655
 4351POPC   C3B57141  22.320   2.368   7.071
 4351POPC   C4B57142  22.594   2.272   7.413
 4352POPC   NC357143  22.288  33.109   5.447
 4352POPC   PO457144  22.596  32.597   5.817
 4352POPC   GL157145  22.232  32.918   5.928
 4352POPC   GL257146  21.886  32.915   5.733
 4352POPC   C1A57147  22.097  33.250   6.241
 4352POPC   D2A57148  22.288  33.423   6.657
 4352POPC   C3A57149  22.088  33.184   6.995
 4352POPC   C4A57150  22.337  32.855   7.219
 4352POPC   C1B57151  21.729  32.827   6.149
 4352POPC   C2B57152  21.913  32.832   6.555
 4352POPC   C3B57153  21.929  32.647   6.948
 4352POPC   C4B57154  21.836  32.837   7.321
 4353POPC   NC357155  26.191  10.762   5.368
 4353POPC   PO457156  25.840  10.396   5.083
 4353POPC   GL157157  25.901  10.498   5.668
 4353POPC   GL257158  26.149  10.682   5.880
 4353POPC   C1A57159  25.911  10.255   6.085
 4353POPC   D2A57160  25.803  10.371   6.463
 4353POPC   C3A57161  25.741  10.261   6.878
 4353POPC   C4A57162  25.566  10.206   7.253
 4353POPC   C1B57163  26.284  10.525   6.303
 4353POPC   C2B57164  26.179  10.547   6.756
 4353POPC   C3B57165  26.011  10.611   7.160
 4353POPC   C4B57166  26.289  10.660   7.508
 4354POPC   NC357167  41.312  25.208   5.115
 4354POPC   PO457168  40.701  25.155   5.238
 4354POPC   GL157169  40.778  25.228   5.708
 4354POPC   GL257170  41.003  24.965   5.777
 4354POPC   C1A57171  40.653  25.475   6.127
 4354POPC   D2A57172  40.499  25.370   6.574
 4354POPC   C3A57173  40.428  25.590   6.992
 4354POPC   C4A57174  40.446  25.397   7.424
 4354POPC   C1B57175  40.936  25.047   6.219
 4354POPC   C2B57176  40.942  25.076   6.676
 4354POPC   C3B57177  40.756  25.211   7.075
 4354POPC   C4B57178  40.899  25.173   7.527
 4355POPC   NC357179  25.375  21.847   5.052
 4355POPC   PO457180  24.824  22.130   5.353
 4355POPC   GL157181  25.084  22.098   5.765
 4355POPC   GL257182  25.387  21.918   5.784
 4355POPC   C1A57183  25.332  22.294   6.143
 4355POPC   D2A57184  25.407  22.541   6.528
 4355POPC   C3A57185  25.400  22.319   6.906
 4355POPC   C4A57186  25.418  22.469   7.280
 4355POPC   C1B57187  25.595  21.858   6.184
 4355POPC   C2B57188  25.417  21.943   6.557
 4355POPC   C3B57189  25.480  21.821   6.976
 4355POPC   C4B57190  25.252  21.967   7.303
 4356POPC   NC357191  18.022  43.479   5.350
 4356POPC   PO457192  18.218  44.186   5.301
 4356POPC   GL157193  18.212  43.862   5.694
 4356POPC   GL257194  18.244  44.178   5.826
 4356POPC   C1A57195  18.428  43.808   6.155
 4356POPC   D2A57196  18.470  43.942   6.643
 4356POPC   C3A57197  18.390  43.822   7.128
 4356POPC   C4A57198  18.483  44.133   7.483
 4356POPC   C1B57199  17.963  44.139   6.177
 4356POPC   C2B57200  17.740  44.175   6.560
 4356POPC   C3B57201  17.974  44.028   6.894
 4356POPC   C4B57202  18.000  44.137   7.316
 4357POPC   NC357203  23.153  37.661   5.615
 4357POPC   PO457204  22.485  38.011   5.483
 4357POPC   GL157205  22.715  37.813   5.779
 4357POPC   GL257206  22.717  37.437   5.782
 4357POPC   C1A57207  22.932  37.835   6.184
 4357POPC   D2A57208  23.214  37.933   6.501
 4357POPC   C3A57209  23.033  37.870   6.910
 4357POPC   C4A57210  23.086  37.766   7.323
 4357POPC   C1B57211  22.933  37.276   6.164
 4357POPC   C2B57212  23.151  37.341   6.550
 4357POPC   C3B57213  22.972  37.341   6.975
 4357POPC   C4B57214  23.156  37.253   7.362
 4358POPC   NC357215   9.098  17.659   5.540
 4358POPC   PO457216   8.859  17.084   5.413
 4358POPC   GL157217   8.875  17.198   5.826
 4358POPC   GL257218   8.607  17.443   5.781
 4358POPC   C1A57219   9.016  17.442   6.185
 4358POPC   D2A57220   8.947  17.822   6.422
 4358POPC   C3A57221   9.192  17.744   6.799
 4358POPC   C4A57222   9.236  17.744   7.238
 4358POPC   C1B57223   8.523  17.585   6.198
 4358POPC   C2B57224   8.652  17.486   6.638
 4358POPC   C3B57225   8.748  17.584   7.053
 4358POPC   C4B57226   8.433  17.460   7.302
 4359POPC   NC357227  29.389  10.374   5.379
 4359POPC   PO457228  28.975  10.912   5.317
 4359POPC   GL157229  29.076  10.661   5.675
 4359POPC   GL257230  28.786  10.579   5.819
 4359POPC   C1A57231  29.363  10.506   6.010
 4359POPC   D2A57232  29.349  10.563   6.446
 4359POPC   C3A57233  29.348  10.665   6.870
 4359POPC   C4A57234  29.440  10.390   7.222
 4359POPC   C1B57235  28.867  10.504   6.253
 4359POPC   C2B57236  28.865  10.527   6.712
 4359POPC   C3B57237  28.900  10.792   7.095
 4359POPC   C4B57238  28.611  10.827   7.432
 4360POPC   NC357239  12.188  13.162   5.456
 4360POPC   PO457240  12.527  13.660   5.504
 4360POPC   GL157241  12.272  13.540   5.819
 4360POPC   GL257242  11.980  13.667   5.780
 4360POPC   C1A57243  12.200  13.441   6.248
 4360POPC   D2A57244  12.267  13.621   6.661
 4360POPC   C3A57245  11.898  13.753   6.843
 4360POPC   C4A57246  11.828  13.863   7.259
 4360POPC   C1B57247  11.821  13.813   6.166
 4360POPC   C2B57248  11.765  14.135   6.476
 4360POPC   C3B57249  11.801  14.250   6.911
 4360POPC   C4B57250  11.717  14.386   7.300
 4361POPC   NC357251  24.773  42.608   5.577
 4361POPC   PO457252  24.268  42.351   5.257
 4361POPC   GL157253  24.403  42.152   5.680
 4361POPC   GL257254  24.749  42.025   5.803
 4361POPC   C1A57255  24.436  42.275   6.128
 4361POPC   D2A57256  24.601  42.260   6.572
 4361POPC   C3A57257  24.447  42.555   6.893
 4361POPC   C4A57258  24.537  42.524   7.338
 4361POPC   C1B57259  24.929  42.035   6.240
 4361POPC   C2B57260  25.077  42.086   6.663
 4361POPC   C3B57261  24.869  42.271   7.024
 4361POPC   C4B57262  24.879  42.023   7.390
 4362POPC   NC357263  33.313  13.836   5.417
 4362POPC   PO457264  32.901  13.328   5.383
 4362POPC   GL157265  32.843  13.614   5.720
 4362POPC   GL257266  33.130  13.816   5.884
 4362POPC   C1A57267  32.724  13.614   6.132
 4362POPC   D2A57268  33.008  13.687   6.448
 4362POPC   C3A57269  32.862  13.614   6.845
 4362POPC   C4A57270  33.166  13.400   7.117
 4362POPC   C1B57271  33.317  14.039   6.238
 4362POPC   C2B57272  33.157  14.164   6.616
 4362POPC   C3B57273  33.268  13.929   6.933
 4362POPC   C4B57274  33.012  13.866   7.249
 4363POPC   NC357275   7.569  30.250   5.603
 4363POPC   PO457276   7.433  29.692   5.376
 4363POPC   GL157277   7.285  29.826   5.733
 4363POPC   GL257278   7.007  30.008   5.603
 4363POPC   C1A57279   7.460  29.780   6.125
 4363POPC   D2A57280   7.446  29.693   6.552
 4363POPC   C3A57281   7.694  29.965   6.862
 4363POPC   C4A57282   7.550  30.060   7.303
 4363POPC   C1B57283   6.838  29.821   6.011
 4363POPC   C2B57284   6.889  29.759   6.445
 4363POPC   C3B57285   7.031  29.557   6.806
 4363POPC   C4B57286   7.180  29.675   7.239
 4364POPC   NC357287   3.589  38.681   5.545
 4364POPC   PO457288   3.383  38.051   5.538
 4364POPC   GL157289   3.619  38.232   5.867
 4364POPC   GL257290   3.385  38.480   5.986
 4364POPC   C1A57291   3.771  38.299   6.281
 4364POPC   D2A57292   3.514  38.518   6.600
 4364POPC   C3A57293   3.406  38.263   6.933
 4364POPC   C4A57294   3.586  38.172   7.347
 4364POPC   C1B57295   3.666  38.807   6.171
 4364POPC   C2B57296   3.577  39.038   6.509
 4364POPC   C3B57297   3.666  38.940   6.889
 4364POPC   C4B57298   3.606  38.662   7.182
 4365POPC   NC357299  36.734  39.198   5.307
 4365POPC   PO457300  36.380  39.697   5.453
 4365POPC   GL157301  36.733  39.524   5.688
 4365POPC   GL257302  37.004  39.204   5.743
 4365POPC   C1A57303  36.842  39.510   6.095
 4365POPC   D2A57304  36.710  39.325   6.448
 4365POPC   C3A57305  36.940  39.386   6.839
 4365POPC   C4A57306  36.808  39.258   7.239
 4365POPC   C1B57307  37.145  39.151   6.220
 4365POPC   C2B57308  36.981  38.899   6.599
 4365POPC   C3B57309  37.164  38.943   7.026
 4365POPC   C4B57310  37.316  39.321   7.274
 4366POPC   NC357311  36.033  42.235   5.582
 4366POPC   PO457312  36.383  42.731   5.658
 4366POPC   GL157313  36.394  42.454   5.924
 4366POPC   GL257314  36.549  42.204   5.725
 4366POPC   C1A57315  36.117  42.294   6.230
 4366POPC   D2A57316  35.938  42.474   6.581
 4366POPC   C3A57317  35.875  42.191   6.885
 4366POPC   C4A57318  35.805  42.440   7.219
 4366POPC   C1B57319  36.611  42.067   6.154
 4366POPC   C2B57320  36.448  42.108   6.578
 4366POPC   C3B57321  36.395  42.395   6.904
 4366POPC   C4B57322  36.601  42.395   7.295
 4367POPC   NC357323  12.638   2.628   5.552
 4367POPC   PO457324  12.761   3.318   5.516
 4367POPC   GL157325  12.684   3.046   5.911
 4367POPC   GL257326  12.325   2.895   5.872
 4367POPC   C1A57327  12.974   2.812   6.237
 4367POPC   D2A57328  12.939   2.465   6.514
 4367POPC   C3A57329  12.934   2.602   6.923
 4367POPC   C4A57330  13.096   2.577   7.295
 4367POPC   C1B57331  12.480   2.683   6.229
 4367POPC   C2B57332  12.594   2.842   6.610
 4367POPC   C3B57333  12.451   2.798   7.010
 4367POPC   C4B57334  12.614   2.720   7.398
 4368POPC   NC357335  10.099  12.197   5.000
 4368POPC   PO457336  10.653  12.065   5.393
 4368POPC   GL157337  10.634  11.869   5.783
 4368POPC   GL257338  10.387  11.640   5.658
 4368POPC   C1A57339  10.554  12.066   6.182
 4368POPC   D2A57340  10.801  12.188   6.531
 4368POPC   C3A57341  10.580  12.279   6.895
 4368POPC   C4A57342  10.676  12.264   7.323
 4368POPC   C1B57343  10.132  11.863   5.957
 4368POPC   C2B57344  10.092  11.967   6.411
 4368POPC   C3B57345  10.232  11.932   6.822
 4368POPC   C4B57346  10.357  11.868   7.241
 4369POPC   NC357347  25.193  19.497   5.232
 4369POPC   PO457348  25.047  18.806   5.312
 4369POPC   GL157349  25.230  18.968   5.710
 4369POPC   GL257350  25.550  19.185   5.715
 4369POPC   C1A57351  25.057  19.043   6.151
 4369POPC   D2A57352  24.953  19.251   6.543
 4369POPC   C3A57353  24.969  19.003   6.884
 4369POPC   C4A57354  25.054  19.091   7.296
 4369POPC   C1B57355  25.547  18.907   6.113
 4369POPC   C2B57356  25.407  18.995   6.578
 4369POPC   C3B57357  25.459  18.898   7.053
 4369POPC   C4B57358  25.543  18.850   7.548
 4370POPC   NC357359  20.288  36.157   5.460
 4370POPC   PO457360  20.957  36.337   5.470
 4370POPC   GL157361  20.703  36.205   5.767
 4370POPC   GL257362  20.451  36.402   5.905
 4370POPC   C1A57363  20.578  35.914   6.060
 4370POPC   D2A57364  20.665  35.853   6.470
 4370POPC   C3A57365  20.493  36.141   6.733
 4370POPC   C4A57366  20.424  36.025   7.131
 4370POPC   C1B57367  20.799  36.376   6.241
 4370POPC   C2B57368  20.737  36.596   6.645
 4370POPC   C3B57369  20.615  36.549   7.062
 4370POPC   C4B57370  20.678  36.315   7.435
 4371POPC   NC357371  32.798  40.779   5.523
 4371POPC   PO457372  33.365  40.935   5.346
 4371POPC   GL157373  33.327  40.830   5.788
 4371POPC   GL257374  33.091  41.084   5.844
 4371POPC   C1A57375  33.039  40.655   6.148
 4371POPC   D2A57376  33.029  40.648   6.604
 4371POPC   C3A57377  33.057  40.925   6.980
 4371POPC   C4A57378  33.159  40.784   7.418
 4371POPC   C1B57379  33.273  41.075   6.264
 4371POPC   C2B57380  33.259  41.252   6.630
 4371POPC   C3B57381  33.211  41.476   6.980
 4371POPC   C4B57382  33.145  41.277   7.330
 4372POPC   NC357383  33.292  13.319   5.611
 4372POPC   PO457384  32.976  12.652   5.531
 4372POPC   GL157385  33.165  12.864   5.837
 4372POPC   GL257386  33.337  12.584   5.960
 4372POPC   C1A57387  33.217  13.096   6.223
 4372POPC   D2A57388  33.177  13.223   6.627
 4372POPC   C3A57389  33.222  12.861   6.867
 4372POPC   C4A57390  33.133  12.892   7.277
 4372POPC   C1B57391  32.964  12.603   6.223
 4372POPC   C2B57392  32.846  12.807   6.555
 4372POPC   C3B57393  32.782  12.627   6.983
 4372POPC   C4B57394  32.976  12.393   7.283
 4373POPC   NC357395   0.149  42.513   5.586
 4373POPC   PO457396   0.605  42.166   5.198
 4373POPC   GL157397   0.617  42.326   5.713
 4373POPC   GL257398   0.859  42.615   5.729
 4373POPC   C1A57399   0.390  42.409   6.207
 4373POPC   D2A57400   0.078  42.625   6.559
 4373POPC   C3A57401   0.168  42.505   7.021
 4373POPC   C4A57402   0.475  42.173   7.208
 4373POPC   C1B57403   0.907  42.455   6.141
 4373POPC   C2B57404   0.826  42.579   6.548
 4373POPC   C3B57405   0.912  42.428   6.956
 4373POPC   C4B57406   0.886  42.486   7.394
 4374POPC   NC357407  35.033  12.269   5.316
 4374POPC   PO457408  35.642  12.011   5.300
 4374POPC   GL157409  35.395  12.137   5.693
 4374POPC   GL257410  35.116  11.925   5.715
 4374POPC   C1A57411  35.361  12.418   6.079
 4374POPC   D2A57412  35.206  12.400   6.533
 4374POPC   C3A57413  35.493  12.101   6.780
 4374POPC   C4A57414  35.647  12.123   7.242
 4374POPC   C1B57415  35.044  12.018   6.171
 4374POPC   C2B57416  35.022  11.900   6.620
 4374POPC   C3B57417  35.040  12.119   7.026
 4374POPC   C4B57418  34.992  11.971   7.441
 4375POPC   NC357419  20.217  40.199   5.517
 4375POPC   PO457420  20.618  39.579   5.511
 4375POPC   GL157421  20.791  39.737   5.821
 4375POPC   GL257422  20.670  40.065   5.804
 4375POPC   C1A57423  20.784  39.844   6.261
 4375POPC   D2A57424  20.676  40.049   6.621
 4375POPC   C3A57425  20.561  39.749   6.947
 4375POPC   C4A57426  20.746  39.822   7.408
 4375POPC   C1B57427  20.309  39.875   6.079
 4375POPC   C2B57428  20.115  39.948   6.487
 4375POPC   C3B57429  20.250  40.174   6.877
 4375POPC   C4B57430  20.617  40.231   7.119
 4376POPC   NC357431  15.832  19.258   5.252
 4376POPC   PO457432  16.285  18.801   5.304
 4376POPC   GL157433  16.124  19.026   5.729
 4376POPC   GL257434  16.082  19.394   5.810
 4376POPC   C1A57435  15.863  19.028   6.138
 4376POPC   D2A57436  15.678  19.146   6.557
 4376POPC   C3A57437  15.830  18.963   6.942
 4376POPC   C4A57438  15.935  18.700   7.293
 4376POPC   C1B57439  16.259  19.368   6.253
 4376POPC   C2B57440  16.164  19.275   6.659
 4376POPC   C3B57441  15.856  19.507   6.886
 4376POPC   C4B57442  15.814  19.346   7.263
 4377POPC   NC357443  19.077  44.475   5.382
 4377POPC   PO457444  19.476  44.999   5.417
 4377POPC   GL157445  19.187  44.789   5.781
 4377POPC   GL257446  19.302  44.415   5.840
 4377POPC   C1A57447  19.011  44.624   6.203
 4377POPC   D2A57448  19.223  44.746   6.608
 4377POPC   C3A57449  19.020  44.841   6.982
 4377POPC   C4A57450  18.808  44.533   7.193
 4377POPC   C1B57451  19.401  44.309   6.286
 4377POPC   C2B57452  19.554  44.384   6.719
 4377POPC   C3B57453  19.470  44.625   7.111
 4377POPC   C4B57454  19.450  44.443   7.535
 4378POPC   NC357455  36.396  33.173   5.401
 4378POPC   PO457456  35.754  33.139   5.482
 4378POPC   GL157457  36.022  32.927   5.779
 4378POPC   GL257458  36.357  32.773   5.757
 4378POPC   C1A57459  36.006  32.724   6.173
 4378POPC   D2A57460  36.212  32.697   6.570
 4378POPC   C3A57461  35.963  32.773   6.904
 4378POPC   C4A57462  35.958  32.999   7.271
 4378POPC   C1B57463  36.399  33.039   6.148
 4378POPC   C2B57464  36.587  33.045   6.567
 4378POPC   C3B57465  36.476  32.931   6.991
 4378POPC   C4B57466  36.426  33.263   7.289
 4379POPC   NC357467   2.881  44.990   5.450
 4379POPC   PO457468   2.515  44.461   5.240
 4379POPC   GL157469   2.591  44.619   5.683
 4379POPC   GL257470   2.362  44.898   5.755
 4379POPC   C1A57471   2.849  44.726   6.084
 4379POPC   D2A57472   3.000  44.817   6.533
 4379POPC   C3A57473   2.748  44.631   6.876
 4379POPC   C4A57474   2.775  44.580   7.320
 4379POPC   C1B57475   2.422   0.004   6.215
 4379POPC   C2B57476   2.370  44.942   6.677
 4379POPC   C3B57477   2.421  44.957   7.132
 4379POPC   C4B57478   2.469   0.182   7.540
 4380POPC   NC357479   4.647   7.737   5.432
 4380POPC   PO457480   4.392   8.352   5.270
 4380POPC   GL157481   4.456   8.167   5.716
 4380POPC   GL257482   4.398   7.803   5.867
 4380POPC   C1A57483   4.237   8.209   6.132
 4380POPC   D2A57484   4.123   8.220   6.577
 4380POPC   C3A57485   4.314   8.254   7.003
 4380POPC   C4A57486   4.148   8.292   7.457
 4380POPC   C1B57487   4.644   7.900   6.242
 4380POPC   C2B57488   4.620   8.019   6.661
 4380POPC   C3B57489   4.642   7.854   7.095
 4380POPC   C4B57490   4.655   8.191   7.395
 4381POPC   NC357491  27.463  38.732   5.336
 4381POPC   PO457492  27.884  38.265   5.362
 4381POPC   GL157493  27.663  38.466   5.726
 4381POPC   GL257494  27.360  38.280   5.774
 4381POPC   C1A57495  27.615  38.457   6.190
 4381POPC   D2A57496  27.604  38.122   6.510
 4381POPC   C3A57497  27.762  38.240   6.900
 4381POPC   C4A57498  27.589  38.167   7.267
 4381POPC   C1B57499  27.175  38.648   5.982
 4381POPC   C2B57500  27.166  38.612   6.409
 4381POPC   C3B57501  27.269  38.452   6.814
 4381POPC   C4B57502  27.458  38.639   7.171
 4382POPC   NC357503  19.296  38.037   5.412
 4382POPC   PO457504  19.541  38.727   5.535
 4382POPC   GL157505  19.267  38.497   5.846
 4382POPC   GL257506  18.962  38.319   5.735
 4382POPC   C1A57507  19.143  38.568   6.280
 4382POPC   D2A57508  19.213  38.751   6.697
 4382POPC   C3A57509  19.078  38.521   7.068
 4382POPC   C4A57510  19.189  38.558   7.539
 4382POPC   C1B57511  18.702  38.392   6.116
 4382POPC   C2B57512  18.737  38.255   6.561
 4382POPC   C3B57513  18.801  38.073   6.985
 4382POPC   C4B57514  18.789  38.278   7.393
 4383POPC   NC357515  23.574  13.253   5.501
 4383POPC   PO457516  23.850  12.629   5.316
 4383POPC   GL157517  23.840  12.849   5.687
 4383POPC   GL257518  23.488  12.809   5.747
 4383POPC   C1A57519  23.862  13.009   6.119
 4383POPC   D2A57520  24.128  12.908   6.482
 4383POPC   C3A57521  23.920  12.831   6.865
 4383POPC   C4A57522  23.992  12.955   7.275
 4383POPC   C1B57523  23.461  12.642   6.116
 4383POPC   C2B57524  23.535  12.819   6.503
 4383POPC   C3B57525  23.418  12.732   6.905
 4383POPC   C4B57526  23.335  13.006   7.224
 4384POPC   NC357527  29.649  11.943   5.364
 4384POPC   PO457528  30.180  12.397   5.400
 4384POPC   GL157529  30.061  12.423   5.823
 4384POPC   GL257530  30.309  12.183   5.898
 4384POPC   C1A57531  29.908  12.233   6.242
 4384POPC   D2A57532  29.511  12.197   6.500
 4384POPC   C3A57533  29.539  12.070   6.940
 4384POPC   C4A57534  29.623  12.334   7.316
 4384POPC   C1B57535  30.164  11.820   6.095
 4384POPC   C2B57536  30.083  11.794   6.522
 4384POPC   C3B57537  30.076  12.030   6.881
 4384POPC   C4B57538  29.958  11.950   7.269
 4385POPC   NC357539  27.832  19.232   5.464
 4385POPC   PO457540  27.656  18.631   5.435
 4385POPC   GL157541  27.698  18.868   5.792
 4385POPC   GL257542  27.392  19.054   5.782
 4385POPC   C1A57543  27.675  18.817   6.220
 4385POPC   D2A57544  27.649  18.599   6.599
 4385POPC   C3A57545  27.677  18.901   6.915
 4385POPC   C4A57546  27.504  18.945   7.309
 4385POPC   C1B57547  27.404  19.297   6.162
 4385POPC   C2B57548  27.133  19.330   6.536
 4385POPC   C3B57549  27.228  19.249   6.966
 4385POPC   C4B57550  27.644  19.390   7.111
 4386POPC   NC357551  29.260   9.659   5.470
 4386POPC   PO457552  28.862  10.253   5.414
 4386POPC   GL157553  29.096  10.104   5.801
 4386POPC   GL257554  29.092   9.720   5.932
 4386POPC   C1A57555  29.193  10.070   6.276
 4386POPC   D2A57556  29.201   9.705   6.599
 4386POPC   C3A57557  29.101   9.824   7.023
 4386POPC   C4A57558  29.209   9.993   7.451
 4386POPC   C1B57559  28.846   9.558   6.256
 4386POPC   C2B57560  28.691   9.514   6.672
 4386POPC   C3B57561  28.810   9.396   7.104
 4386POPC   C4B57562  29.113   9.475   7.450
 4387POPC   NC357563  43.953   2.970   5.382
 4387POPC   PO457564  43.948   2.290   5.424
 4387POPC   GL157565  43.960   2.624   5.810
 4387POPC   GL257566  44.210   2.932   5.818
 4387POPC   C1A57567  43.818   2.658   6.275
 4387POPC   D2A57568  43.894   2.558   6.723
 4387POPC   C3A57569  43.707   2.749   7.106
 4387POPC   C4A57570  43.367   2.536   7.358
 4387POPC   C1B57571  44.007   3.132   6.181
 4387POPC   C2B57572  43.918   3.087   6.633
 4387POPC   C3B57573  44.065   3.120   7.069
 4387POPC   C4B57574  43.916   3.294   7.461
 4388POPC   NC357575   9.752  38.988   5.372
 4388POPC   PO457576  10.088  39.576   5.407
 4388POPC   GL157577   9.982  39.249   5.733
 4388POPC   GL257578   9.653  39.341   5.728
 4388POPC   C1A57579   9.741  39.021   6.103
 4388POPC   D2A57580   9.551  39.144   6.517
 4388POPC   C3A57581   9.840  39.021   6.850
 4388POPC   C4A57582  10.068  39.137   7.233
 4388POPC   C1B57583   9.597  39.522   6.153
 4388POPC   C2B57584   9.485  39.701   6.560
 4388POPC   C3B57585   9.549  39.462   6.924
 4388POPC   C4B57586   9.441  39.237   7.271
 4389POPC   NC357587  37.805   8.468   5.299
 4389POPC   PO457588  37.299   8.072   5.276
 4389POPC   GL157589  37.424   8.306   5.672
 4389POPC   GL257590  37.787   8.243   5.763
 4389POPC   C1A57591  37.414   8.151   6.111
 4389POPC   D2A57592  37.464   8.317   6.514
 4389POPC   C3A57593  37.467   8.071   6.883
 4389POPC   C4A57594  37.703   8.232   7.213
 4389POPC   C1B57595  37.918   8.022   6.158
 4389POPC   C2B57596  37.906   8.073   6.621
 4389POPC   C3B57597  38.117   7.982   7.029
 4389POPC   C4B57598  38.022   7.964   7.519
 4390POPC   NC357599  35.804   9.213   5.432
 4390POPC   PO457600  36.330   8.815   5.143
 4390POPC   GL157601  36.259   8.945   5.605
 4390POPC   GL257602  35.991   8.924   5.844
 4390POPC   C1A57603  36.421   9.066   6.056
 4390POPC   D2A57604  36.216   8.960   6.442
 4390POPC   C3A57605  36.211   9.168   6.872
 4390POPC   C4A57606  36.244   9.243   7.326
 4390POPC   C1B57607  35.764   8.774   6.214
 4390POPC   C2B57608  35.878   8.629   6.631
 4390POPC   C3B57609  35.763   8.694   7.034
 4390POPC   C4B57610  35.738   9.025   7.332
 4391POPC   NC357611   3.534  28.882   5.456
 4391POPC   PO457612   3.602  29.538   5.551
 4391POPC   GL157613   3.671  29.232   5.840
 4391POPC   GL257614   3.316  29.141   5.846
 4391POPC   C1A57615   3.625  29.193   6.279
 4391POPC   D2A57616   3.632  28.949   6.631
 4391POPC   C3A57617   3.586  29.239   6.961
 4391POPC   C4A57618   3.767  29.433   7.331
 4391POPC   C1B57619   3.116  29.144   6.252
 4391POPC   C2B57620   3.110  28.974   6.682
 4391POPC   C3B57621   3.099  29.085   7.105
 4391POPC   C4B57622   3.423  29.065   7.414
 4392POPC   NC357623   2.835   5.416   5.464
 4392POPC   PO457624   3.042   4.788   5.339
 4392POPC   GL157625   2.778   4.905   5.687
 4392POPC   GL257626   2.463   5.116   5.694
 4392POPC   C1A57627   2.742   4.932   6.136
 4392POPC   D2A57628   2.680   5.190   6.501
 4392POPC   C3A57629   2.899   5.058   6.874
 4392POPC   C4A57630   2.768   4.862   7.247
 4392POPC   C1B57631   2.451   5.420   6.051
 4392POPC   C2B57632   2.395   5.628   6.460
 4392POPC   C3B57633   2.640   5.604   6.840
 4392POPC   C4B57634   2.705   5.369   7.204
 4393POPC   NC357635  11.651   1.445   5.190
 4393POPC   PO457636  11.822   0.863   5.443
 4393POPC   GL157637  12.156   1.177   5.637
 4393POPC   GL257638  12.109   1.530   5.690
 4393POPC   C1A57639  12.388   1.302   6.045
 4393POPC   D2A57640  12.224   1.257   6.491
 4393POPC   C3A57641  12.445   1.239   6.899
 4393POPC   C4A57642  12.315   1.317   7.345
 4393POPC   C1B57643  12.078   1.718   6.105
 4393POPC   C2B57644  11.905   1.717   6.512
 4393POPC   C3B57645  12.007   1.525   6.928
 4393POPC   C4B57646  11.791   1.410   7.320
 4394POPC   NC357647   6.286  23.480   5.417
 4394POPC   PO457648   6.807  23.887   5.439
 4394POPC   GL157649   6.552  23.701   5.801
 4394POPC   GL257650   6.649  23.398   5.807
 4394POPC   C1A57651   6.437  23.574   6.271
 4394POPC   D2A57652   6.461  23.717   6.748
 4394POPC   C3A57653   6.513  23.431   7.117
 4394POPC   C4A57654   6.618  23.438   7.554
 4394POPC   C1B57655   6.878  23.279   6.143
 4394POPC   C2B57656   6.862  23.454   6.550
 4394POPC   C3B57657   7.000  23.583   6.965
 4394POPC   C4B57658   7.098  23.439   7.392
 4395POPC   NC357659  21.302  34.933   5.407
 4395POPC   PO457660  21.205  34.265   5.360
 4395POPC   GL157661  21.338  34.398   5.774
 4395POPC   GL257662  21.045  34.603   5.804
 4395POPC   C1A57663  21.638  34.440   6.161
 4395POPC   D2A57664  21.546  34.483   6.624
 4395POPC   C3A57665  21.479  34.557   7.089
 4395POPC   C4A57666  21.302  34.311   7.453
 4395POPC   C1B57667  21.141  34.518   6.266
 4395POPC   C2B57668  21.071  34.623   6.702
 4395POPC   C3B57669  20.975  34.608   7.133
 4395POPC   C4B57670  21.154  34.803   7.488
 4396POPC   NC357671  32.975  37.872   5.286
 4396POPC   PO457672  33.469  38.335   5.292
 4396POPC   GL157673  33.266  38.386   5.720
 4396POPC   GL257674  33.214  38.049   5.730
 4396POPC   C1A57675  32.986  38.426   6.148
 4396POPC   D2A57676  32.833  38.217   6.600
 4396POPC   C3A57677  32.665  38.351   7.052
 4396POPC   C4A57678  32.718  38.331   7.564
 4396POPC   C1B57679  33.356  38.070   6.143
 4396POPC   C2B57680  33.345  38.321   6.515
 4396POPC   C3B57681  33.234  38.234   6.936
 4396POPC   C4B57682  33.114  38.426   7.279
 4397POPC   NC357683  41.591  28.990   5.345
 4397POPC   PO457684  41.026  29.320   5.360
 4397POPC   GL157685  41.207  29.268   5.804
 4397POPC   GL257686  41.482  28.983   5.898
 4397POPC   C1A57687  41.336  29.357   6.233
 4397POPC   D2A57688  41.617  29.150   6.496
 4397POPC   C3A57689  41.534  29.355   6.856
 4397POPC   C4A57690  41.814  29.474   7.168
 4397POPC   C1B57691  41.804  28.723   6.183
 4397POPC   C2B57692  41.825  28.571   6.628
 4397POPC   C3B57693  41.820  28.889   6.969
 4397POPC   C4B57694  41.435  28.983   7.155
 4398POPC   NC357695   8.549  16.830   5.646
 4398POPC   PO457696   7.967  16.482   5.489
 4398POPC   GL157697   8.094  16.753   5.891
 4398POPC   GL257698   8.287  17.080   5.980
 4398POPC   C1A57699   8.204  16.755   6.353
 4398POPC   D2A57700   8.278  16.806   6.810
 4398POPC   C3A57701   7.960  16.582   7.066
 4398POPC   C4A57702   7.926  16.359   7.488
 4398POPC   C1B57703   8.645  17.078   6.279
 4398POPC   C2B57704   8.809  17.001   6.705
 4398POPC   C3B57705   8.650  17.032   7.133
 4398POPC   C4B57706   8.505  17.070   7.612
 4399POPC   NC357707  39.128  13.008   5.422
 4399POPC   PO457708  39.844  12.889   5.279
 4399POPC   GL157709  39.571  12.928   5.708
 4399POPC   GL257710  39.530  13.266   5.788
 4399POPC   C1A57711  39.384  12.761   6.119
 4399POPC   D2A57712  39.456  12.886   6.578
 4399POPC   C3A57713  39.175  12.749   6.918
 4399POPC   C4A57714  39.324  12.508   7.259
 4399POPC   C1B57715  39.298  13.248   6.176
 4399POPC   C2B57716  39.320  13.414   6.558
 4399POPC   C3B57717  39.345  13.266   6.958
 4399POPC   C4B57718  39.583  12.932   7.147
 4400POPC   NC357719  27.642  27.702   5.368
 4400POPC   PO457720  27.328  27.084   5.247
 4400POPC   GL157721  27.523  27.259   5.629
 4400POPC   GL257722  27.369  27.540   5.761
 4400POPC   C1A57723  27.654  27.226   6.088
 4400POPC   D2A57724  27.803  27.419   6.495
 4400POPC   C3A57725  27.565  27.351   6.903
 4400POPC   C4A57726  27.699  27.297   7.344
 4400POPC   C1B57727  27.556  27.751   6.094
 4400POPC   C2B57728  27.429  27.806   6.513
 4400POPC   C3B57729  27.676  27.861   6.872
 4400POPC   C4B57730  27.458  27.747   7.247
 4401POPC   NC357731  44.408   9.369   5.545
 4401POPC   PO457732  44.752   8.834   5.347
 4401POPC   GL157733  44.728   9.018   5.765
 4401POPC   GL257734  44.372   8.970   5.868
 4401POPC   C1A57735  44.794   9.213   6.166
 4401POPC   D2A57736  44.564   9.125   6.530
 4401POPC   C3A57737  44.747   9.145   6.939
 4401POPC   C4A57738  44.534   9.092   7.318
 4401POPC   C1B57739  44.578   8.720   6.173
 4401POPC   C2B57740  44.699   8.627   6.590
 4401POPC   C3B57741  44.522   8.670   7.005
 4401POPC   C4B57742  44.659   8.598   7.433
 4402POPC   NC357743  34.752  16.442   5.137
 4402POPC   PO457744  34.425  15.822   5.430
 4402POPC   GL157745  34.586  15.900   5.840
 4402POPC   GL257746  34.748  16.189   5.787
 4402POPC   C1A57747  34.669  15.776   6.273
 4402POPC   D2A57748  34.620  15.491   6.590
 4402POPC   C3A57749  34.736  15.731   6.924
 4402POPC   C4A57750  34.583  16.059   7.233
 4402POPC   C1B57751  34.891  16.237   6.219
 4402POPC   C2B57752  34.760  16.192   6.688
 4402POPC   C3B57753  34.962  16.378   7.085
 4402POPC   C4B57754  35.096  16.342   7.545
 4403POPC   NC357755  32.629  14.403   5.429
 4403POPC   PO457756  32.086  14.086   5.388
 4403POPC   GL157757  32.300  14.244   5.794
 4403POPC   GL257758  32.233  14.579   5.836
 4403POPC   C1A57759  32.231  14.300   6.268
 4403POPC   D2A57760  32.413  14.498   6.654
 4403POPC   C3A57761  32.212  14.370   7.040
 4403POPC   C4A57762  31.823  14.126   7.119
 4403POPC   C1B57763  32.347  14.812   6.203
 4403POPC   C2B57764  32.137  14.995   6.555
 4403POPC   C3B57765  32.250  14.895   6.962
 4403POPC   C4B57766  32.438  14.755   7.323
 4404POPC   NC357767  15.176   7.794   5.267
 4404POPC   PO457768  15.042   7.234   5.534
 4404POPC   GL157769  15.147   7.522   5.801
 4404POPC   GL257770  15.477   7.670   5.652
 4404POPC   C1A57771  15.192   7.431   6.235
 4404POPC   D2A57772  15.118   7.544   6.648
 4404POPC   C3A57773  15.224   7.299   7.005
 4404POPC   C4A57774  15.087   7.058   7.344
 4404POPC   C1B57775  15.524   7.765   6.074
 4404POPC   C2B57776  15.558   7.851   6.529
 4404POPC   C3B57777  15.539   7.696   6.974
 4404POPC   C4B57778  15.427   7.883   7.408
 4405POPC   NC357779  13.249   9.179   5.319
 4405POPC   PO457780  13.860   8.717   5.382
 4405POPC   GL157781  13.619   8.879   5.765
 4405POPC   GL257782  13.502   9.206   5.776
 4405POPC   C1A57783  13.447   8.803   6.187
 4405POPC   D2A57784  13.468   8.667   6.619
 4405POPC   C3A57785  13.679   8.942   6.884
 4405POPC   C4A57786  13.704   8.803   7.285
 4405POPC   C1B57787  13.281   9.287   6.143
 4405POPC   C2B57788  13.216   9.111   6.566
 4405POPC   C3B57789  13.205   9.349   6.927
 4405POPC   C4B57790  13.426   9.219   7.252
 4406POPC   NC357791   2.285  26.244   5.501
 4406POPC   PO457792   2.883  26.086   5.273
 4406POPC   GL157793   2.720  26.059   5.737
 4406POPC   GL257794   2.429  25.823   5.767
 4406POPC   C1A57795   2.797  26.089   6.209
 4406POPC   D2A57796   3.080  25.842   6.513
 4406POPC   C3A57797   3.098  26.005   6.947
 4406POPC   C4A57798   2.792  26.112   7.291
 4406POPC   C1B57799   2.339  25.829   6.220
 4406POPC   C2B57800   2.550  25.866   6.657
 4406POPC   C3B57801   2.376  25.820   7.098
 4406POPC   C4B57802   2.509  25.756   7.546
 4407POPC   NC357803  24.022  31.084   5.280
 4407POPC   PO457804  23.659  30.481   5.348
 4407POPC   GL157805  23.625  30.532   5.789
 4407POPC   GL257806  23.860  30.762   5.773
 4407POPC   C1A57807  23.504  30.582   6.269
 4407POPC   D2A57808  23.220  30.536   6.633
 4407POPC   C3A57809  23.428  30.453   7.008
 4407POPC   C4A57810  23.755  30.409   7.321
 4407POPC   C1B57811  24.012  30.556   6.172
 4407POPC   C2B57812  23.886  30.402   6.592
 4407POPC   C3B57813  24.117  30.460   6.973
 4407POPC   C4B57814  24.230  30.805   7.214
 4408POPC   NC357815   4.578  44.552   5.471
 4408POPC   PO457816   3.945  44.516   5.543
 4408POPC   GL157817   4.142  44.657   5.896
 4408POPC   GL257818   4.479  44.598   5.963
 4408POPC   C1A57819   4.107  44.832   6.307
 4408POPC   D2A57820   4.215  44.998   6.705
 4408POPC   C3A57821   4.079  44.734   7.021
 4408POPC   C4A57822   4.072  44.413   7.288
 4408POPC   C1B57823   4.640  44.929   6.216
 4408POPC   C2B57824   4.708   0.042   6.628
 4408POPC   C3B57825   4.601  44.708   6.945
 4408POPC   C4B57826   4.615  44.501   7.343
 4409POPC   NC357827  36.413   5.996   5.415
 4409POPC   PO457828  35.828   5.853   5.119
 4409POPC   GL157829  35.947   5.842   5.627
 4409POPC   GL257830  36.211   5.622   5.739
 4409POPC   C1A57831  36.056   6.074   6.070
 4409POPC   D2A57832  35.915   6.171   6.528
 4409POPC   C3A57833  36.045   6.025   6.952
 4409POPC   C4A57834  35.807   5.837   7.249
 4409POPC   C1B57835  36.410   5.720   6.135
 4409POPC   C2B57836  36.334   5.852   6.560
 4409POPC   C3B57837  36.522   5.823   6.989
 4409POPC   C4B57838  36.418   5.842   7.422
 4410POPC   NC357839   4.048  21.284   4.895
 4410POPC   PO457840   4.597  21.401   5.243
 4410POPC   GL157841   4.347  21.386   5.655
 4410POPC   GL257842   4.584  21.169   5.816
 4410POPC   C1A57843   4.058  21.420   6.054
 4410POPC   D2A57844   4.216  21.480   6.495
 4410POPC   C3A57845   4.047  21.322   6.879
 4410POPC   C4A57846   4.176  21.431   7.290
 4410POPC   C1B57847   4.605  21.455   6.135
 4410POPC   C2B57848   4.690  21.286   6.530
 4410POPC   C3B57849   4.586  21.321   6.975
 4410POPC   C4B57850   4.667  21.639   7.317
 4411POPC   NC357851  25.105  23.649   5.359
 4411POPC   PO457852  25.648  24.060   5.490
 4411POPC   GL157853  25.453  23.655   5.740
 4411POPC   GL257854  25.076  23.571   5.853
 4411POPC   C1A57855  25.425  23.513   6.200
 4411POPC   D2A57856  25.640  23.555   6.597
 4411POPC   C3A57857  25.342  23.566   6.933
 4411POPC   C4A57858  25.130  23.435   7.287
 4411POPC   C1B57859  24.843  23.816   6.155
 4411POPC   C2B57860  24.711  23.808   6.596
 4411POPC   C3B57861  24.869  23.802   7.020
 4411POPC   C4B57862  24.947  23.907   7.468
 4412POPC   NC357863  10.061  34.544   5.393
 4412POPC   PO457864   9.409  34.286   5.385
 4412POPC   GL157865   9.632  34.550   5.715
 4412POPC   GL257866   9.916  34.356   5.848
 4412POPC   C1A57867   9.704  34.770   6.134
 4412POPC   D2A57868   9.556  34.622   6.568
 4412POPC   C3A57869   9.747  34.789   6.934
 4412POPC   C4A57870   9.581  34.654   7.296
 4412POPC   C1B57871   9.869  34.322   6.288
 4412POPC   C2B57872  10.000  34.232   6.694
 4412POPC   C3B57873   9.936  34.333   7.124
 4412POPC   C4B57874  10.075  34.677   7.401
 4413POPC   NC357875  19.990  29.091   5.469
 4413POPC   PO457876  19.694  29.556   5.372
 4413POPC   GL157877  19.764  29.407   5.793
 4413POPC   GL257878  19.551  29.123   5.750
 4413POPC   C1A57879  19.915  29.315   6.216
 4413POPC   D2A57880  20.145  29.293   6.628
 4413POPC   C3A57881  19.920  29.146   7.008
 4413POPC   C4A57882  19.719  29.285   7.385
 4413POPC   C1B57883  19.443  29.113   6.199
 4413POPC   C2B57884  19.557  29.165   6.641
 4413POPC   C3B57885  19.365  29.108   7.084
 4413POPC   C4B57886  19.266  29.074   7.560
 4414POPC   NC357887  37.338  23.868   5.380
 4414POPC   PO457888  37.720  23.381   5.521
 4414POPC   GL157889  37.631  23.624   5.840
 4414POPC   GL257890  37.715  23.972   5.820
 4414POPC   C1A57891  37.672  23.472   6.230
 4414POPC   D2A57892  37.479  23.327   6.555
 4414POPC   C3A57893  37.630  23.477   6.886
 4414POPC   C4A57894  37.715  23.406   7.290
 4414POPC   C1B57895  37.518  23.955   6.247
 4414POPC   C2B57896  37.336  23.852   6.672
 4414POPC   C3B57897  37.486  23.900   7.132
 4414POPC   C4B57898  37.508  24.077   7.547
 4415POPC   NC357899  33.179   0.341   5.453
 4415POPC   PO457900  32.839   0.909   5.444
 4415POPC   GL157901  33.063   0.705   5.826
 4415POPC   GL257902  33.426   0.555   5.846
 4415POPC   C1A57903  33.074   0.535   6.259
 4415POPC   D2A57904  33.117   0.719   6.673
 4415POPC   C3A57905  32.890   0.552   7.036
 4415POPC   C4A57906  33.056   0.437   7.449
 4415POPC   C1B57907  33.322   0.126   6.065
 4415POPC   C2B57908  33.188   0.089   6.511
 4415POPC   C3B57909  33.305   0.268   6.925
 4415POPC   C4B57910  33.346   0.045   7.306
 4416POPC   NC357911   7.812  23.353   5.512
 4416POPC   PO457912   8.100  23.956   5.290
 4416POPC   GL157913   8.119  24.018   5.776
 4416POPC   GL257914   8.122  23.659   5.860
 4416POPC   C1A57915   8.214  23.963   6.252
 4416POPC   D2A57916   8.237  23.632   6.597
 4416POPC   C3A57917   8.039  23.802   6.946
 4416POPC   C4A57918   8.192  24.088   7.254
 4416POPC   C1B57919   7.845  23.591   6.251
 4416POPC   C2B57920   7.880  23.235   6.558
 4416POPC   C3B57921   8.042  23.298   7.008
 4416POPC   C4B57922   8.372  23.546   7.213
 4417POPC   NC357923   3.406  12.194   5.264
 4417POPC   PO457924   3.615  11.677   5.524
 4417POPC   GL157925   3.403  11.952   5.768
 4417POPC   GL257926   3.129  11.738   5.781
 4417POPC   C1A57927   3.520  12.158   6.172
 4417POPC   D2A57928   3.588  12.426   6.559
 4417POPC   C3A57929   3.940  12.302   6.863
 4417POPC   C4A57930   3.824  12.229   7.278
 4417POPC   C1B57931   3.344  11.650   6.179
 4417POPC   C2B57932   3.505  11.800   6.548
 4417POPC   C3B57933   3.567  11.958   6.915
 4417POPC   C4B57934   3.534  11.760   7.273
 4418POPC   NC357935  42.020  28.366   5.496
 4418POPC   PO457936  41.398  28.559   5.391
 4418POPC   GL157937  41.560  28.476   5.786
 4418POPC   GL257938  41.651  28.140   5.780
 4418POPC   C1A57939  41.364  28.443   6.197
 4418POPC   D2A57940  41.335  28.218   6.570
 4418POPC   C3A57941  41.366  28.444   6.965
 4418POPC   C4A57942  41.778  28.428   7.177
 4418POPC   C1B57943  41.952  28.132   6.127
 4418POPC   C2B57944  41.842  28.027   6.533
 4418POPC   C3B57945  41.661  27.992   6.922
 4418POPC   C4B57946  41.864  27.922   7.297
 4419POPC   NC357947  13.892  21.594   5.454
 4419POPC   PO457948  13.243  21.324   5.474
 4419POPC   GL157949  13.526  21.136   5.725
 4419POPC   GL257950  13.837  21.015   5.570
 4419POPC   C1A57951  13.535  21.335   6.118
 4419POPC   D2A57952  13.390  21.368   6.522
 4419POPC   C3A57953  13.580  21.645   6.799
 4419POPC   C4A57954  13.558  21.532   7.224
 4419POPC   C1B57955  13.913  21.014   6.039
 4419POPC   C2B57956  13.909  21.236   6.456
 4419POPC   C3B57957  13.736  21.168   6.864
 4419POPC   C4B57958  13.909  21.173   7.294
 4420POPC   NC357959  23.647  32.666   5.371
 4420POPC   PO457960  23.987  32.124   5.456
 4420POPC   GL157961  23.965  32.199   5.870
 4420POPC   GL257962  23.657  32.386   5.825
 4420POPC   C1A57963  23.708  32.062   6.232
 4420POPC   D2A57964  23.621  32.261   6.620
 4420POPC   C3A57965  23.652  31.979   6.971
 4420POPC   C4A57966  23.986  31.727   7.042
 4420POPC   C1B57967  23.691  32.612   6.217
 4420POPC   C2B57968  23.926  32.678   6.569
 4420POPC   C3B57969  23.827  32.559   6.973
 4420POPC   C4B57970  23.472  32.774   7.091
 4421POPC   NC357971  23.428  33.734   5.445
 4421POPC   PO457972  23.977  34.087   5.167
 4421POPC   GL157973  23.902  33.758   5.595
 4421POPC   GL257974  23.855  33.956   5.957
 4421POPC   C1A57975  23.891  33.476   6.001
 4421POPC   D2A57976  23.714  33.562   6.418
 4421POPC   C3A57977  23.908  33.548   6.809
 4421POPC   C4A57978  23.823  33.579   7.242
 4421POPC   C1B57979  23.499  33.963   6.197
 4421POPC   C2B57980  23.462  34.046   6.605
 4421POPC   C3B57981  23.484  33.843   6.967
 4421POPC   C4B57982  23.672  34.089   7.270
 4422POPC   NC357983   8.563  38.649   5.630
 4422POPC   PO457984   8.100  38.252   5.356
 4422POPC   GL157985   8.215  38.245   5.797
 4422POPC   GL257986   8.122  38.588   5.903
 4422POPC   C1A57987   8.092  38.168   6.251
 4422POPC   D2A57988   8.136  38.428   6.634
 4422POPC   C3A57989   7.897  38.539   7.000
 4422POPC   C4A57990   7.941  38.312   7.373
 4422POPC   C1B57991   8.439  38.540   6.231
 4422POPC   C2B57992   8.567  38.755   6.537
 4422POPC   C3B57993   8.343  38.834   6.873
 4422POPC   C4B57994   8.340  38.675   7.268
 4423POPC   NC357995  16.547  11.305   5.247
 4423POPC   PO457996  17.128  11.407   5.601
 4423POPC   GL157997  16.760  11.176   5.742
 4423POPC   GL257998  16.864  10.948   5.987
 4423POPC   C1A57999  16.468  11.253   6.096
 4423POPC   D2A58000  16.411  11.524   6.454
 4423POPC   C3A58001  16.400  11.365   6.893
 4423POPC   C4A58002  16.670  11.163   7.216
 4423POPC   C1B58003  17.014  10.968   6.392
 4423POPC   C2B58004  17.104  11.086   6.817
 4423POPC   C3B58005  17.023  11.473   6.998
 4423POPC   C4B58006  16.926  11.577   7.403
 4424POPC   NC358007   4.644  23.531   5.406
 4424POPC   PO458008   4.150  23.866   5.404
 4424POPC   GL158009   4.293  23.974   5.803
 4424POPC   GL258010   4.605  23.797   5.847
 4424POPC   C1A58011   4.263  23.818   6.245
 4424POPC   D2A58012   4.449  23.920   6.647
 4424POPC   C3A58013   4.128  24.027   6.935
 4424POPC   C4A58014   4.067  23.848   7.365
 4424POPC   C1B58015   4.732  24.033   6.213
 4424POPC   C2B58016   4.932  24.210   6.553
 4424POPC   C3B58017   4.779  24.232   6.947
 4424POPC   C4B58018   4.586  23.926   7.155
 4425POPC   NC358019  28.263  40.495   5.489
 4425POPC   PO458020  28.125  39.893   5.551
 4425POPC   GL158021  28.281  40.129   5.929
 4425POPC   GL258022  28.574  40.340   5.886
 4425POPC   C1A58023  28.162  40.239   6.382
 4425POPC   D2A58024  27.977  39.947   6.710
 4425POPC   C3A58025  28.240  39.557   6.818
 4425POPC   C4A58026  28.679  39.428   6.894
 4425POPC   C1B58027  28.655  40.117   6.307
 4425POPC   C2B58028  28.487  40.010   6.735
 4425POPC   C3B58029  28.234  40.315   6.988
 4425POPC   C4B58030  28.183  40.565   7.349
 4426POPC   NC358031  37.203  25.360   5.424
 4426POPC   PO458032  36.534  25.537   5.590
 4426POPC   GL158033  36.782  25.247   5.895
 4426POPC   GL258034  37.167  25.087   5.860
 4426POPC   C1A58035  36.976  25.190   6.309
 4426POPC   D2A58036  37.217  25.404   6.582
 4426POPC   C3A58037  36.925  25.383   6.872
 4426POPC   C4A58038  36.949  25.198   7.225
 4426POPC   C1B58039  37.309  24.815   6.236
 4426POPC   C2B58040  37.327  24.900   6.682
 4426POPC   C3B58041  37.312  24.838   7.138
 4426POPC   C4B58042  37.195  24.918   7.607
 4427POPC   NC358043   9.589  13.899   5.526
 4427POPC   PO458044   9.860  13.540   5.058
 4427POPC   GL158045   9.901  13.480   5.557
 4427POPC   GL258046   9.947  13.170   5.736
 4427POPC   C1A58047  10.010  13.709   5.985
 4427POPC   D2A58048   9.890  13.993   6.371
 4427POPC   C3A58049   9.982  13.791   6.783
 4427POPC   C4A58050   9.709  13.798   7.145
 4427POPC   C1B58051   9.615  13.372   6.023
 4427POPC   C2B58052   9.382  13.385   6.415
 4427POPC   C3B58053   9.504  13.438   6.853
 4427POPC   C4B58054   9.787  13.270   7.208
 4428POPC   NC358055  22.545  30.456   5.429
 4428POPC   PO458056  22.061  30.928   5.406
 4428POPC   GL158057  22.280  30.755   5.776
 4428POPC   GL258058  22.091  30.480   5.911
 4428POPC   C1A58059  22.385  30.822   6.208
 4428POPC   D2A58060  22.130  30.828   6.573
 4428POPC   C3A58061  22.248  30.836   6.998
 4428POPC   C4A58062  22.128  30.435   7.189
 4428POPC   C1B58063  21.885  30.904   6.094
 4428POPC   C2B58064  21.657  30.988   6.506
 4428POPC   C3B58065  21.747  30.960   6.953
 4428POPC   C4B58066  21.908  30.902   7.370
 4429POPC   NC358067  27.400  20.110   5.445
 4429POPC   PO458068  27.421  19.440   5.438
 4429POPC   GL158069  27.609  19.637   5.776
 4429POPC   GL258070  27.802  19.940   5.736
 4429POPC   C1A58071  27.462  19.815   6.155
 4429POPC   D2A58072  27.604  19.703   6.547
 4429POPC   C3A58073  27.349  19.747   6.838
 4429POPC   C4A58074  27.386  19.851   7.223
 4429POPC   C1B58075  27.955  19.917   6.141
 4429POPC   C2B58076  28.081  19.857   6.572
 4429POPC   C3B58077  27.885  19.831   7.003
 4429POPC   C4B58078  27.795  20.138   7.328
 4430POPC   NC358079  38.568  22.643   5.443
 4430POPC   PO458080  38.326  23.316   5.448
 4430POPC   GL158081  38.479  23.154   5.787
 4430POPC   GL258082  38.298  22.889   5.836
 4430POPC   C1A58083  38.530  23.222   6.249
 4430POPC   D2A58084  38.412  23.010   6.656
 4430POPC   C3A58085  38.553  23.159   7.109
 4430POPC   C4A58086  38.626  23.140   7.575
 4430POPC   C1B58087  38.671  22.781   6.077
 4430POPC   C2B58088  38.909  22.776   6.460
 4430POPC   C3B58089  38.794  22.746   6.890
 4430POPC   C4B58090  38.697  22.688   7.302
 4431POPC   NC358091  33.591  24.924   5.511
 4431POPC   PO458092  33.732  24.273   5.373
 4431POPC   GL158093  33.783  24.472   5.734
 4431POPC   GL258094  33.420  24.539   5.796
 4431POPC   C1A58095  33.990  24.262   6.084
 4431POPC   D2A58096  33.944  24.230   6.533
 4431POPC   C3A58097  34.005  24.520   6.885
 4431POPC   C4A58098  33.732  24.308   7.149
 4431POPC   C1B58099  33.649  24.635   6.187
 4431POPC   C2B58100  33.743  24.819   6.560
 4431POPC   C3B58101  33.550  24.793   6.934
 4431POPC   C4B58102  33.719  24.782   7.333
 4432POPC   NC358103  13.427  19.325   5.458
 4432POPC   PO458104  13.878  18.794   5.404
 4432POPC   GL158105  13.658  19.000   5.820
 4432POPC   GL258106  13.737  19.323   5.869
 4432POPC   C1A58107  13.700  19.159   6.318
 4432POPC   D2A58108  13.713  19.387   6.660
 4432POPC   C3A58109  13.542  19.028   6.827
 4432POPC   C4A58110  13.562  19.006   7.225
 4432POPC   C1B58111  13.418  19.543   6.136
 4432POPC   C2B58112  13.219  19.408   6.541
 4432POPC   C3B58113  13.321  19.447   7.010
 4432POPC   C4B58114  13.258  19.324   7.487
 4433POPC   NC358115  26.848  21.611   5.369
 4433POPC   PO458116  26.322  21.225   5.286
 4433POPC   GL158117  26.663  21.261   5.695
 4433POPC   GL258118  26.872  21.549   5.856
 4433POPC   C1A58119  26.840  21.139   6.141
 4433POPC   D2A58120  26.801  21.281   6.591
 4433POPC   C3A58121  26.658  20.976   6.937
 4433POPC   C4A58122  26.546  20.952   7.414
 4433POPC   C1B58123  26.622  21.647   6.210
 4433POPC   C2B58124  26.799  21.824   6.567
 4433POPC   C3B58125  26.948  21.685   6.945
 4433POPC   C4B58126  26.812  21.850   7.329
 4434POPC   NC358127  10.950   6.817   5.407
 4434POPC   PO458128  11.633   6.651   5.506
 4434POPC   GL158129  11.551   6.724   5.886
 4434POPC   GL258130  11.197   6.698   5.855
 4434POPC   C1A58131  11.456   6.529   6.256
 4434POPC   D2A58132  11.181   6.518   6.580
 4434POPC   C3A58133  11.433   6.601   6.927
 4434POPC   C4A58134  11.458   6.371   7.303
 4434POPC   C1B58135  11.105   6.934   6.252
 4434POPC   C2B58136  10.963   6.963   6.681
 4434POPC   C3B58137  10.940   6.750   7.074
 4434POPC   C4B58138  10.910   6.997   7.441
 4435POPC   NC358139  18.456  20.316   5.422
 4435POPC   PO458140  17.885  20.751   5.483
 4435POPC   GL158141  18.249  20.629   5.818
 4435POPC   GL258142  18.461  20.332   5.912
 4435POPC   C1A58143  18.490  20.668   6.259
 4435POPC   D2A58144  18.218  20.730   6.593
 4435POPC   C3A58145  18.471  20.716   6.952
 4435POPC   C4A58146  18.365  20.573   7.326
 4435POPC   C1B58147  18.087  20.320   6.230
 4435POPC   C2B58148  18.053  20.234   6.697
 4435POPC   C3B58149  18.300  20.107   7.075
 4435POPC   C4B58150  18.276  20.144   7.544
 4436POPC   NC358151  25.928  36.953   5.161
 4436POPC   PO458152  26.192  36.852   5.757
 4436POPC   GL158153  25.827  36.901   5.942
 4436POPC   GL258154  25.623  37.168   5.804
 4436POPC   C1A58155  25.846  36.813   6.364
 4436POPC   D2A58156  25.733  36.942   6.744
 4436POPC   C3A58157  26.012  36.831   7.078
 4436POPC   C4A58158  26.342  36.544   7.222
 4436POPC   C1B58159  25.638  37.331   6.228
 4436POPC   C2B58160  25.461  37.358   6.660
 4436POPC   C3B58161  25.698  37.361   7.041
 4436POPC   C4B58162  26.009  37.290   7.353
 4437POPC   NC358163  13.042  31.757   5.511
 4437POPC   PO458164  12.656  31.236   5.554
 4437POPC   GL158165  13.033  31.337   5.805
 4437POPC   GL258166  12.973  31.650   5.987
 4437POPC   C1A58167  13.204  31.320   6.253
 4437POPC   D2A58168  13.004  31.668   6.504
 4437POPC   C3A58169  13.166  31.770   6.920
 4437POPC   C4A58170  13.163  31.424   7.167
 4437POPC   C1B58171  12.613  31.450   6.172
 4437POPC   C2B58172  12.463  31.564   6.574
 4437POPC   C3B58173  12.642  31.748   6.908
 4437POPC   C4B58174  12.696  31.561   7.287
 4438POPC   NC358175  12.953  25.430   5.546
 4438POPC   PO458176  12.783  25.000   5.162
 4438POPC   GL158177  12.938  24.965   5.798
 4438POPC   GL258178  12.837  25.311   6.009
 4438POPC   C1A58179  13.231  25.128   6.227
 4438POPC   D2A58180  13.274  25.359   6.653
 4438POPC   C3A58181  12.927  25.359   7.009
 4438POPC   C4A58182  12.975  25.130   7.401
 4438POPC   C1B58183  12.610  25.096   6.283
 4438POPC   C2B58184  12.563  25.241   6.671
 4438POPC   C3B58185  12.504  25.063   7.053
 4438POPC   C4B58186  12.545  24.884   7.450
 4439POPC   NC358187  31.287  25.225   5.408
 4439POPC   PO458188  31.824  24.779   5.510
 4439POPC   GL158189  31.516  24.935   5.850
 4439POPC   GL258190  31.420  25.304   5.885
 4439POPC   C1A58191  31.581  25.046   6.282
 4439POPC   D2A58192  31.379  25.276   6.580
 4439POPC   C3A58193  31.425  25.034   6.938
 4439POPC   C4A58194  31.782  24.972   7.208
 4439POPC   C1B58195  31.615  25.589   6.192
 4439POPC   C2B58196  31.588  25.764   6.583
 4439POPC   C3B58197  31.621  25.531   6.957
 4439POPC   C4B58198  31.762  25.480   7.364
 4440POPC   NC358199  36.770  42.614   5.447
 4440POPC   PO458200  36.728  42.044   5.047
 4440POPC   GL158201  37.006  42.089   5.526
 4440POPC   GL258202  37.144  42.406   5.681
 4440POPC   C1A58203  37.130  42.030   6.014
 4440POPC   D2A58204  36.997  42.083   6.477
 4440POPC   C3A58205  37.155  42.009   6.902
 4440POPC   C4A58206  37.081  42.187   7.321
 4440POPC   C1B58207  36.920  42.517   6.102
 4440POPC   C2B58208  36.833  42.566   6.575
 4440POPC   C3B58209  36.860  42.731   7.014
 4440POPC   C4B58210  37.026  42.717   7.442
 4441POPC   NC358211  28.600  17.645   5.320
 4441POPC   PO458212  28.023  17.219   5.406
 4441POPC   GL158213  28.331  17.369   5.738
 4441POPC   GL258214  28.419  17.738   5.780
 4441POPC   C1A58215  28.472  17.382   6.177
 4441POPC   D2A58216  28.580  17.200   6.582
 4441POPC   C3A58217  28.679  17.363   7.000
 4441POPC   C4A58218  28.391  17.492   7.326
 4441POPC   C1B58219  28.150  17.802   6.120
 4441POPC   C2B58220  28.209  17.641   6.512
 4441POPC   C3B58221  28.315  17.701   6.869
 4441POPC   C4B58222  27.992  17.729   7.113
 4442POPC   NC358223  37.032   0.297   5.317
 4442POPC   PO458224  36.600   0.792   5.556
 4442POPC   GL158225  36.907   0.755   5.839
 4442POPC   GL258226  36.955   0.396   5.813
 4442POPC   C1A58227  36.899   0.668   6.283
 4442POPC   D2A58228  36.934   0.351   6.604
 4442POPC   C3A58229  36.690   0.313   6.982
 4442POPC   C4A58230  36.702   0.591   7.344
 4442POPC   C1B58231  37.107   0.118   6.139
 4442POPC   C2B58232  37.394   0.166   6.479
 4442POPC   C3B58233  37.358   0.219   6.909
 4442POPC   C4B58234  37.095   0.117   7.249
 4443POPC   NC358235  11.635  24.504   5.344
 4443POPC   PO458236  11.041  24.799   5.256
 4443POPC   GL158237  11.236  24.663   5.697
 4443POPC   GL258238  11.491  24.415   5.810
 4443POPC   C1A58239  11.185  24.636   6.166
 4443POPC   D2A58240  11.377  24.791   6.565
 4443POPC   C3A58241  11.085  24.723   6.917
 4443POPC   C4A58242  11.051  24.264   7.068
 4443POPC   C1B58243  11.469  24.169   6.146
 4443POPC   C2B58244  11.608  24.134   6.538
 4443POPC   C3B58245  11.490  23.985   6.946
 4443POPC   C4B58246  11.500  24.238   7.323
 4444POPC   NC358247   3.195  43.359   5.482
 4444POPC   PO458248   3.299  43.986   5.256
 4444POPC   GL158249   3.413  43.874   5.730
 4444POPC   GL258250   3.684  43.658   5.816
 4444POPC   C1A58251   3.414  44.002   6.200
 4444POPC   D2A58252   3.212  44.106   6.616
 4444POPC   C3A58253   3.443  43.940   6.971
 4444POPC   C4A58254   3.871  44.010   7.054
 4444POPC   C1B58255   3.504  43.511   6.180
 4444POPC   C2B58256   3.643  43.679   6.555
 4444POPC   C3B58257   3.783  43.498   6.894
 4444POPC   C4B58258   3.465  43.436   7.153
 4445POPC   NC358259  29.547  22.384   5.521
 4445POPC   PO458260  29.864  21.958   5.136
 4445POPC   GL158261  29.960  22.154   5.675
 4445POPC   GL258262  29.710  22.121   5.945
 4445POPC   C1A58263  30.139  22.341   6.097
 4445POPC   D2A58264  30.023  22.536   6.488
 4445POPC   C3A58265  29.898  22.271   6.839
 4445POPC   C4A58266  29.946  22.483   7.215
 4445POPC   C1B58267  29.640  22.170   6.380
 4445POPC   C2B58268  29.279  22.015   6.639
 4445POPC   C3B58269  29.320  21.962   7.052
 4445POPC   C4B58270  29.662  22.030   7.311
 4446POPC   NC358271  23.747  22.989   5.008
 4446POPC   PO458272  23.735  23.265   5.600
 4446POPC   GL158273  23.767  23.167   5.962
 4446POPC   GL258274  24.058  23.364   5.980
 4446POPC   C1A58275  23.551  22.937   6.278
 4446POPC   D2A58276  23.262  22.829   6.591
 4446POPC   C3A58277  23.446  22.710   6.966
 4446POPC   C4A58278  23.832  22.644   7.191
 4446POPC   C1B58279  23.905  23.389   6.398
 4446POPC   C2B58280  23.771  23.102   6.704
 4446POPC   C3B58281  23.715  23.120   7.110
 4446POPC   C4B58282  23.715  23.440   7.371
 4447POPC   NC358283  36.153   4.712   5.505
 4447POPC   PO458284  35.727   4.108   5.408
 4447POPC   GL158285  36.122   4.206   5.666
 4447POPC   GL258286  35.885   4.409   5.810
 4447POPC   C1A58287  36.327   4.404   6.069
 4447POPC   D2A58288  36.213   4.633   6.436
 4447POPC   C3A58289  36.266   4.377   6.799
 4447POPC   C4A58290  36.164   4.417   7.213
 4447POPC   C1B58291  35.750   4.133   6.095
 4447POPC   C2B58292  35.876   4.215   6.500
 4447POPC   C3B58293  35.867   4.080   6.912
 4447POPC   C4B58294  35.531   3.950   7.102
 4448POPC   NC358295  32.538   6.428   5.578
 4448POPC   PO458296  31.958   6.662   5.121
 4448POPC   GL158297  32.133   6.774   5.609
 4448POPC   GL258298  31.984   7.001   5.879
 4448POPC   C1A58299  32.135   6.551   6.070
 4448POPC   D2A58300  32.258   6.411   6.509
 4448POPC   C3A58301  32.148   6.516   6.921
 4448POPC   C4A58302  32.467   6.438   7.202
 4448POPC   C1B58303  32.227   6.979   6.332
 4448POPC   C2B58304  32.292   6.999   6.817
 4448POPC   C3B58305  32.254   6.895   7.285
 4448POPC   C4B58306  31.909   6.884   7.596
 4449POPC   NC358307   6.963  37.347   5.453
 4449POPC   PO458308   6.672  38.005   5.214
 4449POPC   GL158309   6.615  37.697   5.620
 4449POPC   GL258310   6.436  37.369   5.621
 4449POPC   C1A58311   6.749  37.575   6.085
 4449POPC   D2A58312   6.806  37.707   6.557
 4449POPC   C3A58313   6.784  37.451   6.940
 4449POPC   C4A58314   6.551  37.529   7.319
 4449POPC   C1B58315   6.246  37.565   6.014
 4449POPC   C2B58316   6.324  37.811   6.405
 4449POPC   C3B58317   6.326  37.733   6.869
 4449POPC   C4B58318   6.092  37.788   7.267
 4450POPC   NC358319  28.473  28.519   5.318
 4450POPC   PO458320  27.929  28.065   5.522
 4450POPC   GL158321  28.263  28.308   5.784
 4450POPC   GL258322  28.611  28.475   5.807
 4450POPC   C1A58323  28.392  28.208   6.211
 4450POPC   D2A58324  28.162  28.069   6.590
 4450POPC   C3A58325  28.343  28.170   6.984
 4450POPC   C4A58326  28.125  28.248   7.346
 4450POPC   C1B58327  28.672  28.662   6.206
 4450POPC   C2B58328  28.585  28.474   6.607
 4450POPC   C3B58329  28.727  28.500   7.025
 4450POPC   C4B58330  28.670  28.247   7.394
 4451POPC   NC358331  11.050  38.020   5.277
 4451POPC   PO458332  11.420  38.643   5.339
 4451POPC   GL158333  11.228  38.547   5.757
 4451POPC   GL258334  10.874  38.628   5.782
 4451POPC   C1A58335  11.173  38.338   6.185
 4451POPC   D2A58336  11.306  38.138   6.587
 4451POPC   C3A58337  11.173  38.296   6.987
 4451POPC   C4A58338  11.390  38.616   7.272
 4451POPC   C1B58339  10.970  38.834   6.179
 4451POPC   C2B58340  11.010  38.664   6.577
 4451POPC   C3B58341  10.774  38.625   6.929
 4451POPC   C4B58342  10.876  38.579   7.292
 4452POPC   NC358343   6.450  27.873   5.397
 4452POPC   PO458344   6.657  27.226   5.364
 4452POPC   GL158345   6.830  27.528   5.683
 4452POPC   GL258346   6.883  27.928   5.659
 4452POPC   C1A58347   6.679  27.420   6.114
 4452POPC   D2A58348   6.568  27.580   6.526
 4452POPC   C3A58349   6.498  27.288   6.891
 4452POPC   C4A58350   6.591  27.364   7.329
 4452POPC   C1B58351   6.970  27.834   6.087
 4452POPC   C2B58352   7.063  27.731   6.528
 4452POPC   C3B58353   6.857  27.648   6.944
 4452POPC   C4B58354   6.719  27.890   7.293
 4453POPC   NC358355  23.440  22.920   5.599
 4453POPC   PO458356  22.891  22.855   5.253
 4453POPC   GL158357  22.916  22.882   5.716
 4453POPC   GL258358  22.752  22.606   5.877
 4453POPC   C1A58359  22.976  23.060   6.160
 4453POPC   D2A58360  22.732  23.109   6.556
 4453POPC   C3A58361  22.948  23.065   6.937
 4453POPC   C4A58362  23.036  23.198   7.351
 4453POPC   C1B58363  22.891  22.580   6.324
 4453POPC   C2B58364  22.866  22.555   6.787
 4453POPC   C3B58365  23.026  22.638   7.216
 4453POPC   C4B58366  22.892  22.645   7.626
 4454POPC   NC358367   9.574  29.710   5.288
 4454POPC   PO458368   9.954  30.233   5.164
 4454POPC   GL158369   9.917  29.938   5.580
 4454POPC   GL258370   9.546  29.985   5.743
 4454POPC   C1A58371   9.909  29.821   6.054
 4454POPC   D2A58372   9.672  29.969   6.434
 4454POPC   C3A58373   9.794  29.856   6.863
 4454POPC   C4A58374  10.041  30.041   7.205
 4454POPC   C1B58375   9.253  30.098   6.118
 4454POPC   C2B58376   9.157  29.957   6.539
 4454POPC   C3B58377   9.288  29.797   6.953
 4454POPC   C4B58378   9.511  29.960   7.299
 4455POPC   NC358379  19.150  12.108   5.165
 4455POPC   PO458380  18.578  12.337   5.399
 4455POPC   GL158381  18.921  12.119   5.653
 4455POPC   GL258382  19.247  12.267   5.714
 4455POPC   C1A58383  19.048  11.917   6.057
 4455POPC   D2A58384  18.962  11.873   6.508
 4455POPC   C3A58385  18.936  12.030   6.962
 4455POPC   C4A58386  18.924  12.019   7.406
 4455POPC   C1B58387  19.305  12.362   6.184
 4455POPC   C2B58388  19.183  12.375   6.647
 4455POPC   C3B58389  19.280  12.532   7.097
 4455POPC   C4B58390  19.302  12.365   7.518
 4456POPC   NC358391  29.150  17.167   5.244
 4456POPC   PO458392  29.065  17.827   5.320
 4456POPC   GL158393  29.174  17.542   5.693
 4456POPC   GL258394  28.854  17.397   5.747
 4456POPC   C1A58395  29.279  17.442   6.152
 4456POPC   D2A58396  29.067  17.303   6.535
 4456POPC   C3A58397  29.259  17.304   6.913
 4456POPC   C4A58398  29.208  17.458   7.287
 4456POPC   C1B58399  28.841  17.697   6.093
 4456POPC   C2B58400  28.735  17.727   6.550
 4456POPC   C3B58401  28.905  17.813   6.987
 4456POPC   C4B58402  28.825  17.798   7.440
 4457POPC   NC358403  37.972  22.998   5.469
 4457POPC   PO458404  37.290  22.714   5.467
 4457POPC   GL158405  37.503  22.771   5.877
 4457POPC   GL258406  37.691  23.064   5.908
 4457POPC   C1A58407  37.623  22.797   6.334
 4457POPC   D2A58408  37.784  22.953   6.717
 4457POPC   C3A58409  37.436  23.025   7.034
 4457POPC   C4A58410  37.245  22.826   7.387
 4457POPC   C1B58411  38.026  23.102   6.214
 4457POPC   C2B58412  38.087  23.406   6.539
 4457POPC   C3B58413  38.096  23.293   6.962
 4457POPC   C4B58414  37.907  22.949   7.219
 4458POPC   NC358415   7.619   5.957   5.492
 4458POPC   PO458416   8.254   5.801   5.473
 4458POPC   GL158417   8.091   5.953   5.791
 4458POPC   GL258418   8.413   6.031   5.954
 4458POPC   C1A58419   7.985   5.837   6.177
 4458POPC   D2A58420   8.249   6.041   6.451
 4458POPC   C3A58421   8.174   5.969   6.845
 4458POPC   C4A58422   7.937   5.744   7.163
 4458POPC   C1B58423   8.440   5.620   6.205
 4458POPC   C2B58424   8.284   5.495   6.641
 4458POPC   C3B58425   8.461   5.637   7.086
 4458POPC   C4B58426   8.725   5.727   7.441
 4459POPC   NC358427  29.896  44.398   5.241
 4459POPC   PO458428  30.202  43.798   5.377
 4459POPC   GL158429  29.947  43.844   5.761
 4459POPC   GL258430  29.767  44.150   5.718
 4459POPC   C1A58431  30.022  43.984   6.178
 4459POPC   D2A58432  30.212  44.179   6.520
 4459POPC   C3A58433  30.123  44.056   6.936
 4459POPC   C4A58434  30.317  43.810   7.255
 4459POPC   C1B58435  29.581  44.241   6.128
 4459POPC   C2B58436  29.679  44.107   6.574
 4459POPC   C3B58437  29.619  44.232   6.999
 4459POPC   C4B58438  29.518  43.913   7.302
 4460POPC   NC358439   7.843   7.570   5.508
 4460POPC   PO458440   7.234   7.355   5.200
 4460POPC   GL158441   7.286   7.390   5.676
 4460POPC   GL258442   7.423   7.142   5.868
 4460POPC   C1A58443   7.435   7.582   6.114
 4460POPC   D2A58444   7.639   7.509   6.569
 4460POPC   C3A58445   7.514   7.526   7.050
 4460POPC   C4A58446   7.583   7.591   7.526
 4460POPC   C1B58447   7.317   7.118   6.307
 4460POPC   C2B58448   7.091   6.951   6.653
 4460POPC   C3B58449   7.431   7.024   6.916
 4460POPC   C4B58450   7.566   7.077   7.313
 4461POPC   NC358451  41.927  24.782   5.261
 4461POPC   PO458452  41.320  24.742   5.308
 4461POPC   GL158453  41.501  24.619   5.695
 4461POPC   GL258454  41.673  24.298   5.669
 4461POPC   C1A58455  41.300  24.670   6.118
 4461POPC   D2A58456  41.236  24.423   6.490
 4461POPC   C3A58457  41.578  24.456   6.766
 4461POPC   C4A58458  41.464  24.566   7.149
 4461POPC   C1B58459  41.491  24.200   6.050
 4461POPC   C2B58460  41.378  23.943   6.369
 4461POPC   C3B58461  41.360  23.964   6.800
 4461POPC   C4B58462  41.628  24.079   7.149
 4462POPC   NC358463  36.755  38.229   5.061
 4462POPC   PO458464  36.910  38.778   5.386
 4462POPC   GL158465  36.986  38.611   5.816
 4462POPC   GL258466  36.820  38.817   6.068
 4462POPC   C1A58467  36.878  38.347   6.234
 4462POPC   D2A58468  36.553  38.421   6.596
 4462POPC   C3A58469  36.602  38.279   7.053
 4462POPC   C4A58470  36.594  38.345   7.549
 4462POPC   C1B58471  37.271  38.671   6.225
 4462POPC   C2B58472  37.420  38.445   6.569
 4462POPC   C3B58473  37.055  38.433   6.849
 4462POPC   C4B58474  36.985  38.538   7.283
 4463POPC   NC358475  29.161  27.805   5.451
 4463POPC   PO458476  28.681  27.424   5.675
 4463POPC   GL158477  29.036  27.567   5.933
 4463POPC   GL258478  29.398  27.661   5.861
 4463POPC   C1A58479  28.914  27.696   6.347
 4463POPC   D2A58480  28.683  27.971   6.626
 4463POPC   C3A58481  28.826  27.919   7.032
 4463POPC   C4A58482  29.100  27.615   7.210
 4463POPC   C1B58483  29.348  27.948   6.171
 4463POPC   C2B58484  29.238  28.004   6.598
 4463POPC   C3B58485  29.403  27.884   6.930
 4463POPC   C4B58486  29.660  27.567   7.128
 4464POPC   NC358487  26.351  35.351   5.419
 4464POPC   PO458488  25.721  35.090   5.434
 4464POPC   GL158489  25.982  35.317   5.771
 4464POPC   GL258490  25.795  35.540   5.941
 4464POPC   C1A58491  26.273  35.442   6.166
 4464POPC   D2A58492  26.514  35.472   6.592
 4464POPC   C3A58493  26.342  35.291   7.008
 4464POPC   C4A58494  26.240  35.464   7.411
 4464POPC   C1B58495  25.815  35.443   6.368
 4464POPC   C2B58496  25.967  35.247   6.690
 4464POPC   C3B58497  25.848  35.425   7.083
 4464POPC   C4B58498  25.613  35.639   7.379
 4465POPC   NC358499  33.007   4.751   5.195
 4465POPC   PO458500  32.745   5.360   5.272
 4465POPC   GL158501  32.831   5.394   5.747
 4465POPC   GL258502  33.158   5.210   5.822
 4465POPC   C1A58503  32.712   5.122   6.122
 4465POPC   D2A58504  32.799   4.969   6.546
 4465POPC   C3A58505  32.696   5.048   7.004
 4465POPC   C4A58506  32.794   5.351   7.341
 4465POPC   C1B58507  33.162   4.870   6.126
 4465POPC   C2B58508  33.201   4.655   6.523
 4465POPC   C3B58509  33.152   4.833   6.935
 4465POPC   C4B58510  33.130   4.930   7.372
 4466POPC   NC358511   4.744  15.079   5.426
 4466POPC   PO458512   5.351  14.986   5.493
 4466POPC   GL158513   5.134  15.195   5.837
 4466POPC   GL258514   4.865  14.927   5.891
 4466POPC   C1A58515   5.351  15.422   6.208
 4466POPC   D2A58516   5.462  15.649   6.601
 4466POPC   C3A58517   5.481  15.368   6.992
 4466POPC   C4A58518   5.260  15.010   7.193
 4466POPC   C1B58519   4.973  15.045   6.314
 4466POPC   C2B58520   4.941  15.429   6.543
 4466POPC   C3B58521   4.965  15.469   6.969
 4466POPC   C4B58522   4.806  15.204   7.269
 4467POPC   NC358523  18.674   9.117   5.491
 4467POPC   PO458524  18.034   8.861   5.324
 4467POPC   GL158525  18.236   9.001   5.725
 4467POPC   GL258526  18.355   9.360   5.778
 4467POPC   C1A58527  18.359   8.808   6.122
 4467POPC   D2A58528  18.132   8.711   6.509
 4467POPC   C3A58529  18.370   8.866   6.845
 4467POPC   C4A58530  18.424   8.632   7.194
 4467POPC   C1B58531  18.563   9.313   6.176
 4467POPC   C2B58532  18.239   9.216   6.460
 4467POPC   C3B58533  17.980   9.352   6.806
 4467POPC   C4B58534  18.015   9.115   7.167
 4468POPC   NC358535  37.775  20.209   5.534
 4468POPC   PO458536  37.451  19.771   5.165
 4468POPC   GL158537  37.374  19.882   5.649
 4468POPC   GL258538  37.636  19.903   5.958
 4468POPC   C1A58539  37.171  19.923   6.097
 4468POPC   D2A58540  37.104  19.769   6.524
 4468POPC   C3A58541  37.284  19.925   6.859
 4468POPC   C4A58542  37.564  19.920   7.159
 4468POPC   C1B58543  37.588  19.957   6.418
 4468POPC   C2B58544  37.844  19.807   6.752
 4468POPC   C3B58545  38.092  19.771   7.128
 4468POPC   C4B58546  38.304  19.635   7.514
 4469POPC   NC358547  25.479  26.509   5.511
 4469POPC   PO458548  25.041  27.023   5.473
 4469POPC   GL158549  25.098  26.766   5.807
 4469POPC   GL258550  24.991  26.437   5.722
 4469POPC   C1A58551  25.227  26.901   6.236
 4469POPC   D2A58552  25.491  27.087   6.577
 4469POPC   C3A58553  25.312  26.894   6.930
 4469POPC   C4A58554  24.963  27.076   7.177
 4469POPC   C1B58555  25.196  26.371   6.128
 4469POPC   C2B58556  25.024  26.456   6.508
 4469POPC   C3B58557  25.190  26.373   6.916
 4469POPC   C4B58558  25.607  26.427   7.115
 4470POPC   NC358559   7.464  44.742   5.555
 4470POPC   PO458560   7.137  44.191   5.558
 4470POPC   GL158561   7.090  44.455   5.889
 4470POPC   GL258562   7.104  44.831   5.916
 4470POPC   C1A58563   7.188  44.483   6.321
 4470POPC   D2A58564   7.546  44.506   6.561
 4470POPC   C3A58565   7.445  44.538   6.974
 4470POPC   C4A58566   7.784  44.437   7.163
 4470POPC   C1B58567   7.461  44.911   6.231
 4470POPC   C2B58568   7.429  44.984   6.688
 4470POPC   C3B58569   7.332   0.004   7.133
 4470POPC   C4B58570   7.211   0.111   7.561
 4471POPC   NC358571  33.177   5.478   5.370
 4471POPC   PO458572  32.765   5.943   5.616
 4471POPC   GL158573  32.965   5.910   5.941
 4471POPC   GL258574  33.248   5.728   5.856
 4471POPC   C1A58575  32.853   5.917   6.339
 4471POPC   D2A58576  33.071   5.810   6.688
 4471POPC   C3A58577  32.828   5.741   6.976
 4471POPC   C4A58578  32.778   6.050   7.253
 4471POPC   C1B58579  33.099   5.482   6.235
 4471POPC   C2B58580  33.153   5.305   6.650
 4471POPC   C3B58581  33.229   5.414   7.045
 4471POPC   C4B58582  33.228   5.768   7.298
 4472POPC   NC358583  12.824  29.372   5.151
 4472POPC   PO458584  12.163  29.207   5.253
 4472POPC   GL158585  12.080  29.152   5.739
 4472POPC   GL258586  11.780  29.342   5.839
 4472POPC   C1A58587  11.984  29.011   6.191
 4472POPC   D2A58588  12.171  28.924   6.585
 4472POPC   C3A58589  11.918  29.023   6.960
 4472POPC   C4A58590  12.182  29.034   7.302
 4472POPC   C1B58591  12.010  29.526   6.196
 4472POPC   C2B58592  12.023  29.413   6.630
 4472POPC   C3B58593  12.196  29.455   7.018
 4472POPC   C4B58594  12.017  29.515   7.424
 4473POPC   NC358595  38.278   4.411   5.367
 4473POPC   PO458596  38.924   4.424   5.376
 4473POPC   GL158597  38.633   4.482   5.776
 4473POPC   GL258598  38.254   4.573   5.848
 4473POPC   C1A58599  38.545   4.437   6.231
 4473POPC   D2A58600  38.477   4.720   6.584
 4473POPC   C3A58601  38.662   4.536   6.960
 4473POPC   C4A58602  38.693   4.237   7.309
 4473POPC   C1B58603  38.019   4.358   6.201
 4473POPC   C2B58604  38.155   4.308   6.591
 4473POPC   C3B58605  38.256   4.215   6.990
 4473POPC   C4B58606  38.218   4.085   7.389
 4474POPC   NC358607   8.902  31.275   5.259
 4474POPC   PO458608   9.385  31.760   5.106
 4474POPC   GL158609   9.177  31.672   5.570
 4474POPC   GL258610   8.832  31.558   5.674
 4474POPC   C1A58611   9.230  31.472   6.023
 4474POPC   D2A58612   9.434  31.422   6.449
 4474POPC   C3A58613   9.243  31.525   6.843
 4474POPC   C4A58614   9.254  31.447   7.262
 4474POPC   C1B58615   8.725  31.555   6.114
 4474POPC   C2B58616   8.854  31.660   6.521
 4474POPC   C3B58617   8.743  31.637   6.947
 4474POPC   C4B58618   8.719  31.380   7.296
 4475POPC   NC358619  13.940  25.354   5.574
 4475POPC   PO458620  13.315  25.135   5.549
 4475POPC   GL158621  13.588  25.134   5.873
 4475POPC   GL258622  13.570  25.494   5.909
 4475POPC   C1A58623  13.771  25.144   6.288
 4475POPC   D2A58624  13.984  25.040   6.666
 4475POPC   C3A58625  13.754  25.257   6.942
 4475POPC   C4A58626  13.387  25.188   7.124
 4475POPC   C1B58627  13.916  25.605   6.175
 4475POPC   C2B58628  13.777  25.622   6.576
 4475POPC   C3B58629  13.897  25.755   6.959
 4475POPC   C4B58630  13.784  25.588   7.334
 4476POPC   NC358631  21.661   3.434   5.504
 4476POPC   PO458632  21.205   3.837   5.249
 4476POPC   GL158633  21.357   3.740   5.741
 4476POPC   GL258634  21.396   3.424   5.949
 4476POPC   C1A58635  21.274   3.816   6.223
 4476POPC   D2A58636  21.287   3.446   6.511
 4476POPC   C3A58637  21.359   3.527   6.936
 4476POPC   C4A58638  21.764   3.609   7.091
 4476POPC   C1B58639  21.715   3.513   6.243
 4476POPC   C2B58640  21.814   3.322   6.631
 4476POPC   C3B58641  21.691   3.112   6.995
 4476POPC   C4B58642  21.892   3.023   7.404
 4477POPC   NC358643   7.603  34.487   5.377
 4477POPC   PO458644   7.303  35.026   5.385
 4477POPC   GL158645   7.488  34.891   5.752
 4477POPC   GL258646   7.367  34.580   5.813
 4477POPC   C1A58647   7.439  34.913   6.230
 4477POPC   D2A58648   7.578  35.040   6.660
 4477POPC   C3A58649   7.413  34.809   7.005
 4477POPC   C4A58650   7.227  34.607   7.419
 4477POPC   C1B58651   7.290  34.408   6.199
 4477POPC   C2B58652   7.410  34.252   6.594
 4477POPC   C3B58653   7.339  34.307   7.018
 4477POPC   C4B58654   7.181  34.107   7.379
 4478POPC   NC358655  32.370  34.300   5.505
 4478POPC   PO458656  32.004  33.694   5.532
 4478POPC   GL158657  32.184  33.820   5.931
 4478POPC   GL258658  32.483  34.021   5.919
 4478POPC   C1A58659  32.051  34.007   6.336
 4478POPC   D2A58660  32.110  34.042   6.802
 4478POPC   C3A58661  32.296  33.733   7.062
 4478POPC   C4A58662  32.253  33.800   7.498
 4478POPC   C1B58663  32.539  33.866   6.331
 4478POPC   C2B58664  32.623  34.029   6.716
 4478POPC   C3B58665  32.644  34.132   7.114
 4478POPC   C4B58666  32.735  33.898   7.455
 4479POPC   NC358667  15.581   2.136   5.378
 4479POPC   PO458668  14.918   2.106   5.275
 4479POPC   GL158669  14.969   2.050   5.731
 4479POPC   GL258670  15.322   1.956   5.848
 4479POPC   C1A58671  14.905   1.912   6.165
 4479POPC   D2A58672  15.296   1.887   6.420
 4479POPC   C3A58673  15.247   1.886   6.874
 4479POPC   C4A58674  14.894   1.910   7.184
 4479POPC   C1B58675  15.477   2.286   6.144
 4479POPC   C2B58676  15.459   2.423   6.572
 4479POPC   C3B58677  15.305   2.393   6.988
 4479POPC   C4B58678  15.243   2.212   7.385
 4480POPC   NC358679   2.839   2.410   5.178
 4480POPC   PO458680   2.816   3.034   5.354
 4480POPC   GL158681   2.665   2.785   5.754
 4480POPC   GL258682   2.697   2.389   5.733
 4480POPC   C1A58683   2.522   2.802   6.225
 4480POPC   D2A58684   2.328   2.927   6.656
 4480POPC   C3A58685   2.521   2.985   7.108
 4480POPC   C4A58686   3.004   3.005   7.192
 4480POPC   C1B58687   2.909   2.482   6.110
 4480POPC   C2B58688   2.990   2.693   6.461
 4480POPC   C3B58689   2.814   2.688   6.831
 4480POPC   C4B58690   2.766   2.535   7.240
 4481POPC   NC358691   9.439  27.390   5.519
 4481POPC   PO458692  10.085  27.606   5.503
 4481POPC   GL158693   9.821  27.594   5.855
 4481POPC   GL258694   9.794  27.232   5.873
 4481POPC   C1A58695   9.614  27.668   6.252
 4481POPC   D2A58696   9.452  27.745   6.664
 4481POPC   C3A58697   9.444  27.349   6.880
 4481POPC   C4A58698   9.388  27.326   7.329
 4481POPC   C1B58699   9.990  27.284   6.255
 4481POPC   C2B58700   9.897  27.470   6.652
 4481POPC   C3B58701   9.896  27.398   7.090
 4481POPC   C4B58702  10.169  27.213   7.360
 4482POPC   NC358703  29.615  29.844   5.094
 4482POPC   PO458704  29.214  29.785   5.645
 4482POPC   GL158705  29.063  30.087   5.903
 4482POPC   GL258706  28.981  29.836   6.135
 4482POPC   C1A58707  29.225  30.258   6.278
 4482POPC   D2A58708  28.926  30.105   6.555
 4482POPC   C3A58709  29.035  29.899   6.930
 4482POPC   C4A58710  28.913  30.100   7.295
 4482POPC   C1B58711  29.398  29.745   6.319
 4482POPC   C2B58712  29.634  29.665   6.714
 4482POPC   C3B58713  29.486  29.690   7.127
 4482POPC   C4B58714  29.146  29.670   7.440
 4483POPC   NC358715   1.754   3.943   5.268
 4483POPC   PO458716   2.137   4.475   5.353
 4483POPC   GL158717   1.938   4.381   5.779
 4483POPC   GL258718   1.778   4.067   5.786
 4483POPC   C1A58719   1.964   4.522   6.215
 4483POPC   D2A58720   2.163   4.401   6.608
 4483POPC   C3A58721   1.949   4.457   7.016
 4483POPC   C4A58722   1.882   4.421   7.497
 4483POPC   C1B58723   1.615   4.116   6.219
 4483POPC   C2B58724   1.746   4.125   6.658
 4483POPC   C3B58725   1.568   4.127   7.086
 4483POPC   C4B58726   1.407   4.259   7.512
 4484POPC   NC358727  19.407  39.862   5.317
 4484POPC   PO458728  18.970  40.433   5.511
 4484POPC   GL158729  18.925  40.082   5.773
 4484POPC   GL258730  19.248  39.932   5.808
 4484POPC   C1A58731  18.768  39.899   6.144
 4484POPC   D2A58732  18.600  39.762   6.517
 4484POPC   C3A58733  18.712  39.979   6.887
 4484POPC   C4A58734  18.940  39.792   7.195
 4484POPC   C1B58735  19.228  40.209   6.179
 4484POPC   C2B58736  19.068  40.252   6.592
 4484POPC   C3B58737  19.238  40.151   6.975
 4484POPC   C4B58738  19.418  39.744   7.043
 4485POPC   NC358739  10.254  27.147   5.562
 4485POPC   PO458740   9.599  26.955   5.490
 4485POPC   GL158741   9.721  26.702   5.796
 4485POPC   GL258742   9.487  26.436   5.832
 4485POPC   C1A58743   9.942  26.769   6.185
 4485POPC   D2A58744   9.793  26.950   6.585
 4485POPC   C3A58745   9.959  26.891   6.972
 4485POPC   C4A58746   9.728  26.956   7.326
 4485POPC   C1B58747   9.473  26.606   6.263
 4485POPC   C2B58748   9.577  26.480   6.691
 4485POPC   C3B58749   9.705  26.471   7.134
 4485POPC   C4B58750   9.555  26.560   7.575
 4486POPC   NC358751   4.971  32.171   5.377
 4486POPC   PO458752   5.461  31.769   5.375
 4486POPC   GL158753   5.340  32.002   5.804
 4486POPC   GL258754   5.617  32.055   6.030
 4486POPC   C1A58755   5.178  32.208   6.241
 4486POPC   D2A58756   5.243  32.384   6.665
 4486POPC   C3A58757   5.034  32.290   7.053
 4486POPC   C4A58758   4.888  32.178   7.469
 4486POPC   C1B58759   5.396  31.781   6.386
 4486POPC   C2B58760   5.151  31.846   6.786
 4486POPC   C3B58761   5.194  31.778   7.263
 4486POPC   C4B58762   5.236  31.912   7.744
 4487POPC   NC358763  10.879  28.462   5.239
 4487POPC   PO458764  10.384  28.029   5.272
 4487POPC   GL158765  10.653  28.231   5.636
 4487POPC   GL258766  10.681  28.584   5.778
 4487POPC   C1A58767  10.739  28.189   6.092
 4487POPC   D2A58768  10.464  28.160   6.465
 4487POPC   C3A58769  10.612  28.100   6.886
 4487POPC   C4A58770  10.473  28.346   7.216
 4487POPC   C1B58771  10.508  28.639   6.218
 4487POPC   C2B58772  10.580  28.722   6.669
 4487POPC   C3B58773  10.502  28.820   7.122
 4487POPC   C4B58774  10.576  28.876   7.602
 4488POPC   NC358775  35.002   9.728   5.128
 4488POPC   PO458776  34.335   9.916   5.089
 4488POPC   GL158777  34.496   9.848   5.535
 4488POPC   GL258778  34.699  10.157   5.615
 4488POPC   C1A58779  34.496   9.772   6.023
 4488POPC   D2A58780  34.665   9.587   6.454
 4488POPC   C3A58781  34.463   9.691   6.858
 4488POPC   C4A58782  34.504   9.565   7.296
 4488POPC   C1B58783  34.634  10.268   6.068
 4488POPC   C2B58784  34.449  10.070   6.476
 4488POPC   C3B58785  34.669  10.157   6.880
 4488POPC   C4B58786  34.878   9.938   7.190
 4489POPC   NC358787   6.962  13.066   5.420
 4489POPC   PO458788   6.629  12.564   5.708
 4489POPC   GL158789   6.672  13.035   5.850
 4489POPC   GL258790   6.381  13.260   5.737
 4489POPC   C1A58791   6.863  13.248   6.230
 4489POPC   D2A58792   6.932  13.190   6.685
 4489POPC   C3A58793   6.997  12.754   6.859
 4489POPC   C4A58794   6.890  12.737   7.298
 4489POPC   C1B58795   6.225  13.038   6.119
 4489POPC   C2B58796   6.301  12.884   6.558
 4489POPC   C3B58797   6.500  12.868   6.966
 4489POPC   C4B58798   6.426  12.981   7.392
 4490POPC   NC358799  32.971  43.439   5.426
 4490POPC   PO458800  32.830  44.195   5.361
 4490POPC   GL158801  32.814  44.107   5.818
 4490POPC   GL258802  32.881  43.744   5.856
 4490POPC   C1A58803  33.022  44.124   6.257
 4490POPC   D2A58804  33.266  43.859   6.576
 4490POPC   C3A58805  33.082  43.880   7.007
 4490POPC   C4A58806  33.357  43.937   7.351
 4490POPC   C1B58807  32.774  43.519   6.243
 4490POPC   C2B58808  32.853  43.555   6.671
 4490POPC   C3B58809  32.713  43.421   7.057
 4490POPC   C4B58810  32.592  43.763   7.259
 4491POPC   NC358811  16.156  31.023   5.519
 4491POPC   PO458812  15.698  30.630   5.397
 4491POPC   GL158813  15.873  30.704   5.787
 4491POPC   GL258814  16.035  30.408   5.732
 4491POPC   C1A58815  15.927  30.810   6.251
 4491POPC   D2A58816  16.216  30.933   6.606
 4491POPC   C3A58817  16.055  31.084   7.000
 4491POPC   C4A58818  15.669  30.938   7.177
 4491POPC   C1B58819  15.785  30.326   6.107
 4491POPC   C2B58820  15.820  30.406   6.556
 4491POPC   C3B58821  16.076  30.439   6.917
 4491POPC   C4B58822  16.095  30.663   7.288
 4492POPC   NC358823   0.471  16.097   5.397
 4492POPC   PO458824   0.585  15.451   5.499
 4492POPC   GL158825   0.385  15.754   5.806
 4492POPC   GL258826   0.560  16.075   5.902
 4492POPC   C1A58827   0.297  15.824   6.261
 4492POPC   D2A58828   0.492  15.962   6.629
 4492POPC   C3A58829   0.328  15.795   7.013
 4492POPC   C4A58830   0.546  15.744   7.395
 4492POPC   C1B58831   0.397  16.349   6.248
 4492POPC   C2B58832   0.484  16.489   6.691
 4492POPC   C3B58833   0.594  16.230   7.076
 4492POPC   C4B58834   0.268  16.207   7.396
 4493POPC   NC358835  16.828  40.556   5.264
 4493POPC   PO458836  16.293  40.593   5.624
 4493POPC   GL158837  16.771  40.649   5.759
 4493POPC   GL258838  16.960  40.355   5.843
 4493POPC   C1A58839  17.085  40.733   6.154
 4493POPC   D2A58840  17.199  40.963   6.568
 4493POPC   C3A58841  17.049  40.826   6.993
 4493POPC   C4A58842  16.829  40.968   7.367
 4493POPC   C1B58843  16.666  40.444   6.191
 4493POPC   C2B58844  16.820  40.573   6.586
 4493POPC   C3B58845  16.914  40.316   6.927
 4493POPC   C4B58846  17.059  40.199   7.302
 4494POPC   NC358847  20.602   4.205   5.472
 4494POPC   PO458848  20.110   4.653   5.403
 4494POPC   GL158849  20.409   4.602   5.801
 4494POPC   GL258850  20.669   4.330   5.957
 4494POPC   C1A58851  20.311   4.544   6.254
 4494POPC   D2A58852  20.143   4.320   6.619
 4494POPC   C3A58853  20.299   4.480   7.021
 4494POPC   C4A58854  20.715   4.464   7.196
 4494POPC   C1B58855  20.697   3.968   6.270
 4494POPC   C2B58856  20.718   4.057   6.731
 4494POPC   C3B58857  20.541   3.988   7.132
 4494POPC   C4B58858  20.693   3.920   7.531
 4495POPC   NC358859  10.133  32.173   5.394
 4495POPC   PO458860  10.781  32.257   5.429
 4495POPC   GL158861  10.738  32.470   5.804
 4495POPC   GL258862  10.375  32.420   5.783
 4495POPC   C1A58863  10.830  32.345   6.243
 4495POPC   D2A58864  10.556  32.205   6.629
 4495POPC   C3A58865  10.616  31.945   7.001
 4495POPC   C4A58866  10.794  32.282   7.201
 4495POPC   C1B58867  10.318  32.251   6.189
 4495POPC   C2B58868  10.031  32.222   6.565
 4495POPC   C3B58869  10.117  32.123   7.023
 4495POPC   C4B58870  10.317  32.236   7.425
 4496POPC   NC358871  20.726  18.476   5.297
 4496POPC   PO458872  20.810  17.904   5.694
 4496POPC   GL158873  20.749  18.349   5.806
 4496POPC   GL258874  20.396  18.435   5.906
 4496POPC   C1A58875  20.769  18.579   6.205
 4496POPC   D2A58876  20.436  18.551   6.521
 4496POPC   C3A58877  20.537  18.343   6.917
 4496POPC   C4A58878  20.831  18.212   7.260
 4496POPC   C1B58879  20.468  18.101   6.231
 4496POPC   C2B58880  20.701  17.802   6.522
 4496POPC   C3B58881  20.632  17.832   6.972
 4496POPC   C4B58882  20.357  18.034   7.291
 4497POPC   NC358883  22.500  26.104   5.504
 4497POPC   PO458884  21.937  26.235   5.415
 4497POPC   GL158885  21.934  25.804   5.636
 4497POPC   GL258886  22.286  25.699   5.749
 4497POPC   C1A58887  21.903  25.653   6.083
 4497POPC   D2A58888  22.068  25.902   6.412
 4497POPC   C3A58889  22.184  25.883   6.863
 4497POPC   C4A58890  22.000  25.939   7.276
 4497POPC   C1B58891  22.484  25.890   6.139
 4497POPC   C2B58892  22.478  26.197   6.490
 4497POPC   C3B58893  22.475  26.309   6.920
 4497POPC   C4B58894  22.513  26.019   7.258
 4498POPC   NC358895   0.034  25.763   5.314
 4498POPC   PO458896  44.403  26.226   5.317
 4498POPC   GL158897  44.517  26.023   5.730
 4498POPC   GL258898  44.884  25.930   5.793
 4498POPC   C1A58899  44.550  26.214   6.157
 4498POPC   D2A58900  44.429  26.033   6.549
 4498POPC   C3A58901  44.518  26.221   6.952
 4498POPC   C4A58902  44.360  26.021   7.313
 4498POPC   C1B58903   0.047  26.154   6.180
 4498POPC   C2B58904  44.907  26.201   6.615
 4498POPC   C3B58905   0.030  26.164   7.063
 4498POPC   C4B58906  44.945  26.121   7.536
 4499POPC   NC358907  31.053   9.181   5.453
 4499POPC   PO458908  30.567   8.717   5.427
 4499POPC   GL158909  30.681   8.996   5.793
 4499POPC   GL258910  30.599   9.334   5.698
 4499POPC   C1A58911  30.764   8.991   6.254
 4499POPC   D2A58912  30.582   8.963   6.657
 4499POPC   C3A58913  30.802   8.825   7.062
 4499POPC   C4A58914  30.913   8.788   7.554
 4499POPC   C1B58915  30.822   9.455   6.072
 4499POPC   C2B58916  30.745   9.491   6.540
 4499POPC   C3B58917  30.637   9.350   6.968
 4499POPC   C4B58918  30.648   9.166   7.401
 4500POPC   NC358919   7.149  21.749   5.059
 4500POPC   PO458920   7.112  22.322   5.466
 4500POPC   GL158921   7.420  22.192   5.801
 4500POPC   GL258922   7.503  21.833   5.792
 4500POPC   C1A58923   7.564  22.202   6.248
 4500POPC   D2A58924   7.288  22.139   6.618
 4500POPC   C3A58925   7.372  22.228   7.070
 4500POPC   C4A58926   7.741  22.249   7.379
 4500POPC   C1B58927   7.182  21.877   6.159
 4500POPC   C2B58928   7.114  21.648   6.526
 4500POPC   C3B58929   7.262  21.724   6.931
 4500POPC   C4B58930   7.080  21.860   7.293
 4501POPC   NC358931   3.048  30.933   5.116
 4501POPC   PO458932   2.639  30.428   5.299
 4501POPC   GL158933   2.735  30.558   5.780
 4501POPC   GL258934   2.626  30.890   5.923
 4501POPC   C1A58935   2.795  30.493   6.248
 4501POPC   D2A58936   2.644  30.598   6.659
 4501POPC   C3A58937   2.782  30.458   7.017
 4501POPC   C4A58938   3.048  30.480   7.323
 4501POPC   C1B58939   2.686  31.023   6.367
 4501POPC   C2B58940   2.973  30.981   6.712
 4501POPC   C3B58941   3.024  30.987   7.147
 4501POPC   C4B58942   2.839  31.282   7.463
 4502POPC   NC358943  35.419   3.227   5.506
 4502POPC   PO458944  34.880   3.576   5.377
 4502POPC   GL158945  35.142   3.519   5.803
 4502POPC   GL258946  35.468   3.698   5.818
 4502POPC   C1A58947  35.311   3.296   6.208
 4502POPC   D2A58948  35.506   3.104   6.618
 4502POPC   C3A58949  35.349   3.316   7.011
 4502POPC   C4A58950  35.125   3.689   7.169
 4502POPC   C1B58951  35.711   3.627   6.223
 4502POPC   C2B58952  35.662   3.631   6.678
 4502POPC   C3B58953  35.882   3.594   7.067
 4502POPC   C4B58954  35.736   3.677   7.487
 4503POPC   NC358955  10.328  35.071   5.532
 4503POPC   PO458956  10.519  35.713   5.466
 4503POPC   GL158957  10.700  35.444   5.803
 4503POPC   GL258958  10.830  35.104   5.742
 4503POPC   C1A58959  10.505  35.377   6.211
 4503POPC   D2A58960  10.278  35.646   6.497
 4503POPC   C3A58961  10.428  35.621   6.913
 4503POPC   C4A58962  10.441  35.495   7.324
 4503POPC   C1B58963  10.737  34.931   6.176
 4503POPC   C2B58964  10.596  34.913   6.604
 4503POPC   C3B58965  10.790  34.797   7.012
 4503POPC   C4B58966  10.718  35.050   7.393
 4504POPC   NC358967  11.801  20.139   5.442
 4504POPC   PO458968  12.277  19.683   5.351
 4504POPC   GL158969  12.121  19.776   5.737
 4504POPC   GL258970  12.293  20.074   5.912
 4504POPC   C1A58971  12.207  19.614   6.158
 4504POPC   D2A58972  12.234  19.425   6.573
 4504POPC   C3A58973  12.229  19.736   6.860
 4504POPC   C4A58974  11.993  19.863   7.166
 4504POPC   C1B58975  11.889  20.023   6.115
 4504POPC   C2B58976  11.809  19.874   6.532
 4504POPC   C3B58977  11.821  20.183   6.814
 4504POPC   C4B58978  11.878  20.348   7.205
 4505POPC   NC358979   1.503  39.289   5.506
 4505POPC   PO458980   0.891  38.934   5.330
 4505POPC   GL158981   1.093  38.924   5.811
 4505POPC   GL258982   1.432  38.994   5.889
 4505POPC   C1A58983   1.232  38.849   6.307
 4505POPC   D2A58984   1.153  39.179   6.591
 4505POPC   C3A58985   1.083  39.176   6.977
 4505POPC   C4A58986   1.078  39.396   7.342
 4505POPC   C1B58987   1.456  39.361   6.214
 4505POPC   C2B58988   1.472  39.616   6.627
 4505POPC   C3B58989   1.513  39.508   7.083
 4505POPC   C4B58990   1.510  39.538   7.578
 4506POPC   NC358991  29.904  43.443   5.416
 4506POPC   PO458992  30.042  42.813   5.451
 4506POPC   GL158993  29.780  43.060   5.814
 4506POPC   GL258994  29.675  43.409   5.870
 4506POPC   C1A58995  29.657  43.086   6.276
 4506POPC   D2A58996  29.752  43.208   6.707
 4506POPC   C3A58997  30.082  43.034   7.026
 4506POPC   C4A58998  30.327  42.820   7.396
 4506POPC   C1B58999  30.017  43.468   6.178
 4506POPC   C2B59000  29.979  43.677   6.587
 4506POPC   C3B59001  29.961  43.555   6.999
 4506POPC   C4B59002  29.600  43.356   7.199
 4507POPC   NC359003  21.603  30.892   5.474
 4507POPC   PO459004  21.262  30.339   5.285
 4507POPC   GL159005  21.253  30.483   5.701
 4507POPC   GL259006  21.590  30.410   5.819
 4507POPC   C1A59007  21.285  30.749   6.083
 4507POPC   D2A59008  21.251  30.668   6.517
 4507POPC   C3A59009  21.227  31.016   6.811
 4507POPC   C4A59010  21.100  31.064   7.233
 4507POPC   C1B59011  21.689  30.477   6.275
 4507POPC   C2B59012  21.752  30.498   6.723
 4507POPC   C3B59013  21.427  30.593   7.027
 4507POPC   C4B59014  21.240  30.393   7.330
 4508POPC   NC359015   7.547   0.636   5.528
 4508POPC   PO459016   7.134   0.118   5.486
 4508POPC   GL159017   7.134   0.399   5.819
 4508POPC   GL259018   6.933   0.700   5.692
 4508POPC   C1A59019   7.346   0.414   6.231
 4508POPC   D2A59020   7.718   0.376   6.501
 4508POPC   C3A59021   7.628   0.402   6.931
 4508POPC   C4A59022   7.687   0.338   7.362
 4508POPC   C1B59023   6.903   0.711   6.154
 4508POPC   C2B59024   7.213   0.848   6.485
 4508POPC   C3B59025   7.319   0.827   6.916
 4508POPC   C4B59026   7.212   0.493   7.210
 4509POPC   NC359027  34.200  11.843   5.669
 4509POPC   PO459028  33.787  12.305   5.410
 4509POPC   GL159029  33.718  12.235   5.867
 4509POPC   GL259030  33.668  11.911   5.808
 4509POPC   C1A59031  33.891  12.094   6.295
 4509POPC   D2A59032  34.146  12.038   6.701
 4509POPC   C3A59033  34.006  12.265   7.070
 4509POPC   C4A59034  33.810  12.331   7.474
 4509POPC   C1B59035  33.573  11.707   6.172
 4509POPC   C2B59036  33.513  11.834   6.605
 4509POPC   C3B59037  33.735  11.825   6.968
 4509POPC   C4B59038  34.113  11.734   7.148
 4510POPC   NC359039  24.223  12.329   5.438
 4510POPC   PO459040  24.718  11.793   5.473
 4510POPC   GL159041  24.478  11.984   5.818
 4510POPC   GL259042  24.574  12.322   5.811
 4510POPC   C1A59043  24.250  12.073   6.213
 4510POPC   D2A59044  24.058  11.980   6.620
 4510POPC   C3A59045  24.175  12.146   7.011
 4510POPC   C4A59046  24.340  12.211   7.418
 4510POPC   C1B59047  24.404  12.547   6.186
 4510POPC   C2B59048  24.425  12.394   6.623
 4510POPC   C3B59049  24.673  12.239   7.007
 4510POPC   C4B59050  24.844  12.136   7.424
 4511POPC   NC359051  18.920   1.505   5.646
 4511POPC   PO459052  19.085   0.878   5.438
 4511POPC   GL159053  18.958   0.993   5.868
 4511POPC   GL259054  19.234   1.196   5.936
 4511POPC   C1A59055  18.987   1.047   6.362
 4511POPC   D2A59056  18.717   1.195   6.745
 4511POPC   C3A59057  18.738   1.122   7.200
 4511POPC   C4A59058  18.823   0.853   7.579
 4511POPC   C1B59059  19.536   1.051   6.260
 4511POPC   C2B59060  19.504   1.044   6.705
 4511POPC   C3B59061  19.226   1.244   6.995
 4511POPC   C4B59062  19.269   1.617   7.262
 4512POPC   NC359063  35.024  32.974   5.389
 4512POPC   PO459064  35.170  33.517   5.552
 4512POPC   GL159065  35.332  33.170   5.780
 4512POPC   GL259066  35.179  32.840   5.880
 4512POPC   C1A59067  35.565  33.079   6.139
 4512POPC   D2A59068  35.481  33.003   6.550
 4512POPC   C3A59069  35.615  33.165   6.930
 4512POPC   C4A59070  35.282  33.025   7.174
 4512POPC   C1B59071  35.495  32.579   6.145
 4512POPC   C2B59072  35.695  32.539   6.533
 4512POPC   C3B59073  35.459  32.601   6.882
 4512POPC   C4B59074  35.607  32.634   7.259
 4513POPC   NC359075  44.771  43.019   5.304
 4513POPC   PO459076  44.571  43.579   5.640
 4513POPC   GL159077  44.597  43.179   5.786
 4513POPC   GL259078  44.925  43.152   5.855
 4513POPC   C1A59079  44.519  43.233   6.221
 4513POPC   D2A59080  44.618  43.469   6.593
 4513POPC   C3A59081  44.355  43.408   6.913
 4513POPC   C4A59082  44.233  43.046   7.073
 4513POPC   C1B59083   0.047  43.091   6.279
 4513POPC   C2B59084   0.028  43.171   6.720
 4513POPC   C3B59085  44.785  43.190   7.080
 4513POPC   C4B59086  44.867  42.904   7.407
 4514POPC   NC359087   7.821  15.025   5.535
 4514POPC   PO459088   8.105  15.634   5.413
 4514POPC   GL159089   8.135  15.396   5.803
 4514POPC   GL259090   8.239  15.045   5.847
 4514POPC   C1A59091   8.125  15.349   6.250
 4514POPC   D2A59092   7.943  15.213   6.627
 4514POPC   C3A59093   8.250  15.244   6.933
 4514POPC   C4A59094   8.172  15.272   7.360
 4514POPC   C1B59095   8.086  14.844   6.227
 4514POPC   C2B59096   8.317  14.814   6.629
 4514POPC   C3B59097   8.290  14.761   7.076
 4514POPC   C4B59098   8.357  14.819   7.527
 4515POPC   NC359099  30.743  14.652   5.455
 4515POPC   PO459100  30.685  13.977   5.616
 4515POPC   GL159101  30.815  14.318   5.850
 4515POPC   GL259102  30.479  14.487   5.843
 4515POPC   C1A59103  30.892  14.367   6.292
 4515POPC   D2A59104  30.652  14.414   6.679
 4515POPC   C3A59105  30.796  14.299   7.085
 4515POPC   C4A59106  30.742  14.140   7.508
 4515POPC   C1B59107  30.391  14.269   6.195
 4515POPC   C2B59108  30.488  13.969   6.489
 4515POPC   C3B59109  30.368  14.034   6.919
 4515POPC   C4B59110  30.297  14.311   7.271
 4516POPC   NC359111  13.811  28.553   5.253
 4516POPC   PO459112  13.214  28.184   5.412
 4516POPC   GL159113  13.453  28.418   5.768
 4516POPC   GL259114  13.819  28.456   5.758
 4516POPC   C1A59115  13.350  28.512   6.198
 4516POPC   D2A59116  13.147  28.446   6.591
 4516POPC   C3A59117  13.433  28.329   6.922
 4516POPC   C4A59118  13.637  28.133   7.308
 4516POPC   C1B59119  13.820  28.291   6.186
 4516POPC   C2B59120  13.931  28.473   6.584
 4516POPC   C3B59121  13.923  28.426   7.025
 4516POPC   C4B59122  13.845  28.644   7.442
 4517POPC   NC359123   9.598  37.210   5.405
 4517POPC   PO459124  10.010  36.687   5.121
 4517POPC   GL159125   9.922  36.843   5.558
 4517POPC   GL259126   9.614  36.705   5.770
 4517POPC   C1A59127   9.972  36.982   6.007
 4517POPC   D2A59128   9.741  36.751   6.370
 4517POPC   C3A59129   9.756  36.834   6.831
 4517POPC   C4A59130   9.808  36.968   7.300
 4517POPC   C1B59131   9.474  37.070   6.041
 4517POPC   C2B59132   9.456  37.173   6.482
 4517POPC   C3B59133   9.394  37.178   6.932
 4517POPC   C4B59134   9.311  37.107   7.368
 4518POPC   NC359135   8.738  21.027   5.393
 4518POPC   PO459136   9.105  21.578   5.337
 4518POPC   GL159137   8.931  21.397   5.704
 4518POPC   GL259138   9.129  21.081   5.721
 4518POPC   C1A59139   9.091  21.462   6.140
 4518POPC   D2A59140   9.061  21.285   6.567
 4518POPC   C3A59141   8.830  21.549   6.872
 4518POPC   C4A59142   8.799  21.636   7.321
 4518POPC   C1B59143   8.867  20.996   6.068
 4518POPC   C2B59144   8.624  21.039   6.443
 4518POPC   C3B59145   8.726  21.018   6.873
 4518POPC   C4B59146   8.488  21.238   7.150
 4519POPC   NC359147  20.772  29.698   5.329
 4519POPC   PO459148  20.426  30.204   5.584
 4519POPC   GL159149  20.639  29.978   5.849
 4519POPC   GL259150  20.959  30.037   5.714
 4519POPC   C1A59151  20.686  30.070   6.298
 4519POPC   D2A59152  20.603  30.176   6.746
 4519POPC   C3A59153  20.664  29.936   7.125
 4519POPC   C4A59154  20.808  30.179   7.485
 4519POPC   C1B59155  21.017  29.716   6.075
 4519POPC   C2B59156  20.807  29.591   6.453
 4519POPC   C3B59157  20.652  29.470   6.848
 4519POPC   C4B59158  20.845  29.448   7.202
 4520POPC   NC359159  26.847  14.807   5.430
 4520POPC   PO459160  26.828  15.356   5.157
 4520POPC   GL159161  26.690  15.344   5.636
 4520POPC   GL259162  26.519  15.040   5.746
 4520POPC   C1A59163  26.873  15.256   6.101
 4520POPC   D2A59164  27.127  15.194   6.496
 4520POPC   C3A59165  26.999  15.042   6.940
 4520POPC   C4A59166  27.045  15.260   7.366
 4520POPC   C1B59167  26.448  14.980   6.166
 4520POPC   C2B59168  26.617  15.109   6.553
 4520POPC   C3B59169  26.538  14.826   6.876
 4520POPC   C4B59170  26.538  14.909   7.289
 4521POPC   NC359171   8.603  18.509   5.360
 4521POPC   PO459172   8.001  18.135   5.443
 4521POPC   GL159173   8.132  18.295   5.821
 4521POPC   GL259174   8.434  18.224   5.782
 4521POPC   C1A59175   8.222  18.575   6.156
 4521POPC   D2A59176   8.194  18.691   6.580
 4521POPC   C3A59177   8.081  18.355   6.881
 4521POPC   C4A59178   7.800  18.397   7.262
 4521POPC   C1B59179   8.618  18.114   6.139
 4521POPC   C2B59180   8.524  18.259   6.520
 4521POPC   C3B59181   8.561  18.018   6.870
 4521POPC   C4B59182   8.445  17.974   7.286
 4522POPC   NC359183   2.407  43.081   5.501
 4522POPC   PO459184   3.108  42.898   5.566
 4522POPC   GL159185   2.775  43.053   5.863
 4522POPC   GL259186   2.540  42.738   5.873
 4522POPC   C1A59187   2.725  43.269   6.294
 4522POPC   D2A59188   2.690  43.341   6.756
 4522POPC   C3A59189   3.001  43.194   7.083
 4522POPC   C4A59190   2.881  43.016   7.507
 4522POPC   C1B59191   2.792  42.749   6.280
 4522POPC   C2B59192   2.946  42.821   6.719
 4522POPC   C3B59193   2.676  42.793   7.087
 4522POPC   C4B59194   2.416  42.779   7.446
 4523POPC   NC359195   4.628  10.891   5.354
 4523POPC   PO459196   4.173  10.409   5.277
 4523POPC   GL159197   4.376  10.533   5.642
 4523POPC   GL259198   4.500  10.303   5.841
 4523POPC   C1A59199   4.208  10.680   6.067
 4523POPC   D2A59200   4.446  10.691   6.463
 4523POPC   C3A59201   4.273  10.455   6.814
 4523POPC   C4A59202   4.036  10.498   7.205
 4523POPC   C1B59203   4.312  10.227   6.258
 4523POPC   C2B59204   4.024  10.021   6.556
 4523POPC   C3B59205   4.014  10.024   6.992
 4523POPC   C4B59206   4.382  10.089   7.199
 4524POPC   NC359207  25.973  44.627   5.123
 4524POPC   PO459208  26.269   0.034   5.400
 4524POPC   GL159209  26.131  44.873   5.845
 4524POPC   GL259210  26.117  44.521   5.783
 4524POPC   C1A59211  26.236  44.868   6.331
 4524POPC   D2A59212  26.383  44.961   6.786
 4524POPC   C3A59213  26.124  44.926   7.185
 4524POPC   C4A59214  25.925   0.252   7.472
 4524POPC   C1B59215  25.924  44.480   6.211
 4524POPC   C2B59216  26.051  44.495   6.666
 4524POPC   C3B59217  25.868  44.493   7.087
 4524POPC   C4B59218  25.858  44.324   7.496
 4525POPC   NC359219  40.514  15.091   5.058
 4525POPC   PO459220  41.007  14.985   5.507
 4525POPC   GL159221  40.733  15.131   5.841
 4525POPC   GL259222  40.975  15.405   5.882
 4525POPC   C1A59223  40.512  15.129   6.268
 4525POPC   D2A59224  40.299  15.428   6.582
 4525POPC   C3A59225  40.573  15.501   6.957
 4525POPC   C4A59226  40.798  15.518   7.382
 4525POPC   C1B59227  41.071  15.138   6.234
 4525POPC   C2B59228  40.917  15.240   6.630
 4525POPC   C3B59229  41.033  15.212   7.034
 4525POPC   C4B59230  41.058  15.000   7.426
 4526POPC   NC359231   0.869  18.923   5.480
 4526POPC   PO459232   0.172  19.064   5.424
 4526POPC   GL159233   0.474  19.096   5.775
 4526POPC   GL259234   0.639  18.788   5.915
 4526POPC   C1A59235   0.501  19.221   6.204
 4526POPC   D2A59236   0.335  19.123   6.620
 4526POPC   C3A59237   0.105  19.382   6.905
 4526POPC   C4A59238   0.252  19.314   7.294
 4526POPC   C1B59239   0.432  18.717   6.323
 4526POPC   C2B59240   0.449  18.645   6.772
 4526POPC   C3B59241   0.555  18.896   7.099
 4526POPC   C4B59242   0.639  18.839   7.522
 4527POPC   NC359243  20.082   6.585   5.487
 4527POPC   PO459244  19.503   6.143   5.457
 4527POPC   GL159245  19.755   6.337   5.833
 4527POPC   GL259246  20.099   6.268   5.914
 4527POPC   C1A59247  19.816   6.500   6.281
 4527POPC   D2A59248  19.542   6.607   6.624
 4527POPC   C3A59249  19.774   6.673   6.994
 4527POPC   C4A59250  19.949   6.795   7.371
 4527POPC   C1B59251  20.326   6.485   6.256
 4527POPC   C2B59252  20.191   6.613   6.673
 4527POPC   C3B59253  20.313   6.550   7.086
 4527POPC   C4B59254  20.500   6.821   7.399
 4528POPC   NC359255  30.343  16.219   5.251
 4528POPC   PO459256  30.031  15.634   5.351
 4528POPC   GL159257  29.739  15.834   5.684
 4528POPC   GL259258  29.637  15.575   5.874
 4528POPC   C1A59259  29.748  16.045   6.125
 4528POPC   D2A59260  30.059  16.280   6.415
 4528POPC   C3A59261  30.036  16.243   6.889
 4528POPC   C4A59262  29.769  15.965   7.176
 4528POPC   C1B59263  30.073  15.637   6.040
 4528POPC   C2B59264  30.219  15.793   6.448
 4528POPC   C3B59265  30.048  15.728   6.829
 4528POPC   C4B59266  30.179  15.668   7.245
 4529POPC   NC359267  14.228  29.675   5.502
 4529POPC   PO459268  14.501  30.313   5.456
 4529POPC   GL159269  14.432  30.049   5.831
 4529POPC   GL259270  14.552  29.686   5.890
 4529POPC   C1A59271  14.510  30.097   6.267
 4529POPC   D2A59272  14.840  30.285   6.488
 4529POPC   C3A59273  14.725  30.284   6.908
 4529POPC   C4A59274  14.603  30.064   7.268
 4529POPC   C1B59275  14.174  29.740   6.150
 4529POPC   C2B59276  14.175  29.761   6.574
 4529POPC   C3B59277  14.265  29.910   6.933
 4529POPC   C4B59278  14.109  29.936   7.332
 4530POPC   NC359279  30.821  22.667   5.385
 4530POPC   PO459280  30.544  23.252   5.167
 4530POPC   GL159281  30.573  22.964   5.677
 4530POPC   GL259282  30.916  22.994   5.819
 4530POPC   C1A59283  30.546  22.824   6.136
 4530POPC   D2A59284  30.717  22.900   6.573
 4530POPC   C3A59285  30.454  23.000   6.949
 4530POPC   C4A59286  30.430  22.670   7.226
 4530POPC   C1B59287  30.884  23.250   6.220
 4530POPC   C2B59288  31.090  23.246   6.657
 4530POPC   C3B59289  30.923  23.164   7.097
 4530POPC   C4B59290  30.933  23.239   7.535
 4531POPC   NC359291  27.130   3.544   5.673
 4531POPC   PO459292  27.629   3.739   5.157
 4531POPC   GL159293  27.606   3.636   5.686
 4531POPC   GL259294  27.821   3.308   5.785
 4531POPC   C1A59295  27.474   3.928   6.075
 4531POPC   D2A59296  27.546   3.913   6.550
 4531POPC   C3A59297  27.434   3.624   6.894
 4531POPC   C4A59298  27.272   3.765   7.310
 4531POPC   C1B59299  27.755   3.527   6.191
 4531POPC   C2B59300  27.897   3.510   6.616
 4531POPC   C3B59301  27.968   3.450   7.043
 4531POPC   C4B59302  27.655   3.419   7.349
 4532POPC   NC359303   9.826  13.080   5.002
 4532POPC   PO459304   9.866  12.664   5.542
 4532POPC   GL159305   9.660  12.756   5.895
 4532POPC   GL259306   9.390  12.545   5.781
 4532POPC   C1A59307   9.801  12.958   6.260
 4532POPC   D2A59308  10.212  12.980   6.470
 4532POPC   C3A59309  10.190  13.039   6.921
 4532POPC   C4A59310  10.071  12.816   7.279
 4532POPC   C1B59311   9.419  12.429   6.210
 4532POPC   C2B59312   9.570  12.635   6.588
 4532POPC   C3B59313   9.664  12.760   6.996
 4532POPC   C4B59314   9.708  12.448   7.320
 4533POPC   NC359315  13.025   0.903   5.308
 4533POPC   PO459316  12.882   1.538   5.308
 4533POPC   GL159317  12.884   1.286   5.687
 4533POPC   GL259318  12.638   1.012   5.685
 4533POPC   C1A59319  12.967   1.441   6.104
 4533POPC   D2A59320  12.718   1.369   6.450
 4533POPC   C3A59321  12.862   1.539   6.801
 4533POPC   C4A59322  12.816   1.410   7.217
 4533POPC   C1B59323  12.782   0.968   6.123
 4533POPC   C2B59324  13.071   1.022   6.465
 4533POPC   C3B59325  12.968   1.026   6.884
 4533POPC   C4B59326  13.266   1.033   7.193
 4534POPC   NC359327  43.276  44.150   5.502
 4534POPC   PO459328  43.125  43.519   5.484
 4534POPC   GL159329  43.024  43.835   5.833
 4534POPC   GL259330  42.702  44.004   5.894
 4534POPC   C1A59331  43.135  44.107   6.213
 4534POPC   D2A59332  43.306  43.977   6.614
 4534POPC   C3A59333  43.158  44.009   7.077
 4534POPC   C4A59334  43.338  43.867   7.493
 4534POPC   C1B59335  42.751  43.790   6.267
 4534POPC   C2B59336  42.910  43.660   6.620
 4534POPC   C3B59337  42.766  43.701   6.989
 4534POPC   C4B59338  42.451  43.605   7.250
 4535POPC   NC359339  24.098  27.607   5.587
 4535POPC   PO459340  24.777  27.768   5.465
 4535POPC   GL159341  24.610  27.533   5.871
 4535POPC   GL259342  24.270  27.384   6.000
 4535POPC   C1A59343  24.662  27.468   6.346
 4535POPC   D2A59344  24.440  27.371   6.731
 4535POPC   C3A59345  24.649  27.470   7.107
 4535POPC   C4A59346  24.739  27.901   7.183
 4535POPC   C1B59347  24.294  27.816   6.211
 4535POPC   C2B59348  24.396  27.890   6.634
 4535POPC   C3B59349  24.248  27.770   7.039
 4535POPC   C4B59350  24.160  27.373   7.197
 4536POPC   NC359351  38.409  40.267   5.304
 4536POPC   PO459352  38.350  40.945   5.098
 4536POPC   GL159353  38.411  40.936   5.600
 4536POPC   GL259354  38.629  40.617   5.671
 4536POPC   C1A59355  38.429  41.080   6.088
 4536POPC   D2A59356  38.595  41.116   6.556
 4536POPC   C3A59357  38.586  40.726   6.835
 4536POPC   C4A59358  38.458  40.651   7.269
 4536POPC   C1B59359  38.428  40.404   6.044
 4536POPC   C2B59360  38.376  40.372   6.505
 4536POPC   C3B59361  38.142  40.453   6.909
 4536POPC   C4B59362  38.151  40.242   7.325
 4537POPC   NC359363  16.159  18.323   5.386
 4537POPC   PO459364  15.479  18.414   5.376
 4537POPC   GL159365  15.723  18.297   5.734
 4537POPC   GL259366  15.980  18.539   5.875
 4537POPC   C1A59367  15.666  18.133   6.153
 4537POPC   D2A59368  15.739  18.101   6.618
 4537POPC   C3A59369  15.754  18.240   7.060
 4537POPC   C4A59370  15.630  18.007   7.437
 4537POPC   C1B59371  16.010  18.464   6.346
 4537POPC   C2B59372  16.246  18.239   6.693
 4537POPC   C3B59373  16.220  18.028   7.098
 4537POPC   C4B59374  16.102  18.232   7.508
 4538POPC   NC359375  39.393  16.091   5.625
 4538POPC   PO459376  38.754  15.822   5.334
 4538POPC   GL159377  38.970  15.846   5.737
 4538POPC   GL259378  39.256  15.632   5.776
 4538POPC   C1A59379  39.044  16.012   6.160
 4538POPC   D2A59380  38.806  15.958   6.524
 4538POPC   C3A59381  39.044  16.055   6.846
 4538POPC   C4A59382  39.138  15.998   7.215
 4538POPC   C1B59383  39.406  15.622   6.183
 4538POPC   C2B59384  39.386  15.782   6.585
 4538POPC   C3B59385  39.614  15.787   6.968
 4538POPC   C4B59386  39.595  15.557   7.277
 4539POPC   NC359387  32.723  16.083   5.334
 4539POPC   PO459388  32.087  16.182   5.316
 4539POPC   GL159389  32.294  15.905   5.615
 4539POPC   GL259390  32.392  15.554   5.565
 4539POPC   C1A59391  32.303  15.932   6.064
 4539POPC   D2A59392  32.460  16.150   6.410
 4539POPC   C3A59393  32.329  15.908   6.752
 4539POPC   C4A59394  32.288  15.948   7.163
 4539POPC   C1B59395  32.643  15.573   5.945
 4539POPC   C2B59396  32.600  15.626   6.420
 4539POPC   C3B59397  32.729  15.611   6.895
 4539POPC   C4B59398  32.639  15.637   7.349
 4540POPC   NC359399  37.669  16.077   5.431
 4540POPC   PO459400  37.795  15.475   5.227
 4540POPC   GL159401  37.797  15.677   5.714
 4540POPC   GL259402  37.442  15.810   5.807
 4540POPC   C1A59403  37.706  15.643   6.192
 4540POPC   D2A59404  37.515  15.828   6.541
 4540POPC   C3A59405  37.506  15.615   6.937
 4540POPC   C4A59406  37.413  15.708   7.369
 4540POPC   C1B59407  37.589  16.130   6.106
 4540POPC   C2B59408  37.686  16.308   6.530
 4540POPC   C3B59409  37.722  16.111   6.939
 4540POPC   C4B59410  37.908  15.859   7.238
 4541POPC   NC359411  33.186  17.997   5.435
 4541POPC   PO459412  33.374  18.640   5.665
 4541POPC   GL159413  33.140  18.335   5.935
 4541POPC   GL259414  32.934  18.012   5.931
 4541POPC   C1A59415  33.216  18.127   6.364
 4541POPC   D2A59416  33.493  18.183   6.730
 4541POPC   C3A59417  33.313  18.297   7.128
 4541POPC   C4A59418  33.150  18.173   7.548
 4541POPC   C1B59419  32.737  18.279   6.259
 4541POPC   C2B59420  32.833  18.250   6.710
 4541POPC   C3B59421  32.830  18.103   7.112
 4541POPC   C4B59422  32.723  18.406   7.372
 4542POPC   NC359423  21.403  22.219   5.481
 4542POPC   PO459424  20.857  21.926   5.159
 4542POPC   GL159425  20.996  21.854   5.644
 4542POPC   GL259426  21.307  21.942   5.869
 4542POPC   C1A59427  20.886  21.926   6.122
 4542POPC   D2A59428  21.230  22.154   6.361
 4542POPC   C3A59429  21.256  22.281   6.821
 4542POPC   C4A59430  21.240  21.984   7.191
 4542POPC   C1B59431  21.676  22.023   6.123
 4542POPC   C2B59432  21.893  22.236   6.446
 4542POPC   C3B59433  21.748  22.152   6.842
 4542POPC   C4B59434  21.595  22.344   7.199
 4543POPC   NC359435  28.215  21.565   5.560
 4543POPC   PO459436  28.510  20.988   5.640
 4543POPC   GL159437  28.238  21.096   5.959
 4543POPC   GL259438  27.999  21.352   5.997
 4543POPC   C1A59439  28.427  21.224   6.341
 4543POPC   D2A59440  28.638  21.088   6.709
 4543POPC   C3A59441  28.445  21.243   7.093
 4543POPC   C4A59442  28.281  21.368   7.503
 4543POPC   C1B59443  27.921  21.182   6.427
 4543POPC   C2B59444  27.890  21.236   6.893
 4543POPC   C3B59445  27.877  21.558   7.241
 4543POPC   C4B59446  27.905  21.632   7.713
 4544POPC   NC359447  44.940  30.827   5.486
 4544POPC   PO459448  44.588  30.233   5.371
 4544POPC   GL159449  44.590  30.572   5.745
 4544POPC   GL259450  44.245  30.708   5.775
 4544POPC   C1A59451  44.878  30.752   6.127
 4544POPC   D2A59452  44.966  30.972   6.531
 4544POPC   C3A59453  44.970  30.771   6.913
 4544POPC   C4A59454  44.671  30.802   7.208
 4544POPC   C1B59455  44.381  30.680   6.224
 4544POPC   C2B59456  44.478  30.753   6.679
 4544POPC   C3B59457  44.248  30.583   7.045
 4544POPC   C4B59458  44.246  30.680   7.484
 4545POPC   NC359459  38.186  12.787   5.309
 4545POPC   PO459460  38.656  13.213   5.243
 4545POPC   GL159461  38.537  12.989   5.642
 4545POPC   GL259462  38.668  12.629   5.681
 4545POPC   C1A59463  38.362  12.831   6.044
 4545POPC   D2A59464  38.408  12.968   6.473
 4545POPC   C3A59465  38.557  12.658   6.764
 4545POPC   C4A59466  38.602  12.792   7.181
 4545POPC   C1B59467  38.877  12.891   6.027
 4545POPC   C2B59468  38.959  12.934   6.450
 4545POPC   C3B59469  38.817  13.082   6.806
 4545POPC   C4B59470  38.892  13.205   7.198
 4546POPC   NC359471  25.179   4.808   5.559
 4546POPC   PO459472  25.481   4.181   5.468
 4546POPC   GL159473  25.270   4.343   5.809
 4546POPC   GL259474  25.492   4.612   5.907
 4546POPC   C1A59475  25.148   4.160   6.201
 4546POPC   D2A59476  25.379   3.991   6.563
 4546POPC   C3A59477  25.266   4.084   7.006
 4546POPC   C4A59478  25.360   4.208   7.457
 4546POPC   C1B59479  25.145   4.666   6.217
 4546POPC   C2B59480  25.061   4.432   6.627
 4546POPC   C3B59481  25.106   4.564   7.040
 4546POPC   C4B59482  25.438   4.687   7.326
 4547POPC   NC359483  43.680  12.879   5.204
 4547POPC   PO459484  43.034  12.803   5.251
 4547POPC   GL159485  43.098  12.611   5.660
 4547POPC   GL259486  43.461  12.538   5.664
 4547POPC   C1A59487  43.017  12.743   6.075
 4547POPC   D2A59488  42.850  12.631   6.472
 4547POPC   C3A59489  42.991  12.929   6.780
 4547POPC   C4A59490  43.034  12.971   7.213
 4547POPC   C1B59491  43.539  12.779   6.083
 4547POPC   C2B59492  43.412  12.708   6.523
 4547POPC   C3B59493  43.443  12.729   6.993
 4547POPC   C4B59494  43.531  13.115   7.232
 4548POPC   NC359495   4.434  18.948   5.180
 4548POPC   PO459496   4.090  19.435   5.489
 4548POPC   GL159497   4.360  19.285   5.812
 4548POPC   GL259498   4.555  18.974   5.766
 4548POPC   C1A59499   4.536  19.389   6.214
 4548POPC   D2A59500   4.421  19.195   6.573
 4548POPC   C3A59501   4.403  19.276   6.992
 4548POPC   C4A59502   4.039  19.421   7.206
 4548POPC   C1B59503   4.274  18.917   6.157
 4548POPC   C2B59504   4.288  18.687   6.559
 4548POPC   C3B59505   4.298  18.592   6.993
 4548POPC   C4B59506   4.323  18.894   7.336
 4549POPC   NC359507  44.647   2.455   4.938
 4549POPC   PO459508  44.664   2.879   5.435
 4549POPC   GL159509  44.696   2.705   5.836
 4549POPC   GL259510  44.442   2.473   5.866
 4549POPC   C1A59511  44.837   2.794   6.254
 4549POPC   D2A59512  44.948   2.916   6.670
 4549POPC   C3A59513  44.765   2.618   6.921
 4549POPC   C4A59514  44.680   2.670   7.332
 4549POPC   C1B59515  44.334   2.717   6.258
 4549POPC   C2B59516  44.351   2.829   6.697
 4549POPC   C3B59517  44.244   2.619   7.085
 4549POPC   C4B59518  44.295   2.350   7.466
 4550POPC   NC359519  42.991  29.776   5.287
 4550POPC   PO459520  43.024  30.294   5.626
 4550POPC   GL159521  42.976  29.922   5.802
 4550POPC   GL259522  43.330  29.842   5.710
 4550POPC   C1A59523  42.865  29.913   6.229
 4550POPC   D2A59524  43.019  29.838   6.625
 4550POPC   C3A59525  42.954  30.089   6.988
 4550POPC   C4A59526  42.885  29.866   7.320
 4550POPC   C1B59527  43.340  29.699   6.145
 4550POPC   C2B59528  43.504  29.688   6.574
 4550POPC   C3B59529  43.380  29.795   7.014
 4550POPC   C4B59530  43.353  29.738   7.501
 4551POPC   NC359531  44.397  25.060   5.632
 4551POPC   PO459532  44.634  25.599   5.441
 4551POPC   GL159533  44.842  25.283   5.674
 4551POPC   GL259534  44.705  25.447   5.923
 4551POPC   C1A59535  44.876  25.014   6.103
 4551POPC   D2A59536  44.836  25.188   6.543
 4551POPC   C3A59537  44.730  25.201   7.021
 4551POPC   C4A59538  44.300  25.245   7.216
 4551POPC   C1B59539  44.785  25.720   6.259
 4551POPC   C2B59540  44.915  25.687   6.664
 4551POPC   C3B59541  44.695  25.734   7.021
 4551POPC   C4B59542  44.896  25.618   7.376
 4552POPC   NC359543  19.090  42.400   4.962
 4552POPC   PO459544  19.098  41.852   5.324
 4552POPC   GL159545  19.293  42.096   5.641
 4552POPC   GL259546  19.221  42.427   5.676
 4552POPC   C1A59547  19.374  42.102   6.071
 4552POPC   D2A59548  19.132  42.096   6.435
 4552POPC   C3A59549  19.249  42.224   6.850
 4552POPC   C4A59550  18.959  42.373   7.164
 4552POPC   C1B59551  19.130  42.561   6.107
 4552POPC   C2B59552  19.200  42.750   6.519
 4552POPC   C3B59553  18.896  42.833   6.865
 4552POPC   C4B59554  18.710  42.814   7.257
 4553POPC   NC359555  40.973   0.597   5.569
 4553POPC   PO459556  40.465   0.080   5.558
 4553POPC   GL159557  40.662   0.320   5.883
 4553POPC   GL259558  40.460   0.621   5.828
 4553POPC   C1A59559  41.039   0.370   6.203
 4553POPC   D2A59560  41.142   0.453   6.640
 4553POPC   C3A59561  40.747   0.311   6.809
 4553POPC   C4A59562  40.610   0.107   7.158
 4553POPC   C1B59563  40.619   0.651   6.262
 4553POPC   C2B59564  40.728   0.820   6.671
 4553POPC   C3B59565  40.497   0.690   7.050
 4553POPC   C4B59566  40.318   0.580   7.412
 4554POPC   NC359567  19.923  36.015   5.038
 4554POPC   PO459568  19.373  35.979   5.442
 4554POPC   GL159569  19.696  36.224   5.669
 4554POPC   GL259570  19.567  36.554   5.720
 4554POPC   C1A59571  19.947  36.224   6.066
 4554POPC   D2A59572  20.062  35.983   6.453
 4554POPC   C3A59573  19.988  36.137   6.897
 4554POPC   C4A59574  19.900  35.960   7.308
 4554POPC   C1B59575  19.566  36.569   6.154
 4554POPC   C2B59576  19.728  36.397   6.546
 4554POPC   C3B59577  19.643  36.527   6.992
 4554POPC   C4B59578  19.685  36.430   7.449
 4555POPC   NC359579  39.666   1.990   5.461
 4555POPC   PO459580  40.202   2.321   5.275
 4555POPC   GL159581  40.062   2.202   5.762
 4555POPC   GL259582  39.721   2.127   5.942
 4555POPC   C1A59583  40.139   1.944   6.183
 4555POPC   D2A59584  40.092   2.028   6.658
 4555POPC   C3A59585  40.394   1.945   7.023
 4555POPC   C4A59586  40.323   1.800   7.475
 4555POPC   C1B59587  39.656   1.959   6.365
 4555POPC   C2B59588  39.589   1.969   6.802
 4555POPC   C3B59589  39.905   1.912   7.130
 4555POPC   C4B59590  39.916   2.077   7.570
 4556POPC   NC359591   6.399  10.901   5.513
 4556POPC   PO459592   6.709  10.320   5.435
 4556POPC   GL159593   6.548  10.512   5.800
 4556POPC   GL259594   6.775  10.760   5.878
 4556POPC   C1A59595   6.248  10.511   6.123
 4556POPC   D2A59596   6.063  10.429   6.504
 4556POPC   C3A59597   6.338  10.492   6.823
 4556POPC   C4A59598   6.504  10.593   7.216
 4556POPC   C1B59599   6.686  10.662   6.336
 4556POPC   C2B59600   6.738  10.847   6.759
 4556POPC   C3B59601   6.943  10.865   7.170
 4556POPC   C4B59602   7.001  10.756   7.594
 4557POPC   NC359603  36.498   7.463   5.469
 4557POPC   PO459604  37.093   7.125   5.319
 4557POPC   GL159605  36.969   7.389   5.733
 4557POPC   GL259606  36.689   7.615   5.900
 4557POPC   C1A59607  36.863   7.242   6.202
 4557POPC   D2A59608  36.866   7.456   6.565
 4557POPC   C3A59609  36.660   7.310   6.918
 4557POPC   C4A59610  36.767   7.516   7.291
 4557POPC   C1B59611  37.061   7.723   6.133
 4557POPC   C2B59612  37.110   7.928   6.520
 4557POPC   C3B59613  37.018   7.781   6.920
 4557POPC   C4B59614  37.248   7.676   7.250
 4558POPC   NC359615  17.293  37.481   5.502
 4558POPC   PO459616  16.742  37.922   5.537
 4558POPC   GL159617  16.773  37.879   5.990
 4558POPC   GL259618  17.127  37.821   5.999
 4558POPC   C1A59619  16.802  38.017   6.453
 4558POPC   D2A59620  16.493  37.945   6.812
 4558POPC   C3A59621  16.432  37.590   7.114
 4558POPC   C4A59622  16.520  37.610   7.583
 4558POPC   C1B59623  16.933  37.517   6.329
 4558POPC   C2B59624  16.807  37.573   6.752
 4558POPC   C3B59625  16.959  37.612   7.172
 4558POPC   C4B59626  17.386  37.595   7.279
 4559POPC   NC359627  40.064   0.228   5.379
 4559POPC   PO459628  39.697   0.830   5.417
 4559POPC   GL159629  39.920   0.613   5.776
 4559POPC   GL259630  40.093   0.280   5.869
 4559POPC   C1A59631  40.081   0.745   6.188
 4559POPC   D2A59632  40.235   0.662   6.600
 4559POPC   C3A59633  39.990   0.804   6.925
 4559POPC   C4A59634  39.846   0.707   7.323
 4559POPC   C1B59635  40.242   0.246   6.273
 4559POPC   C2B59636  39.977   0.234   6.630
 4559POPC   C3B59637  40.110   0.317   7.021
 4559POPC   C4B59638  40.147   0.103   7.376
 4560POPC   NC359639   1.565   3.212   5.616
 4560POPC   PO459640   2.112   3.477   5.294
 4560POPC   GL159641   2.142   3.711   5.714
 4560POPC   GL259642   2.347   4.041   5.714
 4560POPC   C1A59643   1.873   3.672   6.127
 4560POPC   D2A59644   1.710   3.602   6.572
 4560POPC   C3A59645   2.026   3.416   6.856
 4560POPC   C4A59646   1.940   3.269   7.259
 4560POPC   C1B59647   2.191   4.073   6.152
 4560POPC   C2B59648   2.180   3.870   6.571
 4560POPC   C3B59649   2.045   3.909   7.014
 4560POPC   C4B59650   2.218   3.681   7.348
 4561POPC   NC359651  34.082  27.116   5.552
 4561POPC   PO459652  33.498  26.935   5.319
 4561POPC   GL159653  33.644  26.912   5.846
 4561POPC   GL259654  33.971  26.773   5.909
 4561POPC   C1A59655  33.780  26.997   6.293
 4561POPC   D2A59656  33.982  26.694   6.554
 4561POPC   C3A59657  33.960  26.862   6.952
 4561POPC   C4A59658  34.159  27.079   7.278
 4561POPC   C1B59659  33.718  26.465   6.138
 4561POPC   C2B59660  33.547  26.299   6.503
 4561POPC   C3B59661  33.712  26.360   6.885
 4561POPC   C4B59662  33.645  26.589   7.240
 4562POPC   NC359663  36.058   3.769   5.279
 4562POPC   PO459664  35.783   3.130   5.264
 4562POPC   GL159665  35.865   3.370   5.745
 4562POPC   GL259666  35.990   3.724   5.785
 4562POPC   C1A59667  36.180   3.428   6.166
 4562POPC   D2A59668  36.508   3.407   6.541
 4562POPC   C3A59669  36.325   3.350   6.981
 4562POPC   C4A59670  36.174   3.362   7.441
 4562POPC   C1B59671  36.204   3.920   6.159
 4562POPC   C2B59672  36.157   3.779   6.588
 4562POPC   C3B59673  36.330   3.882   6.986
 4562POPC   C4B59674  36.177   3.897   7.383
 4563POPC   NC359675  10.845   2.748   5.666
 4563POPC   PO459676  11.325   2.978   5.222
 4563POPC   GL159677  11.339   2.936   5.713
 4563POPC   GL259678  11.300   2.587   5.847
 4563POPC   C1A59679  11.286   2.996   6.222
 4563POPC   D2A59680  11.174   3.101   6.699
 4563POPC   C3A59681  11.370   2.852   7.062
 4563POPC   C4A59682  11.327   2.939   7.522
 4563POPC   C1B59683  11.457   2.512   6.221
 4563POPC   C2B59684  11.555   2.661   6.621
 4563POPC   C3B59685  11.529   2.360   6.981
 4563POPC   C4B59686  11.581   2.499   7.392
 4564POPC   NC359687   8.584  27.519   5.391
 4564POPC   PO459688   9.209  27.807   5.508
 4564POPC   GL159689   9.217  27.606   5.910
 4564POPC   GL259690   8.947  27.416   5.775
 4564POPC   C1A59691   9.095  27.788   6.291
 4564POPC   D2A59692   8.878  28.067   6.600
 4564POPC   C3A59693   8.741  27.801   6.949
 4564POPC   C4A59694   9.139  27.688   7.096
 4564POPC   C1B59695   8.939  27.277   6.202
 4564POPC   C2B59696   8.994  27.403   6.623
 4564POPC   C3B59697   8.955  27.201   6.997
 4564POPC   C4B59698   8.833  27.332   7.373
 4565POPC   NC359699  27.176  30.766   5.413
 4565POPC   PO459700  27.832  30.510   5.235
 4565POPC   GL159701  27.758  30.626   5.678
 4565POPC   GL259702  27.995  30.843   5.845
 4565POPC   C1A59703  27.726  30.458   6.120
 4565POPC   D2A59704  27.534  30.583   6.523
 4565POPC   C3A59705  27.770  30.498   6.912
 4565POPC   C4A59706  27.625  30.409   7.315
 4565POPC   C1B59707  27.787  30.985   6.249
 4565POPC   C2B59708  27.609  31.069   6.689
 4565POPC   C3B59709  27.605  30.921   7.153
 4565POPC   C4B59710  27.896  30.809   7.534
 4566POPC   NC359711  27.442  44.291   5.564
 4566POPC   PO459712  27.866  43.829   5.352
 4566POPC   GL159713  27.686  43.886   5.764
 4566POPC   GL259714  27.457  43.619   5.758
 4566POPC   C1A59715  27.563  44.095   6.177
 4566POPC   D2A59716  27.344  44.247   6.562
 4566POPC   C3A59717  27.646  44.205   6.873
 4566POPC   C4A59718  27.808  44.181   7.263
 4566POPC   C1B59719  27.710  43.551   6.148
 4566POPC   C2B59720  27.798  43.779   6.528
 4566POPC   C3B59721  27.506  43.720   6.850
 4566POPC   C4B59722  27.488  43.541   7.240
 4567POPC   NC359723  28.321  41.195   5.354
 4567POPC   PO459724  28.639  40.751   5.532
 4567POPC   GL159725  28.277  40.899   5.817
 4567POPC   GL259726  28.131  40.607   5.976
 4567POPC   C1A59727  28.103  41.015   6.252
 4567POPC   D2A59728  28.084  40.709   6.599
 4567POPC   C3A59729  28.317  40.820   6.949
 4567POPC   C4A59730  28.306  41.096   7.272
 4567POPC   C1B59731  28.478  40.649   6.279
 4567POPC   C2B59732  28.609  40.494   6.686
 4567POPC   C3B59733  28.711  40.568   7.143
 4567POPC   C4B59734  28.844  40.995   7.282
 4568POPC   NC359735  28.145   0.269   5.343
 4568POPC   PO459736  28.846   0.504   5.312
 4568POPC   GL159737  28.520   0.374   5.697
 4568POPC   GL259738  28.155   0.475   5.799
 4568POPC   C1A59739  28.385   0.215   6.157
 4568POPC   D2A59740  28.227   0.490   6.530
 4568POPC   C3A59741  28.511   0.757   6.785
 4568POPC   C4A59742  28.841   0.690   7.103
 4568POPC   C1B59743  27.932   0.695   6.143
 4568POPC   C2B59744  27.784   0.799   6.562
 4568POPC   C3B59745  28.000   0.745   6.970
 4568POPC   C4B59746  28.280   0.396   7.066
 4569POPC   NC359747  29.112  44.109   5.410
 4569POPC   PO459748  28.584  44.110   5.705
 4569POPC   GL159749  29.012  43.983   5.917
 4569POPC   GL259750  29.365  43.846   5.840
 4569POPC   C1A59751  29.160  44.030   6.344
 4569POPC   D2A59752  28.968  44.243   6.673
 4569POPC   C3A59753  29.094  44.085   7.071
 4569POPC   C4A59754  29.106  44.078   7.556
 4569POPC   C1B59755  29.571  43.722   6.256
 4569POPC   C2B59756  29.438  43.636   6.705
 4569POPC   C3B59757  29.155  43.589   7.075
 4569POPC   C4B59758  29.219  43.588   7.553
 4570POPC   NC359759  19.145  36.414   5.444
 4570POPC   PO459760  18.560  36.758   5.516
 4570POPC   GL159761  18.816  36.429   5.859
 4570POPC   GL259762  19.187  36.230   5.901
 4570POPC   C1A59763  19.035  36.496   6.295
 4570POPC   D2A59764  19.236  36.314   6.681
 4570POPC   C3A59765  18.984  36.160   7.044
 4570POPC   C4A59766  18.857  36.200   7.503
 4570POPC   C1B59767  19.474  36.061   6.228
 4570POPC   C2B59768  19.577  35.919   6.647
 4570POPC   C3B59769  19.495  36.046   7.034
 4570POPC   C4B59770  19.334  36.070   7.402
 4571POPC   NC359771  39.379   7.346   5.321
 4571POPC   PO459772  38.700   7.368   5.412
 4571POPC   GL159773  38.873   7.547   5.830
 4571POPC   GL259774  39.235   7.522   5.915
 4571POPC   C1A59775  38.863   7.373   6.275
 4571POPC   D2A59776  38.997   7.443   6.735
 4571POPC   C3A59777  39.141   7.295   7.152
 4571POPC   C4A59778  39.212   7.516   7.563
 4571POPC   C1B59779  39.365   7.442   6.349
 4571POPC   C2B59780  39.567   7.613   6.714
 4571POPC   C3B59781  39.573   7.549   7.165
 4571POPC   C4B59782  39.619   7.206   7.477
 4572POPC   NC359783  34.116  11.889   5.152
 4572POPC   PO459784  34.586  12.294   5.434
 4572POPC   GL159785  34.629  12.072   5.842
 4572POPC   GL259786  34.676  11.709   5.851
 4572POPC   C1A59787  34.513  12.095   6.287
 4572POPC   D2A59788  34.696  12.302   6.639
 4572POPC   C3A59789  34.528  12.212   7.040
 4572POPC   C4A59790  34.360  12.329   7.428
 4572POPC   C1B59791  34.736  11.626   6.264
 4572POPC   C2B59792  34.525  11.677   6.633
 4572POPC   C3B59793  34.708  11.722   7.021
 4572POPC   C4B59794  34.517  11.838   7.405
 4573POPC   NC359795  36.193  43.942   5.294
 4573POPC   PO459796  36.733  43.523   5.363
 4573POPC   GL159797  36.329  43.628   5.644
 4573POPC   GL259798  35.962  43.616   5.668
 4573POPC   C1A59799  36.306  43.757   6.089
 4573POPC   D2A59800  36.121  43.848   6.497
 4573POPC   C3A59801  36.324  43.939   6.888
 4573POPC   C4A59802  36.188  43.850   7.313
 4573POPC   C1B59803  35.771  43.712   6.077
 4573POPC   C2B59804  35.680  43.594   6.511
 4573POPC   C3B59805  35.844  43.746   6.926
 4573POPC   C4B59806  35.800  43.531   7.343
 4574POPC   NC359807  15.364   4.553   5.317
 4574POPC   PO459808  14.988   3.957   5.448
 4574POPC   GL159809  15.173   4.238   5.781
 4574POPC   GL259810  15.543   4.235   5.779
 4574POPC   C1A59811  15.282   4.404   6.243
 4574POPC   D2A59812  15.284   4.691   6.646
 4574POPC   C3A59813  14.994   4.609   7.027
 4574POPC   C4A59814  15.012   4.568   7.509
 4574POPC   C1B59815  15.427   3.916   6.080
 4574POPC   C2B59816  15.299   3.926   6.486
 4574POPC   C3B59817  15.310   4.203   6.831
 4574POPC   C4B59818  15.202   4.186   7.243
 4575POPC   NC359819  18.863  21.014   5.351
 4575POPC   PO459820  19.256  21.476   5.520
 4575POPC   GL159821  19.002  21.354   5.801
 4575POPC   GL259822  19.190  21.039   5.797
 4575POPC   C1A59823  19.039  21.575   6.193
 4575POPC   D2A59824  18.897  21.437   6.579
 4575POPC   C3A59825  19.106  21.562   6.926
 4575POPC   C4A59826  19.028  21.406   7.330
 4575POPC   C1B59827  19.381  21.202   6.183
 4575POPC   C2B59828  19.360  21.182   6.638
 4575POPC   C3B59829  19.332  21.097   7.071
 4575POPC   C4B59830  19.259  20.973   7.537
 4576POPC   NC359831   2.165  41.361   5.161
 4576POPC   PO459832   1.883  41.927   5.336
 4576POPC   GL159833   2.045  41.709   5.748
 4576POPC   GL259834   2.182  41.350   5.754
 4576POPC   C1A59835   2.028  41.680   6.220
 4576POPC   D2A59836   1.822  41.422   6.552
 4576POPC   C3A59837   1.978  41.334   6.967
 4576POPC   C4A59838   1.816  41.522   7.345
 4576POPC   C1B59839   2.102  41.159   6.183
 4576POPC   C2B59840   2.108  40.961   6.602
 4576POPC   C3B59841   2.362  40.979   6.988
 4576POPC   C4B59842   2.433  41.342   7.249
 4577POPC   NC359843  21.700  37.238   5.396
 4577POPC   PO459844  21.534  37.886   5.454
 4577POPC   GL159845  21.242  37.705   5.726
 4577POPC   GL259846  21.479  37.474   5.801
 4577POPC   C1A59847  21.077  37.776   6.157
 4577POPC   D2A59848  21.029  37.906   6.605
 4577POPC   C3A59849  21.144  37.566   6.906
 4577POPC   C4A59850  21.380  37.556   7.306
 4577POPC   C1B59851  21.579  37.797   6.117
 4577POPC   C2B59852  21.510  37.695   6.534
 4577POPC   C3B59853  21.564  37.878   6.926
 4577POPC   C4B59854  21.714  38.115   7.261
 4578POPC   NC359855   6.263  39.024   5.690
 4578POPC   PO459856   6.132  39.625   5.441
 4578POPC   GL159857   5.941  39.421   5.809
 4578POPC   GL259858   6.205  39.396   6.044
 4578POPC   C1A59859   5.768  39.516   6.248
 4578POPC   D2A59860   5.870  39.342   6.647
 4578POPC   C3A59861   5.582  39.459   6.912
 4578POPC   C4A59862   5.492  39.618   7.292
 4578POPC   C1B59863   6.130  39.036   6.309
 4578POPC   C2B59864   6.283  38.840   6.683
 4578POPC   C3B59865   6.176  38.948   7.110
 4578POPC   C4B59866   5.880  39.259   7.274
 4579POPC   NC359867  23.512  38.153   5.323
 4579POPC   PO459868  23.674  38.798   5.368
 4579POPC   GL159869  23.643  38.492   5.699
 4579POPC   GL259870  24.002  38.472   5.730
 4579POPC   C1A59871  23.549  38.334   6.111
 4579POPC   D2A59872  23.706  38.344   6.540
 4579POPC   C3A59873  23.467  38.493   6.893
 4579POPC   C4A59874  23.209  38.286   7.224
 4579POPC   C1B59875  24.067  38.292   6.137
 4579POPC   C2B59876  24.214  38.391   6.565
 4579POPC   C3B59877  23.999  38.342   6.978
 4579POPC   C4B59878  24.003  38.429   7.445
 4580POPC   NC359879  44.676  35.585   5.209
 4580POPC   PO459880  44.101  35.379   5.326
 4580POPC   GL159881  44.398  35.378   5.768
 4580POPC   GL259882  44.693  35.596   5.734
 4580POPC   C1A59883  44.618  35.289   6.170
 4580POPC   D2A59884  44.525  35.134   6.566
 4580POPC   C3A59885  44.463  35.355   6.967
 4580POPC   C4A59886  44.666  35.219   7.367
 4580POPC   C1B59887  44.779  35.757   6.158
 4580POPC   C2B59888  44.972  35.624   6.577
 4580POPC   C3B59889  44.955  35.448   6.997
 4580POPC   C4B59890  44.994  35.620   7.399
 4581POPC   NC359891  21.961  32.168   5.359
 4581POPC   PO459892  22.357  32.674   5.305
 4581POPC   GL159893  22.118  32.456   5.740
 4581POPC   GL259894  21.794  32.289   5.841
 4581POPC   C1A59895  22.155  32.286   6.200
 4581POPC   D2A59896  22.104  31.916   6.472
 4581POPC   C3A59897  22.264  32.090   6.853
 4581POPC   C4A59898  22.389  31.917   7.234
 4581POPC   C1B59899  21.657  32.248   6.309
 4581POPC   C2B59900  21.743  32.164   6.775
 4581POPC   C3B59901  21.925  32.209   7.219
 4581POPC   C4B59902  21.894  32.448   7.611
 4582POPC   NC359903  34.306  16.993   5.109
 4582POPC   PO459904  34.800  16.743   5.535
 4582POPC   GL159905  34.728  16.675   5.925
 4582POPC   GL259906  34.411  16.606   5.894
 4582POPC   C1A59907  34.854  16.736   6.318
 4582POPC   D2A59908  34.640  16.679   6.682
 4582POPC   C3A59909  34.885  16.892   6.964
 4582POPC   C4A59910  34.914  16.826   7.392
 4582POPC   C1B59911  34.408  16.385   6.277
 4582POPC   C2B59912  34.101  16.355   6.598
 4582POPC   C3B59913  34.298  16.375   6.955
 4582POPC   C4B59914  34.523  16.594   7.197
 4583POPC   NC359915  23.994  23.928   5.248
 4583POPC   PO459916  24.675  23.841   5.424
 4583POPC   GL159917  24.547  23.571   5.785
 4583POPC   GL259918  24.304  23.782   5.841
 4583POPC   C1A59919  24.454  23.488   6.256
 4583POPC   D2A59920  24.357  23.279   6.649
 4583POPC   C3A59921  24.684  23.284   6.984
 4583POPC   C4A59922  24.636  23.510   7.386
 4583POPC   C1B59923  24.355  24.003   6.232
 4583POPC   C2B59924  24.177  23.815   6.585
 4583POPC   C3B59925  24.345  23.712   6.973
 4583POPC   C4B59926  24.459  23.997   7.282
 4584POPC   NC359927  17.977  18.009   5.543
 4584POPC   PO459928  18.152  17.326   5.403
 4584POPC   GL159929  18.328  17.458   5.802
 4584POPC   GL259930  18.062  17.634   5.879
 4584POPC   C1A59931  18.505  17.618   6.216
 4584POPC   D2A59932  18.323  17.815   6.613
 4584POPC   C3A59933  18.398  17.612   7.017
 4584POPC   C4A59934  18.625  17.241   7.207
 4584POPC   C1B59935  18.004  17.589   6.284
 4584POPC   C2B59936  17.811  17.315   6.542
 4584POPC   C3B59937  17.852  17.582   6.863
 4584POPC   C4B59938  17.970  17.624   7.264
 4585POPC   NC359939  27.804  24.504   4.798
 4585POPC   PO459940  27.631  24.695   5.439
 4585POPC   GL159941  27.528  24.556   5.800
 4585POPC   GL259942  27.734  24.262   5.781
 4585POPC   C1A59943  27.609  24.682   6.206
 4585POPC   D2A59944  27.696  24.879   6.552
 4585POPC   C3A59945  27.574  24.643   6.877
 4585POPC   C4A59946  27.487  24.803   7.250
 4585POPC   C1B59947  27.485  24.186   6.150
 4585POPC   C2B59948  27.657  24.240   6.547
 4585POPC   C3B59949  27.418  24.138   6.869
 4585POPC   C4B59950  27.250  24.004   7.226
 4586POPC   NC359951   3.180  19.877   5.288
 4586POPC   PO459952   2.529  20.102   5.369
 4586POPC   GL159953   2.651  19.850   5.728
 4586POPC   GL259954   3.003  19.884   5.762
 4586POPC   C1A59955   2.546  19.675   6.147
 4586POPC   D2A59956   2.431  19.882   6.528
 4586POPC   C3A59957   2.586  19.908   6.930
 4586POPC   C4A59958   2.527  19.615   7.317
 4586POPC   C1B59959   3.058  19.678   6.157
 4586POPC   C2B59960   2.911  19.604   6.573
 4586POPC   C3B59961   2.969  19.596   7.014
 4586POPC   C4B59962   2.868  19.953   7.341
 4587POPC   NC359963  38.141  14.482   5.420
 4587POPC   PO459964  38.520  14.775   5.817
 4587POPC   GL159965  38.340  14.373   5.895
 4587POPC   GL259966  38.519  14.108   5.687
 4587POPC   C1A59967  38.388  14.322   6.326
 4587POPC   D2A59968  38.466  14.351   6.752
 4587POPC   C3A59969  38.429  14.722   6.927
 4587POPC   C4A59970  38.362  14.600   7.303
 4587POPC   C1B59971  38.768  14.101   6.074
 4587POPC   C2B59972  38.729  13.974   6.514
 4587POPC   C3B59973  38.808  14.034   6.940
 4587POPC   C4B59974  38.695  14.238   7.257
 4588POPC   NC359975  33.960  39.604   5.443
 4588POPC   PO459976  34.584  39.941   5.331
 4588POPC   GL159977  34.666  40.109   5.738
 4588POPC   GL259978  34.854  40.406   5.695
 4588POPC   C1A59979  34.678  39.911   6.141
 4588POPC   D2A59980  34.607  40.037   6.566
 4588POPC   C3A59981  34.699  39.778   6.907
 4588POPC   C4A59982  34.626  39.962   7.266
 4588POPC   C1B59983  34.990  40.321   6.143
 4588POPC   C2B59984  34.896  40.441   6.557
 4588POPC   C3B59985  34.960  40.218   6.917
 4588POPC   C4B59986  34.877  40.392   7.276
 4589POPC   NC359987  15.600  38.539   5.341
 4589POPC   PO459988  15.017  38.520   5.072
 4589POPC   GL159989  15.064  38.461   5.588
 4589POPC   GL259990  15.402  38.435   5.797
 4589POPC   C1A59991  14.968  38.279   6.036
 4589POPC   D2A59992  15.062  38.452   6.434
 4589POPC   C3A59993  15.124  38.321   6.870
 4589POPC   C4A59994  14.911  38.512   7.239
 4589POPC   C1B59995  15.626  38.587   6.169
 4589POPC   C2B59996  15.558  38.536   6.605
 4589POPC   C3B59997  15.640  38.347   6.998
 4589POPC   C4B59998  15.352  38.267   7.328
 4590POPC   NC359999   0.397  19.503   5.440
 4590POPC   PO460000   0.729  20.050   5.357
 4590POPC   GL160001   0.480  19.934   5.723
 4590POPC   GL260002   0.625  19.614   5.866
 4590POPC   C1A60003   0.315  19.922   6.148
 4590POPC   D2A60004   0.534  19.921   6.529
 4590POPC   C3A60005   0.407  19.777   6.881
 4590POPC   C4A60006   0.180  19.802   7.257
 4590POPC   C1B60007   0.829  19.636   6.231
 4590POPC   C2B60008   0.736  19.438   6.608
 4590POPC   C3B60009   0.662  19.373   7.007
 4590POPC   C4B60010   0.706  19.751   7.293
 4591POPC   NC360011  36.646  17.648   5.324
 4591POPC   PO460012  37.204  17.979   5.273
 4591POPC   GL160013  37.036  17.766   5.711
 4591POPC   GL260014  37.183  17.863   6.014
 4591POPC   C1A60015  36.899  17.425   6.079
 4591POPC   D2A60016  36.881  17.260   6.532
 4591POPC   C3A60017  36.768  17.553   6.893
 4591POPC   C4A60018  36.523  17.618   7.289
 4591POPC   C1B60019  36.949  17.793   6.414
 4591POPC   C2B60020  37.050  17.995   6.763
 4591POPC   C3B60021  37.357  17.903   7.087
 4591POPC   C4B60022  37.276  17.698   7.489
 4592POPC   NC360023  11.875  42.421   5.358
 4592POPC   PO460024  12.406  42.514   5.623
 4592POPC   GL160025  12.025  42.489   5.885
 4592POPC   GL260026  11.654  42.526   5.886
 4592POPC   C1A60027  11.941  42.274   6.285
 4592POPC   D2A60028  11.883  41.922   6.582
 4592POPC   C3A60029  12.048  42.038   6.988
 4592POPC   C4A60030  12.011  42.170   7.422
 4592POPC   C1B60031  11.489  42.471   6.342
 4592POPC   C2B60032  11.701  42.358   6.759
 4592POPC   C3B60033  11.920  42.565   7.074
 4592POPC   C4B60034  11.779  42.951   7.223
 4593POPC   NC360035  18.884   5.925   5.018
 4593POPC   PO460036  18.866   5.609   5.619
 4593POPC   GL160037  19.047   5.959   5.845
 4593POPC   GL260038  19.405   5.969   5.933
 4593POPC   C1A60039  19.066   5.859   6.288
 4593POPC   D2A60040  19.134   5.789   6.704
 4593POPC   C3A60041  18.976   6.005   7.052
 4593POPC   C4A60042  18.818   5.793   7.411
 4593POPC   C1B60043  19.393   6.232   6.285
 4593POPC   C2B60044  19.537   6.105   6.682
 4593POPC   C3B60045  19.502   5.870   7.050
 4593POPC   C4B60046  19.311   5.909   7.433
 4594POPC   NC360047  22.407  29.481   5.605
 4594POPC   PO460048  22.124  30.072   5.490
 4594POPC   GL160049  22.355  29.954   5.846
 4594POPC   GL260050  22.691  30.096   5.791
 4594POPC   C1A60051  22.384  29.781   6.276
 4594POPC   D2A60052  22.035  29.702   6.573
 4594POPC   C3A60053  21.988  30.022   6.896
 4594POPC   C4A60054  22.130  29.792   7.239
 4594POPC   C1B60055  22.509  30.321   6.152
 4594POPC   C2B60056  22.296  30.234   6.530
 4594POPC   C3B60057  22.473  29.927   6.826
 4594POPC   C4B60058  22.529  30.091   7.235
 4595POPC   NC360059  23.418  11.440   5.317
 4595POPC   PO460060  22.834  11.702   5.436
 4595POPC   GL160061  22.951  11.517   5.845
 4595POPC   GL260062  23.317  11.572   5.842
 4595POPC   C1A60063  22.785  11.126   6.084
 4595POPC   D2A60064  22.574  10.998   6.510
 4595POPC   C3A60065  22.809  11.174   6.920
 4595POPC   C4A60066  23.089  11.299   7.286
 4595POPC   C1B60067  23.292  11.569   6.298
 4595POPC   C2B60068  23.246  11.467   6.750
 4595POPC   C3B60069  23.250  11.741   7.072
 4595POPC   C4B60070  23.434  12.034   7.361
 4596POPC   NC360071   7.161  11.494   5.431
 4596POPC   PO460072   7.517  10.906   5.372
 4596POPC   GL160073   7.488  11.214   5.701
 4596POPC   GL260074   7.204  11.062   5.829
 4596POPC   C1A60075   7.345  11.424   6.131
 4596POPC   D2A60076   7.495  11.264   6.537
 4596POPC   C3A60077   7.445  11.527   6.902
 4596POPC   C4A60078   7.237  11.537   7.294
 4596POPC   C1B60079   7.622  10.962   6.104
 4596POPC   C2B60080   7.921  10.988   6.443
 4596POPC   C3B60081   7.947  10.965   6.901
 4596POPC   C4B60082   7.832  10.997   7.344
 4597POPC   NC360083  27.150  26.623   5.366
 4597POPC   PO460084  26.598  26.895   5.381
 4597POPC   GL160085  26.751  26.883   5.827
 4597POPC   GL260086  27.052  26.665   5.870
 4597POPC   C1A60087  26.849  26.853   6.306
 4597POPC   D2A60088  27.067  26.562   6.598
 4597POPC   C3A60089  26.902  26.624   7.014
 4597POPC   C4A60090  26.765  26.990   7.227
 4597POPC   C1B60091  27.155  27.131   5.998
 4597POPC   C2B60092  27.138  27.346   6.420
 4597POPC   C3B60093  27.083  27.139   6.842
 4597POPC   C4B60094  27.279  26.984   7.240
 4598POPC   NC360095   4.144   6.874   5.435
 4598POPC   PO460096   4.360   7.398   5.405
 4598POPC   GL160097   4.530   7.298   5.806
 4598POPC   GL260098   4.254   7.097   5.904
 4598POPC   C1A60099   4.531   7.391   6.266
 4598POPC   D2A60100   4.306   7.261   6.656
 4598POPC   C3A60101   4.345   7.375   7.122
 4598POPC   C4A60102   4.040   7.426   7.517
 4598POPC   C1B60103   4.045   7.444   6.052
 4598POPC   C2B60104   4.138   7.751   6.359
 4598POPC   C3B60105   4.191   7.757   6.797
 4598POPC   C4B60106   4.101   7.824   7.211
 4599POPC   NC360107  14.565  31.333   5.202
 4599POPC   PO460108  14.230  31.789   5.498
 4599POPC   GL160109  14.537  31.497   5.700
 4599POPC   GL260110  14.359  31.204   5.833
 4599POPC   C1A60111  14.694  31.441   6.143
 4599POPC   D2A60112  14.548  31.606   6.547
 4599POPC   C3A60113  14.547  31.339   6.910
 4599POPC   C4A60114  14.728  31.468   7.280
 4599POPC   C1B60115  14.178  31.366   6.224
 4599POPC   C2B60116  14.075  31.236   6.651
 4599POPC   C3B60117  14.079  31.274   7.094
 4599POPC   C4B60118  14.098  31.647   7.296
 4600POPC   NC360119   7.793  37.903   5.481
 4600POPC   PO460120   7.429  37.299   5.446
 4600POPC   GL160121   7.612  37.508   5.753
 4600POPC   GL260122   7.347  37.768   5.689
 4600POPC   C1A60123   7.799  37.545   6.158
 4600POPC   D2A60124   7.616  37.691   6.530
 4600POPC   C3A60125   7.642  37.481   6.906
 4600POPC   C4A60126   7.448  37.643   7.237
 4600POPC   C1B60127   7.263  37.676   6.119
 4600POPC   C2B60128   7.202  37.990   6.434
 4600POPC   C3B60129   7.176  37.985   6.884
 4600POPC   C4B60130   6.977  37.822   7.258
 4601POPC   NC360131  26.050  19.158   5.428
 4601POPC   PO460132  26.599  19.493   5.628
 4601POPC   GL160133  26.379  19.126   5.838
 4601POPC   GL260134  26.038  19.250   5.917
 4601POPC   C1A60135  26.205  18.923   6.253
 4601POPC   D2A60136  26.400  18.883   6.660
 4601POPC   C3A60137  26.103  18.753   6.940
 4601POPC   C4A60138  25.914  19.006   7.242
 4601POPC   C1B60139  25.804  19.288   6.309
 4601POPC   C2B60140  25.870  19.164   6.720
 4601POPC   C3B60141  26.206  19.281   6.948
 4601POPC   C4B60142  26.258  19.410   7.348
 4602POPC   NC360143   4.586  17.465   5.410
 4602POPC   PO460144   3.989  17.834   5.427
 4602POPC   GL160145   4.261  17.731   5.750
 4602POPC   GL260146   4.526  17.945   5.683
 4602POPC   C1A60147   4.181  17.562   6.170
 4602POPC   D2A60148   3.999  17.677   6.593
 4602POPC   C3A60149   4.162  17.497   6.996
 4602POPC   C4A60150   4.311  17.092   7.193
 4602POPC   C1B60151   4.583  17.918   6.143
 4602POPC   C2B60152   4.513  17.695   6.536
 4602POPC   C3B60153   4.646  17.732   6.954
 4602POPC   C4B60154   4.561  17.534   7.328
 4603POPC   NC360155  31.668   6.893   5.415
 4603POPC   PO460156  31.117   6.425   5.434
 4603POPC   GL160157  31.371   6.644   5.768
 4603POPC   GL260158  31.711   6.508   5.770
 4603POPC   C1A60159  31.219   6.728   6.217
 4603POPC   D2A60160  31.202   6.522   6.662
 4603POPC   C3A60161  31.380   6.705   7.017
 4603POPC   C4A60162  31.803   6.924   7.064
 4603POPC   C1B60163  31.820   6.150   6.041
 4603POPC   C2B60164  31.834   6.095   6.497
 4603POPC   C3B60165  31.677   6.309   6.879
 4603POPC   C4B60166  31.771   6.474   7.303
 4604POPC   NC360167  39.342  44.820   5.328
 4604POPC   PO460168  38.937   0.240   5.701
 4604POPC   GL160169  39.085  44.797   5.778
 4604POPC   GL260170  39.460  44.672   5.817
 4604POPC   C1A60171  39.091  44.549   6.156
 4604POPC   D2A60172  39.489  44.526   6.404
 4604POPC   C3A60173  39.448  44.573   6.853
 4604POPC   C4A60174  39.075  44.496   7.122
 4604POPC   C1B60175  39.374  44.974   6.173
 4604POPC   C2B60176  39.491   0.054   6.608
 4604POPC   C3B60177  39.305   0.040   7.016
 4604POPC   C4B60178  39.416  44.785   7.364
 4605POPC   NC360179  42.212   7.357   5.520
 4605POPC   PO460180  42.013   7.856   5.454
 4605POPC   GL160181  42.196   7.838   5.879
 4605POPC   GL260182  42.546   7.747   5.803
 4605POPC   C1A60183  42.145   7.768   6.362
 4605POPC   D2A60184  42.334   7.448   6.649
 4605POPC   C3A60185  42.161   7.327   7.050
 4605POPC   C4A60186  41.803   7.381   7.310
 4605POPC   C1B60187  42.657   7.716   6.249
 4605POPC   C2B60188  42.569   7.900   6.657
 4605POPC   C3B60189  42.470   7.761   7.070
 4605POPC   C4B60190  42.798   7.694   7.404
 4606POPC   NC360191  28.584  26.374   5.422
 4606POPC   PO460192  28.481  25.779   5.544
 4606POPC   GL160193  28.415  26.099   5.864
 4606POPC   GL260194  28.162  25.907   5.982
 4606POPC   C1A60195  28.487  26.065   6.344
 4606POPC   D2A60196  28.657  25.993   6.756
 4606POPC   C3A60197  28.399  26.066   7.100
 4606POPC   C4A60198  28.144  26.406   7.290
 4606POPC   C1B60199  28.105  25.705   6.369
 4606POPC   C2B60200  28.243  25.659   6.774
 4606POPC   C3B60201  28.009  25.629   7.137
 4606POPC   C4B60202  28.055  25.928   7.451
 4607POPC   NC360203   7.669  40.476   5.616
 4607POPC   PO460204   7.300  40.927   5.442
 4607POPC   GL160205   7.439  41.000   5.843
 4607POPC   GL260206   7.776  40.864   5.919
 4607POPC   C1A60207   7.305  40.857   6.214
 4607POPC   D2A60208   7.471  40.834   6.601
 4607POPC   C3A60209   7.187  40.793   6.893
 4607POPC   C4A60210   7.215  40.865   7.300
 4607POPC   C1B60211   7.744  41.157   6.262
 4607POPC   C2B60212   7.888  41.116   6.693
 4607POPC   C3B60213   7.695  40.890   7.068
 4607POPC   C4B60214   7.599  41.153   7.438
 4608POPC   NC360215  29.527   5.252   5.530
 4608POPC   PO460216  30.157   5.196   5.363
 4608POPC   GL160217  29.956   5.091   5.778
 4608POPC   GL260218  29.847   5.414   5.920
 4608POPC   C1A60219  29.725   4.937   6.167
 4608POPC   D2A60220  29.638   5.017   6.607
 4608POPC   C3A60221  29.938   4.880   6.930
 4608POPC   C4A60222  29.823   4.926   7.363
 4608POPC   C1B60223  30.142   5.249   6.249
 4608POPC   C2B60224  30.099   5.328   6.701
 4608POPC   C3B60225  30.293   5.276   7.109
 4608POPC   C4B60226  30.136   5.324   7.516
 4609POPC   NC360227  15.851  29.411   5.415
 4609POPC   PO460228  15.951  28.772   5.550
 4609POPC   GL160229  15.741  29.080   5.837
 4609POPC   GL260230  15.567  29.411   5.834
 4609POPC   C1A60231  15.769  29.118   6.276
 4609POPC   D2A60232  16.062  28.936   6.548
 4609POPC   C3A60233  16.175  29.131   6.946
 4609POPC   C4A60234  16.562  29.075   7.196
 4609POPC   C1B60235  15.444  29.551   6.237
 4609POPC   C2B60236  15.566  29.435   6.661
 4609POPC   C3B60237  15.823  29.564   7.016
 4609POPC   C4B60238  16.144  29.477   7.348
 4610POPC   NC360239  37.684   5.081   5.253
 4610POPC   PO460240  37.713   5.478   5.790
 4610POPC   GL160241  37.591   5.098   5.891
 4610POPC   GL260242  37.889   4.950   5.716
 4610POPC   C1A60243  37.535   5.089   6.350
 4610POPC   D2A60244  37.663   5.434   6.637
 4610POPC   C3A60245  37.539   5.463   7.067
 4610POPC   C4A60246  37.229   5.238   7.274
 4610POPC   C1B60247  37.960   4.841   6.155
 4610POPC   C2B60248  37.759   4.660   6.537
 4610POPC   C3B60249  37.558   4.911   6.831
 4610POPC   C4B60250  37.659   4.973   7.214
 4611POPC   NC360251  34.306  21.139   5.453
 4611POPC   PO460252  34.869  21.475   5.372
 4611POPC   GL160253  34.705  21.298   5.767
 4611POPC   GL260254  34.384  21.445   5.883
 4611POPC   C1A60255  34.775  21.283   6.215
 4611POPC   D2A60256  34.687  21.507   6.591
 4611POPC   C3A60257  34.870  21.327   6.961
 4611POPC   C4A60258  34.759  21.502   7.348
 4611POPC   C1B60259  34.269  21.239   6.302
 4611POPC   C2B60260  34.471  21.077   6.691
 4611POPC   C3B60261  34.370  21.293   7.056
 4611POPC   C4B60262  34.101  21.146   7.328
 4612POPC   NC360263  33.889  42.770   5.167
 4612POPC   PO460264  33.623  42.212   5.228
 4612POPC   GL160265  33.651  42.274   5.699
 4612POPC   GL260266  33.721  42.605   5.843
 4612POPC   C1A60267  33.589  42.203   6.156
 4612POPC   D2A60268  33.780  42.133   6.541
 4612POPC   C3A60269  33.685  42.313   6.909
 4612POPC   C4A60270  33.731  42.128   7.310
 4612POPC   C1B60271  34.039  42.439   6.164
 4612POPC   C2B60272  34.139  42.472   6.599
 4612POPC   C3B60273  34.162  42.237   6.966
 4612POPC   C4B60274  34.133  42.436   7.352
 4613POPC   NC360275  38.398  27.860   5.376
 4613POPC   PO460276  38.354  27.243   5.595
 4613POPC   GL160277  38.355  27.586   5.830
 4613POPC   GL260278  38.111  27.448   6.046
 4613POPC   C1A60279  38.521  27.788   6.183
 4613POPC   D2A60280  38.642  27.636   6.599
 4613POPC   C3A60281  38.377  27.737   6.939
 4613POPC   C4A60282  38.477  27.709   7.353
 4613POPC   C1B60283  38.465  27.252   6.258
 4613POPC   C2B60284  38.679  27.116   6.640
 4613POPC   C3B60285  38.646  27.289   7.051
 4613POPC   C4B60286  38.242  27.276   7.225
 4614POPC   NC360287  30.207  27.195   5.193
 4614POPC   PO460288  29.758  26.641   5.256
 4614POPC   GL160289  29.764  26.799   5.677
 4614POPC   GL260290  30.100  26.902   5.670
 4614POPC   C1A60291  29.779  26.964   6.097
 4614POPC   D2A60292  29.868  26.718   6.456
 4614POPC   C3A60293  29.824  26.805   6.895
 4614POPC   C4A60294  30.022  26.520   7.173
 4614POPC   C1B60295  30.299  26.944   6.064
 4614POPC   C2B60296  30.332  26.999   6.494
 4614POPC   C3B60297  30.360  26.850   6.887
 4614POPC   C4B60298  30.192  26.986   7.253
 4615POPC   NC360299  32.849  25.101   5.326
 4615POPC   PO460300  32.717  25.698   5.529
 4615POPC   GL160301  32.973  25.361   5.767
 4615POPC   GL260302  33.112  24.999   5.747
 4615POPC   C1A60303  33.155  25.414   6.170
 4615POPC   D2A60304  32.925  25.509   6.566
 4615POPC   C3A60305  33.076  25.533   6.992
 4615POPC   C4A60306  32.973  25.295   7.355
 4615POPC   C1B60307  33.206  24.893   6.157
 4615POPC   C2B60308  33.271  25.086   6.563
 4615POPC   C3B60309  33.074  25.009   6.940
 4615POPC   C4B60310  33.218  24.836   7.327
 4616POPC   NC360311  28.751  34.050   5.543
 4616POPC   PO460312  29.279  33.692   5.400
 4616POPC   GL160313  29.225  33.780   5.820
 4616POPC   GL260314  28.910  33.629   5.821
 4616POPC   C1A60315  29.320  33.981   6.239
 4616POPC   D2A60316  29.500  34.121   6.657
 4616POPC   C3A60317  29.277  33.911   7.010
 4616POPC   C4A60318  29.300  33.795   7.449
 4616POPC   C1B60319  29.005  33.588   6.264
 4616POPC   C2B60320  28.915  33.719   6.669
 4616POPC   C3B60321  28.891  33.467   7.026
 4616POPC   C4B60322  28.928  33.476   7.449
 4617POPC   NC360323  31.558  27.149   5.771
 4617POPC   PO460324  31.299  26.684   5.387
 4617POPC   GL160325  31.474  26.610   5.766
 4617POPC   GL260326  31.797  26.680   5.624
 4617POPC   C1A60327  31.361  26.670   6.219
 4617POPC   D2A60328  31.144  26.503   6.585
 4617POPC   C3A60329  31.344  26.664   6.956
 4617POPC   C4A60330  31.608  26.928   7.163
 4617POPC   C1B60331  31.885  26.553   6.067
 4617POPC   C2B60332  31.932  26.763   6.472
 4617POPC   C3B60333  31.862  26.591   6.876
 4617POPC   C4B60334  31.784  26.366   7.241
 4618POPC   NC360335  15.209  27.805   5.561
 4618POPC   PO460336  15.379  27.202   5.511
 4618POPC   GL160337  15.300  27.365   5.916
 4618POPC   GL260338  14.985  27.455   5.863
 4618POPC   C1A60339  15.268  27.437   6.397
 4618POPC   D2A60340  15.415  27.251   6.821
 4618POPC   C3A60341  15.496  27.529   7.176
 4618POPC   C4A60342  15.288  27.920   7.254
 4618POPC   C1B60343  14.773  27.305   6.205
 4618POPC   C2B60344  14.831  27.332   6.652
 4618POPC   C3B60345  15.014  27.552   6.990
 4618POPC   C4B60346  14.889  27.550   7.414
 4619POPC   NC360347  21.377  10.792   5.486
 4619POPC   PO460348  21.678  10.329   5.480
 4619POPC   GL160349  21.364  10.425   5.870
 4619POPC   GL260350  21.099  10.708   5.921
 4619POPC   C1A60351  21.231  10.439   6.342
 4619POPC   D2A60352  21.291  10.624   6.750
 4619POPC   C3A60353  21.274  10.437   7.179
 4619POPC   C4A60354  21.586  10.539   7.516
 4619POPC   C1B60355  20.847  10.805   6.311
 4619POPC   C2B60356  20.797  10.751   6.776
 4619POPC   C3B60357  20.776  10.575   7.191
 4619POPC   C4B60358  20.852  10.437   7.604
 4620POPC   NC360359  10.735  14.513   5.454
 4620POPC   PO460360  10.084  14.191   5.446
 4620POPC   GL160361  10.316  14.450   5.727
 4620POPC   GL260362  10.552  14.157   5.750
 4620POPC   C1A60363  10.614  14.536   6.127
 4620POPC   D2A60364  10.711  14.694   6.573
 4620POPC   C3A60365  10.726  14.505   7.009
 4620POPC   C4A60366  10.530  14.351   7.401
 4620POPC   C1B60367  10.299  14.127   6.101
 4620POPC   C2B60368  10.309  14.324   6.508
 4620POPC   C3B60369  10.354  14.171   6.917
 4620POPC   C4B60370  10.125  14.057   7.264
 4621POPC   NC360371  29.619   7.948   5.454
 4621POPC   PO460372  30.266   8.150   5.315
 4621POPC   GL160373  30.012   8.202   5.677
 4621POPC   GL260374  29.866   8.544   5.725
 4621POPC   C1A60375  29.944   7.916   6.019
 4621POPC   D2A60376  30.025   7.964   6.419
 4621POPC   C3A60377  29.780   7.924   6.763
 4621POPC   C4A60378  29.848   7.993   7.180
 4621POPC   C1B60379  29.939   8.417   6.154
 4621POPC   C2B60380  29.696   8.370   6.507
 4621POPC   C3B60381  29.837   8.457   6.899
 4621POPC   C4B60382  30.014   8.442   7.299
 4622POPC   NC360383  11.324  35.003   5.480
 4622POPC   PO460384  11.463  34.366   5.291
 4622POPC   GL160385  11.446  34.546   5.700
 4622POPC   GL260386  11.692  34.766   5.764
 4622POPC   C1A60387  11.390  34.554   6.147
 4622POPC   D2A60388  11.261  34.354   6.519
 4622POPC   C3A60389  11.277  34.587   6.891
 4622POPC   C4A60390  11.166  34.511   7.298
 4622POPC   C1B60391  11.765  34.936   6.170
 4622POPC   C2B60392  11.539  34.901   6.554
 4622POPC   C3B60393  11.584  35.013   6.994
 4622POPC   C4B60394  11.205  35.036   7.199
 4623POPC   NC360395  40.602  33.655   5.218
 4623POPC   PO460396  41.203  33.568   5.275
 4623POPC   GL160397  40.840  33.543   5.651
 4623POPC   GL260398  40.440  33.566   5.705
 4623POPC   C1A60399  40.858  33.761   6.059
 4623POPC   D2A60400  41.061  33.976   6.448
 4623POPC   C3A60401  40.937  33.869   6.888
 4623POPC   C4A60402  41.079  33.986   7.309
 4623POPC   C1B60403  40.446  33.455   6.141
 4623POPC   C2B60404  40.746  33.521   6.508
 4623POPC   C3B60405  40.892  33.363   6.902
 4623POPC   C4B60406  40.779  33.538   7.300
 4624POPC   NC360407  26.900  33.266   5.439
 4624POPC   PO460408  26.793  33.968   5.292
 4624POPC   GL160409  26.843  33.775   5.724
 4624POPC   GL260410  27.131  33.576   5.796
 4624POPC   C1A60411  26.765  33.626   6.181
 4624POPC   D2A60412  26.691  33.511   6.639
 4624POPC   C3A60413  26.571  33.764   7.014
 4624POPC   C4A60414  26.781  33.810   7.434
 4624POPC   C1B60415  27.157  33.921   6.123
 4624POPC   C2B60416  27.181  33.794   6.567
 4624POPC   C3B60417  27.098  33.646   6.994
 4624POPC   C4B60418  26.836  33.281   7.090
 4625POPC   NC360419  30.942  13.249   5.321
 4625POPC   PO460420  30.599  13.807   5.089
 4625POPC   GL160421  30.574  13.501   5.529
 4625POPC   GL260422  30.888  13.520   5.783
 4625POPC   C1A60423  30.398  13.472   5.963
 4625POPC   D2A60424  30.384  13.442   6.422
 4625POPC   C3A60425  30.567  13.575   6.837
 4625POPC   C4A60426  30.515  13.713   7.293
 4625POPC   C1B60427  30.909  13.817   6.206
 4625POPC   C2B60428  30.980  14.000   6.658
 4625POPC   C3B60429  30.989  13.808   7.069
 4625POPC   C4B60430  31.155  13.365   7.206
 4626POPC   NC360431  28.795  31.751   5.416
 4626POPC   PO460432  29.269  32.208   5.192
 4626POPC   GL160433  29.150  32.099   5.694
 4626POPC   GL260434  28.992  31.822   5.894
 4626POPC   C1A60435  29.151  32.271   6.154
 4626POPC   D2A60436  29.352  32.329   6.598
 4626POPC   C3A60437  29.092  32.439   6.992
 4626POPC   C4A60438  28.985  32.608   7.431
 4626POPC   C1B60439  29.401  31.808   6.135
 4626POPC   C2B60440  29.588  31.789   6.564
 4626POPC   C3B60441  29.376  31.953   6.948
 4626POPC   C4B60442  29.474  32.263   7.290
 4627POPC   NC360443  27.539  44.672   5.062
 4627POPC   PO460444  27.867  44.458   5.628
 4627POPC   GL160445  27.656  44.699   5.906
 4627POPC   GL260446  27.310  44.671   5.903
 4627POPC   C1A60447  27.591  44.652   6.329
 4627POPC   D2A60448  27.656  44.728   6.735
 4627POPC   C3A60449  27.349  44.578   7.022
 4627POPC   C4A60450  27.512  44.565   7.426
 4627POPC   C1B60451  27.302   0.050   6.164
 4627POPC   C2B60452  27.403   0.219   6.531
 4627POPC   C3B60453  27.329   0.075   6.907
 4627POPC   C4B60454  27.328   0.008   7.303
 4628POPC   NC360455  27.727   0.973   5.418
 4628POPC   PO460456  27.832   1.641   5.232
 4628POPC   GL160457  27.726   1.439   5.706
 4628POPC   GL260458  27.460   1.594   5.899
 4628POPC   C1A60459  27.610   1.151   6.122
 4628POPC   D2A60460  27.425   1.204   6.578
 4628POPC   C3A60461  27.543   1.026   6.967
 4628POPC   C4A60462  27.676   0.945   7.395
 4628POPC   C1B60463  27.222   1.548   6.262
 4628POPC   C2B60464  27.170   1.654   6.687
 4628POPC   C3B60465  27.356   1.485   7.049
 4628POPC   C4B60466  27.397   1.343   7.462
 4629POPC   NC360467  37.249  14.927   5.543
 4629POPC   PO460468  36.733  15.419   5.420
 4629POPC   GL160469  36.921  15.207   5.834
 4629POPC   GL260470  37.245  15.148   6.029
 4629POPC   C1A60471  36.822  15.068   6.271
 4629POPC   D2A60472  36.702  15.316   6.599
 4629POPC   C3A60473  36.732  15.052   6.914
 4629POPC   C4A60474  36.892  14.984   7.274
 4629POPC   C1B60475  37.168  15.507   6.263
 4629POPC   C2B60476  37.053  15.670   6.668
 4629POPC   C3B60477  37.001  15.484   7.081
 4629POPC   C4B60478  37.002  15.413   7.539
 4630POPC   NC360479   2.727  29.987   5.167
 4630POPC   PO460480   1.999  29.917   5.291
 4630POPC   GL160481   2.154  29.899   5.730
 4630POPC   GL260482   2.428  30.134   5.752
 4630POPC   C1A60483   2.015  29.734   6.161
 4630POPC   D2A60484   1.992  29.581   6.595
 4630POPC   C3A60485   2.030  29.767   6.986
 4630POPC   C4A60486   1.905  29.740   7.432
 4630POPC   C1B60487   2.106  30.226   6.120
 4630POPC   C2B60488   1.889  30.122   6.529
 4630POPC   C3B60489   1.878  30.241   6.977
 4630POPC   C4B60490   2.086  30.200   7.376
 4631POPC   NC360491  20.476  35.239   5.340
 4631POPC   PO460492  21.109  35.353   5.377
 4631POPC   GL160493  20.990  35.283   5.761
 4631POPC   GL260494  20.738  35.019   5.774
 4631POPC   C1A60495  20.815  35.453   6.161
 4631POPC   D2A60496  20.612  35.328   6.546
 4631POPC   C3A60497  20.580  35.597   6.908
 4631POPC   C4A60498  20.246  35.557   7.249
 4631POPC   C1B60499  21.008  34.983   6.154
 4631POPC   C2B60500  21.092  35.127   6.558
 4631POPC   C3B60501  20.865  35.070   6.933
 4631POPC   C4B60502  20.684  35.276   7.276
 4632POPC   NC360503   0.461  41.709   5.218
 4632POPC   PO460504   0.161  42.050   5.704
 4632POPC   GL160505   0.569  41.800   5.800
 4632POPC   GL260506   0.634  41.414   5.755
 4632POPC   C1A60507   0.655  41.656   6.236
 4632POPC   D2A60508   0.420  41.486   6.595
 4632POPC   C3A60509   0.422  41.669   7.009
 4632POPC   C4A60510   0.236  41.697   7.410
 4632POPC   C1B60511   0.602  41.143   6.149
 4632POPC   C2B60512   0.767  41.111   6.558
 4632POPC   C3B60513   0.612  41.116   6.989
 4632POPC   C4B60514   0.648  41.370   7.350
 4633POPC   NC360515  13.849  36.214   5.180
 4633POPC   PO460516  13.173  35.998   5.400
 4633POPC   GL160517  13.409  36.058   5.762
 4633POPC   GL260518  13.310  35.776   5.965
 4633POPC   C1A60519  13.303  36.275   6.153
 4633POPC   D2A60520  13.468  36.502   6.503
 4633POPC   C3A60521  13.511  36.236   6.871
 4633POPC   C4A60522  13.560  36.197   7.333
 4633POPC   C1B60523  13.693  35.934   6.199
 4633POPC   C2B60524  13.908  36.179   6.551
 4633POPC   C3B60525  13.978  36.070   7.007
 4633POPC   C4B60526  13.755  35.741   7.234
 4634POPC   NC360527  12.635  27.105   5.471
 4634POPC   PO460528  13.203  26.689   5.594
 4634POPC   GL160529  12.823  26.757   5.810
 4634POPC   GL260530  12.591  26.467   5.782
 4634POPC   C1A60531  12.939  26.901   6.221
 4634POPC   D2A60532  13.152  26.751   6.581
 4634POPC   C3A60533  13.002  26.993   6.930
 4634POPC   C4A60534  12.867  26.769   7.268
 4634POPC   C1B60535  12.656  26.463   6.199
 4634POPC   C2B60536  12.455  26.469   6.555
 4634POPC   C3B60537  12.550  26.678   6.887
 4634POPC   C4B60538  12.460  26.471   7.248
 4635POPC   NC360539  39.643  41.773   5.589
 4635POPC   PO460540  39.117  41.422   5.394
 4635POPC   GL160541  39.197  41.616   5.784
 4635POPC   GL260542  39.414  41.400   5.866
 4635POPC   C1A60543  39.181  41.755   6.194
 4635POPC   D2A60544  39.281  41.898   6.602
 4635POPC   C3A60545  39.396  41.715   6.999
 4635POPC   C4A60546  39.488  41.820   7.439
 4635POPC   C1B60547  39.467  41.245   6.229
 4635POPC   C2B60548  39.469  41.383   6.614
 4635POPC   C3B60549  39.470  41.155   6.959
 4635POPC   C4B60550  39.295  41.319   7.328
 4636POPC   NC360551   1.407  44.860   5.644
 4636POPC   PO460552   0.913  44.480   5.374
 4636POPC   GL160553   1.142  44.400   5.775
 4636POPC   GL260554   1.498  44.304   5.782
 4636POPC   C1A60555   1.064  44.583   6.184
 4636POPC   D2A60556   0.964  44.410   6.566
 4636POPC   C3A60557   1.037  44.655   6.922
 4636POPC   C4A60558   0.901  44.608   7.331
 4636POPC   C1B60559   1.527  44.405   6.198
 4636POPC   C2B60560   1.443  44.666   6.572
 4636POPC   C3B60561   1.472  44.923   6.965
 4636POPC   C4B60562   1.396  44.686   7.342
 4637POPC   NC360563   3.598  22.048   5.356
 4637POPC   PO460564   3.534  22.745   5.347
 4637POPC   GL160565   3.658  22.420   5.721
 4637POPC   GL260566   3.732  22.058   5.844
 4637POPC   C1A60567   3.870  22.444   6.145
 4637POPC   D2A60568   3.788  22.307   6.583
 4637POPC   C3A60569   3.339  22.281   6.720
 4637POPC   C4A60570   3.151  22.245   7.119
 4637POPC   C1B60571   3.482  22.062   6.236
 4637POPC   C2B60572   3.357  21.776   6.552
 4637POPC   C3B60573   3.414  21.839   6.977
 4637POPC   C4B60574   3.194  21.772   7.329
 4638POPC   NC360575  26.088  37.286   5.637
 4638POPC   PO460576  26.276  37.902   5.351
 4638POPC   GL160577  26.139  37.790   5.736
 4638POPC   GL260578  26.506  37.733   5.789
 4638POPC   C1A60579  25.891  37.798   6.126
 4638POPC   D2A60580  25.846  37.677   6.549
 4638POPC   C3A60581  26.161  37.768   6.824
 4638POPC   C4A60582  25.979  37.797   7.206
 4638POPC   C1B60583  26.365  37.648   6.207
 4638POPC   C2B60584  26.169  37.286   6.388
 4638POPC   C3B60585  26.151  37.250   6.818
 4638POPC   C4B60586  26.437  37.423   7.119
 4639POPC   NC360587  42.780  40.545   5.439
 4639POPC   PO460588  43.292  40.996   5.499
 4639POPC   GL160589  43.259  40.787   5.912
 4639POPC   GL260590  42.974  40.576   5.968
 4639POPC   C1A60591  43.340  40.965   6.332
 4639POPC   D2A60592  43.072  41.151   6.650
 4639POPC   C3A60593  43.132  41.108   7.065
 4639POPC   C4A60594  43.048  40.734   7.273
 4639POPC   C1B60595  42.953  40.666   6.450
 4639POPC   C2B60596  43.328  40.704   6.813
 4639POPC   C3B60597  43.488  40.506   7.252
 4639POPC   C4B60598  43.271  40.592   7.716
 4640POPC   NC360599   3.819  23.538   5.487
 4640POPC   PO460600   3.179  23.684   5.251
 4640POPC   GL160601   3.377  23.705   5.674
 4640POPC   GL260602   3.356  24.038   5.745
 4640POPC   C1A60603   3.582  23.732   6.121
 4640POPC   D2A60604   3.781  23.933   6.508
 4640POPC   C3A60605   3.773  23.663   6.878
 4640POPC   C4A60606   3.643  23.577   7.281
 4640POPC   C1B60607   3.114  24.002   6.121
 4640POPC   C2B60608   3.254  23.849   6.530
 4640POPC   C3B60609   3.351  23.963   6.973
 4640POPC   C4B60610   3.220  24.072   7.396
 4641POPC   NC360611  22.861  35.269   5.415
 4641POPC   PO460612  22.725  35.875   5.632
 4641POPC   GL160613  22.860  35.524   5.881
 4641POPC   GL260614  23.144  35.677   6.030
 4641POPC   C1A60615  22.780  35.177   6.198
 4641POPC   D2A60616  22.923  35.111   6.632
 4641POPC   C3A60617  22.769  35.251   7.030
 4641POPC   C4A60618  22.787  35.298   7.456
 4641POPC   C1B60619  23.289  35.271   6.201
 4641POPC   C2B60620  23.440  35.107   6.601
 4641POPC   C3B60621  23.293  35.268   7.002
 4641POPC   C4B60622  23.271  35.134   7.426
 4642POPC   NC360623  34.691  27.160   5.218
 4642POPC   PO460624  34.197  26.674   5.430
 4642POPC   GL160625  34.443  26.655   5.811
 4642POPC   GL260626  34.743  26.708   5.889
 4642POPC   C1A60627  34.399  26.826   6.238
 4642POPC   D2A60628  34.652  26.958   6.572
 4642POPC   C3A60629  34.469  26.868   6.950
 4642POPC   C4A60630  34.584  26.816   7.388
 4642POPC   C1B60631  35.024  26.849   6.216
 4642POPC   C2B60632  35.137  26.829   6.656
 4642POPC   C3B60633  34.955  26.901   7.044
 4642POPC   C4B60634  35.013  27.058   7.448
 4643POPC   NC360635  20.696  33.305   5.433
 4643POPC   PO460636  20.560  32.694   5.212
 4643POPC   GL160637  20.505  32.928   5.726
 4643POPC   GL260638  20.746  33.185   5.920
 4643POPC   C1A60639  20.413  33.051   6.247
 4643POPC   D2A60640  20.694  33.187   6.621
 4643POPC   C3A60641  20.584  33.074   7.085
 4643POPC   C4A60642  20.536  32.789   7.493
 4643POPC   C1B60643  20.783  32.735   6.109
 4643POPC   C2B60644  20.856  32.680   6.543
 4643POPC   C3B60645  21.052  32.893   6.875
 4643POPC   C4B60646  20.948  32.688   7.236
 4644POPC   NC360647   8.747  36.915   4.995
 4644POPC   PO460648   9.276  36.834   5.426
 4644POPC   GL160649   9.053  37.016   5.733
 4644POPC   GL260650   9.054  36.693   5.893
 4644POPC   C1A60651   8.988  37.148   6.169
 4644POPC   D2A60652   8.967  37.154   6.624
 4644POPC   C3A60653   8.581  37.040   6.839
 4644POPC   C4A60654   8.551  37.142   7.268
 4644POPC   C1B60655   9.228  36.697   6.300
 4644POPC   C2B60656   9.265  36.735   6.718
 4644POPC   C3B60657   9.000  36.817   7.054
 4644POPC   C4B60658   9.035  36.713   7.466
 4645POPC   NC360659  26.993  39.379   5.391
 4645POPC   PO460660  26.458  38.994   5.443
 4645POPC   GL160661  26.590  39.289   5.753
 4645POPC   GL260662  26.867  39.133   5.869
 4645POPC   C1A60663  26.474  39.225   6.192
 4645POPC   D2A60664  26.570  39.306   6.610
 4645POPC   C3A60665  26.624  39.153   7.037
 4645POPC   C4A60666  26.873  39.221   7.412
 4645POPC   C1B60667  27.012  39.111   6.309
 4645POPC   C2B60668  26.897  38.915   6.696
 4645POPC   C3B60669  26.963  38.763   7.106
 4645POPC   C4B60670  27.085  38.769   7.532
 4646POPC   NC360671  30.603   5.082   5.279
 4646POPC   PO460672  31.134   5.299   5.550
 4646POPC   GL160673  30.799   5.076   5.789
 4646POPC   GL260674  30.467   5.243   5.793
 4646POPC   C1A60675  30.578   4.900   6.165
 4646POPC   D2A60676  30.351   4.881   6.568
 4646POPC   C3A60677  30.606   4.885   6.947
 4646POPC   C4A60678  30.785   5.026   7.335
 4646POPC   C1B60679  30.658   5.394   6.214
 4646POPC   C2B60680  30.607   5.311   6.667
 4646POPC   C3B60681  30.809   5.432   7.042
 4646POPC   C4B60682  30.707   5.500   7.510
 4647POPC   NC360683  42.910  15.200   5.496
 4647POPC   PO460684  43.448  14.917   5.184
 4647POPC   GL160685  43.433  14.992   5.666
 4647POPC   GL260686  43.106  14.883   5.848
 4647POPC   C1A60687  43.474  15.176   6.108
 4647POPC   D2A60688  43.219  15.147   6.492
 4647POPC   C3A60689  43.084  15.312   6.879
 4647POPC   C4A60690  43.408  15.167   7.144
 4647POPC   C1B60691  43.062  14.721   6.274
 4647POPC   C2B60692  42.936  14.777   6.735
 4647POPC   C3B60693  42.948  14.871   7.205
 4647POPC   C4B60694  42.995  14.590   7.592
 4648POPC   NC360695  27.363  40.910   5.357
 4648POPC   PO460696  28.003  40.870   5.374
 4648POPC   GL160697  27.722  40.811   5.747
 4648POPC   GL260698  27.427  41.034   5.858
 4648POPC   C1A60699  27.680  40.729   6.212
 4648POPC   D2A60700  27.587  40.870   6.639
 4648POPC   C3A60701  27.809  40.735   7.043
 4648POPC   C4A60702  27.721  40.703   7.510
 4648POPC   C1B60703  27.234  41.111   6.292
 4648POPC   C2B60704  27.084  41.036   6.729
 4648POPC   C3B60705  27.333  40.922   7.088
 4648POPC   C4B60706  27.663  41.168   7.312
 4649POPC   NC360707  12.243   0.669   5.475
 4649POPC   PO460708  11.824   0.093   5.476
 4649POPC   GL160709  11.730   0.462   5.787
 4649POPC   GL260710  11.973   0.775   5.898
 4649POPC   C1A60711  11.680   0.591   6.231
 4649POPC   D2A60712  12.000   0.606   6.542
 4649POPC   C3A60713  11.930   0.464   6.938
 4649POPC   C4A60714  12.216   0.269   7.217
 4649POPC   C1B60715  12.298   0.836   6.193
 4649POPC   C2B60716  12.555   0.847   6.573
 4649POPC   C3B60717  12.419   0.706   6.967
 4649POPC   C4B60718  12.060   0.937   7.098
 4650POPC   NC360719  41.821  32.825   5.594
 4650POPC   PO460720  42.322  33.141   5.253
 4650POPC   GL160721  42.326  32.910   5.676
 4650POPC   GL260722  42.107  33.129   5.889
 4650POPC   C1A60723  42.215  32.679   6.099
 4650POPC   D2A60724  42.351  32.659   6.508
 4650POPC   C3A60725  42.136  32.853   6.832
 4650POPC   C4A60726  42.335  32.750   7.216
 4650POPC   C1B60727  42.166  33.126   6.343
 4650POPC   C2B60728  42.249  33.340   6.718
 4650POPC   C3B60729  42.353  33.261   7.143
 4650POPC   C4B60730  42.125  33.105   7.538
 4651POPC   NC360731  42.979  34.778   5.469
 4651POPC   PO460732  43.248  34.257   5.674
 4651POPC   GL160733  42.969  34.388   5.922
 4651POPC   GL260734  42.665  34.431   5.712
 4651POPC   C1A60735  43.159  34.682   6.209
 4651POPC   D2A60736  43.290  34.567   6.614
 4651POPC   C3A60737  43.309  34.917   6.864
 4651POPC   C4A60738  43.139  34.941   7.211
 4651POPC   C1B60739  42.647  34.727   6.078
 4651POPC   C2B60740  42.745  34.556   6.466
 4651POPC   C3B60741  42.831  34.672   6.867
 4651POPC   C4B60742  42.727  34.650   7.290
 4652POPC   NC360743  14.880  20.600   5.509
 4652POPC   PO460744  15.560  20.267   5.561
 4652POPC   GL160745  15.267  20.494   5.823
 4652POPC   GL260746  15.324  20.832   5.937
 4652POPC   C1A60747  15.095  20.439   6.206
 4652POPC   D2A60748  15.071  20.629   6.586
 4652POPC   C3A60749  15.204  20.419   6.961
 4652POPC   C4A60750  15.102  20.465   7.358
 4652POPC   C1B60751  14.929  20.962   6.141
 4652POPC   C2B60752  14.817  21.075   6.570
 4652POPC   C3B60753  15.036  20.952   6.976
 4652POPC   C4B60754  14.837  20.915   7.342
 4653POPC   NC360755   3.291   4.151   5.450
 4653POPC   PO460756   3.756   4.619   5.378
 4653POPC   GL160757   3.676   4.431   5.771
 4653POPC   GL260758   3.959   4.226   5.841
 4653POPC   C1A60759   3.607   4.465   6.222
 4653POPC   D2A60760   3.876   4.344   6.584
 4653POPC   C3A60761   3.651   4.347   6.988
 4653POPC   C4A60762   3.626   4.235   7.455
 4653POPC   C1B60763   3.780   3.996   6.145
 4653POPC   C2B60764   3.642   3.889   6.542
 4653POPC   C3B60765   3.447   3.889   6.906
 4653POPC   C4B60766   3.647   3.799   7.221
 4654POPC   NC360767  41.976  40.906   5.631
 4654POPC   PO460768  42.556  41.013   5.389
 4654POPC   GL160769  42.474  40.766   5.825
 4654POPC   GL260770  42.181  40.523   5.915
 4654POPC   C1A60771  42.394  40.779   6.304
 4654POPC   D2A60772  42.145  40.982   6.647
 4654POPC   C3A60773  42.300  40.918   7.085
 4654POPC   C4A60774  42.659  41.039   7.353
 4654POPC   C1B60775  42.108  40.237   6.263
 4654POPC   C2B60776  42.097  40.440   6.654
 4654POPC   C3B60777  41.991  40.460   7.079
 4654POPC   C4B60778  42.324  40.452   7.342
 4655POPC   NC360779  12.259  35.360   5.395
 4655POPC   PO460780  12.893  35.187   5.465
 4655POPC   GL160781  12.867  35.504   5.820
 4655POPC   GL260782  12.554  35.706   5.856
 4655POPC   C1A60783  13.042  35.425   6.227
 4655POPC   D2A60784  12.895  35.564   6.624
 4655POPC   C3A60785  12.955  35.402   7.011
 4655POPC   C4A60786  12.917  35.577   7.393
 4655POPC   C1B60787  12.520  35.480   6.277
 4655POPC   C2B60788  12.433  35.384   6.735
 4655POPC   C3B60789  12.460  35.477   7.175
 4655POPC   C4B60790  12.513  35.881   7.433
 4656POPC   NC360791  38.098   5.410   5.539
 4656POPC   PO460792  38.439   4.839   5.462
 4656POPC   GL160793  38.563   5.016   5.855
 4656POPC   GL260794  38.286   5.195   5.936
 4656POPC   C1A60795  38.598   5.200   6.311
 4656POPC   D2A60796  38.749   5.151   6.721
 4656POPC   C3A60797  38.459   5.021   7.017
 4656POPC   C4A60798  38.440   5.411   7.198
 4656POPC   C1B60799  38.051   5.299   6.299
 4656POPC   C2B60800  38.045   5.068   6.645
 4656POPC   C3B60801  38.004   5.265   7.006
 4656POPC   C4B60802  38.091   5.121   7.426
 4657POPC   NC360803  19.411   5.697   5.525
 4657POPC   PO460804  20.060   5.715   5.228
 4657POPC   GL160805  19.896   5.832   5.702
 4657POPC   GL260806  19.757   5.548   5.867
 4657POPC   C1A60807  19.825   5.969   6.208
 4657POPC   D2A60808  20.031   6.150   6.607
 4657POPC   C3A60809  19.918   6.182   7.069
 4657POPC   C4A60810  19.822   5.939   7.461
 4657POPC   C1B60811  20.035   5.517   6.212
 4657POPC   C2B60812  20.151   5.655   6.607
 4657POPC   C3B60813  19.961   5.661   6.976
 4657POPC   C4B60814  20.132   5.501   7.299
 4658POPC   NC360815  12.635  37.988   5.540
 4658POPC   PO460816  13.135  37.731   5.054
 4658POPC   GL160817  12.999  37.608   5.531
 4658POPC   GL260818  12.679  37.494   5.733
 4658POPC   C1A60819  12.993  37.701   6.036
 4658POPC   D2A60820  12.884  37.955   6.419
 4658POPC   C3A60821  12.970  37.796   6.825
 4658POPC   C4A60822  13.253  37.722   7.140
 4658POPC   C1B60823  12.461  37.571   6.140
 4658POPC   C2B60824  12.400  37.796   6.550
 4658POPC   C3B60825  12.460  37.649   6.980
 4658POPC   C4B60826  12.518  37.848   7.384
 4659POPC   NC360827   5.881   7.678   5.200
 4659POPC   PO460828   5.633   7.103   5.234
 4659POPC   GL160829   5.648   7.201   5.687
 4659POPC   GL260830   5.507   6.989   5.865
 4659POPC   C1A60831   5.578   7.382   6.171
 4659POPC   D2A60832   5.888   7.333   6.560
 4659POPC   C3A60833   5.882   7.496   7.015
 4659POPC   C4A60834   5.671   7.797   7.328
 4659POPC   C1B60835   5.902   7.002   6.119
 4659POPC   C2B60836   6.009   6.833   6.529
 4659POPC   C3B60837   6.034   6.971   6.927
 4659POPC   C4B60838   5.653   7.053   7.126
 4660POPC   NC360839  12.600   8.736   5.309
 4660POPC   PO460840  13.261   8.742   5.444
 4660POPC   GL160841  13.058   8.911   5.798
 4660POPC   GL260842  12.706   8.766   5.799
 4660POPC   C1A60843  12.877   8.974   6.221
 4660POPC   D2A60844  12.618   9.137   6.541
 4660POPC   C3A60845  12.837   9.019   6.916
 4660POPC   C4A60846  13.207   8.801   7.066
 4660POPC   C1B60847  12.528   8.606   6.192
 4660POPC   C2B60848  12.510   8.653   6.654
 4660POPC   C3B60849  12.558   8.649   7.105
 4660POPC   C4B60850  12.466   8.902   7.454
 4661POPC   NC360851   8.695  29.206   4.992
 4661POPC   PO460852   9.052  29.125   5.470
 4661POPC   GL160853   8.890  29.229   5.850
 4661POPC   GL260854   8.558  29.167   5.704
 4661POPC   C1A60855   9.137  29.225   6.241
 4661POPC   D2A60856   9.212  29.027   6.637
 4661POPC   C3A60857   9.129  29.121   7.072
 4661POPC   C4A60858   9.192  29.101   7.575
 4661POPC   C1B60859   8.456  29.234   6.142
 4661POPC   C2B60860   8.713  29.101   6.491
 4661POPC   C3B60861   8.637  29.134   6.926
 4661POPC   C4B60862   8.717  29.050   7.374
 4662POPC   NC360863  30.995   1.484   5.529
 4662POPC   PO460864  30.433   1.127   5.382
 4662POPC   GL160865  30.675   1.137   5.769
 4662POPC   GL260866  30.549   1.488   5.794
 4662POPC   C1A60867  30.677   0.959   6.214
 4662POPC   D2A60868  30.378   1.018   6.564
 4662POPC   C3A60869  30.514   1.079   6.994
 4662POPC   C4A60870  30.916   1.064   7.184
 4662POPC   C1B60871  30.617   1.481   6.223
 4662POPC   C2B60872  30.666   1.442   6.631
 4662POPC   C3B60873  30.757   1.529   7.031
 4662POPC   C4B60874  30.348   1.574   7.133
 4663POPC   NC360875  42.382  25.812   5.541
 4663POPC   PO460876  42.048  26.393   5.452
 4663POPC   GL160877  42.410  26.251   5.817
 4663POPC   GL260878  42.503  25.913   6.007
 4663POPC   C1A60879  42.707  26.334   6.210
 4663POPC   D2A60880  42.597  26.404   6.689
 4663POPC   C3A60881  42.219  26.210   6.938
 4663POPC   C4A60882  42.101  25.894   7.288
 4663POPC   C1B60883  42.263  25.679   6.261
 4663POPC   C2B60884  42.248  25.721   6.699
 4663POPC   C3B60885  42.532  25.828   7.027
 4663POPC   C4B60886  42.604  25.904   7.489
 4664POPC   NC360887  15.187  31.767   5.472
 4664POPC   PO460888  14.995  31.171   5.317
 4664POPC   GL160889  15.080  31.362   5.771
 4664POPC   GL260890  15.400  31.537   5.877
 4664POPC   C1A60891  15.155  31.234   6.222
 4664POPC   D2A60892  14.968  31.261   6.630
 4664POPC   C3A60893  15.242  31.337   7.013
 4664POPC   C4A60894  15.208  31.418   7.452
 4664POPC   C1B60895  15.137  31.729   6.213
 4664POPC   C2B60896  15.195  31.717   6.660
 4664POPC   C3B60897  15.069  31.817   7.095
 4664POPC   C4B60898  15.006  31.886   7.522
 4665POPC   NC360899   8.824   3.790   5.370
 4665POPC   PO460900   9.190   3.238   5.646
 4665POPC   GL160901   8.983   3.570   5.854
 4665POPC   GL260902   8.647   3.676   5.870
 4665POPC   C1A60903   8.936   3.554   6.293
 4665POPC   D2A60904   9.128   3.361   6.620
 4665POPC   C3A60905   8.899   3.453   6.978
 4665POPC   C4A60906   9.047   3.551   7.355
 4665POPC   C1B60907   8.662   3.971   6.217
 4665POPC   C2B60908   8.811   3.957   6.661
 4665POPC   C3B60909   8.627   3.865   7.066
 4665POPC   C4B60910   8.496   3.611   7.408
 4666POPC   NC360911   8.023  42.003   5.410
 4666POPC   PO460912   8.200  41.362   5.419
 4666POPC   GL160913   8.326  41.462   5.805
 4666POPC   GL260914   8.108  41.731   5.836
 4666POPC   C1A60915   8.418  41.447   6.203
 4666POPC   D2A60916   8.193  41.590   6.526
 4666POPC   C3A60917   8.317  41.392   6.859
 4666POPC   C4A60918   8.336  41.569   7.244
 4666POPC   C1B60919   8.281  41.953   6.165
 4666POPC   C2B60920   8.483  42.092   6.508
 4666POPC   C3B60921   8.484  41.927   6.911
 4666POPC   C4B60922   8.872  41.761   7.086
 4667POPC   NC360923  41.111  12.029   5.208
 4667POPC   PO460924  41.746  11.944   5.500
 4667POPC   GL160925  41.459  12.081   5.869
 4667POPC   GL260926  41.200  12.383   5.823
 4667POPC   C1A60927  41.616  12.095   6.333
 4667POPC   D2A60928  41.686  12.167   6.788
 4667POPC   C3A60929  41.647  11.854   7.151
 4667POPC   C4A60930  41.798  11.763   7.583
 4667POPC   C1B60931  41.151  12.275   6.255
 4667POPC   C2B60932  41.272  12.499   6.638
 4667POPC   C3B60933  41.349  12.411   7.081
 4667POPC   C4B60934  41.145  12.011   7.091
 4668POPC   NC360935  39.251  39.392   5.452
 4668POPC   PO460936  39.587  38.767   5.337
 4668POPC   GL160937  39.341  39.014   5.774
 4668POPC   GL260938  39.525  39.291   5.892
 4668POPC   C1A60939  39.047  39.233   6.151
 4668POPC   D2A60940  38.872  39.439   6.549
 4668POPC   C3A60941  39.096  39.329   6.948
 4668POPC   C4A60942  39.467  39.063   7.108
 4668POPC   C1B60943  39.512  39.234   6.353
 4668POPC   C2B60944  39.572  39.421   6.761
 4668POPC   C3B60945  39.458  39.567   7.214
 4668POPC   C4B60946  39.509  39.456   7.645
 4669POPC   NC360947   4.725  12.335   5.595
 4669POPC   PO460948   5.251  11.939   5.292
 4669POPC   GL160949   5.101  11.905   5.723
 4669POPC   GL260950   5.376  12.102   5.817
 4669POPC   C1A60951   4.994  12.138   6.153
 4669POPC   D2A60952   5.124  12.256   6.569
 4669POPC   C3A60953   4.987  11.947   6.862
 4669POPC   C4A60954   4.806  11.937   7.268
 4669POPC   C1B60955   5.505  12.316   6.199
 4669POPC   C2B60956   5.623  12.338   6.649
 4669POPC   C3B60957   5.374  12.276   7.028
 4669POPC   C4B60958   5.358  12.601   7.315
 4670POPC   NC360959   3.095   7.937   5.517
 4670POPC   PO460960   2.599   8.371   5.376
 4670POPC   GL160961   2.756   8.260   5.794
 4670POPC   GL260962   2.687   8.625   5.841
 4670POPC   C1A60963   3.056   8.076   6.146
 4670POPC   D2A60964   3.288   8.199   6.536
 4670POPC   C3A60965   3.139   7.950   6.889
 4670POPC   C4A60966   3.163   7.901   7.333
 4670POPC   C1B60967   2.878   8.536   6.233
 4670POPC   C2B60968   2.782   8.268   6.584
 4670POPC   C3B60969   2.616   8.094   6.966
 4670POPC   C4B60970   2.314   7.856   7.186
 4671POPC   NC360971   3.048  24.133   5.343
 4671POPC   PO460972   2.719  23.377   5.378
 4671POPC   GL160973   2.894  23.564   5.702
 4671POPC   GL260974   2.652  23.718   5.862
 4671POPC   C1A60975   3.116  23.483   6.082
 4671POPC   D2A60976   3.078  23.294   6.495
 4671POPC   C3A60977   3.099  23.517   6.901
 4671POPC   C4A60978   2.885  23.766   7.201
 4671POPC   C1B60979   2.697  23.702   6.302
 4671POPC   C2B60980   2.764  23.904   6.696
 4671POPC   C3B60981   2.474  24.006   7.020
 4671POPC   C4B60982   2.406  23.778   7.405
 4672POPC   NC360983  24.050  34.231   5.595
 4672POPC   PO460984  24.136  34.857   5.323
 4672POPC   GL160985  24.423  34.604   5.684
 4672POPC   GL260986  24.210  34.546   5.972
 4672POPC   C1A60987  24.678  34.456   6.100
 4672POPC   D2A60988  24.514  34.482   6.553
 4672POPC   C3A60989  24.690  34.762   6.889
 4672POPC   C4A60990  24.646  34.736   7.354
 4672POPC   C1B60991  24.246  34.166   6.222
 4672POPC   C2B60992  23.975  33.996   6.532
 4672POPC   C3B60993  23.948  34.266   6.874
 4672POPC   C4B60994  24.353  34.415   7.077
 4673POPC   NC360995  19.531  10.386   5.538
 4673POPC   PO460996  18.998  10.657   5.252
 4673POPC   GL160997  19.056  10.565   5.702
 4673POPC   GL260998  19.011  10.194   5.747
 4673POPC   C1A60999  19.349  10.696   6.081
 4673POPC   D2A61000  19.368  10.490   6.498
 4673POPC   C3A61001  19.347  10.576   6.961
 4673POPC   C4A61002  19.103  10.698   7.333
 4673POPC   C1B61003  18.944  10.371   6.183
 4673POPC   C2B61004  18.852  10.544   6.606
 4673POPC   C3B61005  18.850  10.409   7.027
 4673POPC   C4B61006  18.827  10.273   7.471
 4674POPC   NC361007   7.670   8.537   5.503
 4674POPC   PO461008   7.444   7.837   5.478
 4674POPC   GL161009   7.483   8.135   5.748
 4674POPC   GL261010   7.211   8.400   5.745
 4674POPC   C1A61011   7.688   8.052   6.108
 4674POPC   D2A61012   7.398   7.981   6.426
 4674POPC   C3A61013   7.513   7.984   6.805
 4674POPC   C4A61014   7.465   8.022   7.225
 4674POPC   C1B61015   7.352   8.429   6.158
 4674POPC   C2B61016   7.570   8.465   6.530
 4674POPC   C3B61017   7.406   8.471   6.931
 4674POPC   C4B61018   7.309   8.603   7.319
 4675POPC   NC361019  33.183   6.133   5.485
 4675POPC   PO461020  33.695   5.639   5.412
 4675POPC   GL161021  33.665   5.983   5.687
 4675POPC   GL261022  33.976   6.089   5.797
 4675POPC   C1A61023  33.622   5.978   6.156
 4675POPC   D2A61024  33.514   5.674   6.494
 4675POPC   C3A61025  33.564   5.833   6.923
 4675POPC   C4A61026  33.740   5.745   7.333
 4675POPC   C1B61027  34.125   5.854   6.190
 4675POPC   C2B61028  33.961   5.918   6.586
 4675POPC   C3B61029  34.102   5.900   6.987
 4675POPC   C4B61030  34.246   6.002   7.376
 4676POPC   NC361031   1.388  37.584   5.296
 4676POPC   PO461032   0.719  37.440   5.380
 4676POPC   GL161033   1.097  37.491   5.711
 4676POPC   GL261034   1.209  37.873   5.691
 4676POPC   C1A61035   1.217  37.474   6.190
 4676POPC   D2A61036   0.944  37.472   6.611
 4676POPC   C3A61037   1.005  37.487   7.062
 4676POPC   C4A61038   0.953  37.762   7.407
 4676POPC   C1B61039   1.122  37.997   6.114
 4676POPC   C2B61040   1.251  37.872   6.527
 4676POPC   C3B61041   1.430  37.604   6.825
 4676POPC   C4B61042   1.419  37.761   7.231
 4677POPC   NC361043  44.931  40.887   5.260
 4677POPC   PO461044  44.253  40.774   5.382
 4677POPC   GL161045  44.536  40.807   5.740
 4677POPC   GL261046  44.790  40.576   5.674
 4677POPC   C1A61047  44.770  40.825   6.159
 4677POPC   D2A61048  44.796  40.764   6.622
 4677POPC   C3A61049  44.734  41.101   6.956
 4677POPC   C4A61050  44.669  41.112   7.425
 4677POPC   C1B61051  44.952  40.337   6.041
 4677POPC   C2B61052   0.114  40.283   6.475
 4677POPC   C3B61053  44.963  40.338   6.896
 4677POPC   C4B61054  44.805  40.655   7.164
 4678POPC   NC361055  10.287  37.674   5.433
 4678POPC   PO461056  10.888  37.611   5.168
 4678POPC   GL161057  10.719  37.804   5.669
 4678POPC   GL261058  10.739  37.508   5.956
 4678POPC   C1A61059  10.570  37.922   6.141
 4678POPC   D2A61060  10.753  37.663   6.500
 4678POPC   C3A61061  10.729  37.815   6.929
 4678POPC   C4A61062  10.371  37.862   7.253
 4678POPC   C1B61063  10.377  37.374   6.140
 4678POPC   C2B61064  10.248  37.609   6.420
 4678POPC   C3B61065  10.293  37.570   6.834
 4678POPC   C4B61066  10.372  37.355   7.212
 4679POPC   NC361067  37.980  27.183   5.325
 4679POPC   PO461068  37.527  26.758   5.366
 4679POPC   GL161069  37.859  26.729   5.667
 4679POPC   GL261070  37.870  27.061   5.825
 4679POPC   C1A61071  37.882  26.634   6.133
 4679POPC   D2A61072  37.821  26.825   6.550
 4679POPC   C3A61073  37.482  26.734   6.844
 4679POPC   C4A61074  37.497  26.571   7.249
 4679POPC   C1B61075  37.632  27.200   6.229
 4679POPC   C2B61076  37.539  27.258   6.714
 4679POPC   C3B61077  37.435  27.127   7.165
 4679POPC   C4B61078  37.481  27.254   7.620
 4680POPC   NC361079   1.171  17.378   5.306
 4680POPC   PO461080   1.488  17.895   5.035
 4680POPC   GL161081   1.140  17.868   5.517
 4680POPC   GL261082   1.097  17.559   5.762
 4680POPC   C1A61083   0.974  17.957   6.037
 4680POPC   D2A61084   0.938  17.869   6.571
 4680POPC   C3A61085   1.184  17.625   6.968
 4680POPC   C4A61086   1.248  17.652   7.510
 4680POPC   C1B61087   1.234  17.363   6.155
 4680POPC   C2B61088   1.445  17.344   6.555
 4680POPC   C3B61089   1.333  17.115   6.927
 4680POPC   C4B61090   1.488  17.264   7.287
 4681POPC   NC361091  18.157   3.075   5.305
 4681POPC   PO461092  18.339   2.473   5.340
 4681POPC   GL161093  18.173   2.676   5.686
 4681POPC   GL261094  18.429   2.750   5.882
 4681POPC   C1A61095  17.970   2.606   6.096
 4681POPC   D2A61096  17.832   2.845   6.439
 4681POPC   C3A61097  18.026   2.853   6.823
 4681POPC   C4A61098  18.066   2.914   7.245
 4681POPC   C1B61099  18.622   2.820   6.250
 4681POPC   C2B61100  18.556   2.660   6.642
 4681POPC   C3B61101  18.517   2.868   6.989
 4681POPC   C4B61102  18.515   2.726   7.406
 4682POPC   NC361103  28.102  35.546   5.623
 4682POPC   PO461104  28.183  35.016   5.235
 4682POPC   GL161105  28.355  35.126   5.775
 4682POPC   GL261106  28.134  35.263   6.071
 4682POPC   C1A61107  28.591  35.114   6.200
 4682POPC   D2A61108  28.533  35.030   6.641
 4682POPC   C3A61109  28.335  35.147   7.032
 4682POPC   C4A61110  28.503  35.530   7.197
 4682POPC   C1B61111  28.360  35.564   6.344
 4682POPC   C2B61112  28.242  35.736   6.741
 4682POPC   C3B61113  28.019  35.566   7.081
 4682POPC   C4B61114  28.009  35.575   7.551
 4683POPC   NC361115   3.146  22.650   5.581
 4683POPC   PO461116   3.568  23.188   5.641
 4683POPC   GL161117   3.768  22.902   5.873
 4683POPC   GL261118   3.433  22.809   5.962
 4683POPC   C1A61119   3.789  22.960   6.313
 4683POPC   D2A61120   3.587  23.318   6.528
 4683POPC   C3A61121   3.501  23.210   6.956
 4683POPC   C4A61122   3.590  23.066   7.385
 4683POPC   C1B61123   3.400  22.586   6.304
 4683POPC   C2B61124   3.514  22.762   6.686
 4683POPC   C3B61125   3.321  22.734   7.030
 4683POPC   C4B61126   3.282  22.646   7.442
 4684POPC   NC361127  24.044  40.552   5.350
 4684POPC   PO461128  23.555  40.984   5.514
 4684POPC   GL161129  23.816  40.735   5.802
 4684POPC   GL261130  23.723  40.404   5.732
 4684POPC   C1A61131  23.844  40.740   6.257
 4684POPC   D2A61132  23.564  40.880   6.607
 4684POPC   C3A61133  23.737  40.990   7.000
 4684POPC   C4A61134  23.927  41.275   7.253
 4684POPC   C1B61135  23.581  40.323   6.132
 4684POPC   C2B61136  23.656  40.357   6.572
 4684POPC   C3B61137  23.626  40.482   6.991
 4684POPC   C4B61138  23.967  40.564   7.201
 4685POPC   NC361139  32.323  33.274   5.452
 4685POPC   PO461140  31.601  33.109   5.327
 4685POPC   GL161141  31.926  32.999   5.661
 4685POPC   GL261142  32.009  33.306   5.862
 4685POPC   C1A61143  32.054  32.845   6.101
 4685POPC   D2A61144  31.948  32.904   6.548
 4685POPC   C3A61145  32.188  32.765   6.895
 4685POPC   C4A61146  32.301  33.005   7.234
 4685POPC   C1B61147  32.261  33.404   6.243
 4685POPC   C2B61148  32.292  33.294   6.692
 4685POPC   C3B61149  31.945  33.236   6.970
 4685POPC   C4B61150  31.941  33.404   7.396
 4686POPC   NC361151   3.824  41.306   5.355
 4686POPC   PO461152   3.462  41.931   5.434
 4686POPC   GL161153   3.555  41.598   5.666
 4686POPC   GL261154   3.885  41.717   5.634
 4686POPC   C1A61155   3.551  41.327   6.009
 4686POPC   D2A61156   3.587  41.472   6.408
 4686POPC   C3A61157   3.326  41.399   6.746
 4686POPC   C4A61158   3.410  41.448   7.179
 4686POPC   C1B61159   3.895  41.727   6.065
 4686POPC   C2B61160   3.958  41.814   6.506
 4686POPC   C3B61161   3.793  41.610   6.852
 4686POPC   C4B61162   3.919  41.553   7.224
 4687POPC   NC361163  36.299   8.439   5.402
 4687POPC   PO461164  36.088   7.852   5.548
 4687POPC   GL161165  36.026   8.235   5.810
 4687POPC   GL261166  36.285   8.508   5.894
 4687POPC   C1A61167  36.008   8.298   6.257
 4687POPC   D2A61168  36.263   8.255   6.611
 4687POPC   C3A61169  36.022   8.222   6.963
 4687POPC   C4A61170  36.131   7.982   7.287
 4687POPC   C1B61171  36.513   8.542   6.247
 4687POPC   C2B61172  36.564   8.672   6.653
 4687POPC   C3B61173  36.282   8.677   6.960
 4687POPC   C4B61174  36.450   8.445   7.225
 4688POPC   NC361175  19.467   1.929   5.341
 4688POPC   PO461176  18.763   1.819   5.339
 4688POPC   GL161177  18.951   2.006   5.761
 4688POPC   GL261178  19.270   2.219   5.726
 4688POPC   C1A61179  18.788   1.979   6.220
 4688POPC   D2A61180  18.654   2.123   6.650
 4688POPC   C3A61181  18.704   1.785   6.956
 4688POPC   C4A61182  18.836   1.854   7.396
 4688POPC   C1B61183  19.300   2.047   6.171
 4688POPC   C2B61184  19.178   1.975   6.616
 4688POPC   C3B61185  19.074   2.120   7.031
 4688POPC   C4B61186  19.242   2.197   7.430
 4689POPC   NC361187  27.563  13.446   5.436
 4689POPC   PO461188  26.812  13.531   5.412
 4689POPC   GL161189  26.903  13.666   5.847
 4689POPC   GL261190  27.218  13.571   5.784
 4689POPC   C1A61191  26.986  13.698   6.318
 4689POPC   D2A61192  26.925  13.895   6.732
 4689POPC   C3A61193  26.774  13.575   7.012
 4689POPC   C4A61194  26.693  13.559   7.429
 4689POPC   C1B61195  27.280  13.308   6.116
 4689POPC   C2B61196  27.429  13.392   6.514
 4689POPC   C3B61197  27.274  13.530   6.893
 4689POPC   C4B61198  27.172  13.392   7.304
 4690POPC   NC361199  43.208  26.363   5.424
 4690POPC   PO461200  42.823  26.961   5.258
 4690POPC   GL161201  42.855  26.858   5.685
 4690POPC   GL261202  43.133  26.676   5.846
 4690POPC   C1A61203  42.771  26.861   6.131
 4690POPC   D2A61204  42.998  26.671   6.497
 4690POPC   C3A61205  42.879  26.794   6.939
 4690POPC   C4A61206  43.067  26.665   7.351
 4690POPC   C1B61207  43.438  26.756   6.190
 4690POPC   C2B61208  43.481  26.870   6.622
 4690POPC   C3B61209  43.442  26.853   7.037
 4690POPC   C4B61210  43.669  26.696   7.347
 4691POPC   NC361211  26.223  39.388   5.381
 4691POPC   PO461212  25.500  39.272   5.372
 4691POPC   GL161213  25.881  39.195   5.695
 4691POPC   GL261214  26.114  39.454   5.871
 4691POPC   C1A61215  25.993  39.030   6.110
 4691POPC   D2A61216  26.069  39.237   6.536
 4691POPC   C3A61217  26.099  39.023   6.942
 4691POPC   C4A61218  26.232  39.123   7.344
 4691POPC   C1B61219  26.351  39.723   6.188
 4691POPC   C2B61220  26.483  39.800   6.617
 4691POPC   C3B61221  26.296  39.542   6.973
 4691POPC   C4B61222  26.415  39.596   7.412
 4692POPC   NC361223  40.769   9.551   5.284
 4692POPC   PO461224  40.729   8.895   5.377
 4692POPC   GL161225  40.863   8.944   5.816
 4692POPC   GL261226  40.989   9.263   5.783
 4692POPC   C1A61227  40.714   9.129   6.205
 4692POPC   D2A61228  40.802   9.326   6.594
 4692POPC   C3A61229  40.729   8.979   6.875
 4692POPC   C4A61230  40.970   8.789   7.197
 4692POPC   C1B61231  41.132   9.417   6.171
 4692POPC   C2B61232  41.343   9.366   6.553
 4692POPC   C3B61233  41.198   9.191   6.928
 4692POPC   C4B61234  40.887   9.327   7.223
 4693POPC   NC361235  39.199  43.079   5.139
 4693POPC   PO461236  39.371  43.639   5.467
 4693POPC   GL161237  39.164  43.296   5.715
 4693POPC   GL261238  39.462  43.180   5.867
 4693POPC   C1A61239  39.091  43.283   6.203
 4693POPC   D2A61240  39.273  43.598   6.570
 4693POPC   C3A61241  39.388  43.460   7.016
 4693POPC   C4A61242  39.625  43.201   7.323
 4693POPC   C1B61243  39.532  42.917   6.262
 4693POPC   C2B61244  39.455  42.665   6.660
 4693POPC   C3B61245  39.323  42.855   7.060
 4693POPC   C4B61246  39.114  43.145   7.346
 4694POPC   NC361247   2.581  28.380   5.546
 4694POPC   PO461248   1.866  28.274   5.531
 4694POPC   GL161249   2.069  28.445   5.834
 4694POPC   GL261250   2.234  28.152   5.883
 4694POPC   C1A61251   1.905  28.423   6.249
 4694POPC   D2A61252   1.634  28.371   6.599
 4694POPC   C3A61253   1.860  28.459   6.976
 4694POPC   C4A61254   1.791  28.583   7.410
 4694POPC   C1B61255   2.070  27.956   6.211
 4694POPC   C2B61256   2.139  28.124   6.596
 4694POPC   C3B61257   2.113  27.998   6.981
 4694POPC   C4B61258   1.977  28.108   7.361
 4695POPC   NC361259  24.573  27.013   5.450
 4695POPC   PO461260  24.300  26.366   5.349
 4695POPC   GL161261  24.499  26.591   5.708
 4695POPC   GL261262  24.266  26.819   5.820
 4695POPC   C1A61263  24.696  26.711   6.125
 4695POPC   D2A61264  24.739  26.949   6.521
 4695POPC   C3A61265  24.787  26.690   6.879
 4695POPC   C4A61266  24.713  26.612   7.297
 4695POPC   C1B61267  24.214  26.938   6.243
 4695POPC   C2B61268  24.219  26.920   6.674
 4695POPC   C3B61269  24.442  26.985   7.068
 4695POPC   C4B61270  24.520  27.111   7.481
 4696POPC   NC361271  23.088  22.436   5.156
 4696POPC   PO461272  22.903  21.908   5.510
 4696POPC   GL161273  23.019  22.136   5.871
 4696POPC   GL261274  23.246  22.420   5.758
 4696POPC   C1A61275  22.901  22.064   6.332
 4696POPC   D2A61276  22.904  21.827   6.733
 4696POPC   C3A61277  22.662  21.984   7.083
 4696POPC   C4A61278  22.579  22.407   7.193
 4696POPC   C1B61279  23.390  22.239   6.190
 4696POPC   C2B61280  23.277  22.299   6.607
 4696POPC   C3B61281  23.180  22.180   7.018
 4696POPC   C4B61282  23.420  22.354   7.361
 4697POPC   NC361283  20.927  15.218   5.084
 4697POPC   PO461284  21.318  15.473   5.627
 4697POPC   GL161285  21.367  15.240   6.014
 4697POPC   GL261286  21.690  15.069   6.099
 4697POPC   C1A61287  21.344  15.208   6.471
 4697POPC   D2A61288  21.691  15.024   6.728
 4697POPC   C3A61289  21.728  15.297   7.084
 4697POPC   C4A61290  21.336  15.306   7.249
 4697POPC   C1B61291  21.417  14.741   6.270
 4697POPC   C2B61292  21.077  14.755   6.554
 4697POPC   C3B61293  21.121  14.901   6.968
 4697POPC   C4B61294  21.512  14.837   7.180
 4698POPC   NC361295  34.145  10.968   5.541
 4698POPC   PO461296  33.851  11.613   5.456
 4698POPC   GL161297  33.756  11.313   5.773
 4698POPC   GL261298  33.482  11.089   5.670
 4698POPC   C1A61299  33.905  11.318   6.188
 4698POPC   D2A61300  33.976  11.580   6.534
 4698POPC   C3A61301  33.931  11.334   6.882
 4698POPC   C4A61302  33.966  11.218   7.306
 4698POPC   C1B61303  33.458  11.060   6.147
 4698POPC   C2B61304  33.504  11.314   6.546
 4698POPC   C3B61305  33.418  11.417   6.991
 4698POPC   C4B61306  33.464  11.359   7.459
 4699POPC   NC361307  31.712  36.509   5.634
 4699POPC   PO461308  31.175  36.471   5.213
 4699POPC   GL161309  31.253  36.231   5.604
 4699POPC   GL261310  31.284  36.436   5.907
 4699POPC   C1A61311  31.310  35.947   5.989
 4699POPC   D2A61312  31.287  35.991   6.461
 4699POPC   C3A61313  31.624  35.884   6.740
 4699POPC   C4A61314  31.557  35.838   7.166
 4699POPC   C1B61315  31.634  36.270   6.224
 4699POPC   C2B61316  31.822  36.373   6.629
 4699POPC   C3B61317  31.649  36.343   7.042
 4699POPC   C4B61318  31.873  36.334   7.427
 4700POPC   NC361319   5.457  25.457   5.113
 4700POPC   PO461320   5.122  25.130   5.630
 4700POPC   GL161321   5.277  25.212   5.974
 4700POPC   GL261322   5.112  24.918   6.113
 4700POPC   C1A61323   5.402  25.303   6.353
 4700POPC   D2A61324   5.309  25.039   6.655
 4700POPC   C3A61325   5.304  25.207   7.021
 4700POPC   C4A61326   5.224  25.538   7.265
 4700POPC   C1B61327   4.774  25.218   6.244
 4700POPC   C2B61328   4.647  25.433   6.617
 4700POPC   C3B61329   4.816  25.387   7.010
 4700POPC   C4B61330   4.940  25.048   7.320
 4701POPC   NC361331  34.912  24.598   5.473
 4701POPC   PO461332  35.584  24.541   5.424
 4701POPC   GL161333  35.551  24.415   5.861
 4701POPC   GL261334  35.223  24.484   5.859
 4701POPC   C1A61335  35.391  24.294   6.302
 4701POPC   D2A61336  35.192  24.499   6.699
 4701POPC   C3A61337  35.349  24.365   7.126
 4701POPC   C4A61338  35.606  24.292   7.524
 4701POPC   C1B61339  35.093  24.703   6.216
 4701POPC   C2B61340  35.102  25.019   6.475
 4701POPC   C3B61341  34.914  24.994   6.857
 4701POPC   C4B61342  35.001  24.743   7.207
 4702POPC   NC361343  26.425  19.892   5.421
 4702POPC   PO461344  27.001  20.363   5.345
 4702POPC   GL161345  26.859  20.076   5.700
 4702POPC   GL261346  26.529  19.972   5.898
 4702POPC   C1A61347  26.993  20.067   6.137
 4702POPC   D2A61348  27.211  20.170   6.523
 4702POPC   C3A61349  26.926  20.041   6.861
 4702POPC   C4A61350  26.929  19.678   7.138
 4702POPC   C1B61351  26.395  20.193   6.264
 4702POPC   C2B61352  26.372  20.115   6.706
 4702POPC   C3B61353  26.422  19.792   7.023
 4702POPC   C4B61354  26.567  19.832   7.454
 4703POPC   NC361355   8.468  41.139   5.113
 4703POPC   PO461356   8.016  40.691   5.427
 4703POPC   GL161357   8.247  40.937   5.721
 4703POPC   GL261358   8.276  40.636   5.864
 4703POPC   C1A61359   8.231  40.989   6.206
 4703POPC   D2A61360   8.382  40.749   6.562
 4703POPC   C3A61361   8.245  40.853   6.955
 4703POPC   C4A61362   8.101  41.125   7.248
 4703POPC   C1B61363   8.066  40.504   6.238
 4703POPC   C2B61364   7.950  40.487   6.692
 4703POPC   C3B61365   7.955  40.460   7.152
 4703POPC   C4B61366   8.271  40.608   7.410
 4704POPC   NC361367   3.790  14.022   5.242
 4704POPC   PO461368   3.627  14.621   5.374
 4704POPC   GL161369   3.534  14.388   5.778
 4704POPC   GL261370   3.792  14.115   5.761
 4704POPC   C1A61371   3.375  14.353   6.237
 4704POPC   D2A61372   3.262  14.542   6.636
 4704POPC   C3A61373   3.467  14.362   6.989
 4704POPC   C4A61374   3.466  14.539   7.429
 4704POPC   C1B61375   3.884  14.265   6.166
 4704POPC   C2B61376   3.883  14.075   6.554
 4704POPC   C3B61377   3.952  14.254   6.914
 4704POPC   C4B61378   3.817  14.202   7.308
 4705POPC   NC361379  15.622  30.181   5.455
 4705POPC   PO461380  16.160  29.768   5.373
 4705POPC   GL161381  15.964  29.863   5.750
 4705POPC   GL261382  16.272  30.004   5.905
 4705POPC   C1A61383  15.954  29.572   6.104
 4705POPC   D2A61384  16.073  29.470   6.524
 4705POPC   C3A61385  16.205  29.818   6.776
 4705POPC   C4A61386  16.137  29.985   7.146
 4705POPC   C1B61387  16.109  29.996   6.309
 4705POPC   C2B61388  15.748  29.899   6.548
 4705POPC   C3B61389  15.665  30.078   6.948
 4705POPC   C4B61390  15.690  30.318   7.323
 4706POPC   NC361391   5.454   8.311   5.294
 4706POPC   PO461392   4.972   7.935   5.673
 4706POPC   GL161393   4.919   8.321   5.890
 4706POPC   GL261394   5.205   8.532   5.821
 4706POPC   C1A61395   4.911   8.346   6.306
 4706POPC   D2A61396   5.133   8.101   6.577
 4706POPC   C3A61397   5.048   8.185   6.993
 4706POPC   C4A61398   5.173   7.906   7.313
 4706POPC   C1B61399   5.382   8.596   6.244
 4706POPC   C2B61400   5.356   8.578   6.703
 4706POPC   C3B61401   5.212   8.657   7.134
 4706POPC   C4B61402   5.107   8.391   7.469
 4707POPC   NC361403  14.739  23.813   5.550
 4707POPC   PO461404  14.053  23.887   5.371
 4707POPC   GL161405  14.261  23.907   5.763
 4707POPC   GL261406  14.346  23.557   5.840
 4707POPC   C1A61407  14.423  23.952   6.182
 4707POPC   D2A61408  14.694  23.925   6.531
 4707POPC   C3A61409  14.533  24.004   6.948
 4707POPC   C4A61410  14.491  23.943   7.394
 4707POPC   C1B61411  14.271  23.470   6.287
 4707POPC   C2B61412  14.130  23.464   6.717
 4707POPC   C3B61413  14.321  23.521   7.123
 4707POPC   C4B61414  14.221  23.509   7.542
 4708POPC   NC361415  17.572  40.834   5.155
 4708POPC   PO461416  17.230  40.309   5.420
 4708POPC   GL161417  17.451  40.527   5.800
 4708POPC   GL261418  17.732  40.346   5.923
 4708POPC   C1A61419  17.595  40.757   6.247
 4708POPC   D2A61420  17.692  41.119   6.594
 4708POPC   C3A61421  17.661  41.009   7.052
 4708POPC   C4A61422  17.360  40.999   7.397
 4708POPC   C1B61423  17.377  40.279   6.245
 4708POPC   C2B61424  17.321  40.467   6.657
 4708POPC   C3B61425  17.430  40.508   7.104
 4708POPC   C4B61426  17.740  40.240   7.232
 4709POPC   NC361427  32.403  35.127   5.481
 4709POPC   PO461428  32.695  35.757   5.598
 4709POPC   GL161429  32.338  35.491   5.824
 4709POPC   GL261430  31.954  35.571   5.776
 4709POPC   C1A61431  32.258  35.194   6.181
 4709POPC   D2A61432  32.468  34.997   6.543
 4709POPC   C3A61433  32.319  35.134   6.951
 4709POPC   C4A61434  32.526  35.115   7.350
 4709POPC   C1B61435  31.758  35.430   6.184
 4709POPC   C2B61436  31.934  35.373   6.606
 4709POPC   C3B61437  31.955  35.501   7.024
 4709POPC   C4B61438  32.039  35.267   7.413
 4710POPC   NC361439  20.076  41.186   5.593
 4710POPC   PO461440  20.094  41.906   5.386
 4710POPC   GL161441  19.990  41.692   5.826
 4710POPC   GL261442  19.835  41.424   5.965
 4710POPC   C1A61443  20.075  41.682   6.321
 4710POPC   D2A61444  20.083  41.793   6.760
 4710POPC   C3A61445  20.058  41.491   7.093
 4710POPC   C4A61446  19.848  41.589   7.445
 4710POPC   C1B61447  19.773  41.256   6.333
 4710POPC   C2B61448  19.723  41.452   6.688
 4710POPC   C3B61449  19.558  41.417   7.078
 4710POPC   C4B61450  19.742  41.095   7.357
 4711POPC   NC361451   2.703  39.024   5.242
 4711POPC   PO461452   2.749  38.748   5.792
 4711POPC   GL161453   2.668  39.185   5.882
 4711POPC   GL261454   2.411  39.354   5.724
 4711POPC   C1A61455   2.782  39.275   6.294
 4711POPC   D2A61456   3.048  39.017   6.549
 4711POPC   C3A61457   2.859  39.098   6.905
 4711POPC   C4A61458   2.938  39.367   7.238
 4711POPC   C1B61459   2.358  39.672   6.074
 4711POPC   C2B61460   2.474  39.636   6.501
 4711POPC   C3B61461   2.735  39.599   6.831
 4711POPC   C4B61462   2.487  39.601   7.227
 4712POPC   NC361463   0.175  40.213   5.343
 4712POPC   PO461464   0.746  39.839   5.202
 4712POPC   GL161465   0.692  39.920   5.662
 4712POPC   GL261466   0.397  40.111   5.796
 4712POPC   C1A61467   0.759  39.963   6.125
 4712POPC   D2A61468   0.587  39.866   6.555
 4712POPC   C3A61469   0.681  40.073   6.947
 4712POPC   C4A61470   0.351  40.228   7.192
 4712POPC   C1B61471   0.222  39.854   6.157
 4712POPC   C2B61472   0.120  39.645   6.582
 4712POPC   C3B61473   0.294  39.710   7.012
 4712POPC   C4B61474   0.275  39.522   7.452
 4713POPC   NC361475  44.910  22.884   5.349
 4713POPC   PO461476  44.413  23.316   5.181
 4713POPC   GL161477  44.540  23.132   5.613
 4713POPC   GL261478  44.552  22.747   5.712
 4713POPC   C1A61479  44.628  23.093   6.087
 4713POPC   D2A61480  44.648  22.828   6.503
 4713POPC   C3A61481  44.587  23.024   6.936
 4713POPC   C4A61482  44.927  23.159   7.224
 4713POPC   C1B61483  44.856  22.589   6.061
 4713POPC   C2B61484   0.086  22.465   6.464
 4713POPC   C3B61485  44.999  22.603   6.914
 4713POPC   C4B61486  44.615  22.552   7.175
 4714POPC   NC361487  20.020  23.908   5.476
 4714POPC   PO461488  19.678  23.413   5.409
 4714POPC   GL161489  19.800  23.634   5.855
 4714POPC   GL261490  19.663  23.972   5.941
 4714POPC   C1A61491  19.868  23.664   6.337
 4714POPC   D2A61492  20.081  23.776   6.725
 4714POPC   C3A61493  19.829  23.776   7.126
 4714POPC   C4A61494  19.652  24.065   7.438
 4714POPC   C1B61495  19.383  23.802   6.304
 4714POPC   C2B61496  19.403  23.721   6.766
 4714POPC   C3B61497  19.298  23.739   7.201
 4714POPC   C4B61498  19.174  23.913   7.622
 4715POPC   NC361499   1.697  40.433   5.446
 4715POPC   PO461500   2.029  40.936   5.157
 4715POPC   GL161501   2.091  40.830   5.619
 4715POPC   GL261502   1.808  40.941   5.809
 4715POPC   C1A61503   2.244  40.666   6.033
 4715POPC   D2A61504   2.441  40.586   6.439
 4715POPC   C3A61505   2.232  40.495   6.857
 4715POPC   C4A61506   2.146  40.558   7.302
 4715POPC   C1B61507   1.742  40.657   6.181
 4715POPC   C2B61508   1.769  40.552   6.637
 4715POPC   C3B61509   1.767  40.779   7.042
 4715POPC   C4B61510   1.676  40.670   7.494
 4716POPC   NC361511  40.334  41.274   5.680
 4716POPC   PO461512  40.809  41.641   5.426
 4716POPC   GL161513  40.848  41.459   5.848
 4716POPC   GL261514  41.037  41.735   5.994
 4716POPC   C1A61515  40.665  41.465   6.275
 4716POPC   D2A61516  40.376  41.688   6.556
 4716POPC   C3A61517  40.540  41.886   6.928
 4716POPC   C4A61518  40.763  41.681   7.271
 4716POPC   C1B61519  41.003  41.849   6.418
 4716POPC   C2B61520  40.984  41.620   6.791
 4716POPC   C3B61521  41.074  41.312   7.092
 4716POPC   C4B61522  41.067  41.332   7.547
 4717POPC   NC361523  34.069  43.133   5.542
 4717POPC   PO461524  33.373  43.182   5.504
 4717POPC   GL161525  33.683  43.140   5.864
 4717POPC   GL261526  33.984  43.380   5.975
 4717POPC   C1A61527  33.878  42.926   6.215
 4717POPC   D2A61528  33.674  42.648   6.477
 4717POPC   C3A61529  33.743  42.818   6.865
 4717POPC   C4A61530  33.692  42.666   7.268
 4717POPC   C1B61531  33.663  43.394   6.302
 4717POPC   C2B61532  33.578  43.336   6.746
 4717POPC   C3B61533  33.708  43.326   7.176
 4717POPC   C4B61534  33.476  43.489   7.591
 4718POPC   NC361535  44.027  32.069   5.146
 4718POPC   PO461536  43.987  32.647   5.449
 4718POPC   GL161537  44.024  32.432   5.808
 4718POPC   GL261538  44.159  32.699   5.992
 4718POPC   C1A61539  44.163  32.152   6.151
 4718POPC   D2A61540  43.941  31.987   6.508
 4718POPC   C3A61541  44.079  31.929   6.917
 4718POPC   C4A61542  43.934  31.920   7.338
 4718POPC   C1B61543  44.056  32.625   6.432
 4718POPC   C2B61544  44.145  32.817   6.823
 4718POPC   C3B61545  44.223  32.573   7.161
 4718POPC   C4B61546  43.856  32.359   7.120
 4719POPC   NC361547  37.991   1.824   5.428
 4719POPC   PO461548  37.393   2.050   5.384
 4719POPC   GL161549  37.599   1.970   5.754
 4719POPC   GL261550  37.709   2.319   5.744
 4719POPC   C1A61551  37.727   1.889   6.186
 4719POPC   D2A61552  37.885   2.089   6.536
 4719POPC   C3A61553  37.746   1.922   6.909
 4719POPC   C4A61554  38.045   1.898   7.213
 4719POPC   C1B61555  37.435   2.303   6.122
 4719POPC   C2B61556  37.359   2.093   6.523
 4719POPC   C3B61557  37.363   2.275   6.915
 4719POPC   C4B61558  37.494   2.173   7.302
 4720POPC   NC361559  25.403  13.848   5.343
 4720POPC   PO461560  24.859  13.405   5.270
 4720POPC   GL161561  25.106  13.535   5.626
 4720POPC   GL261562  25.118  13.844   5.795
 4720POPC   C1A61563  25.406  13.441   5.973
 4720POPC   D2A61564  25.316  13.513   6.407
 4720POPC   C3A61565  25.406  13.383   6.819
 4720POPC   C4A61566  25.209  13.551   7.163
 4720POPC   C1B61567  25.463  13.930   6.138
 4720POPC   C2B61568  25.610  13.903   6.585
 4720POPC   C3B61569  25.430  14.019   6.981
 4720POPC   C4B61570  25.403  13.939   7.417
 4721POPC   NC361571   0.295  36.124   5.446
 4721POPC   PO461572   0.714  35.564   5.488
 4721POPC   GL161573   0.550  35.868   5.800
 4721POPC   GL261574   0.170  35.876   5.861
 4721POPC   C1A61575   0.550  36.231   6.059
 4721POPC   D2A61576   0.640  36.215   6.490
 4721POPC   C3A61577   0.642  36.101   6.927
 4721POPC   C4A61578   0.695  36.282   7.312
 4721POPC   C1B61579   0.180  36.013   6.298
 4721POPC   C2B61580   0.030  36.154   6.679
 4721POPC   C3B61581   0.157  35.920   7.005
 4721POPC   C4B61582   0.437  35.563   7.118
 4722POPC   NC361583   8.425   5.367   5.452
 4722POPC   PO461584   7.923   4.940   5.441
 4722POPC   GL161585   8.219   5.065   5.820
 4722POPC   GL261586   8.103   5.418   5.877
 4722POPC   C1A61587   8.454   5.088   6.275
 4722POPC   D2A61588   8.468   4.897   6.722
 4722POPC   C3A61589   8.304   5.172   7.054
 4722POPC   C4A61590   8.486   5.267   7.496
 4722POPC   C1B61591   7.944   5.163   6.243
 4722POPC   C2B61592   7.981   5.030   6.654
 4722POPC   C3B61593   7.955   4.776   7.017
 4722POPC   C4B61594   8.085   4.916   7.436
 4723POPC   NC361595  33.002  29.023   5.463
 4723POPC   PO461596  33.628  28.889   5.504
 4723POPC   GL161597  33.295  28.859   5.852
 4723POPC   GL261598  33.167  29.205   5.916
 4723POPC   C1A61599  32.945  28.883   6.216
 4723POPC   D2A61600  32.897  29.046   6.689
 4723POPC   C3A61601  32.796  28.875   7.135
 4723POPC   C4A61602  33.004  28.887   7.566
 4723POPC   C1B61603  32.848  29.426   6.116
 4723POPC   C2B61604  32.739  29.521   6.531
 4723POPC   C3B61605  32.967  29.531   6.908
 4723POPC   C4B61606  32.822  29.470   7.345
 4724POPC   NC361607  16.422  21.152   5.202
 4724POPC   PO461608  15.921  21.628   5.466
 4724POPC   GL161609  15.847  21.197   5.665
 4724POPC   GL261610  16.112  21.162   5.895
 4724POPC   C1A61611  15.653  21.171   6.125
 4724POPC   D2A61612  15.774  21.334   6.562
 4724POPC   C3A61613  15.584  21.195   6.948
 4724POPC   C4A61614  15.809  21.137   7.324
 4724POPC   C1B61615  15.989  21.569   6.153
 4724POPC   C2B61616  16.144  21.680   6.574
 4724POPC   C3B61617  16.008  21.518   7.008
 4724POPC   C4B61618  16.106  21.516   7.450
 4725POPC   NC361619  44.440  28.998   5.409
 4725POPC   PO461620  44.941  29.313   5.204
 4725POPC   GL161621  44.806  29.382   5.661
 4725POPC   GL261622  44.439  29.314   5.807
 4725POPC   C1A61623  44.872  29.230   6.095
 4725POPC   D2A61624  44.589  29.145   6.433
 4725POPC   C3A61625  44.759  28.945   6.794
 4725POPC   C4A61626  44.840  29.159   7.185
 4725POPC   C1B61627  44.319  29.526   6.192
 4725POPC   C2B61628  44.415  29.628   6.644
 4725POPC   C3B61629  44.503  29.542   7.114
 4725POPC   C4B61630  44.648  29.477   7.562
 4726POPC   NC361631  16.881   7.457   5.174
 4726POPC   PO461632  17.541   7.621   5.313
 4726POPC   GL161633  17.446   7.413   5.761
 4726POPC   GL261634  17.173   7.150   5.814
 4726POPC   C1A61635  17.387   7.508   6.212
 4726POPC   D2A61636  17.221   7.527   6.628
 4726POPC   C3A61637  17.421   7.616   7.040
 4726POPC   C4A61638  17.416   7.520   7.491
 4726POPC   C1B61639  17.348   7.006   6.198
 4726POPC   C2B61640  17.540   7.087   6.606
 4726POPC   C3B61641  17.268   7.129   6.937
 4726POPC   C4B61642  17.213   7.071   7.373
 4727POPC   NC361643  20.353  14.452   5.365
 4727POPC   PO461644  21.000  14.629   5.310
 4727POPC   GL161645  20.743  14.613   5.696
 4727POPC   GL261646  20.789  14.258   5.746
 4727POPC   C1A61647  20.532  14.667   6.130
 4727POPC   D2A61648  20.636  14.491   6.556
 4727POPC   C3A61649  20.526  14.617   6.986
 4727POPC   C4A61650  20.778  14.766   7.334
 4727POPC   C1B61651  20.565  14.169   6.152
 4727POPC   C2B61652  20.428  14.027   6.584
 4727POPC   C3B61653  20.544  14.109   7.015
 4727POPC   C4B61654  20.866  14.092   7.331
 4728POPC   NC361655  40.127  36.304   5.359
 4728POPC   PO461656  40.173  35.574   5.502
 4728POPC   GL161657  40.154  35.930   5.749
 4728POPC   GL261658  39.810  35.981   5.774
 4728POPC   C1A61659  40.106  36.172   6.153
 4728POPC   D2A61660  40.151  35.993   6.575
 4728POPC   C3A61661  40.054  36.171   6.973
 4728POPC   C4A61662  40.265  35.961   7.302
 4728POPC   C1B61663  39.601  36.015   6.194
 4728POPC   C2B61664  39.655  36.201   6.603
 4728POPC   C3B61665  39.552  36.043   7.004
 4728POPC   C4B61666  39.774  35.980   7.421
 4729POPC   NC361667  42.252  38.070   5.423
 4729POPC   PO461668  41.931  37.417   5.413
 4729POPC   GL161669  42.070  37.728   5.746
 4729POPC   GL261670  42.437  37.769   5.848
 4729POPC   C1A61671  42.048  37.859   6.185
 4729POPC   D2A61672  42.338  37.780   6.493
 4729POPC   C3A61673  42.341  37.928   6.905
 4729POPC   C4A61674  42.137  37.795   7.256
 4729POPC   C1B61675  42.652  37.497   6.202
 4729POPC   C2B61676  42.610  37.360   6.664
 4729POPC   C3B61677  42.567  37.474   7.113
 4729POPC   C4B61678  42.710  37.843   7.307
 4730POPC   NC361679   3.744  17.404   5.514
 4730POPC   PO461680   3.143  17.147   5.454
 4730POPC   GL161681   3.315  17.450   5.811
 4730POPC   GL261682   3.562  17.183   5.958
 4730POPC   C1A61683   3.489  17.839   6.117
 4730POPC   D2A61684   3.641  18.054   6.552
 4730POPC   C3A61685   3.613  17.780   6.940
 4730POPC   C4A61686   3.344  17.431   7.126
 4730POPC   C1B61687   3.828  17.177   6.350
 4730POPC   C2B61688   3.746  17.255   6.809
 4730POPC   C3B61689   3.784  17.139   7.246
 4730POPC   C4B61690   3.650  17.217   7.670
 4731POPC   NC361691  32.631  21.695   5.565
 4731POPC   PO461692  32.754  21.164   5.174
 4731POPC   GL161693  32.839  21.215   5.649
 4731POPC   GL261694  33.109  21.369   5.811
 4731POPC   C1A61695  32.739  21.211   6.131
 4731POPC   D2A61696  32.928  21.157   6.570
 4731POPC   C3A61697  32.776  21.464   6.882
 4731POPC   C4A61698  32.571  21.526   7.274
 4731POPC   C1B61699  33.253  21.126   6.170
 4731POPC   C2B61700  33.369  20.806   6.471
 4731POPC   C3B61701  33.292  20.960   6.897
 4731POPC   C4B61702  33.056  21.208   7.244
 4732POPC   NC361703  25.049   1.526   5.568
 4732POPC   PO461704  25.522   1.096   5.737
 4732POPC   GL161705  25.442   1.356   6.072
 4732POPC   GL261706  25.100   1.345   6.096
 4732POPC   C1A61707  25.418   1.180   6.491
 4732POPC   D2A61708  25.162   0.976   6.825
 4732POPC   C3A61709  25.173   1.270   7.134
 4732POPC   C4A61710  25.489   1.520   7.334
 4732POPC   C1B61711  24.946   1.374   6.563
 4732POPC   C2B61712  24.674   1.167   6.898
 4732POPC   C3B61713  24.760   1.064   7.365
 4732POPC   C4B61714  25.126   1.251   7.636
 4733POPC   NC361715   3.875  44.974   5.554
 4733POPC   PO461716   3.754   0.604   5.360
 4733POPC   GL161717   3.583   0.601   5.774
 4733POPC   GL261718   3.503   0.267   5.814
 4733POPC   C1A61719   3.365   0.583   6.199
 4733POPC   D2A61720   3.300   0.268   6.522
 4733POPC   C3A61721   3.344   0.437   6.899
 4733POPC   C4A61722   3.204   0.477   7.304
 4733POPC   C1B61723   3.778   0.216   6.148
 4733POPC   C2B61724   3.826   0.307   6.543
 4733POPC   C3B61725   3.770   0.144   6.903
 4733POPC   C4B61726   3.678   0.313   7.252
 4734POPC   NC361727  21.937  26.729   5.419
 4734POPC   PO461728  22.626  26.574   5.495
 4734POPC   GL161729  22.457  26.777   5.881
 4734POPC   GL261730  22.111  26.791   5.930
 4734POPC   C1A61731  22.457  26.761   6.338
 4734POPC   D2A61732  22.190  26.775   6.661
 4734POPC   C3A61733  22.341  26.881   7.038
 4734POPC   C4A61734  22.079  27.217   7.273
 4734POPC   C1B61735  22.113  26.399   6.195
 4734POPC   C2B61736  21.974  26.324   6.654
 4734POPC   C3B61737  22.015  26.423   7.094
 4734POPC   C4B61738  21.757  26.395   7.458
 4735POPC   NC361739  11.789   4.636   5.676
 4735POPC   PO461740  12.316   4.250   5.611
 4735POPC   GL161741  12.066   4.320   5.953
 4735POPC   GL261742  11.855   4.029   5.981
 4735POPC   C1A61743  11.951   4.339   6.374
 4735POPC   D2A61744  12.177   4.284   6.725
 4735POPC   C3A61745  11.817   4.313   6.959
 4735POPC   C4A61746  11.793   4.497   7.324
 4735POPC   C1B61747  12.294   3.967   6.229
 4735POPC   C2B61748  12.455   3.850   6.629
 4735POPC   C3B61749  12.497   3.982   7.034
 4735POPC   C4B61750  12.243   4.237   7.247
 4736POPC   NC361751  10.792  16.225   5.178
 4736POPC   PO461752  10.731  15.603   5.406
 4736POPC   GL161753  10.652  15.974   5.658
 4736POPC   GL261754  10.322  16.118   5.754
 4736POPC   C1A61755  10.563  15.798   6.072
 4736POPC   D2A61756  10.505  15.931   6.466
 4736POPC   C3A61757  10.594  15.669   6.833
 4736POPC   C4A61758  10.492  15.578   7.266
 4736POPC   C1B61759  10.502  16.310   6.110
 4736POPC   C2B61760  10.622  16.427   6.512
 4736POPC   C3B61761  10.568  16.207   6.878
 4736POPC   C4B61762  10.611  16.062   7.241
 4737POPC   NC361763  38.543   8.632   5.397
 4737POPC   PO461764  38.133   8.112   5.384
 4737POPC   GL161765  38.306   8.334   5.785
 4737POPC   GL261766  38.586   8.581   5.893
 4737POPC   C1A61767  38.247   8.396   6.231
 4737POPC   D2A61768  38.395   8.196   6.611
 4737POPC   C3A61769  38.482   8.329   7.005
 4737POPC   C4A61770  38.512   8.033   7.358
 4737POPC   C1B61771  38.752   8.416   6.292
 4737POPC   C2B61772  38.898   8.340   6.684
 4737POPC   C3B61773  38.969   8.290   7.116
 4737POPC   C4B61774  38.785   8.645   7.300
 4738POPC   NC361775   1.074   8.971   5.146
 4738POPC   PO461776   1.612   8.903   5.492
 4738POPC   GL161777   1.243   8.815   5.719
 4738POPC   GL261778   1.029   9.122   5.743
 4738POPC   C1A61779   1.326   8.767   6.156
 4738POPC   D2A61780   1.431   9.024   6.478
 4738POPC   C3A61781   1.454   8.866   6.875
 4738POPC   C4A61782   1.414   9.022   7.265
 4738POPC   C1B61783   0.828   8.907   6.127
 4738POPC   C2B61784   0.894   8.762   6.573
 4738POPC   C3B61785   0.959   8.958   6.972
 4738POPC   C4B61786   0.950   8.838   7.382
 4739POPC   NC361787   0.549  17.087   5.517
 4739POPC   PO461788   0.199  16.484   5.438
 4739POPC   GL161789   0.184  16.819   5.787
 4739POPC   GL261790   0.499  16.802   5.962
 4739POPC   C1A61791   0.038  16.980   6.182
 4739POPC   D2A61792   0.393  16.970   6.454
 4739POPC   C3A61793   0.515  16.973   6.876
 4739POPC   C4A61794   0.416  16.686   7.181
 4739POPC   C1B61795   0.814  17.051   6.180
 4739POPC   C2B61796   1.113  16.932   6.482
 4739POPC   C3B61797   0.974  16.710   6.845
 4739POPC   C4B61798   0.881  16.876   7.253
 4740POPC   NC361799   4.633  37.793   4.871
 4740POPC   PO461800   4.360  37.841   5.503
 4740POPC   GL161801   4.481  37.725   5.905
 4740POPC   GL261802   4.686  37.989   5.925
 4740POPC   C1A61803   4.307  37.602   6.335
 4740POPC   D2A61804   4.390  37.385   6.730
 4740POPC   C3A61805   4.208  37.650   7.081
 4740POPC   C4A61806   4.330  37.601   7.549
 4740POPC   C1B61807   4.788  37.814   6.319
 4740POPC   C2B61808   4.643  37.834   6.730
 4740POPC   C3B61809   4.704  37.787   7.163
 4740POPC   C4B61810   4.748  37.960   7.570
 4741POPC   NC361811  13.392  39.445   5.612
 4741POPC   PO461812  13.657  38.996   5.242
 4741POPC   GL161813  13.479  38.962   5.803
 4741POPC   GL261814  13.406  39.246   6.066
 4741POPC   C1A61815  13.699  38.886   6.239
 4741POPC   D2A61816  13.798  39.058   6.639
 4741POPC   C3A61817  13.407  39.239   6.799
 4741POPC   C4A61818  13.168  39.028   7.118
 4741POPC   C1B61819  13.753  39.461   6.334
 4741POPC   C2B61820  14.019  39.516   6.716
 4741POPC   C3B61821  13.819  39.364   7.075
 4741POPC   C4B61822  13.709  38.945   7.133
 4742POPC   NC361823   4.774  19.417   5.538
 4742POPC   PO461824   4.847  18.799   5.342
 4742POPC   GL161825   5.101  19.019   5.748
 4742POPC   GL261826   4.958  19.295   5.979
 4742POPC   C1A61827   5.324  19.074   6.207
 4742POPC   D2A61828   5.213  18.860   6.545
 4742POPC   C3A61829   5.263  19.082   6.910
 4742POPC   C4A61830   5.380  18.863   7.254
 4742POPC   C1B61831   4.791  18.947   6.276
 4742POPC   C2B61832   4.754  18.878   6.761
 4742POPC   C3B61833   4.821  18.955   7.185
 4742POPC   C4B61834   4.678  19.264   7.510
 4743POPC   NC361835  37.751  36.547   5.324
 4743POPC   PO461836  37.471  35.882   5.344
 4743POPC   GL161837  37.550  36.151   5.719
 4743POPC   GL261838  37.870  36.223   5.776
 4743POPC   C1A61839  37.597  35.974   6.146
 4743POPC   D2A61840  37.528  36.144   6.562
 4743POPC   C3A61841  37.362  35.961   6.937
 4743POPC   C4A61842  37.672  35.894   7.275
 4743POPC   C1B61843  37.913  36.406   6.245
 4743POPC   C2B61844  37.676  36.629   6.578
 4743POPC   C3B61845  37.561  36.453   6.970
 4743POPC   C4B61846  37.807  36.385   7.322
 4744POPC   NC361847  18.742  37.206   5.468
 4744POPC   PO461848  19.377  36.910   5.389
 4744POPC   GL161849  19.287  37.003   5.811
 4744POPC   GL261850  18.958  36.911   5.827
 4744POPC   C1A61851  19.245  36.959   6.248
 4744POPC   D2A61852  19.403  36.785   6.600
 4744POPC   C3A61853  19.177  36.781   6.946
 4744POPC   C4A61854  19.215  36.552   7.307
 4744POPC   C1B61855  18.789  37.146   6.174
 4744POPC   C2B61856  18.960  37.189   6.618
 4744POPC   C3B61857  18.779  37.109   7.026
 4744POPC   C4B61858  18.575  36.991   7.443
 4745POPC   NC361859   0.245   0.465   5.367
 4745POPC   PO461860   0.900   0.078   5.439
 4745POPC   GL161861   0.531   0.187   5.762
 4745POPC   GL261862   0.515   0.560   5.818
 4745POPC   C1A61863   0.261   0.164   6.182
 4745POPC   D2A61864   0.403   0.238   6.648
 4745POPC   C3A61865   0.156   0.112   7.019
 4745POPC   C4A61866   0.146   0.242   7.457
 4745POPC   C1B61867   0.562   0.568   6.290
 4745POPC   C2B61868   0.481   0.786   6.694
 4745POPC   C3B61869   0.364   0.578   7.044
 4745POPC   C4B61870   0.764   0.509   7.206
 4746POPC   NC361871  42.803  44.736   5.451
 4746POPC   PO461872  43.438  44.881   5.391
 4746POPC   GL161873  43.216  44.862   5.789
 4746POPC   GL261874  42.886   0.068   5.809
 4746POPC   C1A61875  43.307  44.611   6.171
 4746POPC   D2A61876  43.171  44.601   6.598
 4746POPC   C3A61877  43.446  44.383   6.879
 4746POPC   C4A61878  43.473  44.368   7.325
 4746POPC   C1B61879  42.824  44.760   6.133
 4746POPC   C2B61880  42.672  44.787   6.545
 4746POPC   C3B61881  42.821  44.840   6.927
 4746POPC   C4B61882  43.032  44.527   7.139
 4747POPC   NC361883  10.308  21.103   5.291
 4747POPC   PO461884  10.741  21.705   5.304
 4747POPC   GL161885  10.734  21.454   5.670
 4747POPC   GL261886  10.682  21.120   5.710
 4747POPC   C1A61887  10.752  21.439   6.134
 4747POPC   D2A61888  10.491  21.696   6.448
 4747POPC   C3A61889  10.401  21.556   6.864
 4747POPC   C4A61890  10.743  21.383   7.074
 4747POPC   C1B61891  10.371  21.079   6.073
 4747POPC   C2B61892  10.285  20.949   6.525
 4747POPC   C3B61893  10.184  21.095   6.965
 4747POPC   C4B61894  10.372  21.179   7.371
 4748POPC   NC361895  30.805  44.999   5.301
 4748POPC   PO461896  30.353  44.522   5.289
 4748POPC   GL161897  30.550  44.748   5.662
 4748POPC   GL261898  30.299  44.897   5.797
 4748POPC   C1A61899  30.689  44.878   6.119
 4748POPC   D2A61900  30.549  44.756   6.553
 4748POPC   C3A61901  30.872  44.682   6.875
 4748POPC   C4A61902  30.926  44.403   7.229
 4748POPC   C1B61903  30.168  44.946   6.239
 4748POPC   C2B61904  30.208   0.140   6.670
 4748POPC   C3B61905  30.588   0.108   6.942
 4748POPC   C4B61906  30.679  44.873   7.304
 4749POPC   NC361907  16.144   9.619   5.491
 4749POPC   PO461908  15.710  10.105   5.300
 4749POPC   GL161909  15.646   9.818   5.683
 4749POPC   GL261910  15.911   9.627   5.915
 4749POPC   C1A61911  15.559   9.895   6.137
 4749POPC   D2A61912  15.736   9.600   6.429
 4749POPC   C3A61913  15.771   9.689   6.882
 4749POPC   C4A61914  15.982   9.910   7.289
 4749POPC   C1B61915  16.220   9.526   6.223
 4749POPC   C2B61916  16.264   9.658   6.651
 4749POPC   C3B61917  16.197   9.496   7.079
 4749POPC   C4B61918  16.522   9.483   7.353
 4750POPC   NC361919  34.673  44.256   5.638
 4750POPC   PO461920  35.001  43.758   5.375
 4750POPC   GL161921  34.721  43.716   5.800
 4750POPC   GL261922  34.684  43.987   6.048
 4750POPC   C1A61923  34.447  43.575   6.198
 4750POPC   D2A61924  34.372  43.748   6.635
 4750POPC   C3A61925  34.249  43.500   7.013
 4750POPC   C4A61926  34.540  43.634   7.328
 4750POPC   C1B61927  34.678  44.247   6.408
 4750POPC   C2B61928  34.897  44.240   6.793
 4750POPC   C3B61929  34.694  44.023   7.072
 4750POPC   C4B61930  34.220  44.006   7.110
 4751POPC   NC361931  28.852  22.055   5.419
 4751POPC   PO461932  28.162  22.053   5.495
 4751POPC   GL161933  28.472  22.168   5.798
 4751POPC   GL261934  28.591  21.833   5.828
 4751POPC   C1A61935  28.320  22.300   6.213
 4751POPC   D2A61936  28.215  22.085   6.599
 4751POPC   C3A61937  28.220  22.300   6.970
 4751POPC   C4A61938  28.485  22.238   7.295
 4751POPC   C1B61939  28.337  21.732   6.237
 4751POPC   C2B61940  28.265  21.577   6.702
 4751POPC   C3B61941  28.327  21.765   7.140
 4751POPC   C4B61942  28.380  21.853   7.612
 4752POPC   NC361943  10.236   8.358   5.172
 4752POPC   PO461944  10.685   7.875   5.395
 4752POPC   GL161945  10.702   8.073   5.778
 4752POPC   GL261946  10.809   8.364   5.831
 4752POPC   C1A61947  10.490   8.044   6.173
 4752POPC   D2A61948  10.604   7.824   6.513
 4752POPC   C3A61949  10.394   7.973   6.867
 4752POPC   C4A61950  10.511   7.939   7.284
 4752POPC   C1B61951  10.664   8.522   6.230
 4752POPC   C2B61952  10.496   8.422   6.638
 4752POPC   C3B61953  10.707   8.354   7.026
 4752POPC   C4B61954  11.065   8.547   7.215
 4753POPC   NC361955  24.810  31.007   5.722
 4753POPC   PO461956  24.530  31.629   5.438
 4753POPC   GL161957  24.628  31.652   5.842
 4753POPC   GL261958  24.485  31.371   5.894
 4753POPC   C1A61959  24.577  31.718   6.285
 4753POPC   D2A61960  24.289  31.807   6.625
 4753POPC   C3A61961  24.500  31.762   7.033
 4753POPC   C4A61962  24.678  31.477   7.374
 4753POPC   C1B61963  24.238  31.364   6.267
 4753POPC   C2B61964  24.476  31.323   6.654
 4753POPC   C3B61965  24.342  31.274   7.043
 4753POPC   C4B61966  23.964  31.261   7.213
 4754POPC   NC361967  14.145  22.534   5.226
 4754POPC   PO461968  14.455  23.167   5.459
 4754POPC   GL161969  14.232  23.015   5.818
 4754POPC   GL261970  14.488  22.822   5.979
 4754POPC   C1A61971  14.121  22.980   6.283
 4754POPC   D2A61972  14.331  22.831   6.678
 4754POPC   C3A61973  14.186  23.035   7.066
 4754POPC   C4A61974  14.083  23.014   7.523
 4754POPC   C1B61975  14.686  23.034   6.297
 4754POPC   C2B61976  14.879  22.954   6.680
 4754POPC   C3B61977  14.720  22.924   7.080
 4754POPC   C4B61978  14.567  23.130   7.439
 4755POPC   NC361979   8.084  36.440   5.409
 4755POPC   PO461980   8.386  37.056   5.289
 4755POPC   GL161981   8.248  37.070   5.762
 4755POPC   GL261982   8.019  36.832   5.822
 4755POPC   C1A61983   8.223  37.176   6.217
 4755POPC   D2A61984   8.009  37.328   6.591
 4755POPC   C3A61985   8.119  37.249   7.011
 4755POPC   C4A61986   7.990  37.037   7.382
 4755POPC   C1B61987   8.144  36.649   6.225
 4755POPC   C2B61988   8.085  36.795   6.626
 4755POPC   C3B61989   8.137  36.706   7.030
 4755POPC   C4B61990   8.429  36.633   7.322
 4756POPC   NC361991  39.187  16.939   5.339
 4756POPC   PO461992  39.028  16.336   5.490
 4756POPC   GL161993  39.120  16.464   5.878
 4756POPC   GL261994  39.301  16.785   5.825
 4756POPC   C1A61995  39.142  16.492   6.314
 4756POPC   D2A61996  39.298  16.658   6.676
 4756POPC   C3A61997  39.183  16.519   7.093
 4756POPC   C4A61998  39.382  16.689   7.486
 4756POPC   C1B61999  39.448  16.931   6.230
 4756POPC   C2B62000  39.477  17.142   6.645
 4756POPC   C3B62001  39.442  16.967   7.049
 4756POPC   C4B62002  39.238  17.177   7.374
 4757POPC   NC362003  44.733  24.076   5.319
 4757POPC   PO462004  44.505  24.681   5.382
 4757POPC   GL162005  44.493  24.462   5.762
 4757POPC   GL262006  44.857  24.517   5.878
 4757POPC   C1A62007  44.457  24.427   6.205
 4757POPC   D2A62008  44.777  24.572   6.504
 4757POPC   C3A62009  44.776  24.681   6.927
 4757POPC   C4A62010  44.509  24.753   7.265
 4757POPC   C1B62011  44.934  24.189   6.214
 4757POPC   C2B62012   0.129  24.216   6.664
 4757POPC   C3B62013   0.056  24.296   7.138
 4757POPC   C4B62014   0.076  24.111   7.554
 4758POPC   NC362015  24.764   8.053   5.381
 4758POPC   PO462016  24.460   8.583   5.552
 4758POPC   GL162017  24.568   8.208   5.885
 4758POPC   GL262018  24.860   7.986   5.889
 4758POPC   C1A62019  24.635   8.080   6.368
 4758POPC   D2A62020  24.560   8.192   6.828
 4758POPC   C3A62021  24.121   8.217   7.094
 4758POPC   C4A62022  24.001   8.108   7.551
 4758POPC   C1B62023  25.037   7.762   6.260
 4758POPC   C2B62024  25.005   7.858   6.756
 4758POPC   C3B62025  24.884   8.027   7.210
 4758POPC   C4B62026  24.566   8.363   7.308
 4759POPC   NC362027  40.266  44.360   5.121
 4759POPC   PO462028  39.804  44.846   5.276
 4759POPC   GL162029  39.981  44.794   5.707
 4759POPC   GL262030  40.147  44.452   5.745
 4759POPC   C1A62031  39.889  44.882   6.157
 4759POPC   D2A62032  39.907  44.735   6.591
 4759POPC   C3A62033  39.820  44.891   7.007
 4759POPC   C4A62034  39.923  44.672   7.401
 4759POPC   C1B62035  39.973  44.384   6.174
 4759POPC   C2B62036  40.170  44.314   6.587
 4759POPC   C3B62037  39.931  44.364   6.959
 4759POPC   C4B62038  39.880  44.180   7.332
 4760POPC   NC362039   5.935   6.808   5.447
 4760POPC   PO462040   5.304   6.701   5.511
 4760POPC   GL162041   5.559   6.468   5.800
 4760POPC   GL262042   5.929   6.421   5.766
 4760POPC   C1A62043   5.676   6.554   6.220
 4760POPC   D2A62044   5.449   6.522   6.578
 4760POPC   C3A62045   5.697   6.589   6.875
 4760POPC   C4A62046   5.553   6.551   7.238
 4760POPC   C1B62047   6.182   6.573   6.131
 4760POPC   C2B62048   6.284   6.393   6.509
 4760POPC   C3B62049   6.268   6.495   6.910
 4760POPC   C4B62050   6.050   6.514   7.258
 4761POPC   NC362051  41.053  39.426   5.383
 4761POPC   PO462052  40.545  38.937   5.110
 4761POPC   GL162053  40.654  39.126   5.559
 4761POPC   GL262054  40.465  39.379   5.686
 4761POPC   C1A62055  40.863  39.241   6.025
 4761POPC   D2A62056  40.854  38.986   6.466
 4761POPC   C3A62057  41.065  39.015   6.914
 4761POPC   C4A62058  40.893  39.236   7.292
 4761POPC   C1B62059  40.466  39.584   6.088
 4761POPC   C2B62060  40.793  39.619   6.421
 4761POPC   C3B62061  40.804  39.597   6.887
 4761POPC   C4B62062  40.473  39.536   7.221
 4762POPC   NC362063   5.672  43.792   5.557
 4762POPC   PO462064   6.340  43.813   5.563
 4762POPC   GL162065   6.095  43.832   5.912
 4762POPC   GL262066   5.946  43.521   5.868
 4762POPC   C1A62067   5.936  43.809   6.341
 4762POPC   D2A62068   5.942  44.045   6.758
 4762POPC   C3A62069   6.109  44.024   7.221
 4762POPC   C4A62070   6.276  44.264   7.634
 4762POPC   C1B62071   5.578  43.465   6.163
 4762POPC   C2B62072   5.523  43.625   6.616
 4762POPC   C3B62073   5.764  43.626   7.025
 4762POPC   C4B62074   5.675  43.811   7.432
 4763POPC   NC362075  44.040  23.378   5.497
 4763POPC   PO462076  43.877  22.741   5.624
 4763POPC   GL162077  44.113  23.021   5.882
 4763POPC   GL262078  43.845  23.227   5.951
 4763POPC   C1A62079  44.169  23.096   6.328
 4763POPC   D2A62080  44.148  22.738   6.581
 4763POPC   C3A62081  44.119  22.728   7.002
 4763POPC   C4A62082  43.739  22.846   7.161
 4763POPC   C1B62083  43.615  23.042   6.294
 4763POPC   C2B62084  43.576  23.078   6.731
 4763POPC   C3B62085  43.760  23.327   7.058
 4763POPC   C4B62086  44.162  23.186   7.240
 4764POPC   NC362087  28.895   5.239   5.604
 4764POPC   PO462088  29.379   4.825   5.487
 4764POPC   GL162089  29.269   5.042   5.914
 4764POPC   GL262090  28.938   5.200   6.089
 4764POPC   C1A62091  29.387   5.320   6.257
 4764POPC   D2A62092  29.118   5.180   6.596
 4764POPC   C3A62093  29.243   5.279   7.015
 4764POPC   C4A62094  29.574   5.377   7.310
 4764POPC   C1B62095  28.866   4.817   6.180
 4764POPC   C2B62096  28.709   4.705   6.539
 4764POPC   C3B62097  28.902   4.865   6.927
 4764POPC   C4B62098  28.847   5.103   7.301
 4765POPC   NC362099  31.815   1.252   5.445
 4765POPC   PO462100  31.131   1.043   5.474
 4765POPC   GL162101  31.270   1.244   5.885
 4765POPC   GL262102  31.616   1.379   5.932
 4765POPC   C1A62103  31.086   1.272   6.290
 4765POPC   D2A62104  31.041   1.116   6.688
 4765POPC   C3A62105  31.297   1.337   6.962
 4765POPC   C4A62106  31.416   1.154   7.310
 4765POPC   C1B62107  31.569   1.107   6.324
 4765POPC   C2B62108  31.547   0.908   6.757
 4765POPC   C3B62109  31.874   0.968   7.095
 4765POPC   C4B62110  31.893   1.202   7.478
 4766POPC   NC362111   0.515   2.072   5.256
 4766POPC   PO462112   0.282   1.468   5.505
 4766POPC   GL162113   0.298   1.872   5.706
 4766POPC   GL262114   0.385   2.237   5.724
 4766POPC   C1A62115   0.401   1.947   6.130
 4766POPC   D2A62116   0.509   1.700   6.494
 4766POPC   C3A62117   0.520   1.860   6.884
 4766POPC   C4A62118   0.555   2.026   7.283
 4766POPC   C1B62119   0.686   2.357   6.097
 4766POPC   C2B62120   0.738   2.252   6.573
 4766POPC   C3B62121   0.703   2.455   7.025
 4766POPC   C4B62122   0.519   2.481   7.473
 4767POPC   NC362123  43.235  10.705   5.301
 4767POPC   PO462124  42.631  10.433   5.483
 4767POPC   GL162125  42.787  10.384   5.889
 4767POPC   GL262126  43.116  10.502   5.773
 4767POPC   C1A62127  42.956  10.488   6.304
 4767POPC   D2A62128  43.124  10.843   6.540
 4767POPC   C3A62129  43.053  10.736   6.964
 4767POPC   C4A62130  42.903  10.367   7.187
 4767POPC   C1B62131  43.371  10.329   6.072
 4767POPC   C2B62132  43.467  10.433   6.493
 4767POPC   C3B62133  43.294  10.293   6.862
 4767POPC   C4B62134  43.399  10.418   7.280
 4768POPC   NC362135  38.763   1.580   5.585
 4768POPC   PO462136  38.186   1.474   5.188
 4768POPC   GL162137  38.309   1.307   5.639
 4768POPC   GL262138  38.620   1.104   5.755
 4768POPC   C1A62139  38.198   1.099   6.066
 4768POPC   D2A62140  38.304   1.230   6.504
 4768POPC   C3A62141  38.207   1.078   6.919
 4768POPC   C4A62142  38.445   1.227   7.286
 4768POPC   C1B62143  38.683   1.331   6.172
 4768POPC   C2B62144  38.874   1.309   6.591
 4768POPC   C3B62145  38.872   1.396   7.053
 4768POPC   C4B62146  38.903   1.004   7.297
 4769POPC   NC362147  33.211  42.037   5.100
 4769POPC   PO462148  32.805  42.423   5.443
 4769POPC   GL162149  33.148  42.423   5.785
 4769POPC   GL262150  33.124  42.108   5.980
 4769POPC   C1A62151  33.219  42.539   6.234
 4769POPC   D2A62152  33.288  42.314   6.608
 4769POPC   C3A62153  33.219  42.501   7.019
 4769POPC   C4A62154  33.194  42.682   7.435
 4769POPC   C1B62155  32.870  42.109   6.401
 4769POPC   C2B62156  32.865  42.128   6.860
 4769POPC   C3B62157  32.862  41.867   7.244
 4769POPC   C4B62158  32.703  42.031   7.654
 4770POPC   NC362159  42.198  42.876   5.382
 4770POPC   PO462160  42.596  43.320   5.272
 4770POPC   GL162161  42.558  43.041   5.709
 4770POPC   GL262162  42.239  43.097   5.841
 4770POPC   C1A62163  42.749  42.933   6.133
 4770POPC   D2A62164  42.592  42.896   6.567
 4770POPC   C3A62165  42.605  43.223   6.886
 4770POPC   C4A62166  42.464  43.097   7.290
 4770POPC   C1B62167  42.021  43.297   6.162
 4770POPC   C2B62168  42.027  42.997   6.466
 4770POPC   C3B62169  42.178  42.914   6.863
 4770POPC   C4B62170  41.980  42.992   7.209
 4771POPC   NC362171  40.127  13.376   5.248
 4771POPC   PO462172  40.085  12.844   5.754
 4771POPC   GL162173  40.146  12.954   6.128
 4771POPC   GL262174  39.808  13.054   6.200
 4771POPC   C1A62175  40.205  12.839   6.547
 4771POPC   D2A62176  39.908  12.682   6.835
 4771POPC   C3A62177  40.099  12.855   7.184
 4771POPC   C4A62178  39.906  13.091   7.492
 4771POPC   C1B62179  39.812  12.584   6.319
 4771POPC   C2B62180  39.631  12.274   6.589
 4771POPC   C3B62181  39.689  12.233   7.018
 4771POPC   C4B62182  39.819  12.497   7.409
 4772POPC   NC362183   2.020   2.984   5.235
 4772POPC   PO462184   2.430   2.537   5.333
 4772POPC   GL162185   2.210   2.553   5.772
 4772POPC   GL262186   1.928   2.740   5.820
 4772POPC   C1A62187   2.125   2.466   6.238
 4772POPC   D2A62188   2.456   2.396   6.563
 4772POPC   C3A62189   2.313   2.500   6.975
 4772POPC   C4A62190   2.007   2.838   7.041
 4772POPC   C1B62191   2.015   2.974   6.187
 4772POPC   C2B62192   1.816   3.032   6.576
 4772POPC   C3B62193   1.562   3.157   6.903
 4772POPC   C4B62194   1.523   2.887   7.235
 4773POPC   NC362195  44.623  20.304   5.480
 4773POPC   PO462196  44.972  19.711   5.458
 4773POPC   GL162197  44.898  19.982   5.801
 4773POPC   GL262198  44.544  19.881   5.813
 4773POPC   C1A62199  44.808  19.996   6.245
 4773POPC   D2A62200  44.798  20.206   6.624
 4773POPC   C3A62201  44.863  19.853   6.864
 4773POPC   C4A62202  44.687  19.679   7.219
 4773POPC   C1B62203  44.361  19.734   6.226
 4773POPC   C2B62204  44.395  19.730   6.691
 4773POPC   C3B62205  44.338  20.005   7.047
 4773POPC   C4B62206  44.000  20.001   7.394
 4774POPC   NC362207   5.508  40.783   5.468
 4774POPC   PO462208   4.855  40.790   5.283
 4774POPC   GL162209   5.005  40.776   5.690
 4774POPC   GL262210   4.747  40.574   5.849
 4774POPC   C1A62211   5.015  40.965   6.097
 4774POPC   D2A62212   5.143  40.858   6.526
 4774POPC   C3A62213   5.046  40.939   6.965
 4774POPC   C4A62214   5.305  40.956   7.315
 4774POPC   C1B62215   4.722  40.607   6.290
 4774POPC   C2B62216   4.784  40.563   6.757
 4774POPC   C3B62217   4.720  40.584   7.214
 4774POPC   C4B62218   4.954  40.716   7.581
 4775POPC   NC362219  12.583  37.897   5.021
 4775POPC   PO462220  12.948  38.325   5.459
 4775POPC   GL162221  12.711  38.429   5.833
 4775POPC   GL262222  12.504  38.781   5.889
 4775POPC   C1A62223  12.924  38.419   6.205
 4775POPC   D2A62224  12.946  38.502   6.618
 4775POPC   C3A62225  12.732  38.222   6.882
 4775POPC   C4A62226  12.924  38.107   7.272
 4775POPC   C1B62227  12.569  38.764   6.337
 4775POPC   C2B62228  12.396  38.362   6.523
 4775POPC   C3B62229  12.236  38.277   6.934
 4775POPC   C4B62230  12.362  38.554   7.236
 4776POPC   NC362231  41.043  12.876   5.338
 4776POPC   PO462232  40.464  13.083   5.378
 4776POPC   GL162233  40.576  12.917   5.801
 4776POPC   GL262234  40.879  12.786   5.800
 4776POPC   C1A62235  40.643  13.046   6.247
 4776POPC   D2A62236  40.929  12.970   6.600
 4776POPC   C3A62237  40.798  12.991   7.059
 4776POPC   C4A62238  40.904  12.897   7.525
 4776POPC   C1B62239  40.766  12.566   6.131
 4776POPC   C2B62240  40.714  12.480   6.560
 4776POPC   C3B62241  40.827  12.467   6.981
 4776POPC   C4B62242  40.557  12.610   7.317
 4777POPC   NC362243  26.095  34.818   5.313
 4777POPC   PO462244  25.971  34.169   5.274
 4777POPC   GL162245  25.984  34.414   5.704
 4777POPC   GL262246  25.891  34.763   5.773
 4777POPC   C1A62247  26.287  34.562   6.044
 4777POPC   D2A62248  26.429  34.462   6.462
 4777POPC   C3A62249  26.090  34.316   6.729
 4777POPC   C4A62250  26.014  34.413   7.149
 4777POPC   C1B62251  26.013  34.993   6.147
 4777POPC   C2B62252  26.355  34.984   6.439
 4777POPC   C3B62253  26.256  34.817   6.825
 4777POPC   C4B62254  25.981  34.934   7.167
 4778POPC   NC362255  34.110  19.584   5.466
 4778POPC   PO462256  34.758  19.701   5.522
 4778POPC   GL162257  34.692  19.858   5.912
 4778POPC   GL262258  34.305  19.925   5.856
 4778POPC   C1A62259  34.830  19.875   6.364
 4778POPC   D2A62260  34.567  20.053   6.649
 4778POPC   C3A62261  34.560  19.996   7.060
 4778POPC   C4A62262  34.254  20.092   7.382
 4778POPC   C1B62263  34.338  19.734   6.264
 4778POPC   C2B62264  34.164  19.719   6.663
 4778POPC   C3B62265  34.318  19.558   7.058
 4778POPC   C4B62266  34.786  19.510   7.162
 4779POPC   NC362267   5.682  16.173   5.615
 4779POPC   PO462268   5.933  15.704   5.252
 4779POPC   GL162269   6.044  15.819   5.725
 4779POPC   GL262270   5.755  15.778   5.979
 4779POPC   C1A62271   6.074  16.109   6.149
 4779POPC   D2A62272   6.054  15.935   6.548
 4779POPC   C3A62273   6.156  16.226   6.880
 4779POPC   C4A62274   6.037  16.132   7.300
 4779POPC   C1B62275   5.552  16.086   6.279
 4779POPC   C2B62276   5.631  16.177   6.709
 4779POPC   C3B62277   5.738  15.886   6.985
 4779POPC   C4B62278   5.543  15.759   7.327
 4780POPC   NC362279  19.678  22.352   5.259
 4780POPC   PO462280  20.157  21.876   5.354
 4780POPC   GL162281  19.957  22.158   5.669
 4780POPC   GL262282  20.156  22.401   5.896
 4780POPC   C1A62283  19.771  22.143   6.104
 4780POPC   D2A62284  19.918  21.989   6.505
 4780POPC   C3A62285  20.003  22.210   6.916
 4780POPC   C4A62286  19.895  22.057   7.334
 4780POPC   C1B62287  20.068  22.475   6.385
 4780POPC   C2B62288  19.702  22.553   6.681
 4780POPC   C3B62289  19.544  22.378   7.084
 4780POPC   C4B62290  19.586  22.504   7.513
 4781POPC   NC362291  23.430  21.941   5.465
 4781POPC   PO462292  23.524  22.628   5.234
 4781POPC   GL162293  23.770  22.507   5.639
 4781POPC   GL262294  23.706  22.189   5.792
 4781POPC   C1A62295  23.813  22.527   6.133
 4781POPC   D2A62296  23.783  22.577   6.601
 4781POPC   C3A62297  23.686  22.245   6.913
 4781POPC   C4A62298  23.910  22.170   7.313
 4781POPC   C1B62299  23.883  21.988   6.168
 4781POPC   C2B62300  23.991  21.965   6.598
 4781POPC   C3B62301  23.894  21.790   6.999
 4781POPC   C4B62302  23.512  21.853   7.263
 4782POPC   NC362303   2.841   6.098   5.362
 4782POPC   PO462304   2.435   5.583   5.326
 4782POPC   GL162305   2.587   5.798   5.703
 4782POPC   GL262306   2.429   6.079   5.703
 4782POPC   C1A62307   2.734   5.858   6.127
 4782POPC   D2A62308   2.735   6.039   6.535
 4782POPC   C3A62309   3.073   5.885   6.813
 4782POPC   C4A62310   2.905   5.872   7.224
 4782POPC   C1B62311   2.263   6.061   6.168
 4782POPC   C2B62312   2.170   6.061   6.632
 4782POPC   C3B62313   2.476   6.093   6.989
 4782POPC   C4B62314   2.586   6.250   7.423
 4783POPC   NC362315  25.756   2.062   5.281
 4783POPC   PO462316  26.308   1.623   5.415
 4783POPC   GL162317  26.131   1.611   5.820
 4783POPC   GL262318  25.771   1.630   5.791
 4783POPC   C1A62319  26.250   1.769   6.204
 4783POPC   D2A62320  26.275   1.959   6.586
 4783POPC   C3A62321  26.076   1.828   6.965
 4783POPC   C4A62322  25.975   2.208   7.236
 4783POPC   C1B62323  25.747   1.938   6.125
 4783POPC   C2B62324  25.728   1.975   6.588
 4783POPC   C3B62325  25.587   1.931   7.033
 4783POPC   C4B62326  25.575   2.011   7.489
 4784POPC   NC362327  24.084  36.409   5.500
 4784POPC   PO462328  23.465  36.289   5.483
 4784POPC   GL162329  23.709  36.145   5.823
 4784POPC   GL262330  24.000  35.954   5.718
 4784POPC   C1A62331  23.857  36.130   6.231
 4784POPC   D2A62332  23.741  35.984   6.598
 4784POPC   C3A62333  23.680  36.183   6.936
 4784POPC   C4A62334  23.902  36.254   7.286
 4784POPC   C1B62335  24.239  35.832   6.090
 4784POPC   C2B62336  24.235  35.904   6.540
 4784POPC   C3B62337  24.083  35.839   6.981
 4784POPC   C4B62338  24.112  35.480   7.276
 4785POPC   NC362339  26.867  27.307   5.324
 4785POPC   PO462340  27.216  27.957   5.372
 4785POPC   GL162341  26.918  27.757   5.670
 4785POPC   GL262342  26.588  27.880   5.778
 4785POPC   C1A62343  27.000  27.787   6.131
 4785POPC   D2A62344  26.815  27.759   6.547
 4785POPC   C3A62345  27.068  27.660   6.903
 4785POPC   C4A62346  27.048  27.447   7.318
 4785POPC   C1B62347  26.643  27.446   5.990
 4785POPC   C2B62348  26.592  27.310   6.422
 4785POPC   C3B62349  26.606  27.356   6.885
 4785POPC   C4B62350  26.585  27.705   7.185
 4786POPC   NC362351  18.887  18.406   5.418
 4786POPC   PO462352  19.596  18.673   5.407
 4786POPC   GL162353  19.250  18.604   5.755
 4786POPC   GL262354  19.166  18.270   5.832
 4786POPC   C1A62355  19.052  18.567   6.225
 4786POPC   D2A62356  19.100  18.286   6.592
 4786POPC   C3A62357  18.976  18.467   6.990
 4786POPC   C4A62358  18.926  18.612   7.443
 4786POPC   C1B62359  19.403  18.120   6.175
 4786POPC   C2B62360  19.431  17.865   6.561
 4786POPC   C3B62361  19.213  17.918   6.944
 4786POPC   C4B62362  19.175  18.136   7.327
 4787POPC   NC362363  30.500  23.719   5.281
 4787POPC   PO462364  29.849  23.905   5.174
 4787POPC   GL162365  29.960  23.784   5.633
 4787POPC   GL262366  29.932  24.073   5.846
 4787POPC   C1A62367  29.985  23.585   6.094
 4787POPC   D2A62368  30.055  23.515   6.581
 4787POPC   C3A62369  29.715  23.495   6.910
 4787POPC   C4A62370  29.589  23.311   7.310
 4787POPC   C1B62371  30.084  24.066   6.279
 4787POPC   C2B62372  30.268  23.964   6.695
 4787POPC   C3B62373  30.057  23.964   7.103
 4787POPC   C4B62374  30.183  23.916   7.523
 4788POPC   NC362375   3.903   2.650   5.343
 4788POPC   PO462376   4.471   3.027   5.217
 4788POPC   GL162377   4.418   2.795   5.616
 4788POPC   GL262378   4.340   3.086   5.796
 4788POPC   C1A62379   4.425   2.658   6.065
 4788POPC   D2A62380   4.267   2.418   6.421
 4788POPC   C3A62381   4.340   2.400   6.888
 4788POPC   C4A62382   4.110   2.563   7.258
 4788POPC   C1B62383   4.066   3.172   6.163
 4788POPC   C2B62384   4.068   3.235   6.642
 4788POPC   C3B62385   4.264   2.973   7.003
 4788POPC   C4B62386   4.423   3.023   7.460
 4789POPC   NC362387  20.091  17.098   5.121
 4789POPC   PO462388  19.871  17.712   5.411
 4789POPC   GL162389  19.900  17.489   5.769
 4789POPC   GL262390  19.769  17.152   5.706
 4789POPC   C1A62391  20.033  17.566   6.188
 4789POPC   D2A62392  19.953  17.795   6.580
 4789POPC   C3A62393  20.104  17.701   6.979
 4789POPC   C4A62394  19.861  17.627   7.344
 4789POPC   C1B62395  19.573  17.279   6.126
 4789POPC   C2B62396  19.771  17.271   6.535
 4789POPC   C3B62397  19.738  17.312   6.961
 4789POPC   C4B62398  19.599  17.187   7.396
 4790POPC   NC362399   2.419  25.530   5.252
 4790POPC   PO462400   3.014  25.198   5.288
 4790POPC   GL162401   2.957  25.265   5.733
 4790POPC   GL262402   2.619  25.341   5.737
 4790POPC   C1A62403   2.945  25.099   6.178
 4790POPC   D2A62404   3.002  24.873   6.590
 4790POPC   C3A62405   2.998  25.117   6.955
 4790POPC   C4A62406   2.950  25.080   7.395
 4790POPC   C1B62407   2.776  25.568   6.134
 4790POPC   C2B62408   2.738  25.373   6.564
 4790POPC   C3B62409   2.554  25.353   6.990
 4790POPC   C4B62410   2.852  25.601   7.178
 4791POPC   NC362411  33.051   6.916   5.495
 4791POPC   PO462412  32.832   6.318   5.227
 4791POPC   GL162413  32.959   6.427   5.799
 4791POPC   GL262414  33.113   6.695   5.972
 4791POPC   C1A62415  32.730   6.415   6.237
 4791POPC   D2A62416  32.780   6.267   6.694
 4791POPC   C3A62417  32.895   6.596   6.961
 4791POPC   C4A62418  32.819   6.791   7.341
 4791POPC   C1B62419  33.213   6.283   6.212
 4791POPC   C2B62420  33.403   6.188   6.596
 4791POPC   C3B62421  33.244   6.228   7.028
 4791POPC   C4B62422  33.323   6.631   7.276
 4792POPC   NC362423   8.102  11.912   5.370
 4792POPC   PO462424   8.012  12.549   5.355
 4792POPC   GL162425   8.153  12.260   5.754
 4792POPC   GL262426   8.331  11.926   5.838
 4792POPC   C1A62427   8.005  12.060   6.179
 4792POPC   D2A62428   7.868  12.206   6.575
 4792POPC   C3A62429   8.051  12.014   6.930
 4792POPC   C4A62430   8.088  12.134   7.340
 4792POPC   C1B62431   8.454  11.735   6.263
 4792POPC   C2B62432   8.415  11.702   6.755
 4792POPC   C3B62433   8.505  11.901   7.190
 4792POPC   C4B62434   8.435  11.894   7.668
 4793POPC   NC362435  19.355  30.697   5.273
 4793POPC   PO462436  18.838  30.533   5.718
 4793POPC   GL162437  19.225  30.725   5.827
 4793POPC   GL262438  19.265  31.079   5.746
 4793POPC   C1A62439  19.323  30.582   6.250
 4793POPC   D2A62440  19.308  30.725   6.691
 4793POPC   C3A62441  19.097  30.506   7.059
 4793POPC   C4A62442  18.965  30.223   7.420
 4793POPC   C1B62443  19.223  31.097   6.222
 4793POPC   C2B62444  19.162  31.210   6.685
 4793POPC   C3B62445  19.177  31.027   7.093
 4793POPC   C4B62446  19.476  30.922   7.361
 4794POPC   NC362447   8.524  32.513   5.464
 4794POPC   PO462448   8.466  31.877   5.482
 4794POPC   GL162449   8.109  32.080   5.710
 4794POPC   GL262450   7.814  31.879   5.715
 4794POPC   C1A62451   8.045  32.220   6.133
 4794POPC   D2A62452   8.370  32.141   6.471
 4794POPC   C3A62453   8.399  32.389   6.863
 4794POPC   C4A62454   8.459  32.375   7.310
 4794POPC   C1B62455   7.637  31.901   6.107
 4794POPC   C2B62456   7.737  32.010   6.514
 4794POPC   C3B62457   8.034  31.963   6.826
 4794POPC   C4B62458   8.013  32.173   7.200
 4795POPC   NC362459  10.179   8.966   5.519
 4795POPC   PO462460  10.633   8.512   5.363
 4795POPC   GL162461  10.589   8.806   5.763
 4795POPC   GL262462  10.278   8.785   5.993
 4795POPC   C1A62463  10.785   9.018   6.145
 4795POPC   D2A62464  10.717   9.146   6.588
 4795POPC   C3A62465  10.687   8.840   6.916
 4795POPC   C4A62466  10.334   8.658   7.156
 4795POPC   C1B62467  10.310   9.221   6.179
 4795POPC   C2B62468  10.291   9.455   6.593
 4795POPC   C3B62469  10.346   9.216   6.982
 4795POPC   C4B62470  10.755   9.289   7.183
 4796POPC   NC362471  43.447  33.891   5.500
 4796POPC   PO462472  42.930  33.359   5.465
 4796POPC   GL162473  42.996  33.743   5.759
 4796POPC   GL262474  43.310  33.837   5.977
 4796POPC   C1A62475  42.880  33.750   6.195
 4796POPC   D2A62476  43.043  33.463   6.531
 4796POPC   C3A62477  42.839  33.457   6.955
 4796POPC   C4A62478  42.938  33.797   7.246
 4796POPC   C1B62479  43.207  34.129   6.320
 4796POPC   C2B62480  42.935  34.129   6.676
 4796POPC   C3B62481  43.111  34.254   7.046
 4796POPC   C4B62482  43.499  34.041   7.160
 4797POPC   NC362483  36.446  25.990   5.498
 4797POPC   PO462484  37.098  26.239   5.359
 4797POPC   GL162485  36.989  26.034   5.768
 4797POPC   GL262486  36.998  25.682   5.774
 4797POPC   C1A62487  36.822  26.183   6.182
 4797POPC   D2A62488  36.950  26.433   6.537
 4797POPC   C3A62489  36.788  26.301   6.934
 4797POPC   C4A62490  37.094  26.262   7.280
 4797POPC   C1B62491  36.928  25.686   6.227
 4797POPC   C2B62492  37.055  25.909   6.620
 4797POPC   C3B62493  36.952  25.842   7.056
 4797POPC   C4B62494  36.757  25.648   7.405
 4798POPC   NC362495  14.419  20.088   5.370
 4798POPC   PO462496  14.536  19.448   5.306
 4798POPC   GL162497  14.368  19.555   5.769
 4798POPC   GL262498  14.410  19.914   5.857
 4798POPC   C1A62499  14.473  19.621   6.257
 4798POPC   D2A62500  14.635  19.812   6.655
 4798POPC   C3A62501  14.589  19.568   7.012
 4798POPC   C4A62502  14.180  19.572   7.166
 4798POPC   C1B62503  14.211  20.099   6.239
 4798POPC   C2B62504  13.878  20.223   6.544
 4798POPC   C3B62505  13.982  20.247   6.995
 4798POPC   C4B62506  14.373  20.037   7.104
 4799POPC   NC362507  41.440  44.058   5.512
 4799POPC   PO462508  41.009  43.470   5.420
 4799POPC   GL162509  41.187  43.667   5.869
 4799POPC   GL262510  41.561  43.829   5.940
 4799POPC   C1A62511  41.310  43.670   6.347
 4799POPC   D2A62512  41.673  43.631   6.657
 4799POPC   C3A62513  41.627  43.846   7.067
 4799POPC   C4A62514  41.390  43.937   7.429
 4799POPC   C1B62515  41.465  44.149   6.275
 4799POPC   C2B62516  41.239  44.134   6.669
 4799POPC   C3B62517  41.379  44.308   7.055
 4799POPC   C4B62518  41.741  44.293   7.350
 4800POPC   NC362519   9.119  38.859   5.353
 4800POPC   PO462520   8.833  38.263   5.579
 4800POPC   GL162521   9.247  38.372   5.807
 4800POPC   GL262522   9.313  38.731   5.835
 4800POPC   C1A62523   9.294  38.190   6.244
 4800POPC   D2A62524   8.991  37.944   6.529
 4800POPC   C3A62525   8.960  38.092   6.991
 4800POPC   C4A62526   9.177  38.457   7.237
 4800POPC   C1B62527   8.966  38.597   6.157
 4800POPC   C2B62528   8.971  38.449   6.585
 4800POPC   C3B62529   8.758  38.551   6.950
 4800POPC   C4B62530   8.841  38.864   7.232
 4801POPC   NC362531   3.733   5.963   5.420
 4801POPC   PO462532   3.099   5.759   5.575
 4801POPC   GL162533   3.443   5.895   5.836
 4801POPC   GL262534   3.689   5.640   5.821
 4801POPC   C1A62535   3.731   6.034   6.189
 4801POPC   D2A62536   3.540   5.999   6.594
 4801POPC   C3A62537   3.516   6.188   7.001
 4801POPC   C4A62538   3.396   5.972   7.352
 4801POPC   C1B62539   3.525   5.560   6.255
 4801POPC   C2B62540   3.438   5.510   6.705
 4801POPC   C3B62541   3.290   5.524   7.132
 4801POPC   C4B62542   3.444   5.501   7.572
 4802POPC   NC362543  28.327  22.858   5.501
 4802POPC   PO462544  28.822  23.188   5.593
 4802POPC   GL162545  28.648  22.981   5.882
 4802POPC   GL262546  28.726  22.652   5.768
 4802POPC   C1A62547  28.337  22.966   6.190
 4802POPC   D2A62548  28.298  23.209   6.550
 4802POPC   C3A62549  28.289  23.051   6.958
 4802POPC   C4A62550  28.322  23.352   7.269
 4802POPC   C1B62551  28.724  22.610   6.225
 4802POPC   C2B62552  28.479  22.648   6.606
 4802POPC   C3B62553  28.591  22.656   7.033
 4802POPC   C4B62554  28.590  22.923   7.383
 4803POPC   NC362555  16.888   9.627   5.461
 4803POPC   PO462556  16.403  10.012   5.569
 4803POPC   GL162557  16.542   9.687   5.842
 4803POPC   GL262558  16.821   9.917   5.900
 4803POPC   C1A62559  16.742   9.529   6.227
 4803POPC   D2A62560  16.957   9.326   6.568
 4803POPC   C3A62561  16.841   9.591   6.923
 4803POPC   C4A62562  16.996   9.862   7.266
 4803POPC   C1B62563  16.557  10.010   6.275
 4803POPC   C2B62564  16.619  10.024   6.722
 4803POPC   C3B62565  16.487   9.938   7.140
 4803POPC   C4B62566  16.432   9.925   7.607
 4804POPC   NC362567   5.392   3.482   5.547
 4804POPC   PO462568   4.802   3.274   5.651
 4804POPC   GL162569   4.971   3.494   5.979
 4804POPC   GL262570   4.927   3.827   5.842
 4804POPC   C1A62571   5.304   3.744   6.226
 4804POPC   D2A62572   5.556   3.689   6.620
 4804POPC   C3A62573   5.279   3.511   6.928
 4804POPC   C4A62574   5.106   3.638   7.300
 4804POPC   C1B62575   4.717   3.861   6.221
 4804POPC   C2B62576   4.900   3.690   6.552
 4804POPC   C3B62577   4.826   3.810   6.917
 4804POPC   C4B62578   4.598   3.635   7.238
 4805POPC   NC362579  19.569   9.417   5.561
 4805POPC   PO462580  19.735   8.842   5.329
 4805POPC   GL162581  19.642   8.875   5.756
 4805POPC   GL262582  19.386   8.639   5.774
 4805POPC   C1A62583  19.773   9.030   6.196
 4805POPC   D2A62584  19.983   8.942   6.620
 4805POPC   C3A62585  19.979   9.090   7.067
 4805POPC   C4A62586  20.326   9.118   7.391
 4805POPC   C1B62587  19.340   8.758   6.197
 4805POPC   C2B62588  19.431   9.030   6.577
 4805POPC   C3B62589  19.423   8.998   7.029
 4805POPC   C4B62590  19.671   8.843   7.381
 4806POPC   NC362591  31.159  33.016   5.517
 4806POPC   PO462592  30.533  32.713   5.477
 4806POPC   GL162593  30.705  33.050   5.784
 4806POPC   GL262594  30.407  33.289   5.799
 4806POPC   C1A62595  30.931  32.972   6.206
 4806POPC   D2A62596  30.767  32.807   6.606
 4806POPC   C3A62597  30.988  32.790   7.007
 4806POPC   C4A62598  30.763  32.872   7.380
 4806POPC   C1B62599  30.417  33.095   6.221
 4806POPC   C2B62600  30.203  32.931   6.572
 4806POPC   C3B62601  30.271  33.024   6.987
 4806POPC   C4B62602  30.174  33.443   7.096
 4807POPC   NC362603   8.311  28.748   5.472
 4807POPC   PO462604   8.366  29.399   5.264
 4807POPC   GL162605   8.105  29.402   5.680
 4807POPC   GL262606   8.022  29.048   5.811
 4807POPC   C1A62607   7.935  29.465   6.125
 4807POPC   D2A62608   7.942  29.590   6.580
 4807POPC   C3A62609   8.065  29.266   6.887
 4807POPC   C4A62610   8.266  29.246   7.259
 4807POPC   C1B62611   8.035  28.853   6.255
 4807POPC   C2B62612   8.339  28.789   6.589
 4807POPC   C3B62613   8.309  28.752   7.028
 4807POPC   C4B62614   7.993  28.785   7.326
 4808POPC   NC362615  12.575  26.322   5.300
 4808POPC   PO462616  12.005  25.938   5.222
 4808POPC   GL162617  12.155  26.203   5.591
 4808POPC   GL262618  12.248  25.914   5.781
 4808POPC   C1A62619  12.167  26.335   6.067
 4808POPC   D2A62620  12.010  26.222   6.510
 4808POPC   C3A62621  12.243  26.126   6.924
 4808POPC   C4A62622  12.083  26.142   7.379
 4808POPC   C1B62623  11.892  25.895   6.095
 4808POPC   C2B62624  11.708  25.796   6.511
 4808POPC   C3B62625  11.831  25.806   6.970
 4808POPC   C4B62626  12.064  25.634   7.321
 4809POPC   NC362627  28.893  18.249   5.175
 4809POPC   PO462628  29.427  18.384   5.568
 4809POPC   GL162629  29.286  18.363   5.901
 4809POPC   GL262630  29.061  18.081   5.805
 4809POPC   C1A62631  29.112  18.459   6.270
 4809POPC   D2A62632  28.975  18.202   6.595
 4809POPC   C3A62633  29.118  18.332   6.972
 4809POPC   C4A62634  28.840  18.270   7.277
 4809POPC   C1B62635  29.251  17.969   6.201
 4809POPC   C2B62636  29.246  17.766   6.570
 4809POPC   C3B62637  29.405  17.812   6.957
 4809POPC   C4B62638  29.306  17.993   7.320
 4810POPC   NC362639  35.900  22.477   5.113
 4810POPC   PO462640  36.206  21.900   5.338
 4810POPC   GL162641  36.137  21.905   5.775
 4810POPC   GL262642  35.841  22.057   5.949
 4810POPC   C1A62643  36.244  21.805   6.184
 4810POPC   D2A62644  36.434  21.868   6.581
 4810POPC   C3A62645  36.202  22.022   6.940
 4810POPC   C4A62646  36.455  22.253   7.208
 4810POPC   C1B62647  35.874  22.398   6.269
 4810POPC   C2B62648  35.763  22.350   6.703
 4810POPC   C3B62649  35.972  22.477   7.104
 4810POPC   C4B62650  35.898  22.580   7.568
 4811POPC   NC362651  26.419  42.719   5.357
 4811POPC   PO462652  26.033  43.333   5.423
 4811POPC   GL162653  26.040  43.034   5.755
 4811POPC   GL262654  26.368  42.927   5.809
 4811POPC   C1A62655  25.868  43.057   6.190
 4811POPC   D2A62656  25.636  42.990   6.607
 4811POPC   C3A62657  25.766  43.205   7.013
 4811POPC   C4A62658  25.789  43.219   7.482
 4811POPC   C1B62659  26.427  43.076   6.220
 4811POPC   C2B62660  26.199  43.177   6.601
 4811POPC   C3B62661  26.159  42.909   6.951
 4811POPC   C4B62662  26.385  42.836   7.295
 4812POPC   NC362663   1.282  16.406   5.511
 4812POPC   PO462664   1.007  17.032   5.569
 4812POPC   GL162665   1.106  16.753   5.865
 4812POPC   GL262666   0.868  16.480   5.801
 4812POPC   C1A62667   1.385  16.589   6.177
 4812POPC   D2A62668   1.397  16.397   6.573
 4812POPC   C3A62669   1.448  16.570   6.971
 4812POPC   C4A62670   1.369  16.773   7.353
 4812POPC   C1B62671   0.868  16.534   6.251
 4812POPC   C2B62672   0.901  16.259   6.552
 4812POPC   C3B62673   1.074  16.206   6.911
 4812POPC   C4B62674   1.055  16.386   7.273
 4813POPC   NC362675  19.123  15.431   5.079
 4813POPC   PO462676  19.245  16.140   5.285
 4813POPC   GL162677  18.990  16.056   5.692
 4813POPC   GL262678  18.900  15.706   5.874
 4813POPC   C1A62679  19.068  16.084   6.134
 4813POPC   D2A62680  18.845  15.911   6.454
 4813POPC   C3A62681  18.970  16.035   6.824
 4813POPC   C4A62682  19.274  15.961   7.108
 4813POPC   C1B62683  19.221  15.593   6.211
 4813POPC   C2B62684  19.263  15.652   6.660
 4813POPC   C3B62685  18.997  15.551   7.032
 4813POPC   C4B62686  19.252  15.281   7.287
 4814POPC   NC362687  23.329  29.729   5.410
 4814POPC   PO462688  23.050  30.339   5.259
 4814POPC   GL162689  23.192  30.208   5.694
 4814POPC   GL262690  23.162  29.832   5.867
 4814POPC   C1A62691  23.037  30.233   6.149
 4814POPC   D2A62692  22.827  30.178   6.552
 4814POPC   C3A62693  23.014  30.119   6.983
 4814POPC   C4A62694  22.975  29.936   7.441
 4814POPC   C1B62695  22.920  29.639   6.227
 4814POPC   C2B62696  22.920  29.658   6.688
 4814POPC   C3B62697  23.193  29.656   7.065
 4814POPC   C4B62698  23.292  29.487   7.480
 4815POPC   NC362699   0.765  25.315   5.312
 4815POPC   PO462700   0.095  25.306   5.194
 4815POPC   GL162701   0.320  25.418   5.595
 4815POPC   GL262702   0.619  25.294   5.791
 4815POPC   C1A62703   0.189  25.441   6.037
 4815POPC   D2A62704   0.345  25.374   6.455
 4815POPC   C3A62705   0.240  25.192   6.848
 4815POPC   C4A62706   0.320  25.369   7.221
 4815POPC   C1B62707   0.868  25.529   6.107
 4815POPC   C2B62708   0.764  25.636   6.534
 4815POPC   C3B62709   0.715  25.377   6.886
 4815POPC   C4B62710   0.784  25.573   7.268
 4816POPC   NC362711  23.149   3.685   5.467
 4816POPC   PO462712  22.545   3.411   5.680
 4816POPC   GL162713  22.659   3.707   5.975
 4816POPC   GL262714  23.000   3.585   5.947
 4816POPC   C1A62715  22.846   3.732   6.409
 4816POPC   D2A62716  23.244   3.798   6.639
 4816POPC   C3A62717  23.120   3.614   7.031
 4816POPC   C4A62718  22.660   3.539   7.036
 4816POPC   C1B62719  23.167   3.358   6.325
 4816POPC   C2B62720  22.904   3.221   6.713
 4816POPC   C3B62721  22.588   3.042   7.034
 4816POPC   C4B62722  22.507   3.211   7.479
 4817POPC   NC362723  34.793  19.235   5.459
 4817POPC   PO462724  34.285  18.824   5.527
 4817POPC   GL162725  34.413  19.029   5.896
 4817POPC   GL262726  34.430  19.394   5.826
 4817POPC   C1A62727  34.320  18.856   6.304
 4817POPC   D2A62728  34.331  18.686   6.729
 4817POPC   C3A62729  34.769  18.659   6.861
 4817POPC   C4A62730  34.992  18.574   7.247
 4817POPC   C1B62731  34.721  19.403   6.179
 4817POPC   C2B62732  34.632  19.459   6.644
 4817POPC   C3B62733  34.544  19.110   6.963
 4817POPC   C4B62734  34.525  18.791   7.304
 4818POPC   NC362735  20.181  40.400   4.985
 4818POPC   PO462736  19.926  40.726   5.532
 4818POPC   GL162737  19.923  40.823   5.935
 4818POPC   GL262738  19.629  40.952   5.953
 4818POPC   C1A62739  20.058  40.837   6.346
 4818POPC   D2A62740  19.825  40.931   6.742
 4818POPC   C3A62741  20.054  40.782   7.085
 4818POPC   C4A62742  20.194  40.813   7.519
 4818POPC   C1B62743  19.544  40.667   6.299
 4818POPC   C2B62744  19.437  40.583   6.729
 4818POPC   C3B62745  19.498  40.683   7.175
 4818POPC   C4B62746  19.284  40.797   7.603
 4819POPC   NC362747  12.380  27.819   5.154
 4819POPC   PO462748  12.953  27.542   5.377
 4819POPC   GL162749  12.846  27.462   5.802
 4819POPC   GL262750  13.106  27.202   5.841
 4819POPC   C1A62751  12.734  27.552   6.247
 4819POPC   D2A62752  12.743  27.228   6.568
 4819POPC   C3A62753  12.498  27.202   6.949
 4819POPC   C4A62754  12.383  27.522   7.245
 4819POPC   C1B62755  13.231  27.421   6.231
 4819POPC   C2B62756  13.138  27.560   6.662
 4819POPC   C3B62757  12.903  27.509   7.058
 4819POPC   C4B62758  12.806  27.812   7.397
 4820POPC   NC362759   1.489  38.289   5.506
 4820POPC   PO462760   0.851  38.228   5.389
 4820POPC   GL162761   1.026  38.404   5.769
 4820POPC   GL262762   1.349  38.483   5.935
 4820POPC   C1A62763   0.906  38.474   6.192
 4820POPC   D2A62764   1.059  38.354   6.586
 4820POPC   C3A62765   1.084  38.663   6.915
 4820POPC   C4A62766   1.436  38.861   7.165
 4820POPC   C1B62767   1.628  38.467   6.253
 4820POPC   C2B62768   1.567  38.264   6.609
 4820POPC   C3B62769   1.347  38.227   7.008
 4820POPC   C4B62770   1.611  38.400   7.313
 4821POPC   NC362771  21.336  21.798   5.079
 4821POPC   PO462772  21.507  21.168   5.211
 4821POPC   GL162773  21.371  21.166   5.644
 4821POPC   GL262774  21.453  21.470   5.779
 4821POPC   C1A62775  21.241  21.084   6.090
 4821POPC   D2A62776  20.953  21.065   6.453
 4821POPC   C3A62777  20.993  21.255   6.864
 4821POPC   C4A62778  21.124  21.100   7.267
 4821POPC   C1B62779  21.391  21.568   6.226
 4821POPC   C2B62780  21.583  21.256   6.508
 4821POPC   C3B62781  21.495  21.133   6.916
 4821POPC   C4B62782  21.415  21.506   7.175
 4822POPC   NC362783  11.203  39.871   5.332
 4822POPC   PO462784  11.595  40.437   5.530
 4822POPC   GL162785  11.413  40.023   5.795
 4822POPC   GL262786  11.025  39.925   5.808
 4822POPC   C1A62787  11.480  39.779   6.215
 4822POPC   D2A62788  11.334  39.903   6.650
 4822POPC   C3A62789  11.548  39.959   7.052
 4822POPC   C4A62790  11.418  39.888   7.473
 4822POPC   C1B62791  10.983  39.919   6.254
 4822POPC   C2B62792  10.849  40.042   6.664
 4822POPC   C3B62793  11.017  40.027   7.094
 4822POPC   C4B62794  10.950  40.004   7.569
 4823POPC   NC362795  43.848  29.417   5.657
 4823POPC   PO462796  43.635  29.972   5.285
 4823POPC   GL162797  43.756  30.174   5.713
 4823POPC   GL262798  43.856  29.884   5.908
 4823POPC   C1A62799  43.793  30.361   6.146
 4823POPC   D2A62800  43.648  30.224   6.582
 4823POPC   C3A62801  43.876  30.248   6.976
 4823POPC   C4A62802  44.035  30.228   7.422
 4823POPC   C1B62803  43.964  29.864   6.372
 4823POPC   C2B62804  43.940  29.765   6.837
 4823POPC   C3B62805  43.812  29.785   7.281
 4823POPC   C4B62806  43.798  29.579   7.713
 4824POPC   NC362807   3.944   8.446   5.376
 4824POPC   PO462808   3.539   7.969   5.442
 4824POPC   GL162809   3.467   8.161   5.838
 4824POPC   GL262810   3.227   8.443   5.762
 4824POPC   C1A62811   3.715   8.153   6.240
 4824POPC   D2A62812   3.713   7.914   6.648
 4824POPC   C3A62813   3.804   8.172   7.010
 4824POPC   C4A62814   3.624   8.153   7.451
 4824POPC   C1B62815   3.391   8.560   6.162
 4824POPC   C2B62816   3.250   8.733   6.547
 4824POPC   C3B62817   3.080   8.564   6.871
 4824POPC   C4B62818   3.351   8.364   7.101
 4825POPC   NC362819  38.518  26.366   5.309
 4825POPC   PO462820  38.590  25.674   5.223
 4825POPC   GL162821  38.638  25.940   5.637
 4825POPC   GL262822  38.527  26.288   5.811
 4825POPC   C1A62823  38.598  25.888   6.112
 4825POPC   D2A62824  38.518  26.103   6.498
 4825POPC   C3A62825  38.620  25.823   6.808
 4825POPC   C4A62826  38.398  25.659   7.155
 4825POPC   C1B62827  38.158  26.153   6.104
 4825POPC   C2B62828  37.981  26.112   6.556
 4825POPC   C3B62829  38.211  26.101   6.965
 4825POPC   C4B62830  38.361  26.464   7.198
 4826POPC   NC362831   0.178  27.696   5.088
 4826POPC   PO462832   0.755  27.498   5.359
 4826POPC   GL162833   0.621  27.721   5.705
 4826POPC   GL262834   0.813  28.040   5.680
 4826POPC   C1A62835   0.372  27.557   6.084
 4826POPC   D2A62836   0.280  27.503   6.534
 4826POPC   C3A62837   0.581  27.352   6.840
 4826POPC   C4A62838   0.429  27.460   7.260
 4826POPC   C1B62839   0.908  27.975   6.106
 4826POPC   C2B62840   0.760  27.717   6.461
 4826POPC   C3B62841   0.602  27.856   6.890
 4826POPC   C4B62842   0.480  27.988   7.315
 4827POPC   NC362843   2.957  14.725   5.477
 4827POPC   PO462844   2.737  14.165   5.397
 4827POPC   GL162845   2.999  14.186   5.800
 4827POPC   GL262846   3.039  14.542   5.933
 4827POPC   C1A62847   2.827  14.055   6.231
 4827POPC   D2A62848   2.461  14.249   6.512
 4827POPC   C3A62849   2.625  14.336   6.930
 4827POPC   C4A62850   3.010  14.446   7.144
 4827POPC   C1B62851   2.842  14.566   6.345
 4827POPC   C2B62852   2.830  14.842   6.700
 4827POPC   C3B62853   2.683  14.825   7.095
 4827POPC   C4B62854   2.590  14.560   7.416
 4828POPC   NC362855   5.597   9.936   5.264
 4828POPC   PO462856   4.991   9.834   5.299
 4828POPC   GL162857   5.220   9.858   5.692
 4828POPC   GL262858   5.481  10.152   5.714
 4828POPC   C1A62859   5.188   9.619   6.099
 4828POPC   D2A62860   5.380   9.491   6.505
 4828POPC   C3A62861   5.176   9.582   6.886
 4828POPC   C4A62862   5.289   9.637   7.302
 4828POPC   C1B62863   5.290  10.114   6.135
 4828POPC   C2B62864   5.138   9.970   6.510
 4828POPC   C3B62865   5.286  10.082   6.891
 4828POPC   C4B62866   5.160  10.159   7.293
 4829POPC   NC362867  42.055  34.487   5.356
 4829POPC   PO462868  42.533  34.857   5.362
 4829POPC   GL162869  42.241  34.716   5.787
 4829POPC   GL262870  42.190  34.364   5.892
 4829POPC   C1A62871  42.205  34.615   6.305
 4829POPC   D2A62872  42.041  34.799   6.665
 4829POPC   C3A62873  42.160  34.526   6.998
 4829POPC   C4A62874  42.056  34.111   7.132
 4829POPC   C1B62875  42.470  34.171   6.210
 4829POPC   C2B62876  42.422  34.202   6.664
 4829POPC   C3B62877  42.583  34.219   7.083
 4829POPC   C4B62878  42.342  34.365   7.466
 4830POPC   NC362879  25.401   3.119   5.263
 4830POPC   PO462880  25.554   2.480   5.349
 4830POPC   GL162881  25.396   2.773   5.678
 4830POPC   GL262882  25.065   2.906   5.589
 4830POPC   C1A62883  25.390   2.785   6.139
 4830POPC   D2A62884  25.174   2.672   6.514
 4830POPC   C3A62885  25.379   2.636   6.894
 4830POPC   C4A62886  25.247   2.708   7.275
 4830POPC   C1B62887  25.052   3.127   5.984
 4830POPC   C2B62888  24.997   3.144   6.444
 4830POPC   C3B62889  25.024   3.025   6.889
 4830POPC   C4B62890  25.067   3.206   7.305
 4831POPC   NC362891   3.401  25.027   5.070
 4831POPC   PO462892   3.623  24.447   5.543
 4831POPC   GL162893   3.421  24.531   5.867
 4831POPC   GL262894   3.245  24.840   5.755
 4831POPC   C1A62895   3.467  24.344   6.292
 4831POPC   D2A62896   3.233  24.385   6.652
 4831POPC   C3A62897   3.440  24.473   7.038
 4831POPC   C4A62898   3.752  24.229   7.251
 4831POPC   C1B62899   3.376  24.859   6.218
 4831POPC   C2B62900   3.539  24.814   6.607
 4831POPC   C3B62901   3.488  25.017   6.973
 4831POPC   C4B62902   3.413  24.875   7.377
 4832POPC   NC362903  29.084  35.735   5.653
 4832POPC   PO462904  28.860  35.114   5.579
 4832POPC   GL162905  28.967  35.312   5.923
 4832POPC   GL262906  29.286  35.307   5.865
 4832POPC   C1A62907  28.915  35.504   6.329
 4832POPC   D2A62908  28.745  35.557   6.738
 4832POPC   C3A62909  29.003  35.480   7.120
 4832POPC   C4A62910  28.875  35.355   7.537
 4832POPC   C1B62911  29.411  35.366   6.275
 4832POPC   C2B62912  29.260  35.243   6.712
 4832POPC   C3B62913  29.462  35.225   7.138
 4832POPC   C4B62914  29.371  35.440   7.540
 4833POPC   NC362915  20.467  32.333   5.480
 4833POPC   PO462916  20.336  31.661   5.456
 4833POPC   GL162917  20.365  31.958   5.821
 4833POPC   GL262918  20.341  32.368   5.960
 4833POPC   C1A62919  20.669  32.004   6.125
 4833POPC   D2A62920  20.728  32.196   6.461
 4833POPC   C3A62921  20.796  31.996   6.847
 4833POPC   C4A62922  21.041  32.196   7.155
 4833POPC   C1B62923  20.349  32.541   6.409
 4833POPC   C2B62924  20.400  32.332   6.830
 4833POPC   C3B62925  20.416  32.354   7.283
 4833POPC   C4B62926  20.349  32.400   7.789
 4834POPC   NC362927  35.779  10.848   5.408
 4834POPC   PO462928  36.130  11.451   5.288
 4834POPC   GL162929  35.893  11.461   5.667
 4834POPC   GL262930  36.206  11.379   5.871
 4834POPC   C1A62931  35.777  11.384   6.106
 4834POPC   D2A62932  36.107  11.320   6.440
 4834POPC   C3A62933  35.940  11.321   6.865
 4834POPC   C4A62934  35.964  11.254   7.298
 4834POPC   C1B62935  36.467  11.603   6.176
 4834POPC   C2B62936  36.347  11.775   6.565
 4834POPC   C3B62937  36.359  11.620   6.972
 4834POPC   C4B62938  36.418  11.495   7.382
 4835POPC   NC362939  15.176  39.766   5.393
 4835POPC   PO462940  15.039  40.407   5.447
 4835POPC   GL162941  15.231  40.088   5.796
 4835POPC   GL262942  15.368  39.727   5.858
 4835POPC   C1A62943  15.405  40.054   6.244
 4835POPC   D2A62944  15.559  39.871   6.632
 4835POPC   C3A62945  15.549  40.033   7.050
 4835POPC   C4A62946  15.194  40.135   7.305
 4835POPC   C1B62947  15.019  39.712   6.173
 4835POPC   C2B62948  15.027  39.799   6.627
 4835POPC   C3B62949  15.184  39.685   7.047
 4835POPC   C4B62950  15.304  39.563   7.468
 4836POPC   NC362951   7.847  20.199   5.414
 4836POPC   PO462952   8.281  20.579   5.050
 4836POPC   GL162953   8.239  20.699   5.562
 4836POPC   GL262954   8.548  20.693   5.746
 4836POPC   C1A62955   8.119  20.700   6.064
 4836POPC   D2A62956   7.832  20.540   6.441
 4836POPC   C3A62957   7.963  20.548   6.891
 4836POPC   C4A62958   7.932  20.737   7.341
 4836POPC   C1B62959   8.605  20.587   6.202
 4836POPC   C2B62960   8.441  20.606   6.666
 4836POPC   C3B62961   8.427  20.669   7.129
 4836POPC   C4B62962   8.376  20.470   7.538
 4837POPC   NC362963  11.088  41.813   5.463
 4837POPC   PO462964  11.074  41.179   5.421
 4837POPC   GL162965  11.253  41.253   5.838
 4837POPC   GL262966  11.336  41.615   5.878
 4837POPC   C1A62967  11.169  41.381   6.290
 4837POPC   D2A62968  10.967  41.529   6.678
 4837POPC   C3A62969  11.233  41.504   7.070
 4837POPC   C4A62970  11.621  41.514   7.331
 4837POPC   C1B62971  11.498  41.904   6.213
 4837POPC   C2B62972  11.384  41.980   6.642
 4837POPC   C3B62973  11.520  41.973   7.081
 4837POPC   C4B62974  11.284  41.876   7.467
 4838POPC   NC362975  25.278  34.958   5.471
 4838POPC   PO462976  24.988  34.314   5.385
 4838POPC   GL162977  25.028  34.592   5.736
 4838POPC   GL262978  25.395  34.574   5.815
 4838POPC   C1A62979  25.066  34.803   6.136
 4838POPC   D2A62980  25.264  34.696   6.518
 4838POPC   C3A62981  25.106  34.430   6.800
 4838POPC   C4A62982  25.115  34.640   7.153
 4838POPC   C1B62983  25.682  34.569   6.176
 4838POPC   C2B62984  25.818  34.743   6.564
 4838POPC   C3B62985  25.590  34.688   6.939
 4838POPC   C4B62986  25.576  34.574   7.375
 4839POPC   NC362987  11.142  18.812   5.684
 4839POPC   PO462988  11.478  19.406   5.562
 4839POPC   GL162989  11.294  19.316   5.938
 4839POPC   GL262990  10.942  19.222   5.922
 4839POPC   C1A62991  11.261  19.203   6.353
 4839POPC   D2A62992  11.340  18.981   6.721
 4839POPC   C3A62993  11.326  19.273   7.042
 4839POPC   C4A62994  11.198  19.394   7.427
 4839POPC   C1B62995  10.855  18.883   6.262
 4839POPC   C2B62996  10.878  18.765   6.703
 4839POPC   C3B62997  11.030  18.845   7.135
 4839POPC   C4B62998  11.488  18.808   7.194
 4840POPC   NC362999   8.691   7.572   5.383
 4840POPC   PO463000   9.234   7.226   5.421
 4840POPC   GL163001   9.032   7.271   5.792
 4840POPC   GL263002   8.708   7.166   5.711
 4840POPC   C1A63003   9.165   7.565   6.119
 4840POPC   D2A63004   9.119   7.807   6.470
 4840POPC   C3A63005   9.113   7.549   6.819
 4840POPC   C4A63006   8.915   7.643   7.178
 4840POPC   C1B63007   8.689   7.030   6.124
 4840POPC   C2B63008   8.687   6.880   6.526
 4840POPC   C3B63009   8.753   7.160   6.923
 4840POPC   C4B63010   8.625   7.313   7.397
 4841POPC   NC363011  18.137  13.451   5.408
 4841POPC   PO463012  18.175  12.767   5.522
 4841POPC   GL163013  18.418  13.064   5.831
 4841POPC   GL263014  18.422  13.453   5.877
 4841POPC   C1A63015  18.434  13.151   6.301
 4841POPC   D2A63016  18.248  13.357   6.688
 4841POPC   C3A63017  18.471  13.454   7.102
 4841POPC   C4A63018  18.453  13.657   7.503
 4841POPC   C1B63019  18.503  13.667   6.304
 4841POPC   C2B63020  18.437  13.830   6.714
 4841POPC   C3B63021  18.131  13.828   7.053
 4841POPC   C4B63022  17.721  13.993   7.134
 4842POPC   NC363023  13.058  40.284   5.183
 4842POPC   PO463024  13.022  39.678   5.302
 4842POPC   GL163025  12.898  39.614   5.753
 4842POPC   GL263026  13.155  39.689   5.993
 4842POPC   C1A63027  12.673  39.740   6.162
 4842POPC   D2A63028  12.400  39.799   6.546
 4842POPC   C3A63029  12.587  39.827   6.992
 4842POPC   C4A63030  12.859  40.124   7.260
 4842POPC   C1B63031  13.202  39.816   6.423
 4842POPC   C2B63032  13.099  39.848   6.880
 4842POPC   C3B63033  13.218  39.642   7.262
 4842POPC   C4B63034  13.273  39.641   7.721
 4843POPC   NC363035  30.651   2.419   5.441
 4843POPC   PO463036  31.025   2.958   5.453
 4843POPC   GL163037  30.804   2.794   5.762
 4843POPC   GL263038  31.025   2.483   5.776
 4843POPC   C1A63039  30.603   2.903   6.167
 4843POPC   D2A63040  30.790   3.020   6.554
 4843POPC   C3A63041  30.675   2.841   6.927
 4843POPC   C4A63042  30.729   2.953   7.314
 4843POPC   C1B63043  30.754   2.420   6.108
 4843POPC   C2B63044  30.756   2.523   6.516
 4843POPC   C3B63045  30.941   2.398   6.882
 4843POPC   C4B63046  30.709   2.382   7.249
 4844POPC   NC363047  37.017   8.428   5.370
 4844POPC   PO463048  36.773   7.808   5.315
 4844POPC   GL163049  36.945   8.006   5.676
 4844POPC   GL263050  36.621   8.161   5.689
 4844POPC   C1A63051  36.911   8.206   6.101
 4844POPC   D2A63052  36.974   8.441   6.461
 4844POPC   C3A63053  36.841   8.263   6.861
 4844POPC   C4A63054  37.117   8.176   7.238
 4844POPC   C1B63055  36.437   8.042   6.082
 4844POPC   C2B63056  36.591   7.877   6.462
 4844POPC   C3B63057  36.488   7.818   6.895
 4844POPC   C4B63058  36.644   7.997   7.265
 4845POPC   NC363059  36.475   6.820   5.280
 4845POPC   PO463060  36.014   6.309   5.447
 4845POPC   GL163061  36.122   6.585   5.822
 4845POPC   GL263062  36.503   6.590   5.874
 4845POPC   C1A63063  36.204   6.518   6.292
 4845POPC   D2A63064  36.382   6.367   6.701
 4845POPC   C3A63065  36.049   6.538   6.952
 4845POPC   C4A63066  35.892   6.943   6.915
 4845POPC   C1B63067  36.628   6.770   6.297
 4845POPC   C2B63068  36.371   6.910   6.691
 4845POPC   C3B63069  36.330   6.965   7.184
 4845POPC   C4B63070  36.446   6.789   7.627
 4846POPC   NC363071   1.180  21.963   5.385
 4846POPC   PO463072   0.971  22.542   5.465
 4846POPC   GL163073   1.147  22.301   5.786
 4846POPC   GL263074   1.435  22.477   5.805
 4846POPC   C1A63075   0.980  22.160   6.203
 4846POPC   D2A63076   1.092  22.068   6.641
 4846POPC   C3A63077   0.822  21.978   7.004
 4846POPC   C4A63078   0.861  22.137   7.436
 4846POPC   C1B63079   1.322  22.582   6.185
 4846POPC   C2B63080   1.511  22.765   6.534
 4846POPC   C3B63081   1.372  22.582   6.893
 4846POPC   C4B63082   1.276  22.192   7.119
 4847POPC   NC363083   8.037  33.314   5.114
 4847POPC   PO463084   8.507  32.992   5.464
 4847POPC   GL163085   8.359  32.964   5.846
 4847POPC   GL263086   8.002  33.073   5.824
 4847POPC   C1A63087   8.354  33.199   6.217
 4847POPC   D2A63088   8.216  33.123   6.612
 4847POPC   C3A63089   8.351  32.931   6.961
 4847POPC   C4A63090   8.074  32.677   7.144
 4847POPC   C1B63091   7.818  33.275   6.211
 4847POPC   C2B63092   7.752  33.352   6.667
 4847POPC   C3B63093   8.054  33.365   7.031
 4847POPC   C4B63094   8.385  33.394   7.377
 4848POPC   NC363095  17.732  40.167   5.437
 4848POPC   PO463096  17.326  39.536   5.416
 4848POPC   GL163097  17.598  39.755   5.734
 4848POPC   GL263098  17.347  39.995   5.807
 4848POPC   C1A63099  17.739  39.913   6.186
 4848POPC   D2A63100  17.763  40.103   6.638
 4848POPC   C3A63101  17.813  39.797   7.015
 4848POPC   C4A63102  17.830  39.805   7.528
 4848POPC   C1B63103  17.259  39.701   6.129
 4848POPC   C2B63104  17.362  39.825   6.531
 4848POPC   C3B63105  17.344  40.004   6.926
 4848POPC   C4B63106  17.383  39.763   7.280
 4849POPC   NC363107  28.754  29.399   5.171
 4849POPC   PO463108  29.175  29.023   5.575
 4849POPC   GL163109  29.194  29.100   5.964
 4849POPC   GL263110  28.980  29.380   5.893
 4849POPC   C1A63111  29.107  28.886   6.335
 4849POPC   D2A63112  28.836  28.924   6.690
 4849POPC   C3A63113  29.129  28.872   7.033
 4849POPC   C4A63114  29.418  29.190   7.131
 4849POPC   C1B63115  28.969  29.375   6.337
 4849POPC   C2B63116  29.176  29.435   6.703
 4849POPC   C3B63117  28.953  29.375   7.032
 4849POPC   C4B63118  28.658  29.051   7.152
 4850POPC   NC363119  22.544  29.219   5.058
 4850POPC   PO463120  21.925  29.028   5.361
 4850POPC   GL163121  22.115  29.092   5.785
 4850POPC   GL263122  22.165  28.770   5.850
 4850POPC   C1A63123  22.065  29.053   6.257
 4850POPC   D2A63124  21.879  29.159   6.657
 4850POPC   C3A63125  22.133  29.341   6.983
 4850POPC   C4A63126  22.330  29.358   7.409
 4850POPC   C1B63127  22.467  28.712   6.203
 4850POPC   C2B63128  22.469  28.815   6.629
 4850POPC   C3B63129  22.288  28.828   7.036
 4850POPC   C4B63130  22.594  28.935   7.341
 4851POPC   NC363131   6.884  16.314   5.635
 4851POPC   PO463132   6.685  15.878   5.203
 4851POPC   GL163133   6.694  15.804   5.688
 4851POPC   GL263134   6.491  16.041   5.864
 4851POPC   C1A63135   6.828  15.875   6.174
 4851POPC   D2A63136   6.571  16.067   6.506
 4851POPC   C3A63137   6.677  16.014   6.947
 4851POPC   C4A63138   6.524  16.278   7.283
 4851POPC   C1B63139   6.351  15.692   6.161
 4851POPC   C2B63140   6.415  15.563   6.589
 4851POPC   C3B63141   6.275  15.739   6.994
 4851POPC   C4B63142   6.388  15.794   7.416
 4852POPC   NC363143  17.164   2.103   5.549
 4852POPC   PO463144  17.763   1.730   5.482
 4852POPC   GL163145  17.485   1.795   5.853
 4852POPC   GL263146  17.118   1.728   5.896
 4852POPC   C1A63147  17.443   1.945   6.270
 4852POPC   D2A63148  17.295   1.974   6.693
 4852POPC   C3A63149  17.621   2.076   7.009
 4852POPC   C4A63150  17.638   1.919   7.435
 4852POPC   C1B63151  16.959   2.102   6.185
 4852POPC   C2B63152  17.014   2.407   6.542
 4852POPC   C3B63153  17.154   2.401   6.967
 4852POPC   C4B63154  17.292   2.263   7.352
 4853POPC   NC363155   2.339   9.747   5.270
 4853POPC   PO463156   1.698   9.449   5.206
 4853POPC   GL163157   1.988   9.536   5.613
 4853POPC   GL263158   2.192   9.863   5.745
 4853POPC   C1A63159   1.884   9.621   6.072
 4853POPC   D2A63160   1.804   9.792   6.497
 4853POPC   C3A63161   2.008   9.703   6.892
 4853POPC   C4A63162   1.789   9.689   7.277
 4853POPC   C1B63163   2.115  10.055   6.176
 4853POPC   C2B63164   2.166  10.131   6.614
 4853POPC   C3B63165   2.368  10.091   7.032
 4853POPC   C4B63166   2.273   9.817   7.382
 4854POPC   NC363167  22.722  12.016   5.746
 4854POPC   PO463168  23.111  12.274   5.245
 4854POPC   GL163169  23.102  12.369   5.742
 4854POPC   GL263170  22.845  12.315   6.112
 4854POPC   C1A63171  23.296  12.146   6.074
 4854POPC   D2A63172  23.365  12.331   6.499
 4854POPC   C3A63173  23.210  12.222   6.903
 4854POPC   C4A63174  22.935  12.128   7.261
 4854POPC   C1B63175  22.954  11.982   6.419
 4854POPC   C2B63176  22.819  11.869   6.819
 4854POPC   C3B63177  22.727  11.650   7.189
 4854POPC   C4B63178  22.551  11.713   7.611
 4855POPC   NC363179  17.524   3.640   5.110
 4855POPC   PO463180  17.903   3.335   5.598
 4855POPC   GL163181  17.669   3.597   5.818
 4855POPC   GL263182  17.354   3.648   5.682
 4855POPC   C1A63183  17.735   3.745   6.222
 4855POPC   D2A63184  17.600   3.818   6.625
 4855POPC   C3A63185  17.835   3.720   6.964
 4855POPC   C4A63186  17.702   3.861   7.342
 4855POPC   C1B63187  17.225   3.628   6.134
 4855POPC   C2B63188  17.245   3.457   6.577
 4855POPC   C3B63189  17.325   3.553   7.015
 4855POPC   C4B63190  17.174   3.783   7.366
 4856POPC   NC363191  13.174  24.784   5.278
 4856POPC   PO463192  12.784  24.261   5.489
 4856POPC   GL163193  12.889  24.437   5.830
 4856POPC   GL263194  13.184  24.252   5.886
 4856POPC   C1A63195  12.718  24.478   6.234
 4856POPC   D2A63196  12.438  24.203   6.403
 4856POPC   C3A63197  12.380  24.259   6.817
 4856POPC   C4A63198  12.556  24.532   7.095
 4856POPC   C1B63199  13.195  24.625   6.186
 4856POPC   C2B63200  12.975  24.849   6.574
 4856POPC   C3B63201  13.008  24.786   7.025
 4856POPC   C4B63202  13.004  24.387   7.281
 4857POPC   NC363203  18.616  12.833   5.405
 4857POPC   PO463204  19.224  12.569   5.259
 4857POPC   GL163205  19.061  12.761   5.663
 4857POPC   GL263206  18.779  12.580   5.825
 4857POPC   C1A63207  18.891  13.004   6.054
 4857POPC   D2A63208  18.780  12.789   6.451
 4857POPC   C3A63209  19.077  12.869   6.764
 4857POPC   C4A63210  19.041  13.081   7.127
 4857POPC   C1B63211  18.805  12.329   6.212
 4857POPC   C2B63212  18.661  12.308   6.638
 4857POPC   C3B63213  18.773  12.514   7.029
 4857POPC   C4B63214  18.703  12.787   7.392
 4858POPC   NC363215  38.727  13.672   5.408
 4858POPC   PO463216  38.041  13.962   5.488
 4858POPC   GL163217  38.302  13.593   5.696
 4858POPC   GL263218  38.611  13.635   5.906
 4858POPC   C1A63219  38.233  13.342   6.098
 4858POPC   D2A63220  38.101  13.413   6.549
 4858POPC   C3A63221  38.386  13.327   6.921
 4858POPC   C4A63222  38.606  13.630   7.207
 4858POPC   C1B63223  38.256  13.873   6.117
 4858POPC   C2B63224  38.096  13.943   6.527
 4858POPC   C3B63225  38.314  13.853   6.856
 4858POPC   C4B63226  38.244  14.057   7.224
 4859POPC   NC363227  11.426   4.625   4.757
 4859POPC   PO463228  11.374   4.562   5.490
 4859POPC   GL163229  11.367   4.341   5.885
 4859POPC   GL263230  11.116   4.091   5.902
 4859POPC   C1A63231  11.404   4.408   6.334
 4859POPC   D2A63232  11.509   4.663   6.691
 4859POPC   C3A63233  11.339   4.579   7.095
 4859POPC   C4A63234  10.979   4.732   7.371
 4859POPC   C1B63235  11.388   3.905   6.218
 4859POPC   C2B63236  11.659   3.933   6.583
 4859POPC   C3B63237  11.474   3.813   6.971
 4859POPC   C4B63238  11.212   4.050   7.256
 4860POPC   NC363239  36.611  21.771   5.090
 4860POPC   PO463240  36.531  22.240   5.595
 4860POPC   GL163241  36.844  22.307   5.896
 4860POPC   GL263242  36.697  22.031   6.037
 4860POPC   C1A63243  37.231  22.427   6.155
 4860POPC   D2A63244  37.378  22.419   6.595
 4860POPC   C3A63245  37.206  22.186   6.962
 4860POPC   C4A63246  37.235  22.308   7.381
 4860POPC   C1B63247  37.057  21.947   6.256
 4860POPC   C2B63248  36.942  21.853   6.632
 4860POPC   C3B63249  36.756  21.713   6.970
 4860POPC   C4B63250  36.870  21.941   7.297
 4861POPC   NC363251  43.125  36.638   5.389
 4861POPC   PO463252  42.844  37.185   5.498
 4861POPC   GL163253  43.137  36.994   5.765
 4861POPC   GL263254  42.878  36.757   5.825
 4861POPC   C1A63255  43.388  36.849   6.127
 4861POPC   D2A63256  43.503  36.796   6.583
 4861POPC   C3A63257  43.291  36.739   6.991
 4861POPC   C4A63258  43.152  36.978   7.373
 4861POPC   C1B63259  42.855  36.966   6.216
 4861POPC   C2B63260  42.923  36.778   6.598
 4861POPC   C3B63261  42.651  36.488   6.776
 4861POPC   C4B63262  42.803  36.679   7.127
 4862POPC   NC363263  40.053  15.929   5.224
 4862POPC   PO463264  40.259  15.378   5.301
 4862POPC   GL163265  40.153  15.728   5.720
 4862POPC   GL263266  39.825  15.921   5.901
 4862POPC   C1A63267  40.279  15.831   6.207
 4862POPC   D2A63268  40.405  15.954   6.656
 4862POPC   C3A63269  40.155  15.809   7.042
 4862POPC   C4A63270  40.296  15.718   7.494
 4862POPC   C1B63271  39.557  16.148   6.272
 4862POPC   C2B63272  39.527  16.236   6.771
 4862POPC   C3B63273  39.594  16.239   7.253
 4862POPC   C4B63274  39.691  16.359   7.707
 4863POPC   NC363275   2.871  26.693   5.081
 4863POPC   PO463276   2.685  26.571   5.628
 4863POPC   GL163277   2.789  26.605   6.034
 4863POPC   GL263278   2.704  26.921   6.038
 4863POPC   C1A63279   2.755  26.702   6.492
 4863POPC   D2A63280   2.779  26.377   6.796
 4863POPC   C3A63281   2.904  26.591   7.147
 4863POPC   C4A63282   2.683  26.640   7.544
 4863POPC   C1B63283   2.337  26.985   6.279
 4863POPC   C2B63284   2.374  27.089   6.699
 4863POPC   C3B63285   2.781  27.057   6.903
 4863POPC   C4B63286   2.884  27.063   7.346
 4864POPC   NC363287  40.614  35.643   5.367
 4864POPC   PO463288  41.029  35.074   5.371
 4864POPC   GL163289  40.766  35.125   5.762
 4864POPC   GL263290  40.538  35.415   5.823
 4864POPC   C1A63291  40.877  35.357   6.181
 4864POPC   D2A63292  41.086  35.349   6.567
 4864POPC   C3A63293  40.896  35.322   6.982
 4864POPC   C4A63294  41.011  35.231   7.413
 4864POPC   C1B63295  40.357  35.339   6.253
 4864POPC   C2B63296  40.208  35.480   6.647
 4864POPC   C3B63297  40.429  35.559   7.004
 4864POPC   C4B63298  40.708  35.671   7.316
 4865POPC   NC363299  16.820   8.775   5.661
 4865POPC   PO463300  16.494   9.329   5.413
 4865POPC   GL163301  16.534   9.155   5.891
 4865POPC   GL263302  16.880   9.083   6.058
 4865POPC   C1A63303  16.523   9.080   6.387
 4865POPC   D2A63304  16.496   9.200   6.800
 4865POPC   C3A63305  16.810   9.061   7.030
 4865POPC   C4A63306  16.988   9.320   7.322
 4865POPC   C1B63307  16.933   8.720   6.323
 4865POPC   C2B63308  16.877   8.616   6.739
 4865POPC   C3B63309  17.125   8.635   7.085
 4865POPC   C4B63310  16.937   8.811   7.462
 4866POPC   NC363311  29.682  37.101   5.455
 4866POPC   PO463312  29.799  36.488   5.582
 4866POPC   GL163313  29.728  36.788   5.877
 4866POPC   GL263314  30.086  36.862   5.833
 4866POPC   C1A63315  29.604  37.010   6.271
 4866POPC   D2A63316  29.730  36.865   6.671
 4866POPC   C3A63317  29.861  37.009   7.051
 4866POPC   C4A63318  29.862  36.717   7.369
 4866POPC   C1B63319  30.063  36.797   6.271
 4866POPC   C2B63320  30.229  36.997   6.637
 4866POPC   C3B63321  30.383  37.055   7.017
 4866POPC   C4B63322  30.202  37.205   7.387
 4867POPC   NC363323  41.211   8.934   5.442
 4867POPC   PO463324  41.879   8.743   5.520
 4867POPC   GL163325  41.744   8.920   5.906
 4867POPC   GL263326  41.402   9.011   5.929
 4867POPC   C1A63327  41.701   8.935   6.364
 4867POPC   D2A63328  41.670   9.045   6.799
 4867POPC   C3A63329  41.940   8.863   7.089
 4867POPC   C4A63330  41.901   8.789   7.548
 4867POPC   C1B63331  41.189   8.929   6.334
 4867POPC   C2B63332  41.229   8.689   6.725
 4867POPC   C3B63333  41.446   8.625   7.118
 4867POPC   C4B63334  41.486   9.011   7.313
 4868POPC   NC363335  16.466  23.557   5.508
 4868POPC   PO463336  16.823  24.012   5.515
 4868POPC   GL163337  16.672  23.808   5.907
 4868POPC   GL263338  16.323  23.670   5.980
 4868POPC   C1A63339  16.836  23.662   6.292
 4868POPC   D2A63340  17.109  23.742   6.643
 4868POPC   C3A63341  17.104  23.638   7.095
 4868POPC   C4A63342  17.409  23.880   7.342
 4868POPC   C1B63343  16.421  24.010   6.300
 4868POPC   C2B63344  16.638  23.958   6.678
 4868POPC   C3B63345  16.648  23.897   7.096
 4868POPC   C4B63346  16.401  23.932   7.472
 4869POPC   NC363347  20.783  30.343   5.312
 4869POPC   PO463348  20.428  30.968   5.306
 4869POPC   GL163349  20.651  30.729   5.620
 4869POPC   GL263350  20.334  30.705   5.750
 4869POPC   C1A63351  20.809  30.521   6.032
 4869POPC   D2A63352  20.713  30.644   6.477
 4869POPC   C3A63353  20.922  30.563   6.895
 4869POPC   C4A63354  20.792  30.664   7.302
 4869POPC   C1B63355  20.230  30.640   6.156
 4869POPC   C2B63356  20.226  30.472   6.547
 4869POPC   C3B63357  20.411  30.632   6.911
 4869POPC   C4B63358  20.379  30.364   7.253
 4870POPC   NC363359  42.874  11.628   5.436
 4870POPC   PO463360  43.254  11.143   5.155
 4870POPC   GL163361  43.305  11.217   5.644
 4870POPC   GL263362  43.170  11.519   5.848
 4870POPC   C1A63363  43.362  11.150   6.131
 4870POPC   D2A63364  43.221  11.382   6.527
 4870POPC   C3A63365  43.279  11.234   6.974
 4870POPC   C4A63366  43.279  11.391   7.428
 4870POPC   C1B63367  42.842  11.454   6.143
 4870POPC   C2B63368  42.755  11.605   6.565
 4870POPC   C3B63369  42.957  11.647   6.953
 4870POPC   C4B63370  42.807  11.641   7.348
 4871POPC   NC363371  40.347  12.639   5.419
 4871POPC   PO463372  40.091  11.982   5.434
 4871POPC   GL163373  40.201  12.018   5.854
 4871POPC   GL263374  40.230  12.365   5.850
 4871POPC   C1A63375  39.984  12.042   6.256
 4871POPC   D2A63376  39.909  11.822   6.652
 4871POPC   C3A63377  40.067  11.856   7.062
 4871POPC   C4A63378  39.826  11.990   7.433
 4871POPC   C1B63379  40.295  12.438   6.259
 4871POPC   C2B63380  40.177  12.287   6.665
 4871POPC   C3B63381  40.195  12.338   7.106
 4871POPC   C4B63382  40.268  12.260   7.562
 4872POPC   NC363383  26.962  10.538   5.472
 4872POPC   PO463384  26.351  10.350   5.509
 4872POPC   GL163385  26.639  10.494   5.895
 4872POPC   GL263386  26.993  10.669   5.950
 4872POPC   C1A63387  26.783  10.325   6.315
 4872POPC   D2A63388  26.638  10.163   6.737
 4872POPC   C3A63389  26.616  10.456   7.110
 4872POPC   C4A63390  26.847  10.503   7.545
 4872POPC   C1B63391  27.092  10.740   6.399
 4872POPC   C2B63392  27.049  10.504   6.784
 4872POPC   C3B63393  27.007  10.796   7.109
 4872POPC   C4B63394  27.230  10.864   7.506
 4873POPC   NC363395  20.911  44.876   5.316
 4873POPC   PO463396  20.384  44.966   5.364
 4873POPC   GL163397  20.549  44.750   5.710
 4873POPC   GL263398  20.768  44.964   5.897
 4873POPC   C1A63399  20.432  44.668   6.152
 4873POPC   D2A63400  20.519  44.873   6.555
 4873POPC   C3A63401  20.477  44.704   6.995
 4873POPC   C4A63402  20.436  44.893   7.417
 4873POPC   C1B63403  20.939  44.738   6.297
 4873POPC   C2B63404  20.957  44.692   6.790
 4873POPC   C3B63405  20.920  44.816   7.243
 4873POPC   C4B63406  21.245  44.963   7.513
 4874POPC   NC363407   8.203  40.261   5.435
 4874POPC   PO463408   8.376  39.690   5.517
 4874POPC   GL163409   8.152  39.912   5.841
 4874POPC   GL263410   8.372  40.155   5.916
 4874POPC   C1A63411   8.080  39.982   6.299
 4874POPC   D2A63412   7.835  39.969   6.662
 4874POPC   C3A63413   8.127  40.011   7.005
 4874POPC   C4A63414   8.134  40.068   7.462
 4874POPC   C1B63415   8.511  40.264   6.326
 4874POPC   C2B63416   8.478  40.276   6.761
 4874POPC   C3B63417   8.543  40.228   7.215
 4874POPC   C4B63418   8.558  40.255   7.690
 4875POPC   NC363419  26.980  19.268   5.470
 4875POPC   PO463420  26.804  18.653   5.414
 4875POPC   GL163421  26.882  18.901   5.823
 4875POPC   GL263422  26.921  19.250   5.960
 4875POPC   C1A63423  27.118  18.869   6.227
 4875POPC   D2A63424  27.177  18.804   6.658
 4875POPC   C3A63425  26.832  18.771   6.957
 4875POPC   C4A63426  26.986  18.933   7.337
 4875POPC   C1B63427  26.671  19.154   6.298
 4875POPC   C2B63428  26.618  19.391   6.673
 4875POPC   C3B63429  26.692  19.255   7.078
 4875POPC   C4B63430  26.741  19.344   7.527
 4876POPC   NC363431  31.550   5.413   5.364
 4876POPC   PO463432  31.585   4.823   5.235
 4876POPC   GL163433  31.657   5.035   5.700
 4876POPC   GL263434  31.546   5.334   5.865
 4876POPC   C1A63435  31.701   5.003   6.203
 4876POPC   D2A63436  31.483   5.133   6.583
 4876POPC   C3A63437  31.635   4.990   6.973
 4876POPC   C4A63438  31.712   5.201   7.371
 4876POPC   C1B63439  31.192   5.174   6.160
 4876POPC   C2B63440  30.970   5.014   6.507
 4876POPC   C3B63441  31.103   5.014   6.927
 4876POPC   C4B63442  31.276   4.866   7.310
 4877POPC   NC363443  44.160  24.259   5.425
 4877POPC   PO463444  44.029  24.822   5.724
 4877POPC   GL163445  43.817  24.483   5.926
 4877POPC   GL263446  44.031  24.203   5.947
 4877POPC   C1A63447  43.955  24.497   6.366
 4877POPC   D2A63448  44.278  24.488   6.684
 4877POPC   C3A63449  44.069  24.719   6.975
 4877POPC   C4A63450  43.700  24.570   7.175
 4877POPC   C1B63451  43.737  24.045   6.298
 4877POPC   C2B63452  43.750  24.184   6.715
 4877POPC   C3B63453  44.037  24.173   7.016
 4877POPC   C4B63454  44.167  24.383   7.353
 4878POPC   NC363455   7.479   6.983   5.369
 4878POPC   PO463456   6.920   6.643   5.226
 4878POPC   GL163457   7.141   6.738   5.687
 4878POPC   GL263458   7.541   6.665   5.767
 4878POPC   C1A63459   7.206   6.646   6.165
 4878POPC   D2A63460   7.475   6.620   6.562
 4878POPC   C3A63461   7.269   6.528   6.922
 4878POPC   C4A63462   7.189   6.461   7.373
 4878POPC   C1B63463   7.728   6.801   6.159
 4878POPC   C2B63464   7.820   7.003   6.545
 4878POPC   C3B63465   7.898   6.827   6.951
 4878POPC   C4B63466   7.655   6.581   7.212
 4879POPC   NC363467  33.970  34.392   5.448
 4879POPC   PO463468  33.657  34.995   5.297
 4879POPC   GL163469  33.622  34.727   5.659
 4879POPC   GL263470  33.954  34.829   5.759
 4879POPC   C1A63471  33.696  34.505   6.068
 4879POPC   D2A63472  33.812  34.550   6.521
 4879POPC   C3A63473  33.950  34.246   6.829
 4879POPC   C4A63474  33.974  34.401   7.264
 4879POPC   C1B63475  34.131  34.760   6.178
 4879POPC   C2B63476  34.334  34.518   6.529
 4879POPC   C3B63477  34.288  34.629   6.924
 4879POPC   C4B63478  33.979  34.888   7.061
 4880POPC   NC363479   1.702  26.226   5.278
 4880POPC   PO463480   2.026  25.613   5.482
 4880POPC   GL163481   1.915  25.988   5.700
 4880POPC   GL263482   1.597  25.928   5.694
 4880POPC   C1A63483   1.928  26.181   6.136
 4880POPC   D2A63484   2.081  26.075   6.590
 4880POPC   C3A63485   1.966  26.157   7.016
 4880POPC   C4A63486   2.325  26.309   7.239
 4880POPC   C1B63487   1.773  25.692   6.070
 4880POPC   C2B63488   1.755  25.708   6.490
 4880POPC   C3B63489   1.893  25.667   6.925
 4880POPC   C4B63490   1.680  25.808   7.311
 4881POPC   NC363491   6.691  44.109   5.599
 4881POPC   PO463492   6.381  44.687   5.326
 4881POPC   GL163493   6.583  44.677   5.725
 4881POPC   GL263494   6.324  44.430   5.817
 4881POPC   C1A63495   6.699  44.573   6.166
 4881POPC   D2A63496   6.737  44.410   6.558
 4881POPC   C3A63497   6.975  44.674   6.801
 4881POPC   C4A63498   6.971  44.638   7.223
 4881POPC   C1B63499   6.255  44.787   6.127
 4881POPC   C2B63500   6.477  44.913   6.526
 4881POPC   C3B63501   6.500  44.825   6.982
 4881POPC   C4B63502   6.512  44.720   7.452
 4882POPC   NC363503  34.326   8.703   5.519
 4882POPC   PO463504  34.616   9.302   5.325
 4882POPC   GL163505  34.616   9.071   5.740
 4882POPC   GL263506  34.280   9.180   5.730
 4882POPC   C1A63507  34.757   8.918   6.176
 4882POPC   D2A63508  34.940   9.076   6.594
 4882POPC   C3A63509  34.859   8.905   7.022
 4882POPC   C4A63510  34.765   9.101   7.404
 4882POPC   C1B63511  34.370   9.284   6.149
 4882POPC   C2B63512  34.410   9.069   6.528
 4882POPC   C3B63513  34.453   9.184   6.924
 4882POPC   C4B63514  34.256   9.126   7.284
 4883POPC   NC363515   6.895  38.343   5.495
 4883POPC   PO463516   6.433  38.852   5.290
 4883POPC   GL163517   6.404  38.519   5.721
 4883POPC   GL263518   6.406  38.157   5.651
 4883POPC   C1A63519   6.458  38.611   6.208
 4883POPC   D2A63520   6.789  38.792   6.492
 4883POPC   C3A63521   6.717  38.683   6.911
 4883POPC   C4A63522   6.414  38.484   7.157
 4883POPC   C1B63523   6.619  38.077   6.048
 4883POPC   C2B63524   6.722  38.214   6.455
 4883POPC   C3B63525   6.675  38.126   6.881
 4883POPC   C4B63526   6.908  38.315   7.194
 4884POPC   NC363527  42.915  41.333   5.469
 4884POPC   PO463528  43.322  41.938   5.464
 4884POPC   GL163529  43.190  41.628   5.843
 4884POPC   GL263530  43.077  41.258   5.938
 4884POPC   C1A63531  43.388  41.478   6.258
 4884POPC   D2A63532  43.532  41.343   6.663
 4884POPC   C3A63533  43.204  41.599   6.861
 4884POPC   C4A63534  43.221  41.821   7.226
 4884POPC   C1B63535  42.757  41.165   6.268
 4884POPC   C2B63536  42.648  41.441   6.619
 4884POPC   C3B63537  42.749  41.441   7.059
 4884POPC   C4B63538  42.913  41.476   7.507
 4885POPC   NC363539  24.609  13.805   5.380
 4885POPC   PO463540  24.024  13.393   5.446
 4885POPC   GL163541  24.254  13.656   5.761
 4885POPC   GL263542  24.623  13.560   5.846
 4885POPC   C1A63543  24.306  13.764   6.212
 4885POPC   D2A63544  24.533  13.767   6.612
 4885POPC   C3A63545  24.400  13.548   6.968
 4885POPC   C4A63546  24.299  13.347   7.370
 4885POPC   C1B63547  24.875  13.719   6.228
 4885POPC   C2B63548  25.041  13.880   6.648
 4885POPC   C3B63549  24.914  13.936   7.084
 4885POPC   C4B63550  24.665  13.693   7.384
 4886POPC   NC363551   2.607  23.825   5.349
 4886POPC   PO463552   2.024  23.518   5.281
 4886POPC   GL163553   2.173  23.567   5.667
 4886POPC   GL263554   2.215  23.894   5.665
 4886POPC   C1A63555   1.900  23.583   6.042
 4886POPC   D2A63556   1.767  23.764   6.452
 4886POPC   C3A63557   1.974  23.634   6.840
 4886POPC   C4A63558   1.748  23.537   7.226
 4886POPC   C1B63559   2.239  23.986   6.094
 4886POPC   C2B63560   2.257  23.988   6.527
 4886POPC   C3B63561   2.011  24.146   6.851
 4886POPC   C4B63562   1.982  23.987   7.220
 4887POPC   NC363563  38.191   2.538   5.507
 4887POPC   PO463564  38.640   3.057   5.492
 4887POPC   GL163565  38.671   2.756   5.826
 4887POPC   GL263566  38.586   2.390   5.827
 4887POPC   C1A63567  38.401   2.721   6.198
 4887POPC   D2A63568  38.156   2.612   6.565
 4887POPC   C3A63569  38.414   2.624   6.900
 4887POPC   C4A63570  38.521   2.852   7.247
 4887POPC   C1B63571  38.846   2.457   6.208
 4887POPC   C2B63572  38.825   2.740   6.575
 4887POPC   C3B63573  38.946   2.727   6.998
 4887POPC   C4B63574  38.789   2.399   7.181
 4888POPC   NC363575  13.349  27.767   5.246
 4888POPC   PO463576  13.816  27.386   5.438
 4888POPC   GL163577  13.612  27.431   5.847
 4888POPC   GL263578  13.323  27.672   5.760
 4888POPC   C1A63579  13.748  27.469   6.297
 4888POPC   D2A63580  13.940  27.709   6.645
 4888POPC   C3A63581  13.890  27.449   6.989
 4888POPC   C4A63582  13.539  27.292   7.152
 4888POPC   C1B63583  13.325  27.990   6.097
 4888POPC   C2B63584  13.482  28.019   6.522
 4888POPC   C3B63585  13.516  27.803   6.930
 4888POPC   C4B63586  13.318  27.721   7.315
 4889POPC   NC363587  31.678  16.015   5.213
 4889POPC   PO463588  31.207  16.297   5.675
 4889POPC   GL163589  31.537  16.099   5.925
 4889POPC   GL263590  31.775  15.858   5.709
 4889POPC   C1A63591  31.407  16.019   6.361
 4889POPC   D2A63592  31.058  16.134   6.682
 4889POPC   C3A63593  31.040  15.767   6.970
 4889POPC   C4A63594  31.434  15.874   7.163
 4889POPC   C1B63595  31.829  15.726   6.125
 4889POPC   C2B63596  31.931  16.049   6.453
 4889POPC   C3B63597  31.856  16.062   6.911
 4889POPC   C4B63598  31.887  15.642   7.181
 4890POPC   NC363599  35.712  30.590   5.431
 4890POPC   PO463600  36.308  30.766   5.387
 4890POPC   GL163601  36.109  30.735   5.783
 4890POPC   GL263602  35.798  30.932   5.833
 4890POPC   C1A63603  36.178  30.837   6.219
 4890POPC   D2A63604  35.923  30.799   6.619
 4890POPC   C3A63605  36.089  30.906   7.041
 4890POPC   C4A63606  36.024  30.912   7.481
 4890POPC   C1B63607  35.746  30.574   6.143
 4890POPC   C2B63608  35.805  30.286   6.487
 4890POPC   C3B63609  35.679  30.333   6.921
 4890POPC   C4B63610  35.885  30.472   7.283
 4891POPC   NC363611  34.458   8.023   5.372
 4891POPC   PO463612  34.814   8.592   5.508
 4891POPC   GL163613  34.736   8.283   5.806
 4891POPC   GL263614  34.387   8.273   5.808
 4891POPC   C1A63615  34.646   8.380   6.250
 4891POPC   D2A63616  34.666   8.641   6.616
 4891POPC   C3A63617  34.438   8.618   7.000
 4891POPC   C4A63618  34.691   8.425   7.316
 4891POPC   C1B63619  34.203   8.117   6.199
 4891POPC   C2B63620  34.363   8.158   6.628
 4891POPC   C3B63621  34.467   8.059   7.040
 4891POPC   C4B63622  34.255   7.845   7.361
 4892POPC   NC363623  11.107  27.019   5.608
 4892POPC   PO463624  11.127  26.396   5.341
 4892POPC   GL163625  11.421  26.465   5.724
 4892POPC   GL263626  11.567  26.817   5.784
 4892POPC   C1A63627  11.641  26.478   6.162
 4892POPC   D2A63628  11.410  26.589   6.550
 4892POPC   C3A63629  11.517  26.801   6.939
 4892POPC   C4A63630  11.340  26.780   7.391
 4892POPC   C1B63631  11.454  26.974   6.197
 4892POPC   C2B63632  11.184  27.087   6.534
 4892POPC   C3B63633  11.131  27.148   6.978
 4892POPC   C4B63634  11.486  27.233   7.230
 4893POPC   NC363635  25.800  38.001   5.360
 4893POPC   PO463636  26.033  38.615   5.358
 4893POPC   GL163637  26.189  38.643   5.769
 4893POPC   GL263638  26.311  38.285   5.793
 4893POPC   C1A63639  26.169  38.571   6.223
 4893POPC   D2A63640  25.888  38.734   6.554
 4893POPC   C3A63641  25.962  38.525   6.940
 4893POPC   C4A63642  26.091  38.573   7.374
 4893POPC   C1B63643  25.856  38.279   5.957
 4893POPC   C2B63644  25.686  38.236   6.401
 4893POPC   C3B63645  25.624  38.077   6.838
 4893POPC   C4B63646  25.691  38.231   7.258
 4894POPC   NC363647  32.012  22.479   5.520
 4894POPC   PO463648  32.625  22.186   5.388
 4894POPC   GL163649  32.354  22.042   5.804
 4894POPC   GL263650  32.078  22.177   5.915
 4894POPC   C1A63651  32.365  22.015   6.306
 4894POPC   D2A63652  32.431  22.181   6.747
 4894POPC   C3A63653  32.355  21.996   7.153
 4894POPC   C4A63654  32.615  21.980   7.538
 4894POPC   C1B63655  31.854  22.150   6.269
 4894POPC   C2B63656  31.932  22.071   6.665
 4894POPC   C3B63657  31.731  22.016   7.004
 4894POPC   C4B63658  31.881  22.069   7.355
 4895POPC   NC363659  15.338   9.421   5.452
 4895POPC   PO463660  15.154   8.719   5.350
 4895POPC   GL163661  15.067   8.953   5.734
 4895POPC   GL263662  15.430   8.926   5.799
 4895POPC   C1A63663  14.886   8.937   6.180
 4895POPC   D2A63664  15.146   8.863   6.553
 4895POPC   C3A63665  15.090   9.010   6.995
 4895POPC   C4A63666  14.990   8.804   7.382
 4895POPC   C1B63667  15.553   8.979   6.233
 4895POPC   C2B63668  15.519   9.183   6.646
 4895POPC   C3B63669  15.590   9.205   7.054
 4895POPC   C4B63670  15.687   9.486   7.348
 4896POPC   NC363671   9.299   6.796   5.552
 4896POPC   PO463672   8.691   6.547   5.426
 4896POPC   GL163673   8.865   6.668   5.804
 4896POPC   GL263674   8.834   6.337   5.889
 4896POPC   C1A63675   9.080   6.650   6.209
 4896POPC   D2A63676   9.123   6.443   6.595
 4896POPC   C3A63677   8.928   6.679   6.920
 4896POPC   C4A63678   8.976   6.914   7.294
 4896POPC   C1B63679   8.600   6.419   6.264
 4896POPC   C2B63680   8.633   6.299   6.687
 4896POPC   C3B63681   8.570   6.166   7.100
 4896POPC   C4B63682   8.579   6.553   7.336
 4897POPC   NC363683  36.447  44.557   5.455
 4897POPC   PO463684  35.820  44.607   5.340
 4897POPC   GL163685  36.032  44.507   5.761
 4897POPC   GL263686  36.241  44.172   5.770
 4897POPC   C1A63687  36.050  44.734   6.186
 4897POPC   D2A63688  36.192  44.972   6.555
 4897POPC   C3A63689  36.050  44.791   6.939
 4897POPC   C4A63690  36.351  44.624   7.220
 4897POPC   C1B63691  36.037  44.218   6.177
 4897POPC   C2B63692  36.074  44.360   6.638
 4897POPC   C3B63693  35.979  44.273   7.109
 4897POPC   C4B63694  36.174  44.309   7.571
 4898POPC   NC363695  19.358  16.589   5.201
 4898POPC   PO463696  19.069  17.136   5.501
 4898POPC   GL163697  18.821  16.825   5.763
 4898POPC   GL263698  19.091  16.558   5.666
 4898POPC   C1A63699  18.654  16.837   6.228
 4898POPC   D2A63700  18.924  16.892   6.608
 4898POPC   C3A63701  19.091  16.935   7.027
 4898POPC   C4A63702  19.375  16.743   7.342
 4898POPC   C1B63703  19.111  16.614   6.116
 4898POPC   C2B63704  19.134  16.435   6.501
 4898POPC   C3B63705  19.230  16.466   6.906
 4898POPC   C4B63706  19.009  16.383   7.247
 4899POPC   NC363707  20.186  10.154   5.286
 4899POPC   PO463708  19.858  10.725   5.470
 4899POPC   GL163709  19.851  10.651   5.901
 4899POPC   GL263710  20.061  10.363   5.861
 4899POPC   C1A63711  19.793  10.760   6.350
 4899POPC   D2A63712  19.822  10.485   6.735
 4899POPC   C3A63713  19.848  10.639   7.143
 4899POPC   C4A63714  19.587  10.630   7.476
 4899POPC   C1B63715  20.137  10.370   6.326
 4899POPC   C2B63716  20.214  10.149   6.744
 4899POPC   C3B63717  20.313  10.272   7.176
 4899POPC   C4B63718  20.121  10.449   7.557
 4900POPC   NC363719  19.277  19.997   5.406
 4900POPC   PO463720  18.612  19.836   5.373
 4900POPC   GL163721  18.766  19.846   5.827
 4900POPC   GL263722  19.101  19.891   5.866
 4900POPC   C1A63723  18.896  19.787   6.305
 4900POPC   D2A63724  19.171  19.831   6.666
 4900POPC   C3A63725  18.981  19.665   7.018
 4900POPC   C4A63726  18.683  19.859   7.321
 4900POPC   C1B63727  19.157  20.218   6.164
 4900POPC   C2B63728  19.129  20.338   6.599
 4900POPC   C3B63729  19.342  20.201   6.973
 4900POPC   C4B63730  19.176  20.028   7.323
 4901POPC   NC363731   9.298   5.248   5.329
 4901POPC   PO463732   8.684   4.920   5.435
 4901POPC   GL163733   9.103   4.985   5.725
 4901POPC   GL263734   9.172   5.369   5.837
 4901POPC   C1A63735   9.264   5.019   6.187
 4901POPC   D2A63736   8.963   4.918   6.520
 4901POPC   C3A63737   8.947   4.849   6.977
 4901POPC   C4A63738   8.572   4.811   7.257
 4901POPC   C1B63739   8.918   5.408   6.288
 4901POPC   C2B63740   8.767   5.328   6.758
 4901POPC   C3B63741   8.908   5.299   7.202
 4901POPC   C4B63742   9.321   5.190   7.448
 4902POPC   NC363743  10.406  27.583   5.171
 4902POPC   PO463744  10.697  27.204   5.744
 4902POPC   GL163745  10.359  27.482   5.924
 4902POPC   GL263746  10.444  27.808   5.823
 4902POPC   C1A63747  10.207  27.737   6.275
 4902POPC   D2A63748  10.343  27.706   6.689
 4902POPC   C3A63749  10.359  27.279   6.869
 4902POPC   C4A63750  10.657  27.141   7.183
 4902POPC   C1B63751  10.724  27.696   6.209
 4902POPC   C2B63752  10.768  27.438   6.572
 4902POPC   C3B63753  10.790  27.602   6.981
 4902POPC   C4B63754  11.112  27.609   7.259
 4903POPC   NC363755   1.286   0.300   5.265
 4903POPC   PO463756   1.247   0.985   5.233
 4903POPC   GL163757   1.279   0.721   5.604
 4903POPC   GL263758   1.020   0.495   5.696
 4903POPC   C1A63759   1.292   0.635   6.094
 4903POPC   D2A63760   1.393   0.516   6.540
 4903POPC   C3A63761   1.243   0.513   6.968
 4903POPC   C4A63762   1.531   0.407   7.288
 4903POPC   C1B63763   0.950   0.255   6.085
 4903POPC   C2B63764   1.052   0.054   6.485
 4903POPC   C3B63765   0.870   0.129   6.889
 4903POPC   C4B63766   1.087   0.094   7.271
 4904POPC   NC363767  32.296  21.037   5.162
 4904POPC   PO463768  32.438  20.327   5.413
 4904POPC   GL163769  32.233  20.468   5.790
 4904POPC   GL263770  31.990  20.215   5.875
 4904POPC   C1A63771  32.203  20.593   6.244
 4904POPC   D2A63772  32.419  20.446   6.630
 4904POPC   C3A63773  32.303  20.625   7.009
 4904POPC   C4A63774  32.472  20.783   7.378
 4904POPC   C1B63775  31.794  20.232   6.256
 4904POPC   C2B63776  31.951  20.225   6.666
 4904POPC   C3B63777  31.869  20.352   7.061
 4904POPC   C4B63778  31.861  20.725   7.301
 4905POPC   NC363779   5.627  12.277   5.175
 4905POPC   PO463780   5.919  11.866   5.613
 4905POPC   GL163781   5.745  11.785   5.971
 4905POPC   GL263782   5.443  11.596   5.981
 4905POPC   C1A63783   5.864  11.967   6.340
 4905POPC   D2A63784   6.129  12.021   6.673
 4905POPC   C3A63785   6.085  12.412   6.867
 4905POPC   C4A63786   5.826  12.421   7.226
 4905POPC   C1B63787   5.366  11.834   6.315
 4905POPC   C2B63788   5.506  11.851   6.710
 4905POPC   C3B63789   5.750  11.920   7.074
 4905POPC   C4B63790   5.595  11.973   7.489
 4906POPC   NC363791  44.281  13.587   5.298
 4906POPC   PO463792  44.797  14.029   5.454
 4906POPC   GL163793  44.839  13.800   5.829
 4906POPC   GL263794  44.563  13.597   5.785
 4906POPC   C1A63795  44.801  13.612   6.252
 4906POPC   D2A63796  44.485  13.501   6.576
 4906POPC   C3A63797  44.670  13.495   6.983
 4906POPC   C4A63798  44.537  13.481   7.412
 4906POPC   C1B63799  44.400  13.917   6.120
 4906POPC   C2B63800  44.230  13.945   6.559
 4906POPC   C3B63801  44.192  13.707   6.975
 4906POPC   C4B63802  44.110  13.804   7.442
 4907POPC   NC363803   0.196  15.191   5.420
 4907POPC   PO463804   0.616  14.704   5.406
 4907POPC   GL163805   0.546  14.973   5.834
 4907POPC   GL263806   0.286  15.258   5.923
 4907POPC   C1A63807   0.711  15.159   6.256
 4907POPC   D2A63808   0.544  15.445   6.600
 4907POPC   C3A63809   0.587  15.331   7.048
 4907POPC   C4A63810   0.681  15.098   7.450
 4907POPC   C1B63811   0.210  15.010   6.299
 4907POPC   C2B63812   0.340  14.939   6.734
 4907POPC   C3B63813   0.235  15.000   7.165
 4907POPC   C4B63814   0.148  15.410   7.323
 4908POPC   NC363815  24.328  41.337   5.469
 4908POPC   PO463816  24.489  40.676   5.334
 4908POPC   GL163817  24.542  40.828   5.731
 4908POPC   GL263818  24.816  40.624   5.802
 4908POPC   C1A63819  24.400  40.743   6.144
 4908POPC   D2A63820  24.231  40.939   6.517
 4908POPC   C3A63821  24.317  40.766   6.877
 4908POPC   C4A63822  24.390  40.847   7.270
 4908POPC   C1B63823  24.864  40.412   6.174
 4908POPC   C2B63824  24.678  40.584   6.541
 4908POPC   C3B63825  24.721  40.456   6.940
 4908POPC   C4B63826  24.920  40.538   7.300
 4909POPC   NC363827   2.593   3.449   5.356
 4909POPC   PO463828   3.143   3.808   5.169
 4909POPC   GL163829   3.031   3.516   5.649
 4909POPC   GL263830   2.654   3.610   5.838
 4909POPC   C1A63831   2.987   3.488   6.181
 4909POPC   D2A63832   2.611   3.561   6.537
 4909POPC   C3A63833   2.534   3.481   6.998
 4909POPC   C4A63834   2.747   3.374   7.414
 4909POPC   C1B63835   2.685   3.941   6.204
 4909POPC   C2B63836   2.633   4.149   6.574
 4909POPC   C3B63837   2.541   4.005   6.957
 4909POPC   C4B63838   2.703   3.858   7.328
 4910POPC   NC363839  21.733  11.682   5.262
 4910POPC   PO463840  21.279  11.245   5.434
 4910POPC   GL163841  21.212  11.435   5.843
 4910POPC   GL263842  20.936  11.208   5.926
 4910POPC   C1A63843  21.449  11.625   6.178
 4910POPC   D2A63844  21.652  11.389   6.496
 4910POPC   C3A63845  21.736  11.524   6.904
 4910POPC   C4A63846  21.451  11.336   7.161
 4910POPC   C1B63847  21.224  11.151   6.283
 4910POPC   C2B63848  21.236  11.139   6.733
 4910POPC   C3B63849  21.158  10.929   7.142
 4910POPC   C4B63850  21.174  10.839   7.599
 4911POPC   NC363851  42.694  43.742   5.447
 4911POPC   PO463852  42.008  43.990   5.611
 4911POPC   GL163853  42.240  43.730   5.895
 4911POPC   GL263854  42.537  43.516   5.902
 4911POPC   C1A63855  42.231  43.796   6.312
 4911POPC   D2A63856  42.431  43.919   6.671
 4911POPC   C3A63857  42.147  43.934   7.005
 4911POPC   C4A63858  42.074  43.928   7.464
 4911POPC   C1B63859  42.495  43.358   6.365
 4911POPC   C2B63860  42.174  43.446   6.716
 4911POPC   C3B63861  41.977  43.478   7.144
 4911POPC   C4B63862  42.132  43.370   7.576
 4912POPC   NC363863  44.945   5.364   5.449
 4912POPC   PO463864   0.636   5.161   5.465
 4912POPC   GL163865   0.509   5.290   5.881
 4912POPC   GL263866   0.266   5.583   5.848
 4912POPC   C1A63867   0.635   5.103   6.292
 4912POPC   D2A63868   0.438   4.825   6.593
 4912POPC   C3A63869   0.378   4.930   7.044
 4912POPC   C4A63870   0.752   5.089   7.207
 4912POPC   C1B63871   0.230   5.434   6.292
 4912POPC   C2B63872   0.395   5.317   6.700
 4912POPC   C3B63873   0.437   5.482   7.109
 4912POPC   C4B63874   0.401   5.567   7.535
 4913POPC   NC363875  10.653   4.728   5.211
 4913POPC   PO463876  10.682   5.283   5.456
 4913POPC   GL163877  10.530   5.064   5.781
 4913POPC   GL263878  10.205   5.155   5.718
 4913POPC   C1A63879  10.704   4.873   6.181
 4913POPC   D2A63880  10.983   4.767   6.552
 4913POPC   C3A63881  10.753   4.874   6.919
 4913POPC   C4A63882  10.561   4.989   7.301
 4913POPC   C1B63883  10.209   5.024   6.165
 4913POPC   C2B63884  10.396   5.087   6.580
 4913POPC   C3B63885  10.231   5.210   7.003
 4913POPC   C4B63886  10.214   5.299   7.480
 4914POPC   NC363887  38.778  27.324   5.433
 4914POPC   PO463888  38.499  26.789   5.130
 4914POPC   GL163889  38.615  26.787   5.612
 4914POPC   GL263890  38.342  26.799   5.864
 4914POPC   C1A63891  38.825  26.673   6.046
 4914POPC   D2A63892  38.971  26.714   6.480
 4914POPC   C3A63893  38.785  26.577   6.887
 4914POPC   C4A63894  38.677  26.836   7.268
 4914POPC   C1B63895  38.388  26.582   6.270
 4914POPC   C2B63896  38.271  26.525   6.682
 4914POPC   C3B63897  37.918  26.513   6.959
 4914POPC   C4B63898  37.898  26.883   7.237
 4915POPC   NC363899   6.293  10.136   5.322
 4915POPC   PO463900   5.903   9.592   5.307
 4915POPC   GL163901   5.720   9.678   5.694
 4915POPC   GL263902   5.958   9.930   5.700
 4915POPC   C1A63903   5.703   9.683   6.149
 4915POPC   D2A63904   5.892   9.506   6.548
 4915POPC   C3A63905   5.707   9.595   6.964
 4915POPC   C4A63906   5.654   9.966   7.224
 4915POPC   C1B63907   6.101  10.009   6.110
 4915POPC   C2B63908   6.275   9.959   6.488
 4915POPC   C3B63909   6.089   9.948   6.853
 4915POPC   C4B63910   6.135   9.838   7.257
 4916POPC   NC363911   3.380  15.819   5.407
 4916POPC   PO463912   3.861  16.236   5.235
 4916POPC   GL163913   3.810  16.014   5.671
 4916POPC   GL263914   3.565  15.773   5.860
 4916POPC   C1A63915   3.793  16.141   6.125
 4916POPC   D2A63916   3.615  16.232   6.532
 4916POPC   C3A63917   3.722  16.039   6.933
 4916POPC   C4A63918   3.622  16.285   7.316
 4916POPC   C1B63919   3.340  15.860   6.236
 4916POPC   C2B63920   3.299  15.814   6.665
 4916POPC   C3B63921   3.286  15.806   7.087
 4916POPC   C4B63922   3.319  15.925   7.486
 4917POPC   NC363923  24.709   3.248   5.350
 4917POPC   PO463924  24.679   2.610   5.395
 4917POPC   GL163925  24.457   2.699   5.777
 4917POPC   GL263926  24.607   3.000   5.806
 4917POPC   C1A63927  24.404   2.850   6.247
 4917POPC   D2A63928  24.600   2.855   6.659
 4917POPC   C3A63929  24.380   2.694   7.048
 4917POPC   C4A63930  23.988   2.634   7.317
 4917POPC   C1B63931  24.849   2.648   6.099
 4917POPC   C2B63932  24.766   2.384   6.509
 4917POPC   C3B63933  24.864   2.498   6.912
 4917POPC   C4B63934  24.789   2.513   7.336
 4918POPC   NC363935  28.949  25.760   5.543
 4918POPC   PO463936  29.027  26.494   5.458
 4918POPC   GL163937  29.168  26.293   5.836
 4918POPC   GL263938  29.321  25.937   5.830
 4918POPC   C1A63939  29.072  26.235   6.277
 4918POPC   D2A63940  29.037  26.342   6.710
 4918POPC   C3A63941  29.286  26.110   7.007
 4918POPC   C4A63942  28.937  25.944   7.239
 4918POPC   C1B63943  29.116  25.724   6.212
 4918POPC   C2B63944  29.117  25.789   6.668
 4918POPC   C3B63945  29.184  25.532   7.049
 4918POPC   C4B63946  28.999  25.469   7.469
 4919POPC   NC363947  36.111  13.516   5.353
 4919POPC   PO463948  36.139  14.012   5.693
 4919POPC   GL163949  36.065  13.571   5.878
 4919POPC   GL263950  36.390  13.511   5.938
 4919POPC   C1A63951  36.071  13.302   6.286
 4919POPC   D2A63952  36.169  13.435   6.714
 4919POPC   C3A63953  35.953  13.803   6.767
 4919POPC   C4A63954  35.830  13.816   7.160
 4919POPC   C1B63955  36.246  13.793   6.309
 4919POPC   C2B63956  36.463  13.915   6.680
 4919POPC   C3B63957  36.390  13.825   7.109
 4919POPC   C4B63958  36.601  13.673   7.470
 4920POPC   NC363959  43.416  42.415   5.422
 4920POPC   PO463960  42.738  42.598   5.443
 4920POPC   GL163961  42.973  42.407   5.733
 4920POPC   GL263962  43.156  42.715   5.763
 4920POPC   C1A63963  42.901  42.139   6.112
 4920POPC   D2A63964  42.948  41.914   6.522
 4920POPC   C3A63965  42.943  42.198   6.878
 4920POPC   C4A63966  43.058  42.300   7.295
 4920POPC   C1B63967  43.301  42.519   6.142
 4920POPC   C2B63968  43.197  42.573   6.583
 4920POPC   C3B63969  43.395  42.537   6.997
 4920POPC   C4B63970  43.440  42.574   7.466
 4921POPC   NC363971  14.921   3.459   5.429
 4921POPC   PO463972  15.673   3.371   5.480
 4921POPC   GL163973  15.345   3.582   5.712
 4921POPC   GL263974  15.226   3.270   5.777
 4921POPC   C1A63975  15.018   3.629   6.098
 4921POPC   D2A63976  14.847   3.704   6.549
 4921POPC   C3A63977  15.129   3.725   6.936
 4921POPC   C4A63978  14.961   3.767   7.371
 4921POPC   C1B63979  15.439   3.287   6.147
 4921POPC   C2B63980  15.270   3.332   6.546
 4921POPC   C3B63981  15.483   3.368   6.916
 4921POPC   C4B63982  15.359   3.454   7.323
 4922POPC   NC363983  32.076  23.724   5.464
 4922POPC   PO463984  32.766  23.692   5.386
 4922POPC   GL163985  32.578  23.699   5.796
 4922POPC   GL263986  32.334  23.422   5.841
 4922POPC   C1A63987  32.377  23.952   6.138
 4922POPC   D2A63988  32.427  24.057   6.581
 4922POPC   C3A63989  32.155  23.915   6.919
 4922POPC   C4A63990  32.391  23.730   7.218
 4922POPC   C1B63991  32.530  23.479   6.266
 4922POPC   C2B63992  32.403  23.522   6.692
 4922POPC   C3B63993  32.260  23.274   7.051
 4922POPC   C4B63994  32.246  23.333   7.525
 4923POPC   NC363995  33.544  30.927   5.635
 4923POPC   PO463996  33.662  31.611   5.479
 4923POPC   GL163997  33.691  31.379   5.881
 4923POPC   GL263998  33.954  31.181   5.882
 4923POPC   C1A63999  33.709  31.146   6.318
 4923POPC   D2A64000  33.485  31.295   6.684
 4923POPC   C3A64001  33.736  31.366   7.017
 4923POPC   C4A64002  33.767  31.512   7.416
 4923POPC   C1B64003  34.060  31.507   6.241
 4923POPC   C2B64004  34.098  31.562   6.704
 4923POPC   C3B64005  34.005  31.824   7.079
 4923POPC   C4B64006  34.149  31.801   7.531
 4924POPC   NC364007  11.657  33.958   5.067
 4924POPC   PO464008  11.215  33.839   5.493
 4924POPC   GL164009  11.214  33.673   5.851
 4924POPC   GL264010  11.567  33.594   5.865
 4924POPC   C1A64011  10.954  33.640   6.244
 4924POPC   D2A64012  10.965  33.920   6.590
 4924POPC   C3A64013  10.986  33.707   6.977
 4924POPC   C4A64014  10.960  33.896   7.392
 4924POPC   C1B64015  11.433  33.901   6.238
 4924POPC   C2B64016  11.633  34.028   6.630
 4924POPC   C3B64017  11.375  34.062   6.985
 4924POPC   C4B64018  11.426  33.751   7.278
 4925POPC   NC364019  38.459  25.408   5.590
 4925POPC   PO464020  38.208  24.813   5.396
 4925POPC   GL164021  38.476  24.899   5.719
 4925POPC   GL264022  38.163  25.029   5.856
 4925POPC   C1A64023  38.646  24.977   6.152
 4925POPC   D2A64024  38.662  25.380   6.431
 4925POPC   C3A64025  38.661  25.300   6.885
 4925POPC   C4A64026  38.646  25.268   7.335
 4925POPC   C1B64027  38.205  25.232   6.223
 4925POPC   C2B64028  38.267  25.082   6.623
 4925POPC   C3B64029  38.164  25.191   7.037
 4925POPC   C4B64030  38.159  25.116   7.477
 4926POPC   NC364031   0.537  30.989   5.220
 4926POPC   PO464032   0.286  30.501   5.535
 4926POPC   GL164033   0.472  30.718   5.885
 4926POPC   GL264034   0.626  31.064   5.776
 4926POPC   C1A64035   0.384  30.683   6.369
 4926POPC   D2A64036   0.553  30.469   6.748
 4926POPC   C3A64037   0.427  30.675   7.118
 4926POPC   C4A64038   0.164  30.900   7.406
 4926POPC   C1B64039   0.778  30.961   6.210
 4926POPC   C2B64040   0.815  30.892   6.649
 4926POPC   C3B64041   0.724  31.116   7.005
 4926POPC   C4B64042   0.797  31.363   7.346
 4927POPC   NC364043  17.383  11.640   5.224
 4927POPC   PO464044  17.712  11.026   5.393
 4927POPC   GL164045  17.647  11.186   5.871
 4927POPC   GL264046  17.313  11.234   6.047
 4927POPC   C1A64047  17.776  11.381   6.304
 4927POPC   D2A64048  17.872  11.516   6.705
 4927POPC   C3A64049  17.528  11.440   6.922
 4927POPC   C4A64050  17.472  11.508   7.292
 4927POPC   C1B64051  17.532  10.941   6.318
 4927POPC   C2B64052  17.650  10.985   6.737
 4927POPC   C3B64053  17.476  10.908   7.133
 4927POPC   C4B64054  17.170  11.134   7.399
 4928POPC   NC364055   3.913  19.785   5.231
 4928POPC   PO464056   3.290  19.438   5.259
 4928POPC   GL164057   3.565  19.613   5.616
 4928POPC   GL264058   3.524  19.981   5.688
 4928POPC   C1A64059   3.582  19.641   6.097
 4928POPC   D2A64060   3.549  19.416   6.530
 4928POPC   C3A64061   3.585  19.630   6.973
 4928POPC   C4A64062   3.320  19.732   7.377
 4928POPC   C1B64063   3.329  20.112   6.096
 4928POPC   C2B64064   3.345  19.918   6.524
 4928POPC   C3B64065   3.240  20.021   6.956
 4928POPC   C4B64066   3.241  20.266   7.357
 4929POPC   NC364067  38.841  35.558   5.594
 4929POPC   PO464068  38.204  35.539   5.456
 4929POPC   GL164069  38.393  35.381   5.849
 4929POPC   GL264070  38.615  35.080   5.893
 4929POPC   C1A64071  38.502  35.603   6.229
 4929POPC   D2A64072  38.622  35.575   6.653
 4929POPC   C3A64073  38.366  35.365   6.963
 4929POPC   C4A64074  38.536  35.406   7.375
 4929POPC   C1B64075  38.655  35.118   6.365
 4929POPC   C2B64076  38.752  35.064   6.816
 4929POPC   C3B64077  38.734  34.974   7.268
 4929POPC   C4B64078  38.591  35.058   7.741
 4930POPC   NC364079  36.812  22.588   5.432
 4930POPC   PO464080  36.801  23.229   5.589
 4930POPC   GL164081  36.893  23.154   5.964
 4930POPC   GL264082  36.982  22.815   5.864
 4930POPC   C1A64083  37.206  23.069   6.231
 4930POPC   D2A64084  37.172  22.884   6.608
 4930POPC   C3A64085  36.812  22.992   6.825
 4930POPC   C4A64086  36.867  23.111   7.239
 4930POPC   C1B64087  36.797  22.708   6.235
 4930POPC   C2B64088  36.803  22.341   6.449
 4930POPC   C3B64089  36.768  22.373   6.830
 4930POPC   C4B64090  36.852  22.602   7.173
 4931POPC   NC364091  17.646  32.108   5.310
 4931POPC   PO464092  17.148  32.336   5.415
 4931POPC   GL164093  17.385  32.115   5.763
 4931POPC   GL264094  17.583  32.387   5.804
 4931POPC   C1A64095  17.615  31.977   6.172
 4931POPC   D2A64096  17.439  31.939   6.608
 4931POPC   C3A64097  17.595  31.916   7.043
 4931POPC   C4A64098  17.535  32.116   7.471
 4931POPC   C1B64099  17.350  32.417   6.197
 4931POPC   C2B64100  17.431  32.453   6.631
 4931POPC   C3B64101  17.316  32.349   7.055
 4931POPC   C4B64102  17.222  32.607   7.408
 4932POPC   NC364103   4.948  24.708   5.537
 4932POPC   PO464104   5.401  24.313   5.351
 4932POPC   GL164105   5.187  24.224   5.737
 4932POPC   GL264106   4.829  24.257   5.766
 4932POPC   C1A64107   5.243  24.350   6.150
 4932POPC   D2A64108   5.312  24.548   6.539
 4932POPC   C3A64109   5.314  24.296   6.909
 4932POPC   C4A64110   5.128  24.326   7.324
 4932POPC   C1B64111   4.762  24.545   6.140
 4932POPC   C2B64112   4.845  24.788   6.526
 4932POPC   C3B64113   4.971  24.709   6.935
 4932POPC   C4B64114   4.703  24.600   7.296
 4933POPC   NC364115  43.231  28.717   5.295
 4933POPC   PO464116  43.017  29.313   5.240
 4933POPC   GL164117  43.032  29.072   5.622
 4933POPC   GL264118  42.736  28.957   5.759
 4933POPC   C1A64119  43.147  29.104   6.051
 4933POPC   D2A64120  43.096  29.341   6.441
 4933POPC   C3A64121  43.286  29.277   6.831
 4933POPC   C4A64122  43.117  29.387   7.203
 4933POPC   C1B64123  42.764  28.791   6.179
 4933POPC   C2B64124  42.572  28.773   6.592
 4933POPC   C3B64125  42.761  28.660   6.975
 4933POPC   C4B64126  42.913  28.913   7.300
 4934POPC   NC364127  21.856  42.190   5.328
 4934POPC   PO464128  21.441  41.830   5.606
 4934POPC   GL164129  21.527  42.241   5.830
 4934POPC   GL264130  21.203  42.451   5.904
 4934POPC   C1A64131  21.573  42.444   6.261
 4934POPC   D2A64132  21.330  42.334   6.647
 4934POPC   C3A64133  21.379  42.429   7.077
 4934POPC   C4A64134  21.700  42.370   7.356
 4934POPC   C1B64135  21.125  42.136   6.213
 4934POPC   C2B64136  20.869  42.113   6.594
 4934POPC   C3B64137  20.968  41.963   6.984
 4934POPC   C4B64138  21.137  42.068   7.397
 4935POPC   NC364139  44.348  20.963   5.544
 4935POPC   PO464140  44.943  20.660   5.452
 4935POPC   GL164141  44.674  20.670   5.841
 4935POPC   GL264142  44.561  20.368   5.987
 4935POPC   C1A64143  44.559  20.748   6.315
 4935POPC   D2A64144  44.392  20.532   6.693
 4935POPC   C3A64145  44.710  20.612   6.969
 4935POPC   C4A64146  44.736  20.768   7.404
 4935POPC   C1B64147  44.996  20.463   6.180
 4935POPC   C2B64148   0.291  20.380   6.528
 4935POPC   C3B64149   0.215  20.223   6.939
 4935POPC   C4B64150  44.848  20.201   7.241
 4936POPC   NC364151  42.497  33.539   5.412
 4936POPC   PO464152  42.274  34.113   5.485
 4936POPC   GL164153  42.387  33.846   5.810
 4936POPC   GL264154  42.115  33.617   5.750
 4936POPC   C1A64155  42.390  33.582   6.200
 4936POPC   D2A64156  42.586  33.710   6.593
 4936POPC   C3A64157  42.390  33.755   6.967
 4936POPC   C4A64158  42.437  33.828   7.376
 4936POPC   C1B64159  41.968  33.878   6.093
 4936POPC   C2B64160  42.076  33.827   6.533
 4936POPC   C3B64161  41.876  33.685   6.903
 4936POPC   C4B64162  42.007  33.580   7.330
 4937POPC   NC364163  13.307   4.003   5.324
 4937POPC   PO464164  13.990   3.998   5.403
 4937POPC   GL164165  13.859   4.143   5.861
 4937POPC   GL264166  13.537   4.172   5.773
 4937POPC   C1A64167  13.785   4.173   6.333
 4937POPC   D2A64168  13.898   4.126   6.770
 4937POPC   C3A64169  13.755   4.286   7.169
 4937POPC   C4A64170  13.967   4.478   7.541
 4937POPC   C1B64171  13.354   4.347   6.126
 4937POPC   C2B64172  13.349   4.346   6.576
 4937POPC   C3B64173  13.290   4.449   7.006
 4937POPC   C4B64174  13.326   4.355   7.401
 4938POPC   NC364175  35.821  31.324   5.462
 4938POPC   PO464176  36.249  31.759   5.285
 4938POPC   GL164177  36.198  31.616   5.700
 4938POPC   GL264178  36.289  31.242   5.726
 4938POPC   C1A64179  36.034  31.667   6.109
 4938POPC   D2A64180  35.853  31.349   6.404
 4938POPC   C3A64181  35.971  31.418   6.848
 4938POPC   C4A64182  35.823  31.310   7.259
 4938POPC   C1B64183  36.384  31.306   6.184
 4938POPC   C2B64184  36.566  31.476   6.590
 4938POPC   C3B64185  36.484  31.525   7.057
 4938POPC   C4B64186  36.336  31.307   7.425
 4939POPC   NC364187  11.698   6.154   5.418
 4939POPC   PO464188  12.326   5.893   5.436
 4939POPC   GL164189  12.120   5.799   5.793
 4939POPC   GL264190  11.804   5.618   5.759
 4939POPC   C1A64191  12.191   5.806   6.208
 4939POPC   D2A64192  12.157   5.651   6.628
 4939POPC   C3A64193  12.222   5.955   6.934
 4939POPC   C4A64194  11.874   6.102   7.189
 4939POPC   C1B64195  11.791   5.482   6.220
 4939POPC   C2B64196  11.792   5.274   6.626
 4939POPC   C3B64197  11.767   5.513   7.019
 4939POPC   C4B64198  12.080   5.638   7.304
 4940POPC   NC364199  27.599  25.131   5.323
 4940POPC   PO464200  27.792  25.648   5.761
 4940POPC   GL164201  27.585  25.275   5.797
 4940POPC   GL264202  27.817  25.006   5.841
 4940POPC   C1A64203  27.340  25.119   6.115
 4940POPC   D2A64204  27.309  25.349   6.511
 4940POPC   C3A64205  27.416  25.164   6.889
 4940POPC   C4A64206  27.612  25.319   7.261
 4940POPC   C1B64207  27.823  25.265   6.255
 4940POPC   C2B64208  27.842  25.350   6.696
 4940POPC   C3B64209  27.929  25.025   7.013
 4940POPC   C4B64210  28.088  25.163   7.432
 4941POPC   NC364211  31.677   9.881   5.432
 4941POPC   PO464212  31.160   9.564   5.222
 4941POPC   GL164213  31.284   9.797   5.738
 4941POPC   GL264214  31.652   9.691   5.903
 4941POPC   C1A64215  31.476  10.114   6.100
 4941POPC   D2A64216  31.785  10.171   6.455
 4941POPC   C3A64217  31.575  10.040   6.854
 4941POPC   C4A64218  31.346  10.030   7.236
 4941POPC   C1B64219  31.642   9.653   6.334
 4941POPC   C2B64220  31.568   9.422   6.694
 4941POPC   C3B64221  31.444   9.558   7.050
 4941POPC   C4B64222  31.805   9.709   7.258
 4942POPC   NC364223  31.360   2.572   5.408
 4942POPC   PO464224  31.758   3.079   5.263
 4942POPC   GL164225  31.782   2.825   5.620
 4942POPC   GL264226  31.450   2.920   5.778
 4942POPC   C1A64227  31.877   2.757   6.046
 4942POPC   D2A64228  31.645   2.929   6.354
 4942POPC   C3A64229  31.664   3.029   6.786
 4942POPC   C4A64230  31.628   2.836   7.195
 4942POPC   C1B64231  31.167   2.824   6.139
 4942POPC   C2B64232  31.234   2.697   6.553
 4942POPC   C3B64233  31.184   2.884   6.926
 4942POPC   C4B64234  31.148   2.655   7.276
 4943POPC   NC364235  19.471  37.357   5.486
 4943POPC   PO464236  18.927  37.702   5.437
 4943POPC   GL164237  19.075  37.510   5.798
 4943POPC   GL264238  19.184  37.849   5.879
 4943POPC   C1A64239  19.159  37.489   6.241
 4943POPC   D2A64240  18.926  37.724   6.615
 4943POPC   C3A64241  19.070  37.560   6.969
 4943POPC   C4A64242  19.258  37.590   7.331
 4943POPC   C1B64243  19.060  38.036   6.239
 4943POPC   C2B64244  19.236  38.214   6.643
 4943POPC   C3B64245  19.319  38.020   7.014
 4943POPC   C4B64246  19.269  38.089   7.411
 4944POPC   NC364247   6.067  36.875   5.565
 4944POPC   PO464248   5.523  36.396   5.363
 4944POPC   GL164249   5.499  36.704   5.753
 4944POPC   GL264250   5.624  37.071   5.794
 4944POPC   C1A64251   5.597  36.776   6.211
 4944POPC   D2A64252   5.693  36.534   6.589
 4944POPC   C3A64253   5.667  36.764   6.952
 4944POPC   C4A64254   6.095  36.738   7.088
 4944POPC   C1B64255   5.966  37.126   6.174
 4944POPC   C2B64256   5.962  37.084   6.650
 4944POPC   C3B64257   6.076  37.295   7.056
 4944POPC   C4B64258   6.144  37.299   7.524
 4945POPC   NC364259  10.238   8.063   5.584
 4945POPC   PO464260   9.751   8.460   5.178
 4945POPC   GL164261   9.703   8.169   5.607
 4945POPC   GL264262   9.807   8.297   5.957
 4945POPC   C1A64263   9.619   7.841   5.962
 4945POPC   D2A64264   9.620   7.884   6.446
 4945POPC   C3A64265   9.868   8.042   6.815
 4945POPC   C4A64266   9.739   8.087   7.246
 4945POPC   C1B64267   9.860   8.604   6.286
 4945POPC   C2B64268   9.978   8.567   6.721
 4945POPC   C3B64269   9.833   8.548   7.119
 4945POPC   C4B64270   9.749   8.577   7.552
 4946POPC   NC364271  30.244  37.812   5.033
 4946POPC   PO464272  29.751  37.551   5.339
 4946POPC   GL164273  29.836  37.602   5.810
 4946POPC   GL264274  29.833  37.293   5.925
 4946POPC   C1A64275  29.928  37.750   6.292
 4946POPC   D2A64276  30.113  37.989   6.699
 4946POPC   C3A64277  29.980  37.910   7.133
 4946POPC   C4A64278  29.818  37.501   7.222
 4946POPC   C1B64279  30.184  37.294   6.209
 4946POPC   C2B64280  30.318  37.529   6.572
 4946POPC   C3B64281  30.291  37.545   7.013
 4946POPC   C4B64282  30.366  37.721   7.446
 4947POPC   NC364283   3.472   4.993   5.360
 4947POPC   PO464284   4.009   5.488   5.392
 4947POPC   GL164285   4.002   5.228   5.804
 4947POPC   GL264286   3.701   4.996   5.828
 4947POPC   C1A64287   3.922   5.102   6.277
 4947POPC   D2A64288   3.679   4.831   6.584
 4947POPC   C3A64289   3.538   5.065   6.934
 4947POPC   C4A64290   3.820   5.248   7.232
 4947POPC   C1B64291   3.382   4.944   6.167
 4947POPC   C2B64292   3.166   4.783   6.552
 4947POPC   C3B64293   3.220   4.660   7.012
 4947POPC   C4B64294   3.574   4.731   7.315
 4948POPC   NC364295  24.711  33.994   5.208
 4948POPC   PO464296  24.365  33.545   5.544
 4948POPC   GL164297  24.332  33.798   5.867
 4948POPC   GL264298  24.528  34.090   5.743
 4948POPC   C1A64299  24.301  33.651   6.314
 4948POPC   D2A64300  24.679  33.597   6.590
 4948POPC   C3A64301  24.666  33.585   7.036
 4948POPC   C4A64302  24.541  33.749   7.441
 4948POPC   C1B64303  24.715  33.935   6.149
 4948POPC   C2B64304  24.856  34.085   6.525
 4948POPC   C3B64305  24.686  34.073   6.927
 4948POPC   C4B64306  24.253  33.877   7.011
 4949POPC   NC364307  18.604  43.989   5.444
 4949POPC   PO464308  19.218  44.036   5.339
 4949POPC   GL164309  19.021  43.990   5.755
 4949POPC   GL264310  18.863  43.665   5.739
 4949POPC   C1A64311  18.909  44.077   6.211
 4949POPC   D2A64312  19.042  44.192   6.657
 4949POPC   C3A64313  18.841  44.048   7.058
 4949POPC   C4A64314  18.996  44.167   7.504
 4949POPC   C1B64315  18.934  43.539   6.134
 4949POPC   C2B64316  18.905  43.673   6.553
 4949POPC   C3B64317  19.166  43.668   6.906
 4949POPC   C4B64318  19.081  43.656   7.331
 4950POPC   NC364319  43.955  38.839   5.299
 4950POPC   PO464320  43.619  39.400   5.398
 4950POPC   GL164321  43.787  39.353   5.791
 4950POPC   GL264322  43.888  39.008   5.784
 4950POPC   C1A64323  43.799  39.554   6.207
 4950POPC   D2A64324  43.969  39.682   6.596
 4950POPC   C3A64325  43.709  39.578   6.936
 4950POPC   C4A64326  43.784  39.233   7.191
 4950POPC   C1B64327  44.023  39.109   6.191
 4950POPC   C2B64328  43.904  39.164   6.624
 4950POPC   C3B64329  44.113  38.932   6.956
 4950POPC   C4B64330  43.743  38.693   7.072
 4951POPC   NC364331  40.003  17.466   5.101
 4951POPC   PO464332  39.574  17.162   5.345
 4951POPC   GL164333  39.652  17.205   5.848
 4951POPC   GL264334  39.706  17.548   5.954
 4951POPC   C1A64335  39.869  17.218   6.326
 4951POPC   D2A64336  39.899  17.437   6.774
 4951POPC   C3A64337  39.757  17.315   7.194
 4951POPC   C4A64338  39.846  16.881   7.403
 4951POPC   C1B64339  39.847  17.732   6.355
 4951POPC   C2B64340  39.634  17.861   6.744
 4951POPC   C3B64341  39.842  17.989   7.124
 4951POPC   C4B64342  39.713  18.113   7.561
 4952POPC   NC364343  32.846  16.984   4.916
 4952POPC   PO464344  33.169  17.273   5.449
 4952POPC   GL164345  32.975  17.473   5.829
 4952POPC   GL264346  32.600  17.524   5.759
 4952POPC   C1A64347  32.972  17.647   6.281
 4952POPC   D2A64348  32.897  17.735   6.719
 4952POPC   C3A64349  33.240  17.786   7.027
 4952POPC   C4A64350  33.197  17.678   7.476
 4952POPC   C1B64351  32.624  17.290   6.153
 4952POPC   C2B64352  32.795  17.203   6.550
 4952POPC   C3B64353  32.656  17.254   6.953
 4952POPC   C4B64354  32.778  17.583   7.214
 4953POPC   NC364355  35.043  21.044   5.445
 4953POPC   PO464356  35.269  20.417   5.209
 4953POPC   GL164357  35.279  20.461   5.680
 4953POPC   GL264358  35.589  20.439   5.889
 4953POPC   C1A64359  35.155  20.599   6.100
 4953POPC   D2A64360  35.427  20.663   6.472
 4953POPC   C3A64361  35.316  20.539   6.890
 4953POPC   C4A64362  35.102  20.663   7.293
 4953POPC   C1B64363  35.748  20.287   6.275
 4953POPC   C2B64364  35.926  20.553   6.588
 4953POPC   C3B64365  35.794  20.748   6.953
 4953POPC   C4B64366  35.760  20.438   7.224
 4954POPC   NC364367  40.818  38.057   5.062
 4954POPC   PO464368  41.112  37.437   5.372
 4954POPC   GL164369  40.891  37.522   5.725
 4954POPC   GL264370  40.525  37.572   5.672
 4954POPC   C1A64371  41.043  37.608   6.137
 4954POPC   D2A64372  41.046  37.450   6.555
 4954POPC   C3A64373  41.234  37.720   6.836
 4954POPC   C4A64374  41.119  37.781   7.259
 4954POPC   C1B64375  40.563  37.781   6.067
 4954POPC   C2B64376  40.746  37.885   6.475
 4954POPC   C3B64377  40.748  37.867   6.901
 4954POPC   C4B64378  40.601  37.719   7.273
 4955POPC   NC364379  11.603  34.052   5.612
 4955POPC   PO464380  11.953  33.632   5.274
 4955POPC   GL164381  12.084  33.788   5.774
 4955POPC   GL264382  11.873  33.986   6.020
 4955POPC   C1A64383  12.300  33.923   6.233
 4955POPC   D2A64384  12.198  34.012   6.683
 4955POPC   C3A64385  12.366  33.732   7.019
 4955POPC   C4A64386  12.341  33.729   7.493
 4955POPC   C1B64387  11.879  33.630   6.335
 4955POPC   C2B64388  11.864  33.592   6.800
 4955POPC   C3B64389  11.883  33.889   7.119
 4955POPC   C4B64390  11.899  34.005   7.548
 4956POPC   NC364391  37.682  37.016   5.581
 4956POPC   PO464392  38.198  36.539   5.438
 4956POPC   GL164393  37.972  36.722   5.850
 4956POPC   GL264394  37.628  36.651   5.920
 4956POPC   C1A64395  37.916  36.963   6.267
 4956POPC   D2A64396  37.829  37.113   6.720
 4956POPC   C3A64397  37.822  36.858   7.107
 4956POPC   C4A64398  37.899  36.904   7.572
 4956POPC   C1B64399  37.405  36.924   6.209
 4956POPC   C2B64400  37.339  37.075   6.596
 4956POPC   C3B64401  37.293  36.906   6.990
 4956POPC   C4B64402  37.399  36.691   7.409
 4957POPC   NC364403   7.010   7.834   5.604
 4957POPC   PO464404   6.435   7.594   5.313
 4957POPC   GL164405   6.355   7.503   5.785
 4957POPC   GL264406   6.375   7.850   5.824
 4957POPC   C1A64407   6.358   7.320   6.276
 4957POPC   D2A64408   6.387   7.386   6.770
 4957POPC   C3A64409   6.832   7.377   6.999
 4957POPC   C4A64410   7.131   7.359   7.388
 4957POPC   C1B64411   6.492   7.849   6.228
 4957POPC   C2B64412   6.690   7.852   6.626
 4957POPC   C3B64413   6.575   7.828   7.043
 4957POPC   C4B64414   6.689   7.644   7.424
 4958POPC   NC364415   1.523  36.738   5.363
 4958POPC   PO464416   2.145  36.949   5.557
 4958POPC   GL164417   2.024  37.201   5.923
 4958POPC   GL264418   2.096  36.944   6.139
 4958POPC   C1A64419   1.746  37.343   6.283
 4958POPC   D2A64420   1.829  37.278   6.718
 4958POPC   C3A64421   1.672  36.984   7.054
 4958POPC   C4A64422   1.973  36.685   7.341
 4958POPC   C1B64423   2.261  37.279   6.392
 4958POPC   C2B64424   2.355  37.324   6.797
 4958POPC   C3B64425   2.170  37.126   7.136
 4958POPC   C4B64426   2.315  37.028   7.550
 4959POPC   NC364427  22.350  39.112   5.457
 4959POPC   PO464428  21.804  39.342   5.525
 4959POPC   GL164429  22.017  39.012   5.860
 4959POPC   GL264430  22.361  38.809   5.870
 4959POPC   C1A64431  22.229  39.047   6.312
 4959POPC   D2A64432  22.344  39.338   6.694
 4959POPC   C3A64433  22.146  39.288   7.113
 4959POPC   C4A64434  21.964  39.604   7.385
 4959POPC   C1B64435  22.658  38.745   6.191
 4959POPC   C2B64436  22.690  38.981   6.575
 4959POPC   C3B64437  22.589  39.009   7.031
 4959POPC   C4B64438  22.352  38.881   7.414
 4960POPC   NC364439  25.606  35.571   5.467
 4960POPC   PO464440  24.963  35.293   5.567
 4960POPC   GL164441  25.310  35.364   5.818
 4960POPC   GL264442  25.519  35.099   5.890
 4960POPC   C1A64443  25.349  35.536   6.200
 4960POPC   D2A64444  25.137  35.490   6.565
 4960POPC   C3A64445  25.379  35.564   6.921
 4960POPC   C4A64446  25.131  35.489   7.272
 4960POPC   C1B64447  25.515  35.049   6.263
 4960POPC   C2B64448  25.480  35.133   6.657
 4960POPC   C3B64449  25.198  35.085   6.950
 4960POPC   C4B64450  25.486  35.084   7.267
 4961POPC   NC364451  16.285  28.460   5.523
 4961POPC   PO464452  16.898  28.451   5.561
 4961POPC   GL164453  16.617  28.425   5.940
 4961POPC   GL264454  16.336  28.651   6.032
 4961POPC   C1A64455  16.524  28.337   6.390
 4961POPC   D2A64456  16.353  28.497   6.798
 4961POPC   C3A64457  16.654  28.303   7.085
 4961POPC   C4A64458  17.114  28.219   7.064
 4961POPC   C1B64459  16.557  28.838   6.443
 4961POPC   C2B64460  16.857  28.632   6.728
 4961POPC   C3B64461  16.961  28.719   7.155
 4961POPC   C4B64462  16.963  28.899   7.572
 4962POPC   NC364463   7.928  25.892   5.275
 4962POPC   PO464464   8.484  25.660   5.540
 4962POPC   GL164465   8.194  25.917   5.743
 4962POPC   GL264466   7.862  25.784   5.812
 4962POPC   C1A64467   8.179  25.992   6.185
 4962POPC   D2A64468   8.353  25.856   6.588
 4962POPC   C3A64469   8.305  26.160   6.952
 4962POPC   C4A64470   8.587  26.361   7.239
 4962POPC   C1B64471   7.855  25.572   6.250
 4962POPC   C2B64472   7.882  25.626   6.732
 4962POPC   C3B64473   7.934  25.858   7.147
 4962POPC   C4B64474   7.898  25.807   7.624
 4963POPC   NC364475  18.595  17.179   5.468
 4963POPC   PO464476  18.278  16.564   5.283
 4963POPC   GL164477  18.269  16.835   5.696
 4963POPC   GL264478  17.982  17.064   5.807
 4963POPC   C1A64479  18.170  16.657   6.114
 4963POPC   D2A64480  18.057  16.809   6.562
 4963POPC   C3A64481  18.441  16.835   6.779
 4963POPC   C4A64482  18.646  16.731   7.148
 4963POPC   C1B64483  18.228  17.149   6.192
 4963POPC   C2B64484  18.320  17.297   6.613
 4963POPC   C3B64485  18.139  17.174   7.021
 4963POPC   C4B64486  17.988  16.946   7.363
 4964POPC   NC364487   2.231   8.170   5.193
 4964POPC   PO464488   1.727   7.911   5.539
 4964POPC   GL164489   1.914   8.148   5.858
 4964POPC   GL264490   2.252   8.185   5.754
 4964POPC   C1A64491   1.885   8.300   6.283
 4964POPC   D2A64492   1.597   8.471   6.569
 4964POPC   C3A64493   1.653   8.259   6.967
 4964POPC   C4A64494   1.863   8.028   7.332
 4964POPC   C1B64495   2.403   8.330   6.189
 4964POPC   C2B64496   2.286   8.389   6.631
 4964POPC   C3B64497   2.163   8.339   7.054
 4964POPC   C4B64498   2.397   8.357   7.431
 4965POPC   NC364499  15.803  37.008   5.436
 4965POPC   PO464500  16.172  36.535   5.484
 4965POPC   GL164501  16.113  36.919   5.846
 4965POPC   GL264502  15.789  37.137   5.931
 4965POPC   C1A64503  16.156  37.068   6.319
 4965POPC   D2A64504  15.974  37.085   6.761
 4965POPC   C3A64505  16.208  37.040   7.163
 4965POPC   C4A64506  16.271  36.729   7.485
 4965POPC   C1B64507  15.603  37.121   6.354
 4965POPC   C2B64508  15.335  37.062   6.740
 4965POPC   C3B64509  15.556  37.039   7.139
 4965POPC   C4B64510  15.837  37.049   7.502
 4966POPC   NC364511   1.314  18.361   5.427
 4966POPC   PO464512   1.560  17.835   5.793
 4966POPC   GL164513   1.388  18.263   5.948
 4966POPC   GL264514   1.150  18.571   5.898
 4966POPC   C1A64515   1.289  18.454   6.388
 4966POPC   D2A64516   1.347  18.501   6.835
 4966POPC   C3A64517   1.211  18.129   7.052
 4966POPC   C4A64518   1.243  18.179   7.503
 4966POPC   C1B64519   0.817  18.404   6.224
 4966POPC   C2B64520   0.870  18.381   6.699
 4966POPC   C3B64521   0.899  18.512   7.170
 4966POPC   C4B64522   0.795  18.393   7.637
 4967POPC   NC364523   5.820   8.921   5.395
 4967POPC   PO464524   5.700   8.399   5.682
 4967POPC   GL164525   5.753   8.820   5.899
 4967POPC   GL264526   5.883   9.201   5.811
 4967POPC   C1A64527   6.080   8.935   6.199
 4967POPC   D2A64528   6.225   9.014   6.601
 4967POPC   C3A64529   5.885   9.086   6.891
 4967POPC   C4A64530   5.696   8.763   7.093
 4967POPC   C1B64531   6.178   9.448   6.102
 4967POPC   C2B64532   6.401   9.475   6.512
 4967POPC   C3B64533   6.250   9.449   6.931
 4967POPC   C4B64534   6.034   9.346   7.299
 4968POPC   NC364535  34.773  34.470   5.080
 4968POPC   PO464536  35.225  34.781   5.459
 4968POPC   GL164537  35.194  34.562   5.811
 4968POPC   GL264538  35.505  34.447   5.822
 4968POPC   C1A64539  35.039  34.474   6.206
 4968POPC   D2A64540  35.275  34.513   6.555
 4968POPC   C3A64541  35.197  34.315   6.901
 4968POPC   C4A64542  35.255  34.485   7.268
 4968POPC   C1B64543  35.661  34.569   6.214
 4968POPC   C2B64544  35.754  34.350   6.614
 4968POPC   C3B64545  35.699  34.410   7.051
 4968POPC   C4B64546  35.675  34.339   7.535
 4969POPC   NC364547  18.161   1.468   5.511
 4969POPC   PO464548  18.094   0.803   5.328
 4969POPC   GL164549  18.220   0.928   5.781
 4969POPC   GL264550  18.080   1.227   5.965
 4969POPC   C1A64551  18.499   1.031   6.154
 4969POPC   D2A64552  18.464   1.448   6.369
 4969POPC   C3A64553  18.253   1.444   6.789
 4969POPC   C4A64554  18.362   1.532   7.219
 4969POPC   C1B64555  18.046   1.114   6.424
 4969POPC   C2B64556  18.255   0.927   6.783
 4969POPC   C3B64557  18.206   1.035   7.216
 4969POPC   C4B64558  17.841   1.070   7.482
 4970POPC   NC364559  30.508  26.478   5.552
 4970POPC   PO464560  30.969  26.030   5.322
 4970POPC   GL164561  30.860  26.075   5.771
 4970POPC   GL264562  30.702  25.751   5.843
 4970POPC   C1A64563  30.760  26.180   6.225
 4970POPC   D2A64564  30.636  26.370   6.651
 4970POPC   C3A64565  30.757  26.166   7.072
 4970POPC   C4A64566  30.704  26.177   7.555
 4970POPC   C1B64567  30.595  25.677   6.267
 4970POPC   C2B64568  30.635  25.843   6.677
 4970POPC   C3B64569  30.710  25.655   7.078
 4970POPC   C4B64570  30.998  25.821   7.396
 4971POPC   NC364571  33.612   4.014   5.572
 4971POPC   PO464572  33.429   3.343   5.445
 4971POPC   GL164573  33.778   3.469   5.710
 4971POPC   GL264574  33.554   3.622   5.893
 4971POPC   C1A64575  33.939   3.393   6.149
 4971POPC   D2A64576  33.797   3.409   6.615
 4971POPC   C3A64577  33.927   3.572   7.047
 4971POPC   C4A64578  34.025   3.271   7.377
 4971POPC   C1B64579  33.431   3.349   6.231
 4971POPC   C2B64580  33.346   3.146   6.603
 4971POPC   C3B64581  33.452   3.334   6.978
 4971POPC   C4B64582  33.245   3.432   7.303
 4972POPC   NC364583  42.460  38.982   5.555
 4972POPC   PO464584  42.116  38.470   5.205
 4972POPC   GL164585  42.262  38.524   5.682
 4972POPC   GL264586  42.604  38.442   5.704
 4972POPC   C1A64587  42.317  38.312   6.120
 4972POPC   D2A64588  42.524  38.338   6.542
 4972POPC   C3A64589  42.276  38.449   6.911
 4972POPC   C4A64590  41.909  38.229   7.062
 4972POPC   C1B64591  42.764  38.580   6.154
 4972POPC   C2B64592  42.904  38.735   6.607
 4972POPC   C3B64593  42.916  38.772   7.061
 4972POPC   C4B64594  42.550  38.707   7.282
 4973POPC   NC364595  28.953   1.786   5.364
 4973POPC   PO464596  29.517   2.094   5.385
 4973POPC   GL164597  29.345   2.250   5.779
 4973POPC   GL264598  29.151   1.976   5.826
 4973POPC   C1A64599  29.201   2.369   6.210
 4973POPC   D2A64600  29.145   2.045   6.532
 4973POPC   C3A64601  29.220   2.138   6.967
 4973POPC   C4A64602  29.291   1.905   7.349
 4973POPC   C1B64603  28.820   2.043   6.115
 4973POPC   C2B64604  28.630   2.024   6.509
 4973POPC   C3B64605  28.690   2.117   6.920
 4973POPC   C4B64606  28.524   2.309   7.282
 4974POPC   NC364607   2.663  12.841   5.093
 4974POPC   PO464608   3.020  13.242   5.544
 4974POPC   GL164609   2.926  13.166   5.992
 4974POPC   GL264610   2.824  12.832   6.065
 4974POPC   C1A64611   2.816  13.172   6.432
 4974POPC   D2A64612   2.602  12.870   6.646
 4974POPC   C3A64613   2.637  13.071   7.000
 4974POPC   C4A64614   2.776  13.193   7.379
 4974POPC   C1B64615   2.623  12.501   6.251
 4974POPC   C2B64616   2.429  12.389   6.651
 4974POPC   C3B64617   2.521  12.536   7.050
 4974POPC   C4B64618   2.882  12.680   7.270
 4975POPC   NC364619  20.569  28.765   5.627
 4975POPC   PO464620  20.351  29.343   5.340
 4975POPC   GL164621  20.538  29.354   5.718
 4975POPC   GL264622  20.274  29.161   5.889
 4975POPC   C1A64623  20.748  29.225   6.092
 4975POPC   D2A64624  20.612  29.108   6.499
 4975POPC   C3A64625  20.802  28.842   6.811
 4975POPC   C4A64626  21.026  28.978   7.181
 4975POPC   C1B64627  20.209  28.907   6.272
 4975POPC   C2B64628  20.263  28.812   6.729
 4975POPC   C3B64629  20.415  29.055   7.091
 4975POPC   C4B64630  20.155  29.013   7.471
 4976POPC   NC364631  17.793  31.119   5.300
 4976POPC   PO464632  17.988  31.803   5.308
 4976POPC   GL164633  17.690  31.693   5.686
 4976POPC   GL264634  17.757  31.335   5.765
 4976POPC   C1A64635  17.406  31.536   6.074
 4976POPC   D2A64636  17.396  31.277   6.471
 4976POPC   C3A64637  17.376  31.468   6.898
 4976POPC   C4A64638  17.507  31.378   7.325
 4976POPC   C1B64639  17.874  31.365   6.207
 4976POPC   C2B64640  17.798  31.562   6.608
 4976POPC   C3B64641  17.923  31.505   7.036
 4976POPC   C4B64642  17.872  31.724   7.437
 4977POPC   NC364643  13.904  38.791   5.605
 4977POPC   PO464644  14.491  38.520   5.519
 4977POPC   GL164645  14.496  38.435   5.933
 4977POPC   GL264646  14.665  38.699   6.114
 4977POPC   C1A64647  14.512  38.225   6.336
 4977POPC   D2A64648  14.633  38.295   6.756
 4977POPC   C3A64649  14.603  38.082   7.150
 4977POPC   C4A64650  14.497  38.339   7.513
 4977POPC   C1B64651  14.212  38.750   6.204
 4977POPC   C2B64652  14.019  38.609   6.544
 4977POPC   C3B64653  14.259  38.599   6.915
 4977POPC   C4B64654  14.237  38.840   7.280
 4978POPC   NC364655  14.169  22.477   5.763
 4978POPC   PO464656  14.667  22.187   5.457
 4978POPC   GL164657  14.487  22.020   5.839
 4978POPC   GL264658  14.627  22.321   5.983
 4978POPC   C1A64659  14.440  21.992   6.323
 4978POPC   D2A64660  14.565  22.107   6.758
 4978POPC   C3A64661  14.265  21.963   7.073
 4978POPC   C4A64662  14.081  21.661   7.363
 4978POPC   C1B64663  14.699  22.486   6.413
 4978POPC   C2B64664  14.936  22.461   6.823
 4978POPC   C3B64665  14.696  22.418   7.191
 4978POPC   C4B64666  14.258  22.524   7.144
 4979POPC   NC364667  32.055   2.766   5.093
 4979POPC   PO464668  32.555   2.486   5.152
 4979POPC   GL164669  32.277   2.602   5.611
 4979POPC   GL264670  32.332   2.869   5.861
 4979POPC   C1A64671  32.271   2.432   6.107
 4979POPC   D2A64672  31.968   2.475   6.495
 4979POPC   C3A64673  32.034   2.608   6.956
 4979POPC   C4A64674  31.960   2.549   7.463
 4979POPC   C1B64675  32.586   2.820   6.204
 4979POPC   C2B64676  32.492   2.649   6.586
 4979POPC   C3B64677  32.580   2.881   6.925
 4979POPC   C4B64678  32.376   2.806   7.292
 4980POPC   NC364679  38.215  43.421   5.485
 4980POPC   PO464680  38.824  42.958   5.422
 4980POPC   GL164681  38.738  43.030   5.862
 4980POPC   GL264682  38.629  43.383   5.832
 4980POPC   C1A64683  38.552  42.971   6.300
 4980POPC   D2A64684  38.156  43.002   6.565
 4980POPC   C3A64685  38.208  43.156   6.998
 4980POPC   C4A64686  38.617  43.014   7.163
 4980POPC   C1B64687  38.434  43.463   6.226
 4980POPC   C2B64688  38.551  43.411   6.653
 4980POPC   C3B64689  38.863  43.397   6.976
 4980POPC   C4B64690  38.748  43.458   7.464
 4981POPC   NC364691  40.127  26.925   5.490
 4981POPC   PO464692  39.638  26.433   5.479
 4981POPC   GL164693  39.798  26.721   5.814
 4981POPC   GL264694  40.184  26.652   5.918
 4981POPC   C1A64695  39.887  26.985   6.181
 4981POPC   D2A64696  39.903  26.828   6.607
 4981POPC   C3A64697  39.984  27.015   6.992
 4981POPC   C4A64698  39.617  26.920   7.222
 4981POPC   C1B64699  40.334  26.726   6.346
 4981POPC   C2B64700  40.364  26.678   6.810
 4981POPC   C3B64701  40.338  26.677   7.258
 4981POPC   C4B64702  40.523  26.776   7.687
 4982POPC   NC364703   2.719   8.827   5.365
 4982POPC   PO464704   3.336   9.064   5.324
 4982POPC   GL164705   3.078   8.975   5.711
 4982POPC   GL264706   2.777   9.191   5.789
 4982POPC   C1A64707   3.044   9.011   6.163
 4982POPC   D2A64708   3.164   9.224   6.533
 4982POPC   C3A64709   2.958   9.060   6.902
 4982POPC   C4A64710   2.618   9.169   7.156
 4982POPC   C1B64711   2.526   8.995   6.147
 4982POPC   C2B64712   2.618   8.805   6.571
 4982POPC   C3B64713   2.583   8.656   6.991
 4982POPC   C4B64714   2.256   8.822   7.227
 4983POPC   NC364715  38.507  37.415   5.507
 4983POPC   PO464716  38.261  38.069   5.272
 4983POPC   GL164717  38.131  37.936   5.746
 4983POPC   GL264718  38.115  37.553   5.802
 4983POPC   C1A64719  38.122  37.821   6.216
 4983POPC   D2A64720  38.112  37.480   6.513
 4983POPC   C3A64721  38.340  37.512   6.864
 4983POPC   C4A64722  38.252  37.739   7.200
 4983POPC   C1B64723  38.339  37.280   6.116
 4983POPC   C2B64724  38.642  37.244   6.474
 4983POPC   C3B64725  38.755  37.205   6.921
 4983POPC   C4B64726  38.627  37.405   7.326
 4984POPC   NC364727   9.881  31.380   5.323
 4984POPC   PO464728   9.728  31.977   5.463
 4984POPC   GL164729   9.659  31.606   5.741
 4984POPC   GL264730   9.493  31.255   5.636
 4984POPC   C1A64731   9.788  31.337   6.087
 4984POPC   D2A64732   9.976  31.303   6.518
 4984POPC   C3A64733   9.743  31.346   6.911
 4984POPC   C4A64734   9.791  31.432   7.337
 4984POPC   C1B64735   9.394  30.970   5.991
 4984POPC   C2B64736   9.221  30.922   6.416
 4984POPC   C3B64737   9.365  31.034   6.825
 4984POPC   C4B64738   9.478  30.986   7.235
 4985POPC   NC364739  38.273  11.054   5.369
 4985POPC   PO464740  38.653  11.630   5.461
 4985POPC   GL164741  38.520  11.316   5.761
 4985POPC   GL264742  38.171  11.335   5.813
 4985POPC   C1A64743  38.478  11.215   6.199
 4985POPC   D2A64744  38.581  11.449   6.557
 4985POPC   C3A64745  38.647  11.156   6.854
 4985POPC   C4A64746  38.675  11.224   7.268
 4985POPC   C1B64747  38.021  11.458   6.220
 4985POPC   C2B64748  38.092  11.248   6.650
 4985POPC   C3B64749  38.178  11.212   7.114
 4985POPC   C4B64750  38.230  11.076   7.589
 4986POPC   NC364751  25.051  11.455   5.486
 4986POPC   PO464752  25.642  11.058   5.468
 4986POPC   GL164753  25.544  11.296   5.863
 4986POPC   GL264754  25.285  11.561   5.928
 4986POPC   C1A64755  25.441  11.272   6.315
 4986POPC   D2A64756  25.259  10.985   6.601
 4986POPC   C3A64757  25.356  11.150   6.987
 4986POPC   C4A64758  25.089  11.354   7.235
 4986POPC   C1B64759  25.215  11.779   6.322
 4986POPC   C2B64760  25.123  11.670   6.760
 4986POPC   C3B64761  24.815  11.751   7.078
 4986POPC   C4B64762  24.635  11.547   7.430
 4987POPC   NC364763  43.643  13.722   5.480
 4987POPC   PO464764  43.959  13.258   5.206
 4987POPC   GL164765  44.032  13.383   5.688
 4987POPC   GL264766  44.070  13.717   5.761
 4987POPC   C1A64767  44.163  13.470   6.169
 4987POPC   D2A64768  43.878  13.567   6.523
 4987POPC   C3A64769  43.837  13.362   6.897
 4987POPC   C4A64770  43.991  13.341   7.282
 4987POPC   C1B64771  43.863  13.903   6.127
 4987POPC   C2B64772  43.725  14.063   6.528
 4987POPC   C3B64773  43.485  14.017   6.901
 4987POPC   C4B64774  43.620  13.748   7.239
 4988POPC   NC364775   8.443  25.180   5.361
 4988POPC   PO464776   9.080  24.946   5.461
 4988POPC   GL164777   8.946  25.286   5.730
 4988POPC   GL264778   8.627  25.192   5.839
 4988POPC   C1A64779   8.958  25.477   6.162
 4988POPC   D2A64780   9.307  25.569   6.483
 4988POPC   C3A64781   9.169  25.602   6.935
 4988POPC   C4A64782   9.288  25.649   7.390
 4988POPC   C1B64783   8.654  25.080   6.276
 4988POPC   C2B64784   8.828  25.301   6.652
 4988POPC   C3B64785   8.975  25.110   7.042
 4988POPC   C4B64786   8.909  25.077   7.520
 4989POPC   NC364787  19.611   7.532   5.167
 4989POPC   PO464788  19.965   7.028   5.405
 4989POPC   GL164789  19.849   7.313   5.743
 4989POPC   GL264790  19.747   7.653   5.660
 4989POPC   C1A64791  19.775   7.310   6.208
 4989POPC   D2A64792  19.868   6.987   6.530
 4989POPC   C3A64793  20.079   7.081   6.917
 4989POPC   C4A64794  19.786   7.242   7.222
 4989POPC   C1B64795  19.492   7.734   6.030
 4989POPC   C2B64796  19.405   7.614   6.479
 4989POPC   C3B64797  19.719   7.507   6.787
 4989POPC   C4B64798  20.114   7.594   7.022
 4990POPC   NC364799  42.884   9.123   5.247
 4990POPC   PO464800  43.323   8.636   5.426
 4990POPC   GL164801  43.097   8.809   5.761
 4990POPC   GL264802  43.107   9.163   5.718
 4990POPC   C1A64803  43.116   8.928   6.227
 4990POPC   D2A64804  43.271   8.806   6.661
 4990POPC   C3A64805  42.991   8.852   7.042
 4990POPC   C4A64806  42.795   8.860   7.463
 4990POPC   C1B64807  43.377   9.328   6.042
 4990POPC   C2B64808  43.300   9.376   6.473
 4990POPC   C3B64809  43.256   9.262   6.889
 4990POPC   C4B64810  43.533   9.408   7.194
 4991POPC   NC364811  35.762  29.725   5.457
 4991POPC   PO464812  36.422  29.778   5.488
 4991POPC   GL164813  36.120  29.907   5.784
 4991POPC   GL264814  35.839  30.171   5.816
 4991POPC   C1A64815  35.974  29.806   6.170
 4991POPC   D2A64816  35.839  29.778   6.576
 4991POPC   C3A64817  36.094  29.887   6.878
 4991POPC   C4A64818  36.025  29.982   7.258
 4991POPC   C1B64819  36.190  30.302   6.090
 4991POPC   C2B64820  36.307  30.426   6.490
 4991POPC   C3B64821  36.178  30.405   6.884
 4991POPC   C4B64822  36.381  30.375   7.278
 4992POPC   NC364823  28.965  33.361   5.304
 4992POPC   PO464824  29.474  32.865   5.267
 4992POPC   GL164825  29.212  33.023   5.601
 4992POPC   GL264826  29.416  33.304   5.708
 4992POPC   C1A64827  29.079  33.125   6.044
 4992POPC   D2A64828  29.271  33.148   6.476
 4992POPC   C3A64829  29.054  32.969   6.830
 4992POPC   C4A64830  28.725  32.971   7.141
 4992POPC   C1B64831  29.505  33.477   6.140
 4992POPC   C2B64832  29.447  33.604   6.609
 4992POPC   C3B64833  29.401  33.416   7.065
 4992POPC   C4B64834  29.205  33.077   7.306
 4993POPC   NC364835  27.901  26.092   5.570
 4993POPC   PO464836  27.574  25.578   5.279
 4993POPC   GL164837  27.420  25.974   5.707
 4993POPC   GL264838  27.607  26.275   5.935
 4993POPC   C1A64839  27.362  25.919   6.190
 4993POPC   D2A64840  27.658  25.894   6.548
 4993POPC   C3A64841  27.515  25.699   6.926
 4993POPC   C4A64842  27.536  25.817   7.367
 4993POPC   C1B64843  27.972  26.288   6.253
 4993POPC   C2B64844  28.081  26.167   6.685
 4993POPC   C3B64845  27.796  26.129   7.028
 4993POPC   C4B64846  27.668  26.324   7.421
 4994POPC   NC364847   8.030  21.691   5.530
 4994POPC   PO464848   8.358  22.192   5.447
 4994POPC   GL164849   8.312  22.292   5.850
 4994POPC   GL264850   7.960  22.148   5.871
 4994POPC   C1A64851   8.322  22.113   6.243
 4994POPC   D2A64852   7.995  22.160   6.518
 4994POPC   C3A64853   8.129  22.317   6.880
 4994POPC   C4A64854   8.239  22.140   7.256
 4994POPC   C1B64855   7.885  21.793   6.159
 4994POPC   C2B64856   7.667  21.753   6.551
 4994POPC   C3B64857   7.756  21.940   6.922
 4994POPC   C4B64858   7.757  21.746   7.286
 4995POPC   NC364859  24.252  41.937   5.050
 4995POPC   PO464860  24.673  41.652   5.448
 4995POPC   GL164861  24.655  41.509   5.847
 4995POPC   GL264862  24.327  41.669   5.864
 4995POPC   C1A64863  24.485  41.265   6.192
 4995POPC   D2A64864  24.365  41.415   6.585
 4995POPC   C3A64865  24.383  41.286   6.999
 4995POPC   C4A64866  24.358  41.505   7.398
 4995POPC   C1B64867  24.463  41.788   6.247
 4995POPC   C2B64868  24.262  41.889   6.604
 4995POPC   C3B64869  24.490  41.947   6.979
 4995POPC   C4B64870  24.362  42.020   7.388
 4996POPC   NC364871   1.068  35.850   5.426
 4996POPC   PO464872   1.426  36.285   5.351
 4996POPC   GL164873   1.359  36.113   5.770
 4996POPC   GL264874   1.008  36.174   5.842
 4996POPC   C1A64875   1.368  36.108   6.238
 4996POPC   D2A64876   1.135  36.179   6.638
 4996POPC   C3A64877   1.227  36.026   7.081
 4996POPC   C4A64878   1.567  36.029   7.404
 4996POPC   C1B64879   0.986  36.461   6.211
 4996POPC   C2B64880   0.916  36.651   6.618
 4996POPC   C3B64881   1.027  36.487   7.021
 4996POPC   C4B64882   1.154  36.334   7.497
 4997POPC   NC364883  33.803  38.673   5.353
 4997POPC   PO464884  34.035  38.012   5.553
 4997POPC   GL164885  33.786  38.303   5.729
 4997POPC   GL264886  34.107  38.507   5.744
 4997POPC   C1A64887  33.624  38.513   6.098
 4997POPC   D2A64888  33.790  38.590   6.527
 4997POPC   C3A64889  33.733  38.392   6.924
 4997POPC   C4A64890  34.018  38.252   7.231
 4997POPC   C1B64891  34.151  38.647   6.155
 4997POPC   C2B64892  34.300  38.619   6.589
 4997POPC   C3B64893  34.132  38.723   7.005
 4997POPC   C4B64894  34.058  38.720   7.465
 4998POPC   NC364895   6.319   5.458   5.522
 4998POPC   PO464896   6.410   4.825   5.513
 4998POPC   GL164897   6.538   5.110   5.846
 4998POPC   GL264898   6.793   5.363   5.760
 4998POPC   C1A64899   6.531   5.247   6.276
 4998POPC   D2A64900   6.421   5.428   6.670
 4998POPC   C3A64901   6.584   5.145   6.993
 4998POPC   C4A64902   6.832   4.943   7.284
 4998POPC   C1B64903   7.000   5.397   6.179
 4998POPC   C2B64904   6.935   5.200   6.617
 4998POPC   C3B64905   7.092   5.343   7.041
 4998POPC   C4B64906   7.029   5.337   7.520
 4999POPC   NC364907   2.082  20.291   4.979
 4999POPC   PO464908   1.840  20.826   5.346
 4999POPC   GL164909   2.065  20.787   5.757
 4999POPC   GL264910   2.364  21.021   5.777
 4999POPC   C1A64911   2.111  20.507   6.141
 4999POPC   D2A64912   2.393  20.389   6.490
 4999POPC   C3A64913   2.160  20.310   6.876
 4999POPC   C4A64914   1.882  20.388   7.266
 4999POPC   C1B64915   2.212  20.984   6.214
 4999POPC   C2B64916   2.090  20.810   6.619
 4999POPC   C3B64917   2.205  20.802   7.057
 4999POPC   C4B64918   1.991  20.865   7.429
 5000POPC   NC364919  24.875  18.052   5.486
 5000POPC   PO464920  24.484  18.655   5.356
 5000POPC   GL164921  24.532  18.368   5.757
 5000POPC   GL264922  24.864  18.296   5.929
 5000POPC   C1A64923  24.341  18.227   6.185
 5000POPC   D2A64924  23.978  18.203   6.519
 5000POPC   C3A64925  24.120  18.264   6.947
 5000POPC   C4A64926  24.350  17.981   7.208
 5000POPC   C1B64927  24.715  18.630   6.181
 5000POPC   C2B64928  24.649  18.677   6.624
 5000POPC   C3B64929  24.614  18.360   6.952
 5000POPC   C4B64930  24.848  18.237   7.342
 5001POPC   NC364931  43.630  43.392   5.422
 5001POPC   PO464932  44.303  43.107   5.248
 5001POPC   GL164933  44.120  43.297   5.662
 5001POPC   GL264934  43.874  43.098   5.744
 5001POPC   C1A64935  44.005  43.307   6.167
 5001POPC   D2A64936  43.997  43.164   6.610
 5001POPC   C3A64937  43.822  43.387   6.970
 5001POPC   C4A64938  43.594  43.431   7.368
 5001POPC   C1B64939  43.702  42.851   6.046
 5001POPC   C2B64940  43.658  42.786   6.464
 5001POPC   C3B64941  43.523  42.998   6.811
 5001POPC   C4B64942  43.757  42.882   7.181
 5002POPC   NC364943  10.348   6.465   5.130
 5002POPC   PO464944   9.723   6.717   5.404
 5002POPC   GL164945   9.839   6.768   5.799
 5002POPC   GL264946   9.546   6.617   5.948
 5002POPC   C1A64947   9.827   6.943   6.200
 5002POPC   D2A64948   9.627   6.863   6.564
 5002POPC   C3A64949   9.933   6.749   6.875
 5002POPC   C4A64950   9.821   6.800   7.290
 5002POPC   C1B64951   9.795   6.421   6.247
 5002POPC   C2B64952   9.635   6.357   6.639
 5002POPC   C3B64953   9.456   6.574   6.983
 5002POPC   C4B64954   9.517   6.381   7.355
 5003POPC   NC364955   3.084  16.656   5.447
 5003POPC   PO464956   2.382  16.607   5.388
 5003POPC   GL164957   2.652  16.718   5.757
 5003POPC   GL264958   2.790  16.375   5.788
 5003POPC   C1A64959   2.929  16.765   6.165
 5003POPC   D2A64960   3.187  16.998   6.521
 5003POPC   C3A64961   3.012  17.027   6.961
 5003POPC   C4A64962   2.578  16.967   7.153
 5003POPC   C1B64963   2.515  16.413   6.151
 5003POPC   C2B64964   2.630  16.565   6.558
 5003POPC   C3B64965   2.814  16.558   6.949
 5003POPC   C4B64966   2.607  16.489   7.328
 5004POPC   NC364967  38.407  20.983   5.565
 5004POPC   PO464968  38.199  20.372   5.443
 5004POPC   GL164969  38.375  20.490   5.832
 5004POPC   GL264970  38.686  20.441   5.778
 5004POPC   C1A64971  38.449  20.749   6.215
 5004POPC   D2A64972  38.323  20.691   6.650
 5004POPC   C3A64973  38.552  20.861   6.996
 5004POPC   C4A64974  38.373  20.625   7.315
 5004POPC   C1B64975  38.722  20.329   6.237
 5004POPC   C2B64976  38.818  20.549   6.640
 5004POPC   C3B64977  38.810  20.442   7.091
 5004POPC   C4B64978  38.976  20.144   7.353
 5005POPC   NC364979   8.211  43.672   5.566
 5005POPC   PO464980   8.318  42.980   5.374
 5005POPC   GL164981   8.132  42.822   5.775
 5005POPC   GL264982   8.000  43.184   5.876
 5005POPC   C1A64983   8.056  42.865   6.262
 5005POPC   D2A64984   8.129  43.086   6.670
 5005POPC   C3A64985   8.116  42.835   6.998
 5005POPC   C4A64986   8.347  42.807   7.384
 5005POPC   C1B64987   8.241  43.378   6.267
 5005POPC   C2B64988   8.197  43.609   6.662
 5005POPC   C3B64989   7.916  43.481   6.981
 5005POPC   C4B64990   8.214  43.271   7.245
 5006POPC   NC364991   8.627   1.973   5.367
 5006POPC   PO464992   8.061   2.234   5.218
 5006POPC   GL164993   8.265   2.136   5.679
 5006POPC   GL264994   8.420   1.791   5.795
 5006POPC   C1A64995   8.170   2.089   6.135
 5006POPC   D2A64996   8.071   2.117   6.574
 5006POPC   C3A64997   8.421   2.239   6.823
 5006POPC   C4A64998   8.468   2.287   7.240
 5006POPC   C1B64999   8.381   1.601   6.211
 5006POPC   C2B65000   8.445   1.756   6.635
 5006POPC   C3B65001   8.272   1.805   7.060
 5006POPC   C4B65002   8.478   1.801   7.478
 5007POPC   NC365003   8.645  35.736   5.427
 5007POPC   PO465004   8.946  35.117   5.309
 5007POPC   GL165005   8.822  35.293   5.710
 5007POPC   GL265006   8.699  34.955   5.793
 5007POPC   C1A65007   8.970  35.321   6.169
 5007POPC   D2A65008   8.910  35.474   6.623
 5007POPC   C3A65009   9.126  35.462   7.017
 5007POPC   C4A65010   9.003  35.394   7.455
 5007POPC   C1B65011   8.703  34.827   6.212
 5007POPC   C2B65012   8.642  35.043   6.598
 5007POPC   C3B65013   8.748  35.087   7.032
 5007POPC   C4B65014   8.506  35.231   7.399
 5008POPC   NC365015  22.637  20.844   5.563
 5008POPC   PO465016  22.829  20.247   5.224
 5008POPC   GL165017  23.058  20.220   5.680
 5008POPC   GL265018  22.933  20.517   5.836
 5008POPC   C1A65019  23.346  20.362   6.097
 5008POPC   D2A65020  23.357  20.242   6.548
 5008POPC   C3A65021  23.238  20.489   6.921
 5008POPC   C4A65022  23.120  20.478   7.364
 5008POPC   C1B65023  22.917  20.551   6.293
 5008POPC   C2B65024  22.650  20.595   6.625
 5008POPC   C3B65025  22.567  20.807   6.997
 5008POPC   C4B65026  22.956  20.917   7.166
 5009POPC   NC365027   8.605  29.703   5.534
 5009POPC   PO465028   9.197  30.088   5.367
 5009POPC   GL165029   8.908  30.090   5.747
 5009POPC   GL265030   8.957  29.758   5.892
 5009POPC   C1A65031   8.711  30.133   6.168
 5009POPC   D2A65032   8.626  30.008   6.621
 5009POPC   C3A65033   8.901  30.136   6.956
 5009POPC   C4A65034   8.992  30.001   7.363
 5009POPC   C1B65035   8.836  29.626   6.297
 5009POPC   C2B65036   8.955  29.496   6.725
 5009POPC   C3B65037   8.848  29.538   7.190
 5009POPC   C4B65038   8.594  29.490   7.593
 5010POPC   NC365039  14.077  30.563   5.355
 5010POPC   PO465040  13.443  30.638   5.455
 5010POPC   GL165041  13.608  30.772   5.870
 5010POPC   GL265042  13.896  30.919   5.723
 5010POPC   C1A65043  13.359  30.806   6.287
 5010POPC   D2A65044  13.307  30.598   6.697
 5010POPC   C3A65045  13.515  30.698   7.060
 5010POPC   C4A65046  13.465  30.792   7.525
 5010POPC   C1B65047  14.043  30.864   6.130
 5010POPC   C2B65048  13.865  30.726   6.506
 5010POPC   C3B65049  13.987  30.792   6.911
 5010POPC   C4B65050  13.937  30.798   7.349
 5011POPC   NC365051  16.278  37.908   5.571
 5011POPC   PO465052  15.854  37.455   5.525
 5011POPC   GL165053  15.720  37.672   5.916
 5011POPC   GL265054  15.430  37.519   6.035
 5011POPC   C1A65055  15.830  37.735   6.380
 5011POPC   D2A65056  16.017  37.780   6.822
 5011POPC   C3A65057  16.058  37.881   7.285
 5011POPC   C4A65058  16.144  37.998   7.744
 5011POPC   C1B65059  15.365  37.560   6.488
 5011POPC   C2B65060  15.638  37.460   6.797
 5011POPC   C3B65061  15.883  37.431   7.175
 5011POPC   C4B65062  15.968  37.537   7.630
 5012POPC   NC365063  19.551  11.836   5.635
 5012POPC   PO465064  19.904  12.405   5.403
 5012POPC   GL165065  19.935  12.208   5.838
 5012POPC   GL265066  19.691  12.071   6.055
 5012POPC   C1A65067  20.095  12.339   6.272
 5012POPC   D2A65068  20.214  12.083   6.644
 5012POPC   C3A65069  19.879  11.981   6.952
 5012POPC   C4A65070  19.754  12.361   7.178
 5012POPC   C1B65071  19.465  11.773   6.341
 5012POPC   C2B65072  19.392  11.880   6.774
 5012POPC   C3B65073  19.408  11.977   7.211
 5012POPC   C4B65074  19.781  11.970   7.494
 5013POPC   NC365075  21.788  43.012   5.155
 5013POPC   PO465076  21.221  43.224   5.210
 5013POPC   GL165077  21.284  43.144   5.688
 5013POPC   GL265078  21.209  43.397   5.933
 5013POPC   C1A65079  21.260  42.939   6.157
 5013POPC   D2A65080  21.460  42.838   6.582
 5013POPC   C3A65081  21.367  42.941   7.037
 5013POPC   C4A65082  21.573  42.900   7.406
 5013POPC   C1B65083  21.378  43.398   6.386
 5013POPC   C2B65084  21.638  43.293   6.775
 5013POPC   C3B65085  21.753  43.359   7.223
 5013POPC   C4B65086  21.915  43.739   7.493
 5014POPC   NC365087  44.714  32.951   5.057
 5014POPC   PO465088  44.841  33.528   5.487
 5014POPC   GL165089  44.772  33.115   5.684
 5014POPC   GL265090  44.498  33.135   5.907
 5014POPC   C1A65091  44.852  32.799   6.057
 5014POPC   D2A65092  44.872  32.791   6.507
 5014POPC   C3A65093  44.630  32.640   6.837
 5014POPC   C4A65094  44.717  32.621   7.284
 5014POPC   C1B65095  44.424  33.003   6.351
 5014POPC   C2B65096  44.526  33.150   6.779
 5014POPC   C3B65097  44.437  33.045   7.210
 5014POPC   C4B65098  44.296  32.886   7.616
 5015POPC   NC365099   4.841  20.863   5.506
 5015POPC   PO465100   5.277  20.344   5.377
 5015POPC   GL165101   5.239  20.568   5.766
 5015POPC   GL265102   4.883  20.505   5.860
 5015POPC   C1A65103   5.219  20.549   6.235
 5015POPC   D2A65104   4.946  20.286   6.532
 5015POPC   C3A65105   5.107  20.379   6.954
 5015POPC   C4A65106   5.184  20.755   7.226
 5015POPC   C1B65107   4.767  20.800   6.201
 5015POPC   C2B65108   4.854  20.782   6.644
 5015POPC   C3B65109   4.664  20.620   7.001
 5015POPC   C4B65110   4.707  20.868   7.337
 5016POPC   NC365111  24.159  25.812   5.463
 5016POPC   PO465112  23.634  26.280   5.505
 5016POPC   GL165113  23.876  26.103   5.799
 5016POPC   GL265114  23.934  26.415   5.904
 5016POPC   C1A65115  23.777  25.936   6.203
 5016POPC   D2A65116  23.761  26.166   6.580
 5016POPC   C3A65117  23.654  25.904   6.884
 5016POPC   C4A65118  23.320  25.676   7.106
 5016POPC   C1B65119  24.258  26.422   6.164
 5016POPC   C2B65120  24.447  26.473   6.549
 5016POPC   C3B65121  24.259  26.518   6.963
 5016POPC   C4B65122  23.903  26.354   7.173
 5017POPC   NC365123  36.349   2.637   5.474
 5017POPC   PO465124  37.016   2.943   5.480
 5017POPC   GL165125  36.810   2.927   5.883
 5017POPC   GL265126  36.589   3.215   5.983
 5017POPC   C1A65127  36.688   2.596   6.159
 5017POPC   D2A65128  36.443   2.520   6.546
 5017POPC   C3A65129  36.661   2.614   6.976
 5017POPC   C4A65130  37.009   2.764   7.223
 5017POPC   C1B65131  36.396   2.977   6.308
 5017POPC   C2B65132  36.770   2.920   6.567
 5017POPC   C3B65133  36.920   3.149   6.903
 5017POPC   C4B65134  36.691   3.180   7.277
 5018POPC   NC365135   3.565   6.764   5.191
 5018POPC   PO465136   3.316   6.215   5.419
 5018POPC   GL165137   3.642   6.362   5.789
 5018POPC   GL265138   3.826   6.725   5.834
 5018POPC   C1A65139   3.556   6.518   6.213
 5018POPC   D2A65140   3.631   6.511   6.620
 5018POPC   C3A65141   3.347   6.685   6.970
 5018POPC   C4A65142   3.207   6.844   7.389
 5018POPC   C1B65143   3.892   6.941   6.251
 5018POPC   C2B65144   3.935   6.907   6.716
 5018POPC   C3B65145   3.878   6.587   7.044
 5018POPC   C4B65146   3.690   6.643   7.411
 5019POPC   NC365147  35.782   6.771   5.371
 5019POPC   PO465148  35.122   6.496   5.257
 5019POPC   GL165149  35.195   6.750   5.675
 5019POPC   GL265150  35.551   6.794   5.808
 5019POPC   C1A65151  35.198   6.950   6.136
 5019POPC   D2A65152  35.004   6.919   6.565
 5019POPC   C3A65153  35.169   6.616   6.844
 5019POPC   C4A65154  35.462   6.743   7.152
 5019POPC   C1B65155  35.707   6.593   6.171
 5019POPC   C2B65156  35.636   6.597   6.615
 5019POPC   C3B65157  35.561   6.273   6.913
 5019POPC   C4B65158  35.689   6.316   7.297
 5020POPC   NC365159  33.056  24.081   5.454
 5020POPC   PO465160  32.775  24.647   5.357
 5020POPC   GL165161  32.893  24.512   5.800
 5020POPC   GL265162  32.749  24.194   5.868
 5020POPC   C1A65163  33.151  24.376   6.191
 5020POPC   D2A65164  33.418  24.385   6.594
 5020POPC   C3A65165  33.162  24.445   6.971
 5020POPC   C4A65166  32.975  24.405   7.375
 5020POPC   C1B65167  32.624  24.433   6.265
 5020POPC   C2B65168  32.623  24.516   6.749
 5020POPC   C3B65169  32.493  24.407   7.202
 5020POPC   C4B65170  32.610  24.522   7.701
 5021POPC   NC365171   7.310   9.463   5.308
 5021POPC   PO465172   7.303   8.846   5.493
 5021POPC   GL165173   7.489   9.187   5.750
 5021POPC   GL265174   7.691   8.899   5.879
 5021POPC   C1A65175   7.643   9.317   6.179
 5021POPC   D2A65176   7.628   9.019   6.563
 5021POPC   C3A65177   7.658   9.233   6.952
 5021POPC   C4A65178   7.553   9.055   7.314
 5021POPC   C1B65179   7.323   8.921   6.157
 5021POPC   C2B65180   7.165   8.798   6.537
 5021POPC   C3B65181   7.217   8.958   6.923
 5021POPC   C4B65182   6.971   8.992   7.293
 5022POPC   NC365183  39.402  24.279   5.366
 5022POPC   PO465184  38.967  24.737   5.428
 5022POPC   GL165185  38.870  24.578   5.825
 5022POPC   GL265186  39.008  24.269   5.743
 5022POPC   C1A65187  39.020  24.515   6.243
 5022POPC   D2A65188  39.345  24.494   6.579
 5022POPC   C3A65189  39.218  24.672   6.977
 5022POPC   C4A65190  38.931  24.624   7.311
 5022POPC   C1B65191  39.356  24.170   6.038
 5022POPC   C2B65192  39.405  23.981   6.438
 5022POPC   C3B65193  39.423  24.069   6.870
 5022POPC   C4B65194  39.278  24.229   7.258
 5023POPC   NC365195   7.088  10.733   5.432
 5023POPC   PO465196   7.584  10.188   5.467
 5023POPC   GL165197   7.433  10.253   5.854
 5023POPC   GL265198   7.420  10.599   5.808
 5023POPC   C1A65199   7.578  10.360   6.270
 5023POPC   D2A65200   7.813  10.511   6.631
 5023POPC   C3A65201   7.632  10.281   6.951
 5023POPC   C4A65202   7.544  10.142   7.377
 5023POPC   C1B65203   7.188  10.697   6.193
 5023POPC   C2B65204   7.117  10.482   6.588
 5023POPC   C3B65205   7.128  10.382   7.029
 5023POPC   C4B65206   7.407  10.631   7.299
 5024POPC   NC365207  32.666   9.809   5.303
 5024POPC   PO465208  32.105  10.057   5.323
 5024POPC   GL165209  32.148   9.833   5.762
 5024POPC   GL265210  32.477   9.674   5.834
 5024POPC   C1A65211  32.129   9.809   6.257
 5024POPC   D2A65212  31.995   9.779   6.705
 5024POPC   C3A65213  32.274   9.780   7.040
 5024POPC   C4A65214  32.306   9.478   7.331
 5024POPC   C1B65215  32.534   9.479   6.273
 5024POPC   C2B65216  32.478   9.414   6.735
 5024POPC   C3B65217  32.743   9.538   7.089
 5024POPC   C4B65218  32.762   9.430   7.590
 5025POPC   NC365219  28.792  43.376   5.373
 5025POPC   PO465220  29.462  43.323   5.409
 5025POPC   GL165221  29.158  43.377   5.752
 5025POPC   GL265222  29.260  43.111   5.972
 5025POPC   C1A65223  29.112  43.533   6.183
 5025POPC   D2A65224  29.070  43.279   6.540
 5025POPC   C3A65225  29.271  43.103   6.884
 5025POPC   C4A65226  29.153  43.143   7.331
 5025POPC   C1B65227  29.167  42.815   6.340
 5025POPC   C2B65228  28.896  42.752   6.691
 5025POPC   C3B65229  28.970  42.732   7.130
 5025POPC   C4B65230  29.163  42.709   7.576
 5026POPC   NC365231  14.361  39.397   5.369
 5026POPC   PO465232  13.845  39.265   5.680
 5026POPC   GL165233  14.258  39.164   5.900
 5026POPC   GL265234  14.570  39.025   5.710
 5026POPC   C1A65235  14.337  39.242   6.370
 5026POPC   D2A65236  14.305  39.097   6.815
 5026POPC   C3A65237  14.307  39.370   7.196
 5026POPC   C4A65238  14.263  39.606   7.629
 5026POPC   C1B65239  14.794  39.196   6.093
 5026POPC   C2B65240  14.857  39.316   6.515
 5026POPC   C3B65241  14.690  39.493   6.889
 5026POPC   C4B65242  14.775  39.524   7.336
 5027POPC   NC365243  32.201  25.638   5.400
 5027POPC   PO465244  31.939  26.262   5.249
 5027POPC   GL165245  32.081  26.239   5.689
 5027POPC   GL265246  32.468  26.286   5.657
 5027POPC   C1A65247  31.931  26.014   6.099
 5027POPC   D2A65248  32.093  25.824   6.510
 5027POPC   C3A65249  31.926  25.978   6.918
 5027POPC   C4A65250  32.012  25.917   7.377
 5027POPC   C1B65251  32.421  26.169   6.094
 5027POPC   C2B65252  32.178  26.316   6.452
 5027POPC   C3B65253  32.302  26.351   6.833
 5027POPC   C4B65254  32.410  26.024   7.096
 5028POPC   NC365255  18.566  10.581   5.359
 5028POPC   PO465256  18.047  10.213   5.352
 5028POPC   GL165257  18.181  10.352   5.744
 5028POPC   GL265258  18.545  10.422   5.841
 5028POPC   C1A65259  18.217  10.185   6.135
 5028POPC   D2A65260  18.105  10.239   6.534
 5028POPC   C3A65261  18.371  10.451   6.812
 5028POPC   C4A65262  18.370  10.390   7.249
 5028POPC   C1B65263  18.462  10.634   6.247
 5028POPC   C2B65264  18.541  10.935   6.598
 5028POPC   C3B65265  18.609  10.887   7.063
 5028POPC   C4B65266  18.623  10.766   7.511
 5029POPC   NC365267  38.532   0.199   5.463
 5029POPC   PO465268  38.196  44.622   5.520
 5029POPC   GL165269  38.336  44.756   5.900
 5029POPC   GL265270  38.603  44.915   5.900
 5029POPC   C1A65271  38.458  44.612   6.300
 5029POPC   D2A65272  38.455  44.862   6.682
 5029POPC   C3A65273  38.384  44.640   7.104
 5029POPC   C4A65274  38.371  44.772   7.514
 5029POPC   C1B65275  38.831  44.987   6.281
 5029POPC   C2B65276  39.003  44.824   6.646
 5029POPC   C3B65277  38.812  44.911   7.042
 5029POPC   C4B65278  38.885  44.946   7.456
 5030POPC   NC365279  42.088  44.434   5.486
 5030POPC   PO465280  42.807  44.274   5.481
 5030POPC   GL165281  42.507  44.490   5.809
 5030POPC   GL265282  42.259  44.261   5.978
 5030POPC   C1A65283  42.308  44.733   6.184
 5030POPC   D2A65284  42.216  44.558   6.627
 5030POPC   C3A65285  42.315  44.850   6.970
 5030POPC   C4A65286  42.190  44.966   7.409
 5030POPC   C1B65287  42.613  44.302   6.303
 5030POPC   C2B65288  42.850  44.210   6.692
 5030POPC   C3B65289  42.632  44.198   7.085
 5030POPC   C4B65290  42.221  44.399   7.172
 5031POPC   NC365291  25.004   4.010   5.483
 5031POPC   PO465292  24.394   3.568   5.434
 5031POPC   GL165293  24.546   3.711   5.795
 5031POPC   GL265294  24.815   3.517   5.769
 5031POPC   C1A65295  24.353   3.788   6.212
 5031POPC   D2A65296  24.388   3.902   6.643
 5031POPC   C3A65297  24.298   3.688   7.018
 5031POPC   C4A65298  24.663   3.666   7.297
 5031POPC   C1B65299  24.628   3.361   6.169
 5031POPC   C2B65300  24.511   3.364   6.613
 5031POPC   C3B65301  24.549   3.216   7.046
 5031POPC   C4B65302  24.188   3.122   7.307
 5032POPC   NC365303  44.370  11.211   5.297
 5032POPC   PO465304  44.944  11.582   5.436
 5032POPC   GL165305  44.645  11.435   5.767
 5032POPC   GL265306  44.525  11.087   5.780
 5032POPC   C1A65307  44.634  11.546   6.208
 5032POPC   D2A65308  44.609  11.773   6.598
 5032POPC   C3A65309  44.538  11.567   6.978
 5032POPC   C4A65310  44.907  11.389   7.158
 5032POPC   C1B65311  44.314  11.160   6.144
 5032POPC   C2B65312  44.415  11.236   6.561
 5032POPC   C3B65313  44.636  11.057   6.886
 5032POPC   C4B65314  44.521  11.126   7.327
 5033POPC   NC365315  20.213  37.937   5.151
 5033POPC   PO465316  19.888  37.438   5.353
 5033POPC   GL165317  19.807  37.703   5.702
 5033POPC   GL265318  19.992  37.488   5.884
 5033POPC   C1A65319  19.618  37.713   6.145
 5033POPC   D2A65320  19.419  37.752   6.573
 5033POPC   C3A65321  19.692  37.666   6.915
 5033POPC   C4A65322  19.750  37.652   7.353
 5033POPC   C1B65323  20.180  37.255   6.189
 5033POPC   C2B65324  19.991  37.353   6.572
 5033POPC   C3B65325  19.974  37.188   6.954
 5033POPC   C4B65326  20.213  37.475   7.145
 5034POPC   NC365327  28.165  12.740   5.413
 5034POPC   PO465328  28.774  12.770   5.385
 5034POPC   GL165329  28.546  12.861   5.823
 5034POPC   GL265330  28.167  12.827   5.912
 5034POPC   C1A65331  28.573  12.721   6.276
 5034POPC   D2A65332  28.640  12.557   6.708
 5034POPC   C3A65333  28.602  12.847   7.081
 5034POPC   C4A65334  28.348  12.952   7.434
 5034POPC   C1B65335  28.250  13.121   6.245
 5034POPC   C2B65336  28.310  13.123   6.703
 5034POPC   C3B65337  28.032  13.143   7.086
 5034POPC   C4B65338  27.995  13.318   7.513
 5035POPC   NC365339  29.320   0.773   5.529
 5035POPC   PO465340  29.045   1.329   5.341
 5035POPC   GL165341  29.053   1.335   5.766
 5035POPC   GL265342  28.809   1.587   5.814
 5035POPC   C1A65343  29.229   1.133   6.151
 5035POPC   D2A65344  29.424   1.071   6.582
 5035POPC   C3A65345  29.144   1.097   6.941
 5035POPC   C4A65346  28.911   1.140   7.332
 5035POPC   C1B65347  29.043   1.607   6.221
 5035POPC   C2B65348  29.021   1.531   6.655
 5035POPC   C3B65349  28.995   1.587   7.095
 5035POPC   C4B65350  28.969   1.572   7.591
 5036POPC   NC365351  10.907  31.811   5.423
 5036POPC   PO465352  10.324  31.514   5.346
 5036POPC   GL165353  10.568  31.570   5.720
 5036POPC   GL265354  10.509  31.923   5.775
 5036POPC   C1A65355  10.681  31.393   6.131
 5036POPC   D2A65356  10.498  31.275   6.540
 5036POPC   C3A65357  10.623  31.373   6.992
 5036POPC   C4A65358  10.296  31.223   7.284
 5036POPC   C1B65359  10.271  31.709   6.147
 5036POPC   C2B65360  10.272  31.754   6.600
 5036POPC   C3B65361  10.159  31.627   7.009
 5036POPC   C4B65362  10.214  31.743   7.454
 5037POPC   NC365363  13.378  22.449   5.521
 5037POPC   PO465364  14.015  22.148   5.473
 5037POPC   GL165365  13.767  22.165   5.854
 5037POPC   GL265366  13.680  22.497   5.936
 5037POPC   C1A65367  13.875  22.129   6.306
 5037POPC   D2A65368  14.090  22.287   6.691
 5037POPC   C3A65369  13.838  22.248   7.073
 5037POPC   C4A65370  13.493  22.023   7.126
 5037POPC   C1B65371  13.393  22.367   6.235
 5037POPC   C2B65372  13.465  22.290   6.669
 5037POPC   C3B65373  13.375  22.495   7.039
 5037POPC   C4B65374  13.497  22.417   7.469
 5038POPC   NC365375  28.080  11.023   5.384
 5038POPC   PO465376  28.447  11.525   5.244
 5038POPC   GL165377  28.510  11.382   5.687
 5038POPC   GL265378  28.557  11.011   5.640
 5038POPC   C1A65379  28.245  11.343   6.102
 5038POPC   D2A65380  28.085  11.508   6.520
 5038POPC   C3A65381  28.360  11.518   6.891
 5038POPC   C4A65382  28.615  11.812   7.168
 5038POPC   C1B65383  28.660  11.058   6.093
 5038POPC   C2B65384  28.552  11.203   6.523
 5038POPC   C3B65385  28.449  10.983   6.924
 5038POPC   C4B65386  28.190  11.078   7.290
 5039POPC   NC365387  33.469  40.475   5.418
 5039POPC   PO465388  33.530  39.774   5.388
 5039POPC   GL165389  33.731  40.069   5.693
 5039POPC   GL265390  34.088  40.108   5.829
 5039POPC   C1A65391  33.697  40.036   6.169
 5039POPC   D2A65392  33.733  39.759   6.566
 5039POPC   C3A65393  33.779  39.942   7.011
 5039POPC   C4A65394  33.992  40.142   7.374
 5039POPC   C1B65395  34.181  39.978   6.299
 5039POPC   C2B65396  34.202  39.817   6.754
 5039POPC   C3B65397  34.202  39.720   7.196
 5039POPC   C4B65398  34.137  39.383   7.479
 5040POPC   NC365399  31.929  30.268   5.416
 5040POPC   PO465400  32.290  30.862   5.476
 5040POPC   GL165401  32.155  30.553   5.816
 5040POPC   GL265402  31.766  30.471   5.854
 5040POPC   C1A65403  32.334  30.644   6.227
 5040POPC   D2A65404  32.402  30.982   6.508
 5040POPC   C3A65405  32.382  30.768   6.891
 5040POPC   C4A65406  32.561  30.642   7.246
 5040POPC   C1B65407  31.810  30.743   6.208
 5040POPC   C2B65408  31.932  30.739   6.639
 5040POPC   C3B65409  31.929  30.794   7.093
 5040POPC   C4B65410  32.060  30.436   7.339
 5041POPC   NC365411  38.978  30.871   5.497
 5041POPC   PO465412  38.363  30.746   5.246
 5041POPC   GL165413  38.520  30.673   5.691
 5041POPC   GL265414  38.744  30.362   5.739
 5041POPC   C1A65415  38.665  30.769   6.137
 5041POPC   D2A65416  38.641  30.893   6.583
 5041POPC   C3A65417  38.585  30.600   6.953
 5041POPC   C4A65418  38.643  30.628   7.415
 5041POPC   C1B65419  38.590  30.261   6.180
 5041POPC   C2B65420  38.348  30.483   6.503
 5041POPC   C3B65421  38.102  30.398   6.881
 5041POPC   C4B65422  38.169  30.238   7.305
 5042POPC   NC365423  16.742   1.016   5.354
 5042POPC   PO465424  16.893   1.696   5.437
 5042POPC   GL165425  16.737   1.358   5.754
 5042POPC   GL265426  16.805   0.976   5.845
 5042POPC   C1A65427  16.463   1.248   6.112
 5042POPC   D2A65428  16.496   1.063   6.540
 5042POPC   C3A65429  16.354   1.250   6.945
 5042POPC   C4A65430  16.522   1.208   7.384
 5042POPC   C1B65431  16.945   1.129   6.238
 5042POPC   C2B65432  17.106   1.148   6.650
 5042POPC   C3B65433  16.845   1.089   7.005
 5042POPC   C4B65434  16.938   0.841   7.400
 5043POPC   NC365435  43.005  39.142   5.215
 5043POPC   PO465436  42.319  39.427   5.408
 5043POPC   GL165437  42.506  39.500   5.797
 5043POPC   GL265438  42.748  39.240   5.880
 5043POPC   C1A65439  42.310  39.358   6.163
 5043POPC   D2A65440  42.203  39.110   6.512
 5043POPC   C3A65441  42.100  39.274   6.926
 5043POPC   C4A65442  42.081  38.886   7.155
 5043POPC   C1B65443  42.716  39.101   6.316
 5043POPC   C2B65444  42.628  39.290   6.731
 5043POPC   C3B65445  42.542  39.233   7.189
 5043POPC   C4B65446  42.536  39.520   7.545
 5044POPC   NC365447  11.353  43.177   5.431
 5044POPC   PO465448  10.715  43.109   5.426
 5044POPC   GL165449  10.982  43.126   5.790
 5044POPC   GL265450  11.268  42.885   5.849
 5044POPC   C1A65451  10.952  43.030   6.230
 5044POPC   D2A65452  11.134  42.963   6.652
 5044POPC   C3A65453  10.865  43.158   6.897
 5044POPC   C4A65454  10.801  43.221   7.294
 5044POPC   C1B65455  11.454  42.987   6.260
 5044POPC   C2B65456  11.630  42.842   6.673
 5044POPC   C3B65457  11.389  42.715   7.017
 5044POPC   C4B65458  11.292  43.086   7.207
 5045POPC   NC365459  20.309  37.546   5.504
 5045POPC   PO465460  20.691  38.004   5.167
 5045POPC   GL165461  20.708  37.802   5.697
 5045POPC   GL265462  20.374  37.868   5.929
 5045POPC   C1A65463  20.640  37.518   6.138
 5045POPC   D2A65464  20.491  37.491   6.590
 5045POPC   C3A65465  20.635  37.741   6.946
 5045POPC   C4A65466  20.883  37.697   7.330
 5045POPC   C1B65467  20.138  37.769   6.305
 5045POPC   C2B65468  20.148  37.839   6.762
 5045POPC   C3B65469  20.118  37.969   7.169
 5045POPC   C4B65470  20.192  37.797   7.580
 5046POPC   NC365471   7.793  12.876   5.605
 5046POPC   PO465472   7.183  12.646   5.315
 5046POPC   GL165473   7.132  12.718   5.783
 5046POPC   GL265474   7.195  13.067   5.872
 5046POPC   C1A65475   7.238  12.677   6.251
 5046POPC   D2A65476   7.670  12.676   6.478
 5046POPC   C3A65477   7.698  12.563   6.936
 5046POPC   C4A65478   7.396  12.566   7.290
 5046POPC   C1B65479   7.531  13.080   6.162
 5046POPC   C2B65480   7.419  13.112   6.578
 5046POPC   C3B65481   7.411  13.015   7.004
 5046POPC   C4B65482   7.718  13.070   7.284
 5047POPC   NC365483  24.231  16.191   5.639
 5047POPC   PO465484  24.649  15.728   5.317
 5047POPC   GL165485  24.487  15.747   5.784
 5047POPC   GL265486  24.354  16.022   6.084
 5047POPC   C1A65487  24.395  15.553   6.200
 5047POPC   D2A65488  24.325  15.825   6.567
 5047POPC   C3A65489  24.409  15.663   6.965
 5047POPC   C4A65490  24.638  15.774   7.316
 5047POPC   C1B65491  24.424  16.351   6.398
 5047POPC   C2B65492  24.724  16.471   6.713
 5047POPC   C3B65493  24.522  16.284   7.062
 5047POPC   C4B65494  24.132  16.109   7.014
 5048POPC   NC365495   2.236  19.678   5.473
 5048POPC   PO465496   1.583  19.863   5.425
 5048POPC   GL165497   1.888  19.872   5.772
 5048POPC   GL265498   2.038  19.553   5.920
 5048POPC   C1A65499   2.135  20.000   6.135
 5048POPC   D2A65500   1.918  19.970   6.547
 5048POPC   C3A65501   2.097  19.782   6.918
 5048POPC   C4A65502   2.227  20.010   7.284
 5048POPC   C1B65503   2.067  19.513   6.338
 5048POPC   C2B65504   1.721  19.430   6.565
 5048POPC   C3B65505   1.587  19.706   6.891
 5048POPC   C4B65506   1.727  19.866   7.304
 5049POPC   NC365507   4.060  11.630   5.343
 5049POPC   PO465508   4.387  12.179   5.330
 5049POPC   GL165509   4.423  11.859   5.678
 5049POPC   GL265510   4.069  11.784   5.826
 5049POPC   C1A65511   4.477  11.987   6.125
 5049POPC   D2A65512   4.619  12.192   6.517
 5049POPC   C3A65513   4.457  12.039   6.889
 5049POPC   C4A65514   4.363  12.256   7.210
 5049POPC   C1B65515   3.918  11.723   6.246
 5049POPC   C2B65516   4.027  11.820   6.681
 5049POPC   C3B65517   4.023  11.783   7.150
 5049POPC   C4B65518   3.897  11.862   7.616
 5050POPC   NC365519  41.871  32.055   5.426
 5050POPC   PO465520  41.580  32.604   5.185
 5050POPC   GL165521  41.654  32.362   5.725
 5050POPC   GL265522  41.518  32.039   5.803
 5050POPC   C1A65523  41.773  32.365   6.151
 5050POPC   D2A65524  41.595  32.583   6.508
 5050POPC   C3A65525  41.624  32.352   6.875
 5050POPC   C4A65526  41.584  32.243   7.265
 5050POPC   C1B65527  41.590  31.858   6.188
 5050POPC   C2B65528  41.530  31.961   6.590
 5050POPC   C3B65529  41.725  31.839   6.962
 5050POPC   C4B65530  41.427  31.773   7.260
 5051POPC   NC365531  16.816  22.621   5.466
 5051POPC   PO465532  16.560  21.912   5.473
 5051POPC   GL165533  16.848  22.121   5.752
 5051POPC   GL265534  17.204  21.983   5.718
 5051POPC   C1A65535  16.823  22.270   6.199
 5051POPC   D2A65536  16.824  22.398   6.660
 5051POPC   C3A65537  16.669  22.172   7.048
 5051POPC   C4A65538  16.631  22.343   7.502
 5051POPC   C1B65539  17.095  21.827   6.113
 5051POPC   C2B65540  16.926  21.887   6.538
 5051POPC   C3B65541  16.945  21.737   6.967
 5051POPC   C4B65542  17.037  21.961   7.346
 5052POPC   NC365543  12.212  30.649   5.389
 5052POPC   PO465544  11.724  31.109   5.360
 5052POPC   GL165545  11.809  30.962   5.788
 5052POPC   GL265546  12.100  30.712   5.877
 5052POPC   C1A65547  11.812  30.886   6.235
 5052POPC   D2A65548  12.040  30.632   6.469
 5052POPC   C3A65549  11.906  30.782   6.820
 5052POPC   C4A65550  12.113  30.934   7.152
 5052POPC   C1B65551  12.442  30.520   6.144
 5052POPC   C2B65552  12.457  30.348   6.572
 5052POPC   C3B65553  12.301  30.453   6.982
 5052POPC   C4B65554  12.430  30.259   7.352
 5053POPC   NC365555   9.282   1.342   5.393
 5053POPC   PO465556   8.781   0.820   5.410
 5053POPC   GL165557   9.013   0.940   5.787
 5053POPC   GL265558   9.116   1.288   5.874
 5053POPC   C1A65559   8.928   0.948   6.246
 5053POPC   D2A65560   9.143   0.884   6.653
 5053POPC   C3A65561   8.852   1.037   6.961
 5053POPC   C4A65562   8.595   1.402   7.112
 5053POPC   C1B65563   8.899   1.530   6.215
 5053POPC   C2B65564   8.918   1.538   6.682
 5053POPC   C3B65565   9.181   1.418   7.029
 5053POPC   C4B65566   9.377   1.043   7.140
 5054POPC   NC365567  35.474  43.481   5.381
 5054POPC   PO465568  35.087  42.900   5.539
 5054POPC   GL165569  35.276  43.006   5.948
 5054POPC   GL265570  35.514  43.299   5.875
 5054POPC   C1A65571  35.597  42.821   6.238
 5054POPC   D2A65572  35.702  42.985   6.631
 5054POPC   C3A65573  35.323  42.933   6.899
 5054POPC   C4A65574  35.368  42.718   7.250
 5054POPC   C1B65575  35.230  43.448   6.198
 5054POPC   C2B65576  35.231  43.371   6.628
 5054POPC   C3B65577  35.476  43.406   6.965
 5054POPC   C4B65578  35.388  43.238   7.346
 5055POPC   NC365579  21.629  40.790   5.314
 5055POPC   PO465580  21.107  40.447   5.598
 5055POPC   GL165581  21.366  40.804   5.791
 5055POPC   GL265582  21.678  41.027   5.745
 5055POPC   C1A65583  21.286  40.842   6.235
 5055POPC   D2A65584  21.231  40.587   6.617
 5055POPC   C3A65585  21.275  40.720   7.024
 5055POPC   C4A65586  21.421  40.513   7.401
 5055POPC   C1B65587  21.771  41.041   6.140
 5055POPC   C2B65588  21.686  41.226   6.528
 5055POPC   C3B65589  21.681  41.013   6.903
 5055POPC   C4B65590  21.582  41.020   7.298
 5056POPC   NC365591  26.466  30.576   5.481
 5056POPC   PO465592  26.853  31.033   5.182
 5056POPC   GL165593  26.625  30.986   5.722
 5056POPC   GL265594  26.622  30.626   5.940
 5056POPC   C1A65595  26.799  30.978   6.223
 5056POPC   D2A65596  26.863  30.612   6.488
 5056POPC   C3A65597  26.929  30.709   6.923
 5056POPC   C4A65598  27.114  30.544   7.274
 5056POPC   C1B65599  26.364  30.740   6.313
 5056POPC   C2B65600  26.511  30.927   6.716
 5056POPC   C3B65601  26.424  30.888   7.161
 5056POPC   C4B65602  26.639  30.644   7.445
 5057POPC   NC365603   5.350   5.402   5.283
 5057POPC   PO465604   4.770   5.187   5.518
 5057POPC   GL165605   5.085   5.317   5.738
 5057POPC   GL265606   5.290   5.050   5.700
 5057POPC   C1A65607   4.984   5.407   6.137
 5057POPC   D2A65608   4.868   5.145   6.467
 5057POPC   C3A65609   4.885   5.235   6.926
 5057POPC   C4A65610   5.186   5.251   7.265
 5057POPC   C1B65611   5.199   4.882   6.146
 5057POPC   C2B65612   5.171   4.699   6.558
 5057POPC   C3B65613   5.219   4.792   6.991
 5057POPC   C4B65614   4.887   4.802   7.289
 5058POPC   NC365615  18.537  15.303   5.274
 5058POPC   PO465616  18.418  14.749   5.555
 5058POPC   GL165617  18.437  15.026   5.895
 5058POPC   GL265618  18.477  15.391   5.774
 5058POPC   C1A65619  18.412  15.137   6.348
 5058POPC   D2A65620  18.106  15.389   6.604
 5058POPC   C3A65621  18.073  15.366   7.060
 5058POPC   C4A65622  18.270  15.057   7.335
 5058POPC   C1B65623  18.499  15.625   6.163
 5058POPC   C2B65624  18.358  15.826   6.528
 5058POPC   C3B65625  18.504  15.730   6.908
 5058POPC   C4B65626  18.527  15.498   7.273
 5059POPC   NC365627   5.575   2.519   5.476
 5059POPC   PO465628   6.134   2.708   5.140
 5059POPC   GL165629   6.063   2.828   5.634
 5059POPC   GL265630   5.958   2.566   5.844
 5059POPC   C1A65631   6.153   2.977   6.094
 5059POPC   D2A65632   6.208   2.924   6.575
 5059POPC   C3A65633   5.813   2.760   6.825
 5059POPC   C4A65634   5.696   2.814   7.286
 5059POPC   C1B65635   5.794   2.443   6.284
 5059POPC   C2B65636   5.762   2.240   6.699
 5059POPC   C3B65637   5.525   2.360   7.084
 5059POPC   C4B65638   5.574   2.382   7.557
 5060POPC   NC365639   5.956   1.726   5.624
 5060POPC   PO465640   5.519   1.268   5.477
 5060POPC   GL165641   5.847   1.235   5.827
 5060POPC   GL265642   6.227   1.265   5.713
 5060POPC   C1A65643   5.773   1.340   6.281
 5060POPC   D2A65644   5.569   1.171   6.664
 5060POPC   C3A65645   5.763   0.948   7.026
 5060POPC   C4A65646   5.945   0.935   7.452
 5060POPC   C1B65647   6.273   1.199   6.179
 5060POPC   C2B65648   6.100   1.131   6.638
 5060POPC   C3B65649   5.980   1.390   6.984
 5060POPC   C4B65650   6.119   1.610   7.301
 5061POPC   NC365651  31.080  28.728   5.415
 5061POPC   PO465652  31.573  29.217   5.319
 5061POPC   GL165653  31.622  29.215   5.754
 5061POPC   GL265654  31.712  28.848   5.772
 5061POPC   C1A65655  31.463  29.425   6.143
 5061POPC   D2A65656  31.197  29.409   6.546
 5061POPC   C3A65657  31.399  29.374   6.952
 5061POPC   C4A65658  31.435  29.336   7.438
 5061POPC   C1B65659  31.546  28.913   6.177
 5061POPC   C2B65660  31.280  28.896   6.530
 5061POPC   C3B65661  31.463  28.882   6.922
 5061POPC   C4B65662  31.294  28.860   7.342
 5062POPC   NC365663  19.248  23.267   5.446
 5062POPC   PO465664  18.906  22.801   5.448
 5062POPC   GL165665  18.714  22.814   5.882
 5062POPC   GL265666  18.725  23.173   5.922
 5062POPC   C1A65667  18.826  22.646   6.322
 5062POPC   D2A65668  19.173  22.552   6.662
 5062POPC   C3A65669  19.236  22.797   7.031
 5062POPC   C4A65670  18.779  22.885   7.139
 5062POPC   C1B65671  18.855  23.179   6.360
 5062POPC   C2B65672  19.036  23.189   6.782
 5062POPC   C3B65673  19.119  23.254   7.236
 5062POPC   C4B65674  19.126  23.385   7.678
 5063POPC   NC365675  15.053  18.723   5.397
 5063POPC   PO465676  15.422  19.281   5.462
 5063POPC   GL165677  15.366  19.007   5.807
 5063POPC   GL265678  15.004  18.972   5.853
 5063POPC   C1A65679  15.288  19.110   6.248
 5063POPC   D2A65680  15.016  19.236   6.589
 5063POPC   C3A65681  15.210  19.110   6.985
 5063POPC   C4A65682  14.964  19.134   7.358
 5063POPC   C1B65683  14.988  18.701   6.224
 5063POPC   C2B65684  15.103  18.733   6.656
 5063POPC   C3B65685  14.922  18.674   7.062
 5063POPC   C4B65686  15.055  18.667   7.497
 5064POPC   NC365687  14.924  23.087   5.522
 5064POPC   PO465688  15.486  22.625   5.448
 5064POPC   GL165689  15.314  22.832   5.822
 5064POPC   GL265690  14.985  22.682   5.869
 5064POPC   C1A65691  15.158  23.177   6.128
 5064POPC   D2A65692  15.151  23.382   6.542
 5064POPC   C3A65693  15.232  23.227   6.956
 5064POPC   C4A65694  15.072  23.219   7.361
 5064POPC   C1B65695  15.144  22.703   6.308
 5064POPC   C2B65696  15.359  22.735   6.716
 5064POPC   C3B65697  15.246  22.747   7.167
 5064POPC   C4B65698  14.942  22.760   7.524
 5065POPC   NC365699  14.371  32.261   5.519
 5065POPC   PO465700  14.665  32.747   5.950
 5065POPC   GL165701  14.467  32.345   6.000
 5065POPC   GL265702  14.664  32.061   6.143
 5065POPC   C1A65703  14.131  32.080   6.181
 5065POPC   D2A65704  13.905  31.969   6.573
 5065POPC   C3A65705  14.102  32.047   6.973
 5065POPC   C4A65706  14.508  31.878   7.079
 5065POPC   C1B65707  14.467  32.341   6.492
 5065POPC   C2B65708  14.214  32.519   6.810
 5065POPC   C3B65709  14.397  32.764   7.126
 5065POPC   C4B65710  14.734  32.688   7.442
 5066POPC   NC365711  18.761  19.392   5.528
 5066POPC   PO465712  18.077  19.205   5.410
 5066POPC   GL165713  18.186  19.099   5.798
 5066POPC   GL265714  18.514  19.094   5.869
 5066POPC   C1A65715  18.059  19.330   6.160
 5066POPC   D2A65716  18.170  19.208   6.574
 5066POPC   C3A65717  18.302  19.047   6.976
 5066POPC   C4A65718  18.182  19.148   7.420
 5066POPC   C1B65719  18.327  18.834   6.194
 5066POPC   C2B65720  18.467  18.737   6.583
 5066POPC   C3B65721  18.408  18.518   6.935
 5066POPC   C4B65722  18.425  18.676   7.311
 5067POPC   NC365723  14.978   5.280   5.292
 5067POPC   PO465724  15.439   4.931   5.602
 5067POPC   GL165725  15.125   5.237   5.807
 5067POPC   GL265726  14.952   5.595   5.771
 5067POPC   C1A65727  15.141   5.140   6.252
 5067POPC   D2A65728  15.418   5.264   6.617
 5067POPC   C3A65729  15.293   5.092   7.014
 5067POPC   C4A65730  15.376   4.888   7.395
 5067POPC   C1B65731  14.942   5.614   6.249
 5067POPC   C2B65732  14.910   5.328   6.661
 5067POPC   C3B65733  14.912   5.421   7.091
 5067POPC   C4B65734  15.192   5.367   7.455
 5068POPC   NC365735  31.649  10.880   5.422
 5068POPC   PO465736  31.365  10.258   5.445
 5068POPC   GL165737  31.502  10.535   5.779
 5068POPC   GL265738  31.309  10.838   5.874
 5068POPC   C1A65739  31.687  10.608   6.168
 5068POPC   D2A65740  31.517  10.587   6.572
 5068POPC   C3A65741  31.732  10.527   6.922
 5068POPC   C4A65742  31.557  10.469   7.334
 5068POPC   C1B65743  31.311  10.955   6.304
 5068POPC   C2B65744  31.176  10.951   6.749
 5068POPC   C3B65745  31.252  10.939   7.209
 5068POPC   C4B65746  31.416  10.867   7.640
 5069POPC   NC365747  33.183  26.701   5.080
 5069POPC   PO465748  32.607  26.913   5.362
 5069POPC   GL165749  32.791  26.743   5.792
 5069POPC   GL265750  33.175  26.653   5.812
 5069POPC   C1A65751  32.836  26.877   6.253
 5069POPC   D2A65752  32.997  26.664   6.650
 5069POPC   C3A65753  33.136  26.696   7.105
 5069POPC   C4A65754  32.870  26.575   7.457
 5069POPC   C1B65755  33.328  26.775   6.250
 5069POPC   C2B65756  33.485  26.826   6.702
 5069POPC   C3B65757  33.504  27.067   7.106
 5069POPC   C4B65758  33.442  26.995   7.507
 5070POPC   NC365759  22.554  20.582   5.006
 5070POPC   PO465760  22.200  20.671   5.512
 5070POPC   GL165761  22.309  20.588   5.875
 5070POPC   GL265762  22.272  20.207   5.828
 5070POPC   C1A65763  22.291  20.862   6.230
 5070POPC   D2A65764  22.180  20.737   6.622
 5070POPC   C3A65765  21.935  20.860   6.937
 5070POPC   C4A65766  22.135  20.774   7.330
 5070POPC   C1B65767  22.469  20.290   6.232
 5070POPC   C2B65768  22.294  20.185   6.599
 5070POPC   C3B65769  22.287  20.380   6.976
 5070POPC   C4B65770  22.266  20.267   7.399
 5071POPC   NC365771  17.641   9.103   5.407
 5071POPC   PO465772  16.986   9.200   5.585
 5071POPC   GL165773  17.308   9.012   5.799
 5071POPC   GL265774  17.240   8.660   5.905
 5071POPC   C1A65775  17.358   9.026   6.245
 5071POPC   D2A65776  17.504   8.777   6.561
 5071POPC   C3A65777  17.586   8.991   6.919
 5071POPC   C4A65778  17.384   9.030   7.283
 5071POPC   C1B65779  17.621   8.524   6.097
 5071POPC   C2B65780  17.782   8.339   6.470
 5071POPC   C3B65781  17.808   8.504   6.893
 5071POPC   C4B65782  17.788   8.687   7.311
 5072POPC   NC365783  13.105  28.640   5.456
 5072POPC   PO465784  13.084  29.269   5.510
 5072POPC   GL165785  13.096  28.991   5.839
 5072POPC   GL265786  12.746  28.944   5.803
 5072POPC   C1A65787  12.971  28.855   6.250
 5072POPC   D2A65788  12.783  28.884   6.636
 5072POPC   C3A65789  13.136  28.871   6.889
 5072POPC   C4A65790  13.373  28.706   7.236
 5072POPC   C1B65791  12.499  29.104   6.178
 5072POPC   C2B65792  12.513  29.326   6.578
 5072POPC   C3B65793  12.691  29.274   6.989
 5072POPC   C4B65794  12.744  28.912   7.216
 5073POPC   NC365795  23.510   5.819   5.516
 5073POPC   PO465796  23.984   5.395   5.328
 5073POPC   GL165797  23.827   5.497   5.774
 5073POPC   GL265798  23.575   5.735   6.001
 5073POPC   C1A65799  23.999   5.577   6.182
 5073POPC   D2A65800  24.184   5.653   6.547
 5073POPC   C3A65801  24.014   5.845   6.874
 5073POPC   C4A65802  23.740   5.838   7.239
 5073POPC   C1B65803  23.599   5.753   6.487
 5073POPC   C2B65804  23.552   6.084   6.832
 5073POPC   C3B65805  23.567   6.336   7.254
 5073POPC   C4B65806  23.559   6.599   7.647
 5074POPC   NC365807   7.101  20.862   5.329
 5074POPC   PO465808   7.727  20.658   5.456
 5074POPC   GL165809   7.639  20.692   5.862
 5074POPC   GL265810   7.297  20.812   5.868
 5074POPC   C1A65811   7.471  20.349   6.120
 5074POPC   D2A65812   7.218  20.360   6.483
 5074POPC   C3A65813   7.470  20.323   6.819
 5074POPC   C4A65814   7.546  20.468   7.188
 5074POPC   C1B65815   7.402  20.820   6.324
 5074POPC   C2B65816   7.473  20.827   6.789
 5074POPC   C3B65817   7.405  20.941   7.223
 5074POPC   C4B65818   7.580  21.025   7.631
 5075POPC   NC365819   6.286  17.511   5.268
 5075POPC   PO465820   5.773  17.874   5.414
 5075POPC   GL165821   5.738  17.494   5.711
 5075POPC   GL265822   6.097  17.345   5.740
 5075POPC   C1A65823   5.745  17.276   6.135
 5075POPC   D2A65824   5.877  17.431   6.559
 5075POPC   C3A65825   5.801  17.318   6.995
 5075POPC   C4A65826   5.609  17.507   7.353
 5075POPC   C1B65827   6.265  17.381   6.163
 5075POPC   C2B65828   6.318  17.663   6.525
 5075POPC   C3B65829   6.179  17.686   6.950
 5075POPC   C4B65830   6.234  17.395   7.277
 5076POPC   NC365831  40.127  38.954   5.381
 5076POPC   PO465832  39.749  39.505   5.435
 5076POPC   GL165833  39.985  39.531   5.828
 5076POPC   GL265834  40.028  39.192   5.826
 5076POPC   C1A65835  39.993  39.407   6.282
 5076POPC   D2A65836  39.949  39.073   6.606
 5076POPC   C3A65837  40.063  39.247   6.969
 5076POPC   C4A65838  39.904  39.295   7.360
 5076POPC   C1B65839  40.381  39.093   6.100
 5076POPC   C2B65840  40.429  39.262   6.519
 5076POPC   C3B65841  40.567  39.127   6.901
 5076POPC   C4B65842  40.397  39.018   7.292
 5077POPC   NC365843   0.643  11.862   5.538
 5077POPC   PO465844   0.152  12.373   5.402
 5077POPC   GL165845   0.290  12.325   5.822
 5077POPC   GL265846   0.552  12.511   6.012
 5077POPC   C1A65847   0.390  12.052   6.163
 5077POPC   D2A65848   0.546  11.982   6.559
 5077POPC   C3A65849   0.265  11.761   6.831
 5077POPC   C4A65850   0.346  11.613   7.220
 5077POPC   C1B65851   0.904  12.380   6.307
 5077POPC   C2B65852   0.940  12.334   6.775
 5077POPC   C3B65853   0.696  12.033   7.043
 5077POPC   C4B65854   0.699  11.843   7.475
 5078POPC   NC365855   0.465   8.184   5.248
 5078POPC   PO465856  44.928   8.242   5.336
 5078POPC   GL165857   0.202   8.162   5.698
 5078POPC   GL265858   0.512   8.366   5.718
 5078POPC   C1A65859   0.375   7.972   6.087
 5078POPC   D2A65860   0.316   7.773   6.493
 5078POPC   C3A65861   0.312   8.014   6.900
 5078POPC   C4A65862   0.511   8.078   7.278
 5078POPC   C1B65863   0.507   8.483   6.148
 5078POPC   C2B65864   0.574   8.277   6.532
 5078POPC   C3B65865   0.672   8.433   6.939
 5078POPC   C4B65866   0.507   8.585   7.323
 5079POPC   NC365867  33.740  41.115   5.524
 5079POPC   PO465868  33.955  40.488   5.441
 5079POPC   GL165869  33.797  40.559   5.840
 5079POPC   GL265870  33.958  40.844   5.887
 5079POPC   C1A65871  33.980  40.465   6.250
 5079POPC   D2A65872  33.881  40.263   6.634
 5079POPC   C3A65873  33.810  40.474   7.036
 5079POPC   C4A65874  34.043  40.650   7.390
 5079POPC   C1B65875  33.747  40.909   6.247
 5079POPC   C2B65876  33.758  41.255   6.500
 5079POPC   C3B65877  33.678  41.248   6.925
 5079POPC   C4B65878  33.629  40.955   7.261
 5080POPC   NC365879  38.510   6.953   5.491
 5080POPC   PO465880  38.229   6.489   5.197
 5080POPC   GL165881  38.149   6.546   5.717
 5080POPC   GL265882  38.458   6.673   5.920
 5080POPC   C1A65883  38.085   6.588   6.230
 5080POPC   D2A65884  38.303   6.865   6.570
 5080POPC   C3A65885  38.380   6.685   6.982
 5080POPC   C4A65886  38.114   6.510   7.232
 5080POPC   C1B65887  38.606   6.502   6.363
 5080POPC   C2B65888  38.831   6.610   6.778
 5080POPC   C3B65889  38.779   6.426   7.229
 5080POPC   C4B65890  38.829   6.645   7.660
 5081POPC   NC365891   1.162  40.060   5.295
 5081POPC   PO465892   1.109  39.467   5.669
 5081POPC   GL165893   1.183  39.943   5.800
 5081POPC   GL265894   1.256  39.804   6.098
 5081POPC   C1A65895   1.201  40.288   6.166
 5081POPC   D2A65896   1.040  40.148   6.583
 5081POPC   C3A65897   1.200  40.341   6.984
 5081POPC   C4A65898   1.271  40.355   7.441
 5081POPC   C1B65899   1.011  39.625   6.410
 5081POPC   C2B65900   1.006  39.675   6.872
 5081POPC   C3B65901   1.179  39.888   7.229
 5081POPC   C4B65902   1.136  39.900   7.662
 5082POPC   NC365903  29.050  23.957   5.408
 5082POPC   PO465904  29.252  24.602   5.308
 5082POPC   GL165905  29.037  24.608   5.735
 5082POPC   GL265906  29.132  24.312   5.875
 5082POPC   C1A65907  29.048  24.669   6.202
 5082POPC   D2A65908  28.996  24.501   6.605
 5082POPC   C3A65909  29.296  24.666   6.888
 5082POPC   C4A65910  29.403  24.464   7.270
 5082POPC   C1B65911  29.339  24.205   6.304
 5082POPC   C2B65912  29.406  24.174   6.767
 5082POPC   C3B65913  29.522  23.957   7.152
 5082POPC   C4B65914  29.315  24.042   7.557
 5083POPC   NC365915  41.510  37.151   5.392
 5083POPC   PO465916  42.015  36.707   5.378
 5083POPC   GL165917  41.900  36.975   5.741
 5083POPC   GL265918  41.533  36.905   5.831
 5083POPC   C1A65919  41.847  36.978   6.198
 5083POPC   D2A65920  41.795  36.756   6.544
 5083POPC   C3A65921  41.860  36.961   6.906
 5083POPC   C4A65922  41.666  36.931   7.283
 5083POPC   C1B65923  41.328  36.856   6.234
 5083POPC   C2B65924  41.284  36.708   6.632
 5083POPC   C3B65925  41.194  36.829   7.036
 5083POPC   C4B65926  41.201  36.946   7.468
 5084POPC   NC365927  20.457  22.188   5.156
 5084POPC   PO465928  20.979  22.378   5.556
 5084POPC   GL165929  20.627  22.223   5.792
 5084POPC   GL265930  20.407  21.938   5.826
 5084POPC   C1A65931  20.556  22.349   6.226
 5084POPC   D2A65932  20.838  22.410   6.571
 5084POPC   C3A65933  20.760  22.199   6.974
 5084POPC   C4A65934  20.516  22.531   7.087
 5084POPC   C1B65935  20.370  21.854   6.265
 5084POPC   C2B65936  20.383  21.942   6.715
 5084POPC   C3B65937  20.198  21.728   7.090
 5084POPC   C4B65938  20.391  21.674   7.523
 5085POPC   NC365939  21.020  40.036   5.390
 5085POPC   PO465940  21.715  40.316   5.315
 5085POPC   GL165941  21.547  40.143   5.755
 5085POPC   GL265942  21.208  40.028   5.856
 5085POPC   C1A65943  21.562  39.964   6.202
 5085POPC   D2A65944  21.582  40.223   6.565
 5085POPC   C3A65945  21.519  40.127   6.995
 5085POPC   C4A65946  21.488  39.739   7.211
 5085POPC   C1B65947  21.130  40.222   6.257
 5085POPC   C2B65948  21.182  39.911   6.589
 5085POPC   C3B65949  21.047  39.861   6.983
 5085POPC   C4B65950  21.115  40.136   7.286
 5086POPC   NC365951  19.205   8.651   5.280
 5086POPC   PO465952  19.124   9.296   5.433
 5086POPC   GL165953  19.057   9.045   5.824
 5086POPC   GL265954  19.321   9.215   5.967
 5086POPC   C1A65955  18.862   8.884   6.251
 5086POPC   D2A65956  19.072   8.662   6.643
 5086POPC   C3A65957  18.918   8.816   7.061
 5086POPC   C4A65958  18.950   9.006   7.468
 5086POPC   C1B65959  19.075   9.342   6.290
 5086POPC   C2B65960  18.942   9.172   6.694
 5086POPC   C3B65961  19.048   9.356   7.102
 5086POPC   C4B65962  19.371   9.314   7.453
 5087POPC   NC365963  35.972  39.750   5.261
 5087POPC   PO465964  36.311  40.283   5.407
 5087POPC   GL165965  36.142  40.019   5.754
 5087POPC   GL265966  35.972  39.667   5.792
 5087POPC   C1A65967  36.138  39.994   6.174
 5087POPC   D2A65968  36.282  40.158   6.554
 5087POPC   C3A65969  35.975  40.175   6.882
 5087POPC   C4A65970  35.956  39.944   7.263
 5087POPC   C1B65971  35.778  39.643   6.247
 5087POPC   C2B65972  35.777  39.676   6.732
 5087POPC   C3B65973  36.000  39.459   7.100
 5087POPC   C4B65974  35.981  39.519   7.570
 5088POPC   NC365975   7.590  12.521   5.153
 5088POPC   PO465976   7.338  11.921   5.417
 5088POPC   GL165977   7.344  12.194   5.802
 5088POPC   GL265978   7.027  12.251   6.001
 5088POPC   C1A65979   7.505  12.236   6.213
 5088POPC   D2A65980   7.347  12.310   6.617
 5088POPC   C3A65981   7.535  12.045   6.926
 5088POPC   C4A65982   7.686  11.835   7.262
 5088POPC   C1B65983   7.094  11.899   6.294
 5088POPC   C2B65984   7.075  11.884   6.741
 5088POPC   C3B65985   7.072  12.229   7.032
 5088POPC   C4B65986   7.244  12.074   7.367
 5089POPC   NC365987  32.604   8.253   5.279
 5089POPC   PO465988  32.163   7.837   5.417
 5089POPC   GL165989  32.084   8.063   5.790
 5089POPC   GL265990  32.132   8.436   5.699
 5089POPC   C1A65991  32.100   7.918   6.230
 5089POPC   D2A65992  31.894   7.837   6.624
 5089POPC   C3A65993  32.146   7.955   6.943
 5089POPC   C4A65994  32.056   8.149   7.313
 5089POPC   C1B65995  32.277   8.386   6.147
 5089POPC   C2B65996  32.084   8.335   6.584
 5089POPC   C3B65997  32.271   8.472   6.993
 5089POPC   C4B65998  32.407   8.666   7.407
 5090POPC   NC365999   0.586  20.472   5.277
 5090POPC   PO466000   0.578  21.048   5.441
 5090POPC   GL166001   0.519  20.711   5.742
 5090POPC   GL266002   0.765  20.425   5.744
 5090POPC   C1A66003   0.427  20.743   6.178
 5090POPC   D2A66004   0.674  20.793   6.537
 5090POPC   C3A66005   0.557  20.627   6.930
 5090POPC   C4A66006   0.175  20.655   7.156
 5090POPC   C1B66007   0.676  20.298   6.166
 5090POPC   C2B66008   0.811  20.317   6.603
 5090POPC   C3B66009   0.764  20.182   7.038
 5090POPC   C4B66010   0.458  20.186   7.419
 5091POPC   NC366011   6.629  34.142   5.455
 5091POPC   PO466012   7.033  33.568   5.335
 5091POPC   GL166013   6.774  33.597   5.693
 5091POPC   GL266014   6.824  33.875   5.890
 5091POPC   C1A66015   6.502  33.504   6.030
 5091POPC   D2A66016   6.534  33.699   6.431
 5091POPC   C3A66017   6.699  33.606   6.825
 5091POPC   C4A66018   6.770  33.897   7.165
 5091POPC   C1B66019   6.394  34.017   6.049
 5091POPC   C2B66020   6.279  34.147   6.466
 5091POPC   C3B66021   6.302  33.933   6.850
 5091POPC   C4B66022   6.253  33.852   7.250
 5092POPC   NC366023  10.530  41.240   5.475
 5092POPC   PO466024  10.649  41.947   5.476
 5092POPC   GL166025  10.469  41.665   5.774
 5092POPC   GL266026  10.805  41.507   5.816
 5092POPC   C1A66027  10.275  41.639   6.204
 5092POPC   D2A66028  10.399  41.462   6.633
 5092POPC   C3A66029  10.507  41.722   6.996
 5092POPC   C4A66030  10.821  41.661   7.326
 5092POPC   C1B66031  10.669  41.285   6.195
 5092POPC   C2B66032  10.733  41.062   6.599
 5092POPC   C3B66033  10.778  41.216   7.030
 5092POPC   C4B66034  10.431  41.322   7.302
 5093POPC   NC366035  24.240  11.565   4.988
 5093POPC   PO466036  24.628  11.187   5.487
 5093POPC   GL166037  24.860  11.220   5.892
 5093POPC   GL266038  24.755  11.539   5.909
 5093POPC   C1A66039  24.935  11.329   6.349
 5093POPC   D2A66040  24.683  11.393   6.733
 5093POPC   C3A66041  24.617  11.146   7.126
 5093POPC   C4A66042  24.358  11.075   7.526
 5093POPC   C1B66043  24.561  11.675   6.262
 5093POPC   C2B66044  24.550  11.880   6.654
 5093POPC   C3B66045  24.310  11.663   6.995
 5093POPC   C4B66046  24.103  11.482   7.344
 5094POPC   NC366047  44.294  41.310   5.385
 5094POPC   PO466048  44.974  41.428   5.237
 5094POPC   GL166049  44.836  41.246   5.653
 5094POPC   GL266050  44.526  41.340   5.850
 5094POPC   C1A66051  44.960  41.288   6.116
 5094POPC   D2A66052  44.645  41.239   6.463
 5094POPC   C3A66053  44.601  41.568   6.795
 5094POPC   C4A66054  44.779  41.563   7.208
 5094POPC   C1B66055  44.355  41.595   6.207
 5094POPC   C2B66056  44.266  41.885   6.567
 5094POPC   C3B66057  44.207  41.849   7.020
 5094POPC   C4B66058  44.474  41.960   7.366
 5095POPC   NC366059  38.819   0.626   5.492
 5095POPC   PO466060  38.175   0.514   5.530
 5095POPC   GL166061  38.207   0.252   5.884
 5095POPC   GL266062  38.515   0.437   5.925
 5095POPC   C1A66063  38.268   0.255   6.339
 5095POPC   D2A66064  38.282   0.660   6.591
 5095POPC   C3A66065  38.148   0.543   7.002
 5095POPC   C4A66066  38.202   0.129   7.177
 5095POPC   C1B66067  38.713   0.529   6.299
 5095POPC   C2B66068  38.724   0.298   6.681
 5095POPC   C3B66069  38.658   0.389   7.103
 5095POPC   C4B66070  38.489   0.716   7.323
 5096POPC   NC366071  25.186   5.797   5.398
 5096POPC   PO466072  25.806   5.716   5.310
 5096POPC   GL166073  25.583   5.921   5.794
 5096POPC   GL266074  25.210   5.985   5.857
 5096POPC   C1A66075  25.467   6.063   6.273
 5096POPC   D2A66076  25.461   5.871   6.692
 5096POPC   C3A66077  25.449   6.101   7.076
 5096POPC   C4A66078  25.568   5.979   7.505
 5096POPC   C1B66079  25.003   5.870   6.213
 5096POPC   C2B66080  24.989   6.082   6.612
 5096POPC   C3B66081  24.981   5.916   6.987
 5096POPC   C4B66082  24.959   6.046   7.382
 5097POPC   NC366083   6.436  14.032   5.384
 5097POPC   PO466084   6.795  13.498   5.392
 5097POPC   GL166085   6.878  13.560   5.794
 5097POPC   GL266086   6.545  13.746   5.804
 5097POPC   C1A66087   6.917  13.825   6.146
 5097POPC   D2A66088   6.689  13.890   6.504
 5097POPC   C3A66089   6.835  13.733   6.870
 5097POPC   C4A66090   6.886  14.058   7.152
 5097POPC   C1B66091   6.455  13.543   6.194
 5097POPC   C2B66092   6.475  13.415   6.638
 5097POPC   C3B66093   6.497  13.413   7.103
 5097POPC   C4B66094   6.421  13.455   7.566
 5098POPC   NC366095  28.931  18.596   5.622
 5098POPC   PO466096  28.496  18.097   5.344
 5098POPC   GL166097  28.575  18.224   5.751
 5098POPC   GL266098  28.252  18.266   5.925
 5098POPC   C1A66099  28.689  18.173   6.167
 5098POPC   D2A66100  28.392  18.121   6.474
 5098POPC   C3A66101  28.542  18.138   6.877
 5098POPC   C4A66102  28.375  18.030   7.292
 5098POPC   C1B66103  28.372  18.589   6.226
 5098POPC   C2B66104  28.499  18.605   6.671
 5098POPC   C3B66105  28.335  18.527   7.110
 5098POPC   C4B66106  28.589  18.674   7.449
 5099POPC   NC366107  37.678   4.061   5.351
 5099POPC   PO466108  37.871   4.639   5.269
 5099POPC   GL166109  37.769   4.460   5.697
 5099POPC   GL266110  37.939   4.148   5.772
 5099POPC   C1A66111  37.512   4.615   6.080
 5099POPC   D2A66112  37.231   4.627   6.453
 5099POPC   C3A66113  37.310   4.443   6.834
 5099POPC   C4A66114  37.553   4.478   7.202
 5099POPC   C1B66115  37.563   4.119   6.020
 5099POPC   C2B66116  37.562   4.198   6.439
 5099POPC   C3B66117  37.736   4.161   6.843
 5099POPC   C4B66118  37.486   3.972   7.144
 5100POPC   NC366119  35.550   0.784   5.573
 5100POPC   PO466120  35.112   0.312   5.367
 5100POPC   GL166121  35.334   0.294   5.765
 5100POPC   GL266122  35.152  44.967   5.799
 5100POPC   C1A66123  35.544   0.461   6.175
 5100POPC   D2A66124  35.421   0.513   6.611
 5100POPC   C3A66125  35.656   0.617   6.992
 5100POPC   C4A66126  35.393   0.547   7.320
 5100POPC   C1B66127  35.124   0.121   6.235
 5100POPC   C2B66128  35.190   0.055   6.671
 5100POPC   C3B66129  35.090   0.232   7.051
 5100POPC   C4B66130  34.893   0.325   7.430
 5101POPC   NC366131  30.088  32.728   5.365
 5101POPC   PO466132  30.124  33.376   5.329
 5101POPC   GL166133  29.912  33.139   5.648
 5101POPC   GL266134  29.712  32.858   5.718
 5101POPC   C1A66135  29.920  33.151   6.103
 5101POPC   D2A66136  29.902  33.391   6.475
 5101POPC   C3A66137  29.791  33.182   6.836
 5101POPC   C4A66138  29.801  33.079   7.265
 5101POPC   C1B66139  29.516  32.823   6.132
 5101POPC   C2B66140  29.636  32.764   6.577
 5101POPC   C3B66141  29.508  32.735   7.026
 5101POPC   C4B66142  29.495  32.726   7.513
 5102POPC   NC366143  28.718  42.517   5.263
 5102POPC   PO466144  28.180  42.201   5.194
 5102POPC   GL166145  28.197  42.349   5.672
 5102POPC   GL266146  28.321  42.660   5.615
 5102POPC   C1A66147  28.276  42.256   6.155
 5102POPC   D2A66148  28.076  42.279   6.593
 5102POPC   C3A66149  28.264  42.158   6.993
 5102POPC   C4A66150  28.398  42.432   7.340
 5102POPC   C1B66151  28.311  42.757   6.065
 5102POPC   C2B66152  28.393  42.707   6.527
 5102POPC   C3B66153  28.459  42.791   6.986
 5102POPC   C4B66154  28.604  42.948   7.394
 5103POPC   NC366155   4.764   2.145   5.275
 5103POPC   PO466156   4.166   2.133   5.455
 5103POPC   GL166157   4.339   2.124   5.826
 5103POPC   GL266158   4.630   1.905   5.815
 5103POPC   C1A66159   4.258   1.908   6.185
 5103POPC   D2A66160   4.375   1.948   6.576
 5103POPC   C3A66161   4.113   1.912   6.922
 5103POPC   C4A66162   4.243   2.067   7.304
 5103POPC   C1B66163   4.755   1.716   6.207
 5103POPC   C2B66164   4.790   1.676   6.645
 5103POPC   C3B66165   4.662   1.911   6.996
 5103POPC   C4B66166   4.843   1.810   7.360
 5104POPC   NC366167  30.776   0.821   5.255
 5104POPC   PO466168  30.394   0.291   5.405
 5104POPC   GL166169  30.705   0.284   5.741
 5104POPC   GL266170  30.619   0.609   5.831
 5104POPC   C1A66171  30.953   0.331   6.156
 5104POPC   D2A66172  30.943   0.104   6.557
 5104POPC   C3A66173  31.120   0.169   6.987
 5104POPC   C4A66174  30.950   0.312   7.403
 5104POPC   C1B66175  30.463   0.397   6.236
 5104POPC   C2B66176  30.577   0.532   6.642
 5104POPC   C3B66177  30.711   0.602   7.056
 5104POPC   C4B66178  30.642   0.725   7.487
 5105POPC   NC366179  16.399   1.664   5.392
 5105POPC   PO466180  16.734   2.222   5.439
 5105POPC   GL166181  16.570   2.165   5.825
 5105POPC   GL266182  16.617   1.839   5.878
 5105POPC   C1A66183  16.423   2.155   6.242
 5105POPC   D2A66184  16.460   2.337   6.628
 5105POPC   C3A66185  16.728   2.097   6.905
 5105POPC   C4A66186  16.791   2.078   7.346
 5105POPC   C1B66187  16.766   1.631   6.277
 5105POPC   C2B66188  16.759   1.543   6.736
 5105POPC   C3B66189  16.887   1.598   7.177
 5105POPC   C4B66190  16.629   1.671   7.605
 5106POPC   NC366191  21.757  20.119   5.453
 5106POPC   PO466192  21.197  19.704   5.387
 5106POPC   GL166193  21.408  19.849   5.737
 5106POPC   GL266194  21.303  20.155   5.772
 5106POPC   C1A66195  21.192  19.797   6.167
 5106POPC   D2A66196  21.306  19.721   6.569
 5106POPC   C3A66197  21.089  19.726   6.938
 5106POPC   C4A66198  21.335  19.697   7.320
 5106POPC   C1B66199  21.550  20.148   6.141
 5106POPC   C2B66200  21.377  20.228   6.542
 5106POPC   C3B66201  21.473  20.068   6.940
 5106POPC   C4B66202  21.390  20.253   7.316
 5107POPC   NC366203   6.594  31.702   5.410
 5107POPC   PO466204   6.858  31.017   5.375
 5107POPC   GL166205   6.907  31.299   5.744
 5107POPC   GL266206   6.557  31.373   5.839
 5107POPC   C1A66207   6.919  31.497   6.179
 5107POPC   D2A66208   6.686  31.432   6.526
 5107POPC   C3A66209   6.872  31.390   6.905
 5107POPC   C4A66210   7.041  31.653   7.210
 5107POPC   C1B66211   6.271  31.392   6.224
 5107POPC   C2B66212   6.219  31.349   6.693
 5107POPC   C3B66213   6.235  31.355   7.154
 5107POPC   C4B66214   6.559  31.485   7.458
 5108POPC   NC366215  34.093   7.562   5.324
 5108POPC   PO466216  33.551   7.310   5.060
 5108POPC   GL166217  33.635   7.430   5.597
 5108POPC   GL266218  33.913   7.638   5.791
 5108POPC   C1A66219  33.685   7.338   6.124
 5108POPC   D2A66220  33.797   7.495   6.578
 5108POPC   C3A66221  33.781   7.312   7.017
 5108POPC   C4A66222  33.783   7.608   7.382
 5108POPC   C1B66223  34.142   7.597   6.202
 5108POPC   C2B66224  34.315   7.611   6.632
 5108POPC   C3B66225  34.281   7.448   7.060
 5108POPC   C4B66226  34.093   7.238   7.453
 5109POPC   NC366227  14.493  38.038   5.477
 5109POPC   PO466228  14.184  37.359   5.574
 5109POPC   GL166229  14.381  37.670   5.825
 5109POPC   GL266230  14.210  38.008   5.894
 5109POPC   C1A66231  14.475  37.724   6.260
 5109POPC   D2A66232  14.489  37.795   6.684
 5109POPC   C3A66233  14.428  37.449   6.960
 5109POPC   C4A66234  14.688  37.552   7.291
 5109POPC   C1B66235  13.989  38.169   6.267
 5109POPC   C2B66236  14.074  38.129   6.721
 5109POPC   C3B66237  14.146  37.863   7.055
 5109POPC   C4B66238  14.205  37.901   7.463
 5110POPC   NC366239  39.636  35.606   5.458
 5110POPC   PO466240  39.546  36.258   5.379
 5110POPC   GL166241  39.328  36.144   5.793
 5110POPC   GL266242  39.006  36.027   5.737
 5110POPC   C1A66243  39.171  36.303   6.215
 5110POPC   D2A66244  38.913  36.283   6.608
 5110POPC   C3A66245  39.128  36.334   7.015
 5110POPC   C4A66246  39.281  36.083   7.428
 5110POPC   C1B66247  39.028  35.816   6.187
 5110POPC   C2B66248  39.238  35.893   6.568
 5110POPC   C3B66249  38.980  35.861   6.910
 5110POPC   C4B66250  38.922  35.733   7.326
 5111POPC   NC366251   6.831  40.963   5.370
 5111POPC   PO466252   6.392  40.536   5.572
 5111POPC   GL166253   6.581  40.909   5.806
 5111POPC   GL266254   6.945  40.799   5.823
 5111POPC   C1A66255   6.437  41.078   6.197
 5111POPC   D2A66256   6.344  40.789   6.541
 5111POPC   C3A66257   6.555  40.810   6.926
 5111POPC   C4A66258   6.420  40.714   7.356
 5111POPC   C1B66259   6.781  40.640   6.193
 5111POPC   C2B66260   7.045  40.496   6.489
 5111POPC   C3B66261   6.970  40.312   6.848
 5111POPC   C4B66262   6.867  40.515   7.192
 5112POPC   NC366263  13.010   3.400   5.139
 5112POPC   PO466264  12.815   4.023   5.290
 5112POPC   GL166265  12.812   3.783   5.708
 5112POPC   GL266266  13.116   3.607   5.827
 5112POPC   C1A66267  12.685   3.618   6.147
 5112POPC   D2A66268  12.939   3.737   6.509
 5112POPC   C3A66269  12.888   3.641   6.909
 5112POPC   C4A66270  13.069   3.579   7.277
 5112POPC   C1B66271  13.137   3.359   6.255
 5112POPC   C2B66272  13.020   3.164   6.632
 5112POPC   C3B66273  12.831   3.132   7.003
 5112POPC   C4B66274  13.023   3.067   7.340
 5113POPC   NC366275  25.337  39.586   5.684
 5113POPC   PO466276  25.172  38.903   5.580
 5113POPC   GL166277  25.388  39.140   5.912
 5113POPC   GL266278  25.629  39.440   6.054
 5113POPC   C1A66279  25.123  39.335   6.248
 5113POPC   D2A66280  24.909  39.041   6.513
 5113POPC   C3A66281  24.989  38.999   6.963
 5113POPC   C4A66282  25.101  39.423   7.105
 5113POPC   C1B66283  25.584  39.162   6.379
 5113POPC   C2B66284  25.354  39.238   6.698
 5113POPC   C3B66285  25.501  39.098   7.024
 5113POPC   C4B66286  25.795  39.367   7.136
 5114POPC   NC366287   7.912  10.245   5.144
 5114POPC   PO466288   8.345  10.636   5.343
 5114POPC   GL166289   8.111  10.481   5.709
 5114POPC   GL266290   8.434  10.436   5.864
 5114POPC   C1A66291   8.049  10.547   6.171
 5114POPC   D2A66292   8.326  10.684   6.514
 5114POPC   C3A66293   8.272  10.575   6.953
 5114POPC   C4A66294   7.939  10.524   7.258
 5114POPC   C1B66295   8.658  10.367   6.275
 5114POPC   C2B66296   8.666  10.295   6.717
 5114POPC   C3B66297   8.522  10.129   7.099
 5114POPC   C4B66298   8.397  10.367   7.430
 5115POPC   NC366299   6.947  12.283   5.496
 5115POPC   PO466300   6.348  12.012   5.308
 5115POPC   GL166301   6.486  11.914   5.763
 5115POPC   GL266302   6.830  11.777   5.845
 5115POPC   C1A66303   6.580  12.096   6.200
 5115POPC   D2A66304   6.822  12.294   6.554
 5115POPC   C3A66305   6.577  12.264   6.944
 5115POPC   C4A66306   6.252  12.018   7.166
 5115POPC   C1B66307   6.658  11.603   6.277
 5115POPC   C2B66308   6.582  11.754   6.740
 5115POPC   C3B66309   6.771  11.834   7.178
 5115POPC   C4B66310   6.909  11.749   7.609
 5116POPC   NC366311  24.022  29.341   5.022
 5116POPC   PO466312  23.772  28.852   5.442
 5116POPC   GL166313  23.737  29.081   5.802
 5116POPC   GL266314  23.472  29.343   5.758
 5116POPC   C1A66315  23.834  29.180   6.193
 5116POPC   D2A66316  23.936  29.363   6.571
 5116POPC   C3A66317  24.191  29.156   6.836
 5116POPC   C4A66318  23.991  29.051   7.190
 5116POPC   C1B66319  23.319  29.277   6.177
 5116POPC   C2B66320  23.407  28.945   6.472
 5116POPC   C3B66321  23.581  28.932   6.889
 5116POPC   C4B66322  23.500  29.012   7.341
 5117POPC   NC366323   0.170  17.735   5.515
 5117POPC   PO466324   0.714  17.475   5.337
 5117POPC   GL166325   0.581  17.558   5.778
 5117POPC   GL266326   0.383  17.300   5.940
 5117POPC   C1A66327   0.729  17.553   6.207
 5117POPC   D2A66328   0.695  17.365   6.591
 5117POPC   C3A66329   0.671  17.579   6.965
 5117POPC   C4A66330   0.862  17.417   7.313
 5117POPC   C1B66331   0.220  17.454   6.323
 5117POPC   C2B66332   0.270  17.717   6.659
 5117POPC   C3B66333   0.198  17.725   7.098
 5117POPC   C4B66334   0.281  17.290   7.188
 5118POPC   NC366335   9.520  42.315   5.312
 5118POPC   PO466336   9.874  41.751   5.223
 5118POPC   GL166337   9.738  42.005   5.680
 5118POPC   GL266338   9.492  42.283   5.801
 5118POPC   C1A66339   9.851  41.994   6.144
 5118POPC   D2A66340   9.832  42.240   6.524
 5118POPC   C3A66341   9.931  42.128   6.941
 5118POPC   C4A66342   9.893  41.882   7.325
 5118POPC   C1B66343   9.399  42.248   6.217
 5118POPC   C2B66344   9.369  42.410   6.603
 5118POPC   C3B66345   9.442  42.300   6.988
 5118POPC   C4B66346   9.704  42.391   7.337
 5119POPC   NC366347   5.899  13.234   5.263
 5119POPC   PO466348   6.041  13.865   5.217
 5119POPC   GL166349   6.023  13.633   5.608
 5119POPC   GL266350   6.063  13.942   5.754
 5119POPC   C1A66351   5.977  13.487   6.061
 5119POPC   D2A66352   5.995  13.308   6.493
 5119POPC   C3A66353   6.025  13.523   6.899
 5119POPC   C4A66354   6.016  13.320   7.287
 5119POPC   C1B66355   6.263  14.046   6.132
 5119POPC   C2B66356   6.189  13.851   6.522
 5119POPC   C3B66357   6.346  13.935   6.923
 5119POPC   C4B66358   5.979  14.016   7.160
 5120POPC   NC366359  42.186  36.294   5.420
 5120POPC   PO466360  42.369  35.717   5.178
 5120POPC   GL166361  42.572  36.215   5.740
 5120POPC   GL266362  42.214  36.204   5.908
 5120POPC   C1A66363  42.590  36.281   6.211
 5120POPC   D2A66364  42.451  36.002   6.533
 5120POPC   C3A66365  42.449  36.033   6.961
 5120POPC   C4A66366  42.735  36.196   7.261
 5120POPC   C1B66367  42.042  36.227   6.297
 5120POPC   C2B66368  42.105  36.374   6.703
 5120POPC   C3B66369  41.949  36.126   7.014
 5120POPC   C4B66370  42.091  35.906   7.329
 5121POPC   NC366371  28.918  15.550   5.236
 5121POPC   PO466372  28.421  15.186   5.471
 5121POPC   GL166373  28.320  15.181   5.888
 5121POPC   GL266374  28.282  15.526   5.850
 5121POPC   C1A66375  28.328  14.984   6.306
 5121POPC   D2A66376  28.619  15.131   6.639
 5121POPC   C3A66377  28.459  14.977   7.033
 5121POPC   C4A66378  28.325  15.014   7.456
 5121POPC   C1B66379  28.372  15.493   6.305
 5121POPC   C2B66380  28.160  15.334   6.709
 5121POPC   C3B66381  28.248  15.435   7.146
 5121POPC   C4B66382  28.510  15.496   7.522
 5122POPC   NC366383   0.822  43.293   5.301
 5122POPC   PO466384   0.217  42.989   5.471
 5122POPC   GL166385   0.441  43.261   5.739
 5122POPC   GL266386   0.755  43.117   5.761
 5122POPC   C1A66387   0.603  43.362   6.174
 5122POPC   D2A66388   0.392  43.489   6.529
 5122POPC   C3A66389   0.489  43.322   6.917
 5122POPC   C4A66390   0.271  43.192   7.259
 5122POPC   C1B66391   0.527  42.875   6.088
 5122POPC   C2B66392   0.481  42.958   6.541
 5122POPC   C3B66393   0.632  42.847   6.975
 5122POPC   C4B66394   0.466  42.738   7.375
 5123POPC   NC366395   8.503   8.474   5.411
 5123POPC   PO466396   7.905   8.068   5.402
 5123POPC   GL166397   8.069   8.296   5.765
 5123POPC   GL266398   8.420   8.297   5.870
 5123POPC   C1A66399   8.022   8.430   6.202
 5123POPC   D2A66400   7.962   8.111   6.541
 5123POPC   C3A66401   7.951   8.170   6.971
 5123POPC   C4A66402   7.793   8.429   7.302
 5123POPC   C1B66403   8.299   7.975   6.163
 5123POPC   C2B66404   8.489   7.976   6.567
 5123POPC   C3B66405   8.468   8.293   6.888
 5123POPC   C4B66406   8.296   8.338   7.285
 5124POPC   NC366407  11.434  14.648   5.357
 5124POPC   PO466408  10.983  14.120   5.440
 5124POPC   GL166409  11.089  14.343   5.843
 5124POPC   GL266410  11.468  14.395   5.891
 5124POPC   C1A66411  11.145  14.433   6.310
 5124POPC   D2A66412  11.432  14.500   6.657
 5124POPC   C3A66413  11.270  14.355   7.051
 5124POPC   C4A66414  11.024  14.331   7.437
 5124POPC   C1B66415  11.585  14.727   6.212
 5124POPC   C2B66416  11.670  15.021   6.571
 5124POPC   C3B66417  11.671  14.824   6.984
 5124POPC   C4B66418  11.923  14.841   7.344
 5125POPC   NC366419  31.376   2.037   5.007
 5125POPC   PO466420  31.836   2.403   5.308
 5125POPC   GL166421  31.540   2.156   5.613
 5125POPC   GL266422  31.530   2.407   5.875
 5125POPC   C1A66423  31.542   1.899   6.008
 5125POPC   D2A66424  31.549   1.638   6.406
 5125POPC   C3A66425  31.555   1.786   6.866
 5125POPC   C4A66426  31.485   1.696   7.311
 5125POPC   C1B66427  31.235   2.279   6.202
 5125POPC   C2B66428  31.309   2.164   6.612
 5125POPC   C3B66429  31.474   2.330   7.002
 5125POPC   C4B66430  31.384   2.213   7.420
 5126POPC   NC366431  14.683  37.121   5.456
 5126POPC   PO466432  15.358  37.114   5.447
 5126POPC   GL166433  15.151  37.148   5.830
 5126POPC   GL266434  15.334  36.880   5.965
 5126POPC   C1A66435  15.096  37.197   6.296
 5126POPC   D2A66436  14.883  37.441   6.615
 5126POPC   C3A66437  14.848  37.169   6.945
 5126POPC   C4A66438  15.062  36.871   7.173
 5126POPC   C1B66439  15.221  36.713   6.373
 5126POPC   C2B66440  14.898  36.713   6.695
 5126POPC   C3B66441  14.842  36.426   7.068
 5126POPC   C4B66442  14.955  36.474   7.521
 5127POPC   NC366443  19.590  43.789   5.472
 5127POPC   PO466444  20.089  44.075   5.711
 5127POPC   GL166445  19.668  44.000   5.947
 5127POPC   GL266446  19.408  43.702   5.949
 5127POPC   C1A66447  19.835  44.015   6.357
 5127POPC   D2A66448  20.105  43.724   6.623
 5127POPC   C3A66449  20.189  43.825   7.056
 5127POPC   C4A66450  20.033  43.892   7.490
 5127POPC   C1B66451  19.364  43.813   6.393
 5127POPC   C2B66452  19.608  43.882   6.770
 5127POPC   C3B66453  19.700  43.707   7.123
 5127POPC   C4B66454  19.561  43.343   7.202
 5128POPC   NC366455  42.705   1.934   5.395
 5128POPC   PO466456  42.196   2.350   5.328
 5128POPC   GL166457  42.412   2.193   5.716
 5128POPC   GL266458  42.334   1.818   5.759
 5128POPC   C1A66459  42.652   2.039   6.098
 5128POPC   D2A66460  42.530   2.205   6.500
 5128POPC   C3A66461  42.639   2.123   6.917
 5128POPC   C4A66462  42.632   1.925   7.312
 5128POPC   C1B66463  42.178   1.914   6.187
 5128POPC   C2B66464  42.265   1.805   6.611
 5128POPC   C3B66465  42.168   1.923   7.069
 5128POPC   C4B66466  42.155   1.776   7.534
 5129POPC   NC366467  36.867   4.037   5.321
 5129POPC   PO466468  36.598   4.574   5.481
 5129POPC   GL166469  36.749   4.199   5.806
 5129POPC   GL266470  37.075   3.983   5.831
 5129POPC   C1A66471  36.931   4.208   6.254
 5129POPC   D2A66472  36.711   4.476   6.541
 5129POPC   C3A66473  36.717   4.525   6.981
 5129POPC   C4A66474  37.023   4.479   7.268
 5129POPC   C1B66475  37.241   3.755   6.201
 5129POPC   C2B66476  37.194   3.879   6.636
 5129POPC   C3B66477  36.990   4.069   6.976
 5129POPC   C4B66478  37.056   3.976   7.406
 5130POPC   NC366479  42.571  28.004   5.061
 5130POPC   PO466480  42.775  28.590   5.365
 5130POPC   GL166481  42.574  28.468   5.776
 5130POPC   GL266482  42.415  28.150   5.765
 5130POPC   C1A66483  42.340  28.498   6.174
 5130POPC   D2A66484  42.289  28.281   6.554
 5130POPC   C3A66485  42.248  28.513   6.949
 5130POPC   C4A66486  42.375  28.852   7.218
 5130POPC   C1B66487  42.521  27.964   6.155
 5130POPC   C2B66488  42.672  27.906   6.553
 5130POPC   C3B66489  42.637  28.148   6.903
 5130POPC   C4B66490  42.714  28.065   7.262
 5131POPC   NC366491  11.701   2.370   5.452
 5131POPC   PO466492  11.980   1.772   5.259
 5131POPC   GL166493  12.025   2.032   5.661
 5131POPC   GL266494  12.366   2.077   5.748
 5131POPC   C1A66495  11.794   2.145   6.063
 5131POPC   D2A66496  11.781   2.216   6.515
 5131POPC   C3A66497  12.029   2.079   6.865
 5131POPC   C4A66498  11.776   1.929   7.221
 5131POPC   C1B66499  12.295   2.198   6.199
 5131POPC   C2B66500  12.524   2.211   6.593
 5131POPC   C3B66501  12.510   2.296   7.029
 5131POPC   C4B66502  12.256   2.124   7.331
 5132POPC   NC366503  42.179   9.088   5.442
 5132POPC   PO466504  42.665   8.707   5.309
 5132POPC   GL166505  42.606   8.977   5.715
 5132POPC   GL266506  42.466   9.336   5.797
 5132POPC   C1A66507  42.605   9.005   6.187
 5132POPC   D2A66508  42.776   9.065   6.606
 5132POPC   C3A66509  42.501   8.945   6.986
 5132POPC   C4A66510  42.308   9.038   7.395
 5132POPC   C1B66511  42.133   9.169   6.125
 5132POPC   C2B66512  42.166   9.018   6.580
 5132POPC   C3B66513  42.142   9.301   6.950
 5132POPC   C4B66514  41.882   9.319   7.327
 5133POPC   NC366515  31.968  20.242   5.367
 5133POPC   PO466516  32.245  19.645   5.264
 5133POPC   GL166517  32.213  19.807   5.657
 5133POPC   GL266518  32.472  19.992   5.798
 5133POPC   C1A66519  32.121  19.653   6.079
 5133POPC   D2A66520  31.919  19.753   6.469
 5133POPC   C3A66521  32.039  19.674   6.907
 5133POPC   C4A66522  32.171  19.680   7.328
 5133POPC   C1B66523  32.335  20.096   6.233
 5133POPC   C2B66524  32.379  19.917   6.635
 5133POPC   C3B66525  32.360  20.089   7.042
 5133POPC   C4B66526  32.691  20.336   7.223
 5134POPC   NC366527  12.652  19.404   5.449
 5134POPC   PO466528  13.079  18.958   5.408
 5134POPC   GL166529  12.837  19.055   5.774
 5134POPC   GL266530  13.026  19.350   5.853
 5134POPC   C1A66531  12.713  18.885   6.178
 5134POPC   D2A66532  12.604  19.045   6.577
 5134POPC   C3A66533  12.595  18.809   6.926
 5134POPC   C4A66534  12.509  18.914   7.312
 5134POPC   C1B66535  13.221  19.051   6.134
 5134POPC   C2B66536  13.115  18.878   6.540
 5134POPC   C3B66537  13.015  19.071   6.916
 5134POPC   C4B66538  13.014  18.919   7.308
 5135POPC   NC366539   0.811  28.457   5.208
 5135POPC   PO466540   0.187  28.147   5.218
 5135POPC   GL166541   0.393  28.308   5.582
 5135POPC   GL266542   0.244  28.049   5.778
 5135POPC   C1A66543   0.573  28.384   6.039
 5135POPC   D2A66544   0.673  28.224   6.500
 5135POPC   C3A66545   0.557  28.380   6.938
 5135POPC   C4A66546   0.653  28.710   7.249
 5135POPC   C1B66547   0.226  28.023   6.223
 5135POPC   C2B66548  44.984  27.949   6.574
 5135POPC   C3B66549   0.118  28.063   6.965
 5135POPC   C4B66550   0.011  28.161   7.368
 5136POPC   NC366551  34.120  20.424   5.402
 5136POPC   PO466552  34.630  20.813   5.526
 5136POPC   GL166553  34.388  20.596   5.826
 5136POPC   GL266554  34.286  20.931   5.909
 5136POPC   C1A66555  34.557  20.300   6.172
 5136POPC   D2A66556  34.915  20.383   6.491
 5136POPC   C3A66557  34.795  20.506   6.915
 5136POPC   C4A66558  34.656  20.424   7.325
 5136POPC   C1B66559  34.555  20.802   6.262
 5136POPC   C2B66560  34.394  20.568   6.618
 5136POPC   C3B66561  34.333  20.716   7.039
 5136POPC   C4B66562  34.661  20.943   7.284
 5137POPC   NC366563  25.389  33.965   5.430
 5137POPC   PO466564  24.814  33.540   5.166
 5137POPC   GL166565  24.922  33.741   5.655
 5137POPC   GL266566  25.059  34.078   5.818
 5137POPC   C1A66567  25.166  33.698   6.123
 5137POPC   D2A66568  25.312  33.851   6.518
 5137POPC   C3A66569  25.148  33.763   6.908
 5137POPC   C4A66570  25.461  33.588   7.179
 5137POPC   C1B66571  25.236  34.275   6.215
 5137POPC   C2B66572  25.561  34.292   6.591
 5137POPC   C3B66573  25.519  34.156   7.029
 5137POPC   C4B66574  25.102  34.143   7.236
 5138POPC   NC366575  16.945   2.558   5.225
 5138POPC   PO466576  16.387   2.832   5.332
 5138POPC   GL166577  16.653   2.673   5.691
 5138POPC   GL266578  16.972   2.833   5.745
 5138POPC   C1A66579  16.736   2.577   6.135
 5138POPC   D2A66580  16.670   2.802   6.541
 5138POPC   C3A66581  16.706   2.643   6.975
 5138POPC   C4A66582  16.616   2.543   7.415
 5138POPC   C1B66583  16.997   3.028   6.193
 5138POPC   C2B66584  17.153   2.949   6.630
 5138POPC   C3B66585  16.929   3.108   6.997
 5138POPC   C4B66586  16.659   3.031   7.357
 5139POPC   NC366587  11.692  39.049   5.426
 5139POPC   PO466588  11.060  39.342   5.378
 5139POPC   GL166589  11.355  39.366   5.736
 5139POPC   GL266590  11.173  39.071   5.796
 5139POPC   C1A66591  11.395  39.264   6.225
 5139POPC   D2A66592  11.485  39.418   6.661
 5139POPC   C3A66593  11.269  39.531   7.061
 5139POPC   C4A66594  11.523  39.411   7.418
 5139POPC   C1B66595  10.947  39.432   6.045
 5139POPC   C2B66596  10.976  39.460   6.510
 5139POPC   C3B66597  11.076  39.122   6.828
 5139POPC   C4B66598  11.073  39.077   7.302
 5140POPC   NC366599  34.844   6.142   5.433
 5140POPC   PO466600  34.388   6.663   5.305
 5140POPC   GL166601  34.651   6.613   5.675
 5140POPC   GL266602  34.360   6.531   5.856
 5140POPC   C1A66603  34.734   6.712   6.146
 5140POPC   D2A66604  34.710   6.487   6.553
 5140POPC   C3A66605  34.667   6.705   6.934
 5140POPC   C4A66606  34.943   6.746   7.280
 5140POPC   C1B66607  34.235   6.837   6.189
 5140POPC   C2B66608  34.369   6.993   6.603
 5140POPC   C3B66609  34.235   6.934   7.054
 5140POPC   C4B66610  34.402   6.846   7.510
 5141POPC   NC366611  24.297  11.478   5.597
 5141POPC   PO466612  23.782  11.678   5.140
 5141POPC   GL166613  23.790  11.571   5.639
 5141POPC   GL266614  23.853  11.236   5.775
 5141POPC   C1A66615  23.807  11.577   6.146
 5141POPC   D2A66616  23.921  11.491   6.616
 5141POPC   C3A66617  23.693  11.336   7.004
 5141POPC   C4A66618  23.584  11.538   7.386
 5141POPC   C1B66619  23.523  11.157   6.097
 5141POPC   C2B66620  23.558  11.103   6.550
 5141POPC   C3B66621  23.325  10.982   6.940
 5141POPC   C4B66622  23.399  10.909   7.376
 5142POPC   NC366623  19.025   4.010   5.472
 5142POPC   PO466624  19.193   4.671   5.507
 5142POPC   GL166625  18.985   4.401   5.823
 5142POPC   GL266626  19.195   4.107   5.944
 5142POPC   C1A66627  18.866   4.394   6.260
 5142POPC   D2A66628  19.109   4.272   6.638
 5142POPC   C3A66629  18.907   4.180   7.036
 5142POPC   C4A66630  18.817   4.577   7.215
 5142POPC   C1B66631  18.919   3.878   6.233
 5142POPC   C2B66632  19.037   3.772   6.675
 5142POPC   C3B66633  19.373   3.910   6.965
 5142POPC   C4B66634  19.345   4.061   7.391
 5143POPC   NC366635  38.582  33.188   5.407
 5143POPC   PO466636  38.202  32.618   5.423
 5143POPC   GL166637  38.194  32.942   5.776
 5143POPC   GL266638  38.110  33.288   5.699
 5143POPC   C1A66639  38.530  33.087   6.097
 5143POPC   D2A66640  38.818  33.139   6.478
 5143POPC   C3A66641  38.732  32.850   6.838
 5143POPC   C4A66642  38.599  32.840   7.262
 5143POPC   C1B66643  38.105  33.358   6.146
 5143POPC   C2B66644  38.292  33.196   6.573
 5143POPC   C3B66645  38.437  33.262   7.019
 5143POPC   C4B66646  38.515  33.291   7.501
 5144POPC   NC366647  35.577  41.757   5.633
 5144POPC   PO466648  35.113  41.326   5.576
 5144POPC   GL166649  35.188  41.581   5.909
 5144POPC   GL266650  35.520  41.334   5.915
 5144POPC   C1A66651  35.427  41.747   6.267
 5144POPC   D2A66652  35.595  41.810   6.685
 5144POPC   C3A66653  35.304  41.698   7.013
 5144POPC   C4A66654  35.243  41.788   7.426
 5144POPC   C1B66655  35.242  41.208   6.227
 5144POPC   C2B66656  35.275  41.388   6.596
 5144POPC   C3B66657  35.594  41.315   6.871
 5144POPC   C4B66658  35.580  41.368   7.307
 5145POPC   NC366659  37.574  14.012   5.568
 5145POPC   PO466660  37.655  14.633   5.382
 5145POPC   GL166661  37.794  14.413   5.776
 5145POPC   GL266662  37.456  14.407   5.851
 5145POPC   C1A66663  37.872  14.271   6.194
 5145POPC   D2A66664  37.989  14.463   6.592
 5145POPC   C3A66665  37.954  14.446   7.021
 5145POPC   C4A66666  37.661  14.713   7.249
 5145POPC   C1B66667  37.359  14.171   6.226
 5145POPC   C2B66668  37.563  14.172   6.632
 5145POPC   C3B66669  37.486  14.256   7.060
 5145POPC   C4B66670  37.311  14.114   7.443
 5146POPC   NC366671  32.384  27.359   5.392
 5146POPC   PO466672  32.070  27.991   5.291
 5146POPC   GL166673  32.059  27.789   5.731
 5146POPC   GL266674  32.396  27.655   5.817
 5146POPC   C1A66675  32.058  27.652   6.205
 5146POPC   D2A66676  32.305  27.729   6.603
 5146POPC   C3A66677  32.137  27.586   6.988
 5146POPC   C4A66678  32.048  27.789   7.341
 5146POPC   C1B66679  32.618  27.613   6.224
 5146POPC   C2B66680  32.702  27.304   6.538
 5146POPC   C3B66681  32.577  27.330   6.952
 5146POPC   C4B66682  32.530  27.589   7.326
 5147POPC   NC366683  36.532  29.198   5.123
 5147POPC   PO466684  35.913  29.290   5.347
 5147POPC   GL166685  36.028  29.063   5.694
 5147POPC   GL266686  36.064  29.393   5.842
 5147POPC   C1A66687  35.877  28.970   6.124
 5147POPC   D2A66688  36.097  28.856   6.531
 5147POPC   C3A66689  35.921  28.975   6.945
 5147POPC   C4A66690  36.153  29.085   7.329
 5147POPC   C1B66691  36.196  29.343   6.266
 5147POPC   C2B66692  36.136  29.378   6.699
 5147POPC   C3B66693  36.361  29.472   7.053
 5147POPC   C4B66694  36.393  29.525   7.488
 5148POPC   NC366695  40.389  31.063   5.359
 5148POPC   PO466696  40.732  30.526   5.210
 5148POPC   GL166697  40.763  30.733   5.652
 5148POPC   GL266698  41.018  31.022   5.712
 5148POPC   C1A66699  40.674  30.691   6.135
 5148POPC   D2A66700  40.866  30.778   6.590
 5148POPC   C3A66701  40.674  30.679   7.022
 5148POPC   C4A66702  40.386  31.018   7.202
 5148POPC   C1B66703  41.106  30.981   6.174
 5148POPC   C2B66704  41.214  31.153   6.612
 5148POPC   C3B66705  41.117  30.959   7.039
 5148POPC   C4B66706  41.339  30.910   7.467
 5149POPC   NC366707  28.564  37.264   5.398
 5149POPC   PO466708  29.246  37.205   5.330
 5149POPC   GL166709  29.232  36.928   5.747
 5149POPC   GL266710  28.865  36.949   5.803
 5149POPC   C1A66711  29.303  36.625   6.153
 5149POPC   D2A66712  29.249  36.763   6.619
 5149POPC   C3A66713  29.440  36.622   7.033
 5149POPC   C4A66714  29.363  36.811   7.463
 5149POPC   C1B66715  28.978  37.001   6.244
 5149POPC   C2B66716  28.843  37.065   6.684
 5149POPC   C3B66717  29.034  36.934   7.086
 5149POPC   C4B66718  28.912  37.103   7.479
 5150POPC   NC366719  20.898  34.092   5.047
 5150POPC   PO466720  20.425  33.875   5.421
 5150POPC   GL166721  20.646  33.697   5.736
 5150POPC   GL266722  20.348  33.490   5.777
 5150POPC   C1A66723  20.840  33.767   6.122
 5150POPC   D2A66724  20.824  34.117   6.430
 5150POPC   C3A66725  20.994  33.985   6.821
 5150POPC   C4A66726  20.883  34.080   7.225
 5150POPC   C1B66727  20.327  33.817   6.112
 5150POPC   C2B66728  20.512  33.706   6.515
 5150POPC   C3B66729  20.558  33.593   6.936
 5150POPC   C4B66730  20.336  33.790   7.255
 5151POPC   NC366731  30.859  34.449   5.395
 5151POPC   PO466732  30.390  34.976   5.438
 5151POPC   GL166733  30.587  34.758   5.779
 5151POPC   GL266734  30.496  34.394   5.780
 5151POPC   C1A66735  30.789  34.564   6.154
 5151POPC   D2A66736  30.843  34.357   6.576
 5151POPC   C3A66737  30.881  34.637   6.960
 5151POPC   C4A66738  30.628  34.827   7.274
 5151POPC   C1B66739  30.434  34.139   6.168
 5151POPC   C2B66740  30.358  34.245   6.587
 5151POPC   C3B66741  30.525  34.279   7.004
 5151POPC   C4B66742  30.268  34.463   7.322
 5152POPC   NC366743   1.401  22.710   5.366
 5152POPC   PO466744   1.054  23.297   5.381
 5152POPC   GL166745   1.182  22.979   5.749
 5152POPC   GL266746   1.501  22.982   5.927
 5152POPC   C1A66747   1.016  22.996   6.185
 5152POPC   D2A66748   1.150  23.097   6.609
 5152POPC   C3A66749   0.998  22.948   6.987
 5152POPC   C4A66750   1.134  22.644   7.329
 5152POPC   C1B66751   1.560  23.253   6.297
 5152POPC   C2B66752   1.571  23.339   6.749
 5152POPC   C3B66753   1.515  23.041   7.103
 5152POPC   C4B66754   1.249  23.097   7.501
 5153POPC   NC366755   4.503   0.691   5.346
 5153POPC   PO466756   4.546   0.038   5.582
 5153POPC   GL166757   4.245   0.177   5.907
 5153POPC   GL266758   4.118   0.540   5.854
 5153POPC   C1A66759   4.290   0.359   6.330
 5153POPC   D2A66760   4.526   0.621   6.639
 5153POPC   C3A66761   4.434   0.542   7.058
 5153POPC   C4A66762   4.180   0.214   7.186
 5153POPC   C1B66763   3.865   0.727   6.198
 5153POPC   C2B66764   3.663   0.791   6.615
 5153POPC   C3B66765   3.938   0.636   6.951
 5153POPC   C4B66766   4.056   0.666   7.398
 5154POPC   NC366767   5.459  23.928   5.077
 5154POPC   PO466768   5.841  23.523   5.548
 5154POPC   GL166769   6.077  23.879   5.716
 5154POPC   GL266770   5.821  23.828   5.987
 5154POPC   C1A66771   6.247  24.040   6.128
 5154POPC   D2A66772   6.017  23.838   6.477
 5154POPC   C3A66773   6.034  23.992   6.889
 5154POPC   C4A66774   6.156  23.782   7.243
 5154POPC   C1B66775   5.454  23.860   6.253
 5154POPC   C2B66776   5.528  23.748   6.672
 5154POPC   C3B66777   5.823  23.519   6.898
 5154POPC   C4B66778   5.705  23.516   7.308
 5155POPC   NC366779  21.695  41.455   5.452
 5155POPC   PO466780  22.234  41.900   5.333
 5155POPC   GL166781  22.026  41.782   5.728
 5155POPC   GL266782  22.101  41.428   5.744
 5155POPC   C1A66783  22.095  41.681   6.200
 5155POPC   D2A66784  22.403  41.637   6.584
 5155POPC   C3A66785  22.292  41.674   7.016
 5155POPC   C4A66786  21.989  41.968   7.146
 5155POPC   C1B66787  22.254  41.167   6.023
 5155POPC   C2B66788  22.174  41.225   6.432
 5155POPC   C3B66789  22.139  41.212   6.892
 5155POPC   C4B66790  21.838  41.444   7.163
 5156POPC   NC366791  40.686  38.601   5.428
 5156POPC   PO466792  40.475  37.964   5.341
 5156POPC   GL166793  40.810  38.024   5.652
 5156POPC   GL266794  40.603  38.248   5.809
 5156POPC   C1A66795  40.993  38.134   6.102
 5156POPC   D2A66796  40.848  38.433   6.464
 5156POPC   C3A66797  40.911  38.354   6.917
 5156POPC   C4A66798  40.849  38.212   7.356
 5156POPC   C1B66799  40.428  38.254   6.224
 5156POPC   C2B66800  40.400  38.240   6.665
 5156POPC   C3B66801  40.442  38.238   7.081
 5156POPC   C4B66802  40.344  38.511   7.375
 5157POPC   NC366803  11.537  16.587   5.461
 5157POPC   PO466804  11.076  17.126   5.363
 5157POPC   GL166805  11.099  16.813   5.655
 5157POPC   GL266806  11.405  16.960   5.773
 5157POPC   C1A66807  11.182  16.622   6.075
 5157POPC   D2A66808  11.031  16.747   6.497
 5157POPC   C3A66809  11.050  16.413   6.833
 5157POPC   C4A66810  11.029  16.324   7.303
 5157POPC   C1B66811  11.529  17.056   6.199
 5157POPC   C2B66812  11.413  17.076   6.632
 5157POPC   C3B66813  11.256  16.849   6.970
 5157POPC   C4B66814  11.467  16.530   7.192
 5158POPC   NC366815  37.027  28.523   5.490
 5158POPC   PO466816  36.681  28.011   5.665
 5158POPC   GL166817  37.073  28.153   5.864
 5158POPC   GL266818  37.122  28.506   5.978
 5158POPC   C1A66819  37.136  28.104   6.295
 5158POPC   D2A66820  37.316  28.364   6.584
 5158POPC   C3A66821  37.181  28.229   6.953
 5158POPC   C4A66822  37.073  28.397   7.352
 5158POPC   C1B66823  36.740  28.433   6.213
 5158POPC   C2B66824  36.794  28.361   6.643
 5158POPC   C3B66825  36.883  28.644   6.964
 5158POPC   C4B66826  36.616  28.765   7.262
 5159POPC   NC366827  15.154   6.186   5.511
 5159POPC   PO466828  15.346   5.609   5.449
 5159POPC   GL166829  15.386   5.867   5.890
 5159POPC   GL266830  15.461   6.230   5.901
 5159POPC   C1A66831  15.262   6.005   6.360
 5159POPC   D2A66832  15.056   5.832   6.755
 5159POPC   C3A66833  15.373   5.639   7.047
 5159POPC   C4A66834  15.520   5.771   7.471
 5159POPC   C1B66835  15.061   6.411   6.127
 5159POPC   C2B66836  15.096   6.510   6.559
 5159POPC   C3B66837  15.304   6.306   6.863
 5159POPC   C4B66838  15.190   6.075   7.222
 5160POPC   NC366839  43.814  27.982   5.500
 5160POPC   PO466840  43.783  27.372   5.338
 5160POPC   GL166841  43.941  27.535   5.748
 5160POPC   GL266842  44.067  27.208   5.853
 5160POPC   C1A66843  44.046  27.619   6.188
 5160POPC   D2A66844  44.090  27.465   6.610
 5160POPC   C3A66845  44.229  27.633   6.980
 5160POPC   C4A66846  43.921  27.650   7.256
 5160POPC   C1B66847  43.666  27.230   6.079
 5160POPC   C2B66848  43.570  27.387   6.502
 5160POPC   C3B66849  43.663  27.320   6.947
 5160POPC   C4B66850  43.597  27.230   7.405
 5161POPC   NC366851   5.102  44.127   5.293
 5161POPC   PO466852   5.016  44.675   5.352
 5161POPC   GL166853   4.975  44.640   5.788
 5161POPC   GL266854   4.963  44.293   5.758
 5161POPC   C1A66855   5.164  44.815   6.159
 5161POPC   D2A66856   5.383  44.814   6.552
 5161POPC   C3A66857   5.130  44.918   6.869
 5161POPC   C4A66858   5.066  44.798   7.240
 5161POPC   C1B66859   4.839  44.282   6.167
 5161POPC   C2B66860   4.884  44.550   6.528
 5161POPC   C3B66861   5.023  44.402   6.919
 5161POPC   C4B66862   4.878  44.105   7.181
 5162POPC   NC366863  18.311  34.322   5.540
 5162POPC   PO466864  18.024  34.857   5.719
 5162POPC   GL166865  18.402  34.667   5.930
 5162POPC   GL266866  18.379  34.315   6.048
 5162POPC   C1A66867  18.437  34.757   6.361
 5162POPC   D2A66868  18.172  34.823   6.716
 5162POPC   C3A66869  18.010  34.451   6.918
 5162POPC   C4A66870  18.074  34.378   7.363
 5162POPC   C1B66871  18.355  34.266   6.495
 5162POPC   C2B66872  18.560  34.475   6.771
 5162POPC   C3B66873  18.462  34.605   7.138
 5162POPC   C4B66874  18.551  34.443   7.508
 5163POPC   NC366875  36.353  28.286   5.503
 5163POPC   PO466876  35.902  28.585   5.259
 5163POPC   GL166877  35.915  28.539   5.700
 5163POPC   GL266878  35.918  28.190   5.781
 5163POPC   C1A66879  36.139  28.522   6.122
 5163POPC   D2A66880  36.302  28.314   6.498
 5163POPC   C3A66881  36.348  28.528   6.872
 5163POPC   C4A66882  36.135  28.584   7.222
 5163POPC   C1B66883  36.172  27.998   6.095
 5163POPC   C2B66884  36.159  27.808   6.480
 5163POPC   C3B66885  36.000  27.969   6.860
 5163POPC   C4B66886  36.118  28.093   7.249
 5164POPC   NC366887  38.411  42.726   5.413
 5164POPC   PO466888  38.348  42.056   5.314
 5164POPC   GL166889  38.427  42.212   5.738
 5164POPC   GL266890  38.676  42.500   5.809
 5164POPC   C1A66891  38.389  42.074   6.173
 5164POPC   D2A66892  38.588  41.941   6.560
 5164POPC   C3A66893  38.426  42.121   6.924
 5164POPC   C4A66894  38.536  42.265   7.302
 5164POPC   C1B66895  38.301  42.572   6.088
 5164POPC   C2B66896  38.298  42.450   6.529
 5164POPC   C3B66897  38.324  42.643   6.930
 5164POPC   C4B66898  38.279  42.707   7.372
 5165POPC   NC366899  33.009  22.388   5.543
 5165POPC   PO466900  33.150  21.741   5.475
 5165POPC   GL166901  33.022  21.930   5.862
 5165POPC   GL266902  32.802  22.224   5.973
 5165POPC   C1A66903  32.867  21.834   6.279
 5165POPC   D2A66904  32.986  22.088   6.615
 5165POPC   C3A66905  32.841  21.993   7.000
 5165POPC   C4A66906  33.024  21.751   7.267
 5165POPC   C1B66907  33.163  22.390   6.228
 5165POPC   C2B66908  33.386  22.425   6.649
 5165POPC   C3B66909  33.321  22.485   7.109
 5165POPC   C4B66910  33.036  22.267   7.394
 5166POPC   NC366911  29.768  20.406   5.454
 5166POPC   PO466912  29.916  21.040   5.242
 5166POPC   GL166913  29.997  20.866   5.722
 5166POPC   GL266914  30.151  20.528   5.782
 5166POPC   C1A66915  29.826  20.663   6.132
 5166POPC   D2A66916  29.955  20.502   6.543
 5166POPC   C3A66917  29.987  20.830   6.863
 5166POPC   C4A66918  29.663  20.851   7.179
 5166POPC   C1B66919  30.233  20.272   6.152
 5166POPC   C2B66920  30.380  20.220   6.576
 5166POPC   C3B66921  30.240  20.389   6.985
 5166POPC   C4B66922  30.402  20.292   7.383
 5167POPC   NC366923  22.624  13.008   5.531
 5167POPC   PO466924  21.968  12.979   5.741
 5167POPC   GL166925  22.312  12.965   5.992
 5167POPC   GL266926  22.305  12.606   5.937
 5167POPC   C1A66927  22.223  13.088   6.422
 5167POPC   D2A66928  21.945  13.287   6.705
 5167POPC   C3A66929  22.019  13.046   7.039
 5167POPC   C4A66930  22.445  12.881   7.176
 5167POPC   C1B66931  22.150  12.605   6.334
 5167POPC   C2B66932  22.221  12.653   6.769
 5167POPC   C3B66933  21.950  12.558   7.150
 5167POPC   C4B66934  21.837  12.501   7.605
 5168POPC   NC366935  23.329  28.883   5.579
 5168POPC   PO466936  22.834  29.373   5.400
 5168POPC   GL166937  22.939  29.182   5.783
 5168POPC   GL266938  22.631  28.995   5.776
 5168POPC   C1A66939  22.963  28.921   6.155
 5168POPC   D2A66940  22.899  29.141   6.517
 5168POPC   C3A66941  23.150  29.205   6.838
 5168POPC   C4A66942  23.031  29.145   7.220
 5168POPC   C1B66943  22.543  29.228   6.163
 5168POPC   C2B66944  22.413  29.327   6.556
 5168POPC   C3B66945  22.623  29.264   6.933
 5168POPC   C4B66946  22.702  29.608   7.168
 5169POPC   NC366947  11.426  10.048   5.613
 5169POPC   PO466948  11.571  10.668   5.359
 5169POPC   GL166949  11.420  10.573   5.780
 5169POPC   GL266950  11.067  10.686   5.799
 5169POPC   C1A66951  11.399  10.404   6.231
 5169POPC   D2A66952  11.499  10.376   6.683
 5169POPC   C3A66953  11.366  10.332   7.121
 5169POPC   C4A66954  11.330  10.454   7.582
 5169POPC   C1B66955  10.891  10.424   6.139
 5169POPC   C2B66956  10.814  10.269   6.562
 5169POPC   C3B66957  10.829  10.319   7.015
 5169POPC   C4B66958  10.996  10.666   7.265
 5170POPC   NC366959  22.715  16.579   5.321
 5170POPC   PO466960  23.267  16.608   5.331
 5170POPC   GL166961  23.036  16.572   5.732
 5170POPC   GL266962  22.842  16.861   5.855
 5170POPC   C1A66963  23.072  16.510   6.177
 5170POPC   D2A66964  23.346  16.414   6.519
 5170POPC   C3A66965  23.042  16.374   6.830
 5170POPC   C4A66966  22.795  16.338   7.194
 5170POPC   C1B66967  22.992  17.010   6.304
 5170POPC   C2B66968  23.170  16.886   6.714
 5170POPC   C3B66969  22.942  16.816   7.101
 5170POPC   C4B66970  22.616  17.076   7.288
 5171POPC   NC366971   2.127  18.689   5.376
 5171POPC   PO466972   1.931  19.336   5.479
 5171POPC   GL166973   1.901  19.026   5.823
 5171POPC   GL266974   1.664  18.757   5.726
 5171POPC   C1A66975   1.953  19.007   6.288
 5171POPC   D2A66976   2.154  18.964   6.675
 5171POPC   C3A66977   1.999  19.284   6.951
 5171POPC   C4A66978   2.058  19.446   7.347
 5171POPC   C1B66979   1.693  18.608   6.143
 5171POPC   C2B66980   1.805  18.546   6.587
 5171POPC   C3B66981   1.828  18.718   6.986
 5171POPC   C4B66982   2.150  18.898   7.220
 5172POPC   NC366983  36.625   3.215   5.489
 5172POPC   PO466984  36.517   3.763   5.199
 5172POPC   GL166985  36.686   3.681   5.672
 5172POPC   GL266986  37.011   3.457   5.760
 5172POPC   C1A66987  36.710   3.713   6.142
 5172POPC   D2A66988  36.666   3.907   6.575
 5172POPC   C3A66989  36.766   3.629   6.938
 5172POPC   C4A66990  36.625   3.671   7.378
 5172POPC   C1B66991  37.053   3.254   6.196
 5172POPC   C2B66992  37.291   3.330   6.573
 5172POPC   C3B66993  37.353   3.499   6.976
 5172POPC   C4B66994  37.087   3.478   7.306
 5173POPC   NC366995  10.999  30.070   5.399
 5173POPC   PO466996  11.413  29.610   5.414
 5173POPC   GL166997  11.151  29.693   5.757
 5173POPC   GL266998  11.285  30.035   5.821
 5173POPC   C1A66999  11.107  29.788   6.234
 5173POPC   D2A67000  11.330  29.735   6.618
 5173POPC   C3A67001  11.177  29.656   7.014
 5173POPC   C4A67002  10.861  29.693   7.245
 5173POPC   C1B67003  11.245  30.268   6.200
 5173POPC   C2B67004  11.145  30.218   6.627
 5173POPC   C3B67005  11.293  30.159   7.031
 5173POPC   C4B67006  11.102  30.100   7.419
 5174POPC   NC367007   7.407  32.745   5.385
 5174POPC   PO467008   7.689  33.386   5.444
 5174POPC   GL167009   7.476  33.108   5.813
 5174POPC   GL267010   7.333  32.777   5.878
 5174POPC   C1A67011   7.284  33.153   6.259
 5174POPC   D2A67012   7.174  33.327   6.693
 5174POPC   C3A67013   7.396  33.140   7.072
 5174POPC   C4A67014   7.677  33.378   7.361
 5174POPC   C1B67015   7.043  32.687   6.209
 5174POPC   C2B67016   7.191  32.736   6.631
 5174POPC   C3B67017   7.125  32.609   7.064
 5174POPC   C4B67018   6.975  32.844   7.420
 5175POPC   NC367019  11.587  26.172   5.264
 5175POPC   PO467020  11.025  25.787   5.099
 5175POPC   GL167021  11.188  25.762   5.550
 5175POPC   GL267022  11.056  26.055   5.753
 5175POPC   C1A67023  11.332  25.654   6.001
 5175POPC   D2A67024  11.156  25.695   6.440
 5175POPC   C3A67025  11.346  25.655   6.858
 5175POPC   C4A67026  11.350  25.903   7.251
 5175POPC   C1B67027  11.216  26.167   6.170
 5175POPC   C2B67028  11.097  26.188   6.617
 5175POPC   C3B67029  11.251  26.353   7.021
 5175POPC   C4B67030  11.098  26.326   7.458
 5176POPC   NC367031   1.476   9.884   5.207
 5176POPC   PO467032   1.159  10.557   5.232
 5176POPC   GL167033   1.119  10.658   5.684
 5176POPC   GL267034   1.388  10.399   5.757
 5176POPC   C1A67035   0.833  10.702   6.084
 5176POPC   D2A67036   0.911  10.638   6.547
 5176POPC   C3A67037   0.932  10.271   6.804
 5176POPC   C4A67038   0.847  10.314   7.230
 5176POPC   C1B67039   1.300  10.513   6.192
 5176POPC   C2B67040   1.423  10.526   6.621
 5176POPC   C3B67041   1.293  10.586   7.027
 5176POPC   C4B67042   1.621  10.644   7.301
 5177POPC   NC367043   5.047  28.734   5.154
 5177POPC   PO467044   4.618  28.239   5.221
 5177POPC   GL167045   4.813  28.348   5.735
 5177POPC   GL267046   5.119  28.203   5.855
 5177POPC   C1A67047   4.833  28.514   6.183
 5177POPC   D2A67048   5.087  28.444   6.597
 5177POPC   C3A67049   4.940  28.401   7.006
 5177POPC   C4A67050   4.961  28.099   7.328
 5177POPC   C1B67051   5.345  28.458   6.171
 5177POPC   C2B67052   5.443  28.792   6.474
 5177POPC   C3B67053   5.432  28.698   6.912
 5177POPC   C4B67054   5.378  28.424   7.274
 5178POPC   NC367055  11.974  21.576   5.307
 5178POPC   PO467056  12.268  21.121   5.714
 5178POPC   GL167057  11.986  21.444   5.839
 5178POPC   GL267058  12.094  21.759   5.779
 5178POPC   C1A67059  11.801  21.385   6.243
 5178POPC   D2A67060  12.094  21.406   6.609
 5178POPC   C3A67061  12.095  21.286   7.037
 5178POPC   C4A67062  11.901  21.557   7.347
 5178POPC   C1B67063  12.198  21.730   6.206
 5178POPC   C2B67064  12.134  21.930   6.600
 5178POPC   C3B67065  12.225  21.764   7.009
 5178POPC   C4B67066  12.311  21.799   7.509
 5179POPC   NC367067  39.134  38.849   5.327
 5179POPC   PO467068  39.222  38.183   5.523
 5179POPC   GL167069  39.319  38.511   5.769
 5179POPC   GL267070  38.965  38.649   5.758
 5179POPC   C1A67071  39.503  38.632   6.188
 5179POPC   D2A67072  39.365  38.470   6.579
 5179POPC   C3A67073  39.440  38.369   7.012
 5179POPC   C4A67074  39.003  38.266   7.173
 5179POPC   C1B67075  39.005  38.720   6.192
 5179POPC   C2B67076  39.084  38.940   6.575
 5179POPC   C3B67077  39.072  38.743   6.953
 5179POPC   C4B67078  39.224  38.698   7.366
 5180POPC   NC367079   5.323  17.749   5.396
 5180POPC   PO467080   4.994  17.249   5.423
 5180POPC   GL167081   5.187  17.425   5.770
 5180POPC   GL267082   4.980  17.721   5.791
 5180POPC   C1A67083   5.320  17.562   6.164
 5180POPC   D2A67084   5.408  17.744   6.548
 5180POPC   C3A67085   5.333  17.483   6.886
 5180POPC   C4A67086   5.090  17.482   7.240
 5180POPC   C1B67087   4.805  17.452   6.121
 5180POPC   C2B67088   4.944  17.422   6.550
 5180POPC   C3B67089   4.747  17.239   6.910
 5180POPC   C4B67090   4.838  17.050   7.300
 5181POPC   NC367091   5.864  16.920   5.538
 5181POPC   PO467092   6.233  16.323   5.543
 5181POPC   GL167093   5.967  16.550   5.891
 5181POPC   GL267094   6.109  16.880   5.988
 5181POPC   C1A67095   5.642  16.777   6.202
 5181POPC   D2A67096   5.551  17.054   6.574
 5181POPC   C3A67097   5.786  16.831   6.860
 5181POPC   C4A67098   5.775  16.516   7.133
 5181POPC   C1B67099   6.073  16.969   6.423
 5181POPC   C2B67100   6.242  17.098   6.806
 5181POPC   C3B67101   6.191  16.879   7.200
 5181POPC   C4B67102   6.279  17.012   7.616
 5182POPC   NC367103  44.119  11.994   5.080
 5182POPC   PO467104  43.646  12.419   5.105
 5182POPC   GL167105  43.865  12.202   5.513
 5182POPC   GL267106  43.991  11.862   5.557
 5182POPC   C1A67107  43.979  12.119   6.010
 5182POPC   D2A67108  43.751  12.082   6.410
 5182POPC   C3A67109  43.732  12.296   6.822
 5182POPC   C4A67110  43.705  12.018   7.212
 5182POPC   C1B67111  44.172  11.640   5.938
 5182POPC   C2B67112  44.140  11.696   6.408
 5182POPC   C3B67113  44.105  11.901   6.866
 5182POPC   C4B67114  44.138  11.714   7.294
 5183POPC   NC367115   2.920  38.079   5.487
 5183POPC   PO467116   2.490  38.556   5.287
 5183POPC   GL167117   2.517  38.293   5.761
 5183POPC   GL267118   2.884  38.237   5.949
 5183POPC   C1A67119   2.522  38.374   6.255
 5183POPC   D2A67120   2.583  38.777   6.510
 5183POPC   C3A67121   2.520  38.686   6.939
 5183POPC   C4A67122   2.768  38.407   7.148
 5183POPC   C1B67123   3.095  38.227   6.358
 5183POPC   C2B67124   2.998  38.510   6.676
 5183POPC   C3B67125   3.152  38.708   7.002
 5183POPC   C4B67126   3.196  38.553   7.440
 5184POPC   NC367127  13.451  37.928   5.381
 5184POPC   PO467128  13.863  37.570   4.991
 5184POPC   GL167129  13.809  37.653   5.536
 5184POPC   GL267130  13.479  37.552   5.737
 5184POPC   C1A67131  13.846  37.707   6.039
 5184POPC   D2A67132  14.011  37.671   6.477
 5184POPC   C3A67133  13.727  37.660   6.828
 5184POPC   C4A67134  13.666  38.010   7.130
 5184POPC   C1B67135  13.416  37.501   6.221
 5184POPC   C2B67136  13.290  37.428   6.653
 5184POPC   C3B67137  13.444  37.256   7.058
 5184POPC   C4B67138  13.316  37.332   7.475
 5185POPC   NC367139  35.493   6.141   5.262
 5185POPC   PO467140  35.067   5.843   5.706
 5185POPC   GL167141  35.488   5.653   5.764
 5185POPC   GL267142  35.368   5.647   6.087
 5185POPC   C1A67143  35.852   5.606   6.110
 5185POPC   D2A67144  35.737   5.494   6.583
 5185POPC   C3A67145  35.447   5.748   6.894
 5185POPC   C4A67146  35.107   5.680   7.257
 5185POPC   C1B67147  35.118   5.714   6.467
 5185POPC   C2B67148  34.960   5.936   6.816
 5185POPC   C3B67149  35.047   6.203   7.184
 5185POPC   C4B67150  34.912   6.067   7.596
 5186POPC   NC367151  11.174  13.685   5.426
 5186POPC   PO467152  11.753  13.309   5.479
 5186POPC   GL167153  11.481  13.537   5.816
 5186POPC   GL267154  11.507  13.907   5.755
 5186POPC   C1A67155  11.141  13.447   6.132
 5186POPC   D2A67156  10.904  13.638   6.471
 5186POPC   C3A67157  11.016  13.495   6.875
 5186POPC   C4A67158  11.003  13.514   7.312
 5186POPC   C1B67159  11.319  13.961   6.177
 5186POPC   C2B67160  11.283  13.997   6.642
 5186POPC   C3B67161  11.376  13.813   7.048
 5186POPC   C4B67162  11.489  13.365   7.161
 5187POPC   NC367163  25.821  41.674   5.436
 5187POPC   PO467164  26.501  41.592   5.319
 5187POPC   GL167165  26.236  41.489   5.695
 5187POPC   GL267166  26.119  41.140   5.643
 5187POPC   C1A67167  25.971  41.552   6.104
 5187POPC   D2A67168  25.995  41.778   6.485
 5187POPC   C3A67169  25.836  41.621   6.891
 5187POPC   C4A67170  26.038  41.603   7.301
 5187POPC   C1B67171  26.263  41.128   6.067
 5187POPC   C2B67172  26.218  41.284   6.503
 5187POPC   C3B67173  26.242  41.294   6.963
 5187POPC   C4B67174  26.278  41.185   7.431
 5188POPC   NC367175  16.103  20.228   5.412
 5188POPC   PO467176  15.776  19.705   5.279
 5188POPC   GL167177  15.769  19.798   5.751
 5188POPC   GL267178  16.080  19.948   5.836
 5188POPC   C1A67179  15.802  19.684   6.226
 5188POPC   D2A67180  15.710  20.007   6.570
 5188POPC   C3A67181  15.528  19.947   6.965
 5188POPC   C4A67182  15.712  19.816   7.328
 5188POPC   C1B67183  16.109  20.095   6.248
 5188POPC   C2B67184  16.187  19.808   6.601
 5188POPC   C3B67185  16.084  19.958   7.012
 5188POPC   C4B67186  16.126  20.129   7.447
 5189POPC   NC367187  30.191  34.482   5.381
 5189POPC   PO467188  29.756  34.921   5.319
 5189POPC   GL167189  29.793  34.640   5.676
 5189POPC   GL267190  30.059  34.811   5.829
 5189POPC   C1A67191  29.797  34.428   6.115
 5189POPC   D2A67192  29.936  34.568   6.557
 5189POPC   C3A67193  29.965  34.295   6.924
 5189POPC   C4A67194  29.668  34.205   7.227
 5189POPC   C1B67195  30.282  34.623   6.183
 5189POPC   C2B67196  30.533  34.762   6.540
 5189POPC   C3B67197  30.316  34.708   6.889
 5189POPC   C4B67198  29.926  34.804   7.106
 5190POPC   NC367199  32.103  19.255   5.452
 5190POPC   PO467200  32.404  18.662   5.422
 5190POPC   GL167201  32.289  18.872   5.798
 5190POPC   GL267202  32.560  19.136   5.825
 5190POPC   C1A67203  32.149  19.108   6.177
 5190POPC   D2A67204  32.295  19.397   6.522
 5190POPC   C3A67205  32.323  19.255   6.961
 5190POPC   C4A67206  32.449  19.271   7.392
 5190POPC   C1B67207  32.644  18.811   6.168
 5190POPC   C2B67208  32.537  18.644   6.588
 5190POPC   C3B67209  32.534  18.782   7.002
 5190POPC   C4B67210  32.186  18.827   7.227
 5191POPC   NC367211  19.074  32.335   5.183
 5191POPC   PO467212  19.764  32.451   5.238
 5191POPC   GL167213  19.493  32.153   5.562
 5191POPC   GL267214  19.218  32.318   5.709
 5191POPC   C1A67215  19.409  32.027   6.060
 5191POPC   D2A67216  19.315  32.125   6.532
 5191POPC   C3A67217  18.956  31.897   6.772
 5191POPC   C4A67218  18.817  31.954   7.216
 5191POPC   C1B67219  19.146  32.469   6.153
 5191POPC   C2B67220  19.000  32.537   6.597
 5191POPC   C3B67221  19.047  32.383   7.034
 5191POPC   C4B67222  18.720  32.414   7.398
 5192POPC   NC367223  41.347  35.448   5.381
 5192POPC   PO467224  41.909  35.087   5.404
 5192POPC   GL167225  41.633  35.199   5.745
 5192POPC   GL267226  41.638  35.580   5.806
 5192POPC   C1A67227  41.439  35.298   6.168
 5192POPC   D2A67228  41.578  35.535   6.538
 5192POPC   C3A67229  41.415  35.395   6.952
 5192POPC   C4A67230  41.510  35.122   7.263
 5192POPC   C1B67231  41.932  35.723   6.157
 5192POPC   C2B67232  41.984  35.820   6.614
 5192POPC   C3B67233  41.874  35.595   7.001
 5192POPC   C4B67234  41.714  35.584   7.420
 5193POPC   NC367235   5.643  14.628   5.460
 5193POPC   PO467236   5.129  14.230   5.337
 5193POPC   GL167237   5.152  14.349   5.761
 5193POPC   GL267238   5.125  13.982   5.801
 5193POPC   C1A67239   5.001  14.532   6.161
 5193POPC   D2A67240   5.262  14.650   6.508
 5193POPC   C3A67241   5.012  14.679   6.883
 5193POPC   C4A67242   4.768  14.458   7.174
 5193POPC   C1B67243   4.885  14.031   6.172
 5193POPC   C2B67244   4.928  14.225   6.591
 5193POPC   C3B67245   4.960  14.016   6.988
 5193POPC   C4B67246   5.177  13.926   7.360
 5194POPC   NC367247   2.562   0.932   5.464
 5194POPC   PO467248   3.157   1.224   5.461
 5194POPC   GL167249   2.953   1.036   5.816
 5194POPC   GL267250   2.582   1.088   5.947
 5194POPC   C1A67251   3.067   1.053   6.234
 5194POPC   D2A67252   2.802   1.212   6.573
 5194POPC   C3A67253   2.935   1.197   7.020
 5194POPC   C4A67254   2.717   1.013   7.385
 5194POPC   C1B67255   2.358   1.487   6.073
 5194POPC   C2B67256   2.197   1.559   6.509
 5194POPC   C3B67257   2.479   1.504   6.864
 5194POPC   C4B67258   2.570   1.502   7.280
 5195POPC   NC367259   3.136  29.522   5.517
 5195POPC   PO467260   3.103  28.866   5.289
 5195POPC   GL167261   2.816  28.978   5.691
 5195POPC   GL267262   2.540  29.256   5.747
 5195POPC   C1A67263   2.643  28.951   6.149
 5195POPC   D2A67264   2.679  29.191   6.544
 5195POPC   C3A67265   2.597  28.940   6.913
 5195POPC   C4A67266   2.618  28.907   7.375
 5195POPC   C1B67267   2.477  29.497   6.156
 5195POPC   C2B67268   2.498  29.673   6.595
 5195POPC   C3B67269   2.428  29.422   6.950
 5195POPC   C4B67270   2.144  29.333   7.267
 5196POPC   NC367271  11.164  35.942   5.005
 5196POPC   PO467272  11.355  35.456   5.490
 5196POPC   GL167273  11.546  35.283   5.853
 5196POPC   GL267274  11.297  35.034   5.976
 5196POPC   C1A67275  11.528  35.383   6.295
 5196POPC   D2A67276  11.311  35.678   6.536
 5196POPC   C3A67277  11.319  35.479   6.926
 5196POPC   C4A67278  11.436  35.587   7.315
 5196POPC   C1B67279  11.049  35.327   6.182
 5196POPC   C2B67280  11.044  35.178   6.599
 5196POPC   C3B67281  10.818  35.299   6.951
 5196POPC   C4B67282  10.937  35.510   7.306
 5197POPC   NC367283  36.988   0.982   5.359
 5197POPC   PO467284  36.540   1.530   5.412
 5197POPC   GL167285  36.716   1.270   5.724
 5197POPC   GL267286  37.085   1.318   5.747
 5197POPC   C1A67287  36.821   1.181   6.167
 5197POPC   D2A67288  37.147   1.182   6.498
 5197POPC   C3A67289  37.014   1.206   6.945
 5197POPC   C4A67290  36.655   1.287   7.231
 5197POPC   C1B67291  37.308   1.528   6.111
 5197POPC   C2B67292  37.454   1.597   6.550
 5197POPC   C3B67293  37.260   1.715   6.949
 5197POPC   C4B67294  37.227   1.473   7.333
 5198POPC   NC367295  34.027  44.982   5.405
 5198POPC   PO467296  33.762  44.333   5.311
 5198POPC   GL167297  33.914  44.537   5.730
 5198POPC   GL267298  33.771  44.892   5.829
 5198POPC   C1A67299  33.916  44.556   6.203
 5198POPC   D2A67300  33.637  44.853   6.415
 5198POPC   C3A67301  33.598  44.837   6.873
 5198POPC   C4A67302  33.733  44.729   7.299
 5198POPC   C1B67303  34.126   0.011   6.078
 5198POPC   C2B67304  34.101   0.059   6.545
 5198POPC   C3B67305  34.107  44.924   7.011
 5198POPC   C4B67306  34.139  44.954   7.490
 5199POPC   NC367307  13.917  16.567   5.343
 5199POPC   PO467308  13.557  17.124   5.288
 5199POPC   GL167309  13.611  17.007   5.788
 5199POPC   GL267310  13.725  16.742   6.052
 5199POPC   C1A67311  13.522  17.111   6.272
 5199POPC   D2A67312  13.698  16.826   6.636
 5199POPC   C3A67313  13.691  17.027   7.072
 5199POPC   C4A67314  13.546  17.021   7.519
 5199POPC   C1B67315  13.337  16.625   6.317
 5199POPC   C2B67316  13.174  16.543   6.748
 5199POPC   C3B67317  13.322  16.661   7.176
 5199POPC   C4B67318  13.635  16.534   7.504
 5200POPC   NC367319  10.623  16.991   5.415
 5200POPC   PO467320  10.401  16.389   5.333
 5200POPC   GL167321  10.641  16.530   5.659
 5200POPC   GL267322  10.313  16.708   5.733
 5200POPC   C1A67323  10.694  16.776   6.056
 5200POPC   D2A67324  10.372  16.857   6.366
 5200POPC   C3A67325  10.597  16.896   6.739
 5200POPC   C4A67326  10.679  16.658   7.084
 5200POPC   C1B67327  10.062  16.527   6.053
 5200POPC   C2B67328  10.061  16.402   6.475
 5200POPC   C3B67329  10.205  16.569   6.843
 5200POPC   C4B67330  10.197  16.561   7.270
 5201POPC   NC367331   5.830  24.738   5.356
 5201POPC   PO467332   5.879  24.064   5.233
 5201POPC   GL167333   5.845  24.344   5.676
 5201POPC   GL267334   5.553  24.600   5.770
 5201POPC   C1A67335   5.943  24.451   6.123
 5201POPC   D2A67336   6.165  24.405   6.542
 5201POPC   C3A67337   5.880  24.471   6.931
 5201POPC   C4A67338   5.689  24.285   7.298
 5201POPC   C1B67339   5.605  24.842   6.154
 5201POPC   C2B67340   5.752  24.790   6.553
 5201POPC   C3B67341   5.748  24.970   6.967
 5201POPC   C4B67342   5.434  24.733   7.175
 5202POPC   NC367343  19.296  14.671   5.431
 5202POPC   PO467344  18.850  15.051   5.062
 5202POPC   GL167345  18.855  15.071   5.587
 5202POPC   GL267346  18.947  14.800   5.804
 5202POPC   C1A67347  18.855  15.240   6.065
 5202POPC   D2A67348  18.843  15.378   6.522
 5202POPC   C3A67349  18.998  15.082   6.866
 5202POPC   C4A67350  18.792  15.047   7.297
 5202POPC   C1B67351  19.249  14.955   6.151
 5202POPC   C2B67352  19.343  14.818   6.585
 5202POPC   C3B67353  19.495  14.860   7.025
 5202POPC   C4B67354  19.393  14.846   7.506
 5203POPC   NC367355  12.574  38.656   5.400
 5203POPC   PO467356  13.115  39.101   5.431
 5203POPC   GL167357  12.884  39.109   5.768
 5203POPC   GL267358  13.007  38.839   5.897
 5203POPC   C1A67359  12.827  39.247   6.201
 5203POPC   D2A67360  12.827  39.508   6.606
 5203POPC   C3A67361  12.765  39.330   7.041
 5203POPC   C4A67362  12.631  38.983   7.352
 5203POPC   C1B67363  13.168  38.874   6.302
 5203POPC   C2B67364  12.947  39.016   6.645
 5203POPC   C3B67365  12.630  38.834   6.868
 5203POPC   C4B67366  12.889  38.602   7.151
 5204POPC   NC367367  17.966   6.387   5.442
 5204POPC   PO467368  18.525   6.071   5.265
 5204POPC   GL167369  18.542   6.115   5.740
 5204POPC   GL267370  18.203   6.056   5.851
 5204POPC   C1A67371  18.578   5.904   6.161
 5204POPC   D2A67372  18.676   6.001   6.600
 5204POPC   C3A67373  18.604   5.671   6.906
 5204POPC   C4A67374  18.327   5.900   7.149
 5204POPC   C1B67375  18.075   5.861   6.245
 5204POPC   C2B67376  18.102   5.632   6.646
 5204POPC   C3B67377  17.843   5.663   7.024
 5204POPC   C4B67378  17.919   5.801   7.442
 5205POPC   NC367379  38.212  31.323   5.375
 5205POPC   PO467380  38.892  31.288   5.683
 5205POPC   GL167381  38.507  31.474   5.830
 5205POPC   GL267382  38.389  31.192   5.960
 5205POPC   C1A67383  38.409  31.794   6.130
 5205POPC   D2A67384  38.525  31.953   6.535
 5205POPC   C3A67385  38.478  31.773   6.942
 5205POPC   C4A67386  38.502  31.504   7.282
 5205POPC   C1B67387  38.575  31.378   6.355
 5205POPC   C2B67388  38.764  31.372   6.761
 5205POPC   C3B67389  38.623  31.087   7.057
 5205POPC   C4B67390  38.307  31.020   7.342
 5206POPC   NC367391  10.063  40.779   5.579
 5206POPC   PO467392   9.489  40.828   5.220
 5206POPC   GL167393   9.539  40.775   5.709
 5206POPC   GL267394   9.420  40.459   5.868
 5206POPC   C1A67395   9.700  40.893   6.150
 5206POPC   D2A67396   9.921  40.966   6.563
 5206POPC   C3A67397   9.654  40.876   6.913
 5206POPC   C4A67398   9.565  41.031   7.323
 5206POPC   C1B67399   9.779  40.382   6.111
 5206POPC   C2B67400   9.896  40.432   6.518
 5206POPC   C3B67401  10.015  40.511   6.913
 5206POPC   C4B67402   9.799  40.522   7.278
 5207POPC   NC367403  31.200   4.822   5.527
 5207POPC   PO467404  31.784   4.561   5.729
 5207POPC   GL167405  31.569   4.534   6.028
 5207POPC   GL267406  31.293   4.403   5.841
 5207POPC   C1A67407  31.500   4.220   6.308
 5207POPC   D2A67408  31.765   3.970   6.569
 5207POPC   C3A67409  31.646   4.093   6.986
 5207POPC   C4A67410  31.581   4.461   7.277
 5207POPC   C1B67411  31.111   4.624   6.201
 5207POPC   C2B67412  31.318   4.644   6.599
 5207POPC   C3B67413  31.164   4.491   6.980
 5207POPC   C4B67414  31.162   4.151   7.252
 5208POPC   NC367415  14.147  20.698   5.266
 5208POPC   PO467416  14.506  20.395   5.711
 5208POPC   GL167417  14.132  20.607   5.787
 5208POPC   GL267418  14.320  20.916   5.735
 5208POPC   C1A67419  14.190  20.626   6.218
 5208POPC   D2A67420  14.605  20.598   6.362
 5208POPC   C3A67421  14.652  20.353   6.732
 5208POPC   C4A67422  14.606  20.499   7.158
 5208POPC   C1B67423  14.410  21.089   6.169
 5208POPC   C2B67424  14.324  20.986   6.616
 5208POPC   C3B67425  14.211  20.843   7.028
 5208POPC   C4B67426  14.279  20.849   7.489
 5209POPC   NC367427  33.777   3.046   5.384
 5209POPC   PO467428  33.574   2.362   5.426
 5209POPC   GL167429  33.677   2.677   5.763
 5209POPC   GL267430  33.538   3.031   5.853
 5209POPC   C1A67431  34.018   2.836   6.021
 5209POPC   D2A67432  34.045   2.986   6.455
 5209POPC   C3A67433  34.175   2.746   6.790
 5209POPC   C4A67434  34.099   2.778   7.230
 5209POPC   C1B67435  33.573   2.820   6.259
 5209POPC   C2B67436  33.801   2.508   6.519
 5209POPC   C3B67437  33.715   2.557   6.966
 5209POPC   C4B67438  33.612   2.919   7.251
 5210POPC   NC367439  18.960  41.374   5.326
 5210POPC   PO467440  19.628  41.312   5.524
 5210POPC   GL167441  19.377  41.616   5.834
 5210POPC   GL267442  18.998  41.676   5.785
 5210POPC   C1A67443  19.398  41.630   6.287
 5210POPC   D2A67444  19.296  41.701   6.718
 5210POPC   C3A67445  19.038  41.543   6.987
 5210POPC   C4A67446  18.886  41.833   7.271
 5210POPC   C1B67447  18.899  41.448   6.152
 5210POPC   C2B67448  18.855  41.273   6.574
 5210POPC   C3B67449  18.738  41.108   6.985
 5210POPC   C4B67450  18.803  41.318   7.373
 5211POPC   NC367451  11.127  21.817   5.592
 5211POPC   PO467452  11.335  22.500   5.422
 5211POPC   GL167453  11.383  22.255   5.783
 5211POPC   GL267454  11.633  22.000   5.809
 5211POPC   C1A67455  11.292  22.222   6.210
 5211POPC   D2A67456  11.289  21.971   6.569
 5211POPC   C3A67457  11.227  22.130   6.956
 5211POPC   C4A67458  11.096  22.228   7.360
 5211POPC   C1B67459  11.718  21.916   6.237
 5211POPC   C2B67460  11.673  21.677   6.621
 5211POPC   C3B67461  11.706  21.841   6.967
 5211POPC   C4B67462  11.518  21.910   7.319
 5212POPC   NC367463   7.301  14.565   5.213
 5212POPC   PO467464   7.655  13.976   5.354
 5212POPC   GL167465   7.645  14.265   5.708
 5212POPC   GL267466   7.304  14.384   5.705
 5212POPC   C1A67467   7.724  14.463   6.147
 5212POPC   D2A67468   7.712  14.716   6.571
 5212POPC   C3A67469   7.824  14.490   6.957
 5212POPC   C4A67470   7.602  14.412   7.324
 5212POPC   C1B67471   7.221  14.247   6.135
 5212POPC   C2B67472   7.073  14.241   6.578
 5212POPC   C3B67473   7.252  14.528   6.872
 5212POPC   C4B67474   7.123  14.563   7.282
 5213POPC   NC367475  38.560  36.711   5.213
 5213POPC   PO467476  38.110  37.183   5.431
 5213POPC   GL167477  38.418  36.924   5.737
 5213POPC   GL267478  38.778  36.888   5.651
 5213POPC   C1A67479  38.380  36.770   6.212
 5213POPC   D2A67480  38.184  36.721   6.646
 5213POPC   C3A67481  38.290  37.015   6.973
 5213POPC   C4A67482  38.382  36.958   7.412
 5213POPC   C1B67483  38.857  36.692   6.069
 5213POPC   C2B67484  38.833  36.773   6.535
 5213POPC   C3B67485  38.661  36.637   6.938
 5213POPC   C4B67486  38.263  36.531   7.138
 5214POPC   NC367487   0.239  33.296   5.469
 5214POPC   PO467488  44.979  32.741   5.364
 5214POPC   GL167489   0.239  32.867   5.749
 5214POPC   GL267490   0.180  33.210   5.958
 5214POPC   C1A67491   0.443  32.832   6.161
 5214POPC   D2A67492   0.357  32.842   6.585
 5214POPC   C3A67493   0.477  33.125   6.907
 5214POPC   C4A67494   0.426  32.990   7.316
 5214POPC   C1B67495  44.871  33.277   6.269
 5214POPC   C2B67496   0.012  33.243   6.689
 5214POPC   C3B67497   0.001  32.956   7.025
 5214POPC   C4B67498  44.944  33.047   7.481
 5215POPC   NC367499  13.481  27.060   5.512
 5215POPC   PO467500  13.790  26.438   5.369
 5215POPC   GL167501  13.751  26.751   5.787
 5215POPC   GL267502  14.011  27.026   5.767
 5215POPC   C1A67503  13.515  26.990   6.189
 5215POPC   D2A67504  13.469  27.135   6.668
 5215POPC   C3A67505  13.435  26.808   7.084
 5215POPC   C4A67506  13.562  26.900   7.524
 5215POPC   C1B67507  14.012  26.880   6.220
 5215POPC   C2B67508  13.985  27.083   6.616
 5215POPC   C3B67509  13.954  26.920   7.043
 5215POPC   C4B67510  14.020  26.669   7.486
 5216POPC   NC367511  28.072  18.392   5.469
 5216POPC   PO467512  27.524  17.970   5.542
 5216POPC   GL167513  27.597  18.290   5.877
 5216POPC   GL267514  27.324  18.541   5.900
 5216POPC   C1A67515  27.845  18.230   6.289
 5216POPC   D2A67516  27.953  18.122   6.754
 5216POPC   C3A67517  27.721  18.389   7.068
 5216POPC   C4A67518  27.291  18.551   7.093
 5216POPC   C1B67519  27.274  18.363   6.303
 5216POPC   C2B67520  27.431  18.122   6.625
 5216POPC   C3B67521  27.323  18.043   7.017
 5216POPC   C4B67522  27.381  18.152   7.433
 5217POPC   NC367523  14.070  24.370   5.437
 5217POPC   PO467524  13.463  24.332   5.223
 5217POPC   GL167525  13.602  24.466   5.669
 5217POPC   GL267526  13.807  24.217   5.825
 5217POPC   C1A67527  13.698  24.679   6.100
 5217POPC   D2A67528  13.505  24.806   6.556
 5217POPC   C3A67529  13.623  24.769   7.002
 5217POPC   C4A67530  13.368  24.780   7.413
 5217POPC   C1B67531  13.570  24.205   6.203
 5217POPC   C2B67532  13.553  24.203   6.629
 5217POPC   C3B67533  13.446  24.305   7.035
 5217POPC   C4B67534  13.712  24.144   7.309
 5218POPC   NC367535   1.695   4.649   5.411
 5218POPC   PO467536   1.619   5.326   5.432
 5218POPC   GL167537   1.933   5.176   5.754
 5218POPC   GL267538   1.763   4.875   5.853
 5218POPC   C1A67539   2.209   4.972   6.113
 5218POPC   D2A67540   2.162   5.157   6.529
 5218POPC   C3A67541   2.365   5.064   6.918
 5218POPC   C4A67542   2.223   5.208   7.324
 5218POPC   C1B67543   1.730   5.045   6.242
 5218POPC   C2B67544   1.779   4.808   6.612
 5218POPC   C3B67545   1.814   5.051   6.952
 5218POPC   C4B67546   1.794   4.894   7.323
 5219POPC   NC367547  13.980  31.383   5.532
 5219POPC   PO467548  13.334  31.468   5.308
 5219POPC   GL167549  13.490  31.594   5.725
 5219POPC   GL267550  13.547  31.280   5.860
 5219POPC   C1A67551  13.720  31.679   6.140
 5219POPC   D2A67552  13.520  31.606   6.545
 5219POPC   C3A67553  13.716  31.608   6.933
 5219POPC   C4A67554  13.582  31.668   7.367
 5219POPC   C1B67555  13.694  31.187   6.291
 5219POPC   C2B67556  13.576  31.106   6.732
 5219POPC   C3B67557  13.595  31.171   7.188
 5219POPC   C4B67558  13.838  31.266   7.559
 5220POPC   NC367559   0.095  32.307   5.398
 5220POPC   PO467560   0.353  31.797   5.461
 5220POPC   GL167561   0.242  32.034   5.841
 5220POPC   GL267562   0.526  31.985   6.038
 5220POPC   C1A67563   0.206  32.376   6.184
 5220POPC   D2A67564   0.432  32.319   6.600
 5220POPC   C3A67565   0.403  32.563   7.005
 5220POPC   C4A67566   0.671  32.529   7.367
 5220POPC   C1B67567   0.236  31.894   6.362
 5220POPC   C2B67568   0.233  31.868   6.815
 5220POPC   C3B67569   0.420  32.053   7.204
 5220POPC   C4B67570   0.371  32.220   7.644
 5221POPC   NC367571  32.517  34.658   5.128
 5221POPC   PO467572  31.948  34.434   5.315
 5221POPC   GL167573  32.071  34.649   5.715
 5221POPC   GL267574  31.997  34.314   5.868
 5221POPC   C1A67575  32.275  34.658   6.150
 5221POPC   D2A67576  32.280  34.429   6.523
 5221POPC   C3A67577  32.281  34.615   6.918
 5221POPC   C4A67578  32.608  34.626   7.225
 5221POPC   C1B67579  31.799  34.437   6.246
 5221POPC   C2B67580  31.776  34.409   6.679
 5221POPC   C3B67581  31.848  34.418   7.109
 5221POPC   C4B67582  32.186  34.248   7.286
 5222POPC   NC367583  19.953  19.777   5.419
 5222POPC   PO467584  19.231  19.549   5.519
 5222POPC   GL167585  19.595  19.721   5.765
 5222POPC   GL267586  19.593  20.048   5.936
 5222POPC   C1A67587  19.978  19.706   6.074
 5222POPC   D2A67588  20.162  19.586   6.487
 5222POPC   C3A67589  20.044  19.822   6.863
 5222POPC   C4A67590  20.052  19.643   7.256
 5222POPC   C1B67591  19.442  19.753   6.239
 5222POPC   C2B67592  19.634  19.614   6.597
 5222POPC   C3B67593  19.559  19.708   7.014
 5222POPC   C4B67594  19.705  20.019   7.288
 5223POPC   NC367595  22.206  24.845   5.489
 5223POPC   PO467596  22.017  24.206   5.496
 5223POPC   GL167597  22.342  24.397   5.768
 5223POPC   GL267598  22.284  24.709   5.993
 5223POPC   C1A67599  22.465  24.262   6.171
 5223POPC   D2A67600  22.221  24.461   6.495
 5223POPC   C3A67601  22.214  24.230   6.879
 5223POPC   C4A67602  22.199  24.393   7.271
 5223POPC   C1B67603  21.857  24.672   6.156
 5223POPC   C2B67604  21.661  24.727   6.518
 5223POPC   C3B67605  21.899  24.620   6.881
 5223POPC   C4B67606  21.817  24.754   7.268
 5224POPC   NC367607  11.007  37.416   5.564
 5224POPC   PO467608  11.479  37.793   5.264
 5224POPC   GL167609  11.603  37.802   5.699
 5224POPC   GL267610  11.562  37.455   5.828
 5224POPC   C1A67611  11.425  37.847   6.133
 5224POPC   D2A67612  11.273  37.637   6.529
 5224POPC   C3A67613  11.450  37.728   6.930
 5224POPC   C4A67614  11.276  37.893   7.315
 5224POPC   C1B67615  11.377  37.264   6.202
 5224POPC   C2B67616  11.174  37.141   6.618
 5224POPC   C3B67617  11.038  37.384   6.952
 5224POPC   C4B67618  11.253  37.405   7.342
 5225POPC   NC367619  14.172  19.194   5.442
 5225POPC   PO467620  14.648  18.674   5.638
 5225POPC   GL167621  14.486  19.010   5.825
 5225POPC   GL267622  14.149  18.870   5.863
 5225POPC   C1A67623  14.618  19.072   6.263
 5225POPC   D2A67624  14.483  18.828   6.622
 5225POPC   C3A67625  14.554  19.034   7.006
 5225POPC   C4A67626  14.484  18.791   7.363
 5225POPC   C1B67627  14.158  19.238   6.134
 5225POPC   C2B67628  14.222  19.295   6.575
 5225POPC   C3B67629  14.049  19.084   6.913
 5225POPC   C4B67630  14.060  19.115   7.308
 5226POPC   NC367631   0.011   1.064   5.491
 5226POPC   PO467632  44.481   1.448   5.346
 5226POPC   GL167633  44.598   1.238   5.770
 5226POPC   GL267634  44.935   1.329   5.904
 5226POPC   C1A67635  44.545   1.193   6.259
 5226POPC   D2A67636  44.670   1.436   6.661
 5226POPC   C3A67637  44.672   1.369   7.127
 5226POPC   C4A67638  44.372   1.081   7.305
 5226POPC   C1B67639  44.948   0.920   6.104
 5226POPC   C2B67640   0.002   0.788   6.524
 5226POPC   C3B67641   0.018   0.969   6.943
 5226POPC   C4B67642  44.812   0.828   7.312
 5227POPC   NC367643  35.118  13.417   5.416
 5227POPC   PO467644  35.682  13.681   5.268
 5227POPC   GL167645  35.638  13.804   5.737
 5227POPC   GL267646  35.421  13.547   5.923
 5227POPC   C1A67647  35.721  13.844   6.212
 5227POPC   D2A67648  35.617  13.471   6.463
 5227POPC   C3A67649  35.600  13.419   6.909
 5227POPC   C4A67650  35.339  13.660   7.187
 5227POPC   C1B67651  35.051  13.379   6.183
 5227POPC   C2B67652  34.901  13.301   6.604
 5227POPC   C3B67653  35.101  13.254   7.000
 5227POPC   C4B67654  35.148  13.271   7.466
 5228POPC   NC367655   9.995   3.073   5.428
 5228POPC   PO467656   9.777   2.424   5.313
 5228POPC   GL167657   9.677   2.578   5.761
 5228POPC   GL267658   9.581   2.912   5.735
 5228POPC   C1A67659   9.931   2.854   6.093
 5228POPC   D2A67660   9.885   3.106   6.485
 5228POPC   C3A67661   9.828   2.765   6.781
 5228POPC   C4A67662  10.066   2.664   7.156
 5228POPC   C1B67663   9.455   3.019   6.199
 5228POPC   C2B67664   9.288   2.855   6.602
 5228POPC   C3B67665   9.394   2.686   7.030
 5228POPC   C4B67666   9.701   3.000   7.218
 5229POPC   NC367667  29.390  21.977   5.074
 5229POPC   PO467668  29.048  22.495   5.352
 5229POPC   GL167669  29.130  22.348   5.813
 5229POPC   GL267670  29.094  22.006   5.893
 5229POPC   C1A67671  29.180  22.360   6.284
 5229POPC   D2A67672  29.003  22.590   6.680
 5229POPC   C3A67673  28.998  22.355   7.079
 5229POPC   C4A67674  29.270  22.336   7.440
 5229POPC   C1B67675  28.773  22.079   6.230
 5229POPC   C2B67676  28.734  22.144   6.666
 5229POPC   C3B67677  28.802  21.910   7.042
 5229POPC   C4B67678  28.893  22.007   7.492
 5230POPC   NC367679   7.742  41.149   5.440
 5230POPC   PO467680   7.612  41.853   5.266
 5230POPC   GL167681   7.603  41.893   5.707
 5230POPC   GL267682   7.248  41.859   5.779
 5230POPC   C1A67683   7.730  41.902   6.131
 5230POPC   D2A67684   7.678  41.635   6.482
 5230POPC   C3A67685   7.539  41.785   6.867
 5230POPC   C4A67686   7.787  41.594   7.162
 5230POPC   C1B67687   7.364  41.498   6.066
 5230POPC   C2B67688   7.286  41.306   6.480
 5230POPC   C3B67689   7.425  41.278   6.891
 5230POPC   C4B67690   7.259  41.470   7.236
 5231POPC   NC367691  37.807  44.985   5.577
 5231POPC   PO467692  37.515  44.332   5.616
 5231POPC   GL167693  37.520  44.608   5.921
 5231POPC   GL267694  37.860  44.593   5.920
 5231POPC   C1A67695  37.551  44.481   6.346
 5231POPC   D2A67696  37.566  44.745   6.677
 5231POPC   C3A67697  37.344  44.699   7.023
 5231POPC   C4A67698  37.474  44.802   7.426
 5231POPC   C1B67699  37.975  44.788   6.301
 5231POPC   C2B67700  38.042  44.573   6.701
 5231POPC   C3B67701  37.871  44.679   7.106
 5231POPC   C4B67702  37.897  44.526   7.510
 5232POPC   NC367703  12.976  13.775   5.512
 5232POPC   PO467704  12.512  14.215   5.307
 5232POPC   GL167705  12.812  14.226   5.692
 5232POPC   GL267706  12.870  14.555   5.838
 5232POPC   C1A67707  12.796  14.143   6.163
 5232POPC   D2A67708  12.717  13.902   6.569
 5232POPC   C3A67709  12.797  14.029   6.995
 5232POPC   C4A67710  12.687  14.240   7.357
 5232POPC   C1B67711  12.815  14.646   6.286
 5232POPC   C2B67712  12.848  14.454   6.695
 5232POPC   C3B67713  12.755  14.660   7.085
 5232POPC   C4B67714  12.864  15.061   7.266
 5233POPC   NC367715  33.386  10.603   5.364
 5233POPC   PO467716  32.853  10.232   5.296
 5233POPC   GL167717  32.989  10.467   5.697
 5233POPC   GL267718  33.311  10.297   5.778
 5233POPC   C1A67719  33.108  10.663   6.135
 5233POPC   D2A67720  33.323  10.764   6.569
 5233POPC   C3A67721  33.116  10.634   6.969
 5233POPC   C4A67722  32.661  10.555   7.066
 5233POPC   C1B67723  33.180  10.155   6.184
 5233POPC   C2B67724  33.028  10.266   6.624
 5233POPC   C3B67725  33.240  10.140   7.044
 5233POPC   C4B67726  33.409  10.136   7.494
 5234POPC   NC367727  11.183   7.790   5.401
 5234POPC   PO467728  11.519   8.395   5.335
 5234POPC   GL167729  11.281   8.236   5.742
 5234POPC   GL267730  11.188   7.952   5.865
 5234POPC   C1A67731  11.179   8.469   6.171
 5234POPC   D2A67732  11.027   8.431   6.636
 5234POPC   C3A67733  11.338   8.213   6.948
 5234POPC   C4A67734  11.490   8.212   7.379
 5234POPC   C1B67735  10.994   8.004   6.205
 5234POPC   C2B67736  11.178   7.944   6.555
 5234POPC   C3B67737  10.922   7.931   6.888
 5234POPC   C4B67738  11.006   8.034   7.289
 5235POPC   NC367739   6.227  11.567   5.410
 5235POPC   PO467740   6.805  11.138   5.471
 5235POPC   GL167741   6.727  11.270   5.858
 5235POPC   GL267742   6.396  11.389   5.857
 5235POPC   C1A67743   6.889  11.141   6.261
 5235POPC   D2A67744   6.999  11.380   6.640
 5235POPC   C3A67745   6.763  11.337   7.030
 5235POPC   C4A67746   6.364  11.510   7.178
 5235POPC   C1B67747   6.363  11.035   6.142
 5235POPC   C2B67748   6.266  10.904   6.543
 5235POPC   C3B67749   6.255  11.008   6.995
 5235POPC   C4B67750   6.495  11.059   7.386
 5236POPC   NC367751  13.138  31.025   5.350
 5236POPC   PO467752  12.602  30.678   5.151
 5236POPC   GL167753  12.918  30.581   5.586
 5236POPC   GL267754  13.109  30.834   5.805
 5236POPC   C1A67755  12.993  30.457   6.092
 5236POPC   D2A67756  12.844  30.664   6.490
 5236POPC   C3A67757  12.814  30.591   6.927
 5236POPC   C4A67758  13.128  30.396   7.158
 5236POPC   C1B67759  12.833  30.985   6.119
 5236POPC   C2B67760  12.810  31.171   6.541
 5236POPC   C3B67761  13.076  31.044   6.827
 5236POPC   C4B67762  13.087  30.922   7.222
 5237POPC   NC367763  35.641  24.992   5.422
 5237POPC   PO467764  35.011  25.028   5.638
 5237POPC   GL167765  35.329  25.266   5.782
 5237POPC   GL267766  35.463  24.965   5.903
 5237POPC   C1A67767  35.471  25.490   6.143
 5237POPC   D2A67768  35.602  25.521   6.580
 5237POPC   C3A67769  35.297  25.338   6.826
 5237POPC   C4A67770  35.188  25.248   7.242
 5237POPC   C1B67771  35.612  24.767   6.247
 5237POPC   C2B67772  35.624  24.952   6.630
 5237POPC   C3B67773  35.447  24.870   6.992
 5237POPC   C4B67774  35.475  24.786   7.399
 5238POPC   NC367775  27.751  34.835   5.340
 5238POPC   PO467776  27.617  34.194   5.299
 5238POPC   GL167777  27.817  34.377   5.626
 5238POPC   GL267778  27.498  34.537   5.688
 5238POPC   C1A67779  27.859  34.583   6.032
 5238POPC   D2A67780  27.893  34.381   6.453
 5238POPC   C3A67781  27.657  34.539   6.800
 5238POPC   C4A67782  27.734  34.679   7.189
 5238POPC   C1B67783  27.354  34.666   6.116
 5238POPC   C2B67784  27.492  34.909   6.487
 5238POPC   C3B67785  27.293  34.908   6.895
 5238POPC   C4B67786  27.214  34.518   7.082
 5239POPC   NC367787  34.728  26.356   5.477
 5239POPC   PO467788  35.363  26.106   5.472
 5239POPC   GL167789  35.369  25.917   5.877
 5239POPC   GL267790  35.004  25.825   5.826
 5239POPC   C1A67791  35.524  25.972   6.332
 5239POPC   D2A67792  35.746  26.219   6.686
 5239POPC   C3A67793  35.552  26.113   7.080
 5239POPC   C4A67794  35.415  25.699   7.165
 5239POPC   C1B67795  35.001  25.947   6.256
 5239POPC   C2B67796  35.153  25.799   6.647
 5239POPC   C3B67797  35.032  25.991   7.015
 5239POPC   C4B67798  35.100  26.075   7.417
 5240POPC   NC367799  37.542  38.651   5.511
 5240POPC   PO467800  37.524  37.993   5.467
 5240POPC   GL167801  37.712  38.246   5.782
 5240POPC   GL267802  37.393  38.283   5.939
 5240POPC   C1A67803  37.763  38.577   6.117
 5240POPC   D2A67804  37.964  38.523   6.491
 5240POPC   C3A67805  37.846  38.626   6.886
 5240POPC   C4A67806  37.945  38.562   7.332
 5240POPC   C1B67807  37.690  38.096   6.272
 5240POPC   C2B67808  37.905  38.015   6.648
 5240POPC   C3B67809  37.787  38.118   7.054
 5240POPC   C4B67810  37.464  38.441   7.152
 5241POPC   NC367811   7.094  35.480   5.557
 5241POPC   PO467812   6.650  35.009   5.575
 5241POPC   GL167813   6.523  35.327   5.875
 5241POPC   GL267814   6.409  35.669   5.743
 5241POPC   C1A67815   6.677  35.254   6.311
 5241POPC   D2A67816   6.739  35.068   6.735
 5241POPC   C3A67817   6.569  35.315   7.077
 5241POPC   C4A67818   6.774  35.391   7.458
 5241POPC   C1B67819   6.555  35.742   6.194
 5241POPC   C2B67820   6.680  35.668   6.643
 5241POPC   C3B67821   6.602  35.813   7.066
 5241POPC   C4B67822   6.395  35.695   7.466
 5242POPC   NC367823  39.995  28.547   5.371
 5242POPC   PO467824  39.821  27.927   5.292
 5242POPC   GL167825  39.892  28.061   5.734
 5242POPC   GL267826  40.205  28.222   5.821
 5242POPC   C1A67827  39.746  28.146   6.187
 5242POPC   D2A67828  39.515  28.165   6.630
 5242POPC   C3A67829  39.727  28.357   7.016
 5242POPC   C4A67830  39.978  28.732   7.108
 5242POPC   C1B67831  40.363  28.132   6.245
 5242POPC   C2B67832  40.381  28.384   6.643
 5242POPC   C3B67833  40.296  28.313   7.078
 5242POPC   C4B67834  40.031  28.100   7.364
 5243POPC   NC367835  32.027   4.756   5.394
 5243POPC   PO467836  32.016   5.415   5.528
 5243POPC   GL167837  32.095   5.217   5.924
 5243POPC   GL267838  32.251   4.921   5.831
 5243POPC   C1A67839  32.250   5.197   6.363
 5243POPC   D2A67840  32.315   4.862   6.680
 5243POPC   C3A67841  32.160   5.038   7.037
 5243POPC   C4A67842  32.264   5.188   7.434
 5243POPC   C1B67843  32.152   4.722   6.220
 5243POPC   C2B67844  31.850   4.576   6.510
 5243POPC   C3B67845  31.938   4.574   6.937
 5243POPC   C4B67846  31.988   4.744   7.401
 5244POPC   NC367847  16.172  43.167   5.424
 5244POPC   PO467848  15.690  43.423   5.430
 5244POPC   GL167849  15.867  43.258   5.838
 5244POPC   GL267850  16.229  43.250   5.925
 5244POPC   C1A67851  15.867  43.323   6.305
 5244POPC   D2A67852  15.959  43.197   6.753
 5244POPC   C3A67853  15.846  42.819   7.031
 5244POPC   C4A67854  15.834  42.810   7.507
 5244POPC   C1B67855  16.337  43.126   6.380
 5244POPC   C2B67856  16.291  42.791   6.716
 5244POPC   C3B67857  16.328  42.731   7.172
 5244POPC   C4B67858  16.330  42.877   7.614
 5245POPC   NC367859   6.364  14.738   5.186
 5245POPC   PO467860   6.914  14.333   5.359
 5245POPC   GL167861   6.797  14.193   5.760
 5245POPC   GL267862   6.473  14.377   5.773
 5245POPC   C1A67863   6.721  14.305   6.204
 5245POPC   D2A67864   6.757  14.651   6.504
 5245POPC   C3A67865   6.722  14.486   6.913
 5245POPC   C4A67866   6.626  14.595   7.327
 5245POPC   C1B67867   6.320  14.605   6.159
 5245POPC   C2B67868   6.318  14.378   6.579
 5245POPC   C3B67869   6.211  14.473   7.033
 5245POPC   C4B67870   6.189  14.338   7.512
 5246POPC   NC367871  17.440  11.664   5.807
 5246POPC   PO467872  17.655  12.018   5.285
 5246POPC   GL167873  17.675  12.159   5.767
 5246POPC   GL267874  17.344  12.162   5.915
 5246POPC   C1A67875  17.694  12.073   6.272
 5246POPC   D2A67876  17.503  11.896   6.671
 5246POPC   C3A67877  17.718  11.903   7.086
 5246POPC   C4A67878  17.578  11.945   7.536
 5246POPC   C1B67879  17.143  12.121   6.333
 5246POPC   C2B67880  16.993  11.936   6.746
 5246POPC   C3B67881  17.191  11.941   7.167
 5246POPC   C4B67882  17.051  12.018   7.618
 5247POPC   NC367883  31.593  32.639   5.430
 5247POPC   PO467884  31.838  32.006   5.426
 5247POPC   GL167885  31.602  32.203   5.714
 5247POPC   GL267886  31.799  32.444   5.847
 5247POPC   C1A67887  31.374  32.090   6.062
 5247POPC   D2A67888  31.447  32.033   6.492
 5247POPC   C3A67889  31.212  32.270   6.785
 5247POPC   C4A67890  31.209  32.036   7.139
 5247POPC   C1B67891  31.680  32.439   6.264
 5247POPC   C2B67892  31.586  32.569   6.631
 5247POPC   C3B67893  31.749  32.499   7.008
 5247POPC   C4B67894  31.421  32.497   7.234
 5248POPC   NC367895   9.954  19.985   5.251
 5248POPC   PO467896   9.368  19.684   5.419
 5248POPC   GL167897   9.590  19.740   5.822
 5248POPC   GL267898   9.936  19.891   5.783
 5248POPC   C1A67899   9.726  19.647   6.266
 5248POPC   D2A67900   9.719  19.785   6.726
 5248POPC   C3A67901   9.583  19.496   7.048
 5248POPC   C4A67902   9.605  19.383   7.504
 5248POPC   C1B67903  10.016  20.095   6.212
 5248POPC   C2B67904  10.191  19.934   6.631
 5248POPC   C3B67905  10.045  20.083   7.048
 5248POPC   C4B67906  10.098  20.215   7.491
 5249POPC   NC367907  38.309   7.660   5.389
 5249POPC   PO467908  38.116   7.074   5.669
 5249POPC   GL167909  38.424   7.284   5.880
 5249POPC   GL267910  38.358   7.645   5.878
 5249POPC   C1A67911  38.354   7.360   6.301
 5249POPC   D2A67912  38.074   7.614   6.498
 5249POPC   C3A67913  38.081   7.467   6.901
 5249POPC   C4A67914  38.219   7.545   7.317
 5249POPC   C1B67915  38.440   7.884   6.211
 5249POPC   C2B67916  38.603   7.735   6.578
 5249POPC   C3B67917  38.593   7.709   6.984
 5249POPC   C4B67918  38.732   7.541   7.368
 5250POPC   NC367919  10.266  10.828   5.425
 5250POPC   PO467920  10.144  10.143   5.390
 5250POPC   GL167921  10.336  10.427   5.755
 5250POPC   GL267922  10.548  10.712   5.837
 5250POPC   C1A67923  10.175  10.578   6.178
 5250POPC   D2A67924  10.161  10.393   6.598
 5250POPC   C3A67925  10.163  10.609   6.989
 5250POPC   C4A67926  10.487  10.569   7.313
 5250POPC   C1B67927  10.613  10.836   6.269
 5250POPC   C2B67928  10.592  10.735   6.710
 5250POPC   C3B67929  10.645  10.989   7.072
 5250POPC   C4B67930  10.693  10.960   7.559
 5251POPC   NC367931  20.872  19.360   5.463
 5251POPC   PO467932  20.473  18.881   5.176
 5251POPC   GL167933  20.576  18.858   5.650
 5251POPC   GL267934  20.848  19.046   5.878
 5251POPC   C1A67935  20.406  18.945   6.091
 5251POPC   D2A67936  20.465  19.111   6.532
 5251POPC   C3A67937  20.395  18.870   6.934
 5251POPC   C4A67938  20.672  18.699   7.270
 5251POPC   C1B67939  20.839  19.412   6.192
 5251POPC   C2B67940  20.697  19.575   6.619
 5251POPC   C3B67941  20.477  19.422   7.036
 5251POPC   C4B67942  20.200  19.149   7.327
 5252POPC   NC367943  38.119  28.740   5.477
 5252POPC   PO467944  37.467  28.482   5.379
 5252POPC   GL167945  37.609  28.475   5.810
 5252POPC   GL267946  37.968  28.430   5.872
 5252POPC   C1A67947  37.609  28.237   6.186
 5252POPC   D2A67948  37.887  28.177   6.525
 5252POPC   C3A67949  37.689  28.194   6.912
 5252POPC   C4A67950  37.517  28.152   7.323
 5252POPC   C1B67951  37.899  28.640   6.277
 5252POPC   C2B67952  37.685  28.706   6.663
 5252POPC   C3B67953  37.499  28.639   7.070
 5252POPC   C4B67954  37.856  28.521   7.310
 5253POPC   NC367955  40.205   1.035   5.518
 5253POPC   PO467956  39.888   1.594   5.534
 5253POPC   GL167957  39.882   1.383   5.888
 5253POPC   GL267958  39.607   1.598   5.986
 5253POPC   C1A67959  40.011   1.406   6.328
 5253POPC   D2A67960  39.901   1.568   6.743
 5253POPC   C3A67961  40.174   1.471   7.098
 5253POPC   C4A67962  40.181   1.086   7.301
 5253POPC   C1B67963  39.534   1.213   6.219
 5253POPC   C2B67964  39.698   1.115   6.647
 5253POPC   C3B67965  39.722   1.221   7.114
 5253POPC   C4B67966  39.678   1.105   7.594
 5254POPC   NC367967  35.699  34.703   5.419
 5254POPC   PO467968  36.347  34.458   5.180
 5254POPC   GL167969  36.349  34.634   5.681
 5254POPC   GL267970  36.016  34.575   5.818
 5254POPC   C1A67971  36.291  34.826   6.162
 5254POPC   D2A67972  35.944  34.862   6.536
 5254POPC   C3A67973  36.087  34.789   6.967
 5254POPC   C4A67974  36.128  34.541   7.313
 5254POPC   C1B67975  36.129  34.358   6.230
 5254POPC   C2B67976  36.262  34.479   6.593
 5254POPC   C3B67977  36.181  34.246   6.911
 5254POPC   C4B67978  35.968  34.023   7.221
 5255POPC   NC367979   1.333  44.301   5.298
 5255POPC   PO467980   1.077  43.694   5.331
 5255POPC   GL167981   1.194  43.862   5.723
 5255POPC   GL267982   0.938  43.687   5.940
 5255POPC   C1A67983   1.515  43.850   6.076
 5255POPC   D2A67984   1.769  43.725   6.459
 5255POPC   C3A67985   1.532  43.744   6.856
 5255POPC   C4A67986   1.469  43.777   7.295
 5255POPC   C1B67987   1.052  44.060   6.171
 5255POPC   C2B67988   1.332  44.065   6.509
 5255POPC   C3B67989   1.356  44.247   6.896
 5255POPC   C4B67990   1.105  44.125   7.211
 5256POPC   NC367991  43.697  24.948   5.423
 5256POPC   PO467992  44.225  25.317   5.261
 5256POPC   GL167993  43.980  25.378   5.615
 5256POPC   GL267994  44.231  25.567   5.785
 5256POPC   C1A67995  43.833  25.386   6.068
 5256POPC   D2A67996  43.949  25.167   6.464
 5256POPC   C3A67997  43.689  25.057   6.813
 5256POPC   C4A67998  43.729  25.168   7.225
 5256POPC   C1B67999  44.319  25.475   6.235
 5256POPC   C2B68000  44.235  25.567   6.662
 5256POPC   C3B68001  43.867  25.547   6.912
 5256POPC   C4B68002  43.959  25.609   7.343
 5257POPC   NC368003  42.287  24.023   5.189
 5257POPC   PO468004  42.408  24.752   5.258
 5257POPC   GL168005  42.405  24.558   5.644
 5257POPC   GL268006  42.056  24.623   5.727
 5257POPC   C1A68007  42.385  24.551   6.101
 5257POPC   D2A68008  42.301  24.380   6.491
 5257POPC   C3A68009  42.400  24.558   6.879
 5257POPC   C4A68010  42.433  24.373   7.271
 5257POPC   C1B68011  41.830  24.739   6.093
 5257POPC   C2B68012  41.925  24.876   6.513
 5257POPC   C3B68013  41.936  24.838   6.962
 5257POPC   C4B68014  41.954  24.466   7.184
 5258POPC   NC368015  10.676   0.319   5.384
 5258POPC   PO468016  10.331   0.847   5.154
 5258POPC   GL168017  10.477   0.697   5.649
 5258POPC   GL268018  10.498   0.361   5.844
 5258POPC   C1A68019  10.418   0.731   6.152
 5258POPC   D2A68020  10.710   0.557   6.484
 5258POPC   C3A68021  10.532   0.518   6.903
 5258POPC   C4A68022  10.405   0.205   7.213
 5258POPC   C1B68023  10.850   0.161   6.102
 5258POPC   C2B68024  11.061   0.157   6.527
 5258POPC   C3B68025  10.911   0.127   6.953
 5258POPC   C4B68026  10.895  44.878   7.325
 5259POPC   NC368027   0.076   2.664   5.448
 5259POPC   PO468028   0.736   2.453   5.413
 5259POPC   GL168029   0.547   2.731   5.770
 5259POPC   GL268030   0.214   2.685   5.917
 5259POPC   C1A68031   0.568   2.885   6.217
 5259POPC   D2A68032   0.600   3.207   6.565
 5259POPC   C3A68033   0.520   2.998   6.977
 5259POPC   C4A68034   0.202   2.729   7.144
 5259POPC   C1B68035   0.222   2.448   6.269
 5259POPC   C2B68036   0.344   2.573   6.656
 5259POPC   C3B68037   0.222   2.268   6.931
 5259POPC   C4B68038   0.028   2.259   7.282
 5260POPC   NC368039   7.780   2.058   5.542
 5260POPC   PO468040   7.180   1.762   5.188
 5260POPC   GL168041   7.210   1.601   5.703
 5260POPC   GL268042   7.553   1.737   5.900
 5260POPC   C1A68043   7.095   1.733   6.137
 5260POPC   D2A68044   7.355   1.812   6.486
 5260POPC   C3A68045   7.233   2.007   6.865
 5260POPC   C4A68046   7.366   1.841   7.252
 5260POPC   C1B68047   7.638   2.149   6.212
 5260POPC   C2B68048   7.606   2.319   6.662
 5260POPC   C3B68049   7.746   2.156   7.086
 5260POPC   C4B68050   8.031   2.027   7.458
 5261POPC   NC368051  32.637  22.597   5.133
 5261POPC   PO468052  32.100  22.936   5.392
 5261POPC   GL168053  32.351  22.870   5.741
 5261POPC   GL268054  32.479  22.548   5.732
 5261POPC   C1A68055  32.320  23.018   6.164
 5261POPC   D2A68056  32.585  23.000   6.520
 5261POPC   C3A68057  32.417  22.808   6.888
 5261POPC   C4A68058  32.261  22.848   7.331
 5261POPC   C1B68059  32.290  22.521   6.171
 5261POPC   C2B68060  32.115  22.554   6.575
 5261POPC   C3B68061  32.083  22.441   7.046
 5261POPC   C4B68062  32.237  22.367   7.496
 5262POPC   NC368063   5.682  31.563   5.026
 5262POPC   PO468064   6.157  31.431   5.508
 5262POPC   GL168065   5.818  31.309   5.816
 5262POPC   GL268066   5.691  31.558   6.039
 5262POPC   C1A68067   5.800  31.138   6.262
 5262POPC   D2A68068   5.732  31.430   6.600
 5262POPC   C3A68069   5.775  31.163   6.953
 5262POPC   C4A68070   5.748  31.230   7.389
 5262POPC   C1B68071   5.969  31.804   6.324
 5262POPC   C2B68072   6.021  31.832   6.785
 5262POPC   C3B68073   5.800  31.645   7.105
 5262POPC   C4B68074   5.664  31.750   7.514
 5263POPC   NC368075   1.485   9.343   5.598
 5263POPC   PO468076   1.037   9.713   5.374
 5263POPC   GL168077   1.244   9.723   5.830
 5263POPC   GL268078   1.586   9.852   5.717
 5263POPC   C1A68079   1.393   9.542   6.295
 5263POPC   D2A68080   1.566   9.419   6.769
 5263POPC   C3A68081   1.326   9.505   7.148
 5263POPC   C4A68082   1.059   9.851   7.234
 5263POPC   C1B68083   1.574  10.055   6.111
 5263POPC   C2B68084   1.350  10.035   6.502
 5263POPC   C3B68085   1.485   9.945   6.917
 5263POPC   C4B68086   1.487  10.148   7.314
 5264POPC   NC368087  33.885  18.627   5.651
 5264POPC   PO468088  33.926  19.196   5.291
 5264POPC   GL168089  33.933  19.153   5.743
 5264POPC   GL268090  33.611  19.052   5.877
 5264POPC   C1A68091  34.033  19.311   6.172
 5264POPC   D2A68092  34.152  19.213   6.621
 5264POPC   C3A68093  34.012  19.036   7.019
 5264POPC   C4A68094  34.204  19.192   7.391
 5264POPC   C1B68095  33.794  18.855   6.260
 5264POPC   C2B68096  33.725  18.706   6.681
 5264POPC   C3B68097  33.544  18.780   7.096
 5264POPC   C4B68098  33.656  18.987   7.482
 5265POPC   NC368099   2.488  40.845   5.291
 5265POPC   PO468100   2.566  40.199   5.420
 5265POPC   GL168101   2.657  40.564   5.730
 5265POPC   GL268102   2.830  40.896   5.675
 5265POPC   C1A68103   2.873  40.608   6.137
 5265POPC   D2A68104   3.043  40.545   6.538
 5265POPC   C3A68105   2.740  40.583   6.851
 5265POPC   C4A68106   2.676  40.478   7.231
 5265POPC   C1B68107   2.616  41.037   6.057
 5265POPC   C2B68108   2.737  41.046   6.499
 5265POPC   C3B68109   3.049  40.977   6.826
 5265POPC   C4B68110   2.831  40.991   7.218
 5266POPC   NC368111  13.581   2.581   5.072
 5266POPC   PO468112  13.108   2.665   5.579
 5266POPC   GL168113  13.498   2.763   5.807
 5266POPC   GL268114  13.617   2.478   5.963
 5266POPC   C1A68115  13.582   2.870   6.257
 5266POPC   D2A68116  13.346   2.751   6.621
 5266POPC   C3A68117  13.418   2.928   7.034
 5266POPC   C4A68118  13.760   3.096   7.301
 5266POPC   C1B68119  13.339   2.369   6.222
 5266POPC   C2B68120  13.372   2.189   6.604
 5266POPC   C3B68121  13.436   2.388   6.965
 5266POPC   C4B68122  13.605   2.396   7.357
 5267POPC   NC368123  37.444  22.259   5.353
 5267POPC   PO468124  38.128  22.362   5.434
 5267POPC   GL168125  37.857  22.389   5.786
 5267POPC   GL268126  37.633  22.107   5.802
 5267POPC   C1A68127  37.774  22.323   6.235
 5267POPC   D2A68128  37.909  22.426   6.639
 5267POPC   C3A68129  37.712  22.244   6.991
 5267POPC   C4A68130  37.940  22.141   7.338
 5267POPC   C1B68131  37.556  21.875   6.169
 5267POPC   C2B68132  37.450  21.920   6.590
 5267POPC   C3B68133  37.310  21.685   6.936
 5267POPC   C4B68134  37.368  21.814   7.358
 5268POPC   NC368135   1.583   1.326   5.412
 5268POPC   PO468136   2.126   0.892   5.579
 5268POPC   GL168137   2.022   1.135   5.906
 5268POPC   GL268138   1.672   1.215   5.888
 5268POPC   C1A68139   2.182   1.067   6.313
 5268POPC   D2A68140   2.317   1.029   6.721
 5268POPC   C3A68141   2.049   1.261   6.995
 5268POPC   C4A68142   2.197   1.159   7.371
 5268POPC   C1B68143   1.747   1.408   6.294
 5268POPC   C2B68144   1.719   1.569   6.730
 5268POPC   C3B68145   1.671   1.568   7.197
 5268POPC   C4B68146   1.721   1.277   7.541
 5269POPC   NC368147  20.133  11.943   5.446
 5269POPC   PO468148  20.693  12.344   5.391
 5269POPC   GL168149  20.634  12.173   5.798
 5269POPC   GL268150  20.394  12.401   5.865
 5269POPC   C1A68151  20.596  11.981   6.264
 5269POPC   D2A68152  20.539  11.690   6.655
 5269POPC   C3A68153  20.718  11.873   7.040
 5269POPC   C4A68154  21.032  12.212   7.092
 5269POPC   C1B68155  20.706  12.477   6.189
 5269POPC   C2B68156  20.864  12.401   6.577
 5269POPC   C3B68157  20.590  12.350   6.888
 5269POPC   C4B68158  20.272  12.230   7.149
 5270POPC   NC368159  17.182  24.271   5.515
 5270POPC   PO468160  17.776  24.312   5.493
 5270POPC   GL168161  17.685  24.348   5.942
 5270POPC   GL268162  17.400  24.590   5.898
 5270POPC   C1A68163  17.705  24.177   6.415
 5270POPC   D2A68164  17.456  24.076   6.826
 5270POPC   C3A68165  17.425  24.384   7.177
 5270POPC   C4A68166  17.449  24.772   7.465
 5270POPC   C1B68167  17.091  24.439   6.195
 5270POPC   C2B68168  16.975  24.341   6.630
 5270POPC   C3B68169  16.893  24.362   7.074
 5270POPC   C4B68170  16.986  24.563   7.487
 5271POPC   NC368171  43.524  20.662   5.376
 5271POPC   PO468172  44.203  20.512   5.494
 5271POPC   GL168173  43.913  20.773   5.736
 5271POPC   GL268174  44.171  20.733   5.983
 5271POPC   C1A68175  43.685  20.980   6.114
 5271POPC   D2A68176  43.568  20.942   6.583
 5271POPC   C3A68177  43.704  20.527   6.731
 5271POPC   C4A68178  43.966  20.388   7.041
 5271POPC   C1B68179  44.045  20.791   6.407
 5271POPC   C2B68180  44.055  20.971   6.804
 5271POPC   C3B68181  44.252  20.791   7.128
 5271POPC   C4B68182  44.384  20.423   7.316
 5272POPC   NC368183  21.854  12.565   5.564
 5272POPC   PO468184  21.389  11.983   5.379
 5272POPC   GL168185  21.155  12.033   5.799
 5272POPC   GL268186  21.115  12.400   5.845
 5272POPC   C1A68187  21.161  12.041   6.290
 5272POPC   D2A68188  21.493  11.896   6.629
 5272POPC   C3A68189  21.366  11.833   7.090
 5272POPC   C4A68190  21.108  11.866   7.462
 5272POPC   C1B68191  21.452  12.429   6.145
 5272POPC   C2B68192  21.375  12.410   6.589
 5272POPC   C3B68193  21.552  12.303   6.954
 5272POPC   C4B68194  21.422  12.487   7.306
 5273POPC   NC368195  15.368  10.360   5.109
 5273POPC   PO468196  15.121   9.837   5.533
 5273POPC   GL168197  15.172   9.657   5.895
 5273POPC   GL268198  15.458   9.415   5.951
 5273POPC   C1A68199  15.084   9.834   6.289
 5273POPC   D2A68200  15.321   9.841   6.649
 5273POPC   C3A68201  14.953   9.902   6.867
 5273POPC   C4A68202  14.977  10.071   7.265
 5273POPC   C1B68203  15.183   9.332   6.282
 5273POPC   C2B68204  15.055   9.410   6.682
 5273POPC   C3B68205  15.219   9.548   7.089
 5273POPC   C4B68206  15.457   9.937   7.207
 5274POPC   NC368207   4.865  11.633   5.238
 5274POPC   PO468208   5.324  11.105   5.354
 5274POPC   GL168209   5.120  11.330   5.689
 5274POPC   GL268210   4.787  11.451   5.714
 5274POPC   C1A68211   5.056  11.164   6.119
 5274POPC   D2A68212   5.116  10.917   6.517
 5274POPC   C3A68213   4.933  10.922   6.901
 5274POPC   C4A68214   5.236  11.110   7.158
 5274POPC   C1B68215   4.883  11.642   6.108
 5274POPC   C2B68216   5.021  11.530   6.508
 5274POPC   C3B68217   4.882  11.423   6.890
 5274POPC   C4B68218   4.809  11.439   7.306
 5275POPC   NC368219  10.907  34.117   5.709
 5275POPC   PO468220  10.543  34.663   5.409
 5275POPC   GL168221  10.584  34.619   5.804
 5275POPC   GL268222  10.952  34.612   5.844
 5275POPC   C1A68223  10.289  34.619   6.143
 5275POPC   D2A68224  10.088  34.711   6.534
 5275POPC   C3A68225  10.311  34.611   6.915
 5275POPC   C4A68226  10.320  35.025   7.093
 5275POPC   C1B68227  10.791  34.430   6.244
 5275POPC   C2B68228  10.764  34.423   6.651
 5275POPC   C3B68229  10.866  34.238   7.007
 5275POPC   C4B68230  10.658  34.429   7.340
 5276POPC   NC368231  17.673   0.628   5.275
 5276POPC   PO468232  17.357   0.076   5.350
 5276POPC   GL168233  17.538   0.284   5.736
 5276POPC   GL268234  17.532   0.682   5.772
 5276POPC   C1A68235  17.563   0.356   6.180
 5276POPC   D2A68236  17.509   0.133   6.543
 5276POPC   C3A68237  17.546   0.341   6.898
 5276POPC   C4A68238  17.667   0.217   7.288
 5276POPC   C1B68239  17.206   0.711   6.100
 5276POPC   C2B68240  17.192   0.578   6.534
 5276POPC   C3B68241  17.183   0.697   6.961
 5276POPC   C4B68242  17.538   0.732   7.241
 5277POPC   NC368243   1.897  17.724   5.168
 5277POPC   PO468244   1.811  18.344   5.446
 5277POPC   GL168245   2.035  18.408   5.813
 5277POPC   GL268246   1.937  18.144   6.012
 5277POPC   C1A68247   2.199  18.522   6.225
 5277POPC   D2A68248   2.176  18.222   6.565
 5277POPC   C3A68249   2.277  18.496   6.873
 5277POPC   C4A68250   2.617  18.708   7.029
 5277POPC   C1B68251   1.683  18.109   6.353
 5277POPC   C2B68252   1.684  17.905   6.694
 5277POPC   C3B68253   1.898  18.128   6.979
 5277POPC   C4B68254   1.643  18.322   7.221
 5278POPC   NC368255  10.865  24.391   5.472
 5278POPC   PO468256  10.249  24.660   5.586
 5278POPC   GL168257  10.368  24.337   5.843
 5278POPC   GL268258  10.661  24.561   5.914
 5278POPC   C1A68259  10.510  24.239   6.273
 5278POPC   D2A68260  10.793  24.441   6.586
 5278POPC   C3A68261  10.609  24.474   7.010
 5278POPC   C4A68262  10.617  24.289   7.405
 5278POPC   C1B68263  10.279  24.696   6.217
 5278POPC   C2B68264  10.285  24.578   6.635
 5278POPC   C3B68265  10.182  24.745   7.038
 5278POPC   C4B68266  10.243  24.629   7.479
 5279POPC   NC368267  23.760  21.361   5.306
 5279POPC   PO468268  23.115  20.930   5.507
 5279POPC   GL168269  23.547  21.119   5.707
 5279POPC   GL268270  23.957  21.167   5.754
 5279POPC   C1A68271  23.663  21.394   6.074
 5279POPC   D2A68272  23.498  21.285   6.455
 5279POPC   C3A68273  23.726  21.367   6.799
 5279POPC   C4A68274  23.662  21.362   7.227
 5279POPC   C1B68275  24.102  20.936   6.146
 5279POPC   C2B68276  23.919  20.934   6.569
 5279POPC   C3B68277  23.923  20.950   7.032
 5279POPC   C4B68278  24.095  21.179   7.398
 5280POPC   NC368279  44.810  37.479   5.460
 5280POPC   PO468280  44.291  37.842   5.408
 5280POPC   GL168281  44.284  37.604   5.828
 5280POPC   GL268282  44.539  37.375   5.911
 5280POPC   C1A68283  44.266  37.717   6.279
 5280POPC   D2A68284  44.618  37.655   6.577
 5280POPC   C3A68285  44.594  37.749   7.009
 5280POPC   C4A68286  44.885  37.820   7.342
 5280POPC   C1B68287  44.324  37.210   6.284
 5280POPC   C2B68288  44.335  37.255   6.748
 5280POPC   C3B68289  44.672  37.218   7.051
 5280POPC   C4B68290   0.068  37.331   7.261
 5281POPC   NC368291   0.273  14.398   5.340
 5281POPC   PO468292   0.383  13.741   5.271
 5281POPC   GL168293   0.476  14.015   5.655
 5281POPC   GL268294   0.158  14.200   5.787
 5281POPC   C1A68295   0.596  14.338   5.998
 5281POPC   D2A68296   0.494  14.595   6.367
 5281POPC   C3A68297   0.504  14.452   6.801
 5281POPC   C4A68298   0.423  14.544   7.245
 5281POPC   C1B68299   0.069  14.553   6.082
 5281POPC   C2B68300   0.011  14.526   6.561
 5281POPC   C3B68301   0.032  14.284   6.967
 5281POPC   C4B68302   0.378  14.055   7.155
 5282POPC   NC368303   8.598  37.369   5.568
 5282POPC   PO468304   8.967  37.767   5.239
 5282POPC   GL168305   9.079  37.653   5.721
 5282POPC   GL268306   9.007  37.921   5.932
 5282POPC   C1A68307   9.302  37.603   6.184
 5282POPC   D2A68308   9.472  37.830   6.570
 5282POPC   C3A68309   9.232  37.671   6.899
 5282POPC   C4A68310   8.966  37.394   7.127
 5282POPC   C1B68311   8.771  37.603   6.218
 5282POPC   C2B68312   8.655  37.566   6.684
 5282POPC   C3B68313   8.532  37.678   7.111
 5282POPC   C4B68314   8.709  37.622   7.541
 5283POPC   NC368315  32.636  37.161   5.694
 5283POPC   PO468316  33.268  37.587   5.505
 5283POPC   GL168317  33.239  37.588   5.936
 5283POPC   GL268318  32.877  37.583   5.839
 5283POPC   C1A68319  33.493  37.620   6.320
 5283POPC   D2A68320  33.269  37.828   6.633
 5283POPC   C3A68321  33.137  37.732   7.073
 5283POPC   C4A68322  32.748  37.889   7.242
 5283POPC   C1B68323  32.849  37.433   6.271
 5283POPC   C2B68324  32.944  37.437   6.695
 5283POPC   C3B68325  32.725  37.324   7.048
 5283POPC   C4B68326  32.595  36.910   7.047
 5284POPC   NC368327  12.975  10.102   5.397
 5284POPC   PO468328  12.736   9.507   5.187
 5284POPC   GL168329  12.757   9.591   5.627
 5284POPC   GL268330  13.114   9.580   5.725
 5284POPC   C1A68331  12.749   9.444   6.067
 5284POPC   D2A68332  12.954   9.536   6.464
 5284POPC   C3A68333  12.686   9.554   6.829
 5284POPC   C4A68334  12.843   9.533   7.231
 5284POPC   C1B68335  12.977   9.912   6.059
 5284POPC   C2B68336  13.014  10.042   6.518
 5284POPC   C3B68337  12.904  10.004   6.956
 5284POPC   C4B68338  13.197   9.905   7.276
 5285POPC   NC368339  39.247  34.884   5.348
 5285POPC   PO468340  39.191  35.602   5.312
 5285POPC   GL168341  39.298  35.623   5.826
 5285POPC   GL268342  39.074  35.327   5.965
 5285POPC   C1A68343  39.429  35.489   6.261
 5285POPC   D2A68344  39.114  35.400   6.597
 5285POPC   C3A68345  39.322  35.508   6.986
 5285POPC   C4A68346  39.328  35.426   7.428
 5285POPC   C1B68347  39.150  35.010   6.250
 5285POPC   C2B68348  39.130  34.780   6.642
 5285POPC   C3B68349  39.216  34.956   7.091
 5285POPC   C4B68350  39.146  34.985   7.579
 5286POPC   NC368351   6.669   0.122   5.381
 5286POPC   PO468352   6.380   0.768   5.390
 5286POPC   GL168353   6.479   0.434   5.742
 5286POPC   GL268354   6.253   0.127   5.728
 5286POPC   C1A68355   6.684   0.117   6.050
 5286POPC   D2A68356   6.977  44.994   6.391
 5286POPC   C3A68357   6.984   0.207   6.805
 5286POPC   C4A68358   6.822   0.140   7.241
 5286POPC   C1B68359   6.205   0.308   6.164
 5286POPC   C2B68360   6.534   0.414   6.451
 5286POPC   C3B68361   6.515   0.358   6.886
 5286POPC   C4B68362   6.721   0.678   7.146
 5287POPC   NC368363   7.396  31.982   5.213
 5287POPC   PO468364   7.775  32.545   5.207
 5287POPC   GL168365   7.625  32.361   5.672
 5287POPC   GL268366   7.339  32.107   5.735
 5287POPC   C1A68367   7.494  32.385   6.157
 5287POPC   D2A68368   7.295  32.245   6.565
 5287POPC   C3A68369   7.521  32.248   6.946
 5287POPC   C4A68370   7.610  32.517   7.276
 5287POPC   C1B68371   7.129  31.995   6.165
 5287POPC   C2B68372   6.953  31.865   6.576
 5287POPC   C3B68373   6.998  32.099   6.963
 5287POPC   C4B68374   7.210  32.112   7.359
 5288POPC   NC368375  25.420  24.857   5.591
 5288POPC   PO468376  25.212  24.409   5.161
 5288POPC   GL168377  25.280  24.363   5.656
 5288POPC   GL268378  25.114  24.055   5.695
 5288POPC   C1A68379  25.446  24.490   6.109
 5288POPC   D2A68380  25.458  24.400   6.561
 5288POPC   C3A68381  25.403  24.693   6.915
 5288POPC   C4A68382  25.236  24.685   7.340
 5288POPC   C1B68383  25.323  23.998   6.100
 5288POPC   C2B68384  25.247  23.904   6.539
 5288POPC   C3B68385  25.280  24.114   6.946
 5288POPC   C4B68386  25.367  24.205   7.364
 5289POPC   NC368387  24.316  20.904   5.366
 5289POPC   PO468388  24.475  20.270   5.492
 5289POPC   GL168389  24.676  20.562   5.733
 5289POPC   GL268390  24.806  20.335   5.964
 5289POPC   C1A68391  24.681  20.856   6.085
 5289POPC   D2A68392  24.758  20.939   6.546
 5289POPC   C3A68393  24.412  20.936   6.857
 5289POPC   C4A68394  24.310  20.676   7.227
 5289POPC   C1B68395  24.371  20.444   6.154
 5289POPC   C2B68396  24.260  20.506   6.578
 5289POPC   C3B68397  24.634  20.486   6.823
 5289POPC   C4B68398  24.761  20.269   7.160
 5290POPC   NC368399   9.479  35.597   5.478
 5290POPC   PO468400   9.870  34.971   5.480
 5290POPC   GL168401   9.960  35.175   5.887
 5290POPC   GL268402   9.719  35.483   5.952
 5290POPC   C1A68403   9.963  35.206   6.336
 5290POPC   D2A68404   9.585  35.380   6.548
 5290POPC   C3A68405   9.604  35.289   6.969
 5290POPC   C4A68406   9.982  35.414   7.116
 5290POPC   C1B68407   9.344  35.679   6.183
 5290POPC   C2B68408   9.308  35.823   6.627
 5290POPC   C3B68409   9.530  35.814   7.041
 5290POPC   C4B68410   9.503  35.530   7.417
 5291POPC   NC368411   4.394  42.970   5.169
 5291POPC   PO468412   4.140  43.409   5.644
 5291POPC   GL168413   4.412  43.210   5.912
 5291POPC   GL268414   4.391  42.864   5.816
 5291POPC   C1A68415   4.441  43.176   6.372
 5291POPC   D2A68416   4.212  43.212   6.783
 5291POPC   C3A68417   4.422  43.264   7.192
 5291POPC   C4A68418   4.268  43.282   7.599
 5291POPC   C1B68419   4.140  42.781   6.177
 5291POPC   C2B68420   4.297  42.716   6.580
 5291POPC   C3B68421   4.517  42.825   6.943
 5291POPC   C4B68422   4.345  42.806   7.382
 5292POPC   NC368423   9.190  43.852   5.304
 5292POPC   PO468424   8.530  43.806   5.256
 5292POPC   GL168425   8.650  43.902   5.753
 5292POPC   GL268426   8.978  43.742   5.772
 5292POPC   C1A68427   8.757  43.919   6.271
 5292POPC   D2A68428   9.018  44.125   6.688
 5292POPC   C3A68429   9.074  43.961   7.095
 5292POPC   C4A68430   8.886  43.588   7.290
 5292POPC   C1B68431   9.215  43.720   6.153
 5292POPC   C2B68432   9.061  43.632   6.572
 5292POPC   C3B68433   9.256  43.519   6.928
 5292POPC   C4B68434   9.496  43.653   7.277
 5293POPC   NC368435   7.031  21.730   5.558
 5293POPC   PO468436   7.645  21.500   5.339
 5293POPC   GL168437   7.550  21.305   5.731
 5293POPC   GL268438   7.192  21.300   5.772
 5293POPC   C1A68439   7.488  21.469   6.159
 5293POPC   D2A68440   7.452  21.275   6.551
 5293POPC   C3A68441   7.616  21.356   6.955
 5293POPC   C4A68442   7.375  21.427   7.352
 5293POPC   C1B68443   7.053  21.205   6.191
 5293POPC   C2B68444   7.006  21.003   6.588
 5293POPC   C3B68445   7.095  21.234   6.939
 5293POPC   C4B68446   6.851  21.401   7.262
 5294POPC   NC368447  20.171  39.511   5.443
 5294POPC   PO468448  19.867  40.111   5.211
 5294POPC   GL168449  19.742  40.057   5.681
 5294POPC   GL268450  19.611  40.381   5.821
 5294POPC   C1A68451  19.661  39.915   6.139
 5294POPC   D2A68452  19.585  40.026   6.592
 5294POPC   C3A68453  19.893  39.807   6.926
 5294POPC   C4A68454  19.781  39.905   7.364
 5294POPC   C1B68455  19.938  40.348   6.152
 5294POPC   C2B68456  19.906  40.422   6.598
 5294POPC   C3B68457  19.768  40.296   7.010
 5294POPC   C4B68458  20.045  40.342   7.346
 5295POPC   NC368459  22.827  32.663   5.424
 5295POPC   PO468460  22.660  33.362   5.270
 5295POPC   GL168461  22.713  33.180   5.733
 5295POPC   GL268462  23.031  33.027   5.789
 5295POPC   C1A68463  22.780  33.198   6.223
 5295POPC   D2A68464  22.995  33.130   6.662
 5295POPC   C3A68465  22.696  33.158   7.028
 5295POPC   C4A68466  22.645  33.193   7.501
 5295POPC   C1B68467  23.153  32.833   6.207
 5295POPC   C2B68468  23.237  32.662   6.636
 5295POPC   C3B68469  22.950  32.688   7.029
 5295POPC   C4B68470  22.797  32.711   7.495
 5296POPC   NC368471  27.987  31.711   5.425
 5296POPC   PO468472  28.565  31.362   5.289
 5296POPC   GL168473  28.498  31.439   5.718
 5296POPC   GL268474  28.159  31.316   5.724
 5296POPC   C1A68475  28.597  31.579   6.147
 5296POPC   D2A68476  28.662  31.748   6.547
 5296POPC   C3A68477  28.453  31.508   6.852
 5296POPC   C4A68478  28.416  31.359   7.271
 5296POPC   C1B68479  28.236  31.223   6.146
 5296POPC   C2B68480  28.181  31.108   6.586
 5296POPC   C3B68481  27.985  31.321   6.915
 5296POPC   C4B68482  27.900  31.281   7.348
 5297POPC   NC368483  30.182  23.158   5.450
 5297POPC   PO468484  30.374  22.475   5.508
 5297POPC   GL168485  30.088  22.737   5.747
 5297POPC   GL268486  29.768  22.650   5.897
 5297POPC   C1A68487  30.092  23.053   6.081
 5297POPC   D2A68488  30.204  23.031   6.502
 5297POPC   C3A68489  29.886  22.969   6.835
 5297POPC   C4A68490  29.995  22.990   7.271
 5297POPC   C1B68491  29.677  22.856   6.288
 5297POPC   C2B68492  29.512  22.633   6.612
 5297POPC   C3B68493  29.472  22.517   7.003
 5297POPC   C4B68494  29.517  22.790   7.332
 5298POPC   NC368495  15.428  25.376   5.281
 5298POPC   PO468496  15.093  24.972   5.566
 5298POPC   GL168497  15.206  25.240   5.881
 5298POPC   GL268498  15.171  25.583   5.716
 5298POPC   C1A68499  15.247  25.149   6.345
 5298POPC   D2A68500  15.144  25.313   6.751
 5298POPC   C3A68501  15.350  25.134   7.083
 5298POPC   C4A68502  15.140  24.918   7.447
 5298POPC   C1B68503  14.923  25.621   6.096
 5298POPC   C2B68504  14.751  25.522   6.506
 5298POPC   C3B68505  14.695  25.491   6.956
 5298POPC   C4B68506  14.982  25.425   7.277
 5299POPC   NC368507   4.563  43.552   5.483
 5299POPC   PO468508   5.260  43.699   5.362
 5299POPC   GL168509   5.172  43.786   5.807
 5299POPC   GL268510   4.806  43.813   5.860
 5299POPC   C1A68511   5.123  43.800   6.285
 5299POPC   D2A68512   5.045  43.882   6.744
 5299POPC   C3A68513   5.252  43.726   7.136
 5299POPC   C4A68514   5.176  43.727   7.608
 5299POPC   C1B68515   4.567  43.698   6.232
 5299POPC   C2B68516   4.646  43.549   6.670
 5299POPC   C3B68517   4.737  43.642   7.118
 5299POPC   C4B68518   4.663  43.600   7.580
 5300POPC   NC368519   1.454  19.421   5.478
 5300POPC   PO468520   1.300  18.820   5.366
 5300POPC   GL168521   1.257  19.069   5.783
 5300POPC   GL268522   0.965  19.193   5.960
 5300POPC   C1A68523   1.458  19.107   6.167
 5300POPC   D2A68524   1.474  18.911   6.553
 5300POPC   C3A68525   1.500  19.105   6.945
 5300POPC   C4A68526   1.563  19.373   7.271
 5300POPC   C1B68527   0.973  18.911   6.318
 5300POPC   C2B68528   0.965  18.913   6.774
 5300POPC   C3B68529   1.062  19.015   7.212
 5300POPC   C4B68530   1.184  18.746   7.569
 5301POPC   NC368531  28.814  14.926   5.441
 5301POPC   PO468532  29.257  15.287   5.091
 5301POPC   GL168533  29.179  15.299   5.595
 5301POPC   GL268534  28.833  15.362   5.748
 5301POPC   C1A68535  29.295  15.234   6.055
 5301POPC   D2A68536  29.434  15.404   6.468
 5301POPC   C3A68537  29.418  15.173   6.869
 5301POPC   C4A68538  29.306  15.142   7.338
 5301POPC   C1B68539  28.816  15.091   6.140
 5301POPC   C2B68540  29.093  14.949   6.521
 5301POPC   C3B68541  28.974  14.945   6.990
 5301POPC   C4B68542  28.762  14.627   7.295
 5302POPC   NC368543  37.132   6.690   5.456
 5302POPC   PO468544  36.616   7.043   5.646
 5302POPC   GL168545  36.979   6.833   5.901
 5302POPC   GL268546  37.097   6.439   5.887
 5302POPC   C1A68547  37.171   6.789   6.283
 5302POPC   D2A68548  36.943   6.934   6.649
 5302POPC   C3A68549  36.746   6.746   6.984
 5302POPC   C4A68550  36.824   7.021   7.324
 5302POPC   C1B68551  37.139   6.251   6.288
 5302POPC   C2B68552  37.160   6.457   6.681
 5302POPC   C3B68553  37.217   6.613   7.088
 5302POPC   C4B68554  37.324   6.373   7.453
 5303POPC   NC368555  13.200  20.872   5.381
 5303POPC   PO468556  13.707  20.447   5.348
 5303POPC   GL168557  13.564  20.602   5.750
 5303POPC   GL268558  13.287  20.404   5.875
 5303POPC   C1A68559  13.678  20.562   6.198
 5303POPC   D2A68560  13.881  20.737   6.582
 5303POPC   C3A68561  13.717  20.681   6.945
 5303POPC   C4A68562  13.831  20.670   7.341
 5303POPC   C1B68563  13.173  20.413   6.312
 5303POPC   C2B68564  13.400  20.354   6.706
 5303POPC   C3B68565  13.443  20.334   7.179
 5303POPC   C4B68566  13.161  20.303   7.584
 5304POPC   NC368567   4.429  28.547   5.507
 5304POPC   PO468568   4.533  27.880   5.721
 5304POPC   GL168569   4.297  28.217   5.893
 5304POPC   GL268570   3.974  28.187   5.722
 5304POPC   C1A68571   4.324  28.477   6.287
 5304POPC   D2A68572   4.590  28.601   6.639
 5304POPC   C3A68573   4.483  28.614   7.060
 5304POPC   C4A68574   4.479  28.202   7.231
 5304POPC   C1B68575   3.854  28.365   6.130
 5304POPC   C2B68576   3.823  28.462   6.555
 5304POPC   C3B68577   4.044  28.377   6.924
 5304POPC   C4B68578   4.080  28.488   7.361
 5305POPC   NC368579  27.290  16.846   5.037
 5305POPC   PO468580  27.811  16.485   5.414
 5305POPC   GL168581  27.689  16.405   5.839
 5305POPC   GL268582  27.471  16.698   5.840
 5305POPC   C1A68583  27.834  16.300   6.262
 5305POPC   D2A68584  28.007  16.643   6.502
 5305POPC   C3A68585  27.819  16.812   6.873
 5305POPC   C4A68586  27.944  16.737   7.282
 5305POPC   C1B68587  27.487  16.668   6.290
 5305POPC   C2B68588  27.510  16.435   6.680
 5305POPC   C3B68589  27.339  16.633   7.044
 5305POPC   C4B68590  27.442  16.866   7.421
 5306POPC   NC368591  36.535  11.489   5.510
 5306POPC   PO468592  37.063  11.115   5.456
 5306POPC   GL168593  36.934  11.330   5.809
 5306POPC   GL268594  36.662  11.121   5.844
 5306POPC   C1A68595  36.965  11.486   6.235
 5306POPC   D2A68596  37.188  11.293   6.568
 5306POPC   C3A68597  37.223  11.368   6.978
 5306POPC   C4A68598  37.247  11.159   7.380
 5306POPC   C1B68599  36.541  11.084   6.239
 5306POPC   C2B68600  36.634  11.285   6.588
 5306POPC   C3B68601  36.706  11.239   6.995
 5306POPC   C4B68602  36.410  11.000   7.237
 5307POPC   NC368603  41.828  33.007   5.125
 5307POPC   PO468604  41.371  32.737   5.641
 5307POPC   GL168605  41.509  32.814   6.013
 5307POPC   GL268606  41.579  33.158   5.937
 5307POPC   C1A68607  41.322  33.011   6.348
 5307POPC   D2A68608  41.272  33.058   6.743
 5307POPC   C3A68609  41.532  32.823   6.985
 5307POPC   C4A68610  41.839  32.697   7.280
 5307POPC   C1B68611  41.761  33.424   6.243
 5307POPC   C2B68612  41.743  33.250   6.653
 5307POPC   C3B68613  41.850  33.189   7.074
 5307POPC   C4B68614  41.616  33.145   7.440
 5308POPC   NC368615   0.613  37.057   5.627
 5308POPC   PO468616   0.458  36.490   5.209
 5308POPC   GL168617   0.402  36.577   5.715
 5308POPC   GL268618   0.089  36.430   5.867
 5308POPC   C1A68619   0.564  36.737   6.178
 5308POPC   D2A68620   0.677  37.077   6.458
 5308POPC   C3A68621   0.542  37.058   6.885
 5308POPC   C4A68622   0.629  36.767   7.196
 5308POPC   C1B68623   0.150  36.514   6.327
 5308POPC   C2B68624   0.396  36.583   6.709
 5308POPC   C3B68625   0.250  36.422   7.098
 5308POPC   C4B68626   0.275  36.483   7.532
 5309POPC   NC368627  18.430   8.525   5.197
 5309POPC   PO468628  17.938   8.074   5.026
 5309POPC   GL168629  18.102   8.112   5.500
 5309POPC   GL268630  18.466   8.165   5.634
 5309POPC   C1A68631  18.080   8.197   5.992
 5309POPC   D2A68632  18.133   7.969   6.433
 5309POPC   C3A68633  18.243   8.211   6.815
 5309POPC   C4A68634  18.090   8.248   7.244
 5309POPC   C1B68635  18.547   8.028   6.101
 5309POPC   C2B68636  18.660   7.969   6.562
 5309POPC   C3B68637  18.603   7.855   7.012
 5309POPC   C4B68638  18.196   7.734   7.154
 5310POPC   NC368639  19.613  12.793   5.349
 5310POPC   PO468640  20.137  13.071   5.530
 5310POPC   GL168641  19.967  12.740   5.794
 5310POPC   GL268642  19.622  12.595   5.810
 5310POPC   C1A68643  19.875  12.819   6.213
 5310POPC   D2A68644  20.140  12.862   6.542
 5310POPC   C3A68645  20.080  12.573   6.826
 5310POPC   C4A68646  20.035  12.802   7.190
 5310POPC   C1B68647  19.383  12.852   6.048
 5310POPC   C2B68648  19.436  13.038   6.433
 5310POPC   C3B68649  19.647  12.887   6.781
 5310POPC   C4B68650  19.554  12.997   7.173
 5311POPC   NC368651  35.666  20.590   5.346
 5311POPC   PO468652  36.281  20.544   5.236
 5311POPC   GL168653  36.075  20.551   5.680
 5311POPC   GL268654  36.066  20.232   5.874
 5311POPC   C1A68655  36.036  20.743   6.112
 5311POPC   D2A68656  36.335  20.833   6.469
 5311POPC   C3A68657  36.230  20.990   6.856
 5311POPC   C4A68658  36.354  20.807   7.273
 5311POPC   C1B68659  36.417  20.365   6.121
 5311POPC   C2B68660  36.583  20.387   6.543
 5311POPC   C3B68661  36.335  20.451   6.889
 5311POPC   C4B68662  36.201  20.162   7.167
 5312POPC   NC368663  15.376  10.264   5.596
 5312POPC   PO468664  15.005  10.630   5.070
 5312POPC   GL168665  14.954  10.546   5.592
 5312POPC   GL268666  15.204  10.733   5.818
 5312POPC   C1A68667  15.005  10.327   6.077
 5312POPC   D2A68668  15.334  10.297   6.416
 5312POPC   C3A68669  15.221  10.329   6.856
 5312POPC   C4A68670  15.261  10.490   7.264
 5312POPC   C1B68671  15.184  10.773   6.299
 5312POPC   C2B68672  15.217  10.827   6.744
 5312POPC   C3B68673  15.444  10.954   7.091
 5312POPC   C4B68674  15.321  11.258   7.392
 5313POPC   NC368675  21.955  17.507   5.173
 5313POPC   PO468676  22.566  17.674   5.425
 5313POPC   GL168677  22.326  17.626   5.799
 5313POPC   GL268678  22.119  17.329   5.701
 5313POPC   C1A68679  22.163  17.768   6.195
 5313POPC   D2A68680  21.838  17.646   6.492
 5313POPC   C3A68681  21.953  17.644   6.922
 5313POPC   C4A68682  22.328  17.704   7.137
 5313POPC   C1B68683  22.127  17.232   6.163
 5313POPC   C2B68684  22.287  17.032   6.553
 5313POPC   C3B68685  22.210  17.177   6.996
 5313POPC   C4B68686  22.120  17.020   7.425
 5314POPC   NC368687   2.820  22.295   5.199
 5314POPC   PO468688   3.255  21.931   5.644
 5314POPC   GL168689   2.881  22.220   5.717
 5314POPC   GL268690   2.511  22.128   5.633
 5314POPC   C1A68691   2.743  22.348   6.124
 5314POPC   D2A68692   2.859  22.139   6.520
 5314POPC   C3A68693   2.726  22.350   6.873
 5314POPC   C4A68694   2.854  22.634   7.172
 5314POPC   C1B68695   2.535  21.874   6.037
 5314POPC   C2B68696   2.611  21.678   6.477
 5314POPC   C3B68697   2.583  21.834   6.901
 5314POPC   C4B68698   2.729  22.008   7.270
 5315POPC   NC368699  41.192  43.095   5.623
 5315POPC   PO468700  41.799  42.891   5.620
 5315POPC   GL168701  41.566  43.013   5.977
 5315POPC   GL268702  41.237  42.834   6.058
 5315POPC   C1A68703  41.527  43.214   6.361
 5315POPC   D2A68704  41.241  43.278   6.697
 5315POPC   C3A68705  41.483  43.342   7.050
 5315POPC   C4A68706  41.309  43.333   7.411
 5315POPC   C1B68707  41.533  42.711   6.393
 5315POPC   C2B68708  41.633  42.906   6.785
 5315POPC   C3B68709  41.507  42.845   7.198
 5315POPC   C4B68710  41.778  42.623   7.477
 5316POPC   NC368711  24.940  33.115   5.024
 5316POPC   PO468712  25.292  32.949   5.576
 5316POPC   GL168713  25.336  33.261   5.866
 5316POPC   GL268714  25.030  33.296   5.883
 5316POPC   C1A68715  25.439  33.151   6.246
 5316POPC   D2A68716  25.342  32.834   6.503
 5316POPC   C3A68717  25.414  32.985   6.892
 5316POPC   C4A68718  25.602  32.915   7.263
 5316POPC   C1B68719  24.920  33.232   6.284
 5316POPC   C2B68720  25.124  33.331   6.642
 5316POPC   C3B68721  25.041  33.268   7.073
 5316POPC   C4B68722  24.757  33.275   7.442
 5317POPC   NC368723  23.118  40.873   5.432
 5317POPC   PO468724  22.703  40.406   5.441
 5317POPC   GL168725  22.854  40.630   5.840
 5317POPC   GL268726  23.253  40.635   5.863
 5317POPC   C1A68727  22.680  40.769   6.263
 5317POPC   D2A68728  22.675  40.561   6.665
 5317POPC   C3A68729  22.835  40.798   7.023
 5317POPC   C4A68730  22.831  40.708   7.470
 5317POPC   C1B68731  23.131  40.998   6.125
 5317POPC   C2B68732  23.087  41.112   6.558
 5317POPC   C3B68733  23.225  41.154   6.973
 5317POPC   C4B68734  23.311  40.804   7.236
 5318POPC   NC368735  25.677  40.862   5.635
 5318POPC   PO468736  26.319  40.626   5.500
 5318POPC   GL168737  26.099  40.657   5.915
 5318POPC   GL268738  25.774  40.659   6.077
 5318POPC   C1A68739  26.188  40.733   6.371
 5318POPC   D2A68740  26.483  40.865   6.696
 5318POPC   C3A68741  26.260  40.803   7.074
 5318POPC   C4A68742  25.886  40.612   7.198
 5318POPC   C1B68743  25.771  41.034   6.324
 5318POPC   C2B68744  25.801  41.084   6.783
 5318POPC   C3B68745  25.817  41.117   7.236
 5318POPC   C4B68746  25.705  40.940   7.646
 5319POPC   NC368747  12.682  10.734   5.346
 5319POPC   PO468748  13.283  10.487   5.351
 5319POPC   GL168749  12.974  10.505   5.734
 5319POPC   GL268750  12.695  10.693   5.866
 5319POPC   C1A68751  12.968  10.452   6.214
 5319POPC   D2A68752  12.658  10.422   6.589
 5319POPC   C3A68753  12.864  10.522   6.970
 5319POPC   C4A68754  13.255  10.395   7.117
 5319POPC   C1B68755  12.613  10.840   6.294
 5319POPC   C2B68756  12.390  11.040   6.608
 5319POPC   C3B68757  12.419  10.773   6.904
 5319POPC   C4B68758  12.557  10.761   7.329
 5320POPC   NC368759  33.296  27.735   5.556
 5320POPC   PO468760  32.980  28.379   5.431
 5320POPC   GL168761  33.025  28.149   5.778
 5320POPC   GL268762  32.708  28.055   5.911
 5320POPC   C1A68763  33.058  28.375   6.171
 5320POPC   D2A68764  33.183  28.607   6.554
 5320POPC   C3A68765  32.986  28.437   6.921
 5320POPC   C4A68766  33.026  28.439   7.351
 5320POPC   C1B68767  32.655  28.105   6.372
 5320POPC   C2B68768  32.586  28.103   6.829
 5320POPC   C3B68769  32.676  28.080   7.283
 5320POPC   C4B68770  32.847  28.151   7.737
 5321POPC   NC368771  35.025  10.700   5.362
 5321POPC   PO468772  35.205  10.110   5.340
 5321POPC   GL168773  35.184  10.297   5.755
 5321POPC   GL268774  35.218  10.656   5.824
 5321POPC   C1A68775  35.390  10.288   6.166
 5321POPC   D2A68776  35.537  10.629   6.456
 5321POPC   C3A68777  35.563  10.485   6.875
 5321POPC   C4A68778  35.297  10.246   7.157
 5321POPC   C1B68779  35.030  10.641   6.231
 5321POPC   C2B68780  35.090  10.840   6.645
 5321POPC   C3B68781  35.128  10.747   7.108
 5321POPC   C4B68782  35.159  10.620   7.539
 5322POPC   NC368783  18.097  12.305   5.444
 5322POPC   PO468784  17.894  11.703   5.760
 5322POPC   GL168785  18.144  12.007   6.001
 5322POPC   GL268786  18.412  12.220   5.874
 5322POPC   C1A68787  18.475  11.931   6.318
 5322POPC   D2A68788  18.522  11.783   6.746
 5322POPC   C3A68789  18.377  12.076   7.049
 5322POPC   C4A68790  18.048  12.136   7.413
 5322POPC   C1B68791  18.354  12.552   6.215
 5322POPC   C2B68792  18.289  12.663   6.681
 5322POPC   C3B68793  18.280  12.561   7.155
 5322POPC   C4B68794  18.526  12.315   7.463
 5323POPC   NC368795   3.051  30.289   5.487
 5323POPC   PO468796   2.618  29.710   5.509
 5323POPC   GL168797   2.854  29.740   5.885
 5323POPC   GL268798   2.908  30.090   5.942
 5323POPC   C1A68799   2.964  29.738   6.342
 5323POPC   D2A68800   2.905  30.096   6.662
 5323POPC   C3A68801   2.887  29.953   7.116
 5323POPC   C4A68802   2.898  29.523   7.300
 5323POPC   C1B68803   2.562  30.020   6.214
 5323POPC   C2B68804   2.390  30.179   6.555
 5323POPC   C3B68805   2.413  30.100   6.967
 5323POPC   C4B68806   2.434  29.791   7.292
 5324POPC   NC368807   2.317  38.829   5.654
 5324POPC   PO468808   1.979  39.392   5.486
 5324POPC   GL168809   1.923  39.109   5.820
 5324POPC   GL268810   1.947  39.374   6.004
 5324POPC   C1A68811   1.771  38.978   6.257
 5324POPC   D2A68812   1.644  39.141   6.651
 5324POPC   C3A68813   1.857  39.110   7.006
 5324POPC   C4A68814   1.902  39.304   7.352
 5324POPC   C1B68815   2.261  39.175   6.224
 5324POPC   C2B68816   2.191  39.085   6.619
 5324POPC   C3B68817   2.368  39.177   6.979
 5324POPC   C4B68818   2.337  39.050   7.383
 5325POPC   NC368819  33.576   8.422   5.118
 5325POPC   PO468820  34.003   8.014   5.427
 5325POPC   GL168821  33.848   8.144   5.829
 5325POPC   GL268822  33.946   8.483   5.888
 5325POPC   C1A68823  33.714   7.904   6.215
 5325POPC   D2A68824  33.609   8.008   6.665
 5325POPC   C3A68825  33.953   7.994   6.964
 5325POPC   C4A68826  34.085   8.340   7.246
 5325POPC   C1B68827  33.727   8.428   6.270
 5325POPC   C2B68828  33.434   8.498   6.591
 5325POPC   C3B68829  33.638   8.462   6.991
 5325POPC   C4B68830  33.571   8.411   7.435
 5326POPC   NC368831  28.071  32.372   5.719
 5326POPC   PO468832  27.537  31.962   5.526
 5326POPC   GL168833  27.541  32.271   5.843
 5326POPC   GL268834  27.795  32.071   6.009
 5326POPC   C1A68835  27.615  32.466   6.257
 5326POPC   D2A68836  27.903  32.315   6.587
 5326POPC   C3A68837  27.755  32.425   6.988
 5326POPC   C4A68838  27.616  32.804   7.152
 5326POPC   C1B68839  27.482  31.944   6.255
 5326POPC   C2B68840  27.415  32.158   6.630
 5326POPC   C3B68841  27.518  31.969   6.985
 5326POPC   C4B68842  27.397  31.888   7.345
 5327POPC   NC368843  14.910  27.140   5.377
 5327POPC   PO468844  14.784  26.461   5.270
 5327POPC   GL168845  15.097  26.627   5.592
 5327POPC   GL268846  14.993  26.920   5.822
 5327POPC   C1A68847  15.224  26.487   6.026
 5327POPC   D2A68848  15.135  26.304   6.468
 5327POPC   C3A68849  15.299  26.486   6.839
 5327POPC   C4A68850  15.266  26.637   7.245
 5327POPC   C1B68851  15.153  26.962   6.238
 5327POPC   C2B68852  15.015  26.865   6.664
 5327POPC   C3B68853  14.998  27.047   7.087
 5327POPC   C4B68854  15.268  27.152   7.442
 5328POPC   NC368855  23.923  35.276   5.417
 5328POPC   PO468856  23.294  35.470   5.454
 5328POPC   GL168857  23.598  35.625   5.776
 5328POPC   GL268858  23.924  35.467   5.873
 5328POPC   C1A68859  23.634  35.656   6.229
 5328POPC   D2A68860  23.355  35.640   6.586
 5328POPC   C3A68861  23.572  35.686   6.966
 5328POPC   C4A68862  23.607  35.504   7.365
 5328POPC   C1B68863  24.095  35.376   6.263
 5328POPC   C2B68864  23.942  35.472   6.645
 5328POPC   C3B68865  23.803  35.236   6.961
 5328POPC   C4B68866  23.783  35.046   7.362
 5329POPC   NC368867   4.383  13.272   5.521
 5329POPC   PO468868   4.566  13.881   5.349
 5329POPC   GL168869   4.530  13.789   5.782
 5329POPC   GL268870   4.195  13.679   5.793
 5329POPC   C1A68871   4.540  13.618   6.211
 5329POPC   D2A68872   4.771  13.728   6.576
 5329POPC   C3A68873   4.603  13.625   6.946
 5329POPC   C4A68874   4.520  13.536   7.333
 5329POPC   C1B68875   4.035  13.736   6.200
 5329POPC   C2B68876   4.184  13.644   6.627
 5329POPC   C3B68877   4.109  13.400   7.016
 5329POPC   C4B68878   3.763  13.212   7.258
 5330POPC   NC368879  42.908  28.146   5.539
 5330POPC   PO468880  43.534  28.361   5.419
 5330POPC   GL168881  43.333  28.303   5.815
 5330POPC   GL268882  43.092  28.574   5.797
 5330POPC   C1A68883  43.012  28.187   6.152
 5330POPC   D2A68884  42.846  28.373   6.482
 5330POPC   C3A68885  43.104  28.336   6.824
 5330POPC   C4A68886  43.108  28.369   7.261
 5330POPC   C1B68887  43.256  28.636   6.221
 5330POPC   C2B68888  43.109  28.823   6.604
 5330POPC   C3B68889  43.299  28.774   7.010
 5330POPC   C4B68890  43.404  28.743   7.459
 5331POPC   NC368891  12.673  11.447   5.137
 5331POPC   PO468892  12.609  11.958   5.636
 5331POPC   GL168893  12.769  11.734   6.009
 5331POPC   GL268894  13.083  11.537   5.973
 5331POPC   C1A68895  12.584  11.780   6.391
 5331POPC   D2A68896  12.375  12.073   6.655
 5331POPC   C3A68897  12.672  12.357   6.846
 5331POPC   C4A68898  12.956  12.273   7.181
 5331POPC   C1B68899  13.100  11.775   6.391
 5331POPC   C2B68900  12.906  11.881   6.804
 5331POPC   C3B68901  13.143  11.797   7.166
 5331POPC   C4B68902  13.550  11.938   7.284
 5332POPC   NC368903  26.575   7.902   5.484
 5332POPC   PO468904  26.970   8.488   5.391
 5332POPC   GL168905  26.884   8.327   5.781
 5332POPC   GL268906  26.863   8.675   5.903
 5332POPC   C1A68907  26.893   7.987   6.136
 5332POPC   D2A68908  26.835   7.750   6.554
 5332POPC   C3A68909  26.806   7.962   6.955
 5332POPC   C4A68910  27.022   8.171   7.267
 5332POPC   C1B68911  26.669   8.435   6.216
 5332POPC   C2B68912  26.761   8.291   6.579
 5332POPC   C3B68913  26.737   8.488   6.969
 5332POPC   C4B68914  26.424   8.425   7.241
 5333POPC   NC368915  30.708   8.243   5.423
 5333POPC   PO468916  31.191   7.801   5.461
 5333POPC   GL168917  30.849   7.902   5.787
 5333POPC   GL268918  30.469   7.829   5.702
 5333POPC   C1A68919  30.877   8.260   6.111
 5333POPC   D2A68920  30.807   8.528   6.480
 5333POPC   C3A68921  30.729   8.353   6.876
 5333POPC   C4A68922  30.867   8.355   7.309
 5333POPC   C1B68923  30.391   8.162   6.032
 5333POPC   C2B68924  30.501   8.110   6.468
 5333POPC   C3B68925  30.256   8.130   6.848
 5333POPC   C4B68926  30.416   8.170   7.223
 5334POPC   NC368927  30.106   5.720   5.359
 5334POPC   PO468928  29.579   6.002   5.235
 5334POPC   GL168929  29.700   6.099   5.683
 5334POPC   GL268930  29.547   5.868   5.942
 5334POPC   C1A68931  30.015   6.044   6.015
 5334POPC   D2A68932  30.034   5.753   6.376
 5334POPC   C3A68933  29.942   5.923   6.795
 5334POPC   C4A68934  29.895   5.770   7.231
 5334POPC   C1B68935  29.599   6.107   6.350
 5334POPC   C2B68936  29.487   6.205   6.792
 5334POPC   C3B68937  29.567   6.234   7.243
 5334POPC   C4B68938  29.478   6.353   7.700
 5335POPC   NC368939  14.861  30.002   5.533
 5335POPC   PO468940  15.476  29.713   5.437
 5335POPC   GL168941  15.338  29.907   5.807
 5335POPC   GL268942  15.096  29.639   5.820
 5335POPC   C1A68943  15.358  30.074   6.252
 5335POPC   D2A68944  15.223  29.822   6.634
 5335POPC   C3A68945  15.311  29.746   7.069
 5335POPC   C4A68946  15.116  30.123   7.215
 5335POPC   C1B68947  14.924  29.818   6.201
 5335POPC   C2B68948  14.704  29.787   6.622
 5335POPC   C3B68949  14.806  29.685   7.029
 5335POPC   C4B68950  14.947  29.694   7.465
 5336POPC   NC368951  34.653  25.256   5.438
 5336POPC   PO468952  34.011  25.022   5.667
 5336POPC   GL168953  34.393  25.189   5.880
 5336POPC   GL268954  34.629  25.462   5.892
 5336POPC   C1A68955  34.580  25.073   6.269
 5336POPC   D2A68956  34.285  24.999   6.619
 5336POPC   C3A68957  34.431  25.190   6.981
 5336POPC   C4A68958  34.694  25.129   7.304
 5336POPC   C1B68959  34.946  25.438   6.187
 5336POPC   C2B68960  34.789  25.431   6.581
 5336POPC   C3B68961  34.825  25.521   6.967
 5336POPC   C4B68962  34.779  25.671   7.334
 5337POPC   NC368963  30.479  33.646   5.435
 5337POPC   PO468964  30.525  34.274   5.149
 5337POPC   GL168965  30.791  34.014   5.606
 5337POPC   GL268966  30.649  33.782   5.872
 5337POPC   C1A68967  30.958  34.095   6.085
 5337POPC   D2A68968  30.778  33.861   6.446
 5337POPC   C3A68969  30.977  33.864   6.833
 5337POPC   C4A68970  30.994  34.164   7.162
 5337POPC   C1B68971  30.769  33.455   6.145
 5337POPC   C2B68972  30.879  33.332   6.579
 5337POPC   C3B68973  30.692  33.366   6.973
 5337POPC   C4B68974  30.741  33.725   7.272
 5338POPC   NC368975  11.755  34.731   5.225
 5338POPC   PO468976  12.329  34.429   5.240
 5338POPC   GL168977  12.379  34.434   5.679
 5338POPC   GL268978  12.218  34.755   5.717
 5338POPC   C1A68979  12.506  34.552   6.108
 5338POPC   D2A68980  12.608  34.485   6.548
 5338POPC   C3A68981  12.409  34.546   6.970
 5338POPC   C4A68982  12.160  34.305   7.224
 5338POPC   C1B68983  12.006  34.487   6.032
 5338POPC   C2B68984  11.827  34.472   6.435
 5338POPC   C3B68985  11.866  34.583   6.862
 5338POPC   C4B68986  11.666  34.408   7.221
 5339POPC   NC368987  16.095   3.171   5.441
 5339POPC   PO468988  15.794   2.539   5.485
 5339POPC   GL168989  15.906   2.533   5.873
 5339POPC   GL268990  16.154   2.787   5.804
 5339POPC   C1A68991  15.733   2.734   6.249
 5339POPC   D2A68992  15.581   2.917   6.640
 5339POPC   C3A68993  15.706   2.710   7.017
 5339POPC   C4A68994  15.710   2.376   7.314
 5339POPC   C1B68995  16.243   2.658   6.237
 5339POPC   C2B68996  16.093   2.712   6.655
 5339POPC   C3B68997  16.199   2.556   7.027
 5339POPC   C4B68998  16.186   2.858   7.292
 5340POPC   NC368999   9.517  32.202   5.076
 5340POPC   PO469000   9.883  32.487   5.640
 5340POPC   GL169001   9.852  32.320   6.020
 5340POPC   GL269002   9.982  32.021   5.889
 5340POPC   C1A69003   9.527  32.331   6.346
 5340POPC   D2A69004   9.356  32.466   6.753
 5340POPC   C3A69005   9.737  32.449   7.011
 5340POPC   C4A69006   9.838  32.449   7.474
 5340POPC   C1B69007   9.713  31.847   6.217
 5340POPC   C2B69008   9.757  31.787   6.654
 5340POPC   C3B69009   9.612  31.856   7.059
 5340POPC   C4B69010   9.747  31.958   7.461
 5341POPC   NC369011  17.945  21.493   5.372
 5341POPC   PO469012  18.598  21.386   5.307
 5341POPC   GL169013  18.461  21.402   5.732
 5341POPC   GL269014  18.182  21.156   5.706
 5341POPC   C1A69015  18.537  21.527   6.184
 5341POPC   D2A69016  18.419  21.684   6.598
 5341POPC   C3A69017  18.574  21.560   6.995
 5341POPC   C4A69018  18.240  21.545   7.296
 5341POPC   C1B69019  18.288  21.097   6.139
 5341POPC   C2B69020  18.456  21.170   6.572
 5341POPC   C3B69021  18.221  21.160   6.958
 5341POPC   C4B69022  18.110  21.015   7.409
 5342POPC   NC369023  20.087  11.137   5.454
 5342POPC   PO469024  19.946  11.688   5.792
 5342POPC   GL169025  19.952  11.272   5.952
 5342POPC   GL269026  19.648  11.117   5.787
 5342POPC   C1A69027  20.012  11.240   6.415
 5342POPC   D2A69028  20.047  11.462   6.835
 5342POPC   C3A69029  19.942  11.154   7.163
 5342POPC   C4A69030  19.969  10.937   7.588
 5342POPC   C1B69031  19.510  11.197   6.226
 5342POPC   C2B69032  19.487  11.334   6.676
 5342POPC   C3B69033  19.586  11.522   7.085
 5342POPC   C4B69034  19.316  11.500   7.446
 5343POPC   NC369035  33.541   1.273   5.450
 5343POPC   PO469036  34.188   1.162   5.352
 5343POPC   GL169037  33.952   1.292   5.763
 5343POPC   GL269038  33.661   1.558   5.848
 5343POPC   C1A69039  33.701   1.094   6.111
 5343POPC   D2A69040  33.884   0.876   6.469
 5343POPC   C3A69041  34.065   1.211   6.732
 5343POPC   C4A69042  34.064   1.216   7.166
 5343POPC   C1B69043  33.801   1.601   6.252
 5343POPC   C2B69044  33.705   1.578   6.669
 5343POPC   C3B69045  33.891   1.654   7.037
 5343POPC   C4B69046  33.944   1.610   7.511
 5344POPC   NC369047  27.840  30.019   5.435
 5344POPC   PO469048  27.310  29.660   5.163
 5344POPC   GL169049  27.355  29.892   5.685
 5344POPC   GL269050  27.709  29.906   5.917
 5344POPC   C1A69051  27.348  30.074   6.194
 5344POPC   D2A69052  27.651  30.086   6.588
 5344POPC   C3A69053  27.488  29.960   7.031
 5344POPC   C4A69054  27.200  30.053   7.392
 5344POPC   C1B69055  28.054  29.887   6.227
 5344POPC   C2B69056  28.145  29.894   6.671
 5344POPC   C3B69057  27.998  30.048   7.053
 5344POPC   C4B69058  27.912  30.042   7.499
 5345POPC   NC369059  34.225  16.216   5.588
 5345POPC   PO469060  33.733  15.782   5.355
 5345POPC   GL169061  33.694  15.670   5.754
 5345POPC   GL269062  34.070  15.748   5.813
 5345POPC   C1A69063  33.578  15.886   6.146
 5345POPC   D2A69064  33.785  15.885   6.546
 5345POPC   C3A69065  33.650  15.996   6.925
 5345POPC   C4A69066  33.473  15.813   7.275
 5345POPC   C1B69067  34.188  15.900   6.247
 5345POPC   C2B69068  34.283  15.899   6.733
 5345POPC   C3B69069  34.098  15.947   7.181
 5345POPC   C4B69070  34.223  15.836   7.627
 5346POPC   NC369071   8.610   6.090   5.458
 5346POPC   PO469072   9.149   5.704   5.320
 5346POPC   GL169073   9.117   5.907   5.756
 5346POPC   GL269074   9.305   6.228   5.703
 5346POPC   C1A69075   8.873   5.935   6.193
 5346POPC   D2A69076   8.691   5.811   6.611
 5346POPC   C3A69077   8.939   5.778   6.974
 5346POPC   C4A69078   9.313   5.583   7.127
 5346POPC   C1B69079   9.340   6.172   6.167
 5346POPC   C2B69080   9.255   5.919   6.549
 5346POPC   C3B69081   9.324   6.086   6.946
 5346POPC   C4B69082   9.040   6.283   7.190
 5347POPC   NC369083  19.107  13.698   5.299
 5347POPC   PO469084  18.592  13.332   5.394
 5347POPC   GL169085  18.943  13.416   5.725
 5347POPC   GL269086  19.093  13.779   5.788
 5347POPC   C1A69087  19.314  13.356   6.036
 5347POPC   D2A69088  19.404  13.561   6.500
 5347POPC   C3A69089  19.364  13.435   6.964
 5347POPC   C4A69090  19.330  13.344   7.460
 5347POPC   C1B69091  18.987  13.679   6.196
 5347POPC   C2B69092  18.948  13.877   6.557
 5347POPC   C3B69093  19.123  13.891   6.939
 5347POPC   C4B69094  18.938  13.627   7.229
 5348POPC   NC369095   4.073  31.731   5.364
 5348POPC   PO469096   4.169  31.091   5.408
 5348POPC   GL169097   4.223  31.162   5.830
 5348POPC   GL269098   4.134  31.513   5.899
 5348POPC   C1A69099   4.190  31.134   6.276
 5348POPC   D2A69100   3.955  31.246   6.662
 5348POPC   C3A69101   4.190  31.313   7.051
 5348POPC   C4A69102   4.083  31.217   7.483
 5348POPC   C1B69103   4.359  31.624   6.324
 5348POPC   C2B69104   4.625  31.756   6.703
 5348POPC   C3B69105   4.693  31.765   7.170
 5348POPC   C4B69106   4.794  31.662   7.622
 5349POPC   NC369107  10.351  29.343   5.374
 5349POPC   PO469108  10.842  28.904   5.424
 5349POPC   GL169109  10.760  29.239   5.686
 5349POPC   GL269110  10.512  29.076   5.881
 5349POPC   C1A69111  10.830  29.419   6.058
 5349POPC   D2A69112  11.002  29.351   6.483
 5349POPC   C3A69113  10.736  29.469   6.782
 5349POPC   C4A69114  10.581  29.298   7.145
 5349POPC   C1B69115  10.504  29.161   6.356
 5349POPC   C2B69116  10.292  29.154   6.759
 5349POPC   C3B69117  10.017  28.963   7.077
 5349POPC   C4B69118  10.088  28.710   7.486
 5350POPC   NC369119  20.535  16.674   5.359
 5350POPC   PO469120  21.154  16.532   5.621
 5350POPC   GL169121  20.835  16.774   5.846
 5350POPC   GL269122  20.440  16.759   5.843
 5350POPC   C1A69123  20.691  16.897   6.267
 5350POPC   D2A69124  20.433  16.681   6.583
 5350POPC   C3A69125  20.308  16.874   6.967
 5350POPC   C4A69126  20.545  16.994   7.382
 5350POPC   C1B69127  20.537  16.401   6.102
 5350POPC   C2B69128  20.476  16.186   6.479
 5350POPC   C3B69129  20.694  16.268   6.840
 5350POPC   C4B69130  20.620  16.537   7.154
 5351POPC   NC369131  41.849  14.297   5.311
 5351POPC   PO469132  42.467  14.175   5.175
 5351POPC   GL169133  42.354  14.295   5.659
 5351POPC   GL269134  42.072  14.450   5.791
 5351POPC   C1A69135  42.307  14.179   6.140
 5351POPC   D2A69136  42.201  14.391   6.551
 5351POPC   C3A69137  42.246  14.199   6.935
 5351POPC   C4A69138  42.524  14.148   7.251
 5351POPC   C1B69139  42.046  14.706   6.173
 5351POPC   C2B69140  41.869  14.786   6.608
 5351POPC   C3B69141  42.067  14.700   7.005
 5351POPC   C4B69142  42.526  14.618   7.032
 5352POPC   NC369143  17.913  30.457   5.288
 5352POPC   PO469144  17.365  30.921   5.226
 5352POPC   GL169145  17.477  30.654   5.607
 5352POPC   GL269146  17.760  30.766   5.698
 5352POPC   C1A69147  17.493  30.446   6.040
 5352POPC   D2A69148  17.327  30.608   6.436
 5352POPC   C3A69149  17.459  30.572   6.880
 5352POPC   C4A69150  17.552  30.674   7.302
 5352POPC   C1B69151  17.626  30.937   6.095
 5352POPC   C2B69152  17.749  30.886   6.526
 5352POPC   C3B69153  17.689  31.057   6.931
 5352POPC   C4B69154  17.907  31.069   7.326
 5353POPC   NC369155  12.145  12.296   5.154
 5353POPC   PO469156  12.238  11.610   5.281
 5353POPC   GL169157  12.054  11.685   5.742
 5353POPC   GL269158  11.763  11.920   5.818
 5353POPC   C1A69159  12.023  11.806   6.228
 5353POPC   D2A69160  11.786  11.911   6.647
 5353POPC   C3A69161  12.035  12.035   7.031
 5353POPC   C4A69162  12.496  11.992   7.165
 5353POPC   C1B69163  11.740  12.251   6.192
 5353POPC   C2B69164  11.951  12.404   6.586
 5353POPC   C3B69165  11.783  12.471   6.995
 5353POPC   C4B69166  11.740  12.376   7.450
 5354POPC   NC369167  17.107  38.251   5.495
 5354POPC   PO469168  16.687  38.772   5.327
 5354POPC   GL169169  16.818  38.661   5.784
 5354POPC   GL269170  16.967  38.356   5.953
 5354POPC   C1A69171  16.593  38.556   6.214
 5354POPC   D2A69172  16.430  38.408   6.583
 5354POPC   C3A69173  16.629  38.390   6.992
 5354POPC   C4A69174  16.502  38.126   7.347
 5354POPC   C1B69175  17.096  38.653   6.246
 5354POPC   C2B69176  17.018  38.555   6.687
 5354POPC   C3B69177  17.116  38.377   7.108
 5354POPC   C4B69178  17.304  38.448   7.487
 5355POPC   NC369179  27.947  33.895   5.408
 5355POPC   PO469180  28.559  33.580   5.406
 5355POPC   GL169181  28.375  33.711   5.800
 5355POPC   GL269182  28.037  33.903   5.912
 5355POPC   C1A69183  28.502  33.871   6.207
 5355POPC   D2A69184  28.268  34.044   6.563
 5355POPC   C3A69185  28.525  34.044   6.927
 5355POPC   C4A69186  28.545  33.766   7.282
 5355POPC   C1B69187  28.089  33.554   6.210
 5355POPC   C2B69188  28.144  33.553   6.654
 5355POPC   C3B69189  28.073  33.750   7.080
 5355POPC   C4B69190  28.119  33.643   7.554
 5356POPC   NC369191  13.197  23.996   5.438
 5356POPC   PO469192  12.736  23.536   5.416
 5356POPC   GL169193  12.796  23.814   5.745
 5356POPC   GL269194  13.075  23.647   5.797
 5356POPC   C1A69195  12.872  23.960   6.165
 5356POPC   D2A69196  13.008  23.754   6.549
 5356POPC   C3A69197  12.932  23.997   6.922
 5356POPC   C4A69198  12.590  24.001   7.222
 5356POPC   C1B69199  12.907  23.431   6.119
 5356POPC   C2B69200  13.052  23.230   6.483
 5356POPC   C3B69201  13.179  23.383   6.871
 5356POPC   C4B69202  12.905  23.548   7.198
 5357POPC   NC369203   8.510  22.637   5.497
 5357POPC   PO469204   7.896  22.888   5.550
 5357POPC   GL169205   8.219  22.996   5.797
 5357POPC   GL269206   7.960  23.179   5.981
 5357POPC   C1A69207   8.335  22.769   6.169
 5357POPC   D2A69208   7.979  22.685   6.453
 5357POPC   C3A69209   7.988  22.814   6.880
 5357POPC   C4A69210   8.057  22.632   7.284
 5357POPC   C1B69211   8.318  23.295   6.213
 5357POPC   C2B69212   8.367  23.078   6.594
 5357POPC   C3B69213   8.547  23.126   6.967
 5357POPC   C4B69214   8.430  22.961   7.328
 5358POPC   NC369215  24.708  33.237   5.516
 5358POPC   PO469216  24.124  32.814   5.323
 5358POPC   GL169217  24.416  32.868   5.706
 5358POPC   GL269218  24.802  32.850   5.820
 5358POPC   C1A69219  24.470  32.986   6.169
 5358POPC   D2A69220  24.425  32.782   6.570
 5358POPC   C3A69221  24.457  33.125   6.888
 5358POPC   C4A69222  24.266  33.345   7.241
 5358POPC   C1B69223  24.890  32.707   6.271
 5358POPC   C2B69224  24.894  32.880   6.732
 5358POPC   C3B69225  24.777  32.833   7.173
 5358POPC   C4B69226  24.928  32.804   7.595
 5359POPC   NC369227  11.587  44.745   5.678
 5359POPC   PO469228  10.990  44.955   5.387
 5359POPC   GL169229  10.999  44.757   5.778
 5359POPC   GL269230  11.068  44.409   5.715
 5359POPC   C1A69231  11.108  44.713   6.210
 5359POPC   D2A69232  11.456  44.767   6.481
 5359POPC   C3A69233  11.330  44.792   6.904
 5359POPC   C4A69234  11.540  44.597   7.253
 5359POPC   C1B69235  10.772  44.343   6.065
 5359POPC   C2B69236  10.767  44.451   6.532
 5359POPC   C3B69237  10.911  44.484   6.972
 5359POPC   C4B69238  11.102  44.403   7.384
 5360POPC   NC369239   4.874   2.883   5.409
 5360POPC   PO469240   5.579   3.019   5.495
 5360POPC   GL169241   5.222   2.747   5.767
 5360POPC   GL269242   4.891   2.867   5.924
 5360POPC   C1A69243   5.157   2.506   6.176
 5360POPC   D2A69244   5.339   2.542   6.614
 5360POPC   C3A69245   5.201   2.788   6.975
 5360POPC   C4A69246   5.202   2.682   7.399
 5360POPC   C1B69247   4.804   2.875   6.369
 5360POPC   C2B69248   4.702   2.776   6.796
 5360POPC   C3B69249   4.698   2.672   7.232
 5360POPC   C4B69250   4.802   2.766   7.700
 5361POPC   NC369251  38.673  44.513   5.544
 5361POPC   PO469252  38.398  43.852   5.558
 5361POPC   GL169253  38.431  43.919   5.963
 5361POPC   GL269254  38.286  44.249   5.924
 5361POPC   C1A69255  38.503  44.069   6.380
 5361POPC   D2A69256  38.557  44.355   6.726
 5361POPC   C3A69257  38.640  44.165   7.098
 5361POPC   C4A69258  38.495  43.736   7.087
 5361POPC   C1B69259  38.024  44.255   6.287
 5361POPC   C2B69260  38.102  44.056   6.697
 5361POPC   C3B69261  38.101  44.191   7.115
 5361POPC   C4B69262  38.325  44.259   7.499
 5362POPC   NC369263  23.433  30.246   5.020
 5362POPC   PO469264  23.775  29.686   5.272
 5362POPC   GL169265  23.695  30.026   5.616
 5362POPC   GL269266  23.716  29.771   5.816
 5362POPC   C1A69267  23.518  30.131   6.075
 5362POPC   D2A69268  23.357  30.046   6.519
 5362POPC   C3A69269  23.606  29.973   6.910
 5362POPC   C4A69270  23.534  29.915   7.356
 5362POPC   C1B69271  23.649  29.665   6.238
 5362POPC   C2B69272  23.460  29.544   6.621
 5362POPC   C3B69273  23.629  29.415   7.023
 5362POPC   C4B69274  23.805  29.472   7.427
 5363POPC   NC369275   2.492  20.517   5.583
 5363POPC   PO469276   2.935  21.024   5.369
 5363POPC   GL169277   2.870  20.806   5.777
 5363POPC   GL269278   2.965  20.424   5.792
 5363POPC   C1A69279   2.707  20.691   6.196
 5363POPC   D2A69280   2.891  20.812   6.583
 5363POPC   C3A69281   2.720  20.917   6.990
 5363POPC   C4A69282   2.920  20.809   7.369
 5363POPC   C1B69283   2.780  20.160   6.144
 5363POPC   C2B69284   2.883  20.148   6.578
 5363POPC   C3B69285   2.912  20.411   6.954
 5363POPC   C4B69286   2.554  20.427   7.187
 5364POPC   NC369287  10.228  13.755   5.282
 5364POPC   PO469288  10.798  13.373   5.356
 5364POPC   GL169289  10.666  13.662   5.664
 5364POPC   GL269290  10.942  13.819   5.855
 5364POPC   C1A69291  10.521  13.634   6.095
 5364POPC   D2A69292  10.418  13.830   6.486
 5364POPC   C3A69293  10.507  13.674   6.855
 5364POPC   C4A69294  10.229  13.547   7.186
 5364POPC   C1B69295  10.803  14.062   6.194
 5364POPC   C2B69296  10.801  14.170   6.616
 5364POPC   C3B69297  10.890  14.003   7.012
 5364POPC   C4B69298  10.616  13.881   7.296
 5365POPC   NC369299  10.374  18.605   5.372
 5365POPC   PO469300  10.771  18.081   5.335
 5365POPC   GL169301  10.832  18.366   5.729
 5365POPC   GL269302  10.534  18.522   5.843
 5365POPC   C1A69303  10.787  18.362   6.235
 5365POPC   D2A69304  10.508  18.451   6.606
 5365POPC   C3A69305  10.690  18.426   7.035
 5365POPC   C4A69306  10.804  18.104   7.289
 5365POPC   C1B69307  10.279  18.268   6.170
 5365POPC   C2B69308  10.031  18.295   6.577
 5365POPC   C3B69309  10.192  18.240   7.012
 5365POPC   C4B69310  10.346  18.138   7.459
 5366POPC   NC369311  33.426  19.485   5.422
 5366POPC   PO469312  33.930  20.012   5.468
 5366POPC   GL169313  33.697  19.886   5.798
 5366POPC   GL269314  33.654  19.567   5.863
 5366POPC   C1A69315  33.848  19.875   6.230
 5366POPC   D2A69316  34.116  20.186   6.418
 5366POPC   C3A69317  34.125  20.202   6.874
 5366POPC   C4A69318  33.906  19.863   7.073
 5366POPC   C1B69319  33.535  19.426   6.285
 5366POPC   C2B69320  33.693  19.483   6.738
 5366POPC   C3B69321  33.672  19.425   7.212
 5366POPC   C4B69322  33.461  19.453   7.640
 5367POPC   NC369323  27.788  26.950   5.169
 5367POPC   PO469324  27.548  26.399   5.421
 5367POPC   GL169325  27.560  26.751   5.728
 5367POPC   GL269326  27.895  26.914   5.679
 5367POPC   C1A69327  27.466  26.734   6.204
 5367POPC   D2A69328  27.599  26.450   6.568
 5367POPC   C3A69329  27.433  26.520   6.981
 5367POPC   C4A69330  27.202  26.214   7.189
 5367POPC   C1B69331  27.966  26.791   6.083
 5367POPC   C2B69332  27.935  26.865   6.499
 5367POPC   C3B69333  27.953  26.669   6.900
 5367POPC   C4B69334  27.765  26.800   7.287
 5368POPC   NC369335  12.213  44.847   5.353
 5368POPC   PO469336  11.728  44.439   5.363
 5368POPC   GL169337  12.042  44.532   5.765
 5368POPC   GL269338  12.073  44.881   5.857
 5368POPC   C1A69339  12.202  44.575   6.252
 5368POPC   D2A69340  12.462  44.781   6.632
 5368POPC   C3A69341  12.281  44.767   7.066
 5368POPC   C4A69342  12.030  44.440   7.295
 5368POPC   C1B69343  11.887  44.984   6.247
 5368POPC   C2B69344  12.022   0.037   6.650
 5368POPC   C3B69345  11.811  44.974   7.016
 5368POPC   C4B69346  11.903  44.919   7.437
 5369POPC   NC369347  11.750  23.027   5.430
 5369POPC   PO469348  11.131  23.204   5.437
 5369POPC   GL169349  11.377  23.113   5.779
 5369POPC   GL269350  11.480  22.787   5.815
 5369POPC   C1A69351  11.471  23.256   6.173
 5369POPC   D2A69352  11.199  23.327   6.528
 5369POPC   C3A69353  11.328  23.161   6.928
 5369POPC   C4A69354  11.134  23.130   7.316
 5369POPC   C1B69355  11.299  22.753   6.224
 5369POPC   C2B69356  11.229  22.533   6.631
 5369POPC   C3B69357  11.192  22.657   7.067
 5369POPC   C4B69358  11.519  22.808   7.359
 5370POPC   NC369359  12.463  16.962   5.444
 5370POPC   PO469360  11.957  16.566   5.626
 5370POPC   GL169361  12.188  16.885   5.851
 5370POPC   GL269362  11.903  17.059   5.861
 5370POPC   C1A69363  12.415  16.891   6.237
 5370POPC   D2A69364  12.344  16.581   6.581
 5370POPC   C3A69365  12.327  16.710   7.014
 5370POPC   C4A69366  11.971  16.494   7.159
 5370POPC   C1B69367  11.912  16.728   6.255
 5370POPC   C2B69368  11.841  16.763   6.716
 5370POPC   C3B69369  11.758  16.975   7.113
 5370POPC   C4B69370  12.000  16.894   7.498
 5371POPC   NC369371   5.863  31.799   5.633
 5371POPC   PO469372   6.345  32.087   5.518
 5371POPC   GL169373   6.157  32.125   5.933
 5371POPC   GL269374   5.985  32.438   5.921
 5371POPC   C1A69375   6.188  32.287   6.368
 5371POPC   D2A69376   6.002  32.494   6.726
 5371POPC   C3A69377   6.049  32.252   7.092
 5371POPC   C4A69378   5.883  32.221   7.497
 5371POPC   C1B69379   5.706  32.475   6.288
 5371POPC   C2B69380   5.673  32.147   6.582
 5371POPC   C3B69381   5.561  32.062   6.997
 5371POPC   C4B69382   5.411  32.211   7.378
 5372POPC   NC369383  40.837   8.487   5.191
 5372POPC   PO469384  40.474   7.937   5.394
 5372POPC   GL169385  40.627   7.937   5.865
 5372POPC   GL269386  40.971   8.021   5.939
 5372POPC   C1A69387  40.620   8.119   6.339
 5372POPC   D2A69388  40.732   8.448   6.700
 5372POPC   C3A69389  40.624   8.387   7.136
 5372POPC   C4A69390  40.718   7.974   7.285
 5372POPC   C1B69391  41.010   7.806   6.343
 5372POPC   C2B69392  40.854   7.910   6.783
 5372POPC   C3B69393  41.110   8.203   7.084
 5372POPC   C4B69394  41.024   8.382   7.499
 5373POPC   NC369395   5.176   7.154   5.419
 5373POPC   PO469396   5.458   7.795   5.379
 5373POPC   GL169397   5.292   7.554   5.788
 5373POPC   GL269398   5.054   7.259   5.903
 5373POPC   C1A69399   5.115   7.653   6.239
 5373POPC   D2A69400   4.907   7.592   6.649
 5373POPC   C3A69401   5.216   7.374   6.916
 5373POPC   C4A69402   5.290   7.316   7.360
 5373POPC   C1B69403   4.983   7.167   6.368
 5373POPC   C2B69404   4.778   7.085   6.777
 5373POPC   C3B69405   4.832   7.191   7.213
 5373POPC   C4B69406   4.969   7.096   7.703
 5374POPC   NC369407  41.268  41.608   5.552
 5374POPC   PO469408  41.695  41.181   5.370
 5374POPC   GL169409  41.692  41.315   5.797
 5374POPC   GL269410  41.357  41.295   5.934
 5374POPC   C1A69411  41.742  41.462   6.225
 5374POPC   D2A69412  41.668  41.229   6.614
 5374POPC   C3A69413  41.581  41.415   6.997
 5374POPC   C4A69414  41.839  41.685   7.211
 5374POPC   C1B69415  41.242  41.395   6.356
 5374POPC   C2B69416  41.477  41.732   6.581
 5374POPC   C3B69417  41.451  41.926   6.950
 5374POPC   C4B69418  41.260  41.761   7.259
 5375POPC   NC369419  35.876  16.539   5.356
 5375POPC   PO469420  36.433  16.893   5.361
 5375POPC   GL169421  36.152  16.821   5.720
 5375POPC   GL269422  36.154  16.472   5.773
 5375POPC   C1A69423  36.298  16.804   6.138
 5375POPC   D2A69424  36.401  17.033   6.504
 5375POPC   C3A69425  36.368  16.801   6.879
 5375POPC   C4A69426  36.211  16.852   7.275
 5375POPC   C1B69427  35.958  16.402   6.153
 5375POPC   C2B69428  36.023  16.597   6.516
 5375POPC   C3B69429  35.872  16.617   6.877
 5375POPC   C4B69430  35.823  16.532   7.257
 5376POPC   NC369431  22.074  16.261   5.581
 5376POPC   PO469432  22.410  16.879   5.471
 5376POPC   GL169433  22.247  16.701   5.811
 5376POPC   GL269434  22.507  16.462   5.812
 5376POPC   C1A69435  22.035  16.690   6.211
 5376POPC   D2A69436  22.155  16.539   6.620
 5376POPC   C3A69437  21.928  16.676   7.023
 5376POPC   C4A69438  21.836  16.597   7.495
 5376POPC   C1B69439  22.559  16.665   6.226
 5376POPC   C2B69440  22.693  16.726   6.634
 5376POPC   C3B69441  22.456  16.715   6.983
 5376POPC   C4B69442  22.336  16.535   7.347
 5377POPC   NC369443  13.522  10.870   5.065
 5377POPC   PO469444  13.799  11.207   5.586
 5377POPC   GL169445  13.564  11.156   5.981
 5377POPC   GL269446  13.856  10.914   6.022
 5377POPC   C1A69447  13.343  11.317   6.355
 5377POPC   D2A69448  13.184  11.413   6.773
 5377POPC   C3A69449  13.525  11.450   7.074
 5377POPC   C4A69450  13.637  11.212   7.431
 5377POPC   C1B69451  13.869  11.255   6.355
 5377POPC   C2B69452  13.941  11.422   6.767
 5377POPC   C3B69453  14.031  11.462   7.216
 5377POPC   C4B69454  13.862  11.669   7.583
 5378POPC   NC369455  10.240  19.303   5.342
 5378POPC   PO469456  10.727  18.879   5.495
 5378POPC   GL169457  10.432  19.054   5.763
 5378POPC   GL269458  10.141  18.848   5.799
 5378POPC   C1A69459  10.507  19.236   6.148
 5378POPC   D2A69460  10.505  19.101   6.569
 5378POPC   C3A69461  10.832  19.248   6.817
 5378POPC   C4A69462  10.735  19.267   7.232
 5378POPC   C1B69463  10.306  18.770   6.222
 5378POPC   C2B69464  10.110  18.798   6.623
 5378POPC   C3B69465  10.309  18.904   7.018
 5378POPC   C4B69466  10.441  18.717   7.409
 5379POPC   NC369467  22.449  36.958   5.509
 5379POPC   PO469468  21.798  36.788   5.469
 5379POPC   GL169469  21.951  37.094   5.820
 5379POPC   GL269470  22.294  37.159   5.929
 5379POPC   C1A69471  21.985  37.001   6.279
 5379POPC   D2A69472  22.222  36.820   6.625
 5379POPC   C3A69473  22.094  36.870   7.084
 5379POPC   C4A69474  22.352  36.655   7.420
 5379POPC   C1B69475  22.431  37.239   6.334
 5379POPC   C2B69476  22.310  37.304   6.732
 5379POPC   C3B69477  22.458  37.231   7.101
 5379POPC   C4B69478  22.288  37.212   7.472
 5380POPC   NC369479  11.038  32.634   5.394
 5380POPC   PO469480  11.343  31.999   5.396
 5380POPC   GL169481  11.152  32.116   5.795
 5380POPC   GL269482  11.303  32.425   5.800
 5380POPC   C1A69483  11.260  32.044   6.263
 5380POPC   D2A69484  11.503  32.029   6.694
 5380POPC   C3A69485  11.261  32.090   7.106
 5380POPC   C4A69486  11.207  32.368   7.498
 5380POPC   C1B69487  11.429  32.517   6.231
 5380POPC   C2B69488  11.176  32.440   6.628
 5380POPC   C3B69489  11.165  32.606   7.042
 5380POPC   C4B69490  11.431  32.833   7.240
 5381POPC   NC369491   1.182  20.098   5.371
 5381POPC   PO469492   0.934  19.408   5.498
 5381POPC   GL169493   1.151  19.663   5.810
 5381POPC   GL269494   0.993  19.974   5.840
 5381POPC   C1A69495   1.341  19.604   6.233
 5381POPC   D2A69496   1.222  19.349   6.590
 5381POPC   C3A69497   1.136  19.507   7.009
 5381POPC   C4A69498   1.225  19.756   7.363
 5381POPC   C1B69499   1.121  20.068   6.276
 5381POPC   C2B69500   1.157  19.962   6.737
 5381POPC   C3B69501   1.319  20.201   7.124
 5381POPC   C4B69502   1.471  20.235   7.566
 5382POPC   NC369503   7.568  17.983   5.339
 5382POPC   PO469504   7.329  17.342   5.427
 5382POPC   GL169505   7.496  17.618   5.749
 5382POPC   GL269506   7.235  17.841   5.689
 5382POPC   C1A69507   7.627  17.736   6.177
 5382POPC   D2A69508   7.653  17.433   6.549
 5382POPC   C3A69509   7.614  17.509   6.998
 5382POPC   C4A69510   7.655  17.319   7.408
 5382POPC   C1B69511   7.151  17.907   6.100
 5382POPC   C2B69512   7.272  17.862   6.520
 5382POPC   C3B69513   7.128  17.652   6.871
 5382POPC   C4B69514   7.197  17.777   7.291
 5383POPC   NC369515  23.518  25.181   5.026
 5383POPC   PO469516  24.021  25.368   5.367
 5383POPC   GL169517  23.971  25.225   5.784
 5383POPC   GL269518  24.090  24.917   5.934
 5383POPC   C1A69519  24.014  25.387   6.209
 5383POPC   D2A69520  23.712  25.491   6.553
 5383POPC   C3A69521  23.811  25.431   7.002
 5383POPC   C4A69522  23.609  25.312   7.418
 5383POPC   C1B69523  23.765  24.907   6.290
 5383POPC   C2B69524  23.673  24.929   6.759
 5383POPC   C3B69525  23.889  24.960   7.180
 5383POPC   C4B69526  23.862  24.948   7.691
 5384POPC   NC369527  26.131  20.965   5.608
 5384POPC   PO469528  26.271  20.344   5.381
 5384POPC   GL169529  26.039  20.464   5.752
 5384POPC   GL269530  25.721  20.653   5.713
 5384POPC   C1A69531  26.135  20.631   6.173
 5384POPC   D2A69532  26.353  20.804   6.527
 5384POPC   C3A69533  26.182  20.587   6.869
 5384POPC   C4A69534  26.138  20.677   7.287
 5384POPC   C1B69535  25.668  20.839   6.136
 5384POPC   C2B69536  25.813  20.821   6.557
 5384POPC   C3B69537  25.998  21.070   6.862
 5384POPC   C4B69538  25.803  21.075   7.232
 5385POPC   NC369539  19.284   0.444   5.513
 5385POPC   PO469540  18.696   0.425   5.848
 5385POPC   GL169541  19.125   0.365   5.979
 5385POPC   GL269542  19.348   0.677   5.968
 5385POPC   C1A69543  19.071   0.117   6.305
 5385POPC   D2A69544  18.785   0.131   6.640
 5385POPC   C3A69545  18.877   0.339   7.014
 5385POPC   C4A69546  19.074   0.737   7.134
 5385POPC   C1B69547  19.265   0.594   6.412
 5385POPC   C2B69548  19.292   0.265   6.735
 5385POPC   C3B69549  19.402   0.349   7.124
 5385POPC   C4B69550  19.613   0.788   7.139
 5386POPC   NC369551  22.296  34.829   5.389
 5386POPC   PO469552  22.126  34.204   5.334
 5386POPC   GL169553  22.242  34.369   5.754
 5386POPC   GL269554  22.343  34.720   5.877
 5386POPC   C1A69555  22.173  34.328   6.199
 5386POPC   D2A69556  22.034  34.569   6.542
 5386POPC   C3A69557  21.964  34.399   6.924
 5386POPC   C4A69558  22.246  34.506   7.197
 5386POPC   C1B69559  22.006  34.863   6.124
 5386POPC   C2B69560  21.992  35.089   6.501
 5386POPC   C3B69561  22.080  34.972   6.898
 5386POPC   C4B69562  21.857  34.861   7.235
 5387POPC   NC369563   3.901  37.958   5.532
 5387POPC   PO469564   3.536  37.489   5.244
 5387POPC   GL169565   3.507  37.577   5.737
 5387POPC   GL269566   3.292  37.283   5.869
 5387POPC   C1A69567   3.673  37.774   6.158
 5387POPC   D2A69568   3.590  37.928   6.594
 5387POPC   C3A69569   3.621  37.760   7.034
 5387POPC   C4A69570   3.843  37.731   7.443
 5387POPC   C1B69571   3.489  37.316   6.300
 5387POPC   C2B69572   3.376  37.411   6.752
 5387POPC   C3B69573   3.467  37.266   7.208
 5387POPC   C4B69574   3.488  37.268   7.697
 5388POPC   NC369575  20.080  29.749   5.198
 5388POPC   PO469576  19.667  30.328   5.199
 5388POPC   GL169577  19.877  30.003   5.609
 5388POPC   GL269578  20.179  29.734   5.693
 5388POPC   C1A69579  19.874  29.834   6.086
 5388POPC   D2A69580  19.826  29.689   6.549
 5388POPC   C3A69581  19.793  29.973   6.909
 5388POPC   C4A69582  19.422  30.005   7.202
 5388POPC   C1B69583  20.359  29.626   6.134
 5388POPC   C2B69584  20.332  29.771   6.580
 5388POPC   C3B69585  20.189  29.649   7.016
 5388POPC   C4B69586  19.895  29.745   7.366
 5389POPC   NC369587  41.771   0.512   5.488
 5389POPC   PO469588  41.205   0.183   5.561
 5389POPC   GL169589  41.428   0.442   5.882
 5389POPC   GL269590  41.766   0.339   5.968
 5389POPC   C1A69591  41.492   0.638   6.295
 5389POPC   D2A69592  41.743   0.504   6.669
 5389POPC   C3A69593  41.537   0.500   7.087
 5389POPC   C4A69594  41.132   0.300   7.160
 5389POPC   C1B69595  41.964   0.736   6.132
 5389POPC   C2B69596  41.917   0.957   6.541
 5389POPC   C3B69597  41.834   0.928   7.017
 5389POPC   C4B69598  41.778   0.829   7.505
 5390POPC   NC369599  22.577  38.473   5.478
 5390POPC   PO469600  23.080  37.992   5.314
 5390POPC   GL169601  23.099  38.320   5.656
 5390POPC   GL269602  22.811  38.299   5.889
 5390POPC   C1A69603  23.152  38.642   6.020
 5390POPC   D2A69604  23.170  38.464   6.457
 5390POPC   C3A69605  22.900  38.580   6.804
 5390POPC   C4A69606  22.763  38.583   7.250
 5390POPC   C1B69607  22.556  38.205   6.233
 5390POPC   C2B69608  22.394  38.039   6.595
 5390POPC   C3B69609  22.618  38.189   6.940
 5390POPC   C4B69610  22.709  38.074   7.362
 5391POPC   NC369611   5.500  19.951   5.499
 5391POPC   PO469612   5.955  19.482   5.445
 5391POPC   GL169613   5.809  19.673   5.842
 5391POPC   GL269614   5.925  20.035   5.804
 5391POPC   C1A69615   6.018  19.816   6.239
 5391POPC   D2A69616   5.863  19.942   6.631
 5391POPC   C3A69617   5.951  19.761   7.026
 5391POPC   C4A69618   6.289  19.843   7.281
 5391POPC   C1B69619   5.615  20.134   6.149
 5391POPC   C2B69620   5.448  20.218   6.582
 5391POPC   C3B69621   5.515  20.071   7.017
 5391POPC   C4B69622   5.473  19.723   7.295
 5392POPC   NC369623  24.364  22.258   5.300
 5392POPC   PO469624  23.897  21.797   5.518
 5392POPC   GL169625  24.202  22.116   5.765
 5392POPC   GL269626  24.570  22.097   5.808
 5392POPC   C1A69627  24.295  22.375   6.145
 5392POPC   D2A69628  24.430  22.273   6.557
 5392POPC   C3A69629  24.197  22.358   6.912
 5392POPC   C4A69630  24.393  22.391   7.298
 5392POPC   C1B69631  24.808  22.240   6.217
 5392POPC   C2B69632  24.936  22.320   6.686
 5392POPC   C3B69633  24.911  22.318   7.175
 5392POPC   C4B69634  24.724  22.097   7.568
 5393POPC   NC369635  17.003  39.103   5.436
 5393POPC   PO469636  16.511  39.623   5.519
 5393POPC   GL169637  16.634  39.299   5.747
 5393POPC   GL269638  16.969  39.396   5.850
 5393POPC   C1A69639  16.662  39.041   6.083
 5393POPC   D2A69640  16.798  38.994   6.484
 5393POPC   C3A69641  16.568  38.867   6.816
 5393POPC   C4A69642  16.909  38.884   7.090
 5393POPC   C1B69643  16.701  39.535   6.210
 5393POPC   C2B69644  16.469  39.636   6.553
 5393POPC   C3B69645  16.643  39.402   6.874
 5393POPC   C4B69646  16.426  39.499   7.223
 5394POPC   NC369647   9.532  36.538   5.145
 5394POPC   PO469648   9.756  35.959   5.372
 5394POPC   GL169649   9.563  35.997   5.813
 5394POPC   GL269650   9.305  36.253   5.759
 5394POPC   C1A69651   9.688  36.044   6.289
 5394POPC   D2A69652   9.594  36.322   6.669
 5394POPC   C3A69653   9.836  36.252   7.069
 5394POPC   C4A69654  10.136  35.909   7.218
 5394POPC   C1B69655   9.215  36.197   6.195
 5394POPC   C2B69656   9.080  36.271   6.616
 5394POPC   C3B69657   9.237  36.322   7.039
 5394POPC   C4B69658   9.474  36.622   7.200
 5395POPC   NC369659  24.959   6.420   5.501
 5395POPC   PO469660  25.226   7.007   5.627
 5395POPC   GL169661  24.906   6.790   5.924
 5395POPC   GL269662  24.560   6.625   5.932
 5395POPC   C1A69663  24.773   6.723   6.364
 5395POPC   D2A69664  24.730   6.531   6.697
 5395POPC   C3A69665  24.342   6.607   6.877
 5395POPC   C4A69666  24.269   6.731   7.299
 5395POPC   C1B69667  24.266   6.575   6.345
 5395POPC   C2B69668  23.974   6.338   6.661
 5395POPC   C3B69669  24.057   6.265   7.142
 5395POPC   C4B69670  24.017   6.378   7.598
 5396POPC   NC369671  10.463  36.779   5.149
 5396POPC   PO469672  10.563  37.307   5.515
 5396POPC   GL169673  10.541  36.987   5.831
 5396POPC   GL269674  10.678  36.668   5.742
 5396POPC   C1A69675  10.398  36.866   6.250
 5396POPC   D2A69676  10.109  37.098   6.508
 5396POPC   C3A69677  10.217  36.998   6.903
 5396POPC   C4A69678  10.286  36.793   7.278
 5396POPC   C1B69679  10.830  36.594   6.184
 5396POPC   C2B69680  10.662  36.585   6.625
 5396POPC   C3B69681  10.866  36.473   7.033
 5396POPC   C4B69682  10.728  36.603   7.430
 5397POPC   NC369683  32.491  11.896   5.606
 5397POPC   PO469684  31.963  12.169   5.402
 5397POPC   GL169685  31.966  11.911   5.743
 5397POPC   GL269686  32.123  12.194   5.902
 5397POPC   C1A69687  32.125  11.750   6.152
 5397POPC   D2A69688  32.156  12.092   6.448
 5397POPC   C3A69689  32.108  11.957   6.884
 5397POPC   C4A69690  31.960  12.261   7.197
 5397POPC   C1B69691  32.475  12.394   6.100
 5397POPC   C2B69692  32.573  12.405   6.532
 5397POPC   C3B69693  32.360  12.381   6.902
 5397POPC   C4B69694  32.464  12.334   7.331
 5398POPC   NC369695   9.148  16.217   5.425
 5398POPC   PO469696   8.813  15.603   5.425
 5398POPC   GL169697   9.087  15.766   5.791
 5398POPC   GL269698   9.113  16.153   5.913
 5398POPC   C1A69699   8.966  15.822   6.256
 5398POPC   D2A69700   8.674  16.063   6.535
 5398POPC   C3A69701   8.781  15.976   6.976
 5398POPC   C4A69702   9.156  15.708   7.079
 5398POPC   C1B69703   9.132  16.315   6.340
 5398POPC   C2B69704   9.200  16.210   6.776
 5398POPC   C3B69705   9.247  16.209   7.235
 5398POPC   C4B69706   9.365  16.098   7.680
 5399POPC   NC369707  28.614   5.103   5.159
 5399POPC   PO469708  28.090   5.493   5.520
 5399POPC   GL169709  28.126   5.301   5.909
 5399POPC   GL269710  28.463   5.145   5.853
 5399POPC   C1A69711  28.172   5.290   6.356
 5399POPC   D2A69712  28.596   5.200   6.484
 5399POPC   C3A69713  28.669   5.333   6.882
 5399POPC   C4A69714  28.365   5.237   7.232
 5399POPC   C1B69715  28.356   4.859   6.141
 5399POPC   C2B69716  28.188   4.787   6.532
 5399POPC   C3B69717  28.396   4.876   6.896
 5399POPC   C4B69718  28.581   4.662   7.279
 5400POPC   NC369719  13.198  17.814   5.538
 5400POPC   PO469720  12.682  17.359   5.345
 5400POPC   GL169721  12.700  17.284   5.861
 5400POPC   GL269722  12.934  17.512   6.036
 5400POPC   C1A69723  12.628  17.359   6.380
 5400POPC   D2A69724  12.896  17.385   6.727
 5400POPC   C3A69725  12.668  17.287   7.076
 5400POPC   C4A69726  12.429  17.630   7.103
 5400POPC   C1B69727  13.013  17.777   6.366
 5400POPC   C2B69728  12.964  17.890   6.781
 5400POPC   C3B69729  13.037  17.667   7.143
 5400POPC   C4B69730  13.132  17.902   7.498
 5401POPC   NC369731  16.992  30.655   5.110
 5401POPC   PO469732  16.438  30.641   5.476
 5401POPC   GL169733  16.551  30.442   5.876
 5401POPC   GL269734  16.356  30.716   6.003
 5401POPC   C1A69735  16.825  30.463   6.292
 5401POPC   D2A69736  17.017  30.303   6.708
 5401POPC   C3A69737  16.975  30.594   7.088
 5401POPC   C4A69738  16.818  30.834   7.461
 5401POPC   C1B69739  16.310  30.464   6.370
 5401POPC   C2B69740  16.547  30.538   6.746
 5401POPC   C3B69741  16.523  30.880   7.046
 5401POPC   C4B69742  16.482  31.221   7.351
 5402POPC   NC369743  41.139  44.739   5.429
 5402POPC   PO469744  41.675  44.357   5.251
 5402POPC   GL169745  41.647  44.633   5.630
 5402POPC   GL269746  41.719  44.351   5.848
 5402POPC   C1A69747  41.563  44.845   6.055
 5402POPC   D2A69748  41.486   0.137   6.388
 5402POPC   C3A69749  41.486   0.052   6.831
 5402POPC   C4A69750  41.250  44.805   7.110
 5402POPC   C1B69751  41.861  44.477   6.240
 5402POPC   C2B69752  41.639  44.587   6.607
 5402POPC   C3B69753  41.806  44.676   7.000
 5402POPC   C4B69754  41.714  44.809   7.399
 5403POPC   NC369755  23.759  24.821   5.539
 5403POPC   PO469756  23.560  24.174   5.379
 5403POPC   GL169757  23.717  24.251   5.768
 5403POPC   GL269758  24.060  24.222   5.734
 5403POPC   C1A69759  23.550  24.248   6.186
 5403POPC   D2A69760  23.637  24.439   6.560
 5403POPC   C3A69761  23.574  24.164   6.886
 5403POPC   C4A69762  23.513  24.272   7.305
 5403POPC   C1B69763  24.027  24.447   6.155
 5403POPC   C2B69764  24.104  24.642   6.586
 5403POPC   C3B69765  23.951  24.484   6.982
 5403POPC   C4B69766  23.967  24.521   7.417
 5404POPC   NC369767  39.905  34.242   5.289
 5404POPC   PO469768  40.316  34.738   5.510
 5404POPC   GL169769  40.126  34.421   5.784
 5404POPC   GL269770  39.807  34.551   5.908
 5404POPC   C1A69771  40.108  34.265   6.233
 5404POPC   D2A69772  40.044  34.487   6.663
 5404POPC   C3A69773  40.395  34.396   6.964
 5404POPC   C4A69774  40.521  33.983   7.183
 5404POPC   C1B69775  40.135  34.764   6.206
 5404POPC   C2B69776  40.060  35.004   6.586
 5404POPC   C3B69777  40.129  34.891   7.016
 5404POPC   C4B69778  39.958  34.504   7.201
 5405POPC   NC369779  14.689   7.764   5.580
 5405POPC   PO469780  14.354   7.297   5.422
 5405POPC   GL169781  14.483   7.282   5.845
 5405POPC   GL269782  14.123   7.376   5.861
 5405POPC   C1A69783  14.688   7.527   6.213
 5405POPC   D2A69784  14.650   7.764   6.613
 5405POPC   C3A69785  14.733   7.460   6.979
 5405POPC   C4A69786  14.594   7.097   7.213
 5405POPC   C1B69787  14.184   7.461   6.252
 5405POPC   C2B69788  14.359   7.328   6.624
 5405POPC   C3B69789  14.226   7.419   7.023
 5405POPC   C4B69790  14.034   7.471   7.420
 5406POPC   NC369791  20.619  24.456   5.230
 5406POPC   PO469792  21.016  24.860   5.448
 5406POPC   GL169793  20.856  24.477   5.708
 5406POPC   GL269794  20.490  24.433   5.749
 5406POPC   C1A69795  20.831  24.260   6.096
 5406POPC   D2A69796  20.578  24.258   6.455
 5406POPC   C3A69797  20.749  24.361   6.867
 5406POPC   C4A69798  20.681  24.101   7.248
 5406POPC   C1B69799  20.586  24.709   6.135
 5406POPC   C2B69800  20.664  24.850   6.598
 5406POPC   C3B69801  20.600  24.955   7.081
 5406POPC   C4B69802  20.528  24.650   7.421
 5407POPC   NC369803   6.159  26.224   5.347
 5407POPC   PO469804   5.594  26.011   5.609
 5407POPC   GL169805   5.703  25.797   5.974
 5407POPC   GL269806   6.046  25.726   5.836
 5407POPC   C1A69807   5.641  25.865   6.425
 5407POPC   D2A69808   5.851  26.208   6.684
 5407POPC   C3A69809   5.739  26.231   7.106
 5407POPC   C4A69810   5.757  25.952   7.468
 5407POPC   C1B69811   6.131  25.948   6.220
 5407POPC   C2B69812   6.108  25.765   6.639
 5407POPC   C3B69813   6.054  25.817   7.072
 5407POPC   C4B69814   6.265  25.862   7.466
 5408POPC   NC369815  18.556   7.177   5.606
 5408POPC   PO469816  17.942   6.857   5.470
 5408POPC   GL169817  18.138   6.898   5.856
 5408POPC   GL269818  18.124   6.554   5.930
 5408POPC   C1A69819  18.352   6.904   6.273
 5408POPC   D2A69820  18.609   6.648   6.580
 5408POPC   C3A69821  18.389   6.516   6.944
 5408POPC   C4A69822  18.344   6.703   7.325
 5408POPC   C1B69823  18.314   6.339   6.280
 5408POPC   C2B69824  18.183   6.149   6.662
 5408POPC   C3B69825  17.954   6.247   7.032
 5408POPC   C4B69826  18.104   6.260   7.441
 5409POPC   NC369827  19.895  42.843   5.356
 5409POPC   PO469828  19.472  43.334   5.446
 5409POPC   GL169829  19.714  43.286   5.841
 5409POPC   GL269830  19.949  42.974   5.852
 5409POPC   C1A69831  19.805  43.499   6.255
 5409POPC   D2A69832  19.737  43.383   6.722
 5409POPC   C3A69833  19.709  42.939   6.934
 5409POPC   C4A69834  19.347  42.700   7.039
 5409POPC   C1B69835  19.784  42.990   6.273
 5409POPC   C2B69836  20.062  43.023   6.589
 5409POPC   C3B69837  20.170  43.203   6.987
 5409POPC   C4B69838  20.051  42.983   7.357
 5410POPC   NC369839   3.170  31.908   5.302
 5410POPC   PO469840   3.706  31.977   5.434
 5410POPC   GL169841   3.534  32.150   5.849
 5410POPC   GL269842   3.177  32.053   5.837
 5410POPC   C1A69843   3.595  32.345   6.305
 5410POPC   D2A69844   3.635  32.581   6.724
 5410POPC   C3A69845   3.839  32.427   7.099
 5410POPC   C4A69846   3.937  32.126   7.471
 5410POPC   C1B69847   3.218  31.995   6.301
 5410POPC   C2B69848   3.413  32.083   6.718
 5410POPC   C3B69849   3.591  31.968   7.123
 5410POPC   C4B69850   3.378  31.991   7.516
 5411POPC   NC369851  40.743  34.651   5.372
 5411POPC   PO469852  41.268  34.325   5.494
 5411POPC   GL169853  41.056  34.641   5.786
 5411POPC   GL269854  40.675  34.617   5.880
 5411POPC   C1A69855  41.081  34.616   6.234
 5411POPC   D2A69856  40.858  34.619   6.619
 5411POPC   C3A69857  41.034  34.381   6.935
 5411POPC   C4A69858  40.784  34.399   7.291
 5411POPC   C1B69859  40.635  34.908   6.232
 5411POPC   C2B69860  40.576  35.063   6.672
 5411POPC   C3B69861  40.692  34.850   7.081
 5411POPC   C4B69862  40.811  34.793   7.601
 5412POPC   NC369863  32.297  15.231   5.166
 5412POPC   PO469864  31.901  14.829   5.555
 5412POPC   GL169865  32.219  15.097   5.782
 5412POPC   GL269866  32.578  15.066   5.761
 5412POPC   C1A69867  32.246  15.341   6.162
 5412POPC   D2A69868  32.062  15.520   6.534
 5412POPC   C3A69869  32.268  15.416   6.896
 5412POPC   C4A69870  32.264  15.301   7.299
 5412POPC   C1B69871  32.740  15.134   6.199
 5412POPC   C2B69872  32.621  15.149   6.627
 5412POPC   C3B69873  32.736  15.092   7.053
 5412POPC   C4B69874  32.718  15.166   7.504
 5413POPC   NC369875   3.117  37.481   5.406
 5413POPC   PO469876   2.525  37.837   5.444
 5413POPC   GL169877   2.582  37.720   5.879
 5413POPC   GL269878   2.844  37.485   6.022
 5413POPC   C1A69879   2.689  37.894   6.294
 5413POPC   D2A69880   2.650  38.141   6.694
 5413POPC   C3A69881   2.691  37.913   7.065
 5413POPC   C4A69882   3.094  38.048   7.253
 5413POPC   C1B69883   3.160  37.707   6.308
 5413POPC   C2B69884   3.100  37.847   6.749
 5413POPC   C3B69885   3.032  37.543   7.102
 5413POPC   C4B69886   3.009  37.283   7.471
 5414POPC   NC369887  41.473  10.739   5.422
 5414POPC   PO469888  41.413  10.109   5.166
 5414POPC   GL169889  41.399  10.312   5.706
 5414POPC   GL269890  41.650  10.572   5.864
 5414POPC   C1A69891  41.388  10.296   6.202
 5414POPC   D2A69892  41.609  10.624   6.446
 5414POPC   C3A69893  41.783  10.642   6.873
 5414POPC   C4A69894  41.656  10.535   7.283
 5414POPC   C1B69895  41.260  10.758   6.038
 5414POPC   C2B69896  41.109  10.780   6.461
 5414POPC   C3B69897  41.267  10.657   6.864
 5414POPC   C4B69898  41.440  10.965   7.110
 5415POPC   NC369899  20.071   1.851   5.413
 5415POPC   PO469900  19.376   1.603   5.641
 5415POPC   GL169901  19.664   1.895   5.830
 5415POPC   GL269902  19.959   1.794   5.896
 5415POPC   C1A69903  19.794   2.130   6.229
 5415POPC   D2A69904  19.594   2.304   6.604
 5415POPC   C3A69905  19.921   2.438   6.872
 5415POPC   C4A69906  20.216   2.382   7.186
 5415POPC   C1B69907  20.114   1.744   6.283
 5415POPC   C2B69908  20.162   1.988   6.649
 5415POPC   C3B69909  19.981   1.937   7.042
 5415POPC   C4B69910  19.565   2.014   7.078
 5416POPC   NC369911  26.796  34.458   5.354
 5416POPC   PO469912  27.286  34.838   5.296
 5416POPC   GL169913  27.024  34.754   5.706
 5416POPC   GL269914  27.031  34.353   5.805
 5416POPC   C1A69915  26.817  34.692   6.139
 5416POPC   D2A69916  26.961  34.521   6.552
 5416POPC   C3A69917  26.719  34.609   6.922
 5416POPC   C4A69918  26.466  34.759   7.277
 5416POPC   C1B69919  26.694  34.165   6.086
 5416POPC   C2B69920  26.711  34.025   6.524
 5416POPC   C3B69921  26.919  34.127   6.914
 5416POPC   C4B69922  26.796  34.303   7.329
 5417POPC   NC369923  44.497  15.873   5.360
 5417POPC   PO469924  44.456  16.510   5.460
 5417POPC   GL169925  44.568  16.171   5.767
 5417POPC   GL269926  44.869  15.928   5.723
 5417POPC   C1A69927  44.711  16.100   6.173
 5417POPC   D2A69928  44.710  15.850   6.511
 5417POPC   C3A69929  44.658  16.071   6.890
 5417POPC   C4A69930  44.322  16.061   7.169
 5417POPC   C1B69931  44.888  15.612   6.066
 5417POPC   C2B69932   0.009  15.440   6.480
 5417POPC   C3B69933  44.890  15.548   6.893
 5417POPC   C4B69934  44.766  15.766   7.266
 5418POPC   NC369935  40.873  43.113   5.141
 5418POPC   PO469936  40.296  43.268   5.383
 5418POPC   GL169937  40.623  43.084   5.654
 5418POPC   GL269938  40.781  43.332   5.842
 5418POPC   C1A69939  40.690  42.895   6.096
 5418POPC   D2A69940  40.966  42.805   6.488
 5418POPC   C3A69941  40.785  42.900   6.898
 5418POPC   C4A69942  41.002  42.901   7.285
 5418POPC   C1B69943  41.004  43.268   6.235
 5418POPC   C2B69944  40.656  43.225   6.517
 5418POPC   C3B69945  40.481  43.432   6.859
 5418POPC   C4B69946  40.647  43.299   7.242
 5419POPC   NC369947   7.899  29.699   5.253
 5419POPC   PO469948   8.401  30.140   5.445
 5419POPC   GL169949   8.225  29.914   5.819
 5419POPC   GL269950   7.852  29.848   5.778
 5419POPC   C1A69951   8.328  29.775   6.248
 5419POPC   D2A69952   8.447  29.515   6.614
 5419POPC   C3A69953   8.366  29.697   7.007
 5419POPC   C4A69954   7.969  29.727   7.231
 5419POPC   C1B69955   7.875  30.106   6.181
 5419POPC   C2B69956   7.910  30.344   6.571
 5419POPC   C3B69957   8.171  30.197   6.907
 5419POPC   C4B69958   8.037  30.247   7.287
 5420POPC   NC369959   5.118  36.665   5.377
 5420POPC   PO469960   5.205  37.313   5.497
 5420POPC   GL169961   5.038  37.009   5.795
 5420POPC   GL269962   4.942  36.656   5.853
 5420POPC   C1A69963   5.096  36.969   6.237
 5420POPC   D2A69964   5.238  36.750   6.584
 5420POPC   C3A69965   5.113  36.860   6.975
 5420POPC   C4A69966   5.315  37.081   7.315
 5420POPC   C1B69967   5.213  36.461   6.132
 5420POPC   C2B69968   5.284  36.230   6.498
 5420POPC   C3B69969   5.319  36.366   6.942
 5420POPC   C4B69970   5.218  36.560   7.359
 5421POPC   NC369971  16.466   3.292   5.061
 5421POPC   PO469972  17.101   3.476   5.265
 5421POPC   GL169973  16.912   3.363   5.693
 5421POPC   GL269974  16.608   3.188   5.635
 5421POPC   C1A69975  16.722   3.503   6.106
 5421POPC   D2A69976  16.747   3.341   6.537
 5421POPC   C3A69977  16.815   3.593   6.903
 5421POPC   C4A69978  16.719   3.536   7.335
 5421POPC   C1B69979  16.497   3.058   6.057
 5421POPC   C2B69980  16.300   3.128   6.465
 5421POPC   C3B69981  16.433   3.098   6.898
 5421POPC   C4B69982  16.260   3.358   7.249
 5422POPC   NC369983  24.203   4.989   5.445
 5422POPC   PO469984  24.728   5.202   5.110
 5422POPC   GL169985  24.746   5.150   5.601
 5422POPC   GL269986  24.468   5.367   5.723
 5422POPC   C1A69987  24.721   4.900   6.025
 5422POPC   D2A69988  24.702   4.751   6.462
 5422POPC   C3A69989  24.705   4.889   6.889
 5422POPC   C4A69990  24.529   5.114   7.236
 5422POPC   C1B69991  24.313   5.186   6.119
 5422POPC   C2B69992  24.441   5.210   6.543
 5422POPC   C3B69993  24.217   5.289   6.905
 5422POPC   C4B69994  24.123   5.477   7.273
 5423POPC   NC369995  25.872  11.500   5.474
 5423POPC   PO469996  26.524  11.122   5.349
 5423POPC   GL169997  26.301  11.192   5.762
 5423POPC   GL269998  26.164  11.530   5.893
 5423POPC   C1A69999  26.139  11.101   6.199
 5423POPC   D2A70000  25.896  11.251   6.568
 5423POPC   C3A70001  26.085  11.449   6.956
 5423POPC   C4A70002  26.140  11.115   7.245
 5423POPC   C1B70003  25.800  11.620   6.191
 5423POPC   C2B70004  25.629  11.675   6.638
 5423POPC   C3B70005  25.582  11.600   7.088
 5423POPC   C4B70006  25.729  11.330   7.437
 5424POPC   NC370007   9.577   5.855   5.363
 5424POPC   PO470008  10.199   6.078   5.375
 5424POPC   GL170009   9.981   5.844   5.676
 5424POPC   GL270010   9.825   6.180   5.778
 5424POPC   C1A70011   9.673   5.780   6.028
 5424POPC   D2A70012   9.753   5.909   6.434
 5424POPC   C3A70013   9.674   5.729   6.815
 5424POPC   C4A70014   9.701   5.905   7.225
 5424POPC   C1B70015  10.137   6.041   6.129
 5424POPC   C2B70016  10.224   6.050   6.590
 5424POPC   C3B70017  10.018   6.222   6.958
 5424POPC   C4B70018  10.054   6.325   7.382
 5425POPC   NC370019  22.953  26.859   5.324
 5425POPC   PO470020  23.313  27.408   5.436
 5425POPC   GL170021  23.175  27.157   5.856
 5425POPC   GL270022  22.959  26.840   5.826
 5425POPC   C1A70023  22.990  26.991   6.297
 5425POPC   D2A70024  22.759  27.009   6.680
 5425POPC   C3A70025  23.041  27.085   6.998
 5425POPC   C4A70026  23.044  26.990   7.416
 5425POPC   C1B70027  22.864  26.525   6.160
 5425POPC   C2B70028  22.858  26.500   6.621
 5425POPC   C3B70029  22.878  26.602   7.058
 5425POPC   C4B70030  22.606  26.549   7.396
 5426POPC   NC370031   6.464  39.331   5.284
 5426POPC   PO470032   6.739  38.874   5.703
 5426POPC   GL170033   6.815  39.118   6.023
 5426POPC   GL270034   6.692  39.401   5.891
 5426POPC   C1A70035   6.592  39.239   6.373
 5426POPC   D2A70036   6.377  39.354   6.717
 5426POPC   C3A70037   6.631  39.191   7.029
 5426POPC   C4A70038   6.634  38.951   7.388
 5426POPC   C1B70039   6.967  39.573   6.238
 5426POPC   C2B70040   7.031  39.383   6.644
 5426POPC   C3B70041   7.011  39.534   7.050
 5426POPC   C4B70042   6.802  39.494   7.436
 5427POPC   NC370043  23.094  36.550   5.509
 5427POPC   PO470044  23.086  37.214   5.490
 5427POPC   GL170045  22.864  36.929   5.779
 5427POPC   GL270046  23.099  36.799   5.949
 5427POPC   C1A70047  22.640  36.810   6.171
 5427POPC   D2A70048  22.774  36.964   6.601
 5427POPC   C3A70049  22.612  36.774   6.982
 5427POPC   C4A70050  22.756  36.951   7.410
 5427POPC   C1B70051  23.089  36.595   6.321
 5427POPC   C2B70052  23.283  36.754   6.663
 5427POPC   C3B70053  23.115  36.817   7.064
 5427POPC   C4B70054  22.894  36.475   7.280
 5428POPC   NC370055  10.734   1.054   5.260
 5428POPC   PO470056  10.121   1.046   5.642
 5428POPC   GL170057  10.512   1.175   5.839
 5428POPC   GL270058  10.879   1.046   5.748
 5428POPC   C1A70059  10.397   1.272   6.272
 5428POPC   D2A70060  10.164   1.188   6.666
 5428POPC   C3A70061  10.356   1.414   6.988
 5428POPC   C4A70062  10.825   1.547   7.040
 5428POPC   C1B70063  10.844   0.982   6.185
 5428POPC   C2B70064  10.709   1.053   6.617
 5428POPC   C3B70065  10.648   1.013   7.046
 5428POPC   C4B70066  10.613   0.735   7.369
 5429POPC   NC370067  34.886  23.624   5.433
 5429POPC   PO470068  34.615  24.235   5.542
 5429POPC   GL170069  34.459  24.045   5.902
 5429POPC   GL270070  34.637  23.732   5.867
 5429POPC   C1A70071  34.412  24.092   6.353
 5429POPC   D2A70072  34.392  24.191   6.787
 5429POPC   C3A70073  34.529  23.883   7.086
 5429POPC   C4A70074  34.639  23.918   7.548
 5429POPC   C1B70075  34.485  23.590   6.243
 5429POPC   C2B70076  34.662  23.560   6.631
 5429POPC   C3B70077  34.461  23.355   6.971
 5429POPC   C4B70078  34.359  23.501   7.369
 5430POPC   NC370079  21.862  20.995   5.481
 5430POPC   PO470080  21.403  20.469   5.393
 5430POPC   GL170081  21.462  20.654   5.763
 5430POPC   GL270082  21.788  20.503   5.824
 5430POPC   C1A70083  21.281  20.573   6.166
 5430POPC   D2A70084  21.372  20.771   6.550
 5430POPC   C3A70085  21.404  20.601   6.940
 5430POPC   C4A70086  21.529  20.793   7.326
 5430POPC   C1B70087  21.956  20.443   6.255
 5430POPC   C2B70088  21.824  20.393   6.700
 5430POPC   C3B70089  21.827  20.407   7.144
 5430POPC   C4B70090  21.790  20.436   7.586
 5431POPC   NC370091  43.548  32.316   5.494
 5431POPC   PO470092  42.909  32.383   5.491
 5431POPC   GL170093  43.170  32.312   5.872
 5431POPC   GL270094  43.418  32.556   5.919
 5431POPC   C1A70095  43.189  32.289   6.336
 5431POPC   D2A70096  42.902  31.997   6.527
 5431POPC   C3A70097  42.909  31.845   6.942
 5431POPC   C4A70098  42.971  32.055   7.298
 5431POPC   C1B70099  43.683  32.339   6.210
 5431POPC   C2B70100  43.616  32.346   6.656
 5431POPC   C3B70101  43.230  32.276   6.895
 5431POPC   C4B70102  43.007  32.580   7.171
 5432POPC   NC370103  40.116  31.863   5.147
 5432POPC   PO470104  40.215  31.389   5.639
 5432POPC   GL170105  39.904  31.430   5.907
 5432POPC   GL270106  39.936  31.750   5.891
 5432POPC   C1A70107  39.789  31.388   6.309
 5432POPC   D2A70108  39.780  31.109   6.652
 5432POPC   C3A70109  39.771  31.392   6.980
 5432POPC   C4A70110  39.988  31.340   7.318
 5432POPC   C1B70111  40.242  31.627   6.245
 5432POPC   C2B70112  40.187  31.487   6.664
 5432POPC   C3B70113  40.297  31.637   7.055
 5432POPC   C4B70114  39.935  31.854   7.246
 5433POPC   NC370115   5.581  38.585   5.338
 5433POPC   PO470116   4.880  38.681   5.343
 5433POPC   GL170117   5.058  38.459   5.723
 5433POPC   GL270118   5.416  38.508   5.833
 5433POPC   C1A70119   5.049  38.251   6.132
 5433POPC   D2A70120   4.759  38.292   6.491
 5433POPC   C3A70121   4.918  38.258   6.917
 5433POPC   C4A70122   5.126  38.118   7.267
 5433POPC   C1B70123   5.290  38.673   6.254
 5433POPC   C2B70124   5.403  38.485   6.629
 5433POPC   C3B70125   5.467  38.429   7.034
 5433POPC   C4B70126   5.204  38.642   7.304
 5434POPC   NC370127  18.662  14.555   5.217
 5434POPC   PO470128  19.246  14.170   5.322
 5434POPC   GL170129  19.127  14.291   5.714
 5434POPC   GL270130  18.853  14.319   5.635
 5434POPC   C1A70131  19.241  14.459   6.098
 5434POPC   D2A70132  19.094  14.355   6.485
 5434POPC   C3A70133  19.267  14.394   6.873
 5434POPC   C4A70134  19.054  14.642   7.139
 5434POPC   C1B70135  18.808  14.130   6.080
 5434POPC   C2B70136  18.596  14.260   6.468
 5434POPC   C3B70137  18.759  14.237   6.884
 5434POPC   C4B70138  18.589  13.995   7.166
 5435POPC   NC370139   6.290   8.040   5.352
 5435POPC   PO470140   6.915   8.234   5.366
 5435POPC   GL170141   6.592   8.349   5.679
 5435POPC   GL270142   6.759   8.181   5.882
 5435POPC   C1A70143   6.415   8.457   6.126
 5435POPC   D2A70144   6.361   8.237   6.532
 5435POPC   C3A70145   6.419   8.345   6.951
 5435POPC   C4A70146   6.086   8.453   7.232
 5435POPC   C1B70147   6.929   8.151   6.237
 5435POPC   C2B70148   7.038   8.303   6.594
 5435POPC   C3B70149   7.021   8.100   6.957
 5435POPC   C4B70150   6.959   8.212   7.342
 5436POPC   NC370151  32.760  32.544   5.705
 5436POPC   PO470152  33.361  32.474   5.384
 5436POPC   GL170153  33.263  32.353   5.768
 5436POPC   GL270154  33.138  32.007   5.752
 5436POPC   C1A70155  33.251  32.435   6.173
 5436POPC   D2A70156  33.382  32.210   6.512
 5436POPC   C3A70157  33.265  32.409   6.874
 5436POPC   C4A70158  33.204  32.262   7.271
 5436POPC   C1B70159  32.971  32.014   6.161
 5436POPC   C2B70160  32.861  32.285   6.537
 5436POPC   C3B70161  32.734  32.380   6.990
 5436POPC   C4B70162  32.631  32.139   7.385
 5437POPC   NC370163   6.457  41.854   5.339
 5437POPC   PO470164   6.431  41.205   5.399
 5437POPC   GL170165   6.683  41.434   5.709
 5437POPC   GL270166   7.033  41.317   5.707
 5437POPC   C1A70167   6.772  41.665   6.113
 5437POPC   D2A70168   6.599  41.469   6.521
 5437POPC   C3A70169   6.651  41.685   6.912
 5437POPC   C4A70170   7.046  41.871   7.010
 5437POPC   C1B70171   6.927  41.186   6.126
 5437POPC   C2B70172   6.871  41.009   6.530
 5437POPC   C3B70173   6.908  41.227   6.904
 5437POPC   C4B70174   6.767  41.124   7.286
 5438POPC   NC370175  12.878  33.056   5.437
 5438POPC   PO470176  13.136  32.475   5.139
 5438POPC   GL170177  12.951  32.603   5.636
 5438POPC   GL270178  12.625  32.521   5.827
 5438POPC   C1A70179  12.925  32.811   6.111
 5438POPC   D2A70180  12.682  33.068   6.435
 5438POPC   C3A70181  12.727  33.140   6.909
 5438POPC   C4A70182  12.442  32.998   7.284
 5438POPC   C1B70183  12.472  32.587   6.268
 5438POPC   C2B70184  12.680  32.609   6.672
 5438POPC   C3B70185  12.798  32.686   7.102
 5438POPC   C4B70186  13.093  32.689   7.438
 5439POPC   NC370187  38.177  30.334   5.237
 5439POPC   PO470188  38.602  29.775   5.232
 5439POPC   GL170189  38.473  29.852   5.668
 5439POPC   GL270190  38.205  30.105   5.714
 5439POPC   C1A70191  38.407  29.779   6.128
 5439POPC   D2A70192  38.631  29.819   6.542
 5439POPC   C3A70193  38.510  30.086   6.863
 5439POPC   C4A70194  38.674  30.159   7.225
 5439POPC   C1B70195  38.074  30.241   6.132
 5439POPC   C2B70196  38.148  30.007   6.517
 5439POPC   C3B70197  38.270  29.628   6.842
 5439POPC   C4B70198  38.363  29.754   7.281
 5440POPC   NC370199  12.510  20.767   5.544
 5440POPC   PO470200  12.996  20.369   5.466
 5440POPC   GL170201  12.748  20.395   5.829
 5440POPC   GL270202  12.855  20.739   5.935
 5440POPC   C1A70203  12.606  20.382   6.240
 5440POPC   D2A70204  12.593  20.755   6.497
 5440POPC   C3A70205  12.678  20.673   6.935
 5440POPC   C4A70206  12.941  20.347   7.122
 5440POPC   C1B70207  13.274  20.873   6.104
 5440POPC   C2B70208  13.396  20.847   6.537
 5440POPC   C3B70209  13.212  20.772   6.945
 5440POPC   C4B70210  13.426  21.017   7.241
 5441POPC   NC370211  20.360   3.258   5.492
 5441POPC   PO470212  20.850   2.875   5.253
 5441POPC   GL170213  20.665   2.842   5.692
 5441POPC   GL270214  20.794   3.143   5.789
 5441POPC   C1A70215  20.389   2.629   6.059
 5441POPC   D2A70216  20.279   2.465   6.498
 5441POPC   C3A70217  20.584   2.497   6.843
 5441POPC   C4A70218  20.674   2.635   7.267
 5441POPC   C1B70219  20.630   3.055   6.223
 5441POPC   C2B70220  20.770   2.952   6.659
 5441POPC   C3B70221  20.779   3.106   7.084
 5441POPC   C4B70222  20.959   3.022   7.483
 5442POPC   NC370223   7.575   1.620   5.352
 5442POPC   PO470224   7.159   1.117   5.475
 5442POPC   GL170225   7.471   1.148   5.777
 5442POPC   GL270226   7.365   0.865   5.961
 5442POPC   C1A70227   7.507   1.319   6.189
 5442POPC   D2A70228   7.583   1.188   6.609
 5442POPC   C3A70229   7.531   1.510   6.881
 5442POPC   C4A70230   7.467   1.315   7.234
 5442POPC   C1B70231   7.702   0.828   6.248
 5442POPC   C2B70232   7.989   0.836   6.591
 5442POPC   C3B70233   7.839   0.887   6.970
 5442POPC   C4B70234   7.636   0.843   7.324
 5443POPC   NC370235  41.948  26.838   5.536
 5443POPC   PO470236  41.412  27.161   5.375
 5443POPC   GL170237  41.490  26.899   5.776
 5443POPC   GL270238  41.559  26.518   5.701
 5443POPC   C1A70239  41.339  26.807   6.239
 5443POPC   D2A70240  41.314  26.745   6.702
 5443POPC   C3A70241  41.530  27.054   6.961
 5443POPC   C4A70242  41.927  26.961   7.132
 5443POPC   C1B70243  41.780  26.560   6.108
 5443POPC   C2B70244  41.704  26.460   6.545
 5443POPC   C3B70245  41.737  26.484   7.011
 5443POPC   C4B70246  41.359  26.660   7.219
 5444POPC   NC370247  10.940  35.862   5.520
 5444POPC   PO470248  11.465  36.123   5.354
 5444POPC   GL170249  11.375  36.059   5.779
 5444POPC   GL270250  11.281  35.734   5.919
 5444POPC   C1A70251  11.292  36.221   6.202
 5444POPC   D2A70252  11.013  36.153   6.511
 5444POPC   C3A70253  11.273  36.205   6.868
 5444POPC   C4A70254  11.219  36.054   7.274
 5444POPC   C1B70255  11.663  35.862   6.158
 5444POPC   C2B70256  11.674  36.045   6.545
 5444POPC   C3B70257  11.656  35.881   6.948
 5444POPC   C4B70258  11.736  35.997   7.363
 5445POPC   NC370259   7.843  21.079   5.324
 5445POPC   PO470260   8.420  21.417   5.475
 5445POPC   GL170261   8.393  21.179   5.829
 5445POPC   GL270262   8.044  21.128   5.786
 5445POPC   C1A70263   8.241  21.330   6.241
 5445POPC   D2A70264   8.216  21.681   6.540
 5445POPC   C3A70265   8.105  21.564   6.940
 5445POPC   C4A70266   8.282  21.654   7.325
 5445POPC   C1B70267   7.801  21.083   6.150
 5445POPC   C2B70268   7.910  21.037   6.570
 5445POPC   C3B70269   8.049  21.053   6.974
 5445POPC   C4B70270   7.937  21.268   7.360
 5446POPC   NC370271  40.154  35.138   5.656
 5446POPC   PO470272  39.442  35.214   5.605
 5446POPC   GL170273  39.787  35.422   5.887
 5446POPC   GL270274  39.892  35.179   6.084
 5446POPC   C1A70275  39.953  35.661   6.227
 5446POPC   D2A70276  39.715  35.690   6.632
 5446POPC   C3A70277  39.906  35.671   7.021
 5446POPC   C4A70278  40.057  35.359   7.267
 5446POPC   C1B70279  39.643  34.898   6.285
 5446POPC   C2B70280  39.521  35.104   6.620
 5446POPC   C3B70281  39.701  35.183   6.963
 5446POPC   C4B70282  39.713  34.987   7.345
 5447POPC   NC370283  15.106  22.341   5.423
 5447POPC   PO470284  15.112  21.736   5.182
 5447POPC   GL170285  15.179  21.880   5.623
 5447POPC   GL270286  15.520  22.066   5.658
 5447POPC   C1A70287  14.991  21.932   6.055
 5447POPC   D2A70288  14.908  21.779   6.490
 5447POPC   C3A70289  15.059  21.954   6.871
 5447POPC   C4A70290  15.188  22.218   7.232
 5447POPC   C1B70291  15.341  22.304   6.028
 5447POPC   C2B70292  15.222  22.216   6.449
 5447POPC   C3B70293  15.479  22.233   6.815
 5447POPC   C4B70294  15.722  22.445   7.142
 5448POPC   NC370295  15.408  37.569   5.488
 5448POPC   PO470296  14.711  37.613   5.362
 5448POPC   GL170297  14.969  37.657   5.750
 5448POPC   GL270298  15.241  37.937   5.794
 5448POPC   C1A70299  14.987  37.728   6.186
 5448POPC   D2A70300  14.958  37.965   6.534
 5448POPC   C3A70301  15.026  37.810   6.952
 5448POPC   C4A70302  15.230  37.445   7.096
 5448POPC   C1B70303  15.407  38.055   6.235
 5448POPC   C2B70304  15.480  37.991   6.693
 5448POPC   C3B70305  15.558  37.842   7.129
 5448POPC   C4B70306  15.637  37.921   7.575
 5449POPC   NC370307  32.028  17.323   5.080
 5449POPC   PO470308  31.798  17.881   5.271
 5449POPC   GL170309  32.061  17.658   5.642
 5449POPC   GL270310  31.932  17.366   5.806
 5449POPC   C1A70311  32.233  17.654   6.115
 5449POPC   D2A70312  32.418  17.573   6.551
 5449POPC   C3A70313  32.433  17.820   6.931
 5449POPC   C4A70314  32.409  17.895   7.393
 5449POPC   C1B70315  31.913  17.109   6.164
 5449POPC   C2B70316  31.761  16.978   6.557
 5449POPC   C3B70317  31.793  17.191   6.954
 5449POPC   C4B70318  32.179  17.413   7.094
 5450POPC   NC370319  11.711  38.275   5.294
 5450POPC   PO470320  12.368  38.250   5.256
 5450POPC   GL170321  12.192  38.408   5.707
 5450POPC   GL270322  11.849  38.286   5.802
 5450POPC   C1A70323  12.091  38.633   6.168
 5450POPC   D2A70324  12.139  38.796   6.649
 5450POPC   C3A70325  11.869  38.648   7.006
 5450POPC   C4A70326  11.889  38.499   7.424
 5450POPC   C1B70327  11.696  38.289   6.240
 5450POPC   C2B70328  11.801  38.277   6.670
 5450POPC   C3B70329  11.652  38.180   7.105
 5450POPC   C4B70330  11.672  38.077   7.586
 5451POPC   NC370331   4.877  26.240   5.408
 5451POPC   PO470332   5.045  25.536   5.301
 5451POPC   GL170333   4.888  25.605   5.774
 5451POPC   GL270334   4.899  25.968   5.855
 5451POPC   C1A70335   5.035  25.656   6.234
 5451POPC   D2A70336   5.148  25.596   6.678
 5451POPC   C3A70337   5.050  25.919   6.959
 5451POPC   C4A70338   5.309  26.029   7.267
 5451POPC   C1B70339   5.236  26.145   6.175
 5451POPC   C2B70340   5.329  26.269   6.637
 5451POPC   C3B70341   5.245  26.485   7.060
 5451POPC   C4B70342   4.934  26.353   7.398
 5452POPC   NC370343  31.831   8.879   5.377
 5452POPC   PO470344  31.467   9.339   5.601
 5452POPC   GL170345  31.726   9.109   5.836
 5452POPC   GL270346  31.724   8.774   5.867
 5452POPC   C1A70347  31.615   9.140   6.254
 5452POPC   D2A70348  31.201   9.291   6.372
 5452POPC   C3A70349  31.098   9.222   6.805
 5452POPC   C4A70350  31.186   9.118   7.220
 5452POPC   C1B70351  31.919   8.730   6.275
 5452POPC   C2B70352  31.960   8.840   6.721
 5452POPC   C3B70353  31.628   8.858   7.040
 5452POPC   C4B70354  31.266   8.603   7.152
 5453POPC   NC370355  29.810   3.833   5.374
 5453POPC   PO470356  30.430   3.631   5.467
 5453POPC   GL170357  30.120   3.730   5.815
 5453POPC   GL270358  29.722   3.744   5.897
 5453POPC   C1A70359  30.103   3.799   6.258
 5453POPC   D2A70360  29.740   3.839   6.494
 5453POPC   C3A70361  29.697   3.754   6.919
 5453POPC   C4A70362  29.927   3.455   7.153
 5453POPC   C1B70363  29.766   3.390   6.235
 5453POPC   C2B70364  29.824   3.210   6.668
 5453POPC   C3B70365  29.676   3.042   7.076
 5453POPC   C4B70366  29.603   3.180   7.539
 5454POPC   NC370367  41.226  16.277   5.503
 5454POPC   PO470368  41.598  15.718   5.525
 5454POPC   GL170369  41.679  15.889   5.922
 5454POPC   GL270370  41.580  16.212   5.942
 5454POPC   C1A70371  41.796  15.821   6.360
 5454POPC   D2A70372  41.918  15.744   6.751
 5454POPC   C3A70373  41.733  15.978   7.038
 5454POPC   C4A70374  41.678  15.822   7.437
 5454POPC   C1B70375  41.322  16.023   6.308
 5454POPC   C2B70376  41.288  16.074   6.779
 5454POPC   C3B70377  41.233  15.950   7.209
 5454POPC   C4B70378  41.155  15.872   7.663
 5455POPC   NC370379  38.689  41.220   5.279
 5455POPC   PO470380  39.182  40.691   5.438
 5455POPC   GL170381  39.403  40.697   5.840
 5455POPC   GL270382  39.647  40.495   5.788
 5455POPC   C1A70383  39.393  40.734   6.290
 5455POPC   D2A70384  39.115  41.001   6.579
 5455POPC   C3A70385  39.016  40.925   7.025
 5455POPC   C4A70386  39.246  40.783   7.373
 5455POPC   C1B70387  39.711  40.299   6.178
 5455POPC   C2B70388  39.697  40.419   6.615
 5455POPC   C3B70389  39.562  40.464   7.057
 5455POPC   C4B70390  39.647  40.505   7.509
 5456POPC   NC370391  37.536  26.301   5.483
 5456POPC   PO470392  38.079  25.937   5.427
 5456POPC   GL170393  37.775  25.953   5.763
 5456POPC   GL270394  37.471  25.807   5.627
 5456POPC   C1A70395  37.653  26.161   6.150
 5456POPC   D2A70396  37.465  26.390   6.472
 5456POPC   C3A70397  37.442  26.200   6.880
 5456POPC   C4A70398  37.735  26.046   7.197
 5456POPC   C1B70399  37.416  25.728   6.080
 5456POPC   C2B70400  37.569  25.781   6.528
 5456POPC   C3B70401  37.433  25.690   6.970
 5456POPC   C4B70402  37.313  25.791   7.424
 5457POPC   NC370403  27.244   3.482   5.171
 5457POPC   PO470404  26.808   3.876   5.548
 5457POPC   GL170405  26.923   3.913   5.929
 5457POPC   GL270406  26.720   3.634   5.990
 5457POPC   C1A70407  27.045   3.849   6.349
 5457POPC   D2A70408  27.092   3.465   6.507
 5457POPC   C3A70409  26.931   3.391   6.886
 5457POPC   C4A70410  27.176   3.250   7.205
 5457POPC   C1B70411  26.667   3.318   6.268
 5457POPC   C2B70412  26.433   3.326   6.660
 5457POPC   C3B70413  26.461   3.498   7.075
 5457POPC   C4B70414  26.793   3.792   7.195
 5458POPC   NC370415   1.650   8.371   5.430
 5458POPC   PO470416   0.928   8.213   5.333
 5458POPC   GL170417   1.033   8.302   5.786
 5458POPC   GL270418   1.396   8.323   5.876
 5458POPC   C1A70419   1.006   8.392   6.244
 5458POPC   D2A70420   1.142   8.247   6.658
 5458POPC   C3A70421   1.166   8.452   7.071
 5458POPC   C4A70422   0.930   8.298   7.451
 5458POPC   C1B70423   1.415   8.066   6.248
 5458POPC   C2B70424   1.537   7.877   6.638
 5458POPC   C3B70425   1.421   7.828   7.080
 5458POPC   C4B70426   1.388   8.113   7.434
 5459POPC   NC370427  37.113  43.657   5.593
 5459POPC   PO470428  36.635  44.137   5.428
 5459POPC   GL170429  36.726  43.894   5.834
 5459POPC   GL270430  36.727  43.489   5.893
 5459POPC   C1A70431  36.821  44.066   6.269
 5459POPC   D2A70432  37.139  44.250   6.563
 5459POPC   C3A70433  37.205  43.988   6.875
 5459POPC   C4A70434  37.082  43.955   7.262
 5459POPC   C1B70435  36.808  43.532   6.322
 5459POPC   C2B70436  36.773  43.725   6.723
 5459POPC   C3B70437  36.681  43.678   7.158
 5459POPC   C4B70438  36.875  43.627   7.597
 5460POPC   NC370439  18.000  18.745   5.483
 5460POPC   PO470440  18.381  18.251   5.440
 5460POPC   GL170441  18.338  18.440   5.833
 5460POPC   GL270442  18.688  18.598   5.863
 5460POPC   C1A70443  18.187  18.194   6.216
 5460POPC   D2A70444  18.033  18.276   6.646
 5460POPC   C3A70445  18.154  18.068   7.039
 5460POPC   C4A70446  18.116  18.255   7.439
 5460POPC   C1B70447  18.712  18.203   6.109
 5460POPC   C2B70448  18.596  18.236   6.529
 5460POPC   C3B70449  18.684  18.052   6.898
 5460POPC   C4B70450  18.633  18.207   7.276
 5461POPC   NC370451  20.947  40.862   5.466
 5461POPC   PO470452  20.566  40.305   5.232
 5461POPC   GL170453  20.570  40.544   5.663
 5461POPC   GL270454  20.421  40.851   5.783
 5461POPC   C1A70455  20.464  40.478   6.127
 5461POPC   D2A70456  20.745  40.561   6.485
 5461POPC   C3A70457  20.720  40.715   6.920
 5461POPC   C4A70458  20.895  40.589   7.325
 5461POPC   C1B70459  20.739  40.943   6.122
 5461POPC   C2B70460  20.734  41.206   6.492
 5461POPC   C3B70461  20.877  41.424   6.851
 5461POPC   C4B70462  20.930  41.127   7.181
 5462POPC   NC370463  13.400  10.994   5.544
 5462POPC   PO470464  13.898  10.620   5.198
 5462POPC   GL170465  13.720  10.514   5.678
 5462POPC   GL270466  13.435  10.639   5.893
 5462POPC   C1A70467  13.682  10.301   6.163
 5462POPC   D2A70468  13.475  10.291   6.607
 5462POPC   C3A70469  13.719  10.190   7.017
 5462POPC   C4A70470  13.804  10.331   7.472
 5462POPC   C1B70471  13.506  10.769   6.342
 5462POPC   C2B70472  13.550  11.026   6.711
 5462POPC   C3B70473  13.377  10.905   7.073
 5462POPC   C4B70474  13.484  10.713   7.443
 5463POPC   NC370475  33.322  29.791   5.389
 5463POPC   PO470476  32.769  30.085   5.067
 5463POPC   GL170477  32.915  30.089   5.572
 5463POPC   GL270478  33.255  30.033   5.816
 5463POPC   C1A70479  32.826  29.936   6.022
 5463POPC   D2A70480  33.072  29.886   6.401
 5463POPC   C3A70481  32.892  30.066   6.770
 5463POPC   C4A70482  32.955  29.964   7.187
 5463POPC   C1B70483  33.417  29.683   6.069
 5463POPC   C2B70484  33.513  29.642   6.513
 5463POPC   C3B70485  33.401  29.833   6.940
 5463POPC   C4B70486  33.321  29.630   7.365
 5464POPC   NC370487  13.249   0.337   5.564
 5464POPC   PO470488  12.696   0.571   5.395
 5464POPC   GL170489  12.838   0.556   5.809
 5464POPC   GL270490  13.108   0.791   5.800
 5464POPC   C1A70491  12.666   0.475   6.230
 5464POPC   D2A70492  12.440   0.330   6.604
 5464POPC   C3A70493  12.673   0.235   6.986
 5464POPC   C4A70494  12.701   0.403   7.421
 5464POPC   C1B70495  13.162   0.588   6.217
 5464POPC   C2B70496  12.965   0.550   6.652
 5464POPC   C3B70497  13.095   0.524   7.082
 5464POPC   C4B70498  13.166   0.115   7.291
 5465POPC   NC370499  11.836  20.977   5.735
 5465POPC   PO470500  12.211  20.385   5.534
 5465POPC   GL170501  11.952  20.486   5.873
 5465POPC   GL270502  12.251  20.671   6.003
 5465POPC   C1A70503  11.853  20.497   6.330
 5465POPC   D2A70504  12.158  20.542   6.630
 5465POPC   C3A70505  12.347  20.252   6.833
 5465POPC   C4A70506  12.410  20.338   7.240
 5465POPC   C1B70507  12.113  20.963   6.336
 5465POPC   C2B70508  11.860  20.941   6.707
 5465POPC   C3B70509  12.062  20.788   7.082
 5465POPC   C4B70510  12.305  20.798   7.451
 5466POPC   NC370511  33.119  31.639   5.388
 5466POPC   PO470512  33.141  30.950   5.404
 5466POPC   GL170513  33.183  31.267   5.766
 5466POPC   GL270514  32.903  31.509   5.825
 5466POPC   C1A70515  33.238  31.317   6.218
 5466POPC   D2A70516  32.964  31.219   6.594
 5466POPC   C3A70517  33.052  31.443   6.953
 5466POPC   C4A70518  33.286  31.384   7.295
 5466POPC   C1B70519  32.779  31.526   6.223
 5466POPC   C2B70520  32.892  31.749   6.579
 5466POPC   C3B70521  33.009  31.955   6.918
 5466POPC   C4B70522  33.017  31.802   7.335
 5467POPC   NC370523  40.619  23.649   5.423
 5467POPC   PO470524  40.842  24.274   5.307
 5467POPC   GL170525  40.936  23.972   5.639
 5467POPC   GL270526  40.630  24.064   5.780
 5467POPC   C1A70527  40.895  23.673   6.034
 5467POPC   D2A70528  40.610  23.473   6.333
 5467POPC   C3A70529  40.673  23.520   6.787
 5467POPC   C4A70530  40.761  23.480   7.240
 5467POPC   C1B70531  40.459  23.950   6.159
 5467POPC   C2B70532  40.371  23.891   6.585
 5467POPC   C3B70533  40.319  24.193   6.886
 5467POPC   C4B70534  40.533  24.282   7.268
 5468POPC   NC370535   1.425  21.011   5.200
 5468POPC   PO470536   1.037  20.544   5.244
 5468POPC   GL170537   1.023  20.859   5.600
 5468POPC   GL270538   1.325  21.039   5.720
 5468POPC   C1A70539   0.937  20.810   6.064
 5468POPC   D2A70540   1.185  20.636   6.424
 5468POPC   C3A70541   1.100  20.624   6.875
 5468POPC   C4A70542   1.020  20.614   7.316
 5468POPC   C1B70543   1.497  21.017   6.170
 5468POPC   C2B70544   1.504  21.010   6.648
 5468POPC   C3B70545   1.651  20.772   7.005
 5468POPC   C4B70546   1.498  20.735   7.430
 5469POPC   NC370547  42.603  42.135   5.402
 5469POPC   PO470548  42.056  42.481   5.205
 5469POPC   GL170549  42.153  42.501   5.718
 5469POPC   GL270550  42.460  42.305   5.851
 5469POPC   C1A70551  42.321  42.666   6.156
 5469POPC   D2A70552  42.602  42.404   6.473
 5469POPC   C3A70553  42.446  42.380   6.924
 5469POPC   C4A70554  42.296  42.595   7.292
 5469POPC   C1B70555  42.185  41.972   6.025
 5469POPC   C2B70556  41.928  41.933   6.405
 5469POPC   C3B70557  42.021  42.001   6.847
 5469POPC   C4B70558  42.236  42.017   7.275
 5470POPC   NC370559  44.920   1.541   5.240
 5470POPC   PO470560  44.944   2.258   5.233
 5470POPC   GL170561  44.858   2.183   5.702
 5470POPC   GL270562  44.775   1.798   5.702
 5470POPC   C1A70563  44.745   2.233   6.176
 5470POPC   D2A70564  44.599   1.929   6.512
 5470POPC   C3A70565  44.678   2.115   6.930
 5470POPC   C4A70566  44.539   1.919   7.296
 5470POPC   C1B70567  44.937   1.765   6.138
 5470POPC   C2B70568   0.090   1.994   6.513
 5470POPC   C3B70569   0.017   1.767   6.841
 5470POPC   C4B70570   0.116   1.752   7.226
 5471POPC   NC370571   3.929  39.754   5.588
 5471POPC   PO470572   4.575  40.139   5.504
 5471POPC   GL170573   4.367  39.947   5.843
 5471POPC   GL270574   4.277  39.606   5.932
 5471POPC   C1A70575   4.488  39.968   6.252
 5471POPC   D2A70576   4.465  40.261   6.524
 5471POPC   C3A70577   4.397  40.276   6.961
 5471POPC   C4A70578   4.405  40.207   7.390
 5471POPC   C1B70579   4.155  39.621   6.359
 5471POPC   C2B70580   4.267  39.815   6.728
 5471POPC   C3B70581   4.498  39.776   7.100
 5471POPC   C4B70582   4.208  39.742   7.429
 5472POPC   NC370583  38.195  21.977   5.153
 5472POPC   PO470584  38.151  21.374   5.510
 5472POPC   GL170585  38.403  21.529   5.875
 5472POPC   GL270586  38.572  21.215   5.999
 5472POPC   C1A70587  38.499  21.583   6.341
 5472POPC   D2A70588  38.253  21.463   6.743
 5472POPC   C3A70589  38.522  21.366   7.118
 5472POPC   C4A70590  38.833  21.321   7.442
 5472POPC   C1B70591  38.152  21.188   6.191
 5472POPC   C2B70592  37.957  21.055   6.575
 5472POPC   C3B70593  38.067  21.018   7.003
 5472POPC   C4B70594  38.044  21.337   7.278
 5473POPC   NC370595  28.104   1.897   5.482
 5473POPC   PO470596  28.722   2.219   5.291
 5473POPC   GL170597  28.545   2.035   5.700
 5473POPC   GL270598  28.368   2.353   5.779
 5473POPC   C1A70599  28.432   1.724   6.112
 5473POPC   D2A70600  28.504   1.508   6.492
 5473POPC   C3A70601  28.355   1.651   6.902
 5473POPC   C4A70602  28.579   1.790   7.284
 5473POPC   C1B70603  28.265   2.184   6.168
 5473POPC   C2B70604  28.121   1.947   6.538
 5473POPC   C3B70605  28.141   2.113   6.978
 5473POPC   C4B70606  28.069   2.490   7.219
 5474POPC   NC370607   4.885   4.382   5.419
 5474POPC   PO470608   5.497   4.550   5.258
 5474POPC   GL170609   5.273   4.543   5.723
 5474POPC   GL270610   4.902   4.715   5.789
 5474POPC   C1A70611   5.390   4.383   6.172
 5474POPC   D2A70612   5.571   4.210   6.575
 5474POPC   C3A70613   5.291   4.050   6.920
 5474POPC   C4A70614   5.315   4.369   7.278
 5474POPC   C1B70615   4.908   4.318   6.079
 5474POPC   C2B70616   5.001   4.209   6.517
 5474POPC   C3B70617   4.896   4.354   6.950
 5474POPC   C4B70618   4.884   4.114   7.333
 5475POPC   NC370619  11.422  15.633   5.184
 5475POPC   PO470620  11.224  16.371   5.207
 5475POPC   GL170621  11.105  16.280   5.638
 5475POPC   GL270622  11.421  16.125   5.751
 5475POPC   C1A70623  10.978  16.132   6.075
 5475POPC   D2A70624  10.993  15.823   6.442
 5475POPC   C3A70625  11.028  15.913   6.894
 5475POPC   C4A70626  11.052  15.800   7.321
 5475POPC   C1B70627  11.439  15.887   6.158
 5475POPC   C2B70628  11.472  15.963   6.608
 5475POPC   C3B70629  11.507  15.764   7.016
 5475POPC   C4B70630  11.632  16.051   7.320
 5476POPC   NC370631  44.695  36.499   5.418
 5476POPC   PO470632  44.397  37.129   5.474
 5476POPC   GL170633  44.564  36.870   5.805
 5476POPC   GL270634  44.455  36.558   5.903
 5476POPC   C1A70635  44.918  36.904   6.084
 5476POPC   D2A70636   0.166  37.011   6.473
 5476POPC   C3A70637  44.973  36.819   6.840
 5476POPC   C4A70638  44.956  36.819   7.272
 5476POPC   C1B70639  44.464  36.705   6.360
 5476POPC   C2B70640  44.462  36.738   6.853
 5476POPC   C3B70641  44.451  36.674   7.316
 5476POPC   C4B70642  44.372  36.702   7.807
 5477POPC   NC370643   2.139   0.429   5.655
 5477POPC   PO470644   1.689   0.043   5.281
 5477POPC   GL170645   1.593   0.366   5.730
 5477POPC   GL270646   1.730   0.697   5.833
 5477POPC   C1A70647   1.773   0.380   6.237
 5477POPC   D2A70648   2.071   0.450   6.634
 5477POPC   C3A70649   1.970   0.233   7.058
 5477POPC   C4A70650   1.976   0.303   7.529
 5477POPC   C1B70651   1.707   0.880   6.263
 5477POPC   C2B70652   1.808   0.906   6.680
 5477POPC   C3B70653   1.991   0.753   7.070
 5477POPC   C4B70654   1.857   0.788   7.480
 5478POPC   NC370655   7.010  25.809   5.664
 5478POPC   PO470656   7.487  26.035   5.193
 5478POPC   GL170657   7.389  26.156   5.680
 5478POPC   GL270658   7.041  26.353   5.723
 5478POPC   C1A70659   7.487  25.945   6.136
 5478POPC   D2A70660   7.300  25.611   6.405
 5478POPC   C3A70661   7.366  25.692   6.829
 5478POPC   C4A70662   7.447  25.783   7.261
 5478POPC   C1B70663   7.118  26.286   6.151
 5478POPC   C2B70664   7.332  26.256   6.554
 5478POPC   C3B70665   7.337  26.225   7.005
 5478POPC   C4B70666   7.149  26.182   7.404
 5479POPC   NC370667  17.340   4.531   5.526
 5479POPC   PO470668  17.657   3.969   5.409
 5479POPC   GL170669  17.654   4.124   5.832
 5479POPC   GL270670  17.780   4.461   5.821
 5479POPC   C1A70671  17.400   4.129   6.224
 5479POPC   D2A70672  17.122   3.973   6.561
 5479POPC   C3A70673  17.299   4.086   6.973
 5479POPC   C4A70674  17.104   4.294   7.343
 5479POPC   C1B70675  17.938   4.326   6.229
 5479POPC   C2B70676  17.782   4.293   6.626
 5479POPC   C3B70677  17.860   4.223   7.036
 5479POPC   C4B70678  17.606   4.350   7.380
 5480POPC   NC370679  37.133  41.752   5.157
 5480POPC   PO470680  36.748  41.183   5.399
 5480POPC   GL170681  36.815  41.461   5.771
 5480POPC   GL270682  36.529  41.684   5.820
 5480POPC   C1A70683  36.910  41.616   6.211
 5480POPC   D2A70684  37.202  41.611   6.567
 5480POPC   C3A70685  37.051  41.459   6.960
 5480POPC   C4A70686  37.260  41.263   7.310
 5480POPC   C1B70687  36.409  41.608   6.272
 5480POPC   C2B70688  36.660  41.651   6.673
 5480POPC   C3B70689  36.679  41.900   7.082
 5480POPC   C4B70690  36.699  41.948   7.570
 5481POPC   NC370691  20.092  23.244   5.276
 5481POPC   PO470692  20.184  22.560   5.277
 5481POPC   GL170693  20.162  22.858   5.646
 5481POPC   GL270694  20.025  23.182   5.758
 5481POPC   C1A70695  20.228  22.879   6.105
 5481POPC   D2A70696  20.036  22.990   6.507
 5481POPC   C3A70697  20.107  22.786   6.882
 5481POPC   C4A70698  19.757  22.848   7.148
 5481POPC   C1B70699  19.762  23.200   6.133
 5481POPC   C2B70700  19.583  23.271   6.574
 5481POPC   C3B70701  19.599  23.320   7.037
 5481POPC   C4B70702  19.925  23.313   7.358
 5482POPC   NC370703  18.069  14.599   5.796
 5482POPC   PO470704  18.273  14.265   5.226
 5482POPC   GL170705  18.378  14.216   5.714
 5482POPC   GL270706  18.528  14.511   5.981
 5482POPC   C1A70707  18.251  14.067   6.136
 5482POPC   D2A70708  18.048  14.124   6.542
 5482POPC   C3A70709  18.253  14.307   6.886
 5482POPC   C4A70710  18.171  14.261   7.310
 5482POPC   C1B70711  18.769  14.736   6.311
 5482POPC   C2B70712  18.663  14.709   6.772
 5482POPC   C3B70713  18.546  14.595   7.229
 5482POPC   C4B70714  18.452  14.723   7.677
 5483POPC   NC370715  36.465  18.941   5.449
 5483POPC   PO470716  37.094  19.246   5.388
 5483POPC   GL170717  36.862  19.084   5.775
 5483POPC   GL270718  36.572  19.322   5.739
 5483POPC   C1A70719  36.759  18.841   6.194
 5483POPC   D2A70720  37.007  18.739   6.579
 5483POPC   C3A70721  36.874  18.914   6.968
 5483POPC   C4A70722  37.134  19.139   7.240
 5483POPC   C1B70723  36.480  19.265   6.114
 5483POPC   C2B70724  36.512  19.277   6.515
 5483POPC   C3B70725  36.491  19.305   6.938
 5483POPC   C4B70726  36.463  19.070   7.306
 5484POPC   NC370727   0.625  38.768   5.663
 5484POPC   PO470728   0.202  38.245   5.312
 5484POPC   GL170729   0.243  38.436   5.736
 5484POPC   GL270730   0.537  38.255   5.804
 5484POPC   C1A70731   0.383  38.510   6.208
 5484POPC   D2A70732   0.560  38.404   6.601
 5484POPC   C3A70733   0.341  38.340   6.947
 5484POPC   C4A70734   0.418  38.549   7.314
 5484POPC   C1B70735   0.627  38.051   6.224
 5484POPC   C2B70736   0.738  37.938   6.647
 5484POPC   C3B70737   0.825  38.152   7.051
 5484POPC   C4B70738   0.736  38.197   7.512
 5485POPC   NC370739  40.620  29.085   5.358
 5485POPC   PO470740  40.553  29.809   5.389
 5485POPC   GL170741  40.679  29.460   5.731
 5485POPC   GL270742  40.732  29.083   5.864
 5485POPC   C1A70743  40.820  29.477   6.173
 5485POPC   D2A70744  40.938  29.278   6.562
 5485POPC   C3A70745  41.022  29.370   6.991
 5485POPC   C4A70746  40.809  29.559   7.361
 5485POPC   C1B70747  41.052  28.912   6.212
 5485POPC   C2B70748  41.229  28.876   6.673
 5485POPC   C3B70749  40.946  28.856   7.035
 5485POPC   C4B70750  40.493  28.784   7.115
 5486POPC   NC370751  22.003  37.996   5.489
 5486POPC   PO470752  22.114  38.700   5.429
 5486POPC   GL170753  21.995  38.474   5.781
 5486POPC   GL270754  22.266  38.281   5.843
 5486POPC   C1A70755  22.095  38.535   6.254
 5486POPC   D2A70756  22.413  38.546   6.593
 5486POPC   C3A70757  22.299  38.601   6.997
 5486POPC   C4A70758  21.929  38.804   7.130
 5486POPC   C1B70759  22.047  38.034   6.145
 5486POPC   C2B70760  21.814  38.107   6.490
 5486POPC   C3B70761  21.980  38.238   6.854
 5486POPC   C4B70762  22.212  38.156   7.238
 5487POPC   NC370763  37.312  28.903   5.181
 5487POPC   PO470764  37.866  29.209   5.377
 5487POPC   GL170765  37.771  29.267   5.796
 5487POPC   GL270766  37.846  28.942   5.882
 5487POPC   C1A70767  37.532  29.369   6.178
 5487POPC   D2A70768  37.553  29.201   6.607
 5487POPC   C3A70769  37.690  29.395   6.998
 5487POPC   C4A70770  37.373  29.557   7.286
 5487POPC   C1B70771  37.997  29.170   6.247
 5487POPC   C2B70772  38.045  29.107   6.664
 5487POPC   C3B70773  37.959  28.957   7.051
 5487POPC   C4B70774  38.204  29.268   7.241
 5488POPC   NC370775  33.240   9.958   5.374
 5488POPC   PO470776  32.836   9.376   5.354
 5488POPC   GL170777  33.001   9.599   5.715
 5488POPC   GL270778  32.908   9.952   5.769
 5488POPC   C1A70779  33.059   9.626   6.175
 5488POPC   D2A70780  33.254   9.813   6.561
 5488POPC   C3A70781  33.238   9.624   6.965
 5488POPC   C4A70782  33.104   9.754   7.365
 5488POPC   C1B70783  32.687   9.985   6.183
 5488POPC   C2B70784  32.721   9.854   6.646
 5488POPC   C3B70785  32.718  10.039   7.086
 5488POPC   C4B70786  32.659   9.912   7.546
 5489POPC   NC370787  41.741  13.303   5.300
 5489POPC   PO470788  41.504  13.948   5.323
 5489POPC   GL170789  41.526  13.700   5.721
 5489POPC   GL270790  41.728  13.421   5.789
 5489POPC   C1A70791  41.355  13.764   6.122
 5489POPC   D2A70792  41.438  13.957   6.508
 5489POPC   C3A70793  41.482  13.760   6.911
 5489POPC   C4A70794  41.245  13.734   7.302
 5489POPC   C1B70795  41.608  13.338   6.193
 5489POPC   C2B70796  41.736  13.447   6.588
 5489POPC   C3B70797  41.672  13.278   6.974
 5489POPC   C4B70798  41.685  13.473   7.373
 5490POPC   NC370799   2.196  38.170   5.356
 5490POPC   PO470800   1.770  38.638   5.615
 5490POPC   GL170801   2.030  38.498   5.910
 5490POPC   GL270802   1.899  38.173   5.850
 5490POPC   C1A70803   2.122  38.651   6.331
 5490POPC   D2A70804   1.855  38.683   6.700
 5490POPC   C3A70805   2.024  38.650   7.118
 5490POPC   C4A70806   1.858  38.825   7.492
 5490POPC   C1B70807   2.044  38.155   6.284
 5490POPC   C2B70808   2.155  38.276   6.690
 5490POPC   C3B70809   2.280  38.216   7.099
 5490POPC   C4B70810   2.383  38.029   7.492
 5491POPC   NC370811   7.881  13.455   5.361
 5491POPC   PO470812   8.414  13.778   5.197
 5491POPC   GL170813   8.241  13.638   5.671
 5491POPC   GL270814   7.900  13.776   5.759
 5491POPC   C1A70815   8.354  13.561   6.141
 5491POPC   D2A70816   8.283  13.398   6.604
 5491POPC   C3A70817   8.305  13.664   6.977
 5491POPC   C4A70818   8.410  13.533   7.387
 5491POPC   C1B70819   7.848  13.497   6.112
 5491POPC   C2B70820   7.742  13.505   6.561
 5491POPC   C3B70821   7.803  13.489   7.021
 5491POPC   C4B70822   7.908  13.562   7.460
 5492POPC   NC370823  15.581   8.531   5.468
 5492POPC   PO470824  16.183   8.385   5.300
 5492POPC   GL170825  16.032   8.226   5.751
 5492POPC   GL270826  15.693   8.154   5.795
 5492POPC   C1A70827  15.949   8.032   6.198
 5492POPC   D2A70828  16.040   8.266   6.550
 5492POPC   C3A70829  16.010   8.374   6.961
 5492POPC   C4A70830  16.236   8.170   7.275
 5492POPC   C1B70831  15.451   8.254   6.153
 5492POPC   C2B70832  15.458   8.383   6.559
 5492POPC   C3B70833  15.526   8.196   6.961
 5492POPC   C4B70834  15.700   8.283   7.381
 5493POPC   NC370835  35.872  40.388   5.517
 5493POPC   PO470836  35.802  41.115   5.343
 5493POPC   GL170837  35.927  40.908   5.735
 5493POPC   GL270838  36.243  40.704   5.729
 5493POPC   C1A70839  36.014  40.926   6.190
 5493POPC   D2A70840  35.770  40.915   6.591
 5493POPC   C3A70841  36.005  41.042   6.977
 5493POPC   C4A70842  36.307  40.872   7.236
 5493POPC   C1B70843  36.341  40.515   6.136
 5493POPC   C2B70844  36.336  40.675   6.566
 5493POPC   C3B70845  36.405  40.462   6.965
 5493POPC   C4B70846  36.251  40.359   7.382
 5494POPC   NC370847  20.255  42.367   5.397
 5494POPC   PO470848  20.772  41.973   5.212
 5494POPC   GL170849  20.606  42.027   5.673
 5494POPC   GL270850  20.275  42.115   5.825
 5494POPC   C1A70851  20.612  42.068   6.161
 5494POPC   D2A70852  20.300  42.141   6.475
 5494POPC   C3A70853  20.458  42.211   6.903
 5494POPC   C4A70854  20.608  42.099   7.321
 5494POPC   C1B70855  20.234  42.501   6.104
 5494POPC   C2B70856  20.404  42.624   6.544
 5494POPC   C3B70857  20.225  42.685   6.948
 5494POPC   C4B70858  20.384  42.556   7.322
 5495POPC   NC370859  44.292  27.375   5.421
 5495POPC   PO470860  44.963  27.621   5.494
 5495POPC   GL170861  44.792  27.698   5.855
 5495POPC   GL270862  44.461  27.577   5.873
 5495POPC   C1A70863  44.848  27.582   6.250
 5495POPC   D2A70864  44.619  27.569   6.619
 5495POPC   C3A70865  44.919  27.579   6.930
 5495POPC   C4A70866  44.848  27.613   7.346
 5495POPC   C1B70867  44.426  27.270   6.225
 5495POPC   C2B70868  44.420  27.086   6.645
 5495POPC   C3B70869  44.541  27.248   7.049
 5495POPC   C4B70870  44.483  27.242   7.511
 5496POPC   NC370871  40.135  38.069   5.628
 5496POPC   PO470872  39.645  37.769   5.324
 5496POPC   GL170873  39.693  37.677   5.741
 5496POPC   GL270874  39.945  37.429   5.674
 5496POPC   C1A70875  39.865  37.746   6.170
 5496POPC   D2A70876  40.223  37.802   6.466
 5496POPC   C3A70877  40.218  37.809   6.935
 5496POPC   C4A70878  40.069  37.678   7.381
 5496POPC   C1B70879  40.195  37.385   6.030
 5496POPC   C2B70880  40.103  37.298   6.457
 5496POPC   C3B70881  40.042  37.335   6.897
 5496POPC   C4B70882  40.339  37.276   7.229
 5497POPC   NC370883  14.676  24.794   5.590
 5497POPC   PO470884  14.476  24.170   5.348
 5497POPC   GL170885  14.561  24.316   5.746
 5497POPC   GL270886  14.294  24.561   5.844
 5497POPC   C1A70887  14.651  24.405   6.171
 5497POPC   D2A70888  14.440  24.354   6.565
 5497POPC   C3A70889  14.474  24.616   6.870
 5497POPC   C4A70890  14.585  24.626   7.284
 5497POPC   C1B70891  14.111  24.363   6.179
 5497POPC   C2B70892  13.945  24.529   6.537
 5497POPC   C3B70893  13.963  24.406   6.924
 5497POPC   C4B70894  14.196  24.314   7.244
 5498POPC   NC370895   0.745   1.452   5.584
 5498POPC   PO470896   0.416   0.942   5.311
 5498POPC   GL170897   0.411   1.082   5.816
 5498POPC   GL270898   0.436   1.454   5.984
 5498POPC   C1A70899   0.401   1.060   6.274
 5498POPC   D2A70900   0.153   1.335   6.515
 5498POPC   C3A70901   0.322   1.375   6.921
 5498POPC   C4A70902   0.510   1.060   7.154
 5498POPC   C1B70903   0.808   1.376   6.236
 5498POPC   C2B70904   0.747   1.268   6.649
 5498POPC   C3B70905   0.826   1.466   7.022
 5498POPC   C4B70906   0.553   1.530   7.371
 5499POPC   NC370907  17.247  43.863   5.048
 5499POPC   PO470908  17.151  43.511   5.615
 5499POPC   GL170909  16.788  43.762   5.808
 5499POPC   GL270910  16.434  43.699   5.769
 5499POPC   C1A70911  16.765  43.970   6.225
 5499POPC   D2A70912  16.807  43.758   6.653
 5499POPC   C3A70913  16.924  43.937   7.064
 5499POPC   C4A70914  16.653  44.104   7.399
 5499POPC   C1B70915  16.340  43.642   6.239
 5499POPC   C2B70916  16.333  43.556   6.706
 5499POPC   C3B70917  16.518  43.609   7.139
 5499POPC   C4B70918  16.614  43.247   7.457
 5500POPC   NC370919  20.937  39.265   5.379
 5500POPC   PO470920  20.273  38.895   5.344
 5500POPC   GL170921  20.513  39.116   5.725
 5500POPC   GL270922  20.880  39.114   5.846
 5500POPC   C1A70923  20.584  39.375   6.149
 5500POPC   D2A70924  20.579  39.222   6.568
 5500POPC   C3A70925  20.742  39.284   6.964
 5500POPC   C4A70926  20.586  39.355   7.347
 5500POPC   C1B70927  20.908  38.954   6.276
 5500POPC   C2B70928  21.022  38.925   6.723
 5500POPC   C3B70929  21.071  38.946   7.190
 5500POPC   C4B70930  20.856  39.040   7.622
 5501POPC   NC370931   4.884  27.086   5.417
 5501POPC   PO470932   5.267  26.494   5.299
 5501POPC   GL170933   5.207  26.607   5.771
 5501POPC   GL270934   5.010  26.912   5.870
 5501POPC   C1A70935   5.248  26.675   6.255
 5501POPC   D2A70936   5.064  26.771   6.662
 5501POPC   C3A70937   5.319  26.997   6.966
 5501POPC   C4A70938   5.288  26.939   7.413
 5501POPC   C1B70939   4.744  26.968   6.241
 5501POPC   C2B70940   4.644  27.132   6.658
 5501POPC   C3B70941   4.822  27.129   7.068
 5501POPC   C4B70942   4.753  26.831   7.359
 5502POPC   NC370943  17.981   9.783   5.215
 5502POPC   PO470944  18.600   9.621   5.384
 5502POPC   GL170945  18.319   9.858   5.697
 5502POPC   GL270946  17.950   9.825   5.730
 5502POPC   C1A70947  18.201   9.675   6.147
 5502POPC   D2A70948  18.329   9.707   6.569
 5502POPC   C3A70949  18.492   9.404   6.864
 5502POPC   C4A70950  18.398   9.632   7.203
 5502POPC   C1B70951  17.772   9.938   6.153
 5502POPC   C2B70952  17.818   9.807   6.589
 5502POPC   C3B70953  18.053   9.962   6.968
 5502POPC   C4B70954  18.062   9.977   7.419
 5503POPC   NC370955  43.482  22.509   5.514
 5503POPC   PO470956  43.972  21.969   5.477
 5503POPC   GL170957  43.814  21.969   5.874
 5503POPC   GL270958  43.768  22.292   5.887
 5503POPC   C1A70959  43.887  22.031   6.322
 5503POPC   D2A70960  44.012  22.261   6.670
 5503POPC   C3A70961  43.794  22.140   7.027
 5503POPC   C4A70962  43.693  21.750   7.205
 5503POPC   C1B70963  43.790  22.541   6.247
 5503POPC   C2B70964  43.584  22.564   6.622
 5503POPC   C3B70965  43.407  22.499   7.001
 5503POPC   C4B70966  43.629  22.445   7.417
 5504POPC   NC370967  23.631  39.647   5.449
 5504POPC   PO470968  24.022  40.104   5.435
 5504POPC   GL170969  23.861  39.905   5.820
 5504POPC   GL270970  23.492  39.852   5.931
 5504POPC   C1A70971  23.907  39.697   6.193
 5504POPC   D2A70972  24.125  39.878   6.509
 5504POPC   C3A70973  23.898  39.806   6.872
 5504POPC   C4A70974  23.826  40.068   7.223
 5504POPC   C1B70975  23.398  39.940   6.414
 5504POPC   C2B70976  23.409  40.033   6.890
 5504POPC   C3B70977  23.361  39.959   7.348
 5504POPC   C4B70978  23.627  39.897   7.729
 5505POPC   NC370979  42.780  15.863   5.453
 5505POPC   PO470980  43.278  15.480   5.529
 5505POPC   GL170981  43.239  15.789   5.862
 5505POPC   GL270982  42.938  15.990   5.924
 5505POPC   C1A70983  43.129  15.703   6.312
 5505POPC   D2A70984  42.847  15.939   6.608
 5505POPC   C3A70985  42.947  15.842   7.039
 5505POPC   C4A70986  43.357  15.692   7.126
 5505POPC   C1B70987  43.244  16.192   6.226
 5505POPC   C2B70988  43.191  16.349   6.661
 5505POPC   C3B70989  43.053  16.340   7.121
 5505POPC   C4B70990  42.926  16.269   7.567
 5506POPC   NC370991  33.380  11.577   5.503
 5506POPC   PO470992  33.059  10.923   5.415
 5506POPC   GL170993  32.989  11.068   5.822
 5506POPC   GL270994  33.133  11.398   5.917
 5506POPC   C1A70995  32.807  11.092   6.205
 5506POPC   D2A70996  33.000  11.199   6.563
 5506POPC   C3A70997  32.832  11.048   6.910
 5506POPC   C4A70998  33.088  11.073   7.244
 5506POPC   C1B70999  33.099  11.624   6.292
 5506POPC   C2B71000  33.030  11.695   6.709
 5506POPC   C3B71001  32.937  11.554   7.097
 5506POPC   C4B71002  33.196  11.767   7.367
 5507POPC   NC371003  25.282  20.962   5.510
 5507POPC   PO471004  25.288  20.249   5.421
 5507POPC   GL171005  25.357  20.322   5.842
 5507POPC   GL271006  25.202  20.638   5.877
 5507POPC   C1A71007  25.362  20.425   6.302
 5507POPC   D2A71008  25.068  20.272   6.629
 5507POPC   C3A71009  25.228  20.461   7.005
 5507POPC   C4A71010  25.680  20.590   7.051
 5507POPC   C1B71011  25.178  20.926   6.219
 5507POPC   C2B71012  25.295  20.912   6.647
 5507POPC   C3B71013  25.041  21.085   6.974
 5507POPC   C4B71014  24.808  20.788   7.217
 5508POPC   NC371015   4.873  16.814   5.460
 5508POPC   PO471016   5.514  16.612   5.590
 5508POPC   GL171017   5.251  16.900   5.831
 5508POPC   GL271018   4.914  16.751   5.961
 5508POPC   C1A71019   5.167  17.070   6.237
 5508POPC   D2A71020   4.816  16.894   6.483
 5508POPC   C3A71021   4.946  16.769   6.880
 5508POPC   C4A71022   5.329  16.976   7.083
 5508POPC   C1B71023   5.199  16.521   6.226
 5508POPC   C2B71024   5.359  16.593   6.629
 5508POPC   C3B71025   5.289  16.430   7.037
 5508POPC   C4B71026   4.979  16.539   7.341
 5509POPC   NC371027   1.034  25.976   5.259
 5509POPC   PO471028   1.471  26.434   5.614
 5509POPC   GL171029   1.159  26.189   5.745
 5509POPC   GL271030   0.921  25.907   5.752
 5509POPC   C1A71031   1.286  25.929   6.104
 5509POPC   D2A71032   1.229  25.816   6.521
 5509POPC   C3A71033   1.468  25.944   6.850
 5509POPC   C4A71034   1.322  26.140   7.188
 5509POPC   C1B71035   0.838  26.183   6.127
 5509POPC   C2B71036   0.810  26.166   6.566
 5509POPC   C3B71037   0.916  25.948   6.944
 5509POPC   C4B71038   0.859  26.059   7.406
 5510POPC   NC371039  36.641  20.808   5.359
 5510POPC   PO471040  37.333  20.812   5.386
 5510POPC   GL171041  36.993  20.824   5.719
 5510POPC   GL271042  36.825  20.506   5.742
 5510POPC   C1A71043  36.649  20.851   6.062
 5510POPC   D2A71044  36.852  20.903   6.463
 5510POPC   C3A71045  36.716  20.797   6.866
 5510POPC   C4A71046  36.934  20.869   7.248
 5510POPC   C1B71047  36.938  20.406   6.158
 5510POPC   C2B71048  37.099  20.287   6.556
 5510POPC   C3B71049  37.065  20.412   6.994
 5510POPC   C4B71050  36.692  20.419   7.263
 5511POPC   NC371051   0.131   6.502   5.543
 5511POPC   PO471052   0.598   6.802   5.242
 5511POPC   GL171053   0.647   6.703   5.726
 5511POPC   GL271054   0.880   6.972   5.859
 5511POPC   C1A71055   0.476   6.458   6.138
 5511POPC   D2A71056   0.386   6.277   6.568
 5511POPC   C3A71057   0.378   6.479   7.000
 5511POPC   C4A71058   0.221   6.522   7.447
 5511POPC   C1B71059   0.939   6.664   6.213
 5511POPC   C2B71060   0.795   6.604   6.643
 5511POPC   C3B71061   0.669   6.916   6.948
 5511POPC   C4B71062   0.857   7.154   7.302
 5512POPC   NC371063   4.834  20.138   5.397
 5512POPC   PO471064   5.219  19.591   5.612
 5512POPC   GL171065   5.300  19.785   5.948
 5512POPC   GL271066   4.995  19.994   5.904
 5512POPC   C1A71067   5.530  19.635   6.312
 5512POPC   D2A71068   5.458  19.595   6.748
 5512POPC   C3A71069   5.101  19.850   6.795
 5512POPC   C4A71070   5.001  19.928   7.194
 5512POPC   C1B71071   4.943  19.724   6.294
 5512POPC   C2B71072   4.959  19.365   6.579
 5512POPC   C3B71073   4.873  19.446   7.019
 5512POPC   C4B71074   4.540  19.701   7.254
 5513POPC   NC371075  33.669   4.277   5.094
 5513POPC   PO471076  33.955   4.339   5.695
 5513POPC   GL171077  33.788   4.202   6.015
 5513POPC   GL271078  33.945   3.901   5.992
 5513POPC   C1A71079  33.831   4.316   6.406
 5513POPC   D2A71080  33.650   4.510   6.733
 5513POPC   C3A71081  33.865   4.559   7.103
 5513POPC   C4A71082  33.546   4.622   7.420
 5513POPC   C1B71083  33.686   3.821   6.345
 5513POPC   C2B71084  33.752   3.958   6.762
 5513POPC   C3B71085  33.661   4.051   7.179
 5513POPC   C4B71086  33.536   3.790   7.541
 5514POPC   NC371087  16.370   7.110   5.502
 5514POPC   PO471088  16.504   7.727   5.254
 5514POPC   GL171089  16.672   7.508   5.672
 5514POPC   GL271090  16.988   7.650   5.803
 5514POPC   C1A71091  16.745   7.261   6.085
 5514POPC   D2A71092  16.848   7.172   6.532
 5514POPC   C3A71093  16.496   7.333   6.773
 5514POPC   C4A71094  16.362   7.231   7.181
 5514POPC   C1B71095  16.859   7.739   6.248
 5514POPC   C2B71096  16.790   7.765   6.710
 5514POPC   C3B71097  16.895   7.556   7.093
 5514POPC   C4B71098  16.953   7.753   7.495
 5515POPC   NC371099  33.588  32.066   5.478
 5515POPC   PO471100  34.042  32.531   5.345
 5515POPC   GL171101  33.990  32.259   5.726
 5515POPC   GL271102  33.940  31.874   5.821
 5515POPC   C1A71103  33.755  32.301   6.117
 5515POPC   D2A71104  33.827  32.489   6.516
 5515POPC   C3A71105  33.757  32.253   6.889
 5515POPC   C4A71106  33.665  32.471   7.243
 5515POPC   C1B71107  33.633  31.808   6.191
 5515POPC   C2B71108  33.627  31.785   6.662
 5515POPC   C3B71109  33.483  31.835   7.089
 5515POPC   C4B71110  33.652  32.020   7.466
 5516POPC   NC371111  28.599   6.766   5.180
 5516POPC   PO471112  28.303   7.274   5.513
 5516POPC   GL171113  28.435   7.511   5.801
 5516POPC   GL271114  28.170   7.414   6.028
 5516POPC   C1A71115  28.619   7.536   6.176
 5516POPC   D2A71116  28.367   7.487   6.515
 5516POPC   C3A71117  28.439   7.721   6.867
 5516POPC   C4A71118  28.538   7.464   7.209
 5516POPC   C1B71119  28.216   7.049   6.246
 5516POPC   C2B71120  28.266   7.020   6.666
 5516POPC   C3B71121  28.143   7.302   6.947
 5516POPC   C4B71122  27.890   7.184   7.226
 5517POPC   NC371123   5.572  30.337   5.306
 5517POPC   PO471124   6.093  29.895   5.207
 5517POPC   GL171125   5.887  29.880   5.657
 5517POPC   GL271126   5.615  30.097   5.757
 5517POPC   C1A71127   5.908  29.948   6.151
 5517POPC   D2A71128   6.048  29.812   6.559
 5517POPC   C3A71129   5.850  29.894   6.966
 5517POPC   C4A71130   5.910  29.774   7.412
 5517POPC   C1B71131   5.477  30.225   6.171
 5517POPC   C2B71132   5.636  30.162   6.558
 5517POPC   C3B71133   5.418  30.203   6.921
 5517POPC   C4B71134   5.549  30.133   7.320
 5518POPC   NC371135  27.997  29.284   5.318
 5518POPC   PO471136  28.590  28.953   5.161
 5518POPC   GL171137  28.433  29.154   5.570
 5518POPC   GL271138  28.259  28.849   5.669
 5518POPC   C1A71139  28.155  29.245   5.981
 5518POPC   D2A71140  28.139  29.410   6.427
 5518POPC   C3A71141  28.013  29.181   6.815
 5518POPC   C4A71142  28.169  29.140   7.229
 5518POPC   C1B71143  28.185  28.736   6.105
 5518POPC   C2B71144  28.322  28.905   6.509
 5518POPC   C3B71145  28.292  28.737   6.934
 5518POPC   C4B71146  28.396  28.685   7.402
 5519POPC   NC371147  37.743   1.436   4.863
 5519POPC   PO471148  37.454   1.123   5.407
 5519POPC   GL171149  37.619   1.236   5.807
 5519POPC   GL271150  37.870   1.516   5.831
 5519POPC   C1A71151  37.557   1.018   6.190
 5519POPC   D2A71152  37.805   0.976   6.563
 5519POPC   C3A71153  37.537   1.155   6.853
 5519POPC   C4A71154  37.441   1.022   7.234
 5519POPC   C1B71155  37.846   1.410   6.283
 5519POPC   C2B71156  37.916   1.478   6.721
 5519POPC   C3B71157  37.872   1.426   7.158
 5519POPC   C4B71158  38.111   1.498   7.548
 5520POPC   NC371159  11.766   8.134   5.055
 5520POPC   PO471160  12.279   8.335   5.381
 5520POPC   GL171161  12.126   8.222   5.800
 5520POPC   GL271162  11.771   8.185   5.794
 5520POPC   C1A71163  12.067   8.008   6.214
 5520POPC   D2A71164  12.125   7.747   6.606
 5520POPC   C3A71165  12.210   8.031   6.933
 5520POPC   C4A71166  11.976   8.352   7.140
 5520POPC   C1B71167  11.551   8.101   6.206
 5520POPC   C2B71168  11.723   8.067   6.643
 5520POPC   C3B71169  11.732   7.888   7.082
 5520POPC   C4B71170  11.803   7.705   7.535
 5521POPC   NC371171  37.373  17.538   5.396
 5521POPC   PO471172  37.592  18.117   5.698
 5521POPC   GL171173  37.616  17.629   5.864
 5521POPC   GL271174  37.350  17.333   5.858
 5521POPC   C1A71175  37.882  17.495   6.249
 5521POPC   D2A71176  38.125  17.748   6.596
 5521POPC   C3A71177  37.881  17.837   6.999
 5521POPC   C4A71178  37.674  17.500   7.229
 5521POPC   C1B71179  37.367  17.446   6.313
 5521POPC   C2B71180  37.279  17.515   6.748
 5521POPC   C3B71181  37.192  17.343   7.141
 5521POPC   C4B71182  37.390  17.216   7.558
 5522POPC   NC371183  38.307  10.145   5.582
 5522POPC   PO471184  38.699  10.758   5.386
 5522POPC   GL171185  38.570  10.578   5.767
 5522POPC   GL271186  38.705  10.263   5.897
 5522POPC   C1A71187  38.334  10.711   6.135
 5522POPC   D2A71188  38.059  10.615   6.514
 5522POPC   C3A71189  38.223  10.608   6.949
 5522POPC   C4A71190  38.334  10.604   7.407
 5522POPC   C1B71191  38.442  10.243   6.294
 5522POPC   C2B71192  38.505  10.164   6.746
 5522POPC   C3B71193  38.484  10.193   7.183
 5522POPC   C4B71194  38.717  10.150   7.603
 5523POPC   NC371195  26.111  14.129   5.428
 5523POPC   PO471196  25.813  13.568   5.436
 5523POPC   GL171197  25.876  13.886   5.810
 5523POPC   GL271198  26.247  14.055   5.909
 5523POPC   C1A71199  25.950  13.732   6.233
 5523POPC   D2A71200  25.830  13.414   6.544
 5523POPC   C3A71201  25.936  13.450   6.992
 5523POPC   C4A71202  26.340  13.294   7.160
 5523POPC   C1B71203  26.483  13.872   6.273
 5523POPC   C2B71204  26.374  13.630   6.671
 5523POPC   C3B71205  26.292  13.803   7.083
 5523POPC   C4B71206  26.216  14.103   7.407
 5524POPC   NC371207  29.498  17.926   5.563
 5524POPC   PO471208  30.016  18.273   5.242
 5524POPC   GL171209  30.032  18.384   5.703
 5524POPC   GL271210  29.817  18.150   5.864
 5524POPC   C1A71211  30.189  18.279   6.160
 5524POPC   D2A71212  30.013  18.101   6.572
 5524POPC   C3A71213  30.131  18.265   7.001
 5524POPC   C4A71214  29.963  18.082   7.395
 5524POPC   C1B71215  29.668  18.318   6.241
 5524POPC   C2B71216  29.503  18.204   6.614
 5524POPC   C3B71217  29.631  18.272   7.017
 5524POPC   C4B71218  29.604  18.451   7.410
 5525POPC   NC371219  21.463  29.182   5.462
 5525POPC   PO471220  21.027  28.638   5.565
 5525POPC   GL171221  21.238  28.955   5.870
 5525POPC   GL271222  21.628  29.040   5.916
 5525POPC   C1A71223  21.241  29.225   6.237
 5525POPC   D2A71224  21.109  29.214   6.653
 5525POPC   C3A71225  21.436  29.161   6.929
 5525POPC   C4A71226  21.332  29.412   7.225
 5525POPC   C1B71227  21.711  29.426   6.174
 5525POPC   C2B71228  21.518  29.543   6.574
 5525POPC   C3B71229  21.697  29.621   6.971
 5525POPC   C4B71230  21.809  29.400   7.357
 5526POPC   NC371231   4.560   8.733   5.443
 5526POPC   PO471232   4.588   9.333   5.663
 5526POPC   GL171233   4.445   9.007   5.933
 5526POPC   GL271234   4.352   8.659   5.899
 5526POPC   C1A71235   4.260   9.072   6.342
 5526POPC   D2A71236   4.412   9.147   6.749
 5526POPC   C3A71237   4.068   9.156   7.051
 5526POPC   C4A71238   4.140   9.117   7.538
 5526POPC   C1B71239   4.450   8.608   6.353
 5526POPC   C2B71240   4.201   8.696   6.738
 5526POPC   C3B71241   4.223   8.715   7.202
 5526POPC   C4B71242   4.492   8.714   7.551
 5527POPC   NC371243  15.710   5.332   5.563
 5527POPC   PO471244  16.402   5.080   5.377
 5527POPC   GL171245  16.238   5.148   5.785
 5527POPC   GL271246  16.032   4.857   5.746
 5527POPC   C1A71247  16.152   5.356   6.214
 5527POPC   D2A71248  16.101   5.227   6.671
 5527POPC   C3A71249  15.783   5.346   6.968
 5527POPC   C4A71250  15.689   5.300   7.383
 5527POPC   C1B71251  15.997   4.868   6.192
 5527POPC   C2B71252  15.894   4.711   6.591
 5527POPC   C3B71253  15.735   4.809   6.985
 5527POPC   C4B71254  16.053   4.987   7.205
 5528POPC   NC371255   5.486  37.662   5.377
 5528POPC   PO471256   4.829  37.800   5.286
 5528POPC   GL171257   5.088  37.770   5.716
 5528POPC   GL271258   4.972  37.499   5.950
 5528POPC   C1A71259   5.291  37.801   6.168
 5528POPC   D2A71260   5.226  38.013   6.561
 5528POPC   C3A71261   5.150  37.765   6.896
 5528POPC   C4A71262   5.225  37.609   7.289
 5528POPC   C1B71263   4.710  37.303   6.241
 5528POPC   C2B71264   4.903  37.399   6.629
 5528POPC   C3B71265   4.893  37.312   7.058
 5528POPC   C4B71266   4.815  37.434   7.503
 5529POPC   NC371267  26.740  28.132   5.352
 5529POPC   PO471268  26.975  28.775   5.486
 5529POPC   GL171269  26.717  28.483   5.748
 5529POPC   GL271270  27.011  28.267   5.777
 5529POPC   C1A71271  26.689  28.226   6.165
 5529POPC   D2A71272  26.517  28.180   6.584
 5529POPC   C3A71273  26.727  28.151   6.963
 5529POPC   C4A71274  26.991  27.982   7.309
 5529POPC   C1B71275  27.027  28.614   6.121
 5529POPC   C2B71276  27.289  28.683   6.462
 5529POPC   C3B71277  27.149  28.650   6.879
 5529POPC   C4B71278  26.974  28.490   7.242
 5530POPC   NC371279  27.769  22.302   5.418
 5530POPC   PO471280  27.215  21.868   5.204
 5530POPC   GL171281  27.161  21.975   5.652
 5530POPC   GL271282  27.035  22.327   5.642
 5530POPC   C1A71283  27.383  22.031   6.082
 5530POPC   D2A71284  27.319  22.020   6.555
 5530POPC   C3A71285  27.640  22.057   6.902
 5530POPC   C4A71286  27.288  21.994   7.186
 5530POPC   C1B71287  27.178  22.513   6.051
 5530POPC   C2B71288  27.348  22.590   6.484
 5530POPC   C3B71289  27.350  22.472   6.923
 5530POPC   C4B71290  27.775  22.531   7.124
 5531POPC   NC371291   9.819   4.189   5.324
 5531POPC   PO471292   9.480   4.796   5.326
 5531POPC   GL171293   9.614   4.542   5.694
 5531POPC   GL271294   9.973   4.507   5.774
 5531POPC   C1A71295   9.645   4.302   6.112
 5531POPC   D2A71296   9.884   4.442   6.492
 5531POPC   C3A71297   9.635   4.467   6.885
 5531POPC   C4A71298   9.491   4.224   7.244
 5531POPC   C1B71299  10.118   4.100   5.983
 5531POPC   C2B71300  10.199   4.031   6.438
 5531POPC   C3B71301   9.939   4.029   6.828
 5531POPC   C4B71302   9.989   4.312   7.213
 5532POPC   NC371303  23.746  14.726   5.428
 5532POPC   PO471304  23.445  14.090   5.393
 5532POPC   GL171305  23.472  14.391   5.661
 5532POPC   GL271306  23.818  14.370   5.779
 5532POPC   C1A71307  23.409  14.406   6.101
 5532POPC   D2A71308  23.542  14.242   6.497
 5532POPC   C3A71309  23.486  14.418   6.914
 5532POPC   C4A71310  23.668  14.392   7.326
 5532POPC   C1B71311  23.914  14.127   6.152
 5532POPC   C2B71312  23.962  13.949   6.573
 5532POPC   C3B71313  23.957  14.175   6.963
 5532POPC   C4B71314  24.176  14.456   7.267
 5533POPC   NC371315  10.332  33.583   5.426
 5533POPC   PO471316  10.710  32.984   5.376
 5533POPC   GL171317  10.589  33.193   5.744
 5533POPC   GL271318  10.394  32.922   5.787
 5533POPC   C1A71319  10.623  33.159   6.197
 5533POPC   D2A71320  10.550  32.742   6.417
 5533POPC   C3A71321  10.731  32.678   6.803
 5533POPC   C4A71322  10.656  32.769   7.244
 5533POPC   C1B71323  10.166  32.930   6.145
 5533POPC   C2B71324  10.236  33.138   6.536
 5533POPC   C3B71325  10.461  33.100   6.899
 5533POPC   C4B71326  10.271  33.159   7.295
 5534POPC   NC371327  26.015   5.259   5.245
 5534POPC   PO471328  25.514   4.781   5.228
 5534POPC   GL171329  25.815   4.954   5.669
 5534POPC   GL271330  26.165   5.146   5.821
 5534POPC   C1A71331  25.837   4.912   6.144
 5534POPC   D2A71332  25.828   4.936   6.608
 5534POPC   C3A71333  25.834   5.341   6.839
 5534POPC   C4A71334  26.032   5.238   7.201
 5534POPC   C1B71335  26.398   5.169   6.256
 5534POPC   C2B71336  26.325   5.161   6.736
 5534POPC   C3B71337  26.388   4.877   7.089
 5534POPC   C4B71338  26.236   4.857   7.528
 5535POPC   NC371339  26.822   2.672   5.441
 5535POPC   PO471340  26.825   3.356   5.374
 5535POPC   GL171341  26.720   3.118   5.770
 5535POPC   GL271342  27.021   2.951   5.828
 5535POPC   C1A71343  26.690   2.810   6.173
 5535POPC   D2A71344  26.801   2.958   6.608
 5535POPC   C3A71345  26.718   2.688   6.933
 5535POPC   C4A71346  26.824   2.368   7.201
 5535POPC   C1B71347  27.192   2.914   6.259
 5535POPC   C2B71348  27.263   2.726   6.682
 5535POPC   C3B71349  27.166   2.741   7.129
 5535POPC   C4B71350  27.199   2.851   7.575
 5536POPC   NC371351  26.732  44.306   5.256
 5536POPC   PO471352  26.958  43.709   5.476
 5536POPC   GL171353  26.999  43.826   5.895
 5536POPC   GL271354  26.650  43.829   5.888
 5536POPC   C1A71355  27.166  43.802   6.343
 5536POPC   D2A71356  27.013  43.596   6.764
 5536POPC   C3A71357  27.000  43.751   7.183
 5536POPC   C4A71358  27.191  43.724   7.622
 5536POPC   C1B71359  26.679  43.973   6.268
 5536POPC   C2B71360  26.842  44.062   6.637
 5536POPC   C3B71361  26.929  44.274   6.965
 5536POPC   C4B71362  26.691  44.147   7.302
 5537POPC   NC371363  44.292   6.709   5.279
 5537POPC   PO471364  44.963   6.908   5.704
 5537POPC   GL171365  44.864   6.595   5.956
 5537POPC   GL271366  44.538   6.562   6.043
 5537POPC   C1A71367  44.972   6.457   6.322
 5537POPC   D2A71368  44.794   6.604   6.692
 5537POPC   C3A71369  44.841   6.579   7.107
 5537POPC   C4A71370  44.858   6.894   7.427
 5537POPC   C1B71371  44.362   6.713   6.413
 5537POPC   C2B71372  44.310   6.700   6.844
 5537POPC   C3B71373  44.379   6.728   7.266
 5537POPC   C4B71374  44.347   6.410   7.546
 5538POPC   NC371375  38.887  18.391   5.137
 5538POPC   PO471376  38.396  18.277   5.327
 5538POPC   GL171377  38.450  18.203   5.791
 5538POPC   GL271378  38.778  18.057   5.894
 5538POPC   C1A71379  38.342  18.285   6.244
 5538POPC   D2A71380  38.253  18.442   6.679
 5538POPC   C3A71381  38.392  18.163   6.991
 5538POPC   C4A71382  38.347  17.781   7.221
 5538POPC   C1B71383  38.863  18.295   6.301
 5538POPC   C2B71384  38.773  18.457   6.739
 5538POPC   C3B71385  38.896  18.250   7.119
 5538POPC   C4B71386  38.840  17.861   7.346
 5539POPC   NC371387  26.545   4.194   5.349
 5539POPC   PO471388  27.039   4.545   5.206
 5539POPC   GL171389  26.937   4.401   5.674
 5539POPC   GL271390  26.608   4.308   5.854
 5539POPC   C1A71391  27.071   4.330   6.139
 5539POPC   D2A71392  26.895   4.315   6.564
 5539POPC   C3A71393  27.092   4.028   6.837
 5539POPC   C4A71394  27.275   4.284   7.111
 5539POPC   C1B71395  26.586   4.063   6.258
 5539POPC   C2B71396  26.620   3.839   6.674
 5539POPC   C3B71397  26.395   4.038   7.035
 5539POPC   C4B71398  26.376   4.407   7.270
 5540POPC   NC371399  40.222  40.735   5.212
 5540POPC   PO471400  40.852  40.644   5.360
 5540POPC   GL171401  40.665  40.750   5.770
 5540POPC   GL271402  40.694  40.402   5.809
 5540POPC   C1A71403  40.586  40.919   6.230
 5540POPC   D2A71404  40.835  41.129   6.604
 5540POPC   C3A71405  40.754  40.938   6.991
 5540POPC   C4A71406  40.647  41.106   7.387
 5540POPC   C1B71407  40.903  40.471   6.197
 5540POPC   C2B71408  40.808  40.612   6.593
 5540POPC   C3B71409  40.930  40.452   6.993
 5540POPC   C4B71410  40.768  40.599   7.364
 5541POPC   NC371411  27.817   2.737   5.513
 5541POPC   PO471412  27.370   3.175   5.533
 5541POPC   GL171413  27.527   2.896   5.878
 5541POPC   GL271414  27.436   2.532   5.842
 5541POPC   C1A71415  27.751   3.008   6.235
 5541POPC   D2A71416  27.517   3.198   6.535
 5541POPC   C3A71417  27.581   3.114   6.912
 5541POPC   C4A71418  27.591   2.934   7.275
 5541POPC   C1B71419  27.596   2.518   6.289
 5541POPC   C2B71420  27.771   2.635   6.718
 5541POPC   C3B71421  27.586   2.450   7.117
 5541POPC   C4B71422  27.280   2.355   7.468
 5542POPC   NC371423  20.856  36.742   5.270
 5542POPC   PO471424  20.317  37.098   5.361
 5542POPC   GL171425  20.547  36.871   5.727
 5542POPC   GL271426  20.911  36.714   5.813
 5542POPC   C1A71427  20.566  36.848   6.195
 5542POPC   D2A71428  20.387  36.992   6.581
 5542POPC   C3A71429  20.512  37.061   6.990
 5542POPC   C4A71430  20.251  36.933   7.317
 5542POPC   C1B71431  21.082  36.864   6.240
 5542POPC   C2B71432  21.005  37.046   6.692
 5542POPC   C3B71433  20.997  37.062   7.177
 5542POPC   C4B71434  20.717  36.845   7.470
 5543POPC   NC371435  34.194  13.403   5.606
 5543POPC   PO471436  33.758  13.834   5.281
 5543POPC   GL171437  33.683  13.763   5.778
 5543POPC   GL271438  33.972  13.624   5.996
 5543POPC   C1A71439  33.501  13.564   6.197
 5543POPC   D2A71440  33.672  13.335   6.567
 5543POPC   C3A71441  33.682  13.608   6.943
 5543POPC   C4A71442  33.524  13.716   7.350
 5543POPC   C1B71443  33.855  14.013   6.204
 5543POPC   C2B71444  33.689  14.112   6.606
 5543POPC   C3B71445  33.738  14.125   7.049
 5543POPC   C4B71446  34.002  13.901   7.330
 5544POPC   NC371447   9.189  40.518   5.421
 5544POPC   PO471448   8.887  41.179   5.378
 5544POPC   GL171449   8.965  40.863   5.732
 5544POPC   GL271450   8.766  40.526   5.733
 5544POPC   C1A71451   9.186  40.807   6.152
 5544POPC   D2A71452   9.319  41.033   6.535
 5544POPC   C3A71453   9.150  40.895   6.943
 5544POPC   C4A71454   9.281  40.587   7.254
 5544POPC   C1B71455   8.693  40.709   6.151
 5544POPC   C2B71456   8.879  40.598   6.562
 5544POPC   C3B71457   8.710  40.663   6.983
 5544POPC   C4B71458   8.784  40.641   7.411
 5545POPC   NC371459  26.751  17.591   5.411
 5545POPC   PO471460  27.094  17.093   5.755
 5545POPC   GL171461  26.794  17.348   5.928
 5545POPC   GL271462  26.472  17.337   5.768
 5545POPC   C1A71463  26.905  17.644   6.264
 5545POPC   D2A71464  26.987  17.790   6.694
 5545POPC   C3A71465  27.037  17.447   6.985
 5545POPC   C4A71466  27.216  17.340   7.394
 5545POPC   C1B71467  26.391  17.526   6.179
 5545POPC   C2B71468  26.546  17.439   6.579
 5545POPC   C3B71469  26.392  17.407   6.968
 5545POPC   C4B71470  26.618  17.412   7.317
 5546POPC   NC371471   9.758  26.241   5.389
 5546POPC   PO471472   9.826  25.550   5.469
 5546POPC   GL171473   9.730  25.942   5.790
 5546POPC   GL271474   9.969  26.254   5.856
 5546POPC   C1A71475   9.671  26.075   6.244
 5546POPC   D2A71476   9.865  25.837   6.604
 5546POPC   C3A71477   9.847  25.943   7.067
 5546POPC   C4A71478   9.579  26.065   7.409
 5546POPC   C1B71479  10.158  26.297   6.250
 5546POPC   C2B71480  10.068  26.334   6.681
 5546POPC   C3B71481  10.198  26.334   7.092
 5546POPC   C4B71482  10.068  26.336   7.531
 5547POPC   NC371483  29.077   8.683   5.355
 5547POPC   PO471484  28.925   9.329   5.574
 5547POPC   GL171485  29.306   9.184   5.779
 5547POPC   GL271486  29.411   8.819   5.700
 5547POPC   C1A71487  29.295   9.217   6.224
 5547POPC   D2A71488  29.065   9.179   6.617
 5547POPC   C3A71489  29.293   9.246   6.980
 5547POPC   C4A71490  29.180   8.998   7.311
 5547POPC   C1B71491  29.534   8.731   6.106
 5547POPC   C2B71492  29.411   8.800   6.517
 5547POPC   C3B71493  29.373   8.729   6.925
 5547POPC   C4B71494  29.591   8.705   7.304
 5548POPC   NC371495  37.217  35.495   5.393
 5548POPC   PO471496  36.609  35.421   5.132
 5548POPC   GL171497  36.564  35.354   5.620
 5548POPC   GL271498  36.750  35.639   5.762
 5548POPC   C1A71499  36.659  35.220   6.092
 5548POPC   D2A71500  37.048  35.165   6.399
 5548POPC   C3A71501  36.982  35.119   6.846
 5548POPC   C4A71502  37.103  35.168   7.270
 5548POPC   C1B71503  36.949  35.643   6.186
 5548POPC   C2B71504  36.845  35.593   6.623
 5548POPC   C3B71505  36.906  35.592   7.070
 5548POPC   C4B71506  36.778  35.606   7.517
 5549POPC   NC371507  31.622  27.985   5.462
 5549POPC   PO471508  31.215  27.426   5.572
 5549POPC   GL171509  31.289  27.599   5.965
 5549POPC   GL271510  31.541  27.885   5.965
 5549POPC   C1A71511  31.522  27.499   6.335
 5549POPC   D2A71512  31.741  27.676   6.665
 5549POPC   C3A71513  31.647  27.416   7.022
 5549POPC   C4A71514  31.913  27.290   7.374
 5549POPC   C1B71515  31.300  27.957   6.351
 5549POPC   C2B71516  31.364  28.016   6.789
 5549POPC   C3B71517  31.614  27.912   7.120
 5549POPC   C4B71518  31.561  27.639   7.500
 5550POPC   NC371519  21.144  12.380   5.329
 5550POPC   PO471520  21.549  12.861   5.365
 5550POPC   GL171521  21.469  12.840   5.807
 5550POPC   GL271522  21.189  13.002   5.800
 5550POPC   C1A71523  21.587  12.909   6.260
 5550POPC   D2A71524  21.751  12.763   6.628
 5550POPC   C3A71525  21.522  12.841   6.953
 5550POPC   C4A71526  21.620  12.942   7.349
 5550POPC   C1B71527  21.094  12.798   6.191
 5550POPC   C2B71528  21.133  12.851   6.613
 5550POPC   C3B71529  21.016  12.713   7.026
 5550POPC   C4B71530  21.123  12.876   7.434
 5551POPC   NC371531  17.523   5.509   5.625
 5551POPC   PO471532  17.659   4.850   5.512
 5551POPC   GL171533  17.678   5.048   5.899
 5551POPC   GL271534  17.892   4.868   6.126
 5551POPC   C1A71535  17.391   5.141   6.246
 5551POPC   D2A71536  17.387   4.974   6.660
 5551POPC   C3A71537  17.577   5.215   7.001
 5551POPC   C4A71538  17.773   5.310   7.415
 5551POPC   C1B71539  17.513   4.635   6.238
 5551POPC   C2B71540  17.282   4.472   6.593
 5551POPC   C3B71541  17.348   4.597   7.004
 5551POPC   C4B71542  17.532   4.837   7.312
 5552POPC   NC371543  20.679  31.386   5.187
 5552POPC   PO471544  20.848  32.080   5.520
 5552POPC   GL171545  20.777  31.635   5.738
 5552POPC   GL271546  20.595  31.278   5.684
 5552POPC   C1A71547  20.545  31.513   6.132
 5552POPC   D2A71548  20.482  31.729   6.510
 5552POPC   C3A71549  20.455  31.577   6.908
 5552POPC   C4A71550  20.279  31.557   7.296
 5552POPC   C1B71551  20.668  31.023   6.059
 5552POPC   C2B71552  20.866  31.150   6.451
 5552POPC   C3B71553  20.714  31.042   6.859
 5552POPC   C4B71554  20.594  31.166   7.248
 5553POPC   NC371555  13.502  26.140   5.139
 5553POPC   PO471556  14.052  25.804   5.450
 5553POPC   GL171557  13.820  25.962   5.819
 5553POPC   GL271558  13.892  26.293   5.946
 5553POPC   C1A71559  13.598  25.992   6.248
 5553POPC   D2A71560  13.733  26.150   6.660
 5553POPC   C3A71561  13.483  26.050   7.041
 5553POPC   C4A71562  13.313  25.678   7.110
 5553POPC   C1B71563  13.654  26.505   6.270
 5553POPC   C2B71564  13.680  26.660   6.668
 5553POPC   C3B71565  13.799  26.444   7.070
 5553POPC   C4B71566  13.549  26.386   7.439
 5554POPC   NC371567  35.220  44.172   5.270
 5554POPC   PO471568  35.751  43.813   5.218
 5554POPC   GL171569  35.549  43.973   5.640
 5554POPC   GL271570  35.245  43.831   5.836
 5554POPC   C1A71571  35.538  44.172   6.065
 5554POPC   D2A71572  35.647  44.106   6.494
 5554POPC   C3A71573  35.360  43.928   6.774
 5554POPC   C4A71574  35.411  43.871   7.187
 5554POPC   C1B71575  35.120  43.940   6.310
 5554POPC   C2B71576  34.890  43.736   6.693
 5554POPC   C3B71577  35.003  43.546   7.135
 5554POPC   C4B71578  34.926  43.430   7.618
 5555POPC   NC371579  32.752   9.097   5.716
 5555POPC   PO471580  32.313   8.818   5.288
 5555POPC   GL171581  32.230   8.950   5.726
 5555POPC   GL271582  32.205   9.285   5.621
 5555POPC   C1A71583  32.341   8.975   6.181
 5555POPC   D2A71584  32.421   8.716   6.511
 5555POPC   C3A71585  32.485   8.921   6.869
 5555POPC   C4A71586  32.615   9.084   7.217
 5555POPC   C1B71587  32.072   9.378   6.036
 5555POPC   C2B71588  32.045   9.313   6.481
 5555POPC   C3B71589  32.002   9.314   6.941
 5555POPC   C4B71590  32.091   9.003   7.222
 5556POPC   NC371591  19.288  34.570   5.476
 5556POPC   PO471592  18.737  34.249   5.370
 5556POPC   GL171593  18.845  34.389   5.820
 5556POPC   GL271594  18.950  34.723   5.888
 5556POPC   C1A71595  18.830  34.415   6.300
 5556POPC   D2A71596  19.079  34.476   6.686
 5556POPC   C3A71597  19.290  34.249   6.990
 5556POPC   C4A71598  19.198  34.272   7.436
 5556POPC   C1B71599  18.908  34.936   6.328
 5556POPC   C2B71600  18.840  34.900   6.786
 5556POPC   C3B71601  18.948  34.729   7.213
 5556POPC   C4B71602  18.654  34.942   7.549
 5557POPC   NC371603  26.718   5.929   5.482
 5557POPC   PO471604  27.097   5.390   5.585
 5557POPC   GL171605  26.829   5.646   5.914
 5557POPC   GL271606  26.483   5.577   5.800
 5557POPC   C1A71607  26.801   5.933   6.324
 5557POPC   D2A71608  26.595   6.121   6.730
 5557POPC   C3A71609  26.777   5.917   7.138
 5557POPC   C4A71610  27.051   6.061   7.523
 5557POPC   C1B71611  26.382   5.688   6.199
 5557POPC   C2B71612  26.488   5.637   6.619
 5557POPC   C3B71613  26.354   5.627   7.027
 5557POPC   C4B71614  26.522   5.316   7.276
 5558POPC   NC371615  14.750  23.953   5.054
 5558POPC   PO471616  15.108  23.524   5.502
 5558POPC   GL171617  15.170  23.767   5.884
 5558POPC   GL271618  14.884  23.979   5.990
 5558POPC   C1A71619  15.174  23.843   6.354
 5558POPC   D2A71620  15.113  23.863   6.805
 5558POPC   C3A71621  15.394  23.697   7.123
 5558POPC   C4A71622  15.597  23.918   7.490
 5558POPC   C1B71623  14.775  23.547   6.194
 5558POPC   C2B71624  14.652  23.425   6.659
 5558POPC   C3B71625  14.821  23.558   7.076
 5558POPC   C4B71626  14.992  23.939   7.302
 5559POPC   NC371627   1.948   9.003   5.179
 5559POPC   PO471628   2.586   9.270   5.330
 5559POPC   GL171629   2.295   9.047   5.613
 5559POPC   GL271630   2.223   8.691   5.515
 5559POPC   C1A71631   2.050   9.147   5.994
 5559POPC   D2A71632   1.943   9.274   6.439
 5559POPC   C3A71633   2.189   9.215   6.818
 5559POPC   C4A71634   1.890   9.184   7.158
 5559POPC   C1B71635   2.089   8.643   5.935
 5559POPC   C2B71636   2.089   8.780   6.376
 5559POPC   C3B71637   1.955   8.756   6.814
 5559POPC   C4B71638   1.776   8.663   7.231
 5560POPC   NC371639  36.612  31.933   5.514
 5560POPC   PO471640  37.019  31.376   5.254
 5560POPC   GL171641  36.830  31.323   5.707
 5560POPC   GL271642  36.675  31.614   5.904
 5560POPC   C1A71643  36.907  31.248   6.172
 5560POPC   D2A71644  37.162  31.417   6.529
 5560POPC   C3A71645  37.005  31.495   6.956
 5560POPC   C4A71646  36.854  31.325   7.357
 5560POPC   C1B71647  36.883  31.809   6.275
 5560POPC   C2B71648  36.750  31.951   6.694
 5560POPC   C3B71649  36.787  31.956   7.125
 5560POPC   C4B71650  36.617  31.771   7.538
 5561POPC   NC371651   4.743  37.420   5.528
 5561POPC   PO471652   4.641  36.749   5.429
 5561POPC   GL171653   4.513  36.931   5.830
 5561POPC   GL271654   4.186  36.833   5.976
 5561POPC   C1A71655   4.613  36.779   6.251
 5561POPC   D2A71656   4.728  36.933   6.637
 5561POPC   C3A71657   4.589  36.890   7.045
 5561POPC   C4A71658   4.428  37.222   7.217
 5561POPC   C1B71659   4.183  36.977   6.454
 5561POPC   C2B71660   4.099  36.970   6.919
 5561POPC   C3B71661   3.748  36.798   7.190
 5561POPC   C4B71662   3.745  36.820   7.662
 5562POPC   NC371663  44.807  39.305   5.539
 5562POPC   PO471664  44.421  38.825   5.232
 5562POPC   GL171665  44.400  38.979   5.709
 5562POPC   GL271666  44.323  39.332   5.803
 5562POPC   C1A71667  44.522  39.017   6.195
 5562POPC   D2A71668  44.820  39.131   6.581
 5562POPC   C3A71669  44.667  39.116   7.031
 5562POPC   C4A71670  44.812  39.355   7.416
 5562POPC   C1B71671  44.355  39.511   6.252
 5562POPC   C2B71672  44.363  39.346   6.692
 5562POPC   C3B71673  44.268  39.432   7.150
 5562POPC   C4B71674  44.427  39.650   7.540
 5563POPC   NC371675  26.167  14.891   5.407
 5563POPC   PO471676  25.735  14.400   5.314
 5563POPC   GL171677  25.910  14.447   5.775
 5563POPC   GL271678  26.169  14.653   5.856
 5563POPC   C1A71679  25.884  14.251   6.215
 5563POPC   D2A71680  26.115  14.067   6.583
 5563POPC   C3A71681  25.936  14.168   6.961
 5563POPC   C4A71682  25.738  14.296   7.310
 5563POPC   C1B71683  25.973  14.757   6.231
 5563POPC   C2B71684  26.025  14.568   6.641
 5563POPC   C3B71685  26.057  14.693   7.065
 5563POPC   C4B71686  26.105  14.597   7.489
 5564POPC   NC371687  25.158  37.371   5.398
 5564POPC   PO471688  25.502  36.748   5.257
 5564POPC   GL171689  25.384  36.739   5.706
 5564POPC   GL271690  25.128  36.967   5.757
 5564POPC   C1A71691  25.369  36.897   6.188
 5564POPC   D2A71692  25.135  36.904   6.573
 5564POPC   C3A71693  25.264  36.947   6.991
 5564POPC   C4A71694  25.230  37.289   7.222
 5564POPC   C1B71695  24.999  36.578   6.021
 5564POPC   C2B71696  25.098  36.418   6.435
 5564POPC   C3B71697  25.083  36.462   6.888
 5564POPC   C4B71698  24.855  36.571   7.265
 5565POPC   NC371699  13.253   4.963   5.436
 5565POPC   PO471700  12.610   4.986   5.461
 5565POPC   GL171701  12.841   4.978   5.838
 5565POPC   GL271702  13.093   4.731   5.863
 5565POPC   C1A71703  12.862   5.187   6.244
 5565POPC   D2A71704  12.979   5.500   6.537
 5565POPC   C3A71705  12.941   5.318   6.946
 5565POPC   C4A71706  12.632   4.988   7.124
 5565POPC   C1B71707  13.154   4.770   6.310
 5565POPC   C2B71708  12.992   4.743   6.730
 5565POPC   C3B71709  13.156   4.917   7.135
 5565POPC   C4B71710  13.134   4.916   7.565
 5566POPC   NC371711  17.497   3.197   5.415
 5566POPC   PO471712  17.345   2.521   5.435
 5566POPC   GL171713  17.490   2.816   5.787
 5566POPC   GL271714  17.358   3.160   5.884
 5566POPC   C1A71715  17.390   2.689   6.203
 5566POPC   D2A71716  17.554   2.397   6.495
 5566POPC   C3A71717  17.562   2.645   6.816
 5566POPC   C4A71718  17.674   2.596   7.187
 5566POPC   C1B71719  17.581   3.242   6.239
 5566POPC   C2B71720  17.845   3.351   6.589
 5566POPC   C3B71721  17.734   3.229   7.008
 5566POPC   C4B71722  17.406   3.037   7.109
 5567POPC   NC371723  23.302  42.862   5.295
 5567POPC   PO471724  23.576  43.372   5.389
 5567POPC   GL171725  23.757  43.319   5.864
 5567POPC   GL271726  24.045  43.078   5.974
 5567POPC   C1A71727  23.768  43.219   6.367
 5567POPC   D2A71728  23.507  42.961   6.683
 5567POPC   C3A71729  23.491  43.096   7.152
 5567POPC   C4A71730  23.403  43.081   7.601
 5567POPC   C1B71731  24.291  43.199   6.371
 5567POPC   C2B71732  24.531  43.063   6.754
 5567POPC   C3B71733  24.345  43.097   7.162
 5567POPC   C4B71734  24.048  43.476   7.252
 5568POPC   NC371735  18.990  11.122   5.214
 5568POPC   PO471736  19.318  11.674   5.277
 5568POPC   GL171737  19.222  11.435   5.703
 5568POPC   GL271738  19.074  11.082   5.719
 5568POPC   C1A71739  19.042  11.400   6.153
 5568POPC   D2A71740  18.825  11.374   6.558
 5568POPC   C3A71741  19.040  11.524   6.928
 5568POPC   C4A71742  18.708  11.586   7.185
 5568POPC   C1B71743  18.893  10.887   6.088
 5568POPC   C2B71744  19.105  10.957   6.472
 5568POPC   C3B71745  19.089  11.016   6.906
 5568POPC   C4B71746  19.439  11.050   7.197
 5569POPC   NC371747   0.766  39.406   5.372
 5569POPC   PO471748   0.234  38.996   5.558
 5569POPC   GL171749   0.378  39.148   5.951
 5569POPC   GL271750   0.623  39.450   5.900
 5569POPC   C1A71751   0.349  39.172   6.411
 5569POPC   D2A71752   0.668  39.347   6.684
 5569POPC   C3A71753   0.602  39.321   7.109
 5569POPC   C4A71754   0.172  39.192   7.068
 5569POPC   C1B71755   0.833  39.168   6.194
 5569POPC   C2B71756   0.751  38.857   6.510
 5569POPC   C3B71757   0.581  38.840   6.921
 5569POPC   C4B71758   0.823  38.906   7.315
 5570POPC   NC371759  40.822  42.129   5.505
 5570POPC   PO471760  41.100  42.749   5.325
 5570POPC   GL171761  40.889  42.619   5.716
 5570POPC   GL271762  40.517  42.558   5.660
 5570POPC   C1A71763  40.874  42.414   6.156
 5570POPC   D2A71764  40.701  42.225   6.549
 5570POPC   C3A71765  40.972  42.143   6.926
 5570POPC   C4A71766  40.825  42.176   7.362
 5570POPC   C1B71767  40.364  42.483   6.098
 5570POPC   C2B71768  40.457  42.670   6.511
 5570POPC   C3B71769  40.456  42.490   6.927
 5570POPC   C4B71770  40.564  42.619   7.317
 5571POPC   NC371771  29.358  44.917   5.597
 5571POPC   PO471772  28.764  44.736   5.283
 5571POPC   GL171773  28.926  44.656   5.723
 5571POPC   GL271774  28.928   0.017   5.842
 5571POPC   C1A71775  29.131  44.558   6.156
 5571POPC   D2A71776  29.382  44.516   6.556
 5571POPC   C3A71777  29.218  44.595   6.975
 5571POPC   C4A71778  29.348  44.491   7.375
 5571POPC   C1B71779  28.961   0.092   6.281
 5571POPC   C2B71780  28.921  44.802   6.605
 5571POPC   C3B71781  28.746  44.803   7.009
 5571POPC   C4B71782  28.998  44.876   7.394
 5572POPC   NC371783  24.093  33.278   5.297
 5572POPC   PO471784  23.442  33.248   5.263
 5572POPC   GL171785  23.727  33.121   5.634
 5572POPC   GL271786  23.525  32.891   5.816
 5572POPC   C1A71787  23.994  32.975   6.018
 5572POPC   D2A71788  24.072  33.174   6.469
 5572POPC   C3A71789  23.947  33.052   6.931
 5572POPC   C4A71790  23.827  33.069   7.376
 5572POPC   C1B71791  23.550  33.136   6.189
 5572POPC   C2B71792  23.540  33.111   6.625
 5572POPC   C3B71793  23.410  33.297   7.012
 5572POPC   C4B71794  23.125  33.077   7.296
 5573POPC   NC371795   0.701  30.262   5.562
 5573POPC   PO471796   0.256  29.710   5.566
 5573POPC   GL171797   0.516  29.830   5.864
 5573POPC   GL271798   0.323  30.138   5.888
 5573POPC   C1A71799   0.425  29.683   6.279
 5573POPC   D2A71800   0.641  29.572   6.656
 5573POPC   C3A71801   0.567  29.862   6.986
 5573POPC   C4A71802   0.384  29.873   7.354
 5573POPC   C1B71803   0.470  30.194   6.265
 5573POPC   C2B71804   0.271  30.049   6.619
 5573POPC   C3B71805   0.185  30.219   7.018
 5573POPC   C4B71806   0.073  30.384   7.401
 5574POPC   NC371807  37.255  23.181   5.583
 5574POPC   PO471808  36.902  23.748   5.282
 5574POPC   GL171809  36.900  23.883   5.703
 5574POPC   GL271810  37.112  23.631   5.783
 5574POPC   C1A71811  36.682  23.755   6.106
 5574POPC   D2A71812  36.436  23.589   6.475
 5574POPC   C3A71813  36.616  23.619   6.897
 5574POPC   C4A71814  36.975  23.860   7.075
 5574POPC   C1B71815  37.168  23.593   6.189
 5574POPC   C2B71816  36.955  23.455   6.517
 5574POPC   C3B71817  37.106  23.403   6.892
 5574POPC   C4B71818  37.229  23.470   7.276
 5575POPC   NC371819  31.419  29.669   5.442
 5575POPC   PO471820  31.485  30.413   5.395
 5575POPC   GL171821  31.364  30.147   5.753
 5575POPC   GL271822  31.592  29.899   5.910
 5575POPC   C1A71823  31.164  30.066   6.170
 5575POPC   D2A71824  31.089  30.203   6.605
 5575POPC   C3A71825  31.439  30.043   6.878
 5575POPC   C4A71826  31.375  29.794   7.241
 5575POPC   C1B71827  31.860  29.731   6.290
 5575POPC   C2B71828  31.898  29.688   6.760
 5575POPC   C3B71829  31.812  29.547   7.175
 5575POPC   C4B71830  31.812  29.635   7.606
 5576POPC   NC371831  17.682  23.037   5.493
 5576POPC   PO471832  17.328  22.462   5.643
 5576POPC   GL171833  17.628  22.676   5.884
 5576POPC   GL271834  17.388  22.961   5.940
 5576POPC   C1A71835  17.786  22.894   6.234
 5576POPC   D2A71836  17.531  22.938   6.619
 5576POPC   C3A71837  17.778  22.849   6.979
 5576POPC   C4A71838  17.824  23.069   7.377
 5576POPC   C1B71839  17.146  23.200   6.290
 5576POPC   C2B71840  17.137  23.246   6.747
 5576POPC   C3B71841  17.324  23.134   7.147
 5576POPC   C4B71842  17.461  23.398   7.496
 5577POPC   NC371843  22.442  33.841   5.325
 5577POPC   PO471844  21.874  33.531   5.483
 5577POPC   GL171845  22.116  33.829   5.786
 5577POPC   GL271846  22.502  33.917   5.839
 5577POPC   C1A71847  22.223  33.780   6.253
 5577POPC   D2A71848  22.074  34.005   6.614
 5577POPC   C3A71849  22.043  33.761   6.988
 5577POPC   C4A71850  22.404  33.554   7.196
 5577POPC   C1B71851  22.619  34.077   6.284
 5577POPC   C2B71852  22.485  34.305   6.684
 5577POPC   C3B71853  22.439  34.060   7.085
 5577POPC   C4B71854  22.254  34.082   7.546
 5578POPC   NC371855  20.731   9.820   4.958
 5578POPC   PO471856  20.571  10.024   5.495
 5578POPC   GL171857  20.611   9.818   5.905
 5578POPC   GL271858  20.389  10.009   6.077
 5578POPC   C1A71859  20.581   9.616   6.339
 5578POPC   D2A71860  20.774   9.672   6.735
 5578POPC   C3A71861  20.455   9.786   7.026
 5578POPC   C4A71862  20.034   9.632   7.137
 5578POPC   C1B71863  20.634  10.137   6.447
 5578POPC   C2B71864  20.826  10.185   6.857
 5578POPC   C3B71865  20.827  10.028   7.291
 5578POPC   C4B71866  20.826   9.931   7.750
 5579POPC   NC371867  39.050  10.447   5.491
 5579POPC   PO471868  39.686  10.422   5.515
 5579POPC   GL171869  39.425  10.721   5.806
 5579POPC   GL271870  39.057  10.860   5.791
 5579POPC   C1A71871  39.382  10.846   6.252
 5579POPC   D2A71872  39.125  10.741   6.637
 5579POPC   C3A71873  39.365  10.546   6.966
 5579POPC   C4A71874  39.549  10.292   7.288
 5579POPC   C1B71875  38.866  10.667   6.186
 5579POPC   C2B71876  38.613  10.648   6.591
 5579POPC   C3B71877  38.733  10.680   7.039
 5579POPC   C4B71878  39.078  10.953   7.120
 5580POPC   NC371879  13.751  24.001   5.052
 5580POPC   PO471880  13.510  23.577   5.409
 5580POPC   GL171881  13.539  23.807   5.769
 5580POPC   GL271882  13.816  23.687   5.835
 5580POPC   C1A71883  13.401  23.718   6.201
 5580POPC   D2A71884  13.649  23.678   6.599
 5580POPC   C3A71885  13.460  23.798   6.960
 5580POPC   C4A71886  13.254  23.915   7.317
 5580POPC   C1B71887  13.931  23.857   6.194
 5580POPC   C2B71888  14.075  23.999   6.576
 5580POPC   C3B71889  14.010  23.901   6.980
 5580POPC   C4B71890  13.828  23.656   7.279
 5581POPC   NC371891  42.056  35.523   5.527
 5581POPC   PO471892  41.424  35.903   5.445
 5581POPC   GL171893  41.682  36.095   5.771
 5581POPC   GL271894  41.790  36.450   5.753
 5581POPC   C1A71895  41.489  35.972   6.186
 5581POPC   D2A71896  41.213  35.892   6.546
 5581POPC   C3A71897  41.482  35.901   6.904
 5581POPC   C4A71898  41.521  36.060   7.304
 5581POPC   C1B71899  41.621  36.464   6.154
 5581POPC   C2B71900  41.586  36.292   6.588
 5581POPC   C3B71901  41.622  36.504   6.999
 5581POPC   C4B71902  41.868  36.452   7.392
 5582POPC   NC371903  41.359  14.325   5.543
 5582POPC   PO471904  41.946  13.980   5.618
 5582POPC   GL171905  41.672  14.166   5.923
 5582POPC   GL271906  41.594  14.555   5.919
 5582POPC   C1A71907  41.734  14.325   6.332
 5582POPC   D2A71908  41.493  14.447   6.671
 5582POPC   C3A71909  41.740  14.286   6.969
 5582POPC   C4A71910  41.668  14.035   7.298
 5582POPC   C1B71911  41.294  14.664   6.225
 5582POPC   C2B71912  41.074  14.744   6.598
 5582POPC   C3B71913  41.200  14.720   7.012
 5582POPC   C4B71914  41.496  14.576   7.306
 5583POPC   NC371915  35.304   8.497   5.484
 5583POPC   PO471916  35.381   7.855   5.214
 5583POPC   GL171917  35.551   8.031   5.623
 5583POPC   GL271918  35.224   8.063   5.765
 5583POPC   C1A71919  35.603   7.988   6.118
 5583POPC   D2A71920  35.549   8.252   6.532
 5583POPC   C3A71921  35.514   8.126   7.003
 5583POPC   C4A71922  35.643   8.052   7.472
 5583POPC   C1B71923  35.105   8.174   6.180
 5583POPC   C2B71924  35.037   8.283   6.619
 5583POPC   C3B71925  34.994   8.130   7.029
 5583POPC   C4B71926  35.162   8.220   7.410
 5584POPC   NC371927   6.315  44.197   5.247
 5584POPC   PO471928   6.782  43.754   5.279
 5584POPC   GL171929   6.779  43.566   5.700
 5584POPC   GL271930   7.006  43.757   5.860
 5584POPC   C1A71931   6.606  43.620   6.158
 5584POPC   D2A71932   6.421  44.002   6.364
 5584POPC   C3A71933   6.457  44.014   6.821
 5584POPC   C4A71934   6.537  44.326   7.103
 5584POPC   C1B71935   6.959  44.020   6.194
 5584POPC   C2B71936   6.890  43.919   6.579
 5584POPC   C3B71937   7.013  44.159   6.911
 5584POPC   C4B71938   6.873  43.903   7.174
 5585POPC   NC371939  39.577  22.873   5.641
 5585POPC   PO471940  38.892  22.977   5.467
 5585POPC   GL171941  38.975  23.134   5.843
 5585POPC   GL271942  39.148  22.861   5.929
 5585POPC   C1A71943  39.192  23.288   6.183
 5585POPC   D2A71944  39.276  23.149   6.596
 5585POPC   C3A71945  39.018  23.246   6.896
 5585POPC   C4A71946  39.044  23.058   7.261
 5585POPC   C1B71947  39.401  22.795   6.262
 5585POPC   C2B71948  39.519  22.556   6.611
 5585POPC   C3B71949  39.239  22.518   6.905
 5585POPC   C4B71950  39.199  22.580   7.316
 5586POPC   NC371951   6.721  24.309   5.300
 5586POPC   PO471952   6.294  24.759   5.418
 5586POPC   GL171953   6.345  24.490   5.779
 5586POPC   GL271954   6.591  24.210   5.787
 5586POPC   C1A71955   6.524  24.583   6.174
 5586POPC   D2A71956   6.635  24.921   6.457
 5586POPC   C3A71957   6.629  24.635   6.819
 5586POPC   C4A71958   6.684  24.621   7.250
 5586POPC   C1B71959   6.752  23.980   6.172
 5586POPC   C2B71960   6.686  24.171   6.560
 5586POPC   C3B71961   6.789  24.164   6.989
 5586POPC   C4B71962   6.648  23.877   7.276
 5587POPC   NC371963  42.650  36.053   5.277
 5587POPC   PO471964  43.269  36.174   5.430
 5587POPC   GL171965  43.078  36.303   5.782
 5587POPC   GL271966  43.007  36.040   5.994
 5587POPC   C1A71967  43.057  36.470   6.220
 5587POPC   D2A71968  42.964  36.156   6.535
 5587POPC   C3A71969  43.110  36.262   6.928
 5587POPC   C4A71970  43.224  35.970   7.239
 5587POPC   C1B71971  42.794  35.758   6.223
 5587POPC   C2B71972  42.789  35.618   6.635
 5587POPC   C3B71973  42.818  35.714   7.075
 5587POPC   C4B71974  42.566  35.766   7.451
 5588POPC   NC371975  16.282  38.637   5.162
 5588POPC   PO471976  15.885  38.186   5.441
 5588POPC   GL171977  15.956  38.519   5.737
 5588POPC   GL271978  16.293  38.681   5.686
 5588POPC   C1A71979  16.090  38.352   6.153
 5588POPC   D2A71980  15.941  38.212   6.563
 5588POPC   C3A71981  16.137  38.253   6.972
 5588POPC   C4A71982  15.997  38.362   7.381
 5588POPC   C1B71983  16.180  38.835   6.091
 5588POPC   C2B71984  16.037  38.731   6.501
 5588POPC   C3B71985  16.035  38.724   6.931
 5588POPC   C4B71986  16.340  38.702   7.262
 5589POPC   NC371987  11.305   3.422   5.374
 5589POPC   PO471988  10.851   3.901   5.488
 5589POPC   GL171989  11.094   3.605   5.784
 5589POPC   GL271990  11.463   3.740   5.743
 5589POPC   C1A71991  11.025   3.489   6.226
 5589POPC   D2A71992  11.081   3.733   6.610
 5589POPC   C3A71993  10.999   3.560   7.002
 5589POPC   C4A71994  11.269   3.324   7.195
 5589POPC   C1B71995  11.510   3.427   6.051
 5589POPC   C2B71996  11.495   3.444   6.499
 5589POPC   C3B71997  11.655   3.255   6.870
 5589POPC   C4B71998  11.752   3.493   7.249
 5590POPC   NC371999  13.619   6.518   5.279
 5590POPC   PO472000  13.378   7.078   5.438
 5590POPC   GL172001  13.657   6.838   5.729
 5590POPC   GL272002  13.814   6.481   5.780
 5590POPC   C1A72003  13.612   6.712   6.175
 5590POPC   D2A72004  13.572   6.880   6.556
 5590POPC   C3A72005  13.512   6.614   6.864
 5590POPC   C4A72006  13.606   6.780   7.223
 5590POPC   C1B72007  14.049   6.430   6.220
 5590POPC   C2B72008  14.185   6.409   6.671
 5590POPC   C3B72009  13.946   6.348   7.095
 5590POPC   C4B72010  13.493   6.234   7.224
 5591POPC   NC372011  22.293  14.005   5.203
 5591POPC   PO472012  22.483  13.380   5.298
 5591POPC   GL172013  22.497  13.645   5.701
 5591POPC   GL272014  22.157  13.746   5.745
 5591POPC   C1A72015  22.459  13.979   6.086
 5591POPC   D2A72016  22.100  13.952   6.382
 5591POPC   C3A72017  22.095  13.781   6.799
 5591POPC   C4A72018  21.834  13.865   7.123
 5591POPC   C1B72019  22.292  13.503   6.141
 5591POPC   C2B72020  22.460  13.522   6.574
 5591POPC   C3B72021  22.386  13.394   7.015
 5591POPC   C4B72022  22.405  13.326   7.473
 5592POPC   NC372023   5.734  23.067   5.504
 5592POPC   PO472024   6.148  22.580   5.420
 5592POPC   GL172025   6.017  22.751   5.862
 5592POPC   GL272026   5.930  23.141   5.947
 5592POPC   C1A72027   5.985  22.831   6.324
 5592POPC   D2A72028   5.988  23.248   6.473
 5592POPC   C3A72029   6.226  23.169   6.812
 5592POPC   C4A72030   6.300  22.946   7.198
 5592POPC   C1B72031   5.550  22.830   6.084
 5592POPC   C2B72032   5.512  22.657   6.495
 5592POPC   C3B72033   5.806  22.851   6.789
 5592POPC   C4B72034   5.807  23.059   7.142
 5593POPC   NC372035  35.206  17.275   5.455
 5593POPC   PO472036  35.802  17.646   5.471
 5593POPC   GL172037  35.483  17.562   5.825
 5593POPC   GL272038  35.458  17.199   5.900
 5593POPC   C1A72039  35.394  17.658   6.292
 5593POPC   D2A72040  35.685  17.652   6.674
 5593POPC   C3A72041  35.606  17.547   7.109
 5593POPC   C4A72042  35.292  17.641   7.416
 5593POPC   C1B72043  35.288  17.143   6.320
 5593POPC   C2B72044  35.232  17.337   6.734
 5593POPC   C3B72045  35.235  17.195   7.169
 5593POPC   C4B72046  35.488  17.215   7.557
 5594POPC   NC372047  30.540  25.787   5.348
 5594POPC   PO472048  30.867  25.185   5.211
 5594POPC   GL172049  30.873  25.281   5.705
 5594POPC   GL272050  30.552  25.250   5.885
 5594POPC   C1A72051  30.992  25.241   6.173
 5594POPC   D2A72052  30.895  25.409   6.604
 5594POPC   C3A72053  30.786  25.101   6.921
 5594POPC   C4A72054  30.937  24.983   7.328
 5594POPC   C1B72055  30.497  25.162   6.353
 5594POPC   C2B72056  30.386  25.401   6.740
 5594POPC   C3B72057  30.206  25.625   7.133
 5594POPC   C4B72058  30.482  25.710   7.534
 5595POPC   NC372059  36.342   9.260   5.204
 5595POPC   PO472060  35.914   9.711   5.299
 5595POPC   GL172061  35.921   9.653   5.734
 5595POPC   GL272062  36.165   9.415   5.762
 5595POPC   C1A72063  36.156   9.747   6.135
 5595POPC   D2A72064  36.272   9.493   6.483
 5595POPC   C3A72065  36.134   9.682   6.868
 5595POPC   C4A72066  36.316   9.907   7.197
 5595POPC   C1B72067  35.897   9.293   6.156
 5595POPC   C2B72068  35.772   9.151   6.593
 5595POPC   C3B72069  35.743   9.388   6.982
 5595POPC   C4B72070  35.870   9.668   7.323
 5596POPC   NC372071  25.744  33.104   5.618
 5596POPC   PO472072  26.432  33.300   5.453
 5596POPC   GL172073  26.185  33.222   5.836
 5596POPC   GL272074  26.290  32.873   5.911
 5596POPC   C1A72075  25.910  33.408   6.224
 5596POPC   D2A72076  25.626  33.438   6.624
 5596POPC   C3A72077  25.820  33.289   6.974
 5596POPC   C4A72078  25.898  33.371   7.375
 5596POPC   C1B72079  25.989  32.906   6.208
 5596POPC   C2B72080  25.823  32.975   6.561
 5596POPC   C3B72081  25.942  32.796   6.907
 5596POPC   C4B72082  26.104  32.890   7.287
 5597POPC   NC372083  12.491  23.140   5.470
 5597POPC   PO472084  12.044  22.648   5.369
 5597POPC   GL172085  12.159  22.861   5.760
 5597POPC   GL272086  11.900  23.079   5.913
 5597POPC   C1A72087  12.177  22.756   6.209
 5597POPC   D2A72088  12.246  22.964   6.595
 5597POPC   C3A72089  12.305  22.822   7.022
 5597POPC   C4A72090  12.026  22.630   7.313
 5597POPC   C1B72091  12.009  23.311   6.275
 5597POPC   C2B72092  11.756  23.146   6.592
 5597POPC   C3B72093  11.798  22.930   6.948
 5597POPC   C4B72094  11.895  23.137   7.325
 5598POPC   NC372095  35.578  18.751   5.311
 5598POPC   PO472096  35.356  19.363   5.081
 5598POPC   GL172097  35.311  19.167   5.550
 5598POPC   GL272098  35.615  19.069   5.718
 5598POPC   C1A72099  35.145  19.057   6.037
 5598POPC   D2A72100  34.954  19.080   6.504
 5598POPC   C3A72101  35.091  19.064   6.950
 5598POPC   C4A72102  35.438  18.819   7.109
 5598POPC   C1B72103  35.618  19.219   6.159
 5598POPC   C2B72104  35.490  19.174   6.606
 5598POPC   C3B72105  35.543  19.319   7.029
 5598POPC   C4B72106  35.561  19.153   7.476
 5599POPC   NC372107   3.842  10.881   5.214
 5599POPC   PO472108   4.465  11.333   5.305
 5599POPC   GL172109   4.295  11.340   5.699
 5599POPC   GL272110   4.252  11.022   5.695
 5599POPC   C1A72111   4.386  11.487   6.126
 5599POPC   D2A72112   4.530  11.672   6.526
 5599POPC   C3A72113   4.384  11.525   6.908
 5599POPC   C4A72114   4.299  11.322   7.270
 5599POPC   C1B72115   4.580  11.025   6.029
 5599POPC   C2B72116   4.650  11.166   6.476
 5599POPC   C3B72117   4.445  11.024   6.860
 5599POPC   C4B72118   4.036  10.966   6.983
 5600POPC   NC372119  21.675  30.124   5.380
 5600POPC   PO472120  21.239  29.608   5.442
 5600POPC   GL172121  21.440  29.897   5.794
 5600POPC   GL272122  21.805  29.823   5.804
 5600POPC   C1A72123  21.257  30.184   6.145
 5600POPC   D2A72124  21.102  30.176   6.585
 5600POPC   C3A72125  21.097  29.786   6.850
 5600POPC   C4A72126  21.165  29.870   7.294
 5600POPC   C1B72127  21.901  30.020   6.187
 5600POPC   C2B72128  21.606  30.039   6.537
 5600POPC   C3B72129  21.488  30.096   6.963
 5600POPC   C4B72130  21.677  30.000   7.365
 5601POPC   NC372131  38.229   3.247   5.403
 5601POPC   PO472132  38.107   3.900   5.374
 5601POPC   GL172133  38.190   3.699   5.800
 5601POPC   GL272134  38.406   3.381   5.866
 5601POPC   C1A72135  38.316   3.945   6.200
 5601POPC   D2A72136  38.612   4.037   6.578
 5601POPC   C3A72137  38.582   3.820   6.998
 5601POPC   C4A72138  38.762   3.707   7.392
 5601POPC   C1B72139  38.600   3.534   6.254
 5601POPC   C2B72140  38.726   3.437   6.679
 5601POPC   C3B72141  38.731   3.289   7.092
 5601POPC   C4B72142  38.728   3.229   7.557
 5602POPC   NC372143  24.603  35.034   5.421
 5602POPC   PO472144  24.272  35.586   5.478
 5602POPC   GL172145  24.437  35.368   5.817
 5602POPC   GL272146  24.242  35.065   5.805
 5602POPC   C1A72147  24.614  35.486   6.228
 5602POPC   D2A72148  24.698  35.740   6.601
 5602POPC   C3A72149  24.521  35.541   6.963
 5602POPC   C4A72150  24.634  35.262   7.302
 5602POPC   C1B72151  24.406  34.963   6.223
 5602POPC   C2B72152  24.374  35.133   6.663
 5602POPC   C3B72153  24.242  34.986   7.089
 5602POPC   C4B72154  24.265  35.017   7.551
 5603POPC   NC372155  42.519   0.540   5.376
 5603POPC   PO472156  42.380  44.912   5.506
 5603POPC   GL172157  42.310   0.246   5.846
 5603POPC   GL272158  42.589   0.481   5.870
 5603POPC   C1A72159  42.143   0.279   6.300
 5603POPC   D2A72160  41.955   0.006   6.606
 5603POPC   C3A72161  41.949   0.192   7.019
 5603POPC   C4A72162  42.180   0.564   7.133
 5603POPC   C1B72163  42.642   0.227   6.253
 5603POPC   C2B72164  42.511   0.264   6.702
 5603POPC   C3B72165  42.672   0.623   6.931
 5603POPC   C4B72166  42.631   0.825   7.273
 5604POPC   NC372167  28.213   8.486   5.512
 5604POPC   PO472168  28.388   7.904   5.394
 5604POPC   GL172169  28.352   8.058   5.774
 5604POPC   GL272170  28.069   7.863   5.809
 5604POPC   C1A72171  28.524   8.326   6.119
 5604POPC   D2A72172  28.739   8.533   6.474
 5604POPC   C3A72173  28.651   8.358   6.887
 5604POPC   C4A72174  28.399   8.495   7.235
 5604POPC   C1B72175  28.264   7.884   6.225
 5604POPC   C2B72176  28.297   8.136   6.552
 5604POPC   C3B72177  28.152   8.153   6.931
 5604POPC   C4B72178  28.257   7.982   7.315
 5605POPC   NC372179  31.157   0.500   5.485
 5605POPC   PO472180  31.843   0.484   5.593
 5605POPC   GL172181  31.431   0.486   5.921
 5605POPC   GL272182  31.115   0.755   5.911
 5605POPC   C1A72183  31.431   0.303   6.370
 5605POPC   D2A72184  31.788   0.361   6.665
 5605POPC   C3A72185  31.671   0.486   7.072
 5605POPC   C4A72186  31.455   0.281   7.445
 5605POPC   C1B72187  31.182   0.765   6.332
 5605POPC   C2B72188  31.115   0.597   6.717
 5605POPC   C3B72189  31.223   0.673   7.142
 5605POPC   C4B72190  31.135   0.787   7.552
 5606POPC   NC372191  15.744  26.977   5.390
 5606POPC   PO472192  16.323  26.755   5.442
 5606POPC   GL172193  16.016  26.784   5.783
 5606POPC   GL272194  15.993  27.159   5.819
 5606POPC   C1A72195  15.778  26.862   6.184
 5606POPC   D2A72196  15.532  26.830   6.556
 5606POPC   C3A72197  15.676  26.809   6.996
 5606POPC   C4A72198  15.813  26.467   7.269
 5606POPC   C1B72199  16.141  27.218   6.277
 5606POPC   C2B72200  15.941  27.134   6.689
 5606POPC   C3B72201  15.932  27.228   7.141
 5606POPC   C4B72202  16.190  27.450   7.466
 5607POPC   NC372203  10.991  33.342   5.488
 5607POPC   PO472204  11.475  32.874   5.467
 5607POPC   GL172205  11.106  32.900   5.817
 5607POPC   GL272206  11.065  33.207   5.960
 5607POPC   C1A72207  11.036  32.846   6.298
 5607POPC   D2A72208  10.959  33.186   6.610
 5607POPC   C3A72209  10.964  33.125   7.066
 5607POPC   C4A72210  11.128  33.348   7.423
 5607POPC   C1B72211  11.369  33.337   6.251
 5607POPC   C2B72212  11.366  33.567   6.612
 5607POPC   C3B72213  11.396  33.350   6.936
 5607POPC   C4B72214  11.613  33.292   7.249
 5608POPC   NC372215  29.646  36.083   5.429
 5608POPC   PO472216  28.879  36.109   5.485
 5608POPC   GL172217  29.006  36.332   5.826
 5608POPC   GL272218  29.346  36.209   5.844
 5608POPC   C1A72219  29.017  36.206   6.252
 5608POPC   D2A72220  29.228  36.249   6.642
 5608POPC   C3A72221  28.992  35.989   6.920
 5608POPC   C4A72222  28.815  36.019   7.296
 5608POPC   C1B72223  29.453  35.955   6.234
 5608POPC   C2B72224  29.293  35.741   6.595
 5608POPC   C3B72225  29.444  35.726   7.016
 5608POPC   C4B72226  29.518  35.911   7.400
 5609POPC   NC372227   8.387  44.452   5.398
 5609POPC   PO472228   7.895  44.906   5.506
 5609POPC   GL172229   8.074  44.608   5.801
 5609POPC   GL272230   8.388  44.741   5.851
 5609POPC   C1A72231   8.134  44.531   6.257
 5609POPC   D2A72232   8.040  44.440   6.701
 5609POPC   C3A72233   8.277  44.522   7.058
 5609POPC   C4A72234   8.136  44.596   7.483
 5609POPC   C1B72235   8.483  44.921   6.242
 5609POPC   C2B72236   8.427  44.783   6.632
 5609POPC   C3B72237   8.519  44.984   6.981
 5609POPC   C4B72238   8.641  44.753   7.339
 5610POPC   NC372239   9.942   4.859   5.400
 5610POPC   PO472240   9.702   5.422   5.445
 5610POPC   GL172241   9.626   5.082   5.748
 5610POPC   GL272242   9.786   5.289   5.975
 5610POPC   C1A72243   9.732   4.816   6.141
 5610POPC   D2A72244   9.880   4.981   6.560
 5610POPC   C3A72245  10.093   4.731   6.880
 5610POPC   C4A72246   9.810   4.823   7.216
 5610POPC   C1B72247   9.612   5.404   6.367
 5610POPC   C2B72248   9.283   5.335   6.651
 5610POPC   C3B72249   9.442   5.102   6.969
 5610POPC   C4B72250   9.775   5.351   7.193
 5611POPC   NC372251  29.579   1.497   5.329
 5611POPC   PO472252  30.240   1.867   5.291
 5611POPC   GL172253  30.156   1.924   5.717
 5611POPC   GL272254  29.806   1.987   5.790
 5611POPC   C1A72255  30.127   1.742   6.125
 5611POPC   D2A72256  30.295   1.785   6.533
 5611POPC   C3A72257  29.965   1.776   6.835
 5611POPC   C4A72258  29.838   1.646   7.231
 5611POPC   C1B72259  29.600   2.032   6.207
 5611POPC   C2B72260  29.647   2.176   6.663
 5611POPC   C3B72261  29.720   2.125   7.135
 5611POPC   C4B72262  29.665   2.120   7.603
 5612POPC   NC372263  38.354  19.969   5.321
 5612POPC   PO472264  37.847  19.733   5.549
 5612POPC   GL172265  38.165  19.987   5.843
 5612POPC   GL272266  38.549  19.955   5.923
 5612POPC   C1A72267  38.243  19.993   6.342
 5612POPC   D2A72268  38.366  19.672   6.701
 5612POPC   C3A72269  38.603  19.780   7.105
 5612POPC   C4A72270  38.439  20.125   7.312
 5612POPC   C1B72271  38.739  19.845   6.386
 5612POPC   C2B72272  38.866  19.525   6.708
 5612POPC   C3B72273  38.844  19.325   7.127
 5612POPC   C4B72274  38.993  19.524   7.489
 5613POPC   NC372275  30.661  24.796   5.393
 5613POPC   PO472276  30.821  24.087   5.334
 5613POPC   GL172277  30.733  24.408   5.733
 5613POPC   GL272278  30.397  24.324   5.851
 5613POPC   C1A72279  30.780  24.680   6.147
 5613POPC   D2A72280  31.140  24.793   6.451
 5613POPC   C3A72281  31.058  24.652   6.877
 5613POPC   C4A72282  30.698  24.574   7.126
 5613POPC   C1B72283  30.573  24.208   6.263
 5613POPC   C2B72284  30.700  24.260   6.703
 5613POPC   C3B72285  30.593  24.040   7.120
 5613POPC   C4B72286  30.673  24.090   7.597
 5614POPC   NC372287  18.229  19.610   5.259
 5614POPC   PO472288  17.994  20.201   5.443
 5614POPC   GL172289  18.231  19.921   5.723
 5614POPC   GL272290  18.336  19.576   5.786
 5614POPC   C1A72291  18.378  19.906   6.164
 5614POPC   D2A72292  18.178  19.738   6.514
 5614POPC   C3A72293  18.235  19.582   6.933
 5614POPC   C4A72294  18.209  19.669   7.364
 5614POPC   C1B72295  18.532  19.438   6.249
 5614POPC   C2B72296  18.670  19.332   6.719
 5614POPC   C3B72297  18.611  19.370   7.219
 5614POPC   C4B72298  18.578  19.485   7.674
 5615POPC   NC372299  41.893   8.294   5.383
 5615POPC   PO472300  41.282   8.509   5.255
 5615POPC   GL172301  41.472   8.504   5.738
 5615POPC   GL272302  41.849   8.389   5.881
 5615POPC   C1A72303  41.499   8.446   6.227
 5615POPC   D2A72304  41.703   8.081   6.492
 5615POPC   C3A72305  41.595   8.096   6.955
 5615POPC   C4A72306  41.452   7.745   7.220
 5615POPC   C1B72307  41.993   8.504   6.329
 5615POPC   C2B72308  41.773   8.527   6.738
 5615POPC   C3B72309  41.922   8.383   7.197
 5615POPC   C4B72310  42.043   8.309   7.638
 5616POPC   NC372311   5.368  18.633   5.344
 5616POPC   PO472312   4.962  18.062   5.403
 5616POPC   GL172313   5.126  18.363   5.709
 5616POPC   GL272314   4.898  18.243   5.899
 5616POPC   C1A72315   5.254  18.491   6.166
 5616POPC   D2A72316   5.356  18.281   6.577
 5616POPC   C3A72317   5.240  18.512   6.908
 5616POPC   C4A72318   5.099  18.410   7.297
 5616POPC   C1B72319   5.081  18.011   6.209
 5616POPC   C2B72320   4.947  17.957   6.603
 5616POPC   C3B72321   5.123  17.974   6.993
 5616POPC   C4B72322   4.917  17.921   7.385
 5617POPC   NC372323  29.449   7.028   5.452
 5617POPC   PO472324  28.798   7.194   5.256
 5617POPC   GL172325  29.051   7.278   5.738
 5617POPC   GL272326  29.426   7.252   5.910
 5617POPC   C1A72327  29.082   7.396   6.230
 5617POPC   D2A72328  28.876   7.492   6.612
 5617POPC   C3A72329  29.007   7.389   6.987
 5617POPC   C4A72330  28.992   7.614   7.357
 5617POPC   C1B72331  29.487   7.686   6.137
 5617POPC   C2B72332  29.308   7.809   6.559
 5617POPC   C3B72333  29.388   7.727   7.024
 5617POPC   C4B72334  29.424   7.865   7.445
 5618POPC   NC372335  35.786  18.055   5.225
 5618POPC   PO472336  35.203  18.444   5.413
 5618POPC   GL172337  35.205  18.217   5.810
 5618POPC   GL272338  35.052  17.856   5.763
 5618POPC   C1A72339  35.148  18.443   6.231
 5618POPC   D2A72340  35.244  18.638   6.643
 5618POPC   C3A72341  35.333  18.326   6.965
 5618POPC   C4A72342  35.555  18.038   7.239
 5618POPC   C1B72343  34.927  17.986   6.174
 5618POPC   C2B72344  35.127  18.030   6.562
 5618POPC   C3B72345  35.176  17.831   6.955
 5618POPC   C4B72346  35.064  18.079   7.348
 5619POPC   NC372347  33.217   7.681   5.163
 5619POPC   PO472348  32.745   7.243   5.314
 5619POPC   GL172349  32.914   7.330   5.770
 5619POPC   GL272350  33.246   7.200   5.862
 5619POPC   C1A72351  32.919   7.327   6.263
 5619POPC   D2A72352  32.834   7.622   6.648
 5619POPC   C3A72353  32.858   7.524   7.126
 5619POPC   C4A72354  32.592   7.259   7.399
 5619POPC   C1B72355  33.271   7.621   6.035
 5619POPC   C2B72356  33.314   7.655   6.461
 5619POPC   C3B72357  33.335   7.612   6.925
 5619POPC   C4B72358  33.274   7.573   7.410
 5620POPC   NC372359  39.521   1.337   5.505
 5620POPC   PO472360  38.905   1.162   5.314
 5620POPC   GL172361  39.128   1.038   5.678
 5620POPC   GL272362  39.146   1.361   5.846
 5620POPC   C1A72363  39.023   0.962   6.126
 5620POPC   D2A72364  39.239   0.913   6.497
 5620POPC   C3A72365  39.250   1.091   6.896
 5620POPC   C4A72366  39.381   0.876   7.247
 5620POPC   C1B72367  39.139   1.568   6.222
 5620POPC   C2B72368  39.368   1.543   6.598
 5620POPC   C3B72369  39.361   1.583   7.038
 5620POPC   C4B72370  39.317   1.412   7.434
 5621POPC   NC372371  30.722  27.983   5.295
 5621POPC   PO472372  30.454  28.620   5.216
 5621POPC   GL172373  30.602  28.374   5.637
 5621POPC   GL272374  30.919  28.231   5.693
 5621POPC   C1A72375  30.444  28.406   6.103
 5621POPC   D2A72376  30.498  28.259   6.567
 5621POPC   C3A72377  30.638  28.533   6.937
 5621POPC   C4A72378  30.482  28.641   7.382
 5621POPC   C1B72379  30.948  28.283   6.109
 5621POPC   C2B72380  31.006  28.336   6.538
 5621POPC   C3B72381  30.869  28.069   6.890
 5621POPC   C4B72382  30.717  28.159   7.308
 5622POPC   NC372383   9.659  19.375   5.198
 5622POPC   PO472384   9.994  18.861   5.267
 5622POPC   GL172385   9.727  19.056   5.590
 5622POPC   GL272386   9.918  19.328   5.770
 5622POPC   C1A72387   9.583  19.037   6.019
 5622POPC   D2A72388   9.557  19.182   6.467
 5622POPC   C3A72389   9.736  19.042   6.856
 5622POPC   C4A72390   9.550  18.936   7.233
 5622POPC   C1B72391  10.013  19.194   6.228
 5622POPC   C2B72392  10.072  19.390   6.648
 5622POPC   C3B72393  10.071  19.354   7.116
 5622POPC   C4B72394  10.007  19.061   7.475
 5623POPC   NC372395  37.394  34.530   5.343
 5623POPC   PO472396  38.054  34.551   5.443
 5623POPC   GL172397  37.743  34.484   5.718
 5623POPC   GL272398  37.687  34.829   5.725
 5623POPC   C1A72399  37.764  34.503   6.168
 5623POPC   D2A72400  38.064  34.426   6.497
 5623POPC   C3A72401  37.849  34.584   6.851
 5623POPC   C4A72402  37.553  34.365   7.127
 5623POPC   C1B72403  37.812  35.032   6.136
 5623POPC   C2B72404  37.569  35.078   6.538
 5623POPC   C3B72405  37.465  34.925   6.951
 5623POPC   C4B72406  37.687  34.809   7.327
 5624POPC   NC372407  35.197  21.800   5.369
 5624POPC   PO472408  35.547  21.198   5.418
 5624POPC   GL172409  35.384  21.266   5.777
 5624POPC   GL272410  35.471  20.931   5.867
 5624POPC   C1A72411  35.159  21.573   6.018
 5624POPC   D2A72412  35.111  21.727   6.437
 5624POPC   C3A72413  35.391  21.746   6.795
 5624POPC   C4A72414  35.290  21.548   7.161
 5624POPC   C1B72415  35.275  21.108   6.244
 5624POPC   C2B72416  35.282  21.252   6.658
 5624POPC   C3B72417  35.331  21.040   7.038
 5624POPC   C4B72418  35.539  20.883   7.403
 5625POPC   NC372419  35.311  40.996   5.320
 5625POPC   PO472420  35.449  40.322   5.339
 5625POPC   GL172421  35.446  40.657   5.673
 5625POPC   GL272422  35.115  40.839   5.768
 5625POPC   C1A72423  35.527  40.811   6.079
 5625POPC   D2A72424  35.341  40.619   6.417
 5625POPC   C3A72425  35.302  40.628   6.882
 5625POPC   C4A72426  35.555  40.863   7.180
 5625POPC   C1B72427  34.894  40.825   6.169
 5625POPC   C2B72428  34.988  40.963   6.591
 5625POPC   C3B72429  35.118  41.100   6.993
 5625POPC   C4B72430  35.042  40.852   7.341
 5626POPC   NC372431   7.337  27.450   5.329
 5626POPC   PO472432   7.745  26.949   5.488
 5626POPC   GL172433   7.632  27.331   5.777
 5626POPC   GL272434   7.372  27.648   5.801
 5626POPC   C1A72435   7.457  27.408   6.215
 5626POPC   D2A72436   7.565  27.611   6.584
 5626POPC   C3A72437   7.353  27.529   6.942
 5626POPC   C4A72438   7.612  27.424   7.246
 5626POPC   C1B72439   7.595  27.903   6.153
 5626POPC   C2B72440   7.641  28.109   6.582
 5626POPC   C3B72441   7.672  27.936   6.999
 5626POPC   C4B72442   7.510  27.882   7.411
 5627POPC   NC372443   8.403  23.603   5.402
 5627POPC   PO472444   9.014  23.956   5.293
 5627POPC   GL172445   8.973  23.845   5.744
 5627POPC   GL272446   8.629  23.975   5.718
 5627POPC   C1A72447   9.157  23.728   6.189
 5627POPC   D2A72448   9.196  23.596   6.638
 5627POPC   C3A72449   9.183  23.920   6.986
 5627POPC   C4A72450   9.314  24.078   7.424
 5627POPC   C1B72451   8.621  23.720   6.091
 5627POPC   C2B72452   8.727  23.796   6.508
 5627POPC   C3B72453   8.766  23.617   6.917
 5627POPC   C4B72454   8.812  23.804   7.345
 5628POPC   NC372455   6.822  26.800   5.462
 5628POPC   PO472456   6.218  26.647   5.162
 5628POPC   GL172457   6.292  26.835   5.594
 5628POPC   GL272458   6.473  26.606   5.772
 5628POPC   C1A72459   6.351  27.001   6.060
 5628POPC   D2A72460   6.591  27.020   6.458
 5628POPC   C3A72461   6.592  26.777   6.847
 5628POPC   C4A72462   6.496  26.849   7.244
 5628POPC   C1B72463   6.766  26.674   6.101
 5628POPC   C2B72464   6.857  26.530   6.507
 5628POPC   C3B72465   7.114  26.688   6.786
 5628POPC   C4B72466   7.147  26.671   7.213
 5629POPC   NC372467   9.974   1.408   5.405
 5629POPC   PO472468   9.498   0.898   5.408
 5629POPC   GL172469   9.625   1.020   5.844
 5629POPC   GL272470   9.418   0.866   6.115
 5629POPC   C1A72471   9.824   1.205   6.256
 5629POPC   D2A72472   9.665   1.018   6.668
 5629POPC   C3A72473   9.891   0.982   7.069
 5629POPC   C4A72474   9.719   1.018   7.523
 5629POPC   C1B72475   9.331   1.284   6.352
 5629POPC   C2B72476   9.619   1.535   6.612
 5629POPC   C3B72477   9.709   1.457   7.011
 5629POPC   C4B72478   9.535   1.490   7.427
 5630POPC   NC372479  32.172   3.152   5.479
 5630POPC   PO472480  32.496   3.701   5.423
 5630POPC   GL172481  32.216   3.605   5.750
 5630POPC   GL272482  32.475   3.363   5.843
 5630POPC   C1A72483  32.203   3.718   6.207
 5630POPC   D2A72484  32.514   3.670   6.566
 5630POPC   C3A72485  32.403   3.598   7.007
 5630POPC   C4A72486  32.082   3.744   7.269
 5630POPC   C1B72487  32.368   3.252   6.271
 5630POPC   C2B72488  32.133   3.011   6.554
 5630POPC   C3B72489  32.124   3.119   6.987
 5630POPC   C4B72490  32.204   3.269   7.398
 5631POPC   NC372491  26.882   9.717   5.458
 5631POPC   PO472492  26.261   9.411   5.484
 5631POPC   GL172493  26.548   9.607   5.837
 5631POPC   GL272494  26.681   9.980   5.838
 5631POPC   C1A72495  26.596   9.473   6.273
 5631POPC   D2A72496  26.446   9.596   6.682
 5631POPC   C3A72497  26.763   9.652   6.995
 5631POPC   C4A72498  26.899  10.047   7.202
 5631POPC   C1B72499  26.986   9.819   6.156
 5631POPC   C2B72500  27.064   9.649   6.588
 5631POPC   C3B72501  27.257   9.598   7.038
 5631POPC   C4B72502  27.122   9.697   7.481
 5632POPC   NC372503  19.404  19.125   5.399
 5632POPC   PO472504  18.771  18.928   5.463
 5632POPC   GL172505  19.052  19.066   5.803
 5632POPC   GL272506  18.972  19.380   5.989
 5632POPC   C1A72507  19.283  19.038   6.193
 5632POPC   D2A72508  19.177  19.345   6.516
 5632POPC   C3A72509  19.291  19.237   6.944
 5632POPC   C4A72510  19.327  18.834   7.151
 5632POPC   C1B72511  18.802  19.022   6.279
 5632POPC   C2B72512  18.963  18.872   6.660
 5632POPC   C3B72513  18.822  18.945   7.069
 5632POPC   C4B72514  18.998  19.131   7.461
 5633POPC   NC372515  30.179  29.008   5.160
 5633POPC   PO472516  30.776  29.054   5.548
 5633POPC   GL172517  30.640  28.820   5.842
 5633POPC   GL272518  30.274  28.836   5.721
 5633POPC   C1A72519  30.790  28.750   6.281
 5633POPC   D2A72520  30.758  29.041   6.622
 5633POPC   C3A72521  30.979  29.065   6.991
 5633POPC   C4A72522  30.980  29.437   7.263
 5633POPC   C1B72523  30.304  28.959   6.174
 5633POPC   C2B72524  30.340  28.763   6.555
 5633POPC   C3B72525  30.278  28.901   6.986
 5633POPC   C4B72526  30.520  29.203   7.179
 5634POPC   NC372527  43.129  25.625   5.382
 5634POPC   PO472528  42.741  26.148   5.422
 5634POPC   GL172529  42.943  26.044   5.793
 5634POPC   GL272530  43.282  25.985   5.749
 5634POPC   C1A72531  42.991  25.891   6.251
 5634POPC   D2A72532  42.952  25.915   6.700
 5634POPC   C3A72533  43.008  25.987   7.127
 5634POPC   C4A72534  42.715  26.313   7.190
 5634POPC   C1B72535  43.259  26.277   6.106
 5634POPC   C2B72536  43.346  26.256   6.515
 5634POPC   C3B72537  43.213  26.399   6.900
 5634POPC   C4B72538  43.385  26.279   7.282
 5635POPC   NC372539  24.115  31.718   5.612
 5635POPC   PO472540  23.566  31.377   5.351
 5635POPC   GL172541  23.635  31.246   5.762
 5635POPC   GL272542  23.982  31.257   5.800
 5635POPC   C1A72543  23.667  31.503   6.151
 5635POPC   D2A72544  23.495  31.670   6.539
 5635POPC   C3A72545  23.577  31.398   6.897
 5635POPC   C4A72546  23.535  31.560   7.300
 5635POPC   C1B72547  23.866  31.036   6.212
 5635POPC   C2B72548  23.974  31.075   6.669
 5635POPC   C3B72549  23.755  30.855   7.004
 5635POPC   C4B72550  23.599  30.988   7.417
 5636POPC   NC372551  43.656  15.335   5.309
 5636POPC   PO472552  44.148  14.780   5.331
 5636POPC   GL172553  43.984  15.044   5.650
 5636POPC   GL272554  44.304  15.061   5.806
 5636POPC   C1A72555  43.927  15.402   5.946
 5636POPC   D2A72556  43.863  15.547   6.373
 5636POPC   C3A72557  43.964  15.346   6.752
 5636POPC   C4A72558  43.871  15.361   7.204
 5636POPC   C1B72559  44.182  15.052   6.232
 5636POPC   C2B72560  44.272  14.888   6.602
 5636POPC   C3B72561  44.290  15.031   6.971
 5636POPC   C4B72562  44.279  15.134   7.375
 5637POPC   NC372563  19.509  20.654   5.603
 5637POPC   PO472564  18.873  20.555   5.446
 5637POPC   GL172565  18.892  20.642   5.899
 5637POPC   GL272566  18.668  20.929   5.822
 5637POPC   C1A72567  19.252  20.717   6.258
 5637POPC   D2A72568  19.480  20.693   6.707
 5637POPC   C3A72569  19.128  20.646   7.022
 5637POPC   C4A72570  18.803  20.323   7.082
 5637POPC   C1B72571  18.844  21.069   6.206
 5637POPC   C2B72572  18.915  20.899   6.611
 5637POPC   C3B72573  18.825  21.089   6.983
 5637POPC   C4B72574  18.574  21.168   7.325
 5638POPC   NC372575  28.047  14.912   5.552
 5638POPC   PO472576  28.164  14.286   5.427
 5638POPC   GL172577  28.296  14.254   5.817
 5638POPC   GL272578  28.197  14.590   5.937
 5638POPC   C1A72579  28.344  14.178   6.242
 5638POPC   D2A72580  28.224  14.411   6.589
 5638POPC   C3A72581  28.510  14.337   6.920
 5638POPC   C4A72582  28.397  14.281   7.334
 5638POPC   C1B72583  27.888  14.682   6.266
 5638POPC   C2B72584  27.928  14.845   6.706
 5638POPC   C3B72585  28.092  14.618   7.066
 5638POPC   C4B72586  28.036  14.617   7.500
 5639POPC   NC372587  37.731  32.663   5.405
 5639POPC   PO472588  37.541  33.367   5.386
 5639POPC   GL172589  37.637  33.076   5.733
 5639POPC   GL272590  37.375  32.821   5.822
 5639POPC   C1A72591  37.746  32.980   6.165
 5639POPC   D2A72592  37.584  33.096   6.568
 5639POPC   C3A72593  37.667  32.892   6.948
 5639POPC   C4A72594  38.116  32.852   7.065
 5639POPC   C1B72595  37.271  33.202   6.101
 5639POPC   C2B72596  37.182  33.398   6.514
 5639POPC   C3B72597  37.280  33.315   6.939
 5639POPC   C4B72598  37.524  33.260   7.286
 5640POPC   NC372599  18.312  37.861   5.371
 5640POPC   PO472600  18.295  37.307   5.466
 5640POPC   GL172601  18.550  37.582   5.761
 5640POPC   GL272602  18.606  37.950   5.803
 5640POPC   C1A72603  18.689  37.639   6.178
 5640POPC   D2A72604  18.506  37.448   6.550
 5640POPC   C3A72605  18.550  37.573   6.983
 5640POPC   C4A72606  18.298  37.427   7.358
 5640POPC   C1B72607  18.381  38.027   6.256
 5640POPC   C2B72608  18.352  37.962   6.720
 5640POPC   C3B72609  18.044  37.750   7.014
 5640POPC   C4B72610  17.871  37.684   7.431
 5641POPC   NC372611  37.877   6.870   5.330
 5641POPC   PO472612  37.443   6.365   5.457
 5641POPC   GL172613  37.607   6.595   5.781
 5641POPC   GL272614  37.524   6.936   5.724
 5641POPC   C1A72615  37.589   6.455   6.207
 5641POPC   D2A72616  37.623   6.238   6.591
 5641POPC   C3A72617  37.678   6.418   6.994
 5641POPC   C4A72618  37.662   6.718   7.327
 5641POPC   C1B72619  37.678   6.948   6.173
 5641POPC   C2B72620  37.605   6.788   6.602
 5641POPC   C3B72621  37.907   6.885   6.912
 5641POPC   C4B72622  37.993   7.101   7.282
 5642POPC   NC372623   0.882  42.567   5.210
 5642POPC   PO472624   1.495  42.333   5.375
 5642POPC   GL172625   1.351  42.461   5.779
 5642POPC   GL272626   1.219  42.143   5.889
 5642POPC   C1A72627   1.402  42.606   6.214
 5642POPC   D2A72628   1.272  42.332   6.560
 5642POPC   C3A72629   1.405  42.298   7.001
 5642POPC   C4A72630   1.381  42.476   7.420
 5642POPC   C1B72631   1.090  41.937   6.286
 5642POPC   C2B72632   1.017  41.927   6.756
 5642POPC   C3B72633   1.021  42.004   7.216
 5642POPC   C4B72634   1.087  42.115   7.663
 5643POPC   NC372635   1.150  27.749   5.394
 5643POPC   PO472636   1.736  27.386   5.516
 5643POPC   GL172637   1.471  27.639   5.778
 5643POPC   GL272638   1.453  28.002   5.750
 5643POPC   C1A72639   1.212  27.574   6.106
 5643POPC   D2A72640   1.314  27.530   6.498
 5643POPC   C3A72641   1.051  27.588   6.857
 5643POPC   C4A72642   0.952  27.405   7.255
 5643POPC   C1B72643   1.552  28.000   6.179
 5643POPC   C2B72644   1.705  27.865   6.576
 5643POPC   C3B72645   1.591  27.973   6.967
 5643POPC   C4B72646   1.324  27.766   7.250
 5644POPC   NC372647  14.329  10.637   5.446
 5644POPC   PO472648  14.695  10.885   5.892
 5644POPC   GL172649  14.522  10.450   5.988
 5644POPC   GL272650  14.155  10.458   5.938
 5644POPC   C1A72651  14.656  10.303   6.437
 5644POPC   D2A72652  14.765  10.577   6.757
 5644POPC   C3A72653  14.694  10.514   7.182
 5644POPC   C4A72654  14.482  10.759   7.541
 5644POPC   C1B72655  14.174  10.206   6.301
 5644POPC   C2B72656  14.239  10.219   6.743
 5644POPC   C3B72657  14.192  10.404   7.135
 5644POPC   C4B72658  14.349  10.270   7.508
 5645POPC   NC372659   1.749  28.699   5.393
 5645POPC   PO472660   1.184  28.205   5.363
 5645POPC   GL172661   1.184  28.440   5.780
 5645POPC   GL272662   1.544  28.539   5.875
 5645POPC   C1A72663   1.209  28.389   6.253
 5645POPC   D2A72664   1.197  28.035   6.567
 5645POPC   C3A72665   1.058  28.138   6.985
 5645POPC   C4A72666   0.958  28.066   7.414
 5645POPC   C1B72667   1.592  28.806   6.274
 5645POPC   C2B72668   1.474  28.858   6.724
 5645POPC   C3B72669   1.364  28.588   7.092
 5645POPC   C4B72670   1.434  28.243   7.371
 5646POPC   NC372671  32.128  18.255   5.428
 5646POPC   PO472672  32.771  18.189   5.500
 5646POPC   GL172673  32.445  18.333   5.826
 5646POPC   GL272674  32.115  18.097   5.902
 5646POPC   C1A72675  32.239  18.458   6.218
 5646POPC   D2A72676  32.324  18.156   6.560
 5646POPC   C3A72677  32.344  18.309   7.002
 5646POPC   C4A72678  32.230  18.371   7.459
 5646POPC   C1B72679  31.858  18.094   6.287
 5646POPC   C2B72680  31.868  18.378   6.662
 5646POPC   C3B72681  31.863  18.450   7.109
 5646POPC   C4B72682  31.760  18.194   7.499
 5647POPC   NC372683   5.576  23.929   5.564
 5647POPC   PO472684   5.077  23.531   5.234
 5647POPC   GL172685   5.094  23.712   5.646
 5647POPC   GL272686   5.374  23.507   5.766
 5647POPC   C1A72687   5.009  23.609   6.098
 5647POPC   D2A72688   5.087  23.506   6.520
 5647POPC   C3A72689   5.059  23.803   6.884
 5647POPC   C4A72690   5.373  23.878   7.208
 5647POPC   C1B72691   5.509  23.351   6.166
 5647POPC   C2B72692   5.482  23.185   6.578
 5647POPC   C3B72693   5.336  23.347   6.969
 5647POPC   C4B72694   5.075  23.461   7.290
 5648POPC   NC372695   3.584   7.515   5.319
 5648POPC   PO472696   3.470   6.981   5.592
 5648POPC   GL172697   3.339   7.285   5.870
 5648POPC   GL272698   3.392   7.634   5.809
 5648POPC   C1A72699   3.360   7.223   6.308
 5648POPC   D2A72700   3.327   7.503   6.652
 5648POPC   C3A72701   3.344   7.236   6.991
 5648POPC   C4A72702   3.181   7.359   7.351
 5648POPC   C1B72703   3.598   7.656   6.210
 5648POPC   C2B72704   3.818   7.388   6.530
 5648POPC   C3B72705   3.848   7.389   6.973
 5648POPC   C4B72706   3.584   7.710   7.116
 5649POPC   NC372707  44.985  11.114   5.507
 5649POPC   PO472708   0.643  10.934   5.405
 5649POPC   GL172709   0.442  11.195   5.760
 5649POPC   GL272710   0.731  11.216   5.971
 5649POPC   C1A72711   0.104  11.326   6.118
 5649POPC   D2A72712  44.968  11.368   6.578
 5649POPC   C3A72713   0.295  11.240   6.875
 5649POPC   C4A72714   0.308  11.067   7.298
 5649POPC   C1B72715   0.563  11.503   6.290
 5649POPC   C2B72716   0.709  11.519   6.702
 5649POPC   C3B72717   0.923  11.575   7.049
 5649POPC   C4B72718   0.749  11.320   7.293
 5650POPC   NC372719  43.567   9.829   5.259
 5650POPC   PO472720  43.944   9.413   5.525
 5650POPC   GL172721  43.782   9.659   5.872
 5650POPC   GL272722  43.653   9.987   5.781
 5650POPC   C1A72723  43.750   9.580   6.313
 5650POPC   D2A72724  43.702   9.603   6.742
 5650POPC   C3A72725  43.999   9.649   7.049
 5650POPC   C4A72726  43.843   9.710   7.481
 5650POPC   C1B72727  43.772  10.078   6.225
 5650POPC   C2B72728  43.857  10.089   6.657
 5650POPC   C3B72729  43.691  10.038   7.067
 5650POPC   C4B72730  43.907  10.247   7.389
 5651POPC   NC372731  39.672  30.451   5.330
 5651POPC   PO472732  39.344  31.053   5.287
 5651POPC   GL172733  39.361  31.064   5.782
 5651POPC   GL272734  39.161  30.765   5.953
 5651POPC   C1A72735  39.547  30.952   6.200
 5651POPC   D2A72736  39.338  30.715   6.537
 5651POPC   C3A72737  39.086  30.916   6.846
 5651POPC   C4A72738  39.043  30.917   7.258
 5651POPC   C1B72739  39.088  30.389   6.210
 5651POPC   C2B72740  38.927  30.316   6.646
 5651POPC   C3B72741  39.062  30.435   7.087
 5651POPC   C4B72742  39.069  30.297   7.566
 5652POPC   NC372743   6.319   9.460   5.441
 5652POPC   PO472744   6.899   9.679   5.296
 5652POPC   GL172745   6.664   9.752   5.675
 5652POPC   GL272746   6.475  10.006   5.783
 5652POPC   C1A72747   6.669   9.631   6.102
 5652POPC   D2A72748   6.905   9.740   6.472
 5652POPC   C3A72749   6.710   9.686   6.854
 5652POPC   C4A72750   6.607   9.625   7.262
 5652POPC   C1B72751   6.653  10.157   6.192
 5652POPC   C2B72752   6.708  10.183   6.669
 5652POPC   C3B72753   6.546  10.105   7.103
 5652POPC   C4B72754   6.393  10.198   7.547
 5653POPC   NC372755  42.836  24.928   5.651
 5653POPC   PO472756  43.282  25.203   5.265
 5653POPC   GL172757  43.283  25.291   5.742
 5653POPC   GL272758  43.046  25.543   5.898
 5653POPC   C1A72759  43.342  25.296   6.211
 5653POPC   D2A72760  43.198  25.106   6.577
 5653POPC   C3A72761  43.265  25.325   6.936
 5653POPC   C4A72762  43.237  25.216   7.358
 5653POPC   C1B72763  42.792  25.417   6.278
 5653POPC   C2B72764  42.759  25.421   6.750
 5653POPC   C3B72765  42.864  25.507   7.203
 5653POPC   C4B72766  43.078  25.670   7.598
 5654POPC   NC372767  28.425  13.903   5.421
 5654POPC   PO472768  28.252  13.201   5.526
 5654POPC   GL172769  28.431  13.461   5.858
 5654POPC   GL272770  28.642  13.782   5.900
 5654POPC   C1A72771  28.277  13.667   6.221
 5654POPC   D2A72772  28.430  13.808   6.621
 5654POPC   C3A72773  28.282  13.573   6.972
 5654POPC   C4A72774  28.157  13.779   7.363
 5654POPC   C1B72775  28.896  13.889   6.299
 5654POPC   C2B72776  28.892  13.982   6.772
 5654POPC   C3B72777  28.637  13.871   7.139
 5654POPC   C4B72778  28.611  13.907   7.610
 5655POPC   NC372779  35.218  27.217   5.617
 5655POPC   PO472780  35.293  27.792   5.266
 5655POPC   GL172781  35.180  27.796   5.704
 5655POPC   GL272782  35.459  27.987   5.745
 5655POPC   C1A72783  35.123  27.626   6.148
 5655POPC   D2A72784  35.305  27.362   6.496
 5655POPC   C3A72785  35.160  27.349   6.921
 5655POPC   C4A72786  35.380  27.399   7.305
 5655POPC   C1B72787  35.347  28.075   6.190
 5655POPC   C2B72788  35.158  27.903   6.586
 5655POPC   C3B72789  35.267  27.841   7.008
 5655POPC   C4B72790  35.221  27.964   7.420
 5656POPC   NC372791  13.488  32.577   5.484
 5656POPC   PO472792  13.275  33.149   5.678
 5656POPC   GL172793  13.453  32.817   5.951
 5656POPC   GL272794  13.320  32.483   5.971
 5656POPC   C1A72795  13.677  32.976   6.303
 5656POPC   D2A72796  13.611  33.160   6.717
 5656POPC   C3A72797  13.887  33.020   7.045
 5656POPC   C4A72798  14.003  33.216   7.448
 5656POPC   C1B72799  13.274  32.587   6.423
 5656POPC   C2B72800  13.145  32.878   6.725
 5656POPC   C3B72801  13.318  33.000   7.113
 5656POPC   C4B72802  13.610  32.876   7.474
 5657POPC   NC372803   2.546  15.303   5.720
 5657POPC   PO472804   3.103  15.157   5.349
 5657POPC   GL172805   2.969  15.070   5.850
 5657POPC   GL272806   2.670  14.904   6.022
 5657POPC   C1A72807   3.098  15.016   6.290
 5657POPC   D2A72808   3.196  15.305   6.640
 5657POPC   C3A72809   3.060  15.201   7.048
 5657POPC   C4A72810   3.108  14.905   7.384
 5657POPC   C1B72811   2.572  15.173   6.348
 5657POPC   C2B72812   2.476  15.215   6.748
 5657POPC   C3B72813   2.555  15.296   7.154
 5657POPC   C4B72814   2.670  15.087   7.548
 5658POPC   NC372815   5.661  26.467   5.525
 5658POPC   PO472816   5.545  27.045   5.774
 5658POPC   GL172817   5.876  26.729   5.913
 5658POPC   GL272818   6.027  26.349   5.849
 5658POPC   C1A72819   5.736  26.481   6.270
 5658POPC   D2A72820   5.608  26.696   6.655
 5658POPC   C3A72821   5.859  26.944   6.935
 5658POPC   C4A72822   5.708  26.721   7.240
 5658POPC   C1B72823   6.237  26.527   6.203
 5658POPC   C2B72824   6.146  26.702   6.583
 5658POPC   C3B72825   6.151  26.522   6.998
 5658POPC   C4B72826   6.386  26.334   7.314
 5659POPC   NC372827  12.675   4.469   5.404
 5659POPC   PO472828  13.368   4.504   5.429
 5659POPC   GL172829  13.036   4.251   5.706
 5659POPC   GL272830  12.711   4.404   5.900
 5659POPC   C1A72831  12.960   4.046   6.112
 5659POPC   D2A72832  12.735   4.249   6.454
 5659POPC   C3A72833  12.938   4.143   6.812
 5659POPC   C4A72834  12.940   4.076   7.237
 5659POPC   C1B72835  12.646   4.713   6.228
 5659POPC   C2B72836  12.498   4.759   6.643
 5659POPC   C3B72837  12.615   4.487   6.978
 5659POPC   C4B72838  12.850   4.564   7.330
 5660POPC   NC372839  16.719  18.818   5.147
 5660POPC   PO472840  17.095  19.334   5.547
 5660POPC   GL172841  16.849  19.126   5.818
 5660POPC   GL272842  16.587  19.305   5.884
 5660POPC   C1A72843  16.824  18.909   6.200
 5660POPC   D2A72844  16.684  19.044   6.602
 5660POPC   C3A72845  16.733  18.881   7.013
 5660POPC   C4A72846  16.347  19.025   7.215
 5660POPC   C1B72847  16.879  19.415   6.253
 5660POPC   C2B72848  17.070  19.363   6.666
 5660POPC   C3B72849  16.942  19.326   7.124
 5660POPC   C4B72850  16.937  19.494   7.549
 5661POPC   NC372851   8.975  33.093   5.381
 5661POPC   PO472852   8.617  33.744   5.443
 5661POPC   GL172853   8.782  33.348   5.758
 5661POPC   GL272854   9.127  33.274   5.851
 5661POPC   C1A72855   8.795  32.975   6.133
 5661POPC   D2A72856   8.736  32.780   6.615
 5661POPC   C3A72857   8.837  33.002   7.050
 5661POPC   C4A72858   9.023  33.396   7.125
 5661POPC   C1B72859   9.238  33.147   6.283
 5661POPC   C2B72860   9.185  33.066   6.698
 5661POPC   C3B72861   9.373  32.936   7.086
 5661POPC   C4B72862   9.354  32.527   7.300
 5662POPC   NC372863  35.054  38.519   5.357
 5662POPC   PO472864  35.712  38.398   5.449
 5662POPC   GL172865  35.437  38.456   5.821
 5662POPC   GL272866  35.177  38.715   5.804
 5662POPC   C1A72867  35.545  38.385   6.268
 5662POPC   D2A72868  35.392  38.401   6.683
 5662POPC   C3A72869  35.635  38.605   7.019
 5662POPC   C4A72870  35.365  38.406   7.305
 5662POPC   C1B72871  35.125  38.904   6.199
 5662POPC   C2B72872  35.147  38.849   6.659
 5662POPC   C3B72873  35.191  38.848   7.079
 5662POPC   C4B72874  34.936  38.713   7.371
 5663POPC   NC372875  33.136  32.797   5.118
 5663POPC   PO472876  32.924  33.336   5.368
 5663POPC   GL172877  32.865  33.060   5.698
 5663POPC   GL272878  33.166  32.865   5.652
 5663POPC   C1A72879  32.760  33.014   6.140
 5663POPC   D2A72880  33.014  33.130   6.480
 5663POPC   C3A72881  33.010  32.869   6.828
 5663POPC   C4A72882  32.816  33.026   7.186
 5663POPC   C1B72883  33.279  32.951   6.074
 5663POPC   C2B72884  33.422  32.792   6.487
 5663POPC   C3B72885  33.536  32.857   6.898
 5663POPC   C4B72886  33.273  32.769   7.259
 5664POPC   NC372887  29.194   6.069   5.579
 5664POPC   PO472888  29.500   6.569   5.428
 5664POPC   GL172889  29.268   6.684   5.797
 5664POPC   GL272890  29.363   6.397   5.969
 5664POPC   C1A72891  29.191   6.914   6.193
 5664POPC   D2A72892  29.365   7.134   6.573
 5664POPC   C3A72893  29.254   6.945   6.968
 5664POPC   C4A72894  29.338   6.697   7.337
 5664POPC   C1B72895  28.927   6.495   6.154
 5664POPC   C2B72896  29.031   6.637   6.585
 5664POPC   C3B72897  29.040   6.476   6.971
 5664POPC   C4B72898  28.691   6.557   7.235
 5665POPC   NC372899   1.610  26.865   5.485
 5665POPC   PO472900   1.105  26.436   5.220
 5665POPC   GL172901   1.085  26.732   5.698
 5665POPC   GL272902   1.374  26.797   5.953
 5665POPC   C1A72903   0.903  26.803   6.161
 5665POPC   D2A72904   0.934  27.153   6.508
 5665POPC   C3A72905   1.141  27.054   6.927
 5665POPC   C4A72906   1.107  26.913   7.378
 5665POPC   C1B72907   1.275  26.444   6.261
 5665POPC   C2B72908   1.248  26.399   6.721
 5665POPC   C3B72909   1.418  26.626   7.084
 5665POPC   C4B72910   1.596  26.788   7.460
 5666POPC   NC372911   9.558  41.419   5.322
 5666POPC   PO472912  10.109  41.230   5.678
 5666POPC   GL172913   9.860  41.543   5.879
 5666POPC   GL272914   9.481  41.571   5.846
 5666POPC   C1A72915   9.758  41.528   6.328
 5666POPC   D2A72916   9.927  41.669   6.718
 5666POPC   C3A72917   9.816  41.429   7.090
 5666POPC   C4A72918   9.992  41.399   7.522
 5666POPC   C1B72919   9.290  41.735   6.247
 5666POPC   C2B72920   9.455  41.886   6.663
 5666POPC   C3B72921   9.414  41.810   7.127
 5666POPC   C4B72922   9.498  41.542   7.496
 5667POPC   NC372923  43.588   9.120   5.465
 5667POPC   PO472924  44.019   8.649   5.423
 5667POPC   GL172925  43.885   8.791   5.868
 5667POPC   GL272926  43.851   9.142   5.933
 5667POPC   C1A72927  43.985   8.922   6.356
 5667POPC   D2A72928  43.718   9.106   6.689
 5667POPC   C3A72929  43.670   8.854   7.054
 5667POPC   C4A72930  44.068   8.650   7.255
 5667POPC   C1B72931  44.193   9.364   6.166
 5667POPC   C2B72932  44.195   9.480   6.586
 5667POPC   C3B72933  44.213   9.190   6.918
 5667POPC   C4B72934  43.989   9.174   7.279
 5668POPC   NC372935  21.096  20.856   5.313
 5668POPC   PO472936  20.564  20.411   5.227
 5668POPC   GL172937  20.604  20.408   5.694
 5668POPC   GL272938  20.950  20.523   5.689
 5668POPC   C1A72939  20.419  20.423   6.150
 5668POPC   D2A72940  20.215  20.530   6.562
 5668POPC   C3A72941  20.477  20.483   6.922
 5668POPC   C4A72942  20.516  20.837   7.198
 5668POPC   C1B72943  20.814  20.736   6.062
 5668POPC   C2B72944  20.804  20.574   6.493
 5668POPC   C3B72945  20.922  20.751   6.888
 5668POPC   C4B72946  21.015  20.616   7.304
 5669POPC   NC372947  36.896  37.054   5.435
 5669POPC   PO472948  37.343  36.600   5.507
 5669POPC   GL172949  37.116  36.786   5.824
 5669POPC   GL272950  36.825  36.640   5.748
 5669POPC   C1A72951  36.882  37.032   6.156
 5669POPC   D2A72952  36.818  36.984   6.609
 5669POPC   C3A72953  36.829  37.223   7.003
 5669POPC   C4A72954  36.991  37.015   7.390
 5669POPC   C1B72955  36.819  36.545   6.209
 5669POPC   C2B72956  36.650  36.479   6.637
 5669POPC   C3B72957  36.656  36.727   7.031
 5669POPC   C4B72958  36.485  37.009   7.350
 5670POPC   NC372959  19.715  32.859   5.524
 5670POPC   PO472960  19.059  32.712   5.442
 5670POPC   GL172961  19.139  32.913   5.860
 5670POPC   GL272962  18.954  33.248   5.878
 5670POPC   C1A72963  19.001  32.977   6.314
 5670POPC   D2A72964  19.237  33.092   6.696
 5670POPC   C3A72965  19.186  32.887   7.093
 5670POPC   C4A72966  19.301  33.113   7.522
 5670POPC   C1B72967  18.714  33.416   6.258
 5670POPC   C2B72968  18.814  33.477   6.720
 5670POPC   C3B72969  18.965  33.324   7.146
 5670POPC   C4B72970  18.962  33.500   7.576
 5671POPC   NC372971  11.615  31.591   5.461
 5671POPC   PO472972  11.010  31.325   5.472
 5671POPC   GL172973  11.137  31.596   5.846
 5671POPC   GL272974  11.482  31.725   5.932
 5671POPC   C1A72975  11.136  31.548   6.315
 5671POPC   D2A72976  11.028  31.193   6.595
 5671POPC   C3A72977  11.188  31.171   7.026
 5671POPC   C4A72978  10.946  31.142   7.405
 5671POPC   C1B72979  11.564  31.323   6.163
 5671POPC   C2B72980  11.570  31.138   6.617
 5671POPC   C3B72981  11.714  31.295   7.034
 5671POPC   C4B72982  11.679  31.768   7.144
 5672POPC   NC372983   2.146  29.472   5.452
 5672POPC   PO472984   2.274  28.804   5.262
 5672POPC   GL172985   2.093  28.961   5.684
 5672POPC   GL272986   2.000  29.289   5.886
 5672POPC   C1A72987   2.121  28.870   6.122
 5672POPC   D2A72988   2.194  29.142   6.436
 5672POPC   C3A72989   2.002  29.037   6.793
 5672POPC   C4A72990   2.151  28.847   7.163
 5672POPC   C1B72991   1.731  29.294   6.235
 5672POPC   C2B72992   1.537  29.361   6.613
 5672POPC   C3B72993   1.694  29.392   6.997
 5672POPC   C4B72994   1.670  29.010   7.178
 5673POPC   NC372995  34.781  44.985   5.400
 5673POPC   PO472996  34.361  44.523   5.444
 5673POPC   GL172997  34.524  44.727   5.782
 5673POPC   GL272998  34.385  44.492   5.986
 5673POPC   C1A72999  34.848  44.684   6.117
 5673POPC   D2A73000  34.870  44.699   6.563
 5673POPC   C3A73001  35.002  44.699   7.019
 5673POPC   C4A73002  34.861  44.425   7.360
 5673POPC   C1B73003  34.394  44.675   6.330
 5673POPC   C2B73004  34.390  44.657   6.696
 5673POPC   C3B73005  34.465  44.469   7.018
 5673POPC   C4B73006  34.207  44.472   7.340
 5674POPC   NC373007  34.817  18.196   5.443
 5674POPC   PO473008  34.205  18.284   5.259
 5674POPC   GL173009  34.389  18.345   5.702
 5674POPC   GL273010  34.536  18.017   5.825
 5674POPC   C1A73011  34.605  18.439   6.115
 5674POPC   D2A73012  34.620  18.234   6.523
 5674POPC   C3A73013  34.788  18.164   6.934
 5674POPC   C4A73014  34.576  18.281   7.335
 5674POPC   C1B73015  34.455  17.787   6.198
 5674POPC   C2B73016  34.261  17.887   6.578
 5674POPC   C3B73017  34.318  18.000   6.994
 5674POPC   C4B73018  34.264  17.790   7.343
 5675POPC   NC373019  32.312  44.185   5.521
 5675POPC   PO473020  31.912  43.698   5.290
 5675POPC   GL173021  32.020  43.721   5.755
 5675POPC   GL273022  32.375  43.801   5.845
 5675POPC   C1A73023  32.132  43.582   6.219
 5675POPC   D2A73024  32.355  43.437   6.605
 5675POPC   C3A73025  32.179  43.587   7.001
 5675POPC   C4A73026  32.024  44.001   7.150
 5675POPC   C1B73027  32.524  43.956   6.267
 5675POPC   C2B73028  32.378  43.957   6.696
 5675POPC   C3B73029  32.495  44.209   7.022
 5675POPC   C4B73030  32.909  44.352   7.014
 5676POPC   NC373031  42.950  43.073   5.416
 5676POPC   PO473032  43.540  42.913   5.428
 5676POPC   GL173033  43.357  43.173   5.809
 5676POPC   GL273034  42.999  43.295   5.904
 5676POPC   C1A73035  43.265  43.036   6.243
 5676POPC   D2A73036  43.024  43.171   6.566
 5676POPC   C3A73037  43.017  42.925   6.929
 5676POPC   C4A73038  43.264  43.002   7.267
 5676POPC   C1B73039  43.246  43.559   6.209
 5676POPC   C2B73040  43.457  43.487   6.607
 5676POPC   C3B73041  43.233  43.459   7.004
 5676POPC   C4B73042  42.911  43.353   7.342
 5677POPC   NC373043   2.168  31.363   5.322
 5677POPC   PO473044   1.938  31.747   5.696
 5677POPC   GL173045   2.144  31.423   5.960
 5677POPC   GL273046   2.060  31.099   5.916
 5677POPC   C1A73047   2.227  31.287   6.410
 5677POPC   D2A73048   2.062  31.464   6.830
 5677POPC   C3A73049   2.292  31.462   7.218
 5677POPC   C4A73050   2.529  31.695   7.517
 5677POPC   C1B73051   1.755  31.133   6.264
 5677POPC   C2B73052   1.851  31.032   6.668
 5677POPC   C3B73053   1.656  31.209   7.016
 5677POPC   C4B73054   1.815  31.417   7.383
 5678POPC   NC373055  27.107  24.112   5.399
 5678POPC   PO473056  27.140  23.413   5.334
 5678POPC   GL173057  26.758  23.631   5.556
 5678POPC   GL273058  26.994  23.704   5.749
 5678POPC   C1A73059  26.570  23.793   6.002
 5678POPC   D2A73060  26.666  23.946   6.438
 5678POPC   C3A73061  26.520  23.738   6.840
 5678POPC   C4A73062  26.547  23.305   7.055
 5678POPC   C1B73063  27.079  23.870   6.118
 5678POPC   C2B73064  27.047  23.625   6.457
 5678POPC   C3B73065  27.021  23.808   6.810
 5678POPC   C4B73066  26.897  23.649   7.177
 5679POPC   NC373067   9.473  32.276   5.674
 5679POPC   PO473068   8.975  32.621   5.410
 5679POPC   GL173069   8.972  32.403   5.808
 5679POPC   GL273070   8.840  32.058   5.810
 5679POPC   C1A73071   9.018  32.463   6.270
 5679POPC   D2A73072   8.859  32.264   6.646
 5679POPC   C3A73073   8.898  32.486   7.053
 5679POPC   C4A73074   8.928  32.343   7.496
 5679POPC   C1B73075   9.134  31.957   6.162
 5679POPC   C2B73076   9.277  31.962   6.590
 5679POPC   C3B73077   9.114  32.011   7.014
 5679POPC   C4B73078   9.215  31.933   7.420
 5680POPC   NC373079   5.399   8.069   5.753
 5680POPC   PO473080   5.874   8.134   5.201
 5680POPC   GL173081   5.910   7.962   5.677
 5680POPC   GL273082   5.838   7.661   5.732
 5680POPC   C1A73083   6.009   8.155   6.156
 5680POPC   D2A73084   5.895   8.502   6.476
 5680POPC   C3A73085   5.752   8.288   6.848
 5680POPC   C4A73086   5.566   8.282   7.241
 5680POPC   C1B73087   6.004   7.661   6.161
 5680POPC   C2B73088   6.020   7.853   6.608
 5680POPC   C3B73089   6.086   7.962   7.067
 5680POPC   C4B73090   6.176   7.696   7.435
 5681POPC   NC373091  23.920  42.160   5.489
 5681POPC   PO473092  23.286  42.416   5.430
 5681POPC   GL173093  23.590  42.272   5.852
 5681POPC   GL273094  23.918  42.487   5.907
 5681POPC   C1A73095  23.941  42.091   6.191
 5681POPC   D2A73096  24.104  42.347   6.518
 5681POPC   C3A73097  24.057  42.225   6.943
 5681POPC   C4A73098  23.683  42.138   7.168
 5681POPC   C1B73099  23.670  42.527   6.298
 5681POPC   C2B73100  23.627  42.424   6.718
 5681POPC   C3B73101  23.779  42.666   7.047
 5681POPC   C4B73102  23.593  42.647   7.436
 5682POPC   NC373103  37.930  13.508   5.341
 5682POPC   PO473104  37.281  13.716   5.369
 5682POPC   GL173105  37.490  13.469   5.728
 5682POPC   GL273106  37.805  13.602   5.829
 5682POPC   C1A73107  37.553  13.281   6.201
 5682POPC   D2A73108  37.323  13.254   6.648
 5682POPC   C3A73109  37.519  13.378   7.095
 5682POPC   C4A73110  37.437  13.299   7.577
 5682POPC   C1B73111  37.725  13.776   6.217
 5682POPC   C2B73112  37.639  13.671   6.636
 5682POPC   C3B73113  37.799  13.839   7.011
 5682POPC   C4B73114  38.077  13.585   7.246
 5683POPC   NC373115  26.537  37.528   5.270
 5683POPC   PO473116  27.187  37.616   5.058
 5683POPC   GL173117  27.005  37.658   5.516
 5683POPC   GL273118  26.879  37.395   5.637
 5683POPC   C1A73119  26.985  37.769   6.004
 5683POPC   D2A73120  26.769  37.869   6.448
 5683POPC   C3A73121  26.840  37.746   6.899
 5683POPC   C4A73122  27.181  37.745   7.206
 5683POPC   C1B73123  26.727  37.327   6.072
 5683POPC   C2B73124  26.745  37.346   6.535
 5683POPC   C3B73125  26.892  37.250   6.973
 5683POPC   C4B73126  26.856  37.408   7.416
 5684POPC   NC373127  25.563  42.550   5.246
 5684POPC   PO473128  25.573  41.874   5.073
 5684POPC   GL173129  25.448  42.078   5.490
 5684POPC   GL273130  25.759  42.161   5.611
 5684POPC   C1A73131  25.365  42.227   5.971
 5684POPC   D2A73132  25.415  42.582   6.333
 5684POPC   C3A73133  25.296  42.534   6.794
 5684POPC   C4A73134  25.326  42.306   7.195
 5684POPC   C1B73135  25.865  42.059   6.033
 5684POPC   C2B73136  25.766  42.233   6.432
 5684POPC   C3B73137  25.582  42.077   6.795
 5684POPC   C4B73138  25.733  42.017   7.218
 5685POPC   NC373139  22.344  19.310   5.408
 5685POPC   PO473140  21.841  18.998   5.345
 5685POPC   GL173141  21.976  19.198   5.742
 5685POPC   GL273142  22.325  19.068   5.846
 5685POPC   C1A73143  21.929  19.137   6.171
 5685POPC   D2A73144  21.791  18.878   6.540
 5685POPC   C3A73145  21.898  19.036   6.962
 5685POPC   C4A73146  22.254  18.872   7.208
 5685POPC   C1B73147  22.446  19.278   6.218
 5685POPC   C2B73148  22.218  19.257   6.607
 5685POPC   C3B73149  22.313  19.371   7.032
 5685POPC   C4B73150  22.375  19.281   7.487
 5686POPC   NC373151   0.880   4.414   5.145
 5686POPC   PO473152   1.317   3.963   5.409
 5686POPC   GL173153   1.384   4.383   5.748
 5686POPC   GL273154   1.174   4.321   6.004
 5686POPC   C1A73155   1.476   4.618   6.207
 5686POPC   D2A73156   1.364   4.449   6.607
 5686POPC   C3A73157   1.454   4.623   7.012
 5686POPC   C4A73158   1.134   4.646   7.320
 5686POPC   C1B73159   0.959   4.137   6.307
 5686POPC   C2B73160   0.867   4.239   6.657
 5686POPC   C3B73161   1.086   4.242   7.003
 5686POPC   C4B73162   0.933   4.169   7.372
 5687POPC   NC373163  10.916  38.878   5.350
 5687POPC   PO473164  10.599  38.212   5.373
 5687POPC   GL173165  10.487  38.301   5.799
 5687POPC   GL273166  10.333  38.632   5.847
 5687POPC   C1A73167  10.663  38.424   6.201
 5687POPC   D2A73168  10.758  38.207   6.583
 5687POPC   C3A73169  10.407  38.231   6.879
 5687POPC   C4A73170  10.388  38.361   7.313
 5687POPC   C1B73171  10.220  38.821   6.210
 5687POPC   C2B73172  10.422  38.672   6.574
 5687POPC   C3B73173  10.272  38.733   6.998
 5687POPC   C4B73174  10.477  38.854   7.415
 5688POPC   NC373175  11.091  15.364   5.588
 5688POPC   PO473176  11.630  15.223   5.189
 5688POPC   GL173177  11.531  15.108   5.673
 5688POPC   GL273178  11.275  14.861   5.823
 5688POPC   C1A73179  11.430  15.218   6.140
 5688POPC   D2A73180  11.368  15.475   6.495
 5688POPC   C3A73181  11.232  15.350   6.877
 5688POPC   C4A73182  11.429  15.188   7.243
 5688POPC   C1B73183  11.012  14.903   6.179
 5688POPC   C2B73184  11.172  14.931   6.579
 5688POPC   C3B73185  11.096  14.862   7.011
 5688POPC   C4B73186  10.857  14.814   7.402
 5689POPC   NC373187   3.804  16.605   4.958
 5689POPC   PO473188   3.738  16.872   5.538
 5689POPC   GL173189   3.614  16.561   5.835
 5689POPC   GL273190   3.392  16.294   5.723
 5689POPC   C1A73191   3.525  16.698   6.239
 5689POPC   D2A73192   3.659  16.779   6.639
 5689POPC   C3A73193   3.479  16.771   7.065
 5689POPC   C4A73194   3.592  16.730   7.533
 5689POPC   C1B73195   3.195  16.331   6.122
 5689POPC   C2B73196   3.178  16.488   6.556
 5689POPC   C3B73197   3.256  16.310   6.960
 5689POPC   C4B73198   3.139  16.525   7.364
 5690POPC   NC373199  36.306  15.614   5.488
 5690POPC   PO473200  35.862  16.072   5.363
 5690POPC   GL173201  36.045  15.967   5.759
 5690POPC   GL273202  36.424  16.032   5.778
 5690POPC   C1A73203  36.120  15.811   6.159
 5690POPC   D2A73204  36.073  16.042   6.508
 5690POPC   C3A73205  36.190  15.886   6.851
 5690POPC   C4A73206  36.133  15.770   7.228
 5690POPC   C1B73207  36.451  16.248   6.199
 5690POPC   C2B73208  36.455  16.338   6.653
 5690POPC   C3B73209  36.269  16.335   7.067
 5690POPC   C4B73210  36.507  16.143   7.346
 5691POPC   NC373211  32.024  13.625   5.389
 5691POPC   PO473212  31.593  13.977   5.783
 5691POPC   GL173213  32.047  13.816   5.864
 5691POPC   GL273214  32.304  13.512   5.792
 5691POPC   C1A73215  32.246  13.773   6.251
 5691POPC   D2A73216  31.994  13.837   6.636
 5691POPC   C3A73217  32.231  13.834   7.005
 5691POPC   C4A73218  32.542  13.671   7.275
 5691POPC   C1B73219  32.198  13.242   6.123
 5691POPC   C2B73220  32.175  13.348   6.565
 5691POPC   C3B73221  32.314  13.332   6.970
 5691POPC   C4B73222  32.186  13.284   7.380
 5692POPC   NC373223  27.340  35.293   5.279
 5692POPC   PO473224  27.863  35.146   5.669
 5692POPC   GL173225  27.641  35.476   5.861
 5692POPC   GL273226  27.278  35.357   5.783
 5692POPC   C1A73227  27.784  35.561   6.315
 5692POPC   D2A73228  28.011  35.270   6.613
 5692POPC   C3A73229  27.755  35.144   6.975
 5692POPC   C4A73230  27.582  35.439   7.308
 5692POPC   C1B73231  27.312  35.323   6.225
 5692POPC   C2B73232  27.387  35.389   6.676
 5692POPC   C3B73233  27.153  35.421   7.061
 5692POPC   C4B73234  27.076  35.780   7.353
 5693POPC   NC373235  40.264  14.138   5.390
 5693POPC   PO473236  40.148  14.732   5.676
 5693POPC   GL173237  40.213  14.333   5.862
 5693POPC   GL273238  39.877  14.201   5.744
 5693POPC   C1A73239  40.364  14.270   6.275
 5693POPC   D2A73240  40.121  14.367   6.659
 5693POPC   C3A73241  40.212  14.522   7.071
 5693POPC   C4A73242  39.953  14.420   7.441
 5693POPC   C1B73243  39.812  14.180   6.205
 5693POPC   C2B73244  39.619  14.268   6.626
 5693POPC   C3B73245  39.800  14.126   7.030
 5693POPC   C4B73246  39.584  14.060   7.436
 5694POPC   NC373247  34.078  32.950   5.117
 5694POPC   PO473248  34.680  33.208   5.172
 5694POPC   GL173249  34.545  33.058   5.596
 5694POPC   GL273250  34.158  33.029   5.621
 5694POPC   C1A73251  34.757  33.183   6.018
 5694POPC   D2A73252  34.990  33.146   6.423
 5694POPC   C3A73253  34.806  33.288   6.822
 5694POPC   C4A73254  34.783  33.342   7.245
 5694POPC   C1B73255  34.240  33.255   6.011
 5694POPC   C2B73256  34.375  33.319   6.455
 5694POPC   C3B73257  34.332  33.134   6.886
 5694POPC   C4B73258  34.295  33.282   7.290
 5695POPC   NC373259  14.117   1.823   5.419
 5695POPC   PO473260  14.256   1.257   5.100
 5695POPC   GL173261  14.369   1.403   5.615
 5695POPC   GL273262  14.097   1.562   5.879
 5695POPC   C1A73263  14.518   1.360   6.117
 5695POPC   D2A73264  14.421   1.438   6.613
 5695POPC   C3A73265  14.478   1.102   6.961
 5695POPC   C4A73266  14.867   1.015   7.222
 5695POPC   C1B73267  13.958   1.575   6.369
 5695POPC   C2B73268  13.982   1.574   6.862
 5695POPC   C3B73269  13.985   1.250   7.226
 5695POPC   C4B73270  13.979   1.272   7.706
 5696POPC   NC373271  11.086  29.293   5.300
 5696POPC   PO473272  11.688  28.905   5.515
 5696POPC   GL173273  11.331  29.132   5.718
 5696POPC   GL273274  11.113  28.896   5.842
 5696POPC   C1A73275  11.327  29.333   6.086
 5696POPC   D2A73276  11.577  29.328   6.420
 5696POPC   C3A73277  11.414  29.253   6.829
 5696POPC   C4A73278  11.538  29.270   7.272
 5696POPC   C1B73279  10.939  28.923   6.190
 5696POPC   C2B73280  11.091  28.860   6.578
 5696POPC   C3B73281  10.954  29.015   6.940
 5696POPC   C4B73282  11.033  29.168   7.329
 5697POPC   NC373283   1.815  25.193   5.546
 5697POPC   PO473284   1.261  25.528   5.247
 5697POPC   GL173285   1.317  25.500   5.728
 5697POPC   GL273286   1.384  25.144   5.807
 5697POPC   C1A73287   1.365  25.436   6.208
 5697POPC   D2A73288   1.127  25.280   6.542
 5697POPC   C3A73289   1.194  25.495   6.930
 5697POPC   C4A73290   1.102  25.181   7.241
 5697POPC   C1B73291   1.431  24.939   6.234
 5697POPC   C2B73292   1.712  24.782   6.552
 5697POPC   C3B73293   1.645  24.859   6.974
 5697POPC   C4B73294   1.330  24.726   7.233
 5698POPC   NC373295  42.201  11.834   5.568
 5698POPC   PO473296  42.705  12.244   5.395
 5698POPC   GL173297  42.676  12.017   5.813
 5698POPC   GL273298  42.761  12.305   6.023
 5698POPC   C1A73299  42.461  11.848   6.213
 5698POPC   D2A73300  42.124  11.971   6.552
 5698POPC   C3A73301  42.122  12.009   7.035
 5698POPC   C4A73302  42.387  11.939   7.410
 5698POPC   C1B73303  42.377  12.397   6.313
 5698POPC   C2B73304  42.198  12.437   6.755
 5698POPC   C3B73305  42.299  12.455   7.226
 5698POPC   C4B73306  42.518  12.382   7.649
 5699POPC   NC373307  11.161  10.927   5.356
 5699POPC   PO473308  11.298  11.602   5.323
 5699POPC   GL173309  11.499  11.470   5.704
 5699POPC   GL273310  11.436  11.109   5.754
 5699POPC   C1A73311  11.386  11.475   6.143
 5699POPC   D2A73312  11.293  11.298   6.551
 5699POPC   C3A73313  11.477  11.543   6.876
 5699POPC   C4A73314  11.318  11.674   7.248
 5699POPC   C1B73315  11.324  10.929   6.155
 5699POPC   C2B73316  11.099  10.782   6.518
 5699POPC   C3B73317  11.175  10.970   6.917
 5699POPC   C4B73318  11.470  11.159   7.206
 5700POPC   NC373319  17.976   7.636   5.148
 5700POPC   PO473320  18.538   7.652   5.505
 5700POPC   GL173321  18.242   7.704   5.814
 5700POPC   GL273322  17.909   7.660   5.678
 5700POPC   C1A73323  18.338   7.552   6.217
 5700POPC   D2A73324  18.371   7.531   6.661
 5700POPC   C3A73325  18.311   7.112   6.820
 5700POPC   C4A73326  18.218   7.175   7.243
 5700POPC   C1B73327  17.886   7.352   6.021
 5700POPC   C2B73328  17.883   7.462   6.450
 5700POPC   C3B73329  17.883   7.436   6.881
 5700POPC   C4B73330  17.703   7.186   7.185
 5701POPC   NC373331  35.721  28.158   5.300
 5701POPC   PO473332  35.190  28.598   5.361
 5701POPC   GL173333  35.389  28.507   5.719
 5701POPC   GL273334  35.091  28.334   5.817
 5701POPC   C1A73335  35.613  28.508   6.111
 5701POPC   D2A73336  35.797  28.259   6.444
 5701POPC   C3A73337  35.771  28.438   6.881
 5701POPC   C4A73338  35.645  28.290   7.302
 5701POPC   C1B73339  35.103  28.527   6.219
 5701POPC   C2B73340  35.318  28.393   6.603
 5701POPC   C3B73341  35.233  28.346   7.034
 5701POPC   C4B73342  35.244  28.602   7.431
 5702POPC   NC373343  34.083  31.370   5.399
 5702POPC   PO473344  34.664  31.819   5.340
 5702POPC   GL173345  34.668  31.476   5.690
 5702POPC   GL273346  34.340  31.514   5.816
 5702POPC   C1A73347  34.724  31.219   6.118
 5702POPC   D2A73348  34.516  31.305   6.555
 5702POPC   C3A73349  34.714  31.248   7.000
 5702POPC   C4A73350  34.657  31.469   7.419
 5702POPC   C1B73351  34.540  31.680   6.179
 5702POPC   C2B73352  34.550  31.856   6.567
 5702POPC   C3B73353  34.522  31.732   6.969
 5702POPC   C4B73354  34.546  31.973   7.307
 5703POPC   NC373355   1.075  11.007   5.249
 5703POPC   PO473356   1.126  11.701   5.376
 5703POPC   GL173357   1.146  11.338   5.640
 5703POPC   GL273358   1.214  11.538   5.899
 5703POPC   C1A73359   1.220  11.042   6.006
 5703POPC   D2A73360   1.263  10.980   6.450
 5703POPC   C3A73361   0.990  11.081   6.814
 5703POPC   C4A73362   1.189  11.079   7.217
 5703POPC   C1B73363   1.079  11.439   6.336
 5703POPC   C2B73364   1.336  11.460   6.746
 5703POPC   C3B73365   1.413  11.540   7.200
 5703POPC   C4B73366   1.121  11.506   7.589
 5704POPC   NC373367  18.417  31.606   5.377
 5704POPC   PO473368  18.153  31.060   5.601
 5704POPC   GL173369  18.338  31.332   5.840
 5704POPC   GL273370  18.176  31.641   5.841
 5704POPC   C1A73371  18.384  31.347   6.263
 5704POPC   D2A73372  18.148  31.192   6.637
 5704POPC   C3A73373  18.321  31.143   7.036
 5704POPC   C4A73374  18.304  31.415   7.402
 5704POPC   C1B73375  18.129  31.802   6.278
 5704POPC   C2B73376  18.290  31.694   6.703
 5704POPC   C3B73377  18.301  31.851   7.128
 5704POPC   C4B73378  18.351  31.910   7.570
 5705POPC   NC373379  12.399  23.959   5.447
 5705POPC   PO473380  12.072  23.349   5.521
 5705POPC   GL173381  12.107  23.722   5.799
 5705POPC   GL273382  11.881  24.034   5.760
 5705POPC   C1A73383  12.395  23.733   6.144
 5705POPC   D2A73384  12.505  23.431   6.480
 5705POPC   C3A73385  12.201  23.395   6.840
 5705POPC   C4A73386  12.236  23.508   7.280
 5705POPC   C1B73387  11.999  24.124   6.165
 5705POPC   C2B73388  12.066  23.863   6.534
 5705POPC   C3B73389  12.089  23.876   6.966
 5705POPC   C4B73390  11.840  23.874   7.304
 5706POPC   NC373391   7.510   2.733   5.399
 5706POPC   PO473392   7.328   2.095   5.629
 5706POPC   GL173393   7.363   2.537   5.884
 5706POPC   GL273394   7.451   2.934   5.854
 5706POPC   C1A73395   7.493   2.692   6.306
 5706POPC   D2A73396   7.664   2.892   6.672
 5706POPC   C3A73397   7.580   2.680   7.062
 5706POPC   C4A73398   7.295   2.407   7.207
 5706POPC   C1B73399   7.446   3.256   6.184
 5706POPC   C2B73400   7.254   3.284   6.598
 5706POPC   C3B73401   7.176   2.963   6.935
 5706POPC   C4B73402   7.285   2.932   7.385
 5707POPC   NC373403  34.179  11.096   5.005
 5707POPC   PO473404  33.860  10.617   5.372
 5707POPC   GL173405  33.793  10.455   5.760
 5707POPC   GL273406  33.813  10.770   5.861
 5707POPC   C1A73407  33.601  10.497   6.205
 5707POPC   D2A73408  33.534  10.264   6.556
 5707POPC   C3A73409  33.615  10.470   6.913
 5707POPC   C4A73410  33.804  10.326   7.257
 5707POPC   C1B73411  34.012  10.822   6.198
 5707POPC   C2B73412  33.833  10.902   6.557
 5707POPC   C3B73413  33.971  10.833   6.949
 5707POPC   C4B73414  33.585  10.946   7.138
 5708POPC   NC373415  30.232   7.363   5.426
 5708POPC   PO473416  29.569   7.486   5.488
 5708POPC   GL173417  29.877   7.470   5.792
 5708POPC   GL273418  29.924   7.118   5.789
 5708POPC   C1A73419  29.944   7.438   6.243
 5708POPC   D2A73420  30.150   7.514   6.643
 5708POPC   C3A73421  29.816   7.424   6.923
 5708POPC   C4A73422  29.796   7.520   7.326
 5708POPC   C1B73423  30.143   6.956   6.174
 5708POPC   C2B73424  30.012   6.992   6.613
 5708POPC   C3B73425  30.227   7.129   7.005
 5708POPC   C4B73426  30.200   7.124   7.448
 5709POPC   NC373427  10.960   4.355   5.480
 5709POPC   PO473428  10.252   4.513   5.325
 5709POPC   GL173429  10.488   4.554   5.726
 5709POPC   GL273430  10.613   4.232   5.846
 5709POPC   C1A73431  10.333   4.520   6.174
 5709POPC   D2A73432  10.526   4.520   6.565
 5709POPC   C3A73433  10.385   4.289   6.882
 5709POPC   C4A73434  10.456   4.507   7.237
 5709POPC   C1B73435  10.873   4.397   6.195
 5709POPC   C2B73436  10.987   4.244   6.607
 5709POPC   C3B73437  10.888   4.379   7.011
 5709POPC   C4B73438  10.824   4.273   7.493
 5710POPC   NC373439  41.762  27.467   5.299
 5710POPC   PO473440  41.089  27.611   5.312
 5710POPC   GL173441  41.386  27.716   5.658
 5710POPC   GL273442  41.540  27.423   5.814
 5710POPC   C1A73443  41.511  27.804   6.161
 5710POPC   D2A73444  41.631  27.557   6.560
 5710POPC   C3A73445  41.420  27.552   6.980
 5710POPC   C4A73446  41.504  27.606   7.427
 5710POPC   C1B73447  41.760  27.185   6.165
 5710POPC   C2B73448  41.917  27.141   6.612
 5710POPC   C3B73449  41.930  27.446   6.993
 5710POPC   C4B73450  41.967  27.384   7.455
 5711POPC   NC373451  28.400  32.590   5.156
 5711POPC   PO473452  28.336  32.050   5.515
 5711POPC   GL173453  28.458  32.014   5.911
 5711POPC   GL273454  28.184  31.772   5.942
 5711POPC   C1A73455  28.570  32.310   6.281
 5711POPC   D2A73456  28.735  32.587   6.639
 5711POPC   C3A73457  28.584  32.486   7.067
 5711POPC   C4A73458  28.205  32.361   7.227
 5711POPC   C1B73459  28.204  31.954   6.348
 5711POPC   C2B73460  28.354  32.109   6.759
 5711POPC   C3B73461  28.475  31.932   7.154
 5711POPC   C4B73462  28.224  31.926   7.549
 5712POPC   NC373463  29.726  33.597   5.394
 5712POPC   PO473464  30.215  34.027   5.550
 5712POPC   GL173465  29.877  33.926   5.809
 5712POPC   GL273466  29.950  33.596   5.851
 5712POPC   C1A73467  29.815  33.889   6.255
 5712POPC   D2A73468  30.013  33.869   6.627
 5712POPC   C3A73469  29.784  33.762   6.972
 5712POPC   C4A73470  29.801  33.747   7.416
 5712POPC   C1B73471  30.258  33.616   6.165
 5712POPC   C2B73472  30.398  33.503   6.559
 5712POPC   C3B73473  30.458  33.802   6.859
 5712POPC   C4B73474  30.232  33.935   7.219
 5713POPC   NC373475  25.713  30.472   5.275
 5713POPC   PO473476  26.119  30.923   5.528
 5713POPC   GL173477  25.848  30.781   5.834
 5713POPC   GL273478  26.096  30.527   5.889
 5713POPC   C1A73479  25.780  31.047   6.211
 5713POPC   D2A73480  26.040  31.054   6.575
 5713POPC   C3A73481  26.055  30.699   6.855
 5713POPC   C4A73482  25.913  30.821   7.264
 5713POPC   C1B73483  26.340  30.238   6.132
 5713POPC   C2B73484  26.474  30.282   6.557
 5713POPC   C3B73485  26.496  30.421   6.967
 5713POPC   C4B73486  26.199  30.380   7.279
 5714POPC   NC373487  13.847  15.575   5.357
 5714POPC   PO473488  13.693  16.148   5.322
 5714POPC   GL173489  13.520  15.966   5.736
 5714POPC   GL273490  13.179  15.889   5.808
 5714POPC   C1A73491  13.416  16.117   6.202
 5714POPC   D2A73492  13.271  16.050   6.652
 5714POPC   C3A73493  13.556  16.228   7.006
 5714POPC   C4A73494  13.935  16.181   7.310
 5714POPC   C1B73495  13.227  15.646   6.212
 5714POPC   C2B73496  13.264  15.518   6.676
 5714POPC   C3B73497  13.339  15.742   7.102
 5714POPC   C4B73498  13.442  16.024   7.470
 5715POPC   NC373499   9.175   0.536   5.418
 5715POPC   PO473500   8.827   0.015   5.693
 5715POPC   GL173501   8.906   0.436   5.870
 5715POPC   GL273502   8.557   0.617   5.835
 5715POPC   C1A73503   9.105   0.442   6.307
 5715POPC   D2A73504   8.987   0.089   6.611
 5715POPC   C3A73505   8.987   0.189   7.034
 5715POPC   C4A73506   9.104   0.609   7.139
 5715POPC   C1B73507   8.618   0.525   6.282
 5715POPC   C2B73508   8.756   0.535   6.712
 5715POPC   C3B73509   8.601   0.531   7.113
 5715POPC   C4B73510   8.573   0.266   7.415
 5716POPC   NC373511  21.349  14.298   5.352
 5716POPC   PO473512  21.529  14.901   5.627
 5716POPC   GL173513  21.253  14.583   5.799
 5716POPC   GL273514  21.496  14.323   5.931
 5716POPC   C1A73515  21.042  14.396   6.169
 5716POPC   D2A73516  21.213  14.224   6.550
 5716POPC   C3A73517  21.006  14.368   6.909
 5716POPC   C4A73518  21.187  14.485   7.282
 5716POPC   C1B73519  21.693  14.306   6.376
 5716POPC   C2B73520  21.577  14.480   6.808
 5716POPC   C3B73521  21.693  14.351   7.232
 5716POPC   C4B73522  21.815  14.137   7.603
 5717POPC   NC373523  44.810  28.070   5.488
 5717POPC   PO473524  44.375  28.589   5.599
 5717POPC   GL173525  44.519  28.463   5.992
 5717POPC   GL273526  44.783  28.202   5.992
 5717POPC   C1A73527  44.805  28.627   6.318
 5717POPC   D2A73528  44.845  28.417   6.705
 5717POPC   C3A73529  44.536  28.482   6.987
 5717POPC   C4A73530  44.712  28.681   7.316
 5717POPC   C1B73531  44.511  27.962   6.254
 5717POPC   C2B73532  44.401  28.029   6.675
 5717POPC   C3B73533  44.610  27.976   7.045
 5717POPC   C4B73534  44.515  28.174   7.406
 5718POPC   NC373535  44.296   2.056   5.598
 5718POPC   PO473536  43.698   1.658   5.462
 5718POPC   GL173537  43.823   1.771   5.844
 5718POPC   GL273538  43.813   2.130   5.898
 5718POPC   C1A73539  43.603   1.819   6.236
 5718POPC   D2A73540  43.574   2.191   6.517
 5718POPC   C3A73541  43.492   2.020   6.918
 5718POPC   C4A73542  43.761   1.739   7.128
 5718POPC   C1B73543  44.124   2.246   6.218
 5718POPC   C2B73544  44.331   2.331   6.612
 5718POPC   C3B73545  44.172   2.116   6.975
 5718POPC   C4B73546  43.848   2.270   7.175
 5719POPC   NC373547  25.620  21.590   5.486
 5719POPC   PO473548  24.966  21.306   5.483
 5719POPC   GL173549  25.196  21.442   5.771
 5719POPC   GL273550  24.885  21.533   5.942
 5719POPC   C1A73551  25.398  21.387   6.137
 5719POPC   D2A73552  25.288  21.438   6.552
 5719POPC   C3A73553  25.525  21.312   6.876
 5719POPC   C4A73554  25.358  21.405   7.267
 5719POPC   C1B73555  25.070  21.801   6.203
 5719POPC   C2B73556  24.946  21.820   6.628
 5719POPC   C3B73557  24.968  21.626   7.024
 5719POPC   C4B73558  24.914  21.640   7.485
 5720POPC   NC373559   1.591  29.681   5.289
 5720POPC   PO473560   0.957  29.759   5.471
 5720POPC   GL173561   1.107  29.853   5.832
 5720POPC   GL273562   1.453  29.952   5.718
 5720POPC   C1A73563   0.905  29.889   6.213
 5720POPC   D2A73564   0.825  30.067   6.603
 5720POPC   C3A73565   1.045  30.020   6.969
 5720POPC   C4A73566   0.964  29.811   7.351
 5720POPC   C1B73567   1.499  29.915   6.161
 5720POPC   C2B73568   1.375  30.092   6.528
 5720POPC   C3B73569   1.536  29.871   6.852
 5720POPC   C4B73570   1.460  29.879   7.261
 5721POPC   NC373571  33.081  39.781   5.458
 5721POPC   PO473572  33.008  40.383   5.547
 5721POPC   GL173573  33.326  40.323   5.900
 5721POPC   GL273574  33.267  39.971   5.916
 5721POPC   C1A73575  33.445  40.423   6.372
 5721POPC   D2A73576  33.376  40.087   6.722
 5721POPC   C3A73577  33.120  39.990   7.131
 5721POPC   C4A73578  33.059  40.246   7.549
 5721POPC   C1B73579  33.033  40.136   6.304
 5721POPC   C2B73580  32.854  40.191   6.743
 5721POPC   C3B73581  32.626  40.009   7.105
 5721POPC   C4B73582  32.743  39.826   7.511
 5722POPC   NC373583  25.882   2.780   5.474
 5722POPC   PO473584  26.432   2.461   5.584
 5722POPC   GL173585  26.255   2.877   5.822
 5722POPC   GL273586  25.883   3.035   5.905
 5722POPC   C1A73587  26.244   3.027   6.250
 5722POPC   D2A73588  26.302   2.819   6.615
 5722POPC   C3A73589  26.336   2.988   7.018
 5722POPC   C4A73590  26.294   2.714   7.327
 5722POPC   C1B73591  25.870   2.613   6.114
 5722POPC   C2B73592  25.741   2.529   6.531
 5722POPC   C3B73593  25.875   2.768   6.886
 5722POPC   C4B73594  25.765   2.673   7.268
 5723POPC   NC373595  36.474  43.144   5.489
 5723POPC   PO473596  35.804  43.169   5.467
 5723POPC   GL173597  35.962  43.017   5.868
 5723POPC   GL273598  36.250  43.209   5.929
 5723POPC   C1A73599  36.144  42.830   6.269
 5723POPC   D2A73600  36.413  42.863   6.651
 5723POPC   C3A73601  36.207  42.860   7.059
 5723POPC   C4A73602  35.784  42.998   7.140
 5723POPC   C1B73603  36.088  43.341   6.303
 5723POPC   C2B73604  36.329  43.413   6.663
 5723POPC   C3B73605  36.219  43.389   7.091
 5723POPC   C4B73606  36.436  43.402   7.491
 5724POPC   NC373607  12.204   7.823   5.403
 5724POPC   PO473608  12.109   7.141   5.340
 5724POPC   GL173609  12.146   7.405   5.717
 5724POPC   GL273610  11.946   7.698   5.818
 5724POPC   C1A73611  12.203   7.437   6.174
 5724POPC   D2A73612  11.992   7.256   6.536
 5724POPC   C3A73613  12.319   7.186   6.834
 5724POPC   C4A73614  12.303   7.035   7.231
 5724POPC   C1B73615  11.733   7.618   6.213
 5724POPC   C2B73616  11.570   7.569   6.619
 5724POPC   C3B73617  11.733   7.391   6.978
 5724POPC   C4B73618  12.089   7.531   7.130
 5725POPC   NC373619   3.339   0.412   5.307
 5725POPC   PO473620   2.618   0.384   5.459
 5725POPC   GL173621   2.696   0.577   5.831
 5725POPC   GL273622   3.057   0.530   5.781
 5725POPC   C1A73623   2.719   0.697   6.271
 5725POPC   D2A73624   3.039   0.736   6.624
 5725POPC   C3A73625   2.833   0.667   7.008
 5725POPC   C4A73626   2.440   0.455   7.042
 5725POPC   C1B73627   2.955   0.239   6.133
 5725POPC   C2B73628   2.764   0.273   6.556
 5725POPC   C3B73629   2.884   0.150   6.948
 5725POPC   C4B73630   2.932   0.057   7.363
 5726POPC   NC373631  14.010  23.416   5.459
 5726POPC   PO473632  13.824  22.721   5.512
 5726POPC   GL173633  13.715  23.045   5.793
 5726POPC   GL273634  13.465  23.303   5.850
 5726POPC   C1A73635  13.578  22.909   6.190
 5726POPC   D2A73636  13.787  22.624   6.434
 5726POPC   C3A73637  13.819  22.708   6.827
 5726POPC   C4A73638  13.784  22.751   7.212
 5726POPC   C1B73639  13.771  23.361   6.210
 5726POPC   C2B73640  13.726  23.159   6.616
 5726POPC   C3B73641  13.670  23.225   7.050
 5726POPC   C4B73642  13.375  23.421   7.341
 5727POPC   NC373643   8.226  27.025   5.498
 5727POPC   PO473644   8.128  26.336   5.374
 5727POPC   GL173645   8.301  26.581   5.744
 5727POPC   GL273646   8.024  26.807   5.907
 5727POPC   C1A73647   8.471  26.762   6.151
 5727POPC   D2A73648   8.249  26.892   6.527
 5727POPC   C3A73649   8.371  26.727   6.903
 5727POPC   C4A73650   8.173  26.715   7.275
 5727POPC   C1B73651   7.909  27.135   6.208
 5727POPC   C2B73652   7.958  27.295   6.643
 5727POPC   C3B73653   7.946  27.098   7.038
 5727POPC   C4B73654   7.873  27.071   7.498
 5728POPC   NC373655   7.453  28.676   5.650
 5728POPC   PO473656   7.333  27.962   5.415
 5728POPC   GL173657   7.550  28.190   5.751
 5728POPC   GL273658   7.241  28.257   5.873
 5728POPC   C1A73659   7.630  28.460   6.198
 5728POPC   D2A73660   7.420  28.630   6.582
 5728POPC   C3A73661   7.510  28.425   7.003
 5728POPC   C4A73662   7.658  28.364   7.443
 5728POPC   C1B73663   7.218  28.205   6.308
 5728POPC   C2B73664   7.154  28.206   6.708
 5728POPC   C3B73665   7.163  28.033   7.069
 5728POPC   C4B73666   7.150  28.312   7.380
 5729POPC   NC373667  44.033  23.589   4.992
 5729POPC   PO473668  44.079  23.831   5.597
 5729POPC   GL173669  43.845  23.727   5.892
 5729POPC   GL273670  43.567  23.936   5.834
 5729POPC   C1A73671  43.972  23.585   6.307
 5729POPC   D2A73672  44.135  23.835   6.636
 5729POPC   C3A73673  44.137  23.658   7.031
 5729POPC   C4A73674  43.985  23.624   7.466
 5729POPC   C1B73675  43.467  23.591   6.183
 5729POPC   C2B73676  43.529  23.603   6.636
 5729POPC   C3B73677  43.621  23.809   7.029
 5729POPC   C4B73678  43.713  24.066   7.380
 5730POPC   NC373679   9.262  34.744   5.364
 5730POPC   PO473680   8.673  34.449   5.361
 5730POPC   GL173681   8.762  34.405   5.820
 5730POPC   GL273682   9.089  34.572   5.907
 5730POPC   C1A73683   8.804  34.320   6.284
 5730POPC   D2A73684   8.935  34.600   6.618
 5730POPC   C3A73685   9.193  34.501   6.970
 5730POPC   C4A73686   8.857  34.616   7.173
 5730POPC   C1B73687   9.209  34.872   6.280
 5730POPC   C2B73688   9.209  35.014   6.750
 5730POPC   C3B73689   9.231  34.998   7.232
 5730POPC   C4B73690   9.328  35.025   7.716
 5731POPC   NC373691  44.856   7.808   5.478
 5731POPC   PO473692  44.680   7.150   5.268
 5731POPC   GL173693  44.712   7.360   5.697
 5731POPC   GL273694   0.015   7.487   5.824
 5731POPC   C1A73695  44.590   7.349   6.176
 5731POPC   D2A73696  44.349   7.363   6.614
 5731POPC   C3A73697  44.423   7.529   7.053
 5731POPC   C4A73698  44.449   7.236   7.434
 5731POPC   C1B73699   0.125   7.334   6.234
 5731POPC   C2B73700  44.862   7.099   6.544
 5731POPC   C3B73701  44.659   7.078   6.955
 5731POPC   C4B73702  44.886   7.364   7.225
 5732POPC   NC373703   3.474   3.553   5.343
 5732POPC   PO473704   3.519   2.894   5.493
 5732POPC   GL173705   3.635   3.327   5.784
 5732POPC   GL273706   3.499   3.722   5.816
 5732POPC   C1A73707   3.632   3.469   6.241
 5732POPC   D2A73708   3.421   3.427   6.663
 5732POPC   C3A73709   3.688   3.337   7.034
 5732POPC   C4A73710   3.754   3.393   7.520
 5732POPC   C1B73711   3.268   3.928   6.182
 5732POPC   C2B73712   3.053   3.826   6.573
 5732POPC   C3B73713   3.020   3.635   6.992
 5732POPC   C4B73714   3.262   3.477   7.345
 5733POPC   NC373715  42.486  22.721   5.434
 5733POPC   PO473716  42.021  23.225   5.484
 5733POPC   GL173717  42.197  22.969   5.816
 5733POPC   GL273718  42.491  23.162   5.824
 5733POPC   C1A73719  42.358  22.868   6.254
 5733POPC   D2A73720  42.543  22.815   6.680
 5733POPC   C3A73721  42.243  22.826   7.066
 5733POPC   C4A73722  42.136  22.743   7.517
 5733POPC   C1B73723  42.506  23.391   6.217
 5733POPC   C2B73724  42.662  23.314   6.634
 5733POPC   C3B73725  42.617  23.182   7.061
 5733POPC   C4B73726  42.634  22.892   7.401
 5734POPC   NC373727  35.064  22.684   5.724
 5734POPC   PO473728  35.684  22.747   5.434
 5734POPC   GL173729  35.718  22.745   5.861
 5734POPC   GL273730  35.749  23.097   5.844
 5734POPC   C1A73731  35.571  22.836   6.282
 5734POPC   D2A73732  35.276  22.687   6.579
 5734POPC   C3A73733  35.159  22.805   6.986
 5734POPC   C4A73734  35.550  22.750   7.203
 5734POPC   C1B73735  35.454  23.300   6.109
 5734POPC   C2B73736  35.532  23.386   6.513
 5734POPC   C3B73737  35.547  23.144   6.870
 5734POPC   C4B73738  35.350  23.224   7.264
 5735POPC   NC373739  31.808  14.369   5.632
 5735POPC   PO473740  31.190  14.527   5.451
 5735POPC   GL173741  31.343  14.456   5.862
 5735POPC   GL273742  31.559  14.743   5.927
 5735POPC   C1A73743  31.403  14.409   6.323
 5735POPC   D2A73744  31.188  14.491   6.729
 5735POPC   C3A73745  31.308  14.242   7.036
 5735POPC   C4A73746  31.230  14.154   7.436
 5735POPC   C1B73747  31.849  14.672   6.232
 5735POPC   C2B73748  31.673  14.769   6.606
 5735POPC   C3B73749  31.767  14.630   6.969
 5735POPC   C4B73750  31.589  14.546   7.330
 5736POPC   NC373751  31.577  37.413   5.404
 5736POPC   PO473752  31.601  37.976   5.539
 5736POPC   GL173753  31.450  37.661   5.844
 5736POPC   GL273754  31.190  37.378   5.770
 5736POPC   C1A73755  31.520  37.640   6.290
 5736POPC   D2A73756  31.648  37.913   6.655
 5736POPC   C3A73757  31.632  37.757   7.074
 5736POPC   C4A73758  31.911  37.653   7.406
 5736POPC   C1B73759  31.227  37.195   6.221
 5736POPC   C2B73760  31.306  37.234   6.694
 5736POPC   C3B73761  31.197  37.466   7.125
 5736POPC   C4B73762  30.931  37.811   7.304
 5737POPC   NC373763  31.880  44.987   5.541
 5737POPC   PO473764  31.173   0.049   5.573
 5737POPC   GL173765  31.280  44.660   5.841
 5737POPC   GL273766  31.650  44.545   5.786
 5737POPC   C1A73767  31.140  44.552   6.282
 5737POPC   D2A73768  31.327  44.759   6.642
 5737POPC   C3A73769  31.352  44.599   7.058
 5737POPC   C4A73770  31.171  44.843   7.367
 5737POPC   C1B73771  31.670  44.597   6.260
 5737POPC   C2B73772  31.826  44.830   6.627
 5737POPC   C3B73773  31.647  44.991   7.013
 5737POPC   C4B73774  31.668  44.816   7.438
 5738POPC   NC373775  29.939  21.497   5.192
 5738POPC   PO473776  29.512  21.908   5.533
 5738POPC   GL173777  29.915  21.644   5.782
 5738POPC   GL273778  29.787  21.297   5.968
 5738POPC   C1A73779  30.229  21.435   6.132
 5738POPC   D2A73780  30.338  21.212   6.547
 5738POPC   C3A73781  30.099  21.378   6.910
 5738POPC   C4A73782  30.057  21.715   7.242
 5738POPC   C1B73783  29.708  21.662   6.260
 5738POPC   C2B73784  29.738  21.763   6.718
 5738POPC   C3B73785  29.601  21.528   7.074
 5738POPC   C4B73786  29.725  21.400   7.484
 5739POPC   NC373787  42.725  30.528   5.375
 5739POPC   PO473788  42.202  30.952   5.445
 5739POPC   GL173789  42.060  30.807   5.862
 5739POPC   GL273790  42.328  30.579   5.811
 5739POPC   C1A73791  42.151  30.693   6.325
 5739POPC   D2A73792  42.086  30.581   6.798
 5739POPC   C3A73793  42.326  30.719   7.159
 5739POPC   C4A73794  42.610  30.767   7.496
 5739POPC   C1B73795  42.458  30.288   6.125
 5739POPC   C2B73796  42.610  30.372   6.542
 5739POPC   C3B73797  42.476  30.240   6.939
 5739POPC   C4B73798  42.564  30.277   7.380
 5740POPC   NC373799   7.694  25.261   5.606
 5740POPC   PO473800   8.129  25.473   5.175
 5740POPC   GL173801   8.150  25.373   5.724
 5740POPC   GL273802   8.146  25.035   5.732
 5740POPC   C1A73803   8.357  25.502   6.151
 5740POPC   D2A73804   8.296  25.341   6.564
 5740POPC   C3A73805   8.337  25.516   6.990
 5740POPC   C4A73806   8.062  25.414   7.347
 5740POPC   C1B73807   8.137  25.011   6.156
 5740POPC   C2B73808   8.144  24.845   6.562
 5740POPC   C3B73809   8.100  25.050   6.948
 5740POPC   C4B73810   8.378  25.002   7.269
 5741POPC   NC373811  33.274  15.283   5.375
 5741POPC   PO473812  32.860  14.792   5.406
 5741POPC   GL173813  33.097  14.934   5.784
 5741POPC   GL273814  33.062  15.288   5.835
 5741POPC   C1A73815  33.217  14.947   6.223
 5741POPC   D2A73816  33.143  15.113   6.650
 5741POPC   C3A73817  33.256  14.941   7.054
 5741POPC   C4A73818  33.011  14.769   7.384
 5741POPC   C1B73819  33.383  15.414   6.126
 5741POPC   C2B73820  33.567  15.391   6.558
 5741POPC   C3B73821  33.431  15.421   6.965
 5741POPC   C4B73822  33.099  15.421   7.240
 5742POPC   NC373823  18.088  44.606   5.452
 5742POPC   PO473824  18.702  44.402   5.630
 5742POPC   GL173825  18.560  44.768   5.820
 5742POPC   GL273826  18.246  44.692   5.929
 5742POPC   C1A73827  18.578  44.882   6.254
 5742POPC   D2A73828  18.695  44.621   6.628
 5742POPC   C3A73829  18.479  44.840   6.928
 5742POPC   C4A73830  18.090   0.024   7.065
 5742POPC   C1B73831  18.411  44.401   6.240
 5742POPC   C2B73832  18.220  44.392   6.613
 5742POPC   C3B73833  18.374  44.334   7.001
 5742POPC   C4B73834  18.315  44.593   7.330
 5743POPC   NC373835  32.585  20.766   5.504
 5743POPC   PO473836  33.305  20.768   5.645
 5743POPC   GL173837  32.934  20.757   5.877
 5743POPC   GL273838  32.793  20.401   5.841
 5743POPC   C1A73839  32.716  20.707   6.253
 5743POPC   D2A73840  32.906  20.638   6.622
 5743POPC   C3A73841  32.799  20.820   6.986
 5743POPC   C4A73842  32.981  20.731   7.387
 5743POPC   C1B73843  33.125  20.391   6.183
 5743POPC   C2B73844  33.292  20.277   6.589
 5743POPC   C3B73845  33.166  20.406   6.993
 5743POPC   C4B73846  33.227  20.292   7.407
 5744POPC   NC373847  36.036  38.667   5.270
 5744POPC   PO473848  36.072  39.296   5.216
 5744POPC   GL173849  36.139  39.181   5.682
 5744POPC   GL273850  36.474  39.103   5.794
 5744POPC   C1A73851  35.957  39.149   6.140
 5744POPC   D2A73852  35.971  39.191   6.633
 5744POPC   C3A73853  36.079  38.919   6.982
 5744POPC   C4A73854  36.166  39.063   7.403
 5744POPC   C1B73855  36.342  39.475   6.072
 5744POPC   C2B73856  36.251  39.575   6.483
 5744POPC   C3B73857  36.421  39.360   6.860
 5744POPC   C4B73858  36.519  39.661   7.153
 5745POPC   NC373859  35.772  24.089   5.424
 5745POPC   PO473860  36.365  24.553   5.536
 5745POPC   GL173861  36.058  24.488   5.852
 5745POPC   GL273862  35.947  24.821   5.846
 5745POPC   C1A73863  35.912  24.338   6.282
 5745POPC   D2A73864  35.694  24.288   6.712
 5745POPC   C3A73865  35.847  24.507   7.097
 5745POPC   C4A73866  36.096  24.311   7.417
 5745POPC   C1B73867  36.216  24.816   6.237
 5745POPC   C2B73868  36.398  24.595   6.621
 5745POPC   C3B73869  36.369  24.583   7.069
 5745POPC   C4B73870  36.315  24.763   7.466
 5746POPC   NC373871   2.865  44.080   5.151
 5746POPC   PO473872   2.639  43.499   5.470
 5746POPC   GL173873   2.574  43.672   5.900
 5746POPC   GL273874   2.403  44.012   5.885
 5746POPC   C1A73875   2.895  43.762   6.257
 5746POPC   D2A73876   3.120  43.604   6.627
 5746POPC   C3A73877   2.974  43.711   7.039
 5746POPC   C4A73878   3.104  44.002   7.361
 5746POPC   C1B73879   2.444  44.002   6.323
 5746POPC   C2B73880   2.693  43.996   6.701
 5746POPC   C3B73881   2.667  44.122   7.124
 5746POPC   C4B73882   2.488  44.218   7.534
 5747POPC   NC373883   9.341  15.393   5.353
 5747POPC   PO473884   9.995  15.048   5.335
 5747POPC   GL173885   9.637  15.071   5.667
 5747POPC   GL273886   9.568  15.428   5.798
 5747POPC   C1A73887   9.696  14.987   6.115
 5747POPC   D2A73888   9.926  15.137   6.499
 5747POPC   C3A73889   9.837  15.011   6.922
 5747POPC   C4A73890   9.673  14.969   7.331
 5747POPC   C1B73891   9.841  15.492   6.132
 5747POPC   C2B73892   9.585  15.526   6.473
 5747POPC   C3B73893   9.430  15.339   6.823
 5747POPC   C4B73894   9.656  15.436   7.171
 5748POPC   NC373895  22.990  18.925   5.387
 5748POPC   PO473896  22.627  18.594   5.813
 5748POPC   GL173897  22.837  19.010   5.868
 5748POPC   GL273898  23.185  19.181   5.787
 5748POPC   C1A73899  22.926  19.078   6.269
 5748POPC   D2A73900  22.747  19.194   6.648
 5748POPC   C3A73901  22.905  18.913   6.914
 5748POPC   C4A73902  22.758  19.034   7.283
 5748POPC   C1B73903  23.345  19.361   6.188
 5748POPC   C2B73904  23.286  19.242   6.617
 5748POPC   C3B73905  23.149  19.354   7.005
 5748POPC   C4B73906  23.211  19.224   7.410
 5749POPC   NC373907  37.309  18.405   5.460
 5749POPC   PO473908  36.692  18.523   5.542
 5749POPC   GL173909  36.952  18.308   5.841
 5749POPC   GL273910  37.121  18.601   5.898
 5749POPC   C1A73911  36.934  18.302   6.311
 5749POPC   D2A73912  36.631  18.389   6.660
 5749POPC   C3A73913  36.558  18.039   6.948
 5749POPC   C4A73914  36.878  17.987   7.235
 5749POPC   C1B73915  37.392  18.533   6.246
 5749POPC   C2B73916  37.379  18.384   6.671
 5749POPC   C3B73917  37.140  18.424   7.032
 5749POPC   C4B73918  37.263  18.662   7.376
 5750POPC   NC373919  25.633  38.834   5.461
 5750POPC   PO473920  25.333  38.176   5.441
 5750POPC   GL173921  25.392  38.473   5.767
 5750POPC   GL273922  25.336  38.250   6.016
 5750POPC   C1A73923  25.571  38.691   6.148
 5750POPC   D2A73924  25.358  38.741   6.576
 5750POPC   C3A73925  25.445  38.587   6.978
 5750POPC   C4A73926  25.291  38.751   7.370
 5750POPC   C1B73927  25.056  38.636   6.183
 5750POPC   C2B73928  24.843  38.565   6.614
 5750POPC   C3B73929  24.938  38.493   7.064
 5750POPC   C4B73930  25.200  38.161   7.238
 5751POPC   NC373931  30.953  21.287   5.479
 5751POPC   PO473932  30.332  21.519   5.426
 5751POPC   GL173933  30.612  21.563   5.796
 5751POPC   GL273934  30.905  21.765   5.710
 5751POPC   C1A73935  30.736  21.315   6.169
 5751POPC   D2A73936  30.876  21.130   6.570
 5751POPC   C3A73937  30.751  21.385   6.910
 5751POPC   C4A73938  30.465  21.393   7.265
 5751POPC   C1B73939  30.942  21.832   6.178
 5751POPC   C2B73940  31.058  21.741   6.633
 5751POPC   C3B73941  30.930  21.844   7.066
 5751POPC   C4B73942  30.924  21.568   7.403
 5752POPC   NC373943  11.052  21.191   5.333
 5752POPC   PO473944  11.536  21.723   5.397
 5752POPC   GL173945  11.473  21.484   5.800
 5752POPC   GL273946  11.176  21.267   5.835
 5752POPC   C1A73947  11.300  21.583   6.225
 5752POPC   D2A73948  11.010  21.532   6.577
 5752POPC   C3A73949  11.223  21.603   6.955
 5752POPC   C4A73950  11.058  21.702   7.350
 5752POPC   C1B73951  11.356  21.065   6.192
 5752POPC   C2B73952  11.427  21.208   6.603
 5752POPC   C3B73953  11.604  21.279   6.997
 5752POPC   C4B73954  11.427  21.346   7.376
 5753POPC   NC373955   1.609  11.644   5.506
 5753POPC   PO473956   1.919  11.101   5.337
 5753POPC   GL173957   1.953  11.047   5.782
 5753POPC   GL273958   1.661  11.263   5.850
 5753POPC   C1A73959   1.977  11.069   6.216
 5753POPC   D2A73960   2.054  11.469   6.409
 5753POPC   C3A73961   1.952  11.510   6.827
 5753POPC   C4A73962   2.195  11.303   7.097
 5753POPC   C1B73963   1.574  11.360   6.289
 5753POPC   C2B73964   1.709  11.090   6.672
 5753POPC   C3B73965   1.716  11.119   7.129
 5753POPC   C4B73966   1.870  11.349   7.505
 5754POPC   NC373967  32.290   7.382   5.412
 5754POPC   PO473968  32.654   6.859   5.739
 5754POPC   GL173969  32.424   7.271   5.901
 5754POPC   GL273970  32.114   7.533   5.855
 5754POPC   C1A73971  32.510   7.616   6.186
 5754POPC   D2A73972  32.326   7.604   6.579
 5754POPC   C3A73973  32.382   7.489   6.976
 5754POPC   C4A73974  32.367   7.725   7.352
 5754POPC   C1B73975  31.991   7.408   6.240
 5754POPC   C2B73976  31.905   7.305   6.665
 5754POPC   C3B73977  31.879   7.486   7.059
 5754POPC   C4B73978  31.629   7.827   7.132
 5755POPC   NC373979  26.663  11.529   5.529
 5755POPC   PO473980  27.187  10.964   5.523
 5755POPC   GL173981  26.857  11.151   5.805
 5755POPC   GL273982  27.028  11.180   6.115
 5755POPC   C1A73983  26.583  11.409   6.145
 5755POPC   D2A73984  26.495  11.620   6.535
 5755POPC   C3A73985  26.717  11.399   6.842
 5755POPC   C4A73986  26.573  11.409   7.254
 5755POPC   C1B73987  26.642  10.909   6.215
 5755POPC   C2B73988  26.624  10.737   6.623
 5755POPC   C3B73989  26.523  10.933   6.994
 5755POPC   C4B73990  26.670  10.964   7.423
 5756POPC   NC373991  33.553  30.392   5.283
 5756POPC   PO473992  34.008  30.900   5.457
 5756POPC   GL173993  34.016  30.639   5.830
 5756POPC   GL273994  33.703  30.675   6.035
 5756POPC   C1A73995  34.073  30.427   6.249
 5756POPC   D2A73996  33.764  30.599   6.554
 5756POPC   C3A73997  33.858  30.681   6.980
 5756POPC   C4A73998  33.931  30.991   7.337
 5756POPC   C1B73999  33.339  30.791   6.291
 5756POPC   C2B74000  33.309  30.830   6.717
 5756POPC   C3B74001  33.446  30.942   7.096
 5756POPC   C4B74002  33.544  30.660   7.412
 5757POPC   NC374003  43.743  40.780   5.375
 5757POPC   PO474004  43.914  41.367   5.137
 5757POPC   GL174005  43.791  41.208   5.625
 5757POPC   GL274006  44.086  41.088   5.775
 5757POPC   C1A74007  43.751  40.855   6.039
 5757POPC   D2A74008  43.921  40.520   6.347
 5757POPC   C3A74009  43.844  40.598   6.816
 5757POPC   C4A74010  43.726  40.932   7.109
 5757POPC   C1B74011  44.270  41.005   6.172
 5757POPC   C2B74012  44.290  40.812   6.571
 5757POPC   C3B74013  44.324  40.766   7.006
 5757POPC   C4B74014  44.178  40.964   7.365
 5758POPC   NC374015   1.910  27.815   5.573
 5758POPC   PO474016   2.578  27.917   5.609
 5758POPC   GL174017   2.351  27.637   5.911
 5758POPC   GL274018   2.124  27.361   5.853
 5758POPC   C1A74019   2.266  27.499   6.342
 5758POPC   D2A74020   2.374  27.601   6.751
 5758POPC   C3A74021   2.044  27.488   7.007
 5758POPC   C4A74022   1.810  27.636   7.303
 5758POPC   C1B74023   1.791  27.517   6.165
 5758POPC   C2B74024   1.814  27.375   6.573
 5758POPC   C3B74025   1.538  27.435   6.927
 5758POPC   C4B74026   1.469  27.261   7.322
 5759POPC   NC374027  26.237   7.314   5.368
 5759POPC   PO474028  26.100   7.923   5.401
 5759POPC   GL174029  26.139   7.623   5.789
 5759POPC   GL274030  25.924   7.286   5.804
 5759POPC   C1A74031  26.063   7.533   6.261
 5759POPC   D2A74032  25.823   7.453   6.668
 5759POPC   C3A74033  25.948   7.574   7.109
 5759POPC   C4A74034  26.124   7.544   7.549
 5759POPC   C1B74035  25.672   7.188   6.218
 5759POPC   C2B74036  25.607   6.971   6.651
 5759POPC   C3B74037  25.685   7.135   7.090
 5759POPC   C4B74038  25.662   7.324   7.535
 5760POPC   NC374039  38.632   1.519   5.084
 5760POPC   PO474040  38.390   2.089   5.451
 5760POPC   GL174041  38.374   1.836   5.785
 5760POPC   GL274042  38.104   2.019   5.884
 5760POPC   C1A74043  38.272   1.624   6.145
 5760POPC   D2A74044  38.286   1.785   6.546
 5760POPC   C3A74045  38.385   1.585   6.930
 5760POPC   C4A74046  38.533   1.727   7.345
 5760POPC   C1B74047  38.266   2.221   6.205
 5760POPC   C2B74048  38.515   2.250   6.549
 5760POPC   C3B74049  38.454   2.098   6.948
 5760POPC   C4B74050  38.293   2.323   7.293
 5761POPC   NC374051  27.411  36.186   5.287
 5761POPC   PO474052  27.001  35.618   5.332
 5761POPC   GL174053  27.284  35.857   5.668
 5761POPC   GL274054  27.351  36.232   5.786
 5761POPC   C1A74055  27.405  35.854   6.125
 5761POPC   D2A74056  27.396  35.998   6.555
 5761POPC   C3A74057  27.491  35.833   6.963
 5761POPC   C4A74058  27.787  35.969   7.258
 5761POPC   C1B74059  27.264  36.547   6.125
 5761POPC   C2B74060  27.240  36.472   6.579
 5761POPC   C3B74061  27.114  36.359   6.993
 5761POPC   C4B74062  27.331  36.202   7.338
 5762POPC   NC374063  31.282  15.867   5.548
 5762POPC   PO474064  30.643  15.929   5.433
 5762POPC   GL174065  30.818  15.725   5.758
 5762POPC   GL274066  31.007  15.952   5.998
 5762POPC   C1A74067  30.589  15.691   6.121
 5762POPC   D2A74068  30.737  15.772   6.544
 5762POPC   C3A74069  30.530  15.876   6.935
 5762POPC   C4A74070  30.619  15.866   7.378
 5762POPC   C1B74071  30.671  16.191   6.255
 5762POPC   C2B74072  30.528  16.302   6.665
 5762POPC   C3B74073  30.746  16.342   7.056
 5762POPC   C4B74074  31.024  16.142   7.295
 5763POPC   NC374075  20.014  34.605   5.476
 5763POPC   PO474076  19.479  35.009   5.487
 5763POPC   GL174077  19.631  34.710   5.828
 5763POPC   GL274078  19.440  34.385   5.934
 5763POPC   C1A74079  19.800  34.699   6.236
 5763POPC   D2A74080  19.802  34.420   6.579
 5763POPC   C3A74081  20.057  34.589   6.883
 5763POPC   C4A74082  19.983  34.543   7.289
 5763POPC   C1B74083  19.302  34.643   6.248
 5763POPC   C2B74084  19.382  34.885   6.618
 5763POPC   C3B74085  19.540  34.686   6.979
 5763POPC   C4B74086  19.470  34.698   7.409
 5764POPC   NC374087  23.899  34.521   5.047
 5764POPC   PO474088  23.578  34.181   5.594
 5764POPC   GL174089  23.702  34.458   5.894
 5764POPC   GL274090  23.822  34.743   5.704
 5764POPC   C1A74091  23.789  34.431   6.320
 5764POPC   D2A74092  23.473  34.566   6.586
 5764POPC   C3A74093  23.386  34.406   6.990
 5764POPC   C4A74094  23.467  34.647   7.371
 5764POPC   C1B74095  23.857  34.931   6.121
 5764POPC   C2B74096  23.924  34.905   6.562
 5764POPC   C3B74097  23.784  34.738   6.952
 5764POPC   C4B74098  23.966  34.584   7.321
 5765POPC   NC374099  17.234  28.772   5.563
 5765POPC   PO474100  17.063  29.430   5.638
 5765POPC   GL174101  17.392  29.398   5.884
 5765POPC   GL274102  17.190  29.580   6.130
 5765POPC   C1A74103  17.506  29.203   6.279
 5765POPC   D2A74104  17.366  28.985   6.664
 5765POPC   C3A74105  17.648  29.014   7.027
 5765POPC   C4A74106  17.639  29.372   7.273
 5765POPC   C1B74107  16.972  29.234   6.356
 5765POPC   C2B74108  16.881  29.136   6.790
 5765POPC   C3B74109  17.154  29.189   7.143
 5765POPC   C4B74110  17.200  29.357   7.540
 5766POPC   NC374111   0.610  24.080   5.227
 5766POPC   PO474112   0.788  24.682   5.479
 5766POPC   GL174113   0.427  24.609   5.756
 5766POPC   GL274114   0.221  24.918   5.681
 5766POPC   C1A74115   0.406  24.427   6.208
 5766POPC   D2A74116   0.688  24.412   6.593
 5766POPC   C3A74117   0.543  24.239   7.003
 5766POPC   C4A74118   0.502  24.359   7.456
 5766POPC   C1B74119   0.386  24.966   6.114
 5766POPC   C2B74120   0.213  24.824   6.483
 5766POPC   C3B74121   0.306  24.676   6.876
 5766POPC   C4B74122   0.360  24.848   7.285
 5767POPC   NC374123   8.352   2.634   5.105
 5767POPC   PO474124   7.925   2.889   5.519
 5767POPC   GL174125   8.178   2.862   5.843
 5767POPC   GL274126   8.430   3.138   5.934
 5767POPC   C1A74127   8.018   2.603   6.170
 5767POPC   D2A74128   8.208   2.623   6.531
 5767POPC   C3A74129   8.024   2.548   6.890
 5767POPC   C4A74130   8.018   2.523   7.333
 5767POPC   C1B74131   8.556   2.712   6.149
 5767POPC   C2B74132   8.714   2.582   6.544
 5767POPC   C3B74133   8.497   2.733   6.945
 5767POPC   C4B74134   8.465   3.167   7.095
 5768POPC   NC374135  35.773  19.372   5.317
 5768POPC   PO474136  36.036  18.753   5.487
 5768POPC   GL174137  36.141  18.947   5.864
 5768POPC   GL274138  36.053  19.281   5.863
 5768POPC   C1A74139  36.174  18.908   6.316
 5768POPC   D2A74140  36.333  18.857   6.734
 5768POPC   C3A74141  35.938  18.809   6.957
 5768POPC   C4A74142  35.903  18.787   7.395
 5768POPC   C1B74143  36.047  19.423   6.326
 5768POPC   C2B74144  35.999  19.268   6.733
 5768POPC   C3B74145  36.010  19.259   7.188
 5768POPC   C4B74146  36.035  19.265   7.650
 5769POPC   NC374147  30.079   9.372   5.331
 5769POPC   PO474148  29.656   9.957   5.456
 5769POPC   GL174149  29.936   9.790   5.807
 5769POPC   GL274150  30.121   9.485   5.822
 5769POPC   C1A74151  29.990   9.705   6.268
 5769POPC   D2A74152  30.040   9.947   6.666
 5769POPC   C3A74153  29.652   9.979   6.939
 5769POPC   C4A74154  29.542   9.631   7.218
 5769POPC   C1B74155  30.333   9.284   6.155
 5769POPC   C2B74156  30.240   9.346   6.581
 5769POPC   C3B74157  30.090   9.465   6.976
 5769POPC   C4B74158  30.340   9.525   7.323
 5770POPC   NC374159  33.909   5.220   5.324
 5770POPC   PO474160  33.317   5.036   5.370
 5770POPC   GL174161  33.575   4.836   5.723
 5770POPC   GL274162  33.931   4.890   5.737
 5770POPC   C1A74163  33.658   4.740   6.175
 5770POPC   D2A74164  33.545   5.041   6.483
 5770POPC   C3A74165  33.629   4.994   6.914
 5770POPC   C4A74166  33.582   5.170   7.296
 5770POPC   C1B74167  33.750   5.234   6.024
 5770POPC   C2B74168  33.929   5.388   6.437
 5770POPC   C3B74169  33.881   5.444   6.892
 5770POPC   C4B74170  34.146   5.436   7.284
 5771POPC   NC374171  13.829  10.162   5.292
 5771POPC   PO474172  13.564   9.527   5.363
 5771POPC   GL174173  13.604   9.723   5.790
 5771POPC   GL274174  13.818   9.998   5.786
 5771POPC   C1A74175  13.435   9.779   6.242
 5771POPC   D2A74176  13.553   9.500   6.591
 5771POPC   C3A74177  13.591   9.665   7.043
 5771POPC   C4A74178  13.851   9.477   7.388
 5771POPC   C1B74179  13.931   9.777   6.184
 5771POPC   C2B74180  13.861   9.901   6.591
 5771POPC   C3B74181  14.066   9.765   6.947
 5771POPC   C4B74182  14.047   9.929   7.316
 5772POPC   NC374183  14.837  30.677   5.451
 5772POPC   PO474184  14.247  31.022   5.357
 5772POPC   GL174185  14.367  30.706   5.739
 5772POPC   GL274186  14.082  30.440   5.841
 5772POPC   C1A74187  14.461  30.589   6.165
 5772POPC   D2A74188  14.444  30.905   6.482
 5772POPC   C3A74189  14.500  30.765   6.873
 5772POPC   C4A74190  14.411  30.920   7.238
 5772POPC   C1B74191  14.036  30.288   6.266
 5772POPC   C2B74192  14.250  30.365   6.664
 5772POPC   C3B74193  14.239  30.406   7.136
 5772POPC   C4B74194  14.361  30.373   7.573
 5773POPC   NC374195   4.958  23.075   5.218
 5773POPC   PO474196   5.464  22.694   5.357
 5773POPC   GL174197   5.243  23.001   5.710
 5773POPC   GL274198   4.927  23.223   5.714
 5773POPC   C1A74199   5.087  23.059   6.188
 5773POPC   D2A74200   4.990  22.996   6.654
 5773POPC   C3A74201   5.316  22.839   6.961
 5773POPC   C4A74202   5.504  22.659   7.329
 5773POPC   C1B74203   4.614  23.268   6.062
 5773POPC   C2B74204   4.572  23.438   6.478
 5773POPC   C3B74205   4.751  23.387   6.892
 5773POPC   C4B74206   4.843  23.026   7.167
 5774POPC   NC374207  37.321  11.552   5.500
 5774POPC   PO474208  37.940  11.368   5.366
 5774POPC   GL174209  37.677  11.189   5.710
 5774POPC   GL274210  37.893  10.888   5.720
 5774POPC   C1A74211  37.504  11.314   6.147
 5774POPC   D2A74212  37.655  11.516   6.570
 5774POPC   C3A74213  37.756  11.533   7.006
 5774POPC   C4A74214  37.764  11.280   7.418
 5774POPC   C1B74215  37.894  10.971   6.165
 5774POPC   C2B74216  37.620  10.987   6.539
 5774POPC   C3B74217  37.630  11.045   6.981
 5774POPC   C4B74218  37.890  10.821   7.277
 5775POPC   NC374219  15.413  17.946   5.353
 5775POPC   PO474220  14.849  18.384   5.153
 5775POPC   GL174221  14.997  18.258   5.611
 5775POPC   GL274222  15.231  18.500   5.815
 5775POPC   C1A74223  15.106  18.081   6.041
 5775POPC   D2A74224  15.253  18.298   6.415
 5775POPC   C3A74225  15.262  18.206   6.838
 5775POPC   C4A74226  15.176  18.234   7.262
 5775POPC   C1B74227  15.522  18.639   6.154
 5775POPC   C2B74228  15.603  18.622   6.624
 5775POPC   C3B74229  15.440  18.640   7.068
 5775POPC   C4B74230  15.530  18.493   7.516
 5776POPC   NC374231  25.160  36.426   5.289
 5776POPC   PO474232  25.209  35.763   5.178
 5776POPC   GL174233  25.234  35.881   5.667
 5776POPC   GL274234  25.287  36.242   5.741
 5776POPC   C1A74235  25.149  35.993   6.144
 5776POPC   D2A74236  25.296  35.975   6.583
 5776POPC   C3A74237  25.037  35.936   6.925
 5776POPC   C4A74238  25.070  36.118   7.300
 5776POPC   C1B74239  25.527  36.411   6.121
 5776POPC   C2B74240  25.637  36.376   6.577
 5776POPC   C3B74241  25.581  36.534   6.983
 5776POPC   C4B74242  25.352  36.546   7.345
 5777POPC   NC374243  38.019  41.890   5.599
 5777POPC   PO474244  37.604  41.608   5.158
 5777POPC   GL174245  37.427  41.752   5.632
 5777POPC   GL274246  37.622  41.934   5.904
 5777POPC   C1A74247  37.419  41.522   6.100
 5777POPC   D2A74248  37.700  41.461   6.498
 5777POPC   C3A74249  37.570  41.356   6.888
 5777POPC   C4A74250  37.499  41.688   7.166
 5777POPC   C1B74251  37.954  41.774   6.211
 5777POPC   C2B74252  38.052  41.951   6.623
 5777POPC   C3B74253  37.990  41.802   7.033
 5777POPC   C4B74254  38.124  41.470   7.281
 5778POPC   NC374255  21.332  35.725   5.518
 5778POPC   PO474256  21.724  35.119   5.382
 5778POPC   GL174257  21.513  35.285   5.725
 5778POPC   GL274258  21.449  34.965   5.891
 5778POPC   C1A74259  21.324  35.406   6.136
 5778POPC   D2A74260  21.400  35.545   6.549
 5778POPC   C3A74261  21.127  35.532   6.907
 5778POPC   C4A74262  21.319  35.578   7.305
 5778POPC   C1B74263  21.517  34.930   6.324
 5778POPC   C2B74264  21.555  34.976   6.760
 5778POPC   C3B74265  21.365  35.093   7.121
 5778POPC   C4B74266  21.498  35.163   7.545
 5779POPC   NC374267  31.551  33.492   5.575
 5779POPC   PO474268  31.464  32.848   5.815
 5779POPC   GL174269  31.532  33.194   5.990
 5779POPC   GL274270  31.230  33.331   5.964
 5779POPC   C1A74271  31.556  33.202   6.405
 5779POPC   D2A74272  31.277  33.009   6.643
 5779POPC   C3A74273  31.513  32.944   6.983
 5779POPC   C4A74274  31.783  32.893   7.323
 5779POPC   C1B74275  31.238  33.598   6.320
 5779POPC   C2B74276  31.363  33.535   6.753
 5779POPC   C3B74277  31.173  33.300   7.081
 5779POPC   C4B74278  31.060  33.378   7.507
 5780POPC   NC374279   5.467  21.514   5.516
 5780POPC   PO474280   6.160  21.337   5.444
 5780POPC   GL174281   6.060  21.257   5.847
 5780POPC   GL274282   5.750  21.118   5.687
 5780POPC   C1A74283   6.018  21.418   6.301
 5780POPC   D2A74284   6.161  21.380   6.737
 5780POPC   C3A74285   5.954  21.426   7.132
 5780POPC   C4A74286   6.129  21.530   7.532
 5780POPC   C1B74287   5.619  21.043   6.088
 5780POPC   C2B74288   5.709  21.062   6.518
 5780POPC   C3B74289   5.488  21.069   6.893
 5780POPC   C4B74290   5.621  21.042   7.295
 5781POPC   NC374291   9.434  25.296   5.417
 5781POPC   PO474292   9.892  24.861   5.171
 5781POPC   GL174293   9.747  24.958   5.666
 5781POPC   GL274294   9.419  24.962   5.842
 5781POPC   C1A74295   9.915  25.225   6.048
 5781POPC   D2A74296   9.793  25.327   6.485
 5781POPC   C3A74297  10.080  25.243   6.849
 5781POPC   C4A74298  10.063  25.455   7.263
 5781POPC   C1B74299   9.270  25.081   6.258
 5781POPC   C2B74300   9.367  25.101   6.690
 5781POPC   C3B74301   9.586  25.319   7.024
 5781POPC   C4B74302   9.376  25.143   7.349
 5782POPC   NC374303  41.300  24.240   5.324
 5782POPC   PO474304  41.880  23.915   5.373
 5782POPC   GL174305  41.733  23.788   5.761
 5782POPC   GL274306  41.393  23.772   5.773
 5782POPC   C1A74307  41.847  23.744   6.161
 5782POPC   D2A74308  41.705  23.598   6.521
 5782POPC   C3A74309  41.853  23.660   6.911
 5782POPC   C4A74310  41.720  23.605   7.325
 5782POPC   C1B74311  41.361  23.487   6.130
 5782POPC   C2B74312  41.136  23.499   6.520
 5782POPC   C3B74313  41.177  23.494   6.952
 5782POPC   C4B74314  41.226  23.779   7.260
 5783POPC   NC374315   4.653   5.621   5.580
 5783POPC   PO474316   4.624   6.239   5.633
 5783POPC   GL174317   4.447   6.002   5.959
 5783POPC   GL274318   4.198   5.776   5.807
 5783POPC   C1A74319   4.299   5.994   6.386
 5783POPC   D2A74320   4.019   6.179   6.702
 5783POPC   C3A74321   4.192   6.010   7.066
 5783POPC   C4A74322   4.319   5.587   7.207
 5783POPC   C1B74323   4.037   5.599   6.192
 5783POPC   C2B74324   3.947   5.657   6.646
 5783POPC   C3B74325   3.770   5.733   7.072
 5783POPC   C4B74326   3.917   5.686   7.512
 5784POPC   NC374327  41.013  27.204   5.121
 5784POPC   PO474328  40.582  26.755   5.413
 5784POPC   GL174329  40.689  26.659   5.813
 5784POPC   GL274330  40.993  26.808   5.854
 5784POPC   C1A74331  40.775  26.502   6.215
 5784POPC   D2A74332  41.010  26.377   6.524
 5784POPC   C3A74333  40.853  26.425   6.949
 5784POPC   C4A74334  40.876  26.560   7.366
 5784POPC   C1B74335  40.798  27.023   6.217
 5784POPC   C2B74336  40.803  26.852   6.613
 5784POPC   C3B74337  40.950  26.922   7.009
 5784POPC   C4B74338  40.682  27.043   7.290
 5785POPC   NC374339  14.505   4.044   5.365
 5785POPC   PO474340  14.275   4.650   5.545
 5785POPC   GL174341  14.352   4.259   5.799
 5785POPC   GL274342  14.624   3.980   5.851
 5785POPC   C1A74343  14.281   4.214   6.223
 5785POPC   D2A74344  14.181   4.528   6.535
 5785POPC   C3A74345  14.406   4.423   6.889
 5785POPC   C4A74346  14.229   4.175   7.190
 5785POPC   C1B74347  14.795   4.265   6.141
 5785POPC   C2B74348  14.873   4.288   6.574
 5785POPC   C3B74349  14.765   4.066   6.936
 5785POPC   C4B74350  14.703   4.231   7.303
 5786POPC   NC374351   5.647  39.648   5.374
 5786POPC   PO474352   5.513  40.349   5.228
 5786POPC   GL174353   5.511  40.012   5.658
 5786POPC   GL274354   5.842  39.919   5.815
 5786POPC   C1A74355   5.488  39.968   6.168
 5786POPC   D2A74356   5.667  39.901   6.610
 5786POPC   C3A74357   5.691  40.173   6.962
 5786POPC   C4A74358   5.649  40.099   7.378
 5786POPC   C1B74359   6.035  39.962   6.252
 5786POPC   C2B74360   6.159  39.866   6.719
 5786POPC   C3B74361   5.979  39.766   7.142
 5786POPC   C4B74362   5.915  39.672   7.597
 5787POPC   NC374363   7.795  38.641   5.269
 5787POPC   PO474364   7.302  38.160   5.289
 5787POPC   GL174365   7.359  38.286   5.735
 5787POPC   GL274366   7.699  38.334   5.739
 5787POPC   C1A74367   7.310  38.454   6.198
 5787POPC   D2A74368   7.142  38.458   6.647
 5787POPC   C3A74369   7.353  38.502   7.027
 5787POPC   C4A74370   7.187  38.614   7.471
 5787POPC   C1B74371   7.622  38.051   6.117
 5787POPC   C2B74372   7.652  38.204   6.568
 5787POPC   C3B74373   7.663  38.072   6.995
 5787POPC   C4B74374   7.426  38.128   7.369
 5788POPC   NC374375  27.582  23.329   5.507
 5788POPC   PO474376  27.960  23.932   5.314
 5788POPC   GL174377  27.847  23.752   5.731
 5788POPC   GL274378  27.494  23.799   5.754
 5788POPC   C1A74379  27.886  23.891   6.171
 5788POPC   D2A74380  28.090  23.764   6.558
 5788POPC   C3A74381  27.865  23.884   6.914
 5788POPC   C4A74382  27.754  23.746   7.336
 5788POPC   C1B74383  27.497  23.567   6.153
 5788POPC   C2B74384  27.522  23.736   6.566
 5788POPC   C3B74385  27.427  23.577   6.992
 5788POPC   C4B74386  27.288  23.559   7.465
 5789POPC   NC374387  35.806  14.143   5.393
 5789POPC   PO474388  35.276  14.583   5.414
 5789POPC   GL174389  35.463  14.329   5.790
 5789POPC   GL274390  35.213  14.046   5.878
 5789POPC   C1A74391  35.390  14.366   6.261
 5789POPC   D2A74392  35.069  14.606   6.526
 5789POPC   C3A74393  35.205  14.814   6.914
 5789POPC   C4A74394  35.212  14.590   7.292
 5789POPC   C1B74395  35.199  13.867   6.320
 5789POPC   C2B74396  35.393  13.919   6.747
 5789POPC   C3B74397  35.411  14.153   7.172
 5789POPC   C4B74398  35.169  14.205   7.611
 5790POPC   NC374399  39.813  29.559   5.391
 5790POPC   PO474400  40.159  28.981   5.352
 5790POPC   GL174401  40.198  29.157   5.791
 5790POPC   GL274402  39.862  29.341   5.927
 5790POPC   C1A74403  40.370  29.050   6.224
 5790POPC   D2A74404  40.592  28.921   6.619
 5790POPC   C3A74405  40.527  29.260   6.917
 5790POPC   C4A74406  40.151  29.224   7.136
 5790POPC   C1B74407  39.672  29.135   6.310
 5790POPC   C2B74408  39.671  28.896   6.716
 5790POPC   C3B74409  39.479  28.945   7.130
 5790POPC   C4B74410  39.548  28.960   7.588
 5791POPC   NC374411   8.638  41.562   5.428
 5791POPC   PO474412   9.317  41.844   5.431
 5791POPC   GL174413   8.996  41.778   5.763
 5791POPC   GL274414   8.930  41.418   5.835
 5791POPC   C1A74415   8.776  41.783   6.161
 5791POPC   D2A74416   8.727  41.625   6.580
 5791POPC   C3A74417   9.116  41.474   6.740
 5791POPC   C4A74418   9.183  41.350   7.161
 5791POPC   C1B74419   8.928  41.265   6.264
 5791POPC   C2B74420   8.747  41.102   6.659
 5791POPC   C3B74421   8.693  41.152   7.113
 5791POPC   C4B74422   8.755  41.419   7.455
 5792POPC   NC374423  11.239   6.093   4.865
 5792POPC   PO474424  11.390   5.717   5.421
 5792POPC   GL174425  11.108   5.780   5.806
 5792POPC   GL274426  11.054   6.170   5.779
 5792POPC   C1A74427  11.154   5.620   6.262
 5792POPC   D2A74428  11.464   5.672   6.609
 5792POPC   C3A74429  11.408   5.895   7.015
 5792POPC   C4A74430  11.309   5.717   7.405
 5792POPC   C1B74431  11.115   6.130   6.223
 5792POPC   C2B74432  11.029   5.985   6.640
 5792POPC   C3B74433  11.031   6.242   7.000
 5792POPC   C4B74434  11.006   6.136   7.411
 5793POPC   NC374435   9.867  44.820   5.327
 5793POPC   PO474436   9.585  44.365   5.638
 5793POPC   GL174437   9.488  44.501   5.985
 5793POPC   GL274438   9.167  44.212   5.864
 5793POPC   C1A74439   9.778  44.870   6.165
 5793POPC   D2A74440   9.964   0.148   6.527
 5793POPC   C3A74441   9.916  44.933   6.953
 5793POPC   C4A74442   9.681  44.684   7.278
 5793POPC   C1B74443   9.147  44.249   6.238
 5793POPC   C2B74444   9.409  44.445   6.522
 5793POPC   C3B74445   9.490  44.307   6.941
 5793POPC   C4B74446   9.400  44.256   7.361
 5794POPC   NC374447   1.585  14.050   5.597
 5794POPC   PO474448   0.957  14.157   5.446
 5794POPC   GL174449   1.176  14.284   5.821
 5794POPC   GL274450   1.321  14.626   5.908
 5794POPC   C1A74451   1.344  14.188   6.200
 5794POPC   D2A74452   1.338  14.482   6.477
 5794POPC   C3A74453   1.195  14.389   6.863
 5794POPC   C4A74454   1.119  14.204   7.274
 5794POPC   C1B74455   0.963  14.668   6.164
 5794POPC   C2B74456   0.909  14.788   6.603
 5794POPC   C3B74457   0.783  14.836   7.029
 5794POPC   C4B74458   0.914  14.645   7.446
 5795POPC   NC374459  39.292   8.840   5.291
 5795POPC   PO474460  39.642   9.428   5.409
 5795POPC   GL174461  39.350   9.153   5.700
 5795POPC   GL274462  39.364   8.785   5.785
 5795POPC   C1A74463  39.055   9.052   6.082
 5795POPC   D2A74464  38.944   8.898   6.533
 5795POPC   C3A74465  39.151   9.026   6.963
 5795POPC   C4A74466  39.113   9.011   7.456
 5795POPC   C1B74467  39.424   8.726   6.233
 5795POPC   C2B74468  39.349   8.597   6.701
 5795POPC   C3B74469  39.363   8.607   7.163
 5795POPC   C4B74470  39.541   8.751   7.547
 5796POPC   NC374471  34.826  14.742   5.403
 5796POPC   PO474472  34.345  14.231   5.283
 5796POPC   GL174473  34.418  14.489   5.631
 5796POPC   GL274474  34.716  14.308   5.728
 5796POPC   C1A74475  34.415  14.717   6.036
 5796POPC   D2A74476  34.551  14.562   6.439
 5796POPC   C3A74477  34.504  14.601   6.867
 5796POPC   C4A74478  34.735  14.785   7.173
 5796POPC   C1B74479  34.859  14.264   6.165
 5796POPC   C2B74480  34.829  14.136   6.599
 5796POPC   C3B74481  34.924  14.286   6.994
 5796POPC   C4B74482  34.709  14.336   7.381
 5797POPC   NC374483  33.084  27.073   5.529
 5797POPC   PO474484  32.814  27.717   5.468
 5797POPC   GL174485  32.917  27.575   5.836
 5797POPC   GL274486  32.750  27.256   5.883
 5797POPC   C1A74487  33.106  27.828   6.184
 5797POPC   D2A74488  33.119  28.047   6.573
 5797POPC   C3A74489  32.904  27.721   6.761
 5797POPC   C4A74490  33.007  27.607   7.142
 5797POPC   C1B74491  33.118  27.293   6.189
 5797POPC   C2B74492  33.250  27.328   6.585
 5797POPC   C3B74493  33.045  27.144   6.899
 5797POPC   C4B74494  32.932  27.128   7.329
 5798POPC   NC374495  44.294   0.774   5.380
 5798POPC   PO474496  44.076   0.158   5.418
 5798POPC   GL174497  43.921   0.413   5.784
 5798POPC   GL274498  43.998   0.745   5.832
 5798POPC   C1A74499  43.796   0.429   6.216
 5798POPC   D2A74500  44.002   0.188   6.541
 5798POPC   C3A74501  43.855   0.294   6.947
 5798POPC   C4A74502  43.504   0.260   7.194
 5798POPC   C1B74503  44.147   0.820   6.238
 5798POPC   C2B74504  43.991   0.700   6.632
 5798POPC   C3B74505  44.033   0.903   6.999
 5798POPC   C4B74506  43.947   0.828   7.451
 5799POPC   NC374507   9.850   9.777   5.300
 5799POPC   PO474508   9.454   9.324   5.527
 5799POPC   GL174509   9.624   9.493   5.900
 5799POPC   GL274510   9.771   9.799   5.806
 5799POPC   C1A74511   9.591   9.493   6.372
 5799POPC   D2A74512   9.398   9.830   6.622
 5799POPC   C3A74513   9.484   9.802   7.074
 5799POPC   C4A74514   9.486   9.640   7.508
 5799POPC   C1B74515  10.023   9.681   6.188
 5799POPC   C2B74516   9.930   9.845   6.575
 5799POPC   C3B74517   9.962   9.701   6.956
 5799POPC   C4B74518   9.956   9.921   7.353
 5800POPC   NC374519  40.337  24.460   5.480
 5800POPC   PO474520  39.668  24.665   5.406
 5800POPC   GL174521  39.891  24.558   5.811
 5800POPC   GL274522  40.163  24.312   5.921
 5800POPC   C1A74523  39.740  24.501   6.243
 5800POPC   D2A74524  39.850  24.351   6.666
 5800POPC   C3A74525  39.679  24.480   7.057
 5800POPC   C4A74526  39.770  24.371   7.501
 5800POPC   C1B74527  40.272  24.398   6.367
 5800POPC   C2B74528  40.262  24.679   6.752
 5800POPC   C3B74529  40.149  24.582   7.194
 5800POPC   C4B74530  40.244  24.524   7.666
 5801POPC   NC374531  36.996  12.304   5.282
 5801POPC   PO474532  36.520  11.944   5.580
 5801POPC   GL174533  36.745  12.165   5.922
 5801POPC   GL274534  37.065  12.331   5.797
 5801POPC   C1A74535  36.780  12.013   6.375
 5801POPC   D2A74536  36.834  11.719   6.744
 5801POPC   C3A74537  36.740  11.964   7.082
 5801POPC   C4A74538  36.704  12.362   7.243
 5801POPC   C1B74539  37.205  12.259   6.217
 5801POPC   C2B74540  37.153  12.263   6.690
 5801POPC   C3B74541  37.310  12.358   7.103
 5801POPC   C4B74542  37.224  12.481   7.534
 5802POPC   NC374543  40.672  26.264   5.421
 5802POPC   PO474544  41.253  25.956   5.470
 5802POPC   GL174545  40.953  26.155   5.848
 5802POPC   GL274546  40.545  26.173   5.884
 5802POPC   C1A74547  40.821  25.974   6.268
 5802POPC   D2A74548  40.852  25.748   6.677
 5802POPC   C3A74549  40.799  25.923   7.102
 5802POPC   C4A74550  40.752  25.810   7.553
 5802POPC   C1B74551  40.347  26.220   6.240
 5802POPC   C2B74552  40.520  26.204   6.628
 5802POPC   C3B74553  40.377  26.209   7.030
 5802POPC   C4B74554  40.511  26.231   7.434
 5803POPC   NC374555   8.767  10.852   5.285
 5803POPC   PO474556   9.160  10.280   5.504
 5803POPC   GL174557   8.954  10.391   5.848
 5803POPC   GL274558   8.927  10.069   5.960
 5803POPC   C1A74559   9.098  10.660   6.189
 5803POPC   D2A74560   9.281  10.803   6.589
 5803POPC   C3A74561   9.038  10.667   6.952
 5803POPC   C4A74562   9.251  10.625   7.345
 5803POPC   C1B74563   9.295  10.174   6.182
 5803POPC   C2B74564   9.161  10.304   6.554
 5803POPC   C3B74565   9.285  10.242   6.919
 5803POPC   C4B74566   9.004  10.206   7.223
 5804POPC   NC374567  23.226  26.151   5.346
 5804POPC   PO474568  22.802  25.756   5.563
 5804POPC   GL174569  22.886  26.104   5.854
 5804POPC   GL274570  23.148  26.357   5.785
 5804POPC   C1A74571  22.945  26.054   6.305
 5804POPC   D2A74572  23.195  25.957   6.632
 5804POPC   C3A74573  22.950  26.070   6.980
 5804POPC   C4A74574  23.010  26.001   7.398
 5804POPC   C1B74575  23.385  26.242   6.136
 5804POPC   C2B74576  23.338  26.452   6.496
 5804POPC   C3B74577  23.323  26.387   6.887
 5804POPC   C4B74578  23.432  26.188   7.224
 5805POPC   NC374579  34.116  15.446   5.380
 5805POPC   PO474580  33.610  14.907   5.353
 5805POPC   GL174581  33.602  15.103   5.771
 5805POPC   GL274582  33.956  15.214   5.813
 5805POPC   C1A74583  33.715  15.012   6.217
 5805POPC   D2A74584  33.827  14.919   6.620
 5805POPC   C3A74585  33.798  15.068   7.002
 5805POPC   C4A74586  33.622  15.096   7.397
 5805POPC   C1B74587  33.888  15.477   6.182
 5805POPC   C2B74588  34.073  15.464   6.562
 5805POPC   C3B74589  33.928  15.549   6.939
 5805POPC   C4B74590  33.964  15.475   7.370
 5806POPC   NC374591  33.494   8.502   5.662
 5806POPC   PO474592  33.077   8.179   5.197
 5806POPC   GL174593  33.026   8.239   5.687
 5806POPC   GL274594  33.335   8.032   5.760
 5806POPC   C1A74595  32.761   8.101   6.098
 5806POPC   D2A74596  32.528   8.083   6.530
 5806POPC   C3A74597  32.691   7.990   6.977
 5806POPC   C4A74598  33.000   8.008   7.362
 5806POPC   C1B74599  33.265   8.152   6.200
 5806POPC   C2B74600  33.061   8.083   6.584
 5806POPC   C3B74601  33.199   8.204   6.957
 5806POPC   C4B74602  33.503   7.989   7.207
 5807POPC   NC374603  15.509  28.645   5.647
 5807POPC   PO474604  15.938  28.220   5.336
 5807POPC   GL174605  15.847  28.287   5.793
 5807POPC   GL274606  15.836  28.591   6.018
 5807POPC   C1A74607  15.788  28.116   6.219
 5807POPC   D2A74608  15.953  28.177   6.647
 5807POPC   C3A74609  15.725  28.122   7.038
 5807POPC   C4A74610  15.886  28.090   7.470
 5807POPC   C1B74611  15.657  28.577   6.412
 5807POPC   C2B74612  15.778  28.631   6.845
 5807POPC   C3B74613  16.018  28.537   7.207
 5807POPC   C4B74614  15.730  28.591   7.533
 5808POPC   NC374615   4.102  15.733   5.341
 5808POPC   PO474616   4.518  16.248   5.584
 5808POPC   GL174617   4.278  16.106   5.865
 5808POPC   GL274618   4.245  15.753   5.866
 5808POPC   C1A74619   4.281  16.143   6.272
 5808POPC   D2A74620   4.142  15.913   6.599
 5808POPC   C3A74621   4.279  16.143   6.930
 5808POPC   C4A74622   4.109  16.133   7.295
 5808POPC   C1B74623   4.553  15.719   6.243
 5808POPC   C2B74624   4.671  15.872   6.651
 5808POPC   C3B74625   4.543  15.742   7.062
 5808POPC   C4B74626   4.319  15.378   7.226
 5809POPC   NC374627   8.801   2.993   5.600
 5809POPC   PO474628   8.777   2.408   5.295
 5809POPC   GL174629   8.856   2.490   5.785
 5809POPC   GL274630   9.125   2.740   5.899
 5809POPC   C1A74631   9.072   2.362   6.223
 5809POPC   D2A74632   9.259   2.349   6.644
 5809POPC   C3A74633   8.927   2.428   6.962
 5809POPC   C4A74634   8.908   2.604   7.332
 5809POPC   C1B74635   8.938   3.033   6.238
 5809POPC   C2B74636   8.691   3.092   6.611
 5809POPC   C3B74637   8.939   2.957   6.962
 5809POPC   C4B74638   9.180   3.042   7.307
 5810POPC   NC374639  36.443   0.363   5.417
 5810POPC   PO474640  35.794   0.399   5.492
 5810POPC   GL174641  36.131   0.624   5.757
 5810POPC   GL274642  36.440   0.447   5.922
 5810POPC   C1A74643  36.190   0.799   6.193
 5810POPC   D2A74644  36.432   0.555   6.517
 5810POPC   C3A74645  36.477   0.781   6.907
 5810POPC   C4A74646  36.204   0.763   7.252
 5810POPC   C1B74647  36.052   0.296   6.155
 5810POPC   C2B74648  35.927   0.428   6.565
 5810POPC   C3B74649  36.122   0.339   6.957
 5810POPC   C4B74650  35.975   0.128   7.322
 5811POPC   NC374651   7.533  22.591   5.474
 5811POPC   PO474652   7.430  23.213   5.292
 5811POPC   GL174653   7.452  23.040   5.756
 5811POPC   GL274654   7.166  22.804   5.851
 5811POPC   C1A74655   7.554  22.972   6.223
 5811POPC   D2A74656   7.227  23.078   6.559
 5811POPC   C3A74657   7.316  23.149   7.013
 5811POPC   C4A74658   7.655  23.179   7.347
 5811POPC   C1B74659   7.223  22.594   6.281
 5811POPC   C2B74660   7.499  22.620   6.684
 5811POPC   C3B74661   7.554  22.701   7.156
 5811POPC   C4B74662   7.671  22.710   7.607
 5812POPC   NC374663  18.182  29.023   5.366
 5812POPC   PO474664  17.661  28.940   5.483
 5812POPC   GL174665  17.924  29.140   5.835
 5812POPC   GL274666  18.297  29.041   5.889
 5812POPC   C1A74667  18.015  29.297   6.266
 5812POPC   D2A74668  17.818  29.340   6.678
 5812POPC   C3A74669  18.095  29.352   7.049
 5812POPC   C4A74670  18.464  29.397   7.326
 5812POPC   C1B74671  18.377  28.937   6.355
 5812POPC   C2B74672  18.147  28.926   6.769
 5812POPC   C3B74673  18.380  28.911   7.180
 5812POPC   C4B74674  18.858  28.949   7.206
 5813POPC   NC374675  10.806  22.111   5.026
 5813POPC   PO474676  10.549  22.405   5.589
 5813POPC   GL174677  10.647  22.271   5.954
 5813POPC   GL274678  10.639  21.920   5.854
 5813POPC   C1A74679  10.402  22.210   6.325
 5813POPC   D2A74680  10.330  22.085   6.754
 5813POPC   C3A74681  10.611  22.321   7.053
 5813POPC   C4A74682  10.593  22.358   7.487
 5813POPC   C1B74683  10.886  21.929   6.228
 5813POPC   C2B74684  10.832  22.158   6.597
 5813POPC   C3B74685  10.796  21.877   6.909
 5813POPC   C4B74686  10.575  21.842   7.264
 5814POPC   NC374687  15.482   7.165   5.693
 5814POPC   PO474688  15.506   6.509   5.445
 5814POPC   GL174689  15.184   6.708   5.703
 5814POPC   GL274690  15.426   6.738   5.950
 5814POPC   C1A74691  14.985   6.924   6.105
 5814POPC   D2A74692  15.152   7.025   6.532
 5814POPC   C3A74693  14.944   6.890   6.878
 5814POPC   C4A74694  14.958   6.587   7.182
 5814POPC   C1B74695  15.544   6.533   6.311
 5814POPC   C2B74696  15.597   6.773   6.656
 5814POPC   C3B74697  15.427   6.791   7.043
 5814POPC   C4B74698  15.452   6.505   7.331
 5815POPC   NC374699  31.568  34.879   5.355
 5815POPC   PO474700  31.288  34.291   5.471
 5815POPC   GL174701  31.463  34.357   5.847
 5815POPC   GL274702  31.576  34.678   5.827
 5815POPC   C1A74703  31.286  34.538   6.223
 5815POPC   D2A74704  31.100  34.800   6.525
 5815POPC   C3A74705  31.381  34.682   6.837
 5815POPC   C4A74706  31.369  34.536   7.211
 5815POPC   C1B74707  31.833  34.919   6.118
 5815POPC   C2B74708  31.979  34.861   6.544
 5815POPC   C3B74709  31.841  34.941   6.967
 5815POPC   C4B74710  31.709  34.873   7.384
 5816POPC   NC374711  44.572  17.734   5.623
 5816POPC   PO474712   0.040  17.279   5.520
 5816POPC   GL174713  44.916  17.487   5.906
 5816POPC   GL274714  44.873  17.830   6.033
 5816POPC   C1A74715  44.705  17.402   6.273
 5816POPC   D2A74716  44.603  17.582   6.648
 5816POPC   C3A74717  44.864  17.393   6.907
 5816POPC   C4A74718  44.698  17.099   7.218
 5816POPC   C1B74719  44.409  17.815   6.227
 5816POPC   C2B74720  44.295  18.012   6.620
 5816POPC   C3B74721  44.260  17.816   7.003
 5816POPC   C4B74722  44.593  17.606   7.262
 5817POPC   NC374723   3.940  20.762   5.376
 5817POPC   PO474724   4.487  20.448   5.527
 5817POPC   GL174725   4.232  20.654   5.817
 5817POPC   GL274726   4.100  20.964   5.811
 5817POPC   C1A74727   4.126  20.552   6.214
 5817POPC   D2A74728   4.437  20.447   6.535
 5817POPC   C3A74729   4.176  20.458   6.886
 5817POPC   C4A74730   3.967  20.507   7.269
 5817POPC   C1B74731   4.310  21.024   6.239
 5817POPC   C2B74732   4.361  20.933   6.695
 5817POPC   C3B74733   4.257  20.918   7.131
 5817POPC   C4B74734   4.281  21.023   7.585
 5818POPC   NC374735  10.122  22.591   5.413
 5818POPC   PO474736   9.586  23.153   5.461
 5818POPC   GL174737   9.513  22.985   5.874
 5818POPC   GL274738   9.393  23.265   6.010
 5818POPC   C1A74739   9.772  22.958   6.267
 5818POPC   D2A74740   9.981  23.144   6.641
 5818POPC   C3A74741   9.947  22.924   7.028
 5818POPC   C4A74742  10.244  22.654   7.219
 5818POPC   C1B74743   9.274  23.076   6.386
 5818POPC   C2B74744   9.501  22.963   6.731
 5818POPC   C3B74745   9.462  23.056   7.153
 5818POPC   C4B74746   9.387  22.763   7.433
 5819POPC   NC374747  20.852  23.518   5.080
 5819POPC   PO474748  21.242  24.052   5.286
 5819POPC   GL174749  21.353  23.759   5.613
 5819POPC   GL274750  21.172  23.984   5.833
 5819POPC   C1A74751  21.465  23.628   6.073
 5819POPC   D2A74752  21.578  23.746   6.524
 5819POPC   C3A74753  21.367  23.614   6.919
 5819POPC   C4A74754  21.450  23.725   7.353
 5819POPC   C1B74755  21.120  23.903   6.301
 5819POPC   C2B74756  20.984  23.925   6.722
 5819POPC   C3B74757  21.180  24.079   7.081
 5819POPC   C4B74758  21.141  24.066   7.548
 5820POPC   NC374759  43.197  12.351   5.233
 5820POPC   PO474760  43.323  11.751   5.426
 5820POPC   GL174761  43.187  12.029   5.739
 5820POPC   GL274762  43.507  12.038   5.851
 5820POPC   C1A74763  43.048  11.915   6.194
 5820POPC   D2A74764  42.760  12.124   6.510
 5820POPC   C3A74765  42.637  12.081   6.927
 5820POPC   C4A74766  42.832  12.152   7.310
 5820POPC   C1B74767  43.344  12.323   6.145
 5820POPC   C2B74768  43.255  12.229   6.561
 5820POPC   C3B74769  43.240  12.076   6.961
 5820POPC   C4B74770  43.299  12.335   7.285
 5821POPC   NC374771  43.997  26.507   5.414
 5821POPC   PO474772  43.332  26.793   5.407
 5821POPC   GL174773  43.660  26.804   5.706
 5821POPC   GL274774  43.608  26.460   5.770
 5821POPC   C1A74775  43.949  26.762   6.074
 5821POPC   D2A74776  43.956  27.003   6.440
 5821POPC   C3A74777  43.965  26.893   6.874
 5821POPC   C4A74778  44.064  27.127   7.239
 5821POPC   C1B74779  43.757  26.285   6.127
 5821POPC   C2B74780  43.806  26.482   6.501
 5821POPC   C3B74781  43.734  26.429   6.907
 5821POPC   C4B74782  44.101  26.471   7.160
 5822POPC   NC374783  35.596  26.514   5.439
 5822POPC   PO474784  34.957  26.869   5.456
 5822POPC   GL174785  35.238  26.689   5.755
 5822POPC   GL274786  35.100  26.356   5.831
 5822POPC   C1A74787  35.552  26.799   6.071
 5822POPC   D2A74788  35.606  26.694   6.497
 5822POPC   C3A74789  35.590  27.026   6.799
 5822POPC   C4A74790  35.448  26.895   7.190
 5822POPC   C1B74791  35.265  26.395   6.218
 5822POPC   C2B74792  35.227  26.309   6.642
 5822POPC   C3B74793  35.201  26.468   7.057
 5822POPC   C4B74794  35.063  26.569   7.470
 5823POPC   NC374795  27.994   3.576   5.394
 5823POPC   PO474796  28.616   3.844   5.282
 5823POPC   GL174797  28.576   3.697   5.723
 5823POPC   GL274798  28.380   3.385   5.741
 5823POPC   C1A74799  28.397   3.820   6.145
 5823POPC   D2A74800  28.038   3.965   6.410
 5823POPC   C3A74801  28.120   3.907   6.856
 5823POPC   C4A74802  28.435   3.729   7.128
 5823POPC   C1B74803  28.219   3.321   6.169
 5823POPC   C2B74804  28.398   3.485   6.578
 5823POPC   C3B74805  28.460   3.249   6.960
 5823POPC   C4B74806  28.366   3.334   7.424
 5824POPC   NC374807  28.202  15.767   5.386
 5824POPC   PO474808  28.731  16.117   5.276
 5824POPC   GL174809  28.483  16.061   5.709
 5824POPC   GL274810  28.691  15.853   5.834
 5824POPC   C1A74811  28.169  15.932   6.110
 5824POPC   D2A74812  28.032  15.808   6.585
 5824POPC   C3A74813  28.156  15.977   6.978
 5824POPC   C4A74814  28.364  15.946   7.374
 5824POPC   C1B74815  28.660  15.983   6.259
 5824POPC   C2B74816  28.547  15.802   6.668
 5824POPC   C3B74817  28.693  15.706   7.074
 5824POPC   C4B74818  28.885  15.945   7.419
 5825POPC   NC374819   8.742  13.652   5.494
 5825POPC   PO474820   9.404  13.459   5.409
 5825POPC   GL174821   9.183  13.549   5.804
 5825POPC   GL274822   9.118  13.890   5.799
 5825POPC   C1A74823   8.902  13.626   6.191
 5825POPC   D2A74824   8.652  13.814   6.557
 5825POPC   C3A74825   8.820  13.627   6.949
 5825POPC   C4A74826   8.729  13.234   7.120
 5825POPC   C1B74827   9.368  13.879   6.190
 5825POPC   C2B74828   9.174  13.816   6.609
 5825POPC   C3B74829   9.085  14.087   6.961
 5825POPC   C4B74830   9.425  14.244   7.212
 5826POPC   NC374831  30.805   3.937   5.385
 5826POPC   PO474832  30.660   4.648   5.431
 5826POPC   GL174833  30.771   4.548   5.825
 5826POPC   GL274834  30.826   4.213   5.801
 5826POPC   C1A74835  30.626   4.408   6.239
 5826POPC   D2A74836  30.786   4.546   6.630
 5826POPC   C3A74837  30.663   4.329   7.041
 5826POPC   C4A74838  30.400   4.165   7.412
 5826POPC   C1B74839  31.013   4.075   6.168
 5826POPC   C2B74840  30.825   4.043   6.561
 5826POPC   C3B74841  30.925   3.854   6.914
 5826POPC   C4B74842  30.761   3.832   7.292
 5827POPC   NC374843  37.150  40.924   5.489
 5827POPC   PO474844  37.150  40.277   5.536
 5827POPC   GL174845  37.046  40.633   5.883
 5827POPC   GL274846  36.753  40.864   5.814
 5827POPC   C1A74847  36.804  40.711   6.291
 5827POPC   D2A74848  37.129  40.700   6.561
 5827POPC   C3A74849  37.231  40.957   6.880
 5827POPC   C4A74850  37.202  40.760   7.263
 5827POPC   C1B74851  37.011  41.128   6.110
 5827POPC   C2B74852  36.900  41.181   6.532
 5827POPC   C3B74853  36.719  40.901   6.827
 5827POPC   C4B74854  36.791  41.046   7.203
 5828POPC   NC374855   6.004  18.333   5.455
 5828POPC   PO474856   5.598  18.788   5.712
 5828POPC   GL174857   5.640  18.342   5.832
 5828POPC   GL274858   5.463  17.983   5.847
 5828POPC   C1A74859   5.742  18.285   6.257
 5828POPC   D2A74860   5.862  18.436   6.686
 5828POPC   C3A74861   5.688  18.417   7.116
 5828POPC   C4A74862   5.883  18.329   7.507
 5828POPC   C1B74863   5.784  17.794   6.158
 5828POPC   C2B74864   5.873  17.929   6.601
 5828POPC   C3B74865   5.673  17.893   7.000
 5828POPC   C4B74866   5.462  18.038   7.381
 5829POPC   NC374867  10.712  34.261   5.209
 5829POPC   PO474868  10.736  33.705   5.621
 5829POPC   GL174869  10.446  33.800   5.897
 5829POPC   GL274870  10.390  34.144   5.864
 5829POPC   C1A74871  10.364  33.606   6.278
 5829POPC   D2A74872  10.581  33.536   6.624
 5829POPC   C3A74873  10.342  33.573   6.984
 5829POPC   C4A74874  10.646  33.495   7.291
 5829POPC   C1B74875  10.368  34.129   6.328
 5829POPC   C2B74876  10.463  34.023   6.771
 5829POPC   C3B74877  10.458  33.986   7.240
 5829POPC   C4B74878  10.562  34.016   7.698
 5830POPC   NC374879  37.163  37.726   5.531
 5830POPC   PO474880  36.688  37.753   4.988
 5830POPC   GL174881  36.656  37.644   5.534
 5830POPC   GL274882  36.878  37.403   5.791
 5830POPC   C1A74883  36.726  37.804   6.048
 5830POPC   D2A74884  36.753  37.946   6.528
 5830POPC   C3A74885  36.849  37.761   6.951
 5830POPC   C4A74886  36.805  37.928   7.347
 5830POPC   C1B74887  37.195  37.422   6.153
 5830POPC   C2B74888  37.065  37.496   6.574
 5830POPC   C3B74889  37.281  37.462   6.980
 5830POPC   C4B74890  37.107  37.527   7.423
 5831POPC   NC374891  12.198  16.157   5.565
 5831POPC   PO474892  11.690  15.663   5.558
 5831POPC   GL174893  11.892  15.880   5.879
 5831POPC   GL274894  12.209  15.747   5.875
 5831POPC   C1A74895  11.921  16.046   6.315
 5831POPC   D2A74896  12.067  16.104   6.754
 5831POPC   C3A74897  12.009  15.804   7.110
 5831POPC   C4A74898  12.149  16.099   7.409
 5831POPC   C1B74899  12.301  15.701   6.316
 5831POPC   C2B74900  12.370  15.688   6.765
 5831POPC   C3B74901  12.496  15.864   7.148
 5831POPC   C4B74902  12.439  15.720   7.605
 5832POPC   NC374903  16.925  16.583   5.408
 5832POPC   PO474904  16.518  17.007   5.542
 5832POPC   GL174905  16.783  16.885   5.874
 5832POPC   GL274906  17.124  16.804   5.896
 5832POPC   C1A74907  16.815  16.899   6.320
 5832POPC   D2A74908  16.985  16.960   6.718
 5832POPC   C3A74909  16.620  17.005   6.987
 5832POPC   C4A74910  16.219  16.770   7.037
 5832POPC   C1B74911  17.248  16.613   6.297
 5832POPC   C2B74912  17.221  16.516   6.770
 5832POPC   C3B74913  17.099  16.729   7.172
 5832POPC   C4B74914  17.096  16.729   7.637
 5833POPC   NC374915   9.333   2.199   5.306
 5833POPC   PO474916   8.943   1.661   5.454
 5833POPC   GL174917   8.920   1.967   5.795
 5833POPC   GL274918   9.240   2.152   5.793
 5833POPC   C1A74919   8.697   2.015   6.200
 5833POPC   D2A74920   8.849   2.064   6.620
 5833POPC   C3A74921   8.791   1.903   7.054
 5833POPC   C4A74922   9.009   1.704   7.423
 5833POPC   C1B74923   9.341   1.775   6.017
 5833POPC   C2B74924   9.267   1.846   6.434
 5833POPC   C3B74925   9.296   1.887   6.880
 5833POPC   C4B74926   9.235   2.160   7.234
 5834POPC   NC374927  36.602  21.774   5.590
 5834POPC   PO474928  37.050  21.541   5.104
 5834POPC   GL174929  37.025  21.390   5.593
 5834POPC   GL274930  37.034  21.661   5.850
 5834POPC   C1A74931  37.015  21.206   6.051
 5834POPC   D2A74932  37.125  21.401   6.475
 5834POPC   C3A74933  37.062  21.223   6.872
 5834POPC   C4A74934  37.062  21.406   7.281
 5834POPC   C1B74935  36.708  21.565   6.234
 5834POPC   C2B74936  36.603  21.328   6.640
 5834POPC   C3B74937  36.605  21.241   7.114
 5834POPC   C4B74938  36.402  21.267   7.508
 5835POPC   NC374939  41.188  36.332   5.468
 5835POPC   PO474940  40.533  36.091   5.325
 5835POPC   GL174941  40.639  36.126   5.767
 5835POPC   GL274942  40.809  36.487   5.798
 5835POPC   C1A74943  40.516  35.834   6.137
 5835POPC   D2A74944  40.668  35.703   6.558
 5835POPC   C3A74945  40.593  36.041   6.879
 5835POPC   C4A74946  40.790  36.161   7.255
 5835POPC   C1B74947  41.093  36.383   6.150
 5835POPC   C2B74948  40.943  36.331   6.561
 5835POPC   C3B74949  41.166  36.296   6.945
 5835POPC   C4B74950  41.211  36.453   7.380
 5836POPC   NC374951  38.298  39.143   5.277
 5836POPC   PO474952  38.863  39.142   5.565
 5836POPC   GL174953  38.566  39.167   5.890
 5836POPC   GL274954  38.219  39.180   5.777
 5836POPC   C1A74955  38.414  39.396   6.244
 5836POPC   D2A74956  38.371  39.348   6.675
 5836POPC   C3A74957  38.649  39.102   6.892
 5836POPC   C4A74958  38.805  39.014   7.276
 5836POPC   C1B74959  38.116  38.961   6.150
 5836POPC   C2B74960  38.009  39.020   6.585
 5836POPC   C3B74961  38.111  39.037   7.037
 5836POPC   C4B74962  38.353  39.269   7.284
 5837POPC   NC374963   7.830  18.624   5.573
 5837POPC   PO474964   7.264  18.335   5.423
 5837POPC   GL174965   7.391  18.331   5.815
 5837POPC   GL274966   7.645  18.128   5.830
 5837POPC   C1A74967   7.244  18.387   6.219
 5837POPC   D2A74968   7.412  18.398   6.622
 5837POPC   C3A74969   7.141  18.193   6.894
 5837POPC   C4A74970   7.234  18.283   7.288
 5837POPC   C1B74971   7.756  18.284   6.226
 5837POPC   C2B74972   7.769  18.027   6.598
 5837POPC   C3B74973   7.594  18.007   7.015
 5837POPC   C4B74974   7.614  17.975   7.479
 5838POPC   NC374975  38.476  10.134   5.035
 5838POPC   PO474976  38.136   9.691   5.441
 5838POPC   GL174977  38.165   9.489   5.797
 5838POPC   GL274978  38.428   9.759   5.894
 5838POPC   C1A74979  38.166   9.474   6.227
 5838POPC   D2A74980  38.301   9.782   6.478
 5838POPC   C3A74981  38.310   9.652   6.875
 5838POPC   C4A74982  38.190   9.378   7.207
 5838POPC   C1B74983  38.741   9.841   6.217
 5838POPC   C2B74984  38.794   9.730   6.647
 5838POPC   C3B74985  38.747   9.767   7.099
 5838POPC   C4B74986  38.451   9.751   7.420
 5839POPC   NC374987  24.314  32.371   5.261
 5839POPC   PO474988  24.850  32.723   5.245
 5839POPC   GL174989  24.700  32.411   5.622
 5839POPC   GL274990  24.484  32.113   5.681
 5839POPC   C1A74991  24.419  32.482   6.033
 5839POPC   D2A74992  24.168  32.262   6.355
 5839POPC   C3A74993  24.251  32.309   6.789
 5839POPC   C4A74994  24.323  32.648   7.072
 5839POPC   C1B74995  24.786  32.139   6.076
 5839POPC   C2B74996  24.700  32.126   6.571
 5839POPC   C3B74997  24.708  32.232   7.056
 5839POPC   C4B74998  24.675  31.974   7.472
 5840POPC   NC374999  33.448   9.248   5.576
 5840POPC   PO475000  33.838   8.702   5.408
 5840POPC   GL175001  33.829   8.957   5.758
 5840POPC   GL275002  33.557   8.887   5.985
 5840POPC   C1A75003  34.024   8.910   6.167
 5840POPC   D2A75004  33.766   8.927   6.519
 5840POPC   C3A75005  33.999   8.918   6.888
 5840POPC   C4A75006  33.865   8.809   7.293
 5840POPC   C1B75007  33.355   9.190   6.245
 5840POPC   C2B75008  33.504   9.370   6.605
 5840POPC   C3B75009  33.566   9.186   6.988
 5840POPC   C4B75010  33.610   9.234   7.408
 5841POPC   NC375011  28.938  31.098   5.328
 5841POPC   PO475012  29.251  31.648   5.470
 5841POPC   GL175013  29.218  31.326   5.744
 5841POPC   GL275014  29.576  31.215   5.762
 5841POPC   C1A75015  29.051  31.372   6.138
 5841POPC   D2A75016  29.142  31.550   6.501
 5841POPC   C3A75017  28.953  31.389   6.826
 5841POPC   C4A75018  28.955  31.586   7.186
 5841POPC   C1B75019  29.534  31.281   6.214
 5841POPC   C2B75020  29.547  31.262   6.655
 5841POPC   C3B75021  29.415  31.417   7.033
 5841POPC   C4B75022  29.597  31.718   7.327
 5842POPC   NC375023   6.871  14.723   5.619
 5842POPC   PO475024   6.738  15.125   5.126
 5842POPC   GL175025   6.759  15.234   5.628
 5842POPC   GL275026   6.479  15.363   5.817
 5842POPC   C1A75027   6.858  15.165   6.118
 5842POPC   D2A75028   6.748  15.164   6.582
 5842POPC   C3A75029   6.928  14.962   6.957
 5842POPC   C4A75030   6.841  15.118   7.364
 5842POPC   C1B75031   6.338  15.149   6.208
 5842POPC   C2B75032   6.290  14.920   6.602
 5842POPC   C3B75033   6.404  14.983   7.048
 5842POPC   C4B75034   6.202  14.834   7.435
 5843POPC   NC375035  42.025  21.625   5.535
 5843POPC   PO475036  42.301  22.301   5.530
 5843POPC   GL175037  42.338  22.117   5.917
 5843POPC   GL275038  42.558  21.825   5.996
 5843POPC   C1A75039  42.248  22.366   6.278
 5843POPC   D2A75040  42.105  22.558   6.646
 5843POPC   C3A75041  42.198  22.328   7.015
 5843POPC   C4A75042  42.372  22.066   7.275
 5843POPC   C1B75043  42.342  21.876   6.362
 5843POPC   C2B75044  42.226  21.864   6.774
 5843POPC   C3B75045  42.111  21.662   7.154
 5843POPC   C4B75046  42.098  21.765   7.605
 5844POPC   NC375047  24.602  16.954   5.622
 5844POPC   PO475048  24.675  16.281   5.777
 5844POPC   GL175049  24.605  16.645   6.031
 5844POPC   GL275050  24.275  16.693   6.044
 5844POPC   C1A75051  24.803  16.951   6.330
 5844POPC   D2A75052  24.832  17.039   6.785
 5844POPC   C3A75053  24.532  16.810   7.042
 5844POPC   C4A75054  24.760  16.630   7.369
 5844POPC   C1B75055  24.331  17.088   6.213
 5844POPC   C2B75056  24.367  17.157   6.636
 5844POPC   C3B75057  24.119  17.123   7.010
 5844POPC   C4B75058  24.127  17.029   7.476
 5845POPC   NC375059  21.018  11.643   5.428
 5845POPC   PO475060  20.323  11.519   5.331
 5845POPC   GL175061  20.438  11.498   5.781
 5845POPC   GL275062  20.745  11.681   5.870
 5845POPC   C1A75063  20.504  11.331   6.212
 5845POPC   D2A75064  20.744  11.230   6.601
 5845POPC   C3A75065  20.477  11.184   6.981
 5845POPC   C4A75066  20.330  10.817   7.235
 5845POPC   C1B75067  20.943  11.587   6.277
 5845POPC   C2B75068  21.062  11.631   6.710
 5845POPC   C3B75069  20.945  11.398   7.087
 5845POPC   C4B75070  20.756  11.073   7.401
 5846POPC   NC375071  31.349  19.576   5.440
 5846POPC   PO475072  31.437  20.226   5.368
 5846POPC   GL175073  31.406  19.998   5.734
 5846POPC   GL275074  31.086  19.815   5.860
 5846POPC   C1A75075  31.579  19.789   6.074
 5846POPC   D2A75076  31.423  19.720   6.471
 5846POPC   C3A75077  31.588  19.899   6.849
 5846POPC   C4A75078  31.735  19.910   7.254
 5846POPC   C1B75079  31.166  19.425   6.136
 5846POPC   C2B75080  31.192  19.291   6.600
 5846POPC   C3B75081  31.127  19.650   6.870
 5846POPC   C4B75082  31.252  19.822   7.242
 5847POPC   NC375083  35.741   5.449   5.336
 5847POPC   PO475084  36.291   5.162   5.531
 5847POPC   GL175085  35.879   5.147   5.767
 5847POPC   GL275086  36.022   4.875   5.982
 5847POPC   C1A75087  35.648   5.148   6.181
 5847POPC   D2A75088  35.833   4.961   6.549
 5847POPC   C3A75089  35.916   4.988   6.991
 5847POPC   C4A75090  36.361   4.916   7.078
 5847POPC   C1B75091  36.176   5.225   6.236
 5847POPC   C2B75092  36.221   5.335   6.675
 5847POPC   C3B75093  36.147   5.474   7.088
 5847POPC   C4B75094  36.285   5.290   7.456
 5848POPC   NC375095  29.588  42.857   5.390
 5848POPC   PO475096  29.150  42.376   5.342
 5848POPC   GL175097  29.048  42.243   5.776
 5848POPC   GL275098  28.697  42.321   5.787
 5848POPC   C1A75099  29.186  42.221   6.231
 5848POPC   D2A75100  29.133  42.305   6.680
 5848POPC   C3A75101  29.343  42.380   7.097
 5848POPC   C4A75102  29.403  42.229   7.544
 5848POPC   C1B75103  28.741  42.474   6.223
 5848POPC   C2B75104  28.618  42.261   6.590
 5848POPC   C3B75105  28.739  42.313   6.993
 5848POPC   C4B75106  28.921  42.286   7.384
 5849POPC   NC375107  34.285  29.729   5.125
 5849POPC   PO475108  34.705  30.184   5.414
 5849POPC   GL175109  34.690  30.084   5.844
 5849POPC   GL275110  34.495  29.757   5.827
 5849POPC   C1A75111  34.469  30.066   6.244
 5849POPC   D2A75112  34.363  30.250   6.643
 5849POPC   C3A75113  34.626  30.162   6.994
 5849POPC   C4A75114  34.407  30.083   7.377
 5849POPC   C1B75115  34.503  29.534   6.228
 5849POPC   C2B75116  34.603  29.541   6.664
 5849POPC   C3B75117  34.359  29.727   6.985
 5849POPC   C4B75118  34.176  29.400   7.208
 5850POPC   NC375119  28.202   5.949   5.565
 5850POPC   PO475120  28.713   5.542   5.282
 5850POPC   GL175121  28.587   5.639   5.686
 5850POPC   GL275122  28.695   5.984   5.708
 5850POPC   C1A75123  28.534   5.575   6.116
 5850POPC   D2A75124  28.464   5.719   6.530
 5850POPC   C3A75125  28.209   5.557   6.861
 5850POPC   C4A75126  28.397   5.725   7.253
 5850POPC   C1B75127  28.578   6.093   6.145
 5850POPC   C2B75128  28.246   6.174   6.443
 5850POPC   C3B75129  28.241   6.074   6.891
 5850POPC   C4B75130  28.257   6.231   7.288
 5851POPC   NC375131  29.258  23.342   5.530
 5851POPC   PO475132  29.439  23.970   5.678
 5851POPC   GL175133  29.086  23.732   5.856
 5851POPC   GL275134  28.817  23.932   5.902
 5851POPC   C1A75135  29.058  23.646   6.278
 5851POPC   D2A75136  29.368  23.704   6.570
 5851POPC   C3A75137  29.194  23.574   6.932
 5851POPC   C4A75138  29.177  23.612   7.354
 5851POPC   C1B75139  28.847  24.120   6.277
 5851POPC   C2B75140  28.918  23.978   6.690
 5851POPC   C3B75141  29.021  24.057   7.095
 5851POPC   C4B75142  28.843  24.227   7.419
 5852POPC   NC375143  10.695  26.519   5.176
 5852POPC   PO475144  10.639  27.199   5.245
 5852POPC   GL175145  10.572  26.755   5.592
 5852POPC   GL275146  10.856  26.553   5.755
 5852POPC   C1A75147  10.456  26.682   6.064
 5852POPC   D2A75148  10.347  26.922   6.471
 5852POPC   C3A75149  10.436  26.740   6.880
 5852POPC   C4A75150  10.354  26.754   7.337
 5852POPC   C1B75151  11.009  26.659   6.201
 5852POPC   C2B75152  10.912  26.682   6.668
 5852POPC   C3B75153  10.884  26.685   7.120
 5852POPC   C4B75154  10.847  26.751   7.551
 5853POPC   NC375155  16.153   0.156   5.443
 5853POPC   PO475156  15.730   0.557   5.404
 5853POPC   GL175157  15.982   0.614   5.789
 5853POPC   GL275158  15.694   0.804   5.900
 5853POPC   C1A75159  16.206   0.673   6.213
 5853POPC   D2A75160  16.107   0.734   6.671
 5853POPC   C3A75161  16.161   0.368   6.996
 5853POPC   C4A75162  15.933   0.071   7.285
 5853POPC   C1B75163  15.700   0.670   6.337
 5853POPC   C2B75164  15.607   0.724   6.785
 5853POPC   C3B75165  15.700   0.540   7.190
 5853POPC   C4B75166  15.546   0.299   7.567
 5854POPC   NC375167  26.515   2.008   5.577
 5854POPC   PO475168  26.992   2.316   5.187
 5854POPC   GL175169  27.031   2.165   5.619
 5854POPC   GL275170  26.922   2.426   5.864
 5854POPC   C1A75171  27.102   1.992   6.049
 5854POPC   D2A75172  27.129   2.192   6.484
 5854POPC   C3A75173  26.862   2.052   6.822
 5854POPC   C4A75174  26.937   1.748   7.168
 5854POPC   C1B75175  26.678   2.250   6.188
 5854POPC   C2B75176  26.571   2.391   6.559
 5854POPC   C3B75177  26.381   2.305   6.954
 5854POPC   C4B75178  26.489   1.951   7.210
 5855POPC   NC375179   8.322  33.416   5.593
 5855POPC   PO475180   7.966  33.773   5.154
 5855POPC   GL175181   8.082  33.865   5.617
 5855POPC   GL275182   8.374  34.057   5.766
 5855POPC   C1A75183   8.009  33.741   6.070
 5855POPC   D2A75184   8.214  33.605   6.484
 5855POPC   C3A75185   8.248  33.865   6.832
 5855POPC   C4A75186   8.142  33.811   7.254
 5855POPC   C1B75187   8.466  33.938   6.197
 5855POPC   C2B75188   8.722  33.880   6.578
 5855POPC   C3B75189   8.712  34.204   6.870
 5855POPC   C4B75190   8.388  34.253   7.187
 5856POPC   NC375191   9.366   3.631   5.514
 5856POPC   PO475192  10.007   3.544   5.365
 5856POPC   GL175193   9.848   3.672   5.777
 5856POPC   GL275194   9.648   3.394   5.874
 5856POPC   C1A75195   9.970   3.609   6.235
 5856POPC   D2A75196  10.188   3.529   6.641
 5856POPC   C3A75197   9.951   3.439   7.008
 5856POPC   C4A75198   9.695   3.759   7.202
 5856POPC   C1B75199   9.454   3.557   6.240
 5856POPC   C2B75200   9.597   3.579   6.668
 5856POPC   C3B75201   9.423   3.381   7.040
 5856POPC   C4B75202   9.498   3.355   7.531
 5857POPC   NC375203   4.163  38.897   5.550
 5857POPC   PO475204   3.556  39.071   5.299
 5857POPC   GL175205   3.572  39.150   5.761
 5857POPC   GL275206   3.892  39.221   5.898
 5857POPC   C1A75207   3.274  39.211   6.116
 5857POPC   D2A75208   3.243  39.506   6.488
 5857POPC   C3A75209   3.323  39.321   6.875
 5857POPC   C4A75210   3.366  39.091   7.267
 5857POPC   C1B75211   3.703  39.452   6.240
 5857POPC   C2B75212   3.804  39.452   6.710
 5857POPC   C3B75213   3.854  39.409   7.151
 5857POPC   C4B75214   3.914  39.029   7.343
 5858POPC   NC375215  26.676  40.315   5.401
 5858POPC   PO475216  26.604  39.677   5.365
 5858POPC   GL175217  26.611  39.845   5.770
 5858POPC   GL275218  26.952  39.750   5.770
 5858POPC   C1A75219  26.783  40.076   6.162
 5858POPC   D2A75220  27.014  40.050   6.552
 5858POPC   C3A75221  26.783  40.156   6.908
 5858POPC   C4A75222  26.436  40.022   7.100
 5858POPC   C1B75223  26.864  39.575   6.189
 5858POPC   C2B75224  26.994  39.550   6.641
 5858POPC   C3B75225  26.803  39.636   7.028
 5858POPC   C4B75226  26.936  39.730   7.433
 5859POPC   NC375227  34.198   9.495   5.191
 5859POPC   PO475228  33.591   9.670   5.428
 5859POPC   GL175229  33.859   9.926   5.663
 5859POPC   GL275230  34.052   9.644   5.769
 5859POPC   C1A75231  33.721  10.021   6.072
 5859POPC   D2A75232  33.772   9.811   6.458
 5859POPC   C3A75233  33.878   9.992   6.845
 5859POPC   C4A75234  33.661   9.819   7.194
 5859POPC   C1B75235  33.863   9.405   6.141
 5859POPC   C2B75236  34.024   9.380   6.583
 5859POPC   C3B75237  34.004   9.480   7.015
 5859POPC   C4B75238  34.009   9.533   7.462
 5860POPC   NC375239  41.406  34.770   5.423
 5860POPC   PO475240  41.732  34.281   5.117
 5860POPC   GL175241  41.746  34.240   5.667
 5860POPC   GL275242  41.737  34.617   5.768
 5860POPC   C1A75243  41.769  34.344   6.178
 5860POPC   D2A75244  41.508  34.521   6.533
 5860POPC   C3A75245  41.641  34.651   6.958
 5860POPC   C4A75246  41.477  34.385   7.234
 5860POPC   C1B75247  41.771  34.876   6.176
 5860POPC   C2B75248  41.581  35.028   6.592
 5860POPC   C3B75249  41.214  34.922   6.846
 5860POPC   C4B75250  41.157  34.765   7.245
 5861POPC   NC375251  38.087  11.825   5.373
 5861POPC   PO475252  37.384  12.061   5.431
 5861POPC   GL175253  37.765  12.064   5.697
 5861POPC   GL275254  37.808  11.706   5.794
 5861POPC   C1A75255  37.907  12.261   6.089
 5861POPC   D2A75256  37.637  12.376   6.437
 5861POPC   C3A75257  37.657  12.056   6.701
 5861POPC   C4A75258  37.817  12.057   7.070
 5861POPC   C1B75259  37.584  11.857   6.176
 5861POPC   C2B75260  37.263  11.812   6.504
 5861POPC   C3B75261  37.274  11.862   6.992
 5861POPC   C4B75262  37.409  11.650   7.368
 5862POPC   NC375263  16.594   8.180   5.335
 5862POPC   PO475264  16.415   8.578   5.771
 5862POPC   GL175265  16.726   8.359   5.997
 5862POPC   GL275266  16.427   8.176   6.112
 5862POPC   C1A75267  16.797   8.214   6.436
 5862POPC   D2A75268  16.509   8.202   6.790
 5862POPC   C3A75269  16.735   8.072   7.139
 5862POPC   C4A75270  17.011   8.279   7.427
 5862POPC   C1B75271  16.420   8.566   6.398
 5862POPC   C2B75272  16.376   8.704   6.796
 5862POPC   C3B75273  16.571   8.564   7.180
 5862POPC   C4B75274  16.493   8.610   7.628
 5863POPC   NC375275   6.989  15.514   5.271
 5863POPC   PO475276   7.340  14.926   5.504
 5863POPC   GL175277   7.444  15.197   5.838
 5863POPC   GL275278   7.401  15.521   5.708
 5863POPC   C1A75279   7.590  15.121   6.251
 5863POPC   D2A75280   7.310  15.080   6.624
 5863POPC   C3A75281   7.461  14.981   7.060
 5863POPC   C4A75282   7.385  14.935   7.518
 5863POPC   C1B75283   7.209  15.541   6.142
 5863POPC   C2B75284   7.019  15.600   6.576
 5863POPC   C3B75285   6.949  15.538   7.035
 5863POPC   C4B75286   7.258  15.432   7.372
 5864POPC   NC375287  11.897  19.393   5.379
 5864POPC   PO475288  12.377  18.963   5.510
 5864POPC   GL175289  12.241  19.257   5.777
 5864POPC   GL275290  11.879  19.149   5.823
 5864POPC   C1A75291  12.243  19.097   6.187
 5864POPC   D2A75292  12.184  18.774   6.487
 5864POPC   C3A75293  12.130  19.001   6.873
 5864POPC   C4A75294  12.008  18.859   7.273
 5864POPC   C1B75295  11.770  19.339   6.221
 5864POPC   C2B75296  11.697  19.384   6.670
 5864POPC   C3B75297  11.855  19.368   7.102
 5864POPC   C4B75298  11.677  19.186   7.472
 5865POPC   NC375299  29.116  12.428   5.494
 5865POPC   PO475300  29.263  11.850   5.126
 5865POPC   GL175301  29.240  11.829   5.648
 5865POPC   GL275302  28.932  11.676   5.841
 5865POPC   C1A75303  29.290  11.947   6.083
 5865POPC   D2A75304  28.968  12.113   6.362
 5865POPC   C3A75305  29.015  12.173   6.800
 5865POPC   C4A75306  29.139  12.180   7.240
 5865POPC   C1B75307  28.729  11.608   6.241
 5865POPC   C2B75308  28.789  11.716   6.674
 5865POPC   C3B75309  29.089  11.727   7.028
 5865POPC   C4B75310  29.019  11.630   7.462
 5866POPC   NC375311   6.483  29.960   5.474
 5866POPC   PO475312   5.983  30.392   5.529
 5866POPC   GL175313   6.265  30.157   5.882
 5866POPC   GL275314   6.319  29.755   5.898
 5866POPC   C1A75315   6.440  30.041   6.312
 5866POPC   D2A75316   6.409  30.089   6.781
 5866POPC   C3A75317   6.748  29.929   6.997
 5866POPC   C4A75318   6.980  30.147   7.279
 5866POPC   C1B75319   6.392  29.525   6.263
 5866POPC   C2B75320   6.501  29.516   6.698
 5866POPC   C3B75321   6.295  29.646   7.053
 5866POPC   C4B75322   6.366  29.991   7.332
 5867POPC   NC375323  32.942   2.392   5.364
 5867POPC   PO475324  32.596   2.992   5.451
 5867POPC   GL175325  32.856   2.968   5.790
 5867POPC   GL275326  33.132   2.772   5.680
 5867POPC   C1A75327  33.078   2.956   6.189
 5867POPC   D2A75328  32.979   2.771   6.605
 5867POPC   C3A75329  33.112   2.947   7.021
 5867POPC   C4A75330  33.171   2.974   7.480
 5867POPC   C1B75331  33.249   2.477   6.010
 5867POPC   C2B75332  33.303   2.417   6.453
 5867POPC   C3B75333  33.228   2.445   6.898
 5867POPC   C4B75334  33.326   2.480   7.309
 5868POPC   NC375335  22.980   9.777   5.321
 5868POPC   PO475336  22.638  10.045   5.509
 5868POPC   GL175337  22.821   9.857   5.911
 5868POPC   GL275338  22.587   9.626   6.064
 5868POPC   C1A75339  22.970   9.899   6.379
 5868POPC   D2A75340  23.162  10.135   6.725
 5868POPC   C3A75341  23.053  10.148   7.174
 5868POPC   C4A75342  23.059  10.032   7.633
 5868POPC   C1B75343  22.617   9.546   6.520
 5868POPC   C2B75344  22.912   9.691   6.864
 5868POPC   C3B75345  23.120   9.649   7.292
 5868POPC   C4B75346  22.922   9.465   7.646
 5869POPC   NC375347  21.569   2.692   5.375
 5869POPC   PO475348  21.237   3.231   5.516
 5869POPC   GL175349  21.299   2.931   5.811
 5869POPC   GL275350  21.654   3.008   5.783
 5869POPC   C1A75351  21.138   3.006   6.242
 5869POPC   D2A75352  21.302   2.950   6.667
 5869POPC   C3A75353  21.156   2.732   7.046
 5869POPC   C4A75354  21.435   2.816   7.399
 5869POPC   C1B75355  21.656   3.019   6.228
 5869POPC   C2B75356  21.765   2.756   6.591
 5869POPC   C3B75357  21.662   2.613   6.977
 5869POPC   C4B75358  21.854   2.524   7.345
 5870POPC   NC375359  30.201  30.163   5.369
 5870POPC   PO475360  30.091  29.497   5.280
 5870POPC   GL175361  30.061  29.729   5.705
 5870POPC   GL275362  29.873  30.053   5.757
 5870POPC   C1A75363  29.932  29.775   6.164
 5870POPC   D2A75364  30.106  29.756   6.563
 5870POPC   C3A75365  30.021  30.042   6.887
 5870POPC   C4A75366  29.938  29.922   7.294
 5870POPC   C1B75367  29.764  30.273   6.140
 5870POPC   C2B75368  29.644  30.161   6.553
 5870POPC   C3B75369  29.518  30.171   6.971
 5870POPC   C4B75370  29.749  30.391   7.244
 5871POPC   NC375371  40.327  27.903   5.435
 5871POPC   PO475372  39.895  27.330   5.570
 5871POPC   GL175373  39.947  27.572   5.918
 5871POPC   GL275374  40.274  27.719   5.919
 5871POPC   C1A75375  39.966  27.686   6.321
 5871POPC   D2A75376  40.305  27.693   6.586
 5871POPC   C3A75377  40.098  27.889   6.889
 5871POPC   C4A75378  39.674  27.823   7.017
 5871POPC   C1B75379  40.321  27.312   6.180
 5871POPC   C2B75380  40.372  27.169   6.611
 5871POPC   C3B75381  40.391  27.373   7.012
 5871POPC   C4B75382  40.193  27.632   7.323
 5872POPC   NC375383  16.743  26.936   5.393
 5872POPC   PO475384  16.958  26.497   5.734
 5872POPC   GL175385  16.804  26.875   5.934
 5872POPC   GL275386  16.478  26.958   5.888
 5872POPC   C1A75387  16.687  27.116   6.328
 5872POPC   D2A75388  16.452  26.995   6.691
 5872POPC   C3A75389  16.707  26.721   6.977
 5872POPC   C4A75390  16.907  26.795   7.368
 5872POPC   C1B75391  16.285  26.734   6.252
 5872POPC   C2B75392  16.053  26.641   6.647
 5872POPC   C3B75393  16.190  26.761   7.063
 5872POPC   C4B75394  16.459  27.095   7.217
 5873POPC   NC375395  24.416  25.139   5.464
 5873POPC   PO475396  24.964  24.775   5.635
 5873POPC   GL175397  24.610  24.993   5.916
 5873POPC   GL275398  24.446  25.342   5.914
 5873POPC   C1A75399  24.387  25.023   6.330
 5873POPC   D2A75400  24.128  25.167   6.671
 5873POPC   C3A75401  24.369  25.115   7.048
 5873POPC   C4A75402  24.306  24.902   7.467
 5873POPC   C1B75403  24.585  25.537   6.254
 5873POPC   C2B75404  24.531  25.486   6.670
 5873POPC   C3B75405  24.469  25.644   7.052
 5873POPC   C4B75406  24.753  25.414   7.251
 5874POPC   NC375407  23.464  17.625   5.303
 5874POPC   PO475408  23.871  17.176   5.182
 5874POPC   GL175409  23.853  17.425   5.604
 5874POPC   GL275410  23.525  17.438   5.778
 5874POPC   C1A75411  23.933  17.537   6.078
 5874POPC   D2A75412  24.155  17.599   6.475
 5874POPC   C3A75413  24.004  17.767   6.872
 5874POPC   C4A75414  24.031  17.551   7.287
 5874POPC   C1B75415  23.482  17.307   6.205
 5874POPC   C2B75416  23.628  17.561   6.556
 5874POPC   C3B75417  23.558  17.581   7.009
 5874POPC   C4B75418  23.387  17.866   7.297
 5875POPC   NC375419  10.237   6.464   5.646
 5875POPC   PO475420  10.514   6.910   5.202
 5875POPC   GL175421  10.426   6.982   5.652
 5875POPC   GL275422  10.751   6.953   5.862
 5875POPC   C1A75423  10.314   6.936   6.096
 5875POPC   D2A75424  10.560   6.846   6.426
 5875POPC   C3A75425  10.471   6.878   6.861
 5875POPC   C4A75426  10.321   6.795   7.261
 5875POPC   C1B75427  10.791   6.522   6.130
 5875POPC   C2B75428  10.679   6.362   6.587
 5875POPC   C3B75429  10.536   6.373   7.047
 5875POPC   C4B75430  10.688   6.525   7.478
 5876POPC   NC375431  15.353  19.740   5.449
 5876POPC   PO475432  14.888  20.165   5.364
 5876POPC   GL175433  14.938  20.086   5.799
 5876POPC   GL275434  15.291  19.994   5.909
 5876POPC   C1A75435  14.870  19.984   6.236
 5876POPC   D2A75436  15.114  20.038   6.635
 5876POPC   C3A75437  14.882  20.035   7.060
 5876POPC   C4A75438  14.756  20.130   7.489
 5876POPC   C1B75439  15.287  19.644   6.185
 5876POPC   C2B75440  15.393  19.584   6.607
 5876POPC   C3B75441  15.138  19.609   6.972
 5876POPC   C4B75442  15.324  19.485   7.333
 5877POPC   NC375443  25.917   6.173   5.360
 5877POPC   PO475444  26.133   6.876   5.498
 5877POPC   GL175445  26.089   6.650   5.880
 5877POPC   GL275446  25.831   6.381   5.828
 5877POPC   C1A75447  26.054   6.860   6.279
 5877POPC   D2A75448  26.133   7.030   6.696
 5877POPC   C3A75449  26.093   6.832   7.125
 5877POPC   C4A75450  26.087   7.033   7.522
 5877POPC   C1B75451  25.841   6.396   6.266
 5877POPC   C2B75452  25.733   6.336   6.674
 5877POPC   C3B75453  25.627   6.581   7.013
 5877POPC   C4B75454  25.837   6.360   7.322
 5878POPC   NC375455   0.105   9.102   5.416
 5878POPC   PO475456   0.685   9.174   5.232
 5878POPC   GL175457   0.515   9.068   5.715
 5878POPC   GL275458   0.228   8.809   5.826
 5878POPC   C1A75459   0.372   9.204   6.159
 5878POPC   D2A75460   0.172   9.147   6.637
 5878POPC   C3A75461   0.452   9.053   7.035
 5878POPC   C4A75462   0.520   9.060   7.513
 5878POPC   C1B75463   0.098   8.794   6.281
 5878POPC   C2B75464   0.208   8.630   6.714
 5878POPC   C3B75465   0.048   8.744   7.127
 5878POPC   C4B75466   0.126   8.709   7.631
 5879POPC   NC375467  29.160   2.406   5.315
 5879POPC   PO475468  28.956   2.972   5.387
 5879POPC   GL175469  29.023   2.751   5.781
 5879POPC   GL275470  28.870   2.438   5.803
 5879POPC   C1A75471  29.018   2.927   6.203
 5879POPC   D2A75472  29.349   3.038   6.491
 5879POPC   C3A75473  29.316   2.772   6.855
 5879POPC   C4A75474  29.209   2.959   7.263
 5879POPC   C1B75475  28.686   2.512   6.237
 5879POPC   C2B75476  28.900   2.506   6.657
 5879POPC   C3B75477  28.946   2.539   7.148
 5879POPC   C4B75478  28.798   2.594   7.608
 5880POPC   NC375479  41.767   1.213   5.327
 5880POPC   PO475480  41.396   0.782   5.497
 5880POPC   GL175481  41.646   0.959   5.807
 5880POPC   GL275482  41.935   1.210   5.838
 5880POPC   C1A75483  41.575   1.143   6.205
 5880POPC   D2A75484  41.411   1.036   6.617
 5880POPC   C3A75485  41.528   1.330   6.904
 5880POPC   C4A75486  41.479   1.180   7.291
 5880POPC   C1B75487  42.042   1.389   6.278
 5880POPC   C2B75488  42.010   1.402   6.752
 5880POPC   C3B75489  41.952   1.450   7.194
 5880POPC   C4B75490  41.811   1.331   7.616
 5881POPC   NC375491  12.713  18.625   5.435
 5881POPC   PO475492  13.155  18.177   5.220
 5881POPC   GL175493  12.874  18.184   5.650
 5881POPC   GL275494  12.718  17.853   5.708
 5881POPC   C1A75495  12.733  18.277   6.107
 5881POPC   D2A75496  12.621  18.471   6.540
 5881POPC   C3A75497  12.894  18.399   6.930
 5881POPC   C4A75498  13.017  18.406   7.388
 5881POPC   C1B75499  12.504  17.794   6.062
 5881POPC   C2B75500  12.514  17.917   6.475
 5881POPC   C3B75501  12.495  18.081   6.862
 5881POPC   C4B75502  12.714  18.029   7.243
 5882POPC   NC375503  30.613  17.296   5.375
 5882POPC   PO475504  30.800  17.887   5.347
 5882POPC   GL175505  30.766  17.676   5.737
 5882POPC   GL275506  30.401  17.681   5.709
 5882POPC   C1A75507  30.748  17.612   6.196
 5882POPC   D2A75508  30.875  17.702   6.635
 5882POPC   C3A75509  30.837  17.334   6.901
 5882POPC   C4A75510  30.733  17.314   7.332
 5882POPC   C1B75511  30.227  17.751   6.120
 5882POPC   C2B75512  30.214  17.617   6.560
 5882POPC   C3B75513  30.370  17.533   6.978
 5882POPC   C4B75514  30.350  17.758   7.371
 5883POPC   NC375515   2.521  36.667   5.529
 5883POPC   PO475516   2.735  37.290   5.555
 5883POPC   GL175517   2.570  37.059   5.876
 5883POPC   GL275518   2.883  36.840   5.881
 5883POPC   C1A75519   2.608  36.931   6.306
 5883POPC   D2A75520   2.370  36.839   6.683
 5883POPC   C3A75521   2.642  36.973   7.036
 5883POPC   C4A75522   2.764  36.833   7.427
 5883POPC   C1B75523   2.976  36.584   6.272
 5883POPC   C2B75524   2.848  36.666   6.689
 5883POPC   C3B75525   3.141  36.870   7.060
 5883POPC   C4B75526   3.258  36.838   7.524
 5884POPC   NC375527  27.345  16.250   5.481
 5884POPC   PO475528  27.761  15.689   5.291
 5884POPC   GL175529  27.743  15.841   5.765
 5884POPC   GL275530  27.410  15.976   5.887
 5884POPC   C1A75531  27.680  15.807   6.250
 5884POPC   D2A75532  27.493  15.862   6.673
 5884POPC   C3A75533  27.644  16.096   7.051
 5884POPC   C4A75534  27.535  16.355   7.414
 5884POPC   C1B75535  27.308  16.173   6.283
 5884POPC   C2B75536  27.068  16.123   6.676
 5884POPC   C3B75537  27.110  16.168   7.126
 5884POPC   C4B75538  27.137  16.090   7.584
 5885POPC   NC375539  44.449  32.747   5.540
 5885POPC   PO475540  44.682  32.114   5.325
 5885POPC   GL175541  44.750  32.087   5.747
 5885POPC   GL275542  44.557  32.362   5.854
 5885POPC   C1A75543  44.791  32.060   6.205
 5885POPC   D2A75544  44.917  32.276   6.599
 5885POPC   C3A75545  44.995  32.269   7.040
 5885POPC   C4A75546  44.893  32.175   7.486
 5885POPC   C1B75547  44.526  32.483   6.289
 5885POPC   C2B75548  44.401  32.224   6.615
 5885POPC   C3B75549  44.510  32.169   7.028
 5885POPC   C4B75550  44.408  32.038   7.410
 5886POPC   NC375551  39.156  36.501   5.496
 5886POPC   PO475552  39.204  37.197   5.356
 5886POPC   GL175553  39.268  37.021   5.781
 5886POPC   GL275554  39.489  36.726   5.804
 5886POPC   C1A75555  39.266  36.954   6.235
 5886POPC   D2A75556  39.199  37.128   6.639
 5886POPC   C3A75557  39.124  36.873   7.009
 5886POPC   C4A75558  38.911  36.988   7.386
 5886POPC   C1B75559  39.598  36.558   6.215
 5886POPC   C2B75560  39.342  36.604   6.603
 5886POPC   C3B75561  39.568  36.634   6.967
 5886POPC   C4B75562  39.710  36.470   7.320
 5887POPC   NC375563  41.587  17.026   4.982
 5887POPC   PO475564  41.346  16.662   5.313
 5887POPC   GL175565  41.399  16.695   5.788
 5887POPC   GL275566  41.663  16.928   5.884
 5887POPC   C1A75567  41.380  16.544   6.256
 5887POPC   D2A75568  41.678  16.306   6.556
 5887POPC   C3A75569  41.581  16.452   6.989
 5887POPC   C4A75570  41.203  16.593   7.174
 5887POPC   C1B75571  41.858  16.696   6.231
 5887POPC   C2B75572  41.805  16.792   6.678
 5887POPC   C3B75573  41.629  16.959   7.088
 5887POPC   C4B75574  41.786  17.188   7.471
 5888POPC   NC375575  22.715  39.962   5.522
 5888POPC   PO475576  23.202  39.549   5.575
 5888POPC   GL175577  22.987  39.741   5.919
 5888POPC   GL275578  23.029  40.139   5.910
 5888POPC   C1A75579  22.892  39.884   6.322
 5888POPC   D2A75580  22.943  40.112   6.679
 5888POPC   C3A75581  22.929  39.897   7.027
 5888POPC   C4A75582  22.861  39.855   7.442
 5888POPC   C1B75583  23.080  40.420   6.293
 5888POPC   C2B75584  23.188  40.553   6.734
 5888POPC   C3B75585  23.090  40.360   7.152
 5888POPC   C4B75586  23.071  40.282   7.607
 5889POPC   NC375587   2.500  27.008   5.586
 5889POPC   PO475588   2.028  26.606   5.367
 5889POPC   GL175589   2.040  26.832   5.773
 5889POPC   GL275590   2.268  26.617   5.919
 5889POPC   C1A75591   1.816  27.001   6.159
 5889POPC   D2A75592   1.493  26.988   6.530
 5889POPC   C3A75593   1.749  26.985   6.929
 5889POPC   C4A75594   1.933  26.645   7.117
 5889POPC   C1B75595   2.369  26.419   6.317
 5889POPC   C2B75596   2.302  26.548   6.768
 5889POPC   C3B75597   2.406  26.820   7.150
 5889POPC   C4B75598   2.436  27.271   7.205
 5890POPC   NC375599  14.665   9.708   5.599
 5890POPC   PO475600  14.225  10.190   5.515
 5890POPC   GL175601  14.308   9.924   5.877
 5890POPC   GL275602  14.176   9.547   5.811
 5890POPC   C1A75603  14.556   9.851   6.241
 5890POPC   D2A75604  14.481   9.757   6.665
 5890POPC   C3A75605  14.512   9.968   7.109
 5890POPC   C4A75606  14.651   9.879   7.582
 5890POPC   C1B75607  14.317   9.398   6.239
 5890POPC   C2B75608  14.579   9.232   6.589
 5890POPC   C3B75609  14.663   9.436   7.000
 5890POPC   C4B75610  14.359   9.522   7.325
 5891POPC   NC375611   5.814  22.508   5.114
 5891POPC   PO475612   5.738  21.896   5.430
 5891POPC   GL175613   5.812  22.040   5.833
 5891POPC   GL275614   5.807  21.688   5.929
 5891POPC   C1A75615   5.839  22.365   6.131
 5891POPC   D2A75616   5.951  22.353   6.545
 5891POPC   C3A75617   5.693  22.378   6.897
 5891POPC   C4A75618   5.971  22.549   7.160
 5891POPC   C1B75619   5.777  21.888   6.321
 5891POPC   C2B75620   5.995  21.865   6.690
 5891POPC   C3B75621   5.813  21.917   7.061
 5891POPC   C4B75622   5.721  21.826   7.480
 5892POPC   NC375623  16.126  40.229   5.411
 5892POPC   PO475624  15.677  39.745   5.408
 5892POPC   GL175625  15.825  39.953   5.782
 5892POPC   GL275626  16.094  39.773   5.845
 5892POPC   C1A75627  15.924  40.110   6.242
 5892POPC   D2A75628  16.059  39.963   6.684
 5892POPC   C3A75629  16.010  40.240   7.070
 5892POPC   C4A75630  15.700  40.376   7.422
 5892POPC   C1B75631  15.783  39.631   6.200
 5892POPC   C2B75632  15.882  39.488   6.607
 5892POPC   C3B75633  15.919  39.633   7.071
 5892POPC   C4B75634  16.140  39.878   7.401
 5893POPC   NC375635  43.692  35.070   5.339
 5893POPC   PO475636  43.861  35.619   5.719
 5893POPC   GL175637  43.919  35.198   5.809
 5893POPC   GL275638  43.592  35.053   5.868
 5893POPC   C1A75639  44.110  35.199   6.193
 5893POPC   D2A75640  44.059  35.401   6.559
 5893POPC   C3A75641  43.984  35.227   6.908
 5893POPC   C4A75642  44.052  35.419   7.306
 5893POPC   C1B75643  43.597  35.315   6.256
 5893POPC   C2B75644  43.543  35.377   6.696
 5893POPC   C3B75645  43.675  35.663   7.042
 5893POPC   C4B75646  43.596  35.661   7.484
 5894POPC   NC375647  37.070  44.314   5.496
 5894POPC   PO475648  36.720  44.933   5.435
 5894POPC   GL175649  36.900  44.709   5.798
 5894POPC   GL275650  36.720  44.405   5.862
 5894POPC   C1A75651  36.994  44.622   6.249
 5894POPC   D2A75652  37.020  44.851   6.652
 5894POPC   C3A75653  36.826  44.734   7.048
 5894POPC   C4A75654  37.016  44.460   7.343
 5894POPC   C1B75655  36.485  44.467   6.214
 5894POPC   C2B75656  36.587  44.515   6.636
 5894POPC   C3B75657  36.754  44.234   6.931
 5894POPC   C4B75658  36.597  44.158   7.316
 5895POPC   NC375659   1.993  10.668   5.453
 5895POPC   PO475660   1.912  10.006   5.335
 5895POPC   GL175661   1.904  10.275   5.754
 5895POPC   GL275662   2.233  10.442   5.891
 5895POPC   C1A75663   1.813  10.529   6.147
 5895POPC   D2A75664   1.939  10.605   6.573
 5895POPC   C3A75665   1.825  10.344   6.931
 5895POPC   C4A75666   1.994  10.299   7.350
 5895POPC   C1B75667   2.363  10.759   6.256
 5895POPC   C2B75668   2.237  10.993   6.665
 5895POPC   C3B75669   2.129  10.779   7.066
 5895POPC   C4B75670   2.404  10.619   7.404
 5896POPC   NC375671  13.454  32.137   5.142
 5896POPC   PO475672  13.949  32.471   5.385
 5896POPC   GL175673  13.835  32.382   5.830
 5896POPC   GL275674  13.621  32.086   5.837
 5896POPC   C1A75675  13.707  32.359   6.274
 5896POPC   D2A75676  13.732  32.623   6.647
 5896POPC   C3A75677  13.584  32.583   7.017
 5896POPC   C4A75678  13.943  32.545   7.262
 5896POPC   C1B75679  13.326  32.004   6.203
 5896POPC   C2B75680  13.425  32.106   6.627
 5896POPC   C3B75681  13.585  32.085   7.068
 5896POPC   C4B75682  13.889  32.084   7.452
 5897POPC   NC375683  43.023  35.772   5.584
 5897POPC   PO475684  43.151  35.203   5.367
 5897POPC   GL175685  42.913  35.300   5.749
 5897POPC   GL275686  43.176  35.484   5.976
 5897POPC   C1A75687  42.772  35.229   6.168
 5897POPC   D2A75688  43.006  35.094   6.511
 5897POPC   C3A75689  42.834  35.205   6.915
 5897POPC   C4A75690  42.753  35.276   7.368
 5897POPC   C1B75691  43.318  35.784   6.321
 5897POPC   C2B75692  43.255  35.790   6.770
 5897POPC   C3B75693  43.237  35.449   7.123
 5897POPC   C4B75694  43.587  35.183   7.202
 5898POPC   NC375695   1.677  31.384   5.681
 5898POPC   PO475696   1.139  31.371   5.227
 5898POPC   GL175697   1.128  31.250   5.679
 5898POPC   GL275698   1.159  31.601   5.808
 5898POPC   C1A75699   1.181  31.249   6.156
 5898POPC   D2A75700   0.976  31.360   6.553
 5898POPC   C3A75701   1.162  31.398   6.947
 5898POPC   C4A75702   1.303  31.315   7.355
 5898POPC   C1B75703   1.443  31.675   6.205
 5898POPC   C2B75704   1.543  31.515   6.612
 5898POPC   C3B75705   1.566  31.713   7.033
 5898POPC   C4B75706   1.484  31.809   7.472
 5899POPC   NC375707  25.321  14.732   5.316
 5899POPC   PO475708  24.980  14.111   5.352
 5899POPC   GL175709  25.142  14.353   5.693
 5899POPC   GL275710  25.458  14.232   5.729
 5899POPC   C1A75711  25.065  14.243   6.138
 5899POPC   D2A75712  25.303  14.303   6.506
 5899POPC   C3A75713  25.087  14.393   6.872
 5899POPC   C4A75714  25.061  14.375   7.302
 5899POPC   C1B75715  25.488  14.564   6.075
 5899POPC   C2B75716  25.534  14.750   6.526
 5899POPC   C3B75717  25.539  14.632   6.975
 5899POPC   C4B75718  25.616  14.762   7.427
 5900POPC   NC375719  24.098  30.360   5.513
 5900POPC   PO475720  24.443  30.984   5.447
 5900POPC   GL175721  24.387  30.700   5.760
 5900POPC   GL275722  24.311  30.910   5.962
 5900POPC   C1A75723  24.520  30.467   6.125
 5900POPC   D2A75724  24.829  30.517   6.429
 5900POPC   C3A75725  24.836  30.383   6.848
 5900POPC   C4A75726  24.648  30.466   7.227
 5900POPC   C1B75727  24.515  30.941   6.302
 5900POPC   C2B75728  24.358  30.743   6.606
 5900POPC   C3B75729  24.620  30.848   6.883
 5900POPC   C4B75730  24.755  30.994   7.254
 5901POPC   NC375731  32.737  21.607   5.030
 5901POPC   PO475732  32.342  21.312   5.554
 5901POPC   GL175733  32.132  21.406   5.912
 5901POPC   GL275734  31.913  21.687   5.897
 5901POPC   C1A75735  32.166  21.166   6.306
 5901POPC   D2A75736  32.448  20.967   6.607
 5901POPC   C3A75737  32.380  21.143   7.004
 5901POPC   C4A75738  32.127  21.169   7.368
 5901POPC   C1B75739  31.973  21.654   6.343
 5901POPC   C2B75740  32.225  21.646   6.726
 5901POPC   C3B75741  32.035  21.600   7.122
 5901POPC   C4B75742  31.775  21.601   7.478
 5902POPC   NC375743  26.349  41.966   5.068
 5902POPC   PO475744  26.014  42.493   5.292
 5902POPC   GL175745  26.212  42.407   5.693
 5902POPC   GL275746  26.288  42.058   5.605
 5902POPC   C1A75747  26.037  42.542   6.088
 5902POPC   D2A75748  26.031  42.693   6.500
 5902POPC   C3A75749  25.806  42.545   6.844
 5902POPC   C4A75750  25.983  42.494   7.231
 5902POPC   C1B75751  26.377  42.099   6.066
 5902POPC   C2B75752  26.274  42.253   6.473
 5902POPC   C3B75753  26.099  42.116   6.856
 5902POPC   C4B75754  26.241  42.058   7.262
 5903POPC   NC375755  25.172  27.463   5.494
 5903POPC   PO475756  25.547  27.981   5.385
 5903POPC   GL175757  25.559  27.859   5.788
 5903POPC   GL275758  25.666  27.522   5.699
 5903POPC   C1A75759  25.328  27.817   6.180
 5903POPC   D2A75760  25.212  27.498   6.484
 5903POPC   C3A75761  25.086  27.610   6.907
 5903POPC   C4A75762  25.084  27.573   7.386
 5903POPC   C1B75763  25.642  27.400   6.132
 5903POPC   C2B75764  25.802  27.666   6.453
 5903POPC   C3B75765  25.602  27.751   6.850
 5903POPC   C4B75766  25.490  27.398   7.130
 5904POPC   NC375767  21.403  15.992   5.506
 5904POPC   PO475768  20.930  15.626   5.287
 5904POPC   GL175769  20.942  15.750   5.765
 5904POPC   GL275770  21.014  16.098   5.840
 5904POPC   C1A75771  21.226  15.786   6.186
 5904POPC   D2A75772  21.550  15.702   6.516
 5904POPC   C3A75773  21.453  15.768   6.947
 5904POPC   C4A75774  21.550  15.737   7.380
 5904POPC   C1B75775  21.018  16.275   6.250
 5904POPC   C2B75776  21.300  16.244   6.560
 5904POPC   C3B75777  21.224  16.354   6.942
 5904POPC   C4B75778  21.470  16.220   7.230
 5905POPC   NC375779  11.939  27.156   5.522
 5905POPC   PO475780  12.368  26.727   5.389
 5905POPC   GL175781  12.227  26.831   5.802
 5905POPC   GL275782  12.260  27.194   5.917
 5905POPC   C1A75783  12.231  26.811   6.250
 5905POPC   D2A75784  11.905  26.755   6.548
 5905POPC   C3A75785  12.035  26.621   6.949
 5905POPC   C4A75786  11.856  26.736   7.325
 5905POPC   C1B75787  11.900  27.215   6.263
 5905POPC   C2B75788  11.703  27.244   6.698
 5905POPC   C3B75789  11.975  27.170   7.070
 5905POPC   C4B75790  12.286  27.024   7.391
 5906POPC   NC375791  29.814  26.175   5.259
 5906POPC   PO475792  30.350  26.067   5.669
 5906POPC   GL175793  29.913  26.162   5.774
 5906POPC   GL275794  30.024  26.441   5.989
 5906POPC   C1A75795  29.592  26.222   6.129
 5906POPC   D2A75796  29.510  26.346   6.554
 5906POPC   C3A75797  29.776  26.221   6.829
 5906POPC   C4A75798  29.793  26.037   7.210
 5906POPC   C1B75799  30.033  25.991   6.236
 5906POPC   C2B75800  30.104  25.832   6.638
 5906POPC   C3B75801  30.265  26.100   6.935
 5906POPC   C4B75802  30.270  26.124   7.340
 5907POPC   NC375803  39.822  33.427   5.612
 5907POPC   PO475804  40.257  33.935   5.330
 5907POPC   GL175805  39.963  33.926   5.719
 5907POPC   GL275806  39.610  34.081   5.683
 5907POPC   C1A75807  39.999  33.757   6.151
 5907POPC   D2A75808  40.211  33.698   6.543
 5907POPC   C3A75809  39.913  33.616   6.878
 5907POPC   C4A75810  40.034  33.803   7.254
 5907POPC   C1B75811  39.626  34.115   6.137
 5907POPC   C2B75812  39.811  34.026   6.576
 5907POPC   C3B75813  39.673  34.125   7.007
 5907POPC   C4B75814  39.702  34.143   7.469
 5908POPC   NC375815   0.919   2.917   5.472
 5908POPC   PO475816   1.627   2.798   5.419
 5908POPC   GL175817   1.409   2.703   5.830
 5908POPC   GL275818   1.067   2.542   5.804
 5908POPC   C1A75819   1.585   2.634   6.273
 5908POPC   D2A75820   1.401   2.723   6.694
 5908POPC   C3A75821   1.309   2.457   7.087
 5908POPC   C4A75822   1.423   2.485   7.588
 5908POPC   C1B75823   1.057   2.669   6.251
 5908POPC   C2B75824   0.870   2.766   6.627
 5908POPC   C3B75825   1.034   2.886   6.999
 5908POPC   C4B75826   0.950   2.775   7.370
 5909POPC   NC375827  36.813  24.383   5.488
 5909POPC   PO475828  36.888  25.025   5.418
 5909POPC   GL175829  36.770  24.759   5.808
 5909POPC   GL275830  37.044  24.526   5.931
 5909POPC   C1A75831  36.732  24.746   6.247
 5909POPC   D2A75832  36.958  24.536   6.562
 5909POPC   C3A75833  36.854  24.760   6.915
 5909POPC   C4A75834  36.808  24.726   7.336
 5909POPC   C1B75835  37.041  24.135   6.200
 5909POPC   C2B75836  36.822  23.976   6.569
 5909POPC   C3B75837  36.706  24.241   6.920
 5909POPC   C4B75838  37.110  24.353   7.149
 5910POPC   NC375839  17.756  38.458   5.362
 5910POPC   PO475840  17.433  37.921   5.518
 5910POPC   GL175841  17.463  38.228   5.896
 5910POPC   GL275842  17.638  38.537   5.857
 5910POPC   C1A75843  17.446  38.311   6.381
 5910POPC   D2A75844  17.527  38.467   6.832
 5910POPC   C3A75845  17.580  38.111   7.158
 5910POPC   C4A75846  17.496  37.974   7.600
 5910POPC   C1B75847  17.612  38.796   6.221
 5910POPC   C2B75848  17.773  38.875   6.614
 5910POPC   C3B75849  17.984  38.729   6.943
 5910POPC   C4B75850  17.763  38.576   7.303
 5911POPC   NC375851  25.668  24.468   5.251
 5911POPC   PO475852  26.396  24.456   5.184
 5911POPC   GL175853  26.144  24.530   5.706
 5911POPC   GL275854  25.956  24.255   5.869
 5911POPC   C1A75855  26.129  24.621   6.183
 5911POPC   D2A75856  25.949  24.576   6.617
 5911POPC   C3A75857  26.217  24.632   6.990
 5911POPC   C4A75858  26.198  24.514   7.434
 5911POPC   C1B75859  26.219  24.125   6.249
 5911POPC   C2B75860  26.324  24.204   6.688
 5911POPC   C3B75861  26.149  24.144   7.066
 5911POPC   C4B75862  25.768  24.387   7.104
 5912POPC   NC375863  17.584   8.109   5.308
 5912POPC   PO475864  17.100   8.514   5.408
 5912POPC   GL175865  17.156   8.169   5.737
 5912POPC   GL275866  17.445   7.924   5.758
 5912POPC   C1A75867  17.260   8.141   6.190
 5912POPC   D2A75868  17.276   8.323   6.592
 5912POPC   C3A75869  17.231   8.095   6.956
 5912POPC   C4A75870  17.490   8.282   7.258
 5912POPC   C1B75871  17.713   7.877   6.124
 5912POPC   C2B75872  17.593   7.876   6.558
 5912POPC   C3B75873  17.778   7.978   6.931
 5912POPC   C4B75874  17.755   7.874   7.371
 5913POPC   NC375875   8.116  31.602   5.407
 5913POPC   PO475876   8.480  31.027   5.325
 5913POPC   GL175877   8.402  31.269   5.746
 5913POPC   GL275878   8.278  31.622   5.880
 5913POPC   C1A75879   8.308  31.248   6.204
 5913POPC   D2A75880   8.363  31.440   6.631
 5913POPC   C3A75881   8.379  31.153   6.979
 5913POPC   C4A75882   8.248  31.203   7.409
 5913POPC   C1B75883   8.100  31.725   6.288
 5913POPC   C2B75884   7.840  31.520   6.633
 5913POPC   C3B75885   7.935  31.395   7.039
 5913POPC   C4B75886   8.277  31.674   7.192
 5914POPC   NC375887  22.531  42.263   5.377
 5914POPC   PO475888  21.997  42.615   5.246
 5914POPC   GL175889  22.005  42.476   5.710
 5914POPC   GL275890  22.239  42.619   5.929
 5914POPC   C1A75891  21.987  42.186   6.086
 5914POPC   D2A75892  22.293  42.109   6.429
 5914POPC   C3A75893  22.370  42.159   6.874
 5914POPC   C4A75894  22.206  42.426   7.225
 5914POPC   C1B75895  22.088  42.602   6.382
 5914POPC   C2B75896  22.338  42.646   6.766
 5914POPC   C3B75897  22.561  42.786   7.147
 5914POPC   C4B75898  22.560  42.956   7.580
 5915POPC   NC375899  38.797  23.489   5.462
 5915POPC   PO475900  39.370  23.834   5.273
 5915POPC   GL175901  39.188  23.790   5.663
 5915POPC   GL275902  39.327  23.456   5.667
 5915POPC   C1A75903  39.014  23.788   6.102
 5915POPC   D2A75904  39.059  23.620   6.537
 5915POPC   C3A75905  39.018  23.773   6.964
 5915POPC   C4A75906  38.863  23.532   7.318
 5915POPC   C1B75907  39.539  23.642   6.017
 5915POPC   C2B75908  39.629  23.482   6.408
 5915POPC   C3B75909  39.509  23.556   6.833
 5915POPC   C4B75910  39.374  23.460   7.239
 5916POPC   NC375911  26.608  20.647   5.256
 5916POPC   PO475912  27.039  21.143   5.329
 5916POPC   GL175913  26.868  20.801   5.687
 5916POPC   GL275914  27.089  20.542   5.811
 5916POPC   C1A75915  26.671  20.650   6.121
 5916POPC   D2A75916  26.760  20.438   6.549
 5916POPC   C3A75917  26.647  20.455   7.018
 5916POPC   C4A75918  26.562  20.431   7.472
 5916POPC   C1B75919  27.185  20.588   6.204
 5916POPC   C2B75920  27.073  20.841   6.515
 5916POPC   C3B75921  27.114  20.674   6.879
 5916POPC   C4B75922  26.993  20.739   7.282
 5917POPC   NC375923  35.021  36.631   5.466
 5917POPC   PO475924  35.740  36.640   5.566
 5917POPC   GL175925  35.394  36.862   5.779
 5917POPC   GL275926  35.252  37.220   5.754
 5917POPC   C1A75927  35.390  36.975   6.200
 5917POPC   D2A75928  35.139  36.988   6.574
 5917POPC   C3A75929  35.362  37.075   6.945
 5917POPC   C4A75930  35.693  36.909   7.208
 5917POPC   C1B75931  35.016  37.333   6.176
 5917POPC   C2B75932  34.980  37.498   6.631
 5917POPC   C3B75933  35.069  37.474   7.087
 5917POPC   C4B75934  35.142  37.191   7.444
 5918POPC   NC375935  33.195  34.529   5.355
 5918POPC   PO475936  32.586  34.714   5.584
 5918POPC   GL175937  32.717  34.483   5.882
 5918POPC   GL275938  33.052  34.576   5.850
 5918POPC   C1A75939  32.733  34.349   6.305
 5918POPC   D2A75940  32.766  34.551   6.724
 5918POPC   C3A75941  33.062  34.443   7.066
 5918POPC   C4A75942  32.997  34.341   7.505
 5918POPC   C1B75943  33.218  34.494   6.249
 5918POPC   C2B75944  33.324  34.652   6.650
 5918POPC   C3B75945  33.562  34.576   7.000
 5918POPC   C4B75946  33.507  34.199   7.238
 5919POPC   NC375947  34.267  36.722   5.362
 5919POPC   PO475948  34.874  37.152   5.410
 5919POPC   GL175949  34.771  37.045   5.796
 5919POPC   GL275950  34.423  37.056   5.801
 5919POPC   C1A75951  34.758  36.881   6.202
 5919POPC   D2A75952  34.639  37.090   6.591
 5919POPC   C3A75953  34.812  36.947   7.006
 5919POPC   C4A75954  34.732  36.495   7.125
 5919POPC   C1B75955  34.253  36.978   6.265
 5919POPC   C2B75956  34.156  36.641   6.591
 5919POPC   C3B75957  34.158  36.667   7.024
 5919POPC   C4B75958  34.254  37.033   7.224
 5920POPC   NC375959  35.717  12.465   5.478
 5920POPC   PO475960  36.171  13.048   5.430
 5920POPC   GL175961  36.190  13.046   5.854
 5920POPC   GL275962  35.983  12.760   5.839
 5920POPC   C1A75963  36.448  12.954   6.224
 5920POPC   D2A75964  36.245  12.693   6.530
 5920POPC   C3A75965  35.953  12.973   6.723
 5920POPC   C4A75966  35.909  13.063   7.149
 5920POPC   C1B75967  35.859  12.532   6.189
 5920POPC   C2B75968  35.688  12.560   6.599
 5920POPC   C3B75969  35.900  12.530   7.005
 5920POPC   C4B75970  35.847  12.566   7.457
 5921POPC   NC375971  21.564  18.639   5.446
 5921POPC   PO475972  21.100  18.202   5.251
 5921POPC   GL175973  21.282  18.342   5.756
 5921POPC   GL275974  21.482  18.050   5.964
 5921POPC   C1A75975  21.561  18.490   6.166
 5921POPC   D2A75976  21.797  18.176   6.478
 5921POPC   C3A75977  21.598  18.113   6.900
 5921POPC   C4A75978  21.289  18.423   7.103
 5921POPC   C1B75979  21.121  18.165   6.256
 5921POPC   C2B75980  21.009  18.166   6.722
 5921POPC   C3B75981  21.165  17.905   7.061
 5921POPC   C4B75982  21.174  17.936   7.541
 5922POPC   NC375983  31.252   3.334   5.273
 5922POPC   PO475984  31.340   3.930   5.581
 5922POPC   GL175985  31.592   3.657   5.837
 5922POPC   GL275986  31.724   3.373   5.664
 5922POPC   C1A75987  31.423   3.321   6.100
 5922POPC   D2A75988  31.256   3.220   6.505
 5922POPC   C3A75989  31.387   3.510   6.796
 5922POPC   C4A75990  31.316   3.668   7.194
 5922POPC   C1B75991  31.920   3.277   6.051
 5922POPC   C2B75992  31.821   3.424   6.448
 5922POPC   C3B75993  31.897   3.551   6.844
 5922POPC   C4B75994  31.722   3.354   7.207
 5923POPC   NC375995   4.129   4.308   5.376
 5923POPC   PO475996   4.705   3.957   5.408
 5923POPC   GL175997   4.448   4.070   5.771
 5923POPC   GL275998   4.486   4.401   5.833
 5923POPC   C1A75999   4.293   4.146   6.225
 5923POPC   D2A76000   4.499   4.292   6.604
 5923POPC   C3A76001   4.432   4.107   7.024
 5923POPC   C4A76002   4.088   4.260   7.249
 5923POPC   C1B76003   4.610   4.691   6.239
 5923POPC   C2B76004   4.680   4.761   6.717
 5923POPC   C3B76005   4.457   4.600   7.046
 5923POPC   C4B76006   4.520   4.476   7.452
 5924POPC   NC376007  27.980  39.532   5.345
 5924POPC   PO476008  27.432  39.201   5.343
 5924POPC   GL176009  27.375  39.075   5.767
 5924POPC   GL276010  27.296  39.390   5.904
 5924POPC   C1A76011  27.500  38.982   6.223
 5924POPC   D2A76012  27.394  39.006   6.695
 5924POPC   C3A76013  27.671  39.101   7.071
 5924POPC   C4A76014  27.556  39.001   7.501
 5924POPC   C1B76015  27.396  39.482   6.335
 5924POPC   C2B76016  27.494  39.523   6.784
 5924POPC   C3B76017  27.284  39.426   7.166
 5924POPC   C4B76018  27.337  39.443   7.602
 5925POPC   NC376019  33.026  42.848   5.520
 5925POPC   PO476020  32.552  43.379   5.616
 5925POPC   GL176021  32.889  43.187   5.874
 5925POPC   GL276022  33.200  43.351   5.959
 5925POPC   C1A76023  32.881  42.904   6.228
 5925POPC   D2A76024  32.753  43.059   6.638
 5925POPC   C3A76025  32.838  42.893   7.042
 5925POPC   C4A76026  32.566  42.877   7.386
 5925POPC   C1B76027  33.189  43.253   6.404
 5925POPC   C2B76028  33.249  42.888   6.669
 5925POPC   C3B76029  33.325  43.012   7.083
 5925POPC   C4B76030  33.218  43.426   7.150
 5926POPC   NC376031  18.859  21.742   5.440
 5926POPC   PO476032  19.419  21.980   5.196
 5926POPC   GL176033  19.265  21.987   5.663
 5926POPC   GL276034  18.921  22.189   5.704
 5926POPC   C1A76035  19.230  22.064   6.133
 5926POPC   D2A76036  19.433  22.138   6.534
 5926POPC   C3A76037  19.183  22.075   6.895
 5926POPC   C4A76038  18.977  22.383   7.164
 5926POPC   C1B76039  18.713  22.007   6.084
 5926POPC   C2B76040  18.852  21.953   6.511
 5926POPC   C3B76041  18.657  22.061   6.900
 5926POPC   C4B76042  18.560  22.103   7.320
 5927POPC   NC376043  34.799  42.458   5.440
 5927POPC   PO476044  34.133  42.599   5.526
 5927POPC   GL176045  34.420  42.339   5.820
 5927POPC   GL276046  34.781  42.202   5.868
 5927POPC   C1A76047  34.534  42.326   6.278
 5927POPC   D2A76048  34.626  42.280   6.707
 5927POPC   C3A76049  34.475  42.643   6.933
 5927POPC   C4A76050  34.534  42.758   7.319
 5927POPC   C1B76051  34.947  41.960   6.211
 5927POPC   C2B76052  35.110  42.027   6.635
 5927POPC   C3B76053  34.910  42.014   7.049
 5927POPC   C4B76054  34.578  42.214   7.251
 5928POPC   NC376055  30.412  15.417   5.479
 5928POPC   PO476056  30.939  15.056   5.577
 5928POPC   GL176057  30.718  15.219   5.906
 5928POPC   GL276058  30.434  15.012   5.838
 5928POPC   C1A76059  30.739  15.284   6.366
 5928POPC   D2A76060  30.447  15.396   6.726
 5928POPC   C3A76061  30.638  15.380   7.135
 5928POPC   C4A76062  31.000  15.160   7.331
 5928POPC   C1B76063  30.622  14.803   6.211
 5928POPC   C2B76064  30.558  14.900   6.630
 5928POPC   C3B76065  30.764  14.843   6.986
 5928POPC   C4B76066  30.584  14.856   7.379
 5929POPC   NC376067   9.917  43.826   5.424
 5929POPC   PO476068   9.443  44.203   5.163
 5929POPC   GL176069   9.504  43.885   5.695
 5929POPC   GL276070   9.795  43.689   5.894
 5929POPC   C1A76071   9.607  44.036   6.183
 5929POPC   D2A76072   9.492  43.913   6.601
 5929POPC   C3A76073   9.813  43.892   6.918
 5929POPC   C4A76074   9.850  44.053   7.318
 5929POPC   C1B76075  10.031  43.763   6.314
 5929POPC   C2B76076  10.058  43.506   6.696
 5929POPC   C3B76077   9.933  43.408   7.126
 5929POPC   C4B76078  10.016  43.630   7.513
 5930POPC   NC376079  17.689  20.446   5.187
 5930POPC   PO476080  17.174  20.751   5.491
 5930POPC   GL176081  17.392  20.825   5.887
 5930POPC   GL276082  17.277  20.511   6.038
 5930POPC   C1A76083  17.543  20.852   6.349
 5930POPC   D2A76084  17.771  21.029   6.736
 5930POPC   C3A76085  17.939  20.703   7.025
 5930POPC   C4A76086  17.854  20.303   7.202
 5930POPC   C1B76087  17.503  20.198   6.303
 5930POPC   C2B76088  17.531  20.247   6.750
 5930POPC   C3B76089  17.409  20.537   7.049
 5930POPC   C4B76090  17.073  20.458   7.294
 5931POPC   NC376091  38.849  28.331   5.422
 5931POPC   PO476092  38.161  28.255   5.427
 5931POPC   GL176093  38.437  28.198   5.782
 5931POPC   GL276094  38.645  28.502   5.859
 5931POPC   C1A76095  38.327  28.284   6.210
 5931POPC   D2A76096  38.432  28.128   6.594
 5931POPC   C3A76097  38.196  28.280   6.936
 5931POPC   C4A76098  38.031  28.011   7.250
 5931POPC   C1B76099  38.753  28.522   6.308
 5931POPC   C2B76100  38.746  28.493   6.745
 5931POPC   C3B76101  38.646  28.402   7.121
 5931POPC   C4B76102  38.874  28.480   7.403
 5932POPC   NC376103  10.065  40.044   5.335
 5932POPC   PO476104  10.740  39.961   5.327
 5932POPC   GL176105  10.404  39.892   5.691
 5932POPC   GL276106  10.157  40.203   5.795
 5932POPC   C1A76107  10.478  39.856   6.138
 5932POPC   D2A76108  10.438  39.637   6.525
 5932POPC   C3A76109  10.678  39.632   6.901
 5932POPC   C4A76110  10.562  39.872   7.252
 5932POPC   C1B76111  10.281  40.322   6.193
 5932POPC   C2B76112  10.359  40.160   6.601
 5932POPC   C3B76113  10.514  40.331   6.987
 5932POPC   C4B76114  10.301  40.532   7.356
 5933POPC   NC376115  14.822  17.165   5.593
 5933POPC   PO476116  14.189  17.076   5.389
 5933POPC   GL176117  14.125  17.089   5.832
 5933POPC   GL276118  14.157  16.731   5.807
 5933POPC   C1A76119  14.104  16.981   6.294
 5933POPC   D2A76120  14.215  16.775   6.686
 5933POPC   C3A76121  14.206  16.960   7.093
 5933POPC   C4A76122  14.038  16.899   7.502
 5933POPC   C1B76123  14.270  16.506   6.198
 5933POPC   C2B76124  14.604  16.487   6.541
 5933POPC   C3B76125  14.574  16.546   6.998
 5933POPC   C4B76126  14.344  16.524   7.384
 5934POPC   NC376127   5.555  10.893   4.978
 5934POPC   PO476128   5.862  10.324   5.314
 5934POPC   GL176129   5.936  10.438   5.727
 5934POPC   GL276130   5.969  10.779   5.781
 5934POPC   C1A76131   5.729  10.361   6.128
 5934POPC   D2A76132   5.687  10.064   6.507
 5934POPC   C3A76133   5.737  10.334   6.881
 5934POPC   C4A76134   6.041  10.343   7.198
 5934POPC   C1B76135   5.864  10.859   6.215
 5934POPC   C2B76136   5.692  10.811   6.643
 5934POPC   C3B76137   5.730  10.877   7.106
 5934POPC   C4B76138   5.546  10.918   7.541
 5935POPC   NC376139   7.985  19.472   5.613
 5935POPC   PO476140   8.390  18.967   5.356
 5935POPC   GL176141   8.191  19.029   5.811
 5935POPC   GL276142   8.352  19.336   5.952
 5935POPC   C1A76143   7.992  19.098   6.263
 5935POPC   D2A76144   8.064  19.190   6.732
 5935POPC   C3A76145   8.109  18.870   7.057
 5935POPC   C4A76146   8.315  18.949   7.448
 5935POPC   C1B76147   8.510  19.070   6.316
 5935POPC   C2B76148   8.549  19.021   6.781
 5935POPC   C3B76149   8.641  19.267   7.130
 5935POPC   C4B76150   8.772  19.149   7.534
 5936POPC   NC376151  17.111  10.956   5.406
 5936POPC   PO476152  16.401  10.854   5.291
 5936POPC   GL176153  16.649  10.678   5.619
 5936POPC   GL276154  16.378  10.779   5.829
 5936POPC   C1A76155  16.755  10.436   6.018
 5936POPC   D2A76156  16.825  10.456   6.497
 5936POPC   C3A76157  16.676  10.477   6.954
 5936POPC   C4A76158  16.665  10.334   7.419
 5936POPC   C1B76159  16.457  10.766   6.268
 5936POPC   C2B76160  16.582  10.912   6.668
 5936POPC   C3B76161  16.322  10.859   7.005
 5936POPC   C4B76162  16.388  10.771   7.421
 5937POPC   NC376163  39.743  31.228   5.476
 5937POPC   PO476164  40.115  30.668   5.417
 5937POPC   GL176165  39.993  30.487   5.787
 5937POPC   GL276166  39.667  30.647   5.803
 5937POPC   C1A76167  40.188  30.430   6.204
 5937POPC   D2A76168  40.392  30.540   6.609
 5937POPC   C3A76169  40.142  30.607   7.005
 5937POPC   C4A76170  39.883  30.417   7.314
 5937POPC   C1B76171  39.654  30.422   6.198
 5937POPC   C2B76172  39.813  30.534   6.618
 5937POPC   C3B76173  39.616  30.747   6.998
 5937POPC   C4B76174  39.428  30.636   7.392
 5938POPC   NC376175  34.862  15.625   5.417
 5938POPC   PO476176  34.439  15.078   5.421
 5938POPC   GL176177  34.479  15.397   5.743
 5938POPC   GL276178  34.807  15.427   5.907
 5938POPC   C1A76179  34.366  15.360   6.154
 5938POPC   D2A76180  34.309  15.024   6.471
 5938POPC   C3A76181  34.339  15.180   6.906
 5938POPC   C4A76182  34.226  15.022   7.280
 5938POPC   C1B76183  34.781  15.077   6.239
 5938POPC   C2B76184  34.781  15.014   6.688
 5938POPC   C3B76185  34.877  15.255   7.062
 5938POPC   C4B76186  35.118  15.061   7.384
 5939POPC   NC376187   1.815  42.292   5.056
 5939POPC   PO476188   2.146  42.629   5.507
 5939POPC   GL176189   1.911  42.462   5.840
 5939POPC   GL276190   1.757  42.146   5.775
 5939POPC   C1A76191   1.931  42.600   6.269
 5939POPC   D2A76192   1.719  42.554   6.657
 5939POPC   C3A76193   1.908  42.314   6.985
 5939POPC   C4A76194   1.852  42.323   7.417
 5939POPC   C1B76195   1.649  42.160   6.190
 5939POPC   C2B76196   1.943  42.112   6.501
 5939POPC   C3B76197   1.988  41.830   6.838
 5939POPC   C4B76198   2.095  41.917   7.254
 5940POPC   NC376199  28.379  23.781   5.181
 5940POPC   PO476200  28.946  23.477   5.193
 5940POPC   GL176201  28.622  23.625   5.579
 5940POPC   GL276202  28.349  23.861   5.688
 5940POPC   C1A76203  28.533  23.513   6.052
 5940POPC   D2A76204  28.585  23.671   6.459
 5940POPC   C3A76205  28.534  23.555   6.865
 5940POPC   C4A76206  28.648  23.748   7.287
 5940POPC   C1B76207  28.373  23.995   6.131
 5940POPC   C2B76208  28.418  24.186   6.536
 5940POPC   C3B76209  28.422  24.047   6.933
 5940POPC   C4B76210  28.191  23.965   7.283
 5941POPC   NC376211  31.202  27.108   5.231
 5941POPC   PO476212  30.547  26.969   5.423
 5941POPC   GL176213  30.742  26.894   5.810
 5941POPC   GL276214  31.074  26.974   5.784
 5941POPC   C1A76215  30.771  26.748   6.253
 5941POPC   D2A76216  30.837  26.944   6.662
 5941POPC   C3A76217  30.841  26.682   7.003
 5941POPC   C4A76218  30.552  26.591   7.300
 5941POPC   C1B76219  31.093  27.154   6.223
 5941POPC   C2B76220  31.325  27.105   6.621
 5941POPC   C3B76221  31.162  27.161   7.030
 5941POPC   C4B76222  31.121  26.878   7.376
 5942POPC   NC376223  20.999  41.711   5.521
 5942POPC   PO476224  21.333  41.150   5.373
 5942POPC   GL176225  21.305  41.363   5.803
 5942POPC   GL276226  21.637  41.502   5.960
 5942POPC   C1A76227  21.253  41.343   6.261
 5942POPC   D2A76228  21.217  41.110   6.665
 5942POPC   C3A76229  21.369  41.403   6.961
 5942POPC   C4A76230  21.284  41.440   7.366
 5942POPC   C1B76231  21.572  41.830   6.262
 5942POPC   C2B76232  21.322  41.807   6.621
 5942POPC   C3B76233  21.483  41.918   7.020
 5942POPC   C4B76234  21.612  41.830   7.428
 5943POPC   NC376235   9.954   0.691   5.406
 5943POPC   PO476236   9.546   0.176   5.368
 5943POPC   GL176237   9.611   0.468   5.739
 5943POPC   GL276238   9.980   0.470   5.854
 5943POPC   C1A76239   9.581   0.339   6.175
 5943POPC   D2A76240   9.552   0.513   6.582
 5943POPC   C3A76241   9.510   0.298   6.965
 5943POPC   C4A76242   9.604   0.596   7.259
 5943POPC   C1B76243   9.910   0.714   6.220
 5943POPC   C2B76244  10.074   0.678   6.617
 5943POPC   C3B76245  10.010   0.457   6.979
 5943POPC   C4B76246  10.104   0.620   7.374
 5944POPC   NC376247  44.917  31.669   5.364
 5944POPC   PO476248  44.535  31.159   5.582
 5944POPC   GL176249  44.645  31.548   5.796
 5944POPC   GL276250  44.354  31.785   5.846
 5944POPC   C1A76251  44.936  31.560   6.115
 5944POPC   D2A76252  44.985  31.490   6.540
 5944POPC   C3A76253  44.714  31.758   6.757
 5944POPC   C4A76254  44.840  31.791   7.168
 5944POPC   C1B76255  44.462  31.697   6.287
 5944POPC   C2B76256  44.532  31.269   6.458
 5944POPC   C3B76257  44.566  31.228   6.891
 5944POPC   C4B76258  44.358  31.554   7.132
 5945POPC   NC376259  44.107  36.771   5.525
 5945POPC   PO476260  43.604  37.118   5.463
 5945POPC   GL176261  43.881  37.184   5.858
 5945POPC   GL276262  44.062  36.878   6.000
 5945POPC   C1A76263  43.807  37.141   6.325
 5945POPC   D2A76264  44.035  36.868   6.614
 5945POPC   C3A76265  43.830  36.737   6.975
 5945POPC   C4A76266  43.609  37.127   7.091
 5945POPC   C1B76267  43.845  36.583   6.253
 5945POPC   C2B76268  43.995  36.351   6.635
 5945POPC   C3B76269  44.151  36.338   7.074
 5945POPC   C4B76270  44.028  36.471   7.511
 5946POPC   NC376271  10.306  20.247   5.606
 5946POPC   PO476272  10.739  20.807   5.306
 5946POPC   GL176273  10.628  20.615   5.727
 5946POPC   GL276274  10.822  20.309   5.678
 5946POPC   C1A76275  10.434  20.575   6.165
 5946POPC   D2A76276  10.247  20.419   6.549
 5946POPC   C3A76277  10.275  20.602   6.950
 5946POPC   C4A76278  10.646  20.854   7.083
 5946POPC   C1B76279  10.922  20.399   6.128
 5946POPC   C2B76280  10.771  20.514   6.557
 5946POPC   C3B76281  10.987  20.475   6.953
 5946POPC   C4B76282  11.052  20.673   7.351
 5947POPC   NC376283  26.952  22.279   5.100
 5947POPC   PO476284  26.453  21.950   5.397
 5947POPC   GL176285  26.648  21.998   5.740
 5947POPC   GL276286  26.387  22.021   5.927
 5947POPC   C1A76287  26.877  22.086   6.116
 5947POPC   D2A76288  26.890  22.360   6.483
 5947POPC   C3A76289  26.875  22.216   6.916
 5947POPC   C4A76290  26.961  22.419   7.311
 5947POPC   C1B76291  26.463  22.404   6.139
 5947POPC   C2B76292  26.442  22.608   6.541
 5947POPC   C3B76293  26.377  22.426   6.906
 5947POPC   C4B76294  26.486  22.256   7.279
 5948POPC   NC376295  38.046  23.746   5.484
 5948POPC   PO476296  38.679  23.953   5.497
 5948POPC   GL176297  38.503  23.675   5.857
 5948POPC   GL276298  38.148  23.516   5.923
 5948POPC   C1A76299  38.530  23.718   6.316
 5948POPC   D2A76300  38.584  23.499   6.708
 5948POPC   C3A76301  38.505  23.759   7.043
 5948POPC   C4A76302  38.424  23.737   7.484
 5948POPC   C1B76303  38.032  23.846   6.213
 5948POPC   C2B76304  37.866  23.881   6.655
 5948POPC   C3B76305  38.003  23.778   7.094
 5948POPC   C4B76306  37.925  23.787   7.549
 5949POPC   NC376307  42.591   2.617   5.399
 5949POPC   PO476308  42.651   3.165   5.686
 5949POPC   GL176309  42.456   2.780   5.851
 5949POPC   GL276310  42.129   2.699   5.733
 5949POPC   C1A76311  42.312   2.458   6.129
 5949POPC   D2A76312  42.166   2.543   6.527
 5949POPC   C3A76313  42.470   2.607   6.831
 5949POPC   C4A76314  42.284   2.431   7.173
 5949POPC   C1B76315  42.109   2.936   6.186
 5949POPC   C2B76316  42.199   3.035   6.662
 5949POPC   C3B76317  42.234   2.976   7.141
 5949POPC   C4B76318  42.122   3.135   7.598
 5950POPC   NC376319   4.709  14.279   5.542
 5950POPC   PO476320   4.361  14.845   5.518
 5950POPC   GL176321   4.124  14.586   5.812
 5950POPC   GL276322   4.296  14.247   5.873
 5950POPC   C1A76323   4.246  14.655   6.237
 5950POPC   D2A76324   4.583  14.649   6.539
 5950POPC   C3A76325   4.339  14.583   6.905
 5950POPC   C4A76326   4.295  14.381   7.292
 5950POPC   C1B76327   4.388  14.122   6.327
 5950POPC   C2B76328   4.432  14.084   6.791
 5950POPC   C3B76329   4.206  13.896   7.161
 5950POPC   C4B76330   4.169  14.051   7.627
 5951POPC   NC376331  30.913   7.081   5.000
 5951POPC   PO476332  30.666   7.310   5.548
 5951POPC   GL176333  30.743   7.413   5.929
 5951POPC   GL276334  30.365   7.351   5.949
 5951POPC   C1A76335  31.046   7.329   6.259
 5951POPC   D2A76336  31.043   7.047   6.601
 5951POPC   C3A76337  30.730   7.205   6.863
 5951POPC   C4A76338  30.647   7.366   7.246
 5951POPC   C1B76339  30.406   7.675   6.203
 5951POPC   C2B76340  30.673   7.626   6.524
 5951POPC   C3B76341  30.647   7.786   6.932
 5951POPC   C4B76342  30.255   7.677   7.157
 5952POPC   NC376343  40.062   8.213   5.402
 5952POPC   PO476344  39.560   7.705   5.526
 5952POPC   GL176345  39.784   8.012   5.788
 5952POPC   GL276346  39.586   8.319   5.829
 5952POPC   C1A76347  40.126   8.007   6.124
 5952POPC   D2A76348  40.166   8.211   6.546
 5952POPC   C3A76349  40.348   8.001   6.897
 5952POPC   C4A76350  40.201   8.090   7.309
 5952POPC   C1B76351  39.822   8.418   6.208
 5952POPC   C2B76352  39.865   8.620   6.648
 5952POPC   C3B76353  39.859   8.481   7.103
 5952POPC   C4B76354  39.806   8.330   7.548
 5953POPC   NC376355  19.020  24.532   5.349
 5953POPC   PO476356  18.578  24.091   5.211
 5953POPC   GL176357  18.734  24.231   5.690
 5953POPC   GL276358  19.132  24.232   5.775
 5953POPC   C1A76359  18.853  24.440   6.150
 5953POPC   D2A76360  19.003  24.374   6.620
 5953POPC   C3A76361  18.986  24.622   7.045
 5953POPC   C4A76362  18.864  24.711   7.508
 5953POPC   C1B76363  19.342  24.304   6.202
 5953POPC   C2B76364  19.493  24.202   6.623
 5953POPC   C3B76365  19.317  24.224   7.048
 5953POPC   C4B76366  19.309  24.460   7.441
 5954POPC   NC376367  34.229  28.083   5.590
 5954POPC   PO476368  34.351  27.461   5.330
 5954POPC   GL176369  34.602  27.481   5.697
 5954POPC   GL276370  34.510  27.176   5.842
 5954POPC   C1A76371  34.607  27.596   6.155
 5954POPC   D2A76372  34.766  27.471   6.573
 5954POPC   C3A76373  34.756  27.781   6.896
 5954POPC   C4A76374  34.707  27.836   7.318
 5954POPC   C1B76375  34.195  27.289   6.163
 5954POPC   C2B76376  34.202  27.189   6.576
 5954POPC   C3B76377  34.354  27.383   6.920
 5954POPC   C4B76378  34.688  27.332   7.184
 5955POPC   NC376379  18.316  42.734   5.460
 5955POPC   PO476380  18.509  43.443   5.420
 5955POPC   GL176381  18.284  43.328   5.822
 5955POPC   GL276382  18.226  42.951   5.921
 5955POPC   C1A76383  18.374  43.279   6.290
 5955POPC   D2A76384  18.460  42.916   6.585
 5955POPC   C3A76385  18.329  42.958   6.963
 5955POPC   C4A76386  18.190  43.356   7.013
 5955POPC   C1B76387  17.963  42.942   6.292
 5955POPC   C2B76388  17.860  43.035   6.758
 5955POPC   C3B76389  17.891  42.970   7.237
 5955POPC   C4B76390  17.924  42.780   7.670
 5956POPC   NC376391  32.553  29.748   5.302
 5956POPC   PO476392  31.893  29.809   5.463
 5956POPC   GL176393  32.075  30.025   5.838
 5956POPC   GL276394  32.406  30.039   5.754
 5956POPC   C1A76395  32.024  30.228   6.246
 5956POPC   D2A76396  31.991  30.236   6.704
 5956POPC   C3A76397  32.345  30.228   6.971
 5956POPC   C4A76398  32.110  29.938   7.230
 5956POPC   C1B76399  32.369  29.742   6.151
 5956POPC   C2B76400  32.358  29.857   6.596
 5956POPC   C3B76401  32.521  29.748   7.015
 5956POPC   C4B76402  32.530  29.836   7.501
 5957POPC   NC376403  28.153   5.041   5.462
 5957POPC   PO476404  27.476   4.906   5.430
 5957POPC   GL176405  27.725   4.985   5.765
 5957POPC   GL276406  27.420   5.124   5.908
 5957POPC   C1A76407  27.829   4.876   6.169
 5957POPC   D2A76408  27.659   4.834   6.595
 5957POPC   C3A76409  27.867   5.018   6.949
 5957POPC   C4A76410  28.086   4.803   7.277
 5957POPC   C1B76411  27.495   5.252   6.328
 5957POPC   C2B76412  27.394   5.261   6.772
 5957POPC   C3B76413  27.409   5.315   7.213
 5957POPC   C4B76414  27.368   5.186   7.642
 5958POPC   NC376415  34.033  33.687   5.445
 5958POPC   PO476416  33.494  34.153   5.440
 5958POPC   GL176417  33.744  34.063   5.801
 5958POPC   GL276418  33.634  33.748   5.812
 5958POPC   C1A76419  33.731  34.027   6.284
 5958POPC   D2A76420  33.454  33.786   6.587
 5958POPC   C3A76421  33.588  33.742   7.024
 5958POPC   C4A76422  33.997  33.863   7.178
 5958POPC   C1B76423  33.853  33.545   6.166
 5958POPC   C2B76424  33.929  33.545   6.607
 5958POPC   C3B76425  33.872  33.336   6.980
 5958POPC   C4B76426  33.848  33.443   7.429
 5959POPC   NC376427  36.593  27.625   5.427
 5959POPC   PO476428  37.284  27.817   5.229
 5959POPC   GL176429  37.107  27.692   5.632
 5959POPC   GL276430  36.965  27.371   5.660
 5959POPC   C1A76431  37.082  27.631   6.085
 5959POPC   D2A76432  37.104  27.413   6.477
 5959POPC   C3A76433  36.873  27.607   6.835
 5959POPC   C4A76434  36.512  27.884   6.982
 5959POPC   C1B76435  36.645  27.338   6.030
 5959POPC   C2B76436  36.491  27.297   6.477
 5959POPC   C3B76437  36.585  27.184   6.919
 5959POPC   C4B76438  36.665  27.406   7.296
 5960POPC   NC376439  39.280   0.812   5.210
 5960POPC   PO476440  38.902   0.268   5.188
 5960POPC   GL176441  39.352   0.407   5.503
 5960POPC   GL276442  39.588   0.183   5.731
 5960POPC   C1A76443  39.366   0.621   5.969
 5960POPC   D2A76444  39.198   0.411   6.396
 5960POPC   C3A76445  39.120   0.568   6.853
 5960POPC   C4A76446  39.136   0.438   7.293
 5960POPC   C1B76447  39.718   0.353   6.189
 5960POPC   C2B76448  39.661   0.613   6.542
 5960POPC   C3B76449  39.602   0.459   6.955
 5960POPC   C4B76450  39.641   0.241   7.348
 5961POPC   NC376451   1.890  15.218   5.370
 5961POPC   PO476452   2.504  14.872   5.560
 5961POPC   GL176453   2.120  15.050   5.806
 5961POPC   GL276454   1.749  14.939   5.814
 5961POPC   C1A76455   2.034  15.227   6.208
 5961POPC   D2A76456   1.907  15.110   6.621
 5961POPC   C3A76457   2.048  15.287   6.998
 5961POPC   C4A76458   2.211  14.976   7.273
 5961POPC   C1B76459   1.732  14.764   6.252
 5961POPC   C2B76460   1.794  14.601   6.685
 5961POPC   C3B76461   1.785  14.829   7.054
 5961POPC   C4B76462   1.595  15.215   7.239
 5962POPC   NC376463  21.391   6.905   5.182
 5962POPC   PO476464  21.718   6.659   5.389
 5962POPC   GL176465  21.417   6.697   5.789
 5962POPC   GL276466  21.272   7.017   5.914
 5962POPC   C1A76467  21.270   6.611   6.261
 5962POPC   D2A76468  21.272   6.731   6.727
 5962POPC   C3A76469  21.102   6.462   7.070
 5962POPC   C4A76470  21.366   6.312   7.438
 5962POPC   C1B76471  21.482   7.066   6.339
 5962POPC   C2B76472  21.645   7.092   6.757
 5962POPC   C3B76473  21.427   7.050   7.133
 5962POPC   C4B76474  21.499   6.866   7.527
 5963POPC   NC376475   3.746  18.245   5.360
 5963POPC   PO476476   3.175  17.926   5.482
 5963POPC   GL176477   3.316  18.254   5.801
 5963POPC   GL276478   3.686  18.291   5.867
 5963POPC   C1A76479   3.374  18.378   6.260
 5963POPC   D2A76480   3.221  18.490   6.661
 5963POPC   C3A76481   3.363  18.243   6.993
 5963POPC   C4A76482   3.281  17.952   7.319
 5963POPC   C1B76483   3.881  18.528   6.233
 5963POPC   C2B76484   3.779  18.568   6.679
 5963POPC   C3B76485   3.777  18.530   7.134
 5963POPC   C4B76486   3.739  18.164   7.383
 5964POPC   NC376487  26.110  21.646   5.234
 5964POPC   PO476488  25.704  21.149   5.555
 5964POPC   GL176489  25.876  21.323   5.913
 5964POPC   GL276490  26.205  21.441   5.786
 5964POPC   C1A76491  25.836  21.310   6.380
 5964POPC   D2A76492  25.835  21.664   6.631
 5964POPC   C3A76493  25.949  21.591   7.020
 5964POPC   C4A76494  25.835  21.540   7.432
 5964POPC   C1B76495  26.317  21.239   6.212
 5964POPC   C2B76496  26.314  21.423   6.660
 5964POPC   C3B76497  26.387  21.370   7.148
 5964POPC   C4B76498  26.529  21.456   7.610
 5965POPC   NC376499  30.755  36.369   5.378
 5965POPC   PO476500  30.493  35.842   5.586
 5965POPC   GL176501  30.786  36.067   5.810
 5965POPC   GL276502  30.682  36.401   5.914
 5965POPC   C1A76503  30.844  35.961   6.215
 5965POPC   D2A76504  30.746  35.802   6.606
 5965POPC   C3A76505  31.006  35.993   6.889
 5965POPC   C4A76506  31.086  36.392   7.032
 5965POPC   C1B76507  30.388  36.208   6.253
 5965POPC   C2B76508  30.312  36.082   6.710
 5965POPC   C3B76509  30.556  36.149   7.075
 5965POPC   C4B76510  30.614  35.955   7.476
 5966POPC   NC376511   2.343  11.219   5.443
 5966POPC   PO476512   2.873  11.627   5.330
 5966POPC   GL176513   2.746  11.385   5.721
 5966POPC   GL276514   2.916  11.072   5.751
 5966POPC   C1A76515   2.462  11.286   6.104
 5966POPC   D2A76516   2.551  11.372   6.553
 5966POPC   C3A76517   2.543  11.658   6.904
 5966POPC   C4A76518   2.755  11.458   7.252
 5966POPC   C1B76519   2.905  11.023   6.216
 5966POPC   C2B76520   2.761  10.910   6.631
 5966POPC   C3B76521   2.606  11.010   7.043
 5966POPC   C4B76522   2.804  10.945   7.445
 5967POPC   NC376523   9.073   9.443   5.317
 5967POPC   PO476524   9.108   8.752   5.371
 5967POPC   GL176525   8.998   8.954   5.764
 5967POPC   GL276526   8.688   8.754   5.799
 5967POPC   C1A76527   9.046   9.164   6.195
 5967POPC   D2A76528   9.030   9.386   6.622
 5967POPC   C3A76529   8.959   9.172   7.074
 5967POPC   C4A76530   9.104   9.231   7.532
 5967POPC   C1B76531   8.914   8.615   6.153
 5967POPC   C2B76532   9.050   8.768   6.559
 5967POPC   C3B76533   9.009   8.611   6.994
 5967POPC   C4B76534   9.018   8.742   7.449
 5968POPC   NC376535  35.635  27.479   5.180
 5968POPC   PO476536  36.122  27.917   5.349
 5968POPC   GL176537  36.069  27.670   5.704
 5968POPC   GL276538  35.733  27.518   5.690
 5968POPC   C1A76539  36.130  27.430   6.095
 5968POPC   D2A76540  35.942  27.320   6.514
 5968POPC   C3A76541  36.176  27.470   6.863
 5968POPC   C4A76542  36.182  27.592   7.261
 5968POPC   C1B76543  35.725  27.743   6.098
 5968POPC   C2B76544  35.644  27.763   6.528
 5968POPC   C3B76545  35.676  27.563   6.912
 5968POPC   C4B76546  35.707  27.789   7.311
 5969POPC   NC376547  29.594  19.334   5.501
 5969POPC   PO476548  29.183  18.822   5.307
 5969POPC   GL176549  29.357  18.883   5.745
 5969POPC   GL276550  29.079  18.960   5.977
 5969POPC   C1A76551  29.521  18.800   6.171
 5969POPC   D2A76552  29.396  18.699   6.614
 5969POPC   C3A76553  29.349  18.854   7.028
 5969POPC   C4A76554  28.921  18.947   7.179
 5969POPC   C1B76555  29.294  19.230   6.332
 5969POPC   C2B76556  29.341  19.338   6.788
 5969POPC   C3B76557  29.138  19.429   7.196
 5969POPC   C4B76558  29.020  19.436   7.656
 5970POPC   NC376559  11.755   3.016   5.348
 5970POPC   PO476560  12.138   2.536   5.547
 5970POPC   GL176561  11.832   2.685   5.842
 5970POPC   GL276562  11.823   3.052   5.872
 5970POPC   C1A76563  11.961   2.625   6.253
 5970POPC   D2A76564  12.161   2.542   6.626
 5970POPC   C3A76565  11.948   2.638   6.972
 5970POPC   C4A76566  12.085   2.598   7.351
 5970POPC   C1B76567  11.829   3.101   6.331
 5970POPC   C2B76568  12.110   3.042   6.683
 5970POPC   C3B76569  12.088   3.120   7.124
 5970POPC   C4B76570  11.781   2.994   7.360
 5971W        W76571  33.694  27.992   2.810
 5972W        W76572  42.346  17.212   1.702
 5973W        W76573  44.231  17.138   2.883
 5974W        W76574   5.762   5.504  12.438
 5975W        W76575  39.549  23.065   4.529
 5976W        W76576  11.090  41.415  12.851
 5977W        W76577  16.290  11.245  13.063
 5978W        W76578  23.040   0.778   0.860
 5979W        W76579  21.625  39.917   3.602
 5980W        W76580  29.061  29.619   1.327
 5981W        W76581   3.311  15.555   2.628
 5982W        W76582   9.892   1.407  14.336
 5983W        W76583  25.015   1.480  13.927
 5984W        W76584   7.074  37.239   4.965
 5985W        W76585   4.930  33.580  13.484
 5986W        W76586  30.230  14.176  13.354
 5987W        W76587  17.118   7.405   2.589
 5988W        W76588   6.742  14.668   2.421
 5989W        W76589  39.746  32.719  11.495
 5990W        W76590   9.706  30.030  10.991
 5991W        W76591  26.235  11.075  14.802
 5992W        W76592  40.926   7.636   3.324
 5993W        W76593   8.711  30.589   0.198
 5994W        W76594  11.803  16.656  13.967
 5995W        W76595  33.886  42.822  10.496
 5996W        W76596  14.620  20.945  13.979
 5997W        W76597  34.150  37.389  10.244
 5998W        W76598  41.437  42.394   0.287
 5999W        W76599  24.643  20.619   4.528
 6000W        W76600  28.238   8.452  12.675
 6001W        W76601  39.307  35.377   3.743
 6002W        W76602  35.088  27.430   4.406
 6003W        W76603  23.277  20.589   0.247
 6004W        W76604  41.877   3.428   1.787
 6005W        W76605  17.642  13.937  11.413
 6006W        W76606   0.425   1.717   1.313
 6007W        W76607  42.984   5.201   1.191
 6008W        W76608  27.849  10.315  10.717
 6009W        W76609  39.049  42.937  11.662
 6010W        W76610  19.099  38.820  12.826
 6011W        W76611   3.263   5.855   5.082
 6012W        W76612   4.440   3.272  12.990
 6013W        W76613  23.476  34.931  12.435
 6014W        W76614  43.510  30.124   0.274
 6015W        W76615  27.603  11.657   2.858
 6016W        W76616  11.651  12.743   4.526
 6017W        W76617  44.444  41.224  10.620
 6018W        W76618  27.628  25.559  14.803
 6019W        W76619  27.155   1.352   4.952
 6020W        W76620  13.059  26.728  13.318
 6021W        W76621  11.885   0.680   2.717
 6022W        W76622  25.745   7.280   4.296
 6023W        W76623  34.668  36.536   0.026
 6024W        W76624  36.518  34.340   4.234
 6025W        W76625  37.672  34.083  14.932
 6026W        W76626   6.454  21.639   0.033
 6027W        W76627   4.713  13.206   0.724
 6028W        W76628  42.878  41.512   3.683
 6029W        W76629  20.640  23.071  13.304
 6030W        W76630  22.012   0.522  12.891
 6031W        W76631   3.375  35.589   1.810
 6032W        W76632  36.056  12.119  11.255
 6033W        W76633  34.529  14.030  13.051
 6034W        W76634  23.046   9.941  12.081
 6035W        W76635  44.998  19.759   1.949
 6036W        W76636  19.146  22.256  10.827
 6037W        W76637  16.864  36.313  13.017
 6038W        W76638  21.167  20.452  10.772
 6039W        W76639  15.700  24.971  13.320
 6040W        W76640  41.225  19.820   3.643
 6041W        W76641  19.045  10.104  10.814
 6042W        W76642  24.791  22.280   1.285
 6043W        W76643  36.927  11.419   4.222
 6044W        W76644  42.861  33.609   1.457
 6045W        W76645  30.581  30.165   3.730
 6046W        W76646  10.344  34.358   0.368
 6047W        W76647  18.751   4.888   0.788
 6048W        W76648   6.712  10.135  12.905
 6049W        W76649  24.751   6.737  11.742
 6050W        W76650  33.763   2.990   2.885
 6051W        W76651   5.050  14.155   1.068
 6052W        W76652  19.292   0.456   1.839
 6053W        W76653  32.937  12.735   1.401
 6054W        W76654  10.952  34.315  13.082
 6055W        W76655   9.100  39.510  13.690
 6056W        W76656  30.392  25.094   4.133
 6057W        W76657  27.704  13.294   1.249
 6058W        W76658   1.930  27.403   0.950
 6059W        W76659  19.846  34.700  12.506
 6060W        W76660  42.248   2.304  11.174
 6061W        W76661  26.393   6.784   4.133
 6062W        W76662  27.436  39.958   3.752
 6063W        W76663   0.349  32.800   1.757
 6064W        W76664  12.569  18.054  11.198
 6065W        W76665  43.506  44.012  11.901
 6066W        W76666  18.211  28.027   3.306
 6067W        W76667   7.869  24.781  10.775
 6068W        W76668  18.689  33.899  10.499
 6069W        W76669  38.435  30.363  10.459
 6070W        W76670  31.662  25.117   1.875
 6071W        W76671  16.464  42.252  12.996
 6072W        W76672  44.735  28.113   2.618
 6073W        W76673  28.761   8.820  14.439
 6074W        W76674  39.128  28.224   5.008
 6075W        W76675  34.922  10.171   2.213
 6076W        W76676  10.100  37.963   4.682
 6077W        W76677  14.075  44.424   3.755
 6078W        W76678   6.438  31.700   4.242
 6079W        W76679  36.408  20.304  11.968
 6080W        W76680  23.494   7.424   3.061
 6081W        W76681   5.726  42.541  12.107
 6082W        W76682  11.155  15.366  14.302
 6083W        W76683   4.493  12.356   3.751
 6084W        W76684  13.085  44.664   3.790
 6085W        W76685   6.722  43.923  10.757
 6086W        W76686   7.697   1.975  13.582
 6087W        W76687  15.068  10.331   0.457
 6088W        W76688  32.896  13.614  10.750
 6089W        W76689  44.494  29.215   3.216
 6090W        W76690   4.667  39.419  12.974
 6091W        W76691   1.430  16.893   2.995
 6092W        W76692  43.736  25.414  11.225
 6093W        W76693  15.463  32.409   9.955
 6094W        W76694  35.896   4.208   3.520
 6095W        W76695   1.381  33.894   0.847
 6096W        W76696   3.554  22.027  14.340
 6097W        W76697  13.634  26.486  14.844
 6098W        W76698  37.361  23.517   0.638
 6099W        W76699  41.785  36.871   1.785
 6100W        W76700  16.700  11.870   3.197
 6101W        W76701  43.926   5.937  13.297
 6102W        W76702  30.944  12.106  13.515
 6103W        W76703  43.133  39.369  11.919
 6104W        W76704  23.650  41.532   2.162
 6105W        W76705  19.529   8.303  12.211
 6106W        W76706  41.491  28.161   4.120
 6107W        W76707  30.628  10.987   4.074
 6108W        W76708  43.598  43.012   4.495
 6109W        W76709  22.013  14.409   0.512
 6110W        W76710  30.082   2.319  13.501
 6111W        W76711  27.569   5.553   4.504
 6112W        W76712  32.544  17.212   0.386
 6113W        W76713  24.109  11.128   5.219
 6114W        W76714  42.918  18.569   0.881
 6115W        W76715   1.789  42.962   3.688
 6116W        W76716  44.968  19.599   1.455
 6117W        W76717   2.191  30.035  14.941
 6118W        W76718  33.938  23.567  12.085
 6119W        W76719  39.784  22.414  12.178
 6120W        W76720  28.984  10.268   2.745
 6121W        W76721   9.244  25.253  14.340
 6122W        W76722   2.755  30.324  10.989
 6123W        W76723  39.463  13.037   3.165
 6124W        W76724  15.609   7.692  13.102
 6125W        W76725  34.655  10.165  12.022
 6126W        W76726   5.787   0.769  11.198
 6127W        W76727  31.136   7.812  10.690
 6128W        W76728  34.637  38.562   0.299
 6129W        W76729  31.937  20.681   3.227
 6130W        W76730   8.567  14.815  14.179
 6131W        W76731   0.159  11.920   2.216
 6132W        W76732  15.053   0.661   1.886
 6133W        W76733  15.706   2.773   2.400
 6134W        W76734  43.115  20.130  14.240
 6135W        W76735  37.162  35.916  13.940
 6136W        W76736  15.559  21.131  12.370
 6137W        W76737  14.815  22.885   3.704
 6138W        W76738   6.133   9.289   1.207
 6139W        W76739  33.979  38.816   1.879
 6140W        W76740   6.849  21.740  11.514
 6141W        W76741   6.459  14.221  12.851
 6142W        W76742  21.194  39.919   3.302
 6143W        W76743  19.977  44.336  11.522
 6144W        W76744  10.603  22.218  11.627
 6145W        W76745  11.403  21.800  13.937
 6146W        W76746  13.915  21.304  11.244
 6147W        W76747  26.217  22.987  14.063
 6148W        W76748  32.973   8.272  11.330
 6149W        W76749  26.676  28.719   2.760
 6150W        W76750  14.241  38.110  12.676
 6151W        W76751  14.266  33.640  14.883
 6152W        W76752  11.372  24.732   3.164
 6153W        W76753   9.936  31.747  11.924
 6154W        W76754  21.027   7.363   3.322
 6155W        W76755  15.613  42.368   2.390
 6156W        W76756  34.978  11.362   1.157
 6157W        W76757  42.010   7.134   1.328
 6158W        W76758  25.148   2.474   0.180
 6159W        W76759  31.035  37.718  11.647
 6160W        W76760  31.438  43.904  13.626
 6161W        W76761   6.354  22.228   4.125
 6162W        W76762  30.423  27.121   0.157
 6163W        W76763  27.042  21.441  12.399
 6164W        W76764  15.210   5.998  14.979
 6165W        W76765  31.987   2.601  12.770
 6166W        W76766  23.943  32.022  10.471
 6167W        W76767  13.140  33.551   3.788
 6168W        W76768  23.108  27.271   0.769
 6169W        W76769  21.632  21.460   4.191
 6170W        W76770   8.618  41.519   2.459
 6171W        W76771   3.314  20.550  11.285
 6172W        W76772  35.808  19.113  14.383
 6173W        W76773  25.077   9.614   2.766
 6174W        W76774  38.784  14.356  10.121
 6175W        W76775  31.684  14.404  11.532
 6176W        W76776  42.105  34.650   1.742
 6177W        W76777   2.956  31.249  11.680
 6178W        W76778   6.236  26.644   4.093
 6179W        W76779  19.638  13.208   1.145
 6180W        W76780  44.505   7.883   1.718
 6181W        W76781  22.050   5.677  12.457
 6182W        W76782   0.710  12.164   3.349
 6183W        W76783  32.504  29.892   0.961
 6184W        W76784   6.624  11.230   4.563
 6185W        W76785   1.522   8.401   0.841
 6186W        W76786   6.270  27.937   0.516
 6187W        W76787  31.585   6.086   0.330
 6188W        W76788  35.423   2.926  12.534
 6189W        W76789  15.239  19.994  11.563
 6190W        W76790  25.086   8.882  14.895
 6191W        W76791  44.798  36.491   3.170
 6192W        W76792  36.065  29.227   3.411
 6193W        W76793   7.525   5.492   2.259
 6194W        W76794  15.435  16.486  11.037
 6195W        W76795  26.082   8.768   0.344
 6196W        W76796  36.937  19.612   2.182
 6197W        W76797  44.789  15.250  12.953
 6198W        W76798   0.744  30.794   2.662
 6199W        W76799  22.975  23.028   2.114
 6200W        W76800  11.621  37.919   1.382
 6201W        W76801  26.672  29.054  13.261
 6202W        W76802  34.806  37.035  12.557
 6203W        W76803  35.915  21.738  11.851
 6204W        W76804  44.004  28.657   1.714
 6205W        W76805   6.479  27.675  10.932
 6206W        W76806  13.022  12.830   2.360
 6207W        W76807  12.717  13.599   1.625
 6208W        W76808  25.851  31.128  12.867
 6209W        W76809  37.445  27.800  12.517
 6210W        W76810  29.058  27.950   3.598
 6211W        W76811   0.002  44.478  14.872
 6212W        W76812  29.058  24.720   3.371
 6213W        W76813  16.189  23.614   4.743
 6214W        W76814   7.533  28.671  11.522
 6215W        W76815  14.725  14.690  14.768
 6216W        W76816  23.945  41.023   0.214
 6217W        W76817  26.679  33.872   0.771
 6218W        W76818   9.838  29.885  12.560
 6219W        W76819   8.383  25.897   4.269
 6220W        W76820  36.455  35.267   0.250
 6221W        W76821  21.113  39.706   1.340
 6222W        W76822  22.197  34.749   4.074
 6223W        W76823   3.030   7.754  10.490
 6224W        W76824  37.361  38.212   1.758
 6225W        W76825  32.082   3.887   0.878
 6226W        W76826  16.255  39.871   4.232
 6227W        W76827  33.053   6.872   0.745
 6228W        W76828  44.277  14.830   4.022
 6229W        W76829  13.732  16.478  13.666
 6230W        W76830  15.211  24.994   4.439
 6231W        W76831  37.888  18.642  14.943
 6232W        W76832  40.898  43.629   1.610
 6233W        W76833  36.558  28.063  14.236
 6234W        W76834  35.584  27.333   3.133
 6235W        W76835   3.485   2.117   3.341
 6236W        W76836  11.729  23.060   4.606
 6237W        W76837   7.213  37.653  14.401
 6238W        W76838  22.312  41.074  12.067
 6239W        W76839   5.896  33.503  10.642
 6240W        W76840  34.976  13.372  13.488
 6241W        W76841   8.674  20.137  11.602
 6242W        W76842  15.584  44.216  14.671
 6243W        W76843  22.667  21.204   2.799
 6244W        W76844   9.488   1.271  11.269
 6245W        W76845  13.763  34.345   4.026
 6246W        W76846  16.100   7.207   0.632
 6247W        W76847  44.365  14.220  11.215
 6248W        W76848   6.312  30.480   3.734
 6249W        W76849  44.572  32.631   0.238
 6250W        W76850  14.345  25.566   2.325
 6251W        W76851   2.208   2.190   0.027
 6252W        W76852  32.591  16.664   0.263
 6253W        W76853  40.472  26.372   4.527
 6254W        W76854  38.878   4.294  11.168
 6255W        W76855  10.885  38.678  12.193
 6256W        W76856  35.222  22.343   0.458
 6257W        W76857  28.881  17.618   1.825
 6258W        W76858  20.744  23.155   0.815
 6259W        W76859   2.864  13.752  14.733
 6260W        W76860   8.022  11.604   3.736
 6261W        W76861  25.052  11.145  12.420
 6262W        W76862  18.172  40.171   3.289
 6263W        W76863  14.031  29.293  13.327
 6264W        W76864  35.529  23.468  13.954
 6265W        W76865  15.380   1.941  14.014
 6266W        W76866  38.941   3.178  10.403
 6267W        W76867   6.521   6.233  14.117
 6268W        W76868  30.623  33.107   2.816
 6269W        W76869  26.049   3.759  14.447
 6270W        W76870   1.956  39.782   2.830
 6271W        W76871  42.609  18.861  14.217
 6272W        W76872  36.199  15.380  14.967
 6273W        W76873  23.769   7.322  12.139
 6274W        W76874  29.934  43.318   3.121
 6275W        W76875   2.881  42.223   0.455
 6276W        W76876  12.662  43.586   3.235
 6277W        W76877  24.986  22.512  14.827
 6278W        W76878   4.984  34.466   3.229
 6279W        W76879   9.123  23.459  12.456
 6280W        W76880  44.805  10.356  11.608
 6281W        W76881   6.226  16.530  12.412
 6282W        W76882  43.444  11.446   2.406
 6283W        W76883  28.680   3.717  14.215
 6284W        W76884  25.195   0.386   3.606
 6285W        W76885  15.111  39.509   3.797
 6286W        W76886   1.322  44.854   2.336
 6287W        W76887   8.647   1.811  14.828
 6288W        W76888  29.874  41.129  14.105
 6289W        W76889   7.060  19.555  11.169
 6290W        W76890   4.528   4.776   3.267
 6291W        W76891  38.029  44.633   0.376
 6292W        W76892  38.554  37.653   0.537
 6293W        W76893  35.356  26.706  11.443
 6294W        W76894   3.173   7.378  14.564
 6295W        W76895  38.023  15.904  12.604
 6296W        W76896  40.351  33.332   4.905
 6297W        W76897  11.664  43.767  10.689
 6298W        W76898   4.911  39.751  14.470
 6299W        W76899  27.101  40.377  13.258
 6300W        W76900  35.943  20.440   2.594
 6301W        W76901  37.202  18.847  14.359
 6302W        W76902  31.905   1.222  11.132
 6303W        W76903  13.828  33.410   2.165
 6304W        W76904  16.742  24.649   3.419
 6305W        W76905  42.605  25.030  14.943
 6306W        W76906   8.414  42.238   2.718
 6307W        W76907  26.570  29.766   4.034
 6308W        W76908  32.414  23.801   1.388
 6309W        W76909   5.582  37.866   2.576
 6310W        W76910  17.361  30.673   2.738
 6311W        W76911  21.119  13.413  13.576
 6312W        W76912  23.853  34.634  10.367
 6313W        W76913   0.019  37.969   1.163
 6314W        W76914  39.742   3.167   3.747
 6315W        W76915   9.820  27.225  14.745
 6316W        W76916  29.386  24.956  12.856
 6317W        W76917  27.638   3.781  13.142
 6318W        W76918  42.754  24.901   2.401
 6319W        W76919  25.229  34.165  12.919
 6320W        W76920  20.836   0.072   1.775
 6321W        W76921  26.537  20.262  14.766
 6322W        W76922  24.812  16.556  11.082
 6323W        W76923  10.223   8.456  13.485
 6324W        W76924  37.641   3.798   0.535
 6325W        W76925   4.289  15.364   3.194
 6326W        W76926  28.950  32.006  12.056
 6327W        W76927  29.985  14.296  14.684
 6328W        W76928  13.061  23.045   1.260
 6329W        W76929   6.836   3.144  13.445
 6330W        W76930   2.620  27.975  12.595
 6331W        W76931  17.827  32.469   0.721
 6332W        W76932  24.180  15.309  12.352
 6333W        W76933  26.041  37.122  11.659
 6334W        W76934   8.473  38.234   3.698
 6335W        W76935  15.790  20.498   3.673
 6336W        W76936  34.216  36.372  11.197
 6337W        W76937  32.910   5.857   4.762
 6338W        W76938  33.481  40.009   2.304
 6339W        W76939  26.671  42.912  14.343
 6340W        W76940  36.901   7.812   1.390
 6341W        W76941  34.349  36.466   4.340
 6342W        W76942   2.267  42.012  13.110
 6343W        W76943  18.583  23.697  11.235
 6344W        W76944  28.160  39.803   0.882
 6345W        W76945  36.486  19.233  14.846
 6346W        W76946   1.950  29.052  13.490
 6347W        W76947  42.444   5.211   3.115
 6348W        W76948  42.429   9.211  11.605
 6349W        W76949  18.599   0.683  11.959
 6350W        W76950   8.155  39.273  13.420
 6351W        W76951  14.610  14.171  14.092
 6352W        W76952   0.350  33.185   4.485
 6353W        W76953   2.660  24.508  14.317
 6354W        W76954  30.258   3.942  11.921
 6355W        W76955  16.198   3.687   2.104
 6356W        W76956  28.578  42.371   1.669
 6357W        W76957  40.408  42.203  12.263
 6358W        W76958   9.810   4.342   3.131
 6359W        W76959  44.794   0.441   2.727
 6360W        W76960  32.793  40.800  13.422
 6361W        W76961  34.908  11.865   3.650
 6362W        W76962  16.789  32.952   1.927
 6363W        W76963   4.402   9.138   3.289
 6364W        W76964   2.512  27.066  12.331
 6365W        W76965  18.716  32.704   2.181
 6366W        W76966  12.981  38.574   4.024
 6367W        W76967  25.271  12.097  14.396
 6368W        W76968  14.622   0.892   1.734
 6369W        W76969   6.169  35.321  14.884
 6370W        W76970   6.721  17.844   0.538
 6371W        W76971  19.732  40.395  12.797
 6372W        W76972  40.401   1.036  12.373
 6373W        W76973  42.486  40.999   3.222
 6374W        W76974   5.126  41.536  10.913
 6375W        W76975   7.975  17.424   1.903
 6376W        W76976  19.526  32.990   1.237
 6377W        W76977  29.443  22.551  14.857
 6378W        W76978  19.730  23.260  14.139
 6379W        W76979  25.104  12.836  13.658
 6380W        W76980  43.611  29.866  14.504
 6381W        W76981  11.414   3.201  11.503
 6382W        W76982  19.429  24.748  12.020
 6383W        W76983  41.887   7.213  14.429
 6384W        W76984  18.670  18.057   0.674
 6385W        W76985  40.650  16.105   0.195
 6386W        W76986  36.108   3.353   3.530
 6387W        W76987   1.788  31.361   3.744
 6388W        W76988   2.488  11.379  12.883
 6389W        W76989  28.886   5.736  12.961
 6390W        W76990  32.690  26.594  13.996
 6391W        W76991  44.547  39.471  13.502
 6392W        W76992  40.959  33.500  12.939
 6393W        W76993  18.531  32.370   1.819
 6394W        W76994  39.889  27.556   3.843
 6395W        W76995  44.346  42.343   0.509
 6396W        W76996  20.638  27.711   0.516
 6397W        W76997  10.789  25.661  14.952
 6398W        W76998  22.721  41.556   2.576
 6399W        W76999  17.431  43.347   4.724
 6400W        W77000  28.907  33.575   2.484
 6401W        W77001  17.022   5.515  11.116
 6402W        W77002   6.056  26.683   1.804
 6403W        W77003  16.919  40.499  12.015
 6404W        W77004   0.248  33.021  11.684
 6405W        W77005  13.831  36.082   3.743
 6406W        W77006  43.417  14.595   2.661
 6407W        W77007  30.925  38.910   1.316
 6408W        W77008  13.403   7.817   4.164
 6409W        W77009  26.610  33.927   3.590
 6410W        W77010  35.973  41.936  12.442
 6411W        W77011  22.130  44.550   1.824
 6412W        W77012  16.218   8.881  12.573
 6413W        W77013  29.527  20.343   0.573
 6414W        W77014  10.627  26.632  13.853
 6415W        W77015  26.838  32.379   0.713
 6416W        W77016  12.865   4.818  10.384
 6417W        W77017  23.883  12.490   1.379
 6418W        W77018  14.217  40.270  14.272
 6419W        W77019  35.549   8.772  10.170
 6420W        W77020  25.727   4.930  13.482
 6421W        W77021  44.914   1.374   3.706
 6422W        W77022  36.604  13.140  13.018
 6423W        W77023  26.096  31.495   4.237
 6424W        W77024  25.697  20.061  14.170
 6425W        W77025   6.816   8.903   3.214
 6426W        W77026  27.022  17.143  13.320
 6427W        W77027  14.120  22.217   4.079
 6428W        W77028   4.466  13.269   1.677
 6429W        W77029  26.016  31.970   1.407
 6430W        W77030  13.159  18.935   2.680
 6431W        W77031   5.025  11.760   0.937
 6432W        W77032  42.256  19.719   0.392
 6433W        W77033   3.009  18.163   4.150
 6434W        W77034  16.407  37.978  10.819
 6435W        W77035  15.215  28.036  14.846
 6436W        W77036  43.419  35.963  14.697
 6437W        W77037  25.667  28.110  12.130
 6438W        W77038  42.302  22.530   2.648
 6439W        W77039  11.906  10.638   4.017
 6440W        W77040  19.544  36.838  14.404
 6441W        W77041  16.743  21.009   4.101
 6442W        W77042  28.007  40.130  11.997
 6443W        W77043   8.751  18.058  14.777
 6444W        W77044   8.722  20.299   2.609
 6445W        W77045  35.089  43.471  13.812
 6446W        W77046  25.686   6.781   2.748
 6447W        W77047  22.609  23.458   4.725
 6448W        W77048  26.126  16.712  13.447
 6449W        W77049  37.035  23.757   3.845
 6450W        W77050  22.217   5.990  11.132
 6451W        W77051  11.749  30.169   2.397
 6452W        W77052   7.001  11.239  14.980
 6453W        W77053  10.466  10.875   3.667
 6454W        W77054   5.810  39.980  13.220
 6455W        W77055  27.902  37.785  11.653
 6456W        W77056  17.276  26.108   3.146
 6457W        W77057  35.027  43.013   3.350
 6458W        W77058  14.057   6.735   2.349
 6459W        W77059  18.765  34.311  12.277
 6460W        W77060  38.902  13.829  13.938
 6461W        W77061  23.622  19.725   0.317
 6462W        W77062   5.868   4.680  13.630
 6463W        W77063  13.852  33.161  13.085
 6464W        W77064  13.602  25.674  13.473
 6465W        W77065   5.948   9.299   2.401
 6466W        W77066  27.171  38.754  11.527
 6467W        W77067  24.400  31.091  10.753
 6468W        W77068  42.104  15.341  11.326
 6469W        W77069  10.669  44.693  11.101
 6470W        W77070  18.860  43.753  10.711
 6471W        W77071  44.521   0.401   2.300
 6472W        W77072  43.324  20.652   2.211
 6473W        W77073  22.840   4.321  13.045
 6474W        W77074  15.056   1.678   1.794
 6475W        W77075  40.648  27.241  14.457
 6476W        W77076  37.009  29.055   2.902
 6477W        W77077  11.768  42.281  14.017
 6478W        W77078   4.275  33.812  14.942
 6479W        W77079  31.083   0.181  13.775
 6480W        W77080  34.501  38.865  14.535
 6481W        W77081  29.680  21.027   3.786
 6482W        W77082  27.584   3.718  10.908
 6483W        W77083   1.137  23.163   2.328
 6484W        W77084   8.858  31.014   4.596
 6485W        W77085  10.074  36.103   2.085
 6486W        W77086  37.103  25.941  12.097
 6487W        W77087  13.018  39.054   4.142
 6488W        W77088  24.608  30.143  10.585
 6489W        W77089  41.707  31.456  11.258
 6490W        W77090  36.512  25.421  14.437
 6491W        W77091  13.060  41.943  13.394
 6492W        W77092  22.539  40.497  11.182
 6493W        W77093  21.589  43.903   9.518
 6494W        W77094  40.540  37.522   0.148
 6495W        W77095  36.064  15.647   2.272
 6496W        W77096   5.471  27.758   2.175
 6497W        W77097   9.263   5.023  12.197
 6498W        W77098   5.668  12.030   3.002
 6499W        W77099  26.029  26.898  13.913
 6500W        W77100  42.777   0.787  12.764
 6501W        W77101   6.982   0.315  12.376
 6502W        W77102  43.927  25.198  13.042
 6503W        W77103  30.057  20.680  14.438
 6504W        W77104   1.525   6.315  11.475
 6505W        W77105  33.289  43.508  12.938
 6506W        W77106  25.574  32.922  11.844
 6507W        W77107  37.904   8.449  13.873
 6508W        W77108   4.824   0.446   4.213
 6509W        W77109  25.102  24.735   2.216
 6510W        W77110  30.794  33.025   1.423
 6511W        W77111   5.400   4.782  12.542
 6512W        W77112  19.141  13.630   3.754
 6513W        W77113  21.639  41.830   4.111
 6514W        W77114  25.625  25.541   2.221
 6515W        W77115  28.550   8.803   2.646
 6516W        W77116  17.201  13.765   0.800
 6517W        W77117   3.977  36.930  14.860
 6518W        W77118  28.863  21.581  10.904
 6519W        W77119  17.034  43.030  11.096
 6520W        W77120  22.835  38.688   2.338
 6521W        W77121  29.617  26.810   0.891
 6522W        W77122  28.661  33.062  11.926
 6523W        W77123  24.362  34.975   1.029
 6524W        W77124   0.043  17.774   1.873
 6525W        W77125  36.040  35.400   3.703
 6526W        W77126  12.534   3.420  11.183
 6527W        W77127  31.899  15.743   4.099
 6528W        W77128  31.593   6.707   1.719
 6529W        W77129  19.062  39.235   0.153
 6530W        W77130  40.782  17.814   4.578
 6531W        W77131  36.526  44.507   3.340
 6532W        W77132  15.764   8.983  12.293
 6533W        W77133  16.875  15.490   2.449
 6534W        W77134  44.967   7.043   0.108
 6535W        W77135   6.455  20.056  11.186
 6536W        W77136  13.932  10.584   1.953
 6537W        W77137   0.362  30.654   1.338
 6538W        W77138  41.251   7.361  13.684
 6539W        W77139   0.742  38.097  12.519
 6540W        W77140  21.582  29.409   0.926
 6541W        W77141  17.536  36.429  12.131
 6542W        W77142   6.914  13.105   2.362
 6543W        W77143  18.985  17.782  10.454
 6544W        W77144  12.800  15.231  13.848
 6545W        W77145  12.797  34.194  13.123
 6546W        W77146  33.743  27.718   1.436
 6547W        W77147  42.096   9.952   4.383
 6548W        W77148  14.650  24.180  12.217
 6549W        W77149  20.787  37.795   1.741
 6550W        W77150  11.961  12.494   4.122
 6551W        W77151  29.107  22.587   1.713
 6552W        W77152  41.002   3.662  10.189
 6553W        W77153  36.069  43.646  14.023
 6554W        W77154  21.839   8.018   3.535
 6555W        W77155   9.261  32.780  14.755
 6556W        W77156   5.316   6.242   0.150
 6557W        W77157  44.241  17.263  10.711
 6558W        W77158  33.306  35.995   3.094
 6559W        W77159  36.335  44.740  11.019
 6560W        W77160  37.092  36.889   1.931
 6561W        W77161  36.364   7.262   1.695
 6562W        W77162   6.364   7.878  12.546
 6563W        W77163   5.017  36.246  10.971
 6564W        W77164  16.280  25.593   2.334
 6565W        W77165  34.942   2.946  10.854
 6566W        W77166  32.497  27.973  14.696
 6567W        W77167  30.479  44.666  11.596
 6568W        W77168  33.355   7.721  12.103
 6569W        W77169  43.331  12.172  12.512
 6570W        W77170   3.462   5.196  11.190
 6571W        W77171  43.818  20.055   2.325
 6572W        W77172  26.024  37.394  13.634
 6573W        W77173  21.818  43.539   2.404
 6574W        W77174  31.882  17.316   2.335
 6575W        W77175  31.225  17.589  12.780
 6576W        W77176  39.530  19.235   3.119
 6577W        W77177  22.645  42.683   4.598
 6578W        W77178   2.148   8.096  12.996
 6579W        W77179  25.073   0.595   0.117
 6580W        W77180  35.353   7.821  11.718
 6581W        W77181  16.322  10.328   0.933
 6582W        W77182  10.925  37.910  11.972
 6583W        W77183  26.115  11.291  13.129
 6584W        W77184   5.856  12.299   4.200
 6585W        W77185  44.722   7.312  11.917
 6586W        W77186  12.224  32.923   2.832
 6587W        W77187  16.154   5.723  11.190
 6588W        W77188  24.054  42.237  13.344
 6589W        W77189  40.482  26.103   4.079
 6590W        W77190  20.578   7.665   3.956
 6591W        W77191  43.717  26.528  12.159
 6592W        W77192  32.881   1.527   4.224
 6593W        W77193   1.690   1.726   1.441
 6594W        W77194  43.869   8.322   4.550
 6595W        W77195  36.148  36.355   1.445
 6596W        W77196  19.652  35.732   1.824
 6597W        W77197   6.801  24.720  13.877
 6598W        W77198   2.229  39.220   4.476
 6599W        W77199  23.747   1.088  11.350
 6600W        W77200  41.644   8.589  14.765
 6601W        W77201   5.357  34.783  14.285
 6602W        W77202  43.063  11.836  13.070
 6603W        W77203   6.397  20.196   3.556
 6604W        W77204  14.217  38.298   3.696
 6605W        W77205  25.745  28.683   3.996
 6606W        W77206  20.281  18.322  14.928
 6607W        W77207  10.272  15.084  11.121
 6608W        W77208   6.312  15.757   0.793
 6609W        W77209  17.285  32.062   4.945
 6610W        W77210  30.953  42.610  10.225
 6611W        W77211  32.004   5.355  14.733
 6612W        W77212  33.102   3.158  11.097
 6613W        W77213  42.691  13.911  11.422
 6614W        W77214   7.937  36.827  11.909
 6615W        W77215  30.042   6.760  13.568
 6616W        W77216  23.004  34.277   1.846
 6617W        W77217  17.708   0.387   4.255
 6618W        W77218  17.737  27.924   3.107
 6619W        W77219  33.573  24.061  10.355
 6620W        W77220  23.797   3.256   1.755
 6621W        W77221  12.224   2.912  13.516
 6622W        W77222  26.427  15.629   0.512
 6623W        W77223   5.281  26.662  12.434
 6624W        W77224  33.940  13.402  13.187
 6625W        W77225  26.158  32.556   4.627
 6626W        W77226  15.677  20.128   4.158
 6627W        W77227  30.576  26.380  10.924
 6628W        W77228  43.312  27.138   3.981
 6629W        W77229  36.960  35.041  11.217
 6630W        W77230  38.795  10.376   2.761
 6631W        W77231  38.460  25.611  10.929
 6632W        W77232   7.447  20.094  12.039
 6633W        W77233  10.030   2.130  14.442
 6634W        W77234  17.925  10.267  13.854
 6635W        W77235  31.877   6.298  12.587
 6636W        W77236  41.331  25.786  12.841
 6637W        W77237  11.159  38.311  13.488
 6638W        W77238  40.976  24.011  14.755
 6639W        W77239  29.680  32.898  13.555
 6640W        W77240   7.846  37.765  11.551
 6641W        W77241  43.962   9.965   3.880
 6642W        W77242  39.282   3.502  12.536
 6643W        W77243  18.216   2.445  13.875
 6644W        W77244  30.287   3.102   2.315
 6645W        W77245  10.684  23.852  13.053
 6646W        W77246  32.493  11.968  13.968
 6647W        W77247   2.995  10.207  10.685
 6648W        W77248  16.708  37.407  14.668
 6649W        W77249  16.689  11.362  13.631
 6650W        W77250  20.098  16.359  14.776
 6651W        W77251  15.253  12.582   3.225
 6652W        W77252  17.668  31.769   2.436
 6653W        W77253  25.411  39.314  11.391
 6654W        W77254  44.824  10.266   0.411
 6655W        W77255  43.100  26.149   0.872
 6656W        W77256  18.453  19.203  11.537
 6657W        W77257   0.882   0.831  14.085
 6658W        W77258  37.536  38.290  12.115
 6659W        W77259  20.431   5.434  10.520
 6660W        W77260  31.007  42.560  12.029
 6661W        W77261  39.477  20.926   3.321
 6662W        W77262  25.667  28.090   3.224
 6663W        W77263  18.015  24.526  11.092
 6664W        W77264  18.814  42.029   0.948
 6665W        W77265   0.868  19.000   0.429
 6666W        W77266   7.148  18.588  14.555
 6667W        W77267  44.457  24.714   4.579
 6668W        W77268  22.895  35.676  12.108
 6669W        W77269  42.078  22.191   0.543
 6670W        W77270   5.006   2.317  11.052
 6671W        W77271  37.586   7.039   4.108
 6672W        W77272  30.006  32.294   0.823
 6673W        W77273  22.942   3.442  14.364
 6674W        W77274  28.406   9.376  11.588
 6675W        W77275  25.302  16.088   1.885
 6676W        W77276  20.582  41.896   1.862
 6677W        W77277  33.558  27.267  10.061
 6678W        W77278  23.628   3.399  12.567
 6679W        W77279   9.278   5.605   3.216
 6680W        W77280  25.864   1.145  11.898
 6681W        W77281  30.954   4.852   0.343
 6682W        W77282  26.767  23.739  12.499
 6683W        W77283   9.749  32.840  11.664
 6684W        W77284  24.355  40.067   2.158
 6685W        W77285  40.923  30.085  13.465
 6686W        W77286  26.183  27.638   1.402
 6687W        W77287  30.769  10.833  11.388
 6688W        W77288  27.150  31.420   3.293
 6689W        W77289   3.453   9.782   1.949
 6690W        W77290  15.606  20.480   1.231
 6691W        W77291  13.006  14.649  13.723
 6692W        W77292  27.206  31.639  14.320
 6693W        W77293  26.669  14.201  13.033
 6694W        W77294  34.456  38.405  14.765
 6695W        W77295  12.227  20.289   3.699
 6696W        W77296  15.953  17.882  14.776
 6697W        W77297  14.527  20.054  14.262
 6698W        W77298  28.236   8.206   0.522
 6699W        W77299   1.118  42.381   2.392
 6700W        W77300  15.585  14.806   0.284
 6701W        W77301  39.469  10.687  14.537
 6702W        W77302  42.800  35.162   4.968
 6703W        W77303  32.394  30.092  11.560
 6704W        W77304  43.093   1.128   5.021
 6705W        W77305  15.701  32.992  12.767
 6706W        W77306  24.013   7.347  11.478
 6707W        W77307   5.587  40.521  12.526
 6708W        W77308   1.860  15.585  13.045
 6709W        W77309  36.186  17.169  13.490
 6710W        W77310   5.417  27.030   4.149
 6711W        W77311  43.269  21.260   0.736
 6712W        W77312  17.608  13.485   2.210
 6713W        W77313  38.298  41.426  12.506
 6714W        W77314  28.210  43.969   2.977
 6715W        W77315  21.471  33.674  10.715
 6716W        W77316  34.179  24.727   3.778
 6717W        W77317  31.961  24.021  11.555
 6718W        W77318  31.542   5.197  14.930
 6719W        W77319   4.881   0.078   4.590
 6720W        W77320  33.152  31.110   2.896
 6721W        W77321  15.260  16.176   1.920
 6722W        W77322  18.511  23.546  14.329
 6723W        W77323  14.109  24.588   0.947
 6724W        W77324   3.197  15.206  10.584
 6725W        W77325  22.535  38.587   3.162
 6726W        W77326  11.156  26.278  14.458
 6727W        W77327  25.630  42.929   4.530
 6728W        W77328  17.634  26.193  12.135
 6729W        W77329  39.475  22.678   1.155
 6730W        W77330  40.503  19.367   3.173
 6731W        W77331  40.946  27.458  10.618
 6732W        W77332  31.613  35.135  13.822
 6733W        W77333   4.973   2.367  12.046
 6734W        W77334  26.661  41.434   2.709
 6735W        W77335   1.809  37.927   2.086
 6736W        W77336   1.739  32.800   2.131
 6737W        W77337  11.817  22.488  14.940
 6738W        W77338   2.854  19.704  11.089
 6739W        W77339  15.056  12.283  11.161
 6740W        W77340  27.446  23.134  12.897
 6741W        W77341  20.111   5.284   1.374
 6742W        W77342  13.140  24.274  13.203
 6743W        W77343  28.537   4.260   0.533
 6744W        W77344   8.709  18.067   1.378
 6745W        W77345   5.213  22.286   2.920
 6746W        W77346   9.241  40.017  11.111
 6747W        W77347  20.764  21.154  11.663
 6748W        W77348  20.934  27.737   0.929
 6749W        W77349   7.836  44.084  13.542
 6750W        W77350  13.204  31.974   4.041
 6751W        W77351  18.820  11.648   3.877
 6752W        W77352  27.764   1.382   2.257
 6753W        W77353  23.725  14.886   1.872
 6754W        W77354  36.100  40.465  14.895
 6755W        W77355  22.143  44.916  14.971
 6756W        W77356   7.416  19.185   3.345
 6757W        W77357  10.299   5.771  12.369
 6758W        W77358  32.712  16.783   3.791
 6759W        W77359  15.065   3.428   0.175
 6760W        W77360  30.938   4.428   3.748
 6761W        W77361  10.271   1.694  12.535
 6762W        W77362  42.637  28.439  10.681
 6763W        W77363  33.891  41.324   3.665
 6764W        W77364   0.765  30.851  13.719
 6765W        W77365   1.958  42.339  11.698
 6766W        W77366  34.880  23.723   4.207
 6767W        W77367   1.230  29.302  13.155
 6768W        W77368  11.630  15.215   2.853
 6769W        W77369  39.892  26.599   0.989
 6770W        W77370  25.078   1.791  13.491
 6771W        W77371   5.435  16.193  14.302
 6772W        W77372  27.991  20.065  13.945
 6773W        W77373  27.638  21.451   3.190
 6774W        W77374  11.446  24.453  12.453
 6775W        W77375  40.610  20.717  10.100
 6776W        W77376  13.199  32.501   2.203
 6777W        W77377  22.053  10.337   0.456
 6778W        W77378  22.135  41.897  10.498
 6779W        W77379   7.184  44.428   3.650
 6780W        W77380  15.099  23.782  13.937
 6781W        W77381   7.383   7.338   2.156
 6782W        W77382  29.521  17.298   3.478
 6783W        W77383  43.231  44.312  14.363
 6784W        W77384   2.920  25.708   1.795
 6785W        W77385   1.198  19.617  12.982
 6786W        W77386  40.711  37.567   5.096
 6787W        W77387   9.256   7.375  10.789
 6788W        W77388  36.806  30.081  11.655
 6789W        W77389   9.362  11.233   1.878
 6790W        W77390  14.054   6.142  11.120
 6791W        W77391  12.083  22.184  10.670
 6792W        W77392  17.565  40.387   3.714
 6793W        W77393  24.452  14.776   0.958
 6794W        W77394  32.150  23.131  13.551
 6795W        W77395  31.302  30.568   1.946
 6796W        W77396  31.681  20.366  12.578
 6797W        W77397  36.113  44.879   2.208
 6798W        W77398  34.240  35.770   3.257
 6799W        W77399  39.442  13.177  10.531
 6800W        W77400  42.289  26.238  13.741
 6801W        W77401  23.178  13.908  11.985
 6802W        W77402  31.112  40.556  12.903
 6803W        W77403  13.665  38.266   0.043
 6804W        W77404  38.356  21.485  12.058
 6805W        W77405  41.296   8.321  12.014
 6806W        W77406   0.375   1.708   2.654
 6807W        W77407   8.888  35.166  12.069
 6808W        W77408  18.158  14.562  12.556
 6809W        W77409  14.853  23.258  13.454
 6810W        W77410   8.906   2.817  10.914
 6811W        W77411  22.300  29.374  14.731
 6812W        W77412  18.898  14.794   0.919
 6813W        W77413  16.639  42.525   1.989
 6814W        W77414  38.835  15.712   2.177
 6815W        W77415  19.487  39.475  13.652
 6816W        W77416   4.579  42.450   3.540
 6817W        W77417  32.937  41.814   0.704
 6818W        W77418   1.278  22.635   2.380
 6819W        W77419  43.434  28.703  13.338
 6820W        W77420  32.309  15.423  11.137
 6821W        W77421  10.148   9.007  13.357
 6822W        W77422  11.103   1.700  14.792
 6823W        W77423  36.601  14.375   2.742
 6824W        W77424  39.854  29.254  10.710
 6825W        W77425  31.679  10.786  11.984
 6826W        W77426   5.687  29.905   3.597
 6827W        W77427  42.805  18.572   1.808
 6828W        W77428  35.558  31.103  14.264
 6829W        W77429  25.143  36.166   3.302
 6830W        W77430  31.396  25.887   3.127
 6831W        W77431   1.305   9.677   0.605
 6832W        W77432  12.275   4.645  11.623
 6833W        W77433   1.804  38.115  12.307
 6834W        W77434  28.110   6.448  10.637
 6835W        W77435  16.645  25.982  13.957
 6836W        W77436  37.893  44.844  10.758
 6837W        W77437  44.195  38.663   0.149
 6838W        W77438  41.975  44.909   1.235
 6839W        W77439   4.720  22.458   1.606
 6840W        W77440  20.726  42.637   4.608
 6841W        W77441  26.720  25.767   1.353
 6842W        W77442   9.392  10.163  11.052
 6843W        W77443   4.710  42.229  10.659
 6844W        W77444   6.377  24.735   4.114
 6845W        W77445  21.450  16.296  14.257
 6846W        W77446   8.684  24.289  14.943
 6847W        W77447   2.875  11.363   1.831
 6848W        W77448   7.593  38.935   2.295
 6849W        W77449   0.211   5.923  13.867
 6850W        W77450  29.001  15.030   3.622
 6851W        W77451  21.985  17.513   3.844
 6852W        W77452  30.557  28.775   3.805
 6853W        W77453  22.626  26.486   3.269
 6854W        W77454  12.726  40.991   2.767
 6855W        W77455  16.464  34.561  10.600
 6856W        W77456   2.274  40.840   2.228
 6857W        W77457  24.324  27.471   4.155
 6858W        W77458  28.673  26.081   3.527
 6859W        W77459  17.772  41.006  13.562
 6860W        W77460  32.330  23.134   1.697
 6861W        W77461  42.576  42.265  14.038
 6862W        W77462  19.757  25.108   0.425
 6863W        W77463  27.486   6.039   4.627
 6864W        W77464   1.514  27.757  13.886
 6865W        W77465   7.165  28.533  12.834
 6866W        W77466  10.785  38.951  10.540
 6867W        W77467  17.272  17.093  11.720
 6868W        W77468   7.305   3.480  13.374
 6869W        W77469   2.353  15.167  14.398
 6870W        W77470  37.984  28.721   0.674
 6871W        W77471  39.538  17.468   3.933
 6872W        W77472   7.774  14.334   0.367
 6873W        W77473  34.858   7.746  11.887
 6874W        W77474   7.456  39.018  11.233
 6875W        W77475  27.285   4.458  10.906
 6876W        W77476  32.746  24.239  12.039
 6877W        W77477  21.104   8.852  12.228
 6878W        W77478  20.779  13.025   0.227
 6879W        W77479   3.202  32.837  10.652
 6880W        W77480  11.811  33.874  14.904
 6881W        W77481  29.953  12.830  12.580
 6882W        W77482   6.976  19.381  14.436
 6883W        W77483  10.233   3.270  13.349
 6884W        W77484   9.695  21.956   3.547
 6885W        W77485  31.172  22.654  12.947
 6886W        W77486  16.303  23.577  12.484
 6887W        W77487  37.878  28.425  13.466
 6888W        W77488  34.720  31.335   4.236
 6889W        W77489  42.733  11.311  11.106
 6890W        W77490  23.581  15.200   3.891
 6891W        W77491  11.075   7.369  14.585
 6892W        W77492  40.019  22.924  11.198
 6893W        W77493  13.822  26.921   3.288
 6894W        W77494  13.190  14.367  12.491
 6895W        W77495  44.386  38.348   3.310
 6896W        W77496  38.048   2.708   4.261
 6897W        W77497  17.819   2.475   1.746
 6898W        W77498  28.920   7.354   2.938
 6899W        W77499  31.967  33.153   2.900
 6900W        W77500   2.705  44.330   4.289
 6901W        W77501  10.680  10.969  11.570
 6902W        W77502  16.666  26.737  13.430
 6903W        W77503  28.271   0.941  12.888
 6904W        W77504  43.969  37.653   0.310
 6905W        W77505  43.854  17.596  11.652
 6906W        W77506   1.286  17.139   1.452
 6907W        W77507  35.671  27.105  11.604
 6908W        W77508   2.356  36.704   2.326
 6909W        W77509  14.190  34.346  13.103
 6910W        W77510  24.028  16.915   1.298
 6911W        W77511  26.554  25.565  12.392
 6912W        W77512   9.169   8.425   0.261
 6913W        W77513   2.344   3.769  10.968
 6914W        W77514  25.921  34.056   2.347
 6915W        W77515  41.886   2.143   0.745
 6916W        W77516  27.165  44.392   4.756
 6917W        W77517   8.128  11.201  10.688
 6918W        W77518  40.973   1.707   1.011
 6919W        W77519  26.633   1.439  14.524
 6920W        W77520  25.033  20.627  12.195
 6921W        W77521  30.516  17.836  13.356
 6922W        W77522  41.861  29.582   0.153
 6923W        W77523  28.548   6.735  12.554
 6924W        W77524  34.571   9.569   4.784
 6925W        W77525   1.388  31.433  13.299
 6926W        W77526   9.650  14.159  14.438
 6927W        W77527  12.587   8.489  11.127
 6928W        W77528   8.220  42.357   3.621
 6929W        W77529  32.309  42.265   1.332
 6930W        W77530  11.395   5.142   0.773
 6931W        W77531  25.343  34.343   1.127
 6932W        W77532  20.236   1.370  14.979
 6933W        W77533  18.139  38.956   1.748
 6934W        W77534   9.208  39.442  14.197
 6935W        W77535  10.422  35.783   0.305
 6936W        W77536  34.149  43.408  11.708
 6937W        W77537   2.515  26.140  11.688
 6938W        W77538  37.296  10.871  10.844
 6939W        W77539  19.415  41.787  11.633
 6940W        W77540   4.497  43.778   4.157
 6941W        W77541  17.599  19.528  13.922
 6942W        W77542  13.822   5.481  12.962
 6943W        W77543  35.877  41.753   0.765
 6944W        W77544  34.651  16.244   4.635
 6945W        W77545  11.278  33.532  14.879
 6946W        W77546   3.756  13.408   2.088
 6947W        W77547  18.785  17.345  13.407
 6948W        W77548  32.154  38.772  11.230
 6949W        W77549  29.669  30.431  10.815
 6950W        W77550  25.905   4.423   0.208
 6951W        W77551  43.938  42.380  13.461
 6952W        W77552  37.665  14.624  10.981
 6953W        W77553   9.163  13.584  11.481
 6954W        W77554  10.586  38.466   9.965
 6955W        W77555  12.318  16.101   4.598
 6956W        W77556  43.573   1.983  12.104
 6957W        W77557   8.205  16.713  10.720
 6958W        W77558  36.949   8.141   4.660
 6959W        W77559   5.973   7.412  10.691
 6960W        W77560   4.101  17.121  10.557
 6961W        W77561  35.204  14.356  14.017
 6962W        W77562  38.099   4.205  11.592
 6963W        W77563  25.469  44.339  11.146
 6964W        W77564  19.561   7.717   3.210
 6965W        W77565  38.548  41.611   1.466
 6966W        W77566   4.812  26.810  13.008
 6967W        W77567   7.185  44.929   2.818
 6968W        W77568  21.715  38.984   0.306
 6969W        W77569  38.945  40.136  12.194
 6970W        W77570   6.705  43.987   2.690
 6971W        W77571  29.471  19.852  11.275
 6972W        W77572  19.533  44.046  12.353
 6973W        W77573  39.183  12.594   4.031
 6974W        W77574  38.357  19.638   2.468
 6975W        W77575   4.417   9.163  12.897
 6976W        W77576  44.502  37.496   2.795
 6977W        W77577  28.141  19.307  12.836
 6978W        W77578  14.680  27.637   3.707
 6979W        W77579   1.627  43.159   5.140
 6980W        W77580  25.598  24.020  12.055
 6981W        W77581  32.274  36.777   0.271
 6982W        W77582  19.250  21.852  13.690
 6983W        W77583   2.177   9.605  14.471
 6984W        W77584  35.370  30.123  11.507
 6985W        W77585   1.179   5.947   3.343
 6986W        W77586  18.296   8.944  11.709
 6987W        W77587  43.993   2.018  13.770
 6988W        W77588  40.155   1.295   2.273
 6989W        W77589   4.820  34.640   2.788
 6990W        W77590  22.221  27.185   0.970
 6991W        W77591   6.139   5.201   4.050
 6992W        W77592  13.904  33.434  11.564
 6993W        W77593  38.671  42.974  12.006
 6994W        W77594  30.884   3.168   4.096
 6995W        W77595  22.350  34.537   3.643
 6996W        W77596  23.301  40.895  10.998
 6997W        W77597  36.456  10.945  12.633
 6998W        W77598   7.434  30.453  11.589
 6999W        W77599  27.158  16.374   1.112
 7000W        W77600  36.748  43.631   3.724
 7001W        W77601  42.333  22.123   1.495
 7002W        W77602  21.171  29.718   1.697
 7003W        W77603   3.718  43.889   2.761
 7004W        W77604  44.045   3.460   2.324
 7005W        W77605  30.069  32.377  11.334
 7006W        W77606  11.817  16.822   4.670
 7007W        W77607  28.017  20.380  12.021
 7008W        W77608  40.794   5.467   2.361
 7009W        W77609  37.184  42.272  10.628
 7010W        W77610  27.985  36.167  14.406
 7011W        W77611  40.297  25.592  10.430
 7012W        W77612  33.012  18.029   3.435
 7013W        W77613  23.114  27.718  10.590
 7014W        W77614  35.019  10.290   4.598
 7015W        W77615  37.513  14.253   3.082
 7016W        W77616  23.531  36.040  12.039
 7017W        W77617   9.645  38.886   3.869
 7018W        W77618  23.051  15.394  13.838
 7019W        W77619  21.857  20.944   4.195
 7020W        W77620   4.051   8.830  11.710
 7021W        W77621  41.249   4.811  14.039
 7022W        W77622  33.520   6.453   0.060
 7023W        W77623  20.748  20.781  12.068
 7024W        W77624  26.003  40.430   0.214
 7025W        W77625  13.247  34.413   0.876
 7026W        W77626  24.995  20.004   2.790
 7027W        W77627  16.173  35.409   1.677
 7028W        W77628  18.404  17.886  13.910
 7029W        W77629  34.865  37.659   0.797
 7030W        W77630  30.856  19.333  11.873
 7031W        W77631  15.750  25.017   0.770
 7032W        W77632   3.796  29.645  11.584
 7033W        W77633   4.399  15.840   3.611
 7034W        W77634  24.631  36.559   1.643
 7035W        W77635  23.954   5.824  14.287
 7036W        W77636  39.220  26.857  12.647
 7037W        W77637  28.267  19.996   4.851
 7038W        W77638   7.835   2.050  11.179
 7039W        W77639  34.861  12.377   3.628
 7040W        W77640   4.376  25.010  13.015
 7041W        W77641  32.122  24.533   2.374
 7042W        W77642   0.151  24.252  14.973
 7043W        W77643  27.953  30.776  12.873
 7044W        W77644  43.958  38.644  13.870
 7045W        W77645  39.464  17.216  11.427
 7046W        W77646   0.691  15.875  14.445
 7047W        W77647  27.261  35.464   4.208
 7048W        W77648  30.724  38.712  12.442
 7049W        W77649   6.108  17.023  14.010
 7050W        W77650  30.627   1.829   1.537
 7051W        W77651  10.080   5.861  13.771
 7052W        W77652  28.407   2.781   0.841
 7053W        W77653   9.403  42.527   0.038
 7054W        W77654  10.405  15.594  13.456
 7055W        W77655   8.327  39.889   1.762
 7056W        W77656  33.515   7.671   1.431
 7057W        W77657  21.950   3.675   0.826
 7058W        W77658   4.022   3.068   0.711
 7059W        W77659  14.141  31.579  12.166
 7060W        W77660  32.607  10.663   4.092
 7061W        W77661   9.432  26.456  14.774
 7062W        W77662  44.257  36.380   2.329
 7063W        W77663  25.788   0.645   4.916
 7064W        W77664  31.550  12.409  10.634
 7065W        W77665  33.142   1.473   2.854
 7066W        W77666  20.083   9.856  11.127
 7067W        W77667  31.419   1.344   1.151
 7068W        W77668  10.344   6.644  13.799
 7069W        W77669  21.814  28.514  14.861
 7070W        W77670  12.124  19.673   4.836
 7071W        W77671   7.716   1.344   0.145
 7072W        W77672  37.916  33.994   3.238
 7073W        W77673  41.829   9.798  10.688
 7074W        W77674  44.424  41.492  13.094
 7075W        W77675   2.484  10.632   2.608
 7076W        W77676  14.180  37.394   3.662
 7077W        W77677   4.885   8.240   1.454
 7078W        W77678  24.646  39.485  10.680
 7079W        W77679  23.651   3.857   0.877
 7080W        W77680   9.489  38.931   2.590
 7081W        W77681  28.545  20.158   3.214
 7082W        W77682  16.760   7.081   3.493
 7083W        W77683  35.999  11.760   3.190
 7084W        W77684  39.474  20.541  12.135
 7085W        W77685   3.491   4.243  12.607
 7086W        W77686  24.318  39.592  10.286
 7087W        W77687  16.367   7.637  14.707
 7088W        W77688  32.205  16.790   3.773
 7089W        W77689  25.198  11.879  11.199
 7090W        W77690  33.642  39.594   5.868
 7091W        W77691   9.132  23.086   4.475
 7092W        W77692  27.692  34.540   4.946
 7093W        W77693  30.155  28.182  14.470
 7094W        W77694  30.205  40.714   2.326
 7095W        W77695  21.199  28.146   0.696
 7096W        W77696   9.127  12.654   1.177
 7097W        W77697  30.366   8.815  14.854
 7098W        W77698   1.032  42.885   2.194
 7099W        W77699  10.028  16.665   5.126
 7100W        W77700  36.814  38.269  12.527
 7101W        W77701   8.598  30.050   1.962
 7102W        W77702  37.489   8.297   1.726
 7103W        W77703  24.036  17.525   2.129
 7104W        W77704  32.714  14.572   0.024
 7105W        W77705  30.692  30.044  12.153
 7106W        W77706   4.774  33.949   0.757
 7107W        W77707   7.542  32.247  12.931
 7108W        W77708  35.415  13.271  14.777
 7109W        W77709  22.516   1.551  10.646
 7110W        W77710  34.365  22.489  10.737
 7111W        W77711  21.481  17.233   2.363
 7112W        W77712  33.383  25.950  13.100
 7113W        W77713   0.388  18.793  14.312
 7114W        W77714  32.379  20.450  11.182
 7115W        W77715   4.429   6.511   2.325
 7116W        W77716  24.643   8.295   2.753
 7117W        W77717   8.254   6.279   0.344
 7118W        W77718  23.189   6.462  12.187
 7119W        W77719  40.272  25.188  11.147
 7120W        W77720  27.466  34.047   3.892
 7121W        W77721  24.724  21.783  11.276
 7122W        W77722  21.714   8.750  14.032
 7123W        W77723  34.397   3.253  12.967
 7124W        W77724   1.729  19.587  12.846
 7125W        W77725  23.160  24.698   4.166
 7126W        W77726  21.528  21.531   1.850
 7127W        W77727  10.331   4.380   2.275
 7128W        W77728  39.443  23.020   3.825
 7129W        W77729  44.057  43.861   0.190
 7130W        W77730   2.693  31.344   0.819
 7131W        W77731  16.085  32.850   0.748
 7132W        W77732   3.226  44.405  11.213
 7133W        W77733  12.604  44.002   2.869
 7134W        W77734  18.148   5.778   1.186
 7135W        W77735  23.145  26.293  13.327
 7136W        W77736  11.617  23.918  13.501
 7137W        W77737  30.100   9.438  10.774
 7138W        W77738  41.234  31.891   4.644
 7139W        W77739  30.015  26.464   2.751
 7140W        W77740  21.594   3.860  13.860
 7141W        W77741  25.792  14.459  13.149
 7142W        W77742  29.667  41.310   4.887
 7143W        W77743  41.823  25.264  11.136
 7144W        W77744  26.043  24.992   2.808
 7145W        W77745   4.216  27.004   4.311
 7146W        W77746   1.992  24.965   1.430
 7147W        W77747  27.221  34.435  11.252
 7148W        W77748  41.723  42.370  14.855
 7149W        W77749  14.127  25.158   1.701
 7150W        W77750  19.113  40.504   3.340
 7151W        W77751  43.797  35.888  12.799
 7152W        W77752  36.561  27.739   0.022
 7153W        W77753  28.853  29.826  14.740
 7154W        W77754   3.596  36.742   1.126
 7155W        W77755  35.372  18.021   2.870
 7156W        W77756  35.635  33.551   0.450
 7157W        W77757  38.875  31.599  13.342
 7158W        W77758  39.335  15.675   3.447
 7159W        W77759  22.890  34.878   3.078
 7160W        W77760  17.252  33.773  11.975
 7161W        W77761   0.887  36.177   3.657
 7162W        W77762   5.158  15.773  12.057
 7163W        W77763   3.403   2.953  10.726
 7164W        W77764  18.901  25.490   1.196
 7165W        W77765  36.472   3.202   4.302
 7166W        W77766  28.147  44.488  10.922
 7167W        W77767  11.443  30.472  13.829
 7168W        W77768  18.788  19.276  11.121
 7169W        W77769   2.753  43.773   1.853
 7170W        W77770  19.989  23.726   3.157
 7171W        W77771  31.117  33.873  13.952
 7172W        W77772   7.426  10.382  10.802
 7173W        W77773  26.515   6.237  12.794
 7174W        W77774  21.607   5.543  14.478
 7175W        W77775  38.052  28.946   1.524
 7176W        W77776  30.429   0.261  10.649
 7177W        W77777   3.296  33.904   4.184
 7178W        W77778  13.846   8.737   3.537
 7179W        W77779  10.690  21.490   2.374
 7180W        W77780  20.811  14.041   4.442
 7181W        W77781  12.124   7.522  14.377
 7182W        W77782   8.906  29.294   2.717
 7183W        W77783  28.661  18.191   0.469
 7184W        W77784   7.915   4.355  14.243
 7185W        W77785  44.852   8.849  14.771
 7186W        W77786  10.043   6.244  10.659
 7187W        W77787  11.786  25.293  14.965
 7188W        W77788  31.395  10.073   0.068
 7189W        W77789  33.604   2.731   0.380
 7190W        W77790  36.905   5.915  10.952
 7191W        W77791  35.663  10.810  13.952
 7192W        W77792  22.037  39.006   0.718
 7193W        W77793  16.649   5.467  12.423
 7194W        W77794   3.405  23.227   1.833
 7195W        W77795  26.962  30.210  14.867
 7196W        W77796  23.175   4.729   4.173
 7197W        W77797  43.397  24.160  11.943
 7198W        W77798  15.612  24.947   2.256
 7199W        W77799  44.483  25.522   2.300
 7200W        W77800  30.528  43.372  14.226
 7201W        W77801  43.581  27.450  11.929
 7202W        W77802  37.537  26.373   1.623
 7203W        W77803  13.063  27.539   1.852
 7204W        W77804  15.849  25.649   1.262
 7205W        W77805  35.469   6.006   1.634
 7206W        W77806  26.858  25.248   3.826
 7207W        W77807  37.867  13.747   2.314
 7208W        W77808   7.893  36.635  10.757
 7209W        W77809  33.968  35.052   2.220
 7210W        W77810   2.223  30.906   2.806
 7211W        W77811  16.514  40.973   4.184
 7212W        W77812  38.061   1.581  12.646
 7213W        W77813  11.054  32.629   0.307
 7214W        W77814  27.956   6.501   0.367
 7215W        W77815  19.571  11.968   1.188
 7216W        W77816  38.104  44.439   1.294
 7217W        W77817  25.698   5.228  11.612
 7218W        W77818  21.752  40.835   1.620
 7219W        W77819  34.924  28.920  11.631
 7220W        W77820  29.267  17.624  13.317
 7221W        W77821  36.674  41.294   0.447
 7222W        W77822   6.281  38.360  14.089
 7223W        W77823  35.471   2.321   4.763
 7224W        W77824   9.112  32.188   4.773
 7225W        W77825  32.105   7.750  12.982
 7226W        W77826  13.724  13.392   2.176
 7227W        W77827   4.799   7.741   3.242
 7228W        W77828   5.383  32.538  12.481
 7229W        W77829  17.691  44.483   0.226
 7230W        W77830   7.475  42.992  11.266
 7231W        W77831  32.024  18.074   4.548
 7232W        W77832  40.792  40.787  13.951
 7233W        W77833  20.837  38.654  13.016
 7234W        W77834  15.890  18.182   1.219
 7235W        W77835  25.518  39.519   2.491
 7236W        W77836   4.419  37.732   2.850
 7237W        W77837  31.942   4.809   3.261
 7238W        W77838  44.845  31.198  11.303
 7239W        W77839  27.477  20.697  14.806
 7240W        W77840   7.675  26.095   1.833
 7241W        W77841   8.951  20.193   3.059
 7242W        W77842  33.817  31.520  12.331
 7243W        W77843   6.486  39.966   1.858
 7244W        W77844  40.312  32.974  11.066
 7245W        W77845   9.799  35.049  10.437
 7246W        W77846  25.550  21.650  11.814
 7247W        W77847  38.081  27.739  12.032
 7248W        W77848  26.725  38.449  13.917
 7249W        W77849  17.471  35.588   0.812
 7250W        W77850   7.256  16.695  10.854
 7251W        W77851  12.545  36.027  11.031
 7252W        W77852   8.837   4.479  13.853
 7253W        W77853   2.038  18.356  14.822
 7254W        W77854  13.080   6.399  14.978
 7255W        W77855   4.022   0.827  14.057
 7256W        W77856  30.082  37.777   0.251
 7257W        W77857   1.701   6.892  13.343
 7258W        W77858  24.396  31.315  12.099
 7259W        W77859  41.493  39.578   0.014
 7260W        W77860  42.777  28.150  14.309
 7261W        W77861  26.118   4.655   4.130
 7262W        W77862  19.812  26.562   0.836
 7263W        W77863  14.122  11.559   3.790
 7264W        W77864  15.403  31.056  12.404
 7265W        W77865  22.237  17.248  10.474
 7266W        W77866  31.897  35.636   0.847
 7267W        W77867  32.111  14.909   1.518
 7268W        W77868   8.245  19.088   4.588
 7269W        W77869  22.759  37.052   2.813
 7270W        W77870  11.537  16.488  11.660
 7271W        W77871  28.638  12.767  11.164
 7272W        W77872  15.633  44.392   3.610
 7273W        W77873  18.994  10.069  11.345
 7274W        W77874  33.077   3.385   3.595
 7275W        W77875  10.281   5.796   1.641
 7276W        W77876   3.320  29.752  12.477
 7277W        W77877  23.802  37.337  14.655
 7278W        W77878   7.972  42.821   4.992
 7279W        W77879  30.098   3.741   2.917
 7280W        W77880  25.535  30.496   0.909
 7281W        W77881  29.623   9.136   4.651
 7282W        W77882  43.203   2.248  11.874
 7283W        W77883  27.843  37.006   0.278
 7284W        W77884  43.809  19.177  11.255
 7285W        W77885  14.520  38.962  10.592
 7286W        W77886  21.933  32.337   1.696
 7287W        W77887  27.104  21.913   4.701
 7288W        W77888   2.355   2.974  13.310
 7289W        W77889  33.126  15.347  12.955
 7290W        W77890  35.016   9.496  14.845
 7291W        W77891   3.822   4.734   0.721
 7292W        W77892  28.442  18.143  10.692
 7293W        W77893  37.859   0.192   4.584
 7294W        W77894   2.331  32.475   0.491
 7295W        W77895   7.810  13.618  13.418
 7296W        W77896   7.506  17.187  10.522
 7297W        W77897  11.613  29.067   3.163
 7298W        W77898  11.180  28.024   2.377
 7299W        W77899   6.377  14.013  13.833
 7300W        W77900  42.268  16.747  10.759
 7301W        W77901  17.048  35.471   5.315
 7302W        W77902   3.649   5.818  10.992
 7303W        W77903  18.060   0.873   3.135
 7304W        W77904  18.778  22.676  11.351
 7305W        W77905  19.453  35.430  13.549
 7306W        W77906  19.711  35.139   1.745
 7307W        W77907  42.423  43.732   1.629
 7308W        W77908  43.739  20.022   4.955
 7309W        W77909  32.156   3.195  13.334
 7310W        W77910   4.666   2.822  13.122
 7311W        W77911  37.165  42.250   3.133
 7312W        W77912  17.501  19.815   2.254
 7313W        W77913  43.739  12.224   1.217
 7314W        W77914  13.831  35.681  13.944
 7315W        W77915   9.376  29.780  12.292
 7316W        W77916  25.644  13.388   4.610
 7317W        W77917  10.859  43.102   1.649
 7318W        W77918  26.303  21.131   4.582
 7319W        W77919  18.186  38.862  10.641
 7320W        W77920  11.083  22.349  11.589
 7321W        W77921  32.513   0.722   4.344
 7322W        W77922  16.211  38.393   0.787
 7323W        W77923  41.759  20.790  11.449
 7324W        W77924  25.122  37.824   1.102
 7325W        W77925  19.597  28.245   5.233
 7326W        W77926  30.450  28.066   1.301
 7327W        W77927   7.271  12.423   4.691
 7328W        W77928  40.027   7.761   3.829
 7329W        W77929  22.714  12.131   2.741
 7330W        W77930  30.475   5.154  10.710
 7331W        W77931  36.650  35.986  14.041
 7332W        W77932  32.944  38.597   1.832
 7333W        W77933  18.163  11.202  14.822
 7334W        W77934  28.141  14.804  11.612
 7335W        W77935  42.492   8.356  12.637
 7336W        W77936  14.196  36.519  11.700
 7337W        W77937  17.328  23.079   1.308
 7338W        W77938  24.411   6.321   3.335
 7339W        W77939  33.701  13.778  14.582
 7340W        W77940  12.824  24.986  14.479
 7341W        W77941  33.608  36.509  12.178
 7342W        W77942   1.717  44.344  14.093
 7343W        W77943   5.756  32.052  13.877
 7344W        W77944  35.287  21.552  12.481
 7345W        W77945   2.791  32.074  10.645
 7346W        W77946  33.060   6.497   0.363
 7347W        W77947  36.430  23.027  12.373
 7348W        W77948  38.879   2.803  12.013
 7349W        W77949  26.536  15.819   0.996
 7350W        W77950  26.063  12.030  12.457
 7351W        W77951  43.313   2.396  12.357
 7352W        W77952   7.296  14.624  11.269
 7353W        W77953  44.968   7.218   3.361
 7354W        W77954  23.376  27.586   0.417
 7355W        W77955  26.705  36.993  13.311
 7356W        W77956  10.128  21.196   1.323
 7357W        W77957   1.730   6.668   0.659
 7358W        W77958   5.560  38.100  12.742
 7359W        W77959  25.433  14.341  11.840
 7360W        W77960   3.889  16.611   3.571
 7361W        W77961  32.164  31.259  11.389
 7362W        W77962   3.812  36.911  13.764
 7363W        W77963  12.635  14.641   1.721
 7364W        W77964  29.972  10.601   1.400
 7365W        W77965  16.315  42.530   2.916
 7366W        W77966   8.406  17.968  11.111
 7367W        W77967  31.019  44.074   0.694
 7368W        W77968  32.018   0.634  13.007
 7369W        W77969  12.821  27.882   0.085
 7370W        W77970  10.696   7.389  10.793
 7371W        W77971  15.154   6.655   0.950
 7372W        W77972  20.744  16.086   2.378
 7373W        W77973  31.395  12.155   2.274
 7374W        W77974  36.543  13.686   4.162
 7375W        W77975  26.197  41.472  14.362
 7376W        W77976  43.982  43.497  10.678
 7377W        W77977  24.005   5.572   4.827
 7378W        W77978  25.816  20.987  13.538
 7379W        W77979  42.606  27.571  13.123
 7380W        W77980  13.529  42.014  14.584
 7381W        W77981  30.903   2.286  11.100
 7382W        W77982  33.126  16.665  12.922
 7383W        W77983  42.667  21.931   3.666
 7384W        W77984   8.199  13.264  13.068
 7385W        W77985  14.542  11.023  12.030
 7386W        W77986  22.967  25.659  14.817
 7387W        W77987  25.642   6.834  13.980
 7388W        W77988   6.451  11.947   0.486
 7389W        W77989   5.051  43.274   4.759
 7390W        W77990  16.557   8.222  11.516
 7391W        W77991  20.292  17.108   0.292
 7392W        W77992  30.990   5.278   1.186
 7393W        W77993  16.154  17.015   0.625
 7394W        W77994  38.559   0.314  11.897
 7395W        W77995  42.208  27.122   2.905
 7396W        W77996   4.769  15.051   0.294
 7397W        W77997   4.912  18.718  11.231
 7398W        W77998   6.625  43.226  12.941
 7399W        W77999  40.225   3.428  14.818
 7400W        W78000  27.573   1.923  12.592
 7401W        W78001  21.557  33.039   1.318
 7402W        W78002   4.466  39.115   1.457
 7403W        W78003  29.573  39.471  14.758
 7404W        W78004  14.053  31.775  14.503
 7405W        W78005  41.101  44.564  14.768
 7406W        W78006  32.304  21.593  12.045
 7407W        W78007  33.866  40.751  11.666
 7408W        W78008   5.481  44.335   2.759
 7409W        W78009   2.746  29.162  13.965
 7410W        W78010  11.309   2.375   4.302
 7411W        W78011  30.486   0.989  11.828
 7412W        W78012  36.627   0.012  11.341
 7413W        W78013   8.240  37.868   4.007
 7414W        W78014  44.017  38.498  12.537
 7415W        W78015  31.456  37.619   1.894
 7416W        W78016  33.170  43.512   4.569
 7417W        W78017   3.938  37.201  10.289
 7418W        W78018  19.613  11.718  12.065
 7419W        W78019   4.852  15.293   4.531
 7420W        W78020  19.622  18.906   3.217
 7421W        W78021  44.385  22.488   0.809
 7422W        W78022  38.115  39.255   3.157
 7423W        W78023  26.445  11.681  12.985
 7424W        W78024  23.201  12.645   0.225
 7425W        W78025  41.935  10.453   0.962
 7426W        W78026  25.986   2.450   4.907
 7427W        W78027  44.210  15.788   1.893
 7428W        W78028  22.419  29.476   2.287
 7429W        W78029  14.751  27.380   1.244
 7430W        W78030  41.771  11.277   1.254
 7431W        W78031  14.353  16.591  11.133
 7432W        W78032  43.699   1.576   4.480
 7433W        W78033  14.256   1.950   2.198
 7434W        W78034   6.296  33.934   4.648
 7435W        W78035  35.408  34.384  10.635
 7436W        W78036  36.968  28.663  14.871
 7437W        W78037  28.806   7.947  11.443
 7438W        W78038  13.675  34.702  14.156
 7439W        W78039  36.947  34.585  13.912
 7440W        W78040  12.698  10.224  14.450
 7441W        W78041   7.344  41.109   2.334
 7442W        W78042  36.398  15.114  12.080
 7443W        W78043   3.573  13.736   4.598
 7444W        W78044  13.143  37.351   0.424
 7445W        W78045   2.262  12.110  14.788
 7446W        W78046  25.945  23.225   0.034
 7447W        W78047  20.626   2.554   1.852
 7448W        W78048  16.456  21.014  12.417
 7449W        W78049  34.172  34.576  11.100
 7450W        W78050   2.369  25.225   3.339
 7451W        W78051  34.957  22.179   2.468
 7452W        W78052   6.173  33.862  14.677
 7453W        W78053  32.967  35.373  14.123
 7454W        W78054  37.781  25.420  13.599
 7455W        W78055  10.125  20.699   3.344
 7456W        W78056   3.161  16.115  12.978
 7457W        W78057  16.342  11.319   1.914
 7458W        W78058   3.823  27.079   0.297
 7459W        W78059  20.115  26.080   4.232
 7460W        W78060  28.198  28.102  10.288
 7461W        W78061  14.849   5.251  12.926
 7462W        W78062  27.689   7.207  11.101
 7463W        W78063  17.303  36.383   0.429
 7464W        W78064  19.297  42.247  11.889
 7465W        W78065  39.991   3.671  11.570
 7466W        W78066  36.052  33.678   0.745
 7467W        W78067  41.326  29.489  10.732
 7468W        W78068  26.282  14.193  10.242
 7469W        W78069  39.502  44.347  14.759
 7470W        W78070  24.727   4.939   0.010
 7471W        W78071  26.231  21.204  12.880
 7472W        W78072  10.165   5.127   3.302
 7473W        W78073   2.650  10.850   0.143
 7474W        W78074  28.532   2.336   3.619
 7475W        W78075  23.591   0.320   0.005
 7476W        W78076  27.259  39.974  14.992
 7477W        W78077   1.401  31.764  12.310
 7478W        W78078  25.689   8.211   0.030
 7479W        W78079  43.336  41.377   2.227
 7480W        W78080  33.445  30.666   3.089
 7481W        W78081   7.641  39.994   0.529
 7482W        W78082   8.628   6.831   4.166
 7483W        W78083  11.786  28.134  10.007
 7484W        W78084   0.768  14.413   2.657
 7485W        W78085  30.424  21.975  14.461
 7486W        W78086  24.904   8.658  12.579
 7487W        W78087  21.360  25.059  11.147
 7488W        W78088  43.405   9.609   0.977
 7489W        W78089  26.919  33.148   1.193
 7490W        W78090  32.365  33.555  13.487
 7491W        W78091   8.872  38.804  12.388
 7492W        W78092  22.512  41.847  14.293
 7493W        W78093  38.307  29.170  14.933
 7494W        W78094  18.935   5.873   3.271
 7495W        W78095   0.761  20.529  13.561
 7496W        W78096   3.240  34.849   1.479
 7497W        W78097  29.592  29.855  12.509
 7498W        W78098  33.480   1.719  12.481
 7499W        W78099  43.517  40.201   3.578
 7500W        W78100  13.594  39.043  10.752
 7501W        W78101  12.655  40.934   1.583
 7502W        W78102  31.341  24.944   2.223
 7503W        W78103  28.582  26.690   4.602
 7504W        W78104   9.494  43.947   3.701
 7505W        W78105   5.648  18.812   3.761
 7506W        W78106   0.333  20.744  11.524
 7507W        W78107  17.514  21.007  12.493
 7508W        W78108   9.084  20.651   3.278
 7509W        W78109  18.175  17.244   0.499
 7510W        W78110  19.298   8.567   4.183
 7511W        W78111  32.712  36.924   2.640
 7512W        W78112  13.831  12.096  10.727
 7513W        W78113  14.541   9.426   3.790
 7514W        W78114   5.731   8.798   3.576
 7515W        W78115  10.938  41.955   3.528
 7516W        W78116  23.906  26.058   1.299
 7517W        W78117  23.486  12.244  11.444
 7518W        W78118  40.028  29.117   1.174
 7519W        W78119   5.153   1.229  11.235
 7520W        W78120   7.685  13.801   2.742
 7521W        W78121   7.267  38.541   2.320
 7522W        W78122   9.769  23.423   3.324
 7523W        W78123  17.195   1.471  12.073
 7524W        W78124  21.022  27.255   3.265
 7525W        W78125   2.465  29.048  13.562
 7526W        W78126   3.416  38.155  11.558
 7527W        W78127  33.449  28.670  14.822
 7528W        W78128   9.176  28.664   3.026
 7529W        W78129  21.284  16.781  12.094
 7530W        W78130  31.019   3.140   3.135
 7531W        W78131   9.507  27.482  12.605
 7532W        W78132  25.193  10.571   3.873
 7533W        W78133  18.912  34.979   0.470
 7534W        W78134  33.320  28.623   3.308
 7535W        W78135  15.588  14.228  14.314
 7536W        W78136  44.849  17.609  12.946
 7537W        W78137   0.022  16.561   3.198
 7538W        W78138  25.227  18.591  10.947
 7539W        W78139  40.852  12.734  11.212
 7540W        W78140  39.561  26.012   3.617
 7541W        W78141  34.669   2.469  14.958
 7542W        W78142  26.753  25.677   0.391
 7543W        W78143  32.542  44.519  10.797
 7544W        W78144  40.060   0.422  11.077
 7545W        W78145  26.257  20.449   1.076
 7546W        W78146  31.572  24.104   3.744
 7547W        W78147  23.068  26.098   3.722
 7548W        W78148   7.302  40.337  10.643
 7549W        W78149  40.543  22.968   3.295
 7550W        W78150  11.270  11.349   4.732
 7551W        W78151  32.494  38.554  13.464
 7552W        W78152  23.307  18.063   3.321
 7553W        W78153  38.610   9.278  10.567
 7554W        W78154   0.882  10.595   3.768
 7555W        W78155   9.367  20.980  11.671
 7556W        W78156  35.677  18.300  10.975
 7557W        W78157   5.335   0.982   1.915
 7558W        W78158  27.908  14.497   4.123
 7559W        W78159   9.422  15.785  14.002
 7560W        W78160  42.039  37.637  12.122
 7561W        W78161  16.571  34.058   3.683
 7562W        W78162  38.518  44.937   3.640
 7563W        W78163  10.738  24.492   2.050
 7564W        W78164  28.081  26.441  14.318
 7565W        W78165  17.807  15.746  11.385
 7566W        W78166   5.184  26.672   2.892
 7567W        W78167  30.877  18.520  11.158
 7568W        W78168  25.985  10.000   2.773
 7569W        W78169  40.777  25.045   3.121
 7570W        W78170  44.411  19.797  12.830
 7571W        W78171   9.993  12.158   3.586
 7572W        W78172  39.289  44.325  10.499
 7573W        W78173   4.251  15.318   0.056
 7574W        W78174  27.055  37.531   9.900
 7575W        W78175  10.434  28.227  14.588
 7576W        W78176  41.551  23.068   3.351
 7577W        W78177   2.362  26.943   1.834
 7578W        W78178   0.969  16.034   0.817
 7579W        W78179   1.919  30.356   1.241
 7580W        W78180  29.974  24.049   1.383
 7581W        W78181  18.046  13.804  11.140
 7582W        W78182  25.424  26.759  13.882
 7583W        W78183  34.506  17.051   0.758
 7584W        W78184  16.873  11.229  12.946
 7585W        W78185  15.386   3.017  12.496
 7586W        W78186  15.288  33.290   4.516
 7587W        W78187  44.049  15.120  11.646
 7588W        W78188   6.469  16.736  13.425
 7589W        W78189  14.369  17.095  14.178
 7590W        W78190  44.736  32.966   2.226
 7591W        W78191  41.484  22.034  11.611
 7592W        W78192  11.147   7.280  12.917
 7593W        W78193  23.213  39.616   1.988
 7594W        W78194  23.638   4.625   1.815
 7595W        W78195   3.199  36.354  10.853
 7596W        W78196  42.989   4.705  11.321
 7597W        W78197  11.770  39.061   0.867
 7598W        W78198  36.996  33.579  14.886
 7599W        W78199  17.030  31.636  11.893
 7600W        W78200  35.011  43.609   4.108
 7601W        W78201   1.931  17.089  10.715
 7602W        W78202  40.979  28.372  14.892
 7603W        W78203   3.029  12.153  12.486
 7604W        W78204  42.459  32.669  11.063
 7605W        W78205   1.365   9.869   4.131
 7606W        W78206  20.732  38.606   1.444
 7607W        W78207   3.383  16.626  14.006
 7608W        W78208  20.716  24.000   1.913
 7609W        W78209  19.357  13.242  12.421
 7610W        W78210  39.544  37.804  12.424
 7611W        W78211  30.542   1.273   0.774
 7612W        W78212  40.924  21.215  12.455
 7613W        W78213  33.128   1.258  12.497
 7614W        W78214  13.051  34.875   4.052
 7615W        W78215  22.700  21.634  10.597
 7616W        W78216  20.671  28.541  11.979
 7617W        W78217  22.712   3.872   0.272
 7618W        W78218  10.055  21.038  13.210
 7619W        W78219   8.916  21.129  14.990
 7620W        W78220  41.257   1.744   2.864
 7621W        W78221  15.317   1.470   1.372
 7622W        W78222  28.005  42.071   0.294
 7623W        W78223  21.297  42.496  14.439
 7624W        W78224  15.304  33.187   2.410
 7625W        W78225  43.018  31.673  11.763
 7626W        W78226  22.900   2.266  12.070
 7627W        W78227  42.525  28.646   3.299
 7628W        W78228  14.096  33.760   4.214
 7629W        W78229   8.313   8.890   3.081
 7630W        W78230   1.514  13.424  13.572
 7631W        W78231  29.529   3.234   3.293
 7632W        W78232  42.243  25.993   2.183
 7633W        W78233  26.706  44.753  11.445
 7634W        W78234  27.064  17.116  11.599
 7635W        W78235  14.856   8.751  13.573
 7636W        W78236   5.751  23.642  13.975
 7637W        W78237  22.260  38.366  14.896
 7638W        W78238  17.860  19.465   2.712
 7639W        W78239   2.444  28.237  13.927
 7640W        W78240  34.978  43.859   4.560
 7641W        W78241  37.946   5.384  12.644
 7642W        W78242  27.107  37.410  14.978
 7643W        W78243  32.389  10.686  13.109
 7644W        W78244  28.188   2.284   0.928
 7645W        W78245  26.024  27.450  13.775
 7646W        W78246  37.876  19.057  11.931
 7647W        W78247  34.537  23.653  13.890
 7648W        W78248  12.655  10.660   4.435
 7649W        W78249  37.095  28.149   0.871
 7650W        W78250  40.962  10.874   4.107
 7651W        W78251  42.484  28.114   3.249
 7652W        W78252  11.503  19.537   0.319
 7653W        W78253  19.632   6.840  14.880
 7654W        W78254  18.391  18.174  12.969
 7655W        W78255  34.960  33.571  12.585
 7656W        W78256  38.382  19.833   3.632
 7657W        W78257  18.596  30.482  13.890
 7658W        W78258  29.328  10.322  12.944
 7659W        W78259  35.090  13.856   2.790
 7660W        W78260   9.301   4.705  10.662
 7661W        W78261   1.520  35.823   0.823
 7662W        W78262  10.090   5.312   0.287
 7663W        W78263  17.007  34.140  13.008
 7664W        W78264  38.825  10.083  14.942
 7665W        W78265  32.760  26.366  11.205
 7666W        W78266  11.832  28.587   2.322
 7667W        W78267  29.002   1.768  11.555
 7668W        W78268  36.692  17.205  13.549
 7669W        W78269  29.493  25.374  13.139
 7670W        W78270  30.150  27.085   0.867
 7671W        W78271   2.856  12.099   2.844
 7672W        W78272  15.110  42.040  12.295
 7673W        W78273  25.531  13.803  11.946
 7674W        W78274   4.426  11.783   4.992
 7675W        W78275  29.567  26.976   3.608
 7676W        W78276   6.844  16.822   1.157
 7677W        W78277   7.619  29.151   0.904
 7678W        W78278  31.467   5.056   4.253
 7679W        W78279   0.616   6.793  12.534
 7680W        W78280  41.820   7.504   0.377
 7681W        W78281   7.271  21.188  13.383
 7682W        W78282  42.576   4.736   3.289
 7683W        W78283   0.624   6.295   4.647
 7684W        W78284  38.008  42.982  14.367
 7685W        W78285  37.441   8.106  12.419
 7686W        W78286  28.215  23.060  14.387
 7687W        W78287  31.555  41.771  14.451
 7688W        W78288  38.946  26.388   1.303
 7689W        W78289  27.105  43.466   0.219
 7690W        W78290  23.671  41.864  14.073
 7691W        W78291   2.214  26.501  11.907
 7692W        W78292  37.950  29.017  10.610
 7693W        W78293  28.688  11.308   4.094
 7694W        W78294  18.121  13.175   3.130
 7695W        W78295  18.722  24.297  13.561
 7696W        W78296  31.910   6.575   3.789
 7697W        W78297  30.909  18.168   2.777
 7698W        W78298   2.684  31.076   2.247
 7699W        W78299   1.967  32.217  11.025
 7700W        W78300  12.102  15.222  13.397
 7701W        W78301   1.301   0.855   3.325
 7702W        W78302  22.993  36.420   2.683
 7703W        W78303   5.214   2.258  14.966
 7704W        W78304  33.458  38.520   4.244
 7705W        W78305  28.647  17.172  11.740
 7706W        W78306  16.117   7.361   2.865
 7707W        W78307  31.855  13.219  10.332
 7708W        W78308  22.323  32.684   0.880
 7709W        W78309  24.120  40.432   3.347
 7710W        W78310  26.580  23.279  11.032
 7711W        W78311  31.640  32.653  13.948
 7712W        W78312   3.975  23.395  10.617
 7713W        W78313  30.866   0.925   3.220
 7714W        W78314  30.031  40.244  13.447
 7715W        W78315  21.655   2.494  12.431
 7716W        W78316   8.642  25.108   1.882
 7717W        W78317  40.712  29.865  11.091
 7718W        W78318  39.402  37.125  13.415
 7719W        W78319  22.329  36.614  13.527
 7720W        W78320  14.888   4.430  11.439
 7721W        W78321  16.636  16.533  10.591
 7722W        W78322  33.460   5.881   0.904
 7723W        W78323  35.363  10.914  11.068
 7724W        W78324  38.108  36.003  13.855
 7725W        W78325  22.609  32.594  14.498
 7726W        W78326  27.214  10.849  12.320
 7727W        W78327  25.610   2.475   2.011
 7728W        W78328  40.174  29.208  14.321
 7729W        W78329  29.075  43.859   1.874
 7730W        W78330  40.070  19.385  11.565
 7731W        W78331  29.635   9.670   0.335
 7732W        W78332  44.338  40.186   3.889
 7733W        W78333  27.674  19.828   4.177
 7734W        W78334  16.889  27.192  13.508
 7735W        W78335  16.836  38.537   0.812
 7736W        W78336  17.747  29.403   1.677
 7737W        W78337  43.551  20.524   3.588
 7738W        W78338  24.291  11.373  13.482
 7739W        W78339  11.696   6.820   4.691
 7740W        W78340   4.956  15.316  12.188
 7741W        W78341  21.473  42.043  12.942
 7742W        W78342  40.925  22.760   4.688
 7743W        W78343  34.305   2.981   3.405
 7744W        W78344  21.175  20.698   0.840
 7745W        W78345  21.042   0.615  11.653
 7746W        W78346  35.477  28.134  13.844
 7747W        W78347  43.875  28.665   3.652
 7748W        W78348  17.072  17.813  11.040
 7749W        W78349  22.045  37.256   0.874
 7750W        W78350  11.243   4.157   0.050
 7751W        W78351  31.947   5.297   2.194
 7752W        W78352  42.495  21.448   3.750
 7753W        W78353   8.349  20.136  13.968
 7754W        W78354  27.123  23.381   4.541
 7755W        W78355  11.482  16.221  12.900
 7756W        W78356  20.446  36.977  14.920
 7757W        W78357   4.033  34.198  14.105
 7758W        W78358  27.704  25.295   0.302
 7759W        W78359  32.051   7.759   2.979
 7760W        W78360   2.391  16.973   0.447
 7761W        W78361  28.087   4.976   1.660
 7762W        W78362  31.071  23.489   4.334
 7763W        W78363  43.258  25.221   1.724
 7764W        W78364  20.140  24.225   2.463
 7765W        W78365   3.865  38.853   1.662
 7766W        W78366  12.866  22.268   4.426
 7767W        W78367  29.784   1.850   5.036
 7768W        W78368  19.711  27.227   1.231
 7769W        W78369   4.243   8.737   0.029
 7770W        W78370   1.701  18.182  13.639
 7771W        W78371   1.694  38.086   3.709
 7772W        W78372  10.596  39.292   3.676
 7773W        W78373  29.923  23.165   1.926
 7774W        W78374  39.801  14.295   2.269
 7775W        W78375  17.223   4.882  13.908
 7776W        W78376  34.322  31.509  13.445
 7777W        W78377  20.134  28.379   2.622
 7778W        W78378  25.753  41.071  11.968
 7779W        W78379  17.998  24.616  14.256
 7780W        W78380  26.464  43.130  11.011
 7781W        W78381  43.437  31.976  14.108
 7782W        W78382  15.100  25.271   3.474
 7783W        W78383  41.524   3.983  13.045
 7784W        W78384  32.039  27.216   1.319
 7785W        W78385  17.616  28.391   3.289
 7786W        W78386  10.728  19.621  13.038
 7787W        W78387  22.816  31.899  11.537
 7788W        W78388  41.093   3.297   3.859
 7789W        W78389  11.270   5.571   4.617
 7790W        W78390  14.340  31.172   3.378
 7791W        W78391  44.039  16.115  12.529
 7792W        W78392  30.522  32.073  10.079
 7793W        W78393  36.341  36.906  13.661
 7794W        W78394   9.391  25.955  11.371
 7795W        W78395  38.827   7.208  11.213
 7796W        W78396  22.151   6.272  14.896
 7797W        W78397  12.672  42.751   0.089
 7798W        W78398  32.390  25.776  12.057
 7799W        W78399  31.103  22.133  12.937
 7800W        W78400  17.642  40.443   1.746
 7801W        W78401  25.471   8.201   2.707
 7802W        W78402   6.974  40.960  13.173
 7803W        W78403   4.891  41.790  11.413
 7804W        W78404  12.855  31.826  10.732
 7805W        W78405  23.157  27.299  13.383
 7806W        W78406  28.154  11.427  13.937
 7807W        W78407  18.115  41.071  14.505
 7808W        W78408  39.898   4.972   1.809
 7809W        W78409  36.871   6.271  13.870
 7810W        W78410   9.593  29.394  14.356
 7811W        W78411  11.345   5.939   1.679
 7812W        W78412   5.673  20.450   0.559
 7813W        W78413  28.142  37.337   2.782
 7814W        W78414  21.680  24.027   3.306
 7815W        W78415  36.982  24.337  10.375
 7816W        W78416  11.257  15.009   1.822
 7817W        W78417  21.824  44.479   2.731
 7818W        W78418  16.721  37.806  11.979
 7819W        W78419  19.197  19.694   3.335
 7820W        W78420  10.251  20.586   1.838
 7821W        W78421  16.280   3.448  11.641
 7822W        W78422  44.251   9.028  14.102
 7823W        W78423   1.754  28.223   1.864
 7824W        W78424   5.308   3.135   0.729
 7825W        W78425  33.966   1.964  11.563
 7826W        W78426  22.388   0.736   2.374
 7827W        W78427   2.563  16.503   0.408
 7828W        W78428  31.930  39.352   3.881
 7829W        W78429  37.706   9.713  14.774
 7830W        W78430   4.337  31.139  10.416
 7831W        W78431   2.033  30.166   1.723
 7832W        W78432  19.736  30.804   4.261
 7833W        W78433  22.000  36.224  12.005
 7834W        W78434  21.232  16.658  11.162
 7835W        W78435  13.413   5.606  12.047
 7836W        W78436   2.267   8.336   4.711
 7837W        W78437  14.206  29.442   2.386
 7838W        W78438  24.564  35.911  10.767
 7839W        W78439  28.235  10.776  11.392
 7840W        W78440  21.672  39.540   4.947
 7841W        W78441  31.366  29.454   1.238
 7842W        W78442  13.149  35.032   4.549
 7843W        W78443  22.946  42.917  12.496
 7844W        W78444  24.118  20.758  14.084
 7845W        W78445  14.742  24.452   0.220
 7846W        W78446  28.956  24.070   2.905
 7847W        W78447   2.254  28.338  12.482
 7848W        W78448  43.518  27.753   2.461
 7849W        W78449  36.772  16.206  14.909
 7850W        W78450  21.294  13.526   2.246
 7851W        W78451  29.876  19.484   0.910
 7852W        W78452  32.536   3.918   4.468
 7853W        W78453  17.900  35.997   3.164
 7854W        W78454  24.636  34.342   0.445
 7855W        W78455  33.415  23.842   1.385
 7856W        W78456  42.657  40.132   2.256
 7857W        W78457  41.164   2.228   2.778
 7858W        W78458  35.082  11.730  11.489
 7859W        W78459  23.543   0.142   1.362
 7860W        W78460   2.810  23.064   4.721
 7861W        W78461  29.031  28.473  11.896
 7862W        W78462  13.614  37.138   0.549
 7863W        W78463  27.295  18.739   2.283
 7864W        W78464  12.053  11.834   1.839
 7865W        W78465  26.970   3.814   2.389
 7866W        W78466  18.574  32.028  11.685
 7867W        W78467  12.659  36.693   0.611
 7868W        W78468  25.152   5.902  14.022
 7869W        W78469  21.767  35.839  10.611
 7870W        W78470  31.313  32.465   2.625
 7871W        W78471   5.178  13.638   0.471
 7872W        W78472   4.704  43.788  13.065
 7873W        W78473  30.407  11.965   4.059
 7874W        W78474  40.936  20.173   0.194
 7875W        W78475  11.367  40.564   0.319
 7876W        W78476  42.395  44.677   2.076
 7877W        W78477   4.854  16.506  14.777
 7878W        W78478  39.573  44.157   4.625
 7879W        W78479  33.105  17.602  10.545
 7880W        W78480  27.192  34.431   2.310
 7881W        W78481  39.238  10.828   2.437
 7882W        W78482  43.422   9.280  13.378
 7883W        W78483  35.713  12.162  14.459
 7884W        W78484   1.734  38.941   3.150
 7885W        W78485   7.635   1.458   3.231
 7886W        W78486   9.297  16.988   0.427
 7887W        W78487  21.032   1.009   1.835
 7888W        W78488  44.761  42.281  11.958
 7889W        W78489  15.024  13.227   3.747
 7890W        W78490  13.209  19.491   2.637
 7891W        W78491   7.801  29.186   5.320
 7892W        W78492  22.033  21.529  14.499
 7893W        W78493  32.834   6.346  11.106
 7894W        W78494  41.192   0.778   1.313
 7895W        W78495   0.206  21.242  11.529
 7896W        W78496  17.609  41.747  14.960
 7897W        W78497  18.334  38.360  11.806
 7898W        W78498   3.124  28.212   0.779
 7899W        W78499  43.259   0.862   0.371
 7900W        W78500  10.989  35.018   0.491
 7901W        W78501  30.896  28.644  11.467
 7902W        W78502  30.666  27.696   2.398
 7903W        W78503  39.375  37.889  11.913
 7904W        W78504  34.489  30.511  11.372
 7905W        W78505  10.217  41.613   3.831
 7906W        W78506  18.380  40.054  12.957
 7907W        W78507  37.941  38.174  13.439
 7908W        W78508   7.735  10.365  10.385
 7909W        W78509  37.135  30.595  14.365
 7910W        W78510  38.534  16.286  14.296
 7911W        W78511  28.122  22.614  14.119
 7912W        W78512  41.729   4.771   1.390
 7913W        W78513   1.800  26.138  12.036
 7914W        W78514  25.953  15.276  10.706
 7915W        W78515  18.964   1.994  14.929
 7916W        W78516  43.610  38.054   0.405
 7917W        W78517  23.518  15.092  13.856
 7918W        W78518  26.400  29.309  14.984
 7919W        W78519  34.921  34.516   2.470
 7920W        W78520   1.671   7.767   2.758
 7921W        W78521  27.988  12.316   2.762
 7922W        W78522  24.311  42.372   4.600
 7923W        W78523  33.138  11.835   3.158
 7924W        W78524  23.123  26.345   3.277
 7925W        W78525  17.673  30.877  13.933
 7926W        W78526  14.356  44.954  13.001
 7927W        W78527  33.019  42.636   1.219
 7928W        W78528  28.161  10.721  12.842
 7929W        W78529   0.797  28.990   4.633
 7930W        W78530   6.683  27.873   3.557
 7931W        W78531   6.031  14.609   1.847
 7932W        W78532  28.435  22.298  13.835
 7933W        W78533  30.567   8.138  12.118
 7934W        W78534   4.658  39.666  13.974
 7935W        W78535   0.952  19.104  13.985
 7936W        W78536  18.956  15.120  12.531
 7937W        W78537  14.376  24.712   3.325
 7938W        W78538  16.333  35.490  12.095
 7939W        W78539  42.731  29.189   4.758
 7940W        W78540   8.223  11.262  13.412
 7941W        W78541  33.087   8.706   3.314
 7942W        W78542  27.529  21.693  13.285
 7943W        W78543  10.236  22.570   2.289
 7944W        W78544  43.273  37.798   3.142
 7945W        W78545  36.840   0.221  12.502
 7946W        W78546  26.141  18.586   3.616
 7947W        W78547  27.433  26.087   4.537
 7948W        W78548  36.437  16.568   3.643
 7949W        W78549  40.011  29.011   0.661
 7950W        W78550   1.768   2.204   3.322
 7951W        W78551  12.901  17.145  12.095
 7952W        W78552   0.528  10.726  13.939
 7953W        W78553  26.134  18.153   3.315
 7954W        W78554  10.673  39.283   4.595
 7955W        W78555  40.302  32.449   3.211
 7956W        W78556  20.753   5.202   0.546
 7957W        W78557  33.636  29.491  12.552
 7958W        W78558  20.101  26.022   3.723
 7959W        W78559  11.160  33.839   0.280
 7960W        W78560  38.035  26.757   0.772
 7961W        W78561   8.626  44.962   4.707
 7962W        W78562   0.996  39.638   1.902
 7963W        W78563  33.928  26.497   3.155
 7964W        W78564  28.723  20.348   1.936
 7965W        W78565  44.836  29.433   1.430
 7966W        W78566  44.880  21.175  13.764
 7967W        W78567  13.236  34.924  12.894
 7968W        W78568   4.247  16.128   1.378
 7969W        W78569  19.847  35.512   1.388
 7970W        W78570  35.986  30.256   0.755
 7971W        W78571  31.563   0.380  13.037
 7972W        W78572   9.611  16.691  14.904
 7973W        W78573  31.824  26.733   1.329
 7974W        W78574  28.193   0.580   1.792
 7975W        W78575  33.789  25.222   4.534
 7976W        W78576  13.319   0.300  11.468
 7977W        W78577  35.065   6.333  11.593
 7978W        W78578   8.315   4.137   0.885
 7979W        W78579   4.310  26.551   2.151
 7980W        W78580  25.602  36.397   3.169
 7981W        W78581  13.655  29.174  14.416
 7982W        W78582  43.055  25.114   4.789
 7983W        W78583  24.637  12.008   0.119
 7984W        W78584  19.522  21.788  14.547
 7985W        W78585   9.394  41.004   4.613
 7986W        W78586  44.205  27.447   0.473
 7987W        W78587  10.215  18.329   0.807
 7988W        W78588  16.849   3.983   0.292
 7989W        W78589   2.784  31.416  11.192
 7990W        W78590  43.736  24.917  11.637
 7991W        W78591   6.780  34.727  13.942
 7992W        W78592  38.456  23.934  13.136
 7993W        W78593   4.131  33.737   3.817
 7994W        W78594   4.472  10.969  12.960
 7995W        W78595  13.615  40.825   4.903
 7996W        W78596  31.324  18.105  14.085
 7997W        W78597  39.558  30.032   2.821
 7998W        W78598   4.194  39.201   1.889
 7999W        W78599  28.132  16.151  10.675
 8000W        W78600  23.406  16.251  10.645
 8001W        W78601  38.965  32.642  13.844
 8002W        W78602  31.911  37.806  11.574
 8003W        W78603  24.384   1.876   0.158
 8004W        W78604  19.227  20.383  13.708
 8005W        W78605  24.002  12.808  11.227
 8006W        W78606  39.282   4.758   2.219
 8007W        W78607   2.922  42.859  12.436
 8008W        W78608  29.434  18.719   0.488
 8009W        W78609   5.789  39.561  12.434
 8010W        W78610  41.569  32.549  13.955
 8011W        W78611  34.833  39.256   0.153
 8012W        W78612  11.774   5.331  13.967
 8013W        W78613   4.662  36.937   0.764
 8014W        W78614  15.785  17.941  13.443
 8015W        W78615  34.084   1.233  11.765
 8016W        W78616   0.258  13.233   2.573
 8017W        W78617  15.144   0.606   0.887
 8018W        W78618  42.898  20.041  10.698
 8019W        W78619  19.194  42.397   0.630
 8020W        W78620  20.128  25.519   5.369
 8021W        W78621  30.107   0.119  13.984
 8022W        W78622  14.918  36.809  12.118
 8023W        W78623  16.997  11.605   0.339
 8024W        W78624  20.357  40.256  10.672
 8025W        W78625  28.041  14.589   4.604
 8026W        W78626  34.718   5.800   1.421
 8027W        W78627  34.229  22.117  11.905
 8028W        W78628  10.072  31.284  13.548
 8029W        W78629  39.583  26.387   3.200
 8030W        W78630  23.235   2.154  12.920
 8031W        W78631  25.498  13.866  10.614
 8032W        W78632  28.669   4.714   3.738
 8033W        W78633  16.533  25.126  14.978
 8034W        W78634  32.541  15.864   1.704
 8035W        W78635   4.196  22.075  10.664
 8036W        W78636   1.280  13.476   0.022
 8037W        W78637  44.516  23.250   1.496
 8038W        W78638  44.932  38.572   3.241
 8039W        W78639  14.777  38.812   2.654
 8040W        W78640  25.736  30.932  14.825
 8041W        W78641  32.680  28.743  11.988
 8042W        W78642   2.869  23.515  14.042
 8043W        W78643  30.854   1.705   1.998
 8044W        W78644  28.946   5.720  12.080
 8045W        W78645  11.391  24.770  11.179
 8046W        W78646  44.941   5.110  12.234
 8047W        W78647  32.966  32.516   0.934
 8048W        W78648  25.978  30.077   3.694
 8049W        W78649  18.786  23.281  12.549
 8050W        W78650  21.712  25.609   0.414
 8051W        W78651  41.675  40.525  13.799
 8052W        W78652  15.247   0.077   3.209
 8053W        W78653  16.642  29.438   3.667
 8054W        W78654   5.192  16.848  14.938
 8055W        W78655  20.985  17.161  13.034
 8056W        W78656  23.641  39.099  12.496
 8057W        W78657  12.484   7.721   2.398
 8058W        W78658  27.940  18.699   0.926
 8059W        W78659  19.853   3.995  13.756
 8060W        W78660  20.460   8.412   1.792
 8061W        W78661   3.592  34.067   4.572
 8062W        W78662  20.768  36.875   0.334
 8063W        W78663  20.646  36.805  11.876
 8064W        W78664  12.828   4.746   2.304
 8065W        W78665   3.678  13.839  13.971
 8066W        W78666  32.423  21.178   2.377
 8067W        W78667   2.170  14.680  11.223
 8068W        W78668  42.467  22.046  12.730
 8069W        W78669  31.975  15.572  10.378
 8070W        W78670  11.665  39.917   3.960
 8071W        W78671  14.874  25.986  11.291
 8072W        W78672  33.104  36.132  13.382
 8073W        W78673  41.090  44.884   4.527
 8074W        W78674  34.022   6.579   2.646
 8075W        W78675  13.849  17.934  13.418
 8076W        W78676   8.176  20.066  11.567
 8077W        W78677  26.192   8.391   0.904
 8078W        W78678  44.891  24.483   1.306
 8079W        W78679  41.737  21.582   1.607
 8080W        W78680  13.449  23.575   3.470
 8081W        W78681  20.580  29.446   2.353
 8082W        W78682   3.441  29.056   4.348
 8083W        W78683  28.168  21.067   0.768
 8084W        W78684   1.347  14.588  14.395
 8085W        W78685  44.379  19.253   2.181
 8086W        W78686   6.830  21.072   0.701
 8087W        W78687  11.686  33.876   0.416
 8088W        W78688   5.483   2.984   3.159
 8089W        W78689  40.008  27.498   1.224
 8090W        W78690  31.654  18.143   3.300
 8091W        W78691  34.073   2.886  12.273
 8092W        W78692  17.638  15.860   2.767
 8093W        W78693   6.360  43.769   4.128
 8094W        W78694   1.448   1.426   3.701
 8095W        W78695  29.160   3.838   3.750
 8096W        W78696  38.820  23.996  12.019
 8097W        W78697  42.268  41.792  11.387
 8098W        W78698  37.928  39.087   4.899
 8099W        W78699   0.967  21.638   1.711
 8100W        W78700  24.144   3.911   0.739
 8101W        W78701  28.891  41.597   2.603
 8102W        W78702  33.406  35.013  13.286
 8103W        W78703  35.610  32.896  11.690
 8104W        W78704  16.355  37.557   4.599
 8105W        W78705  37.482  31.456   3.419
 8106W        W78706  32.638  20.919   3.746
 8107W        W78707   8.765  25.521   1.190
 8108W        W78708  23.323  22.137  13.388
 8109W        W78709  13.351  40.006   2.330
 8110W        W78710   9.786  28.740   2.418
 8111W        W78711   0.456  26.446  10.059
 8112W        W78712  18.361  28.243   1.165
 8113W        W78713  34.670  43.441   0.316
 8114W        W78714  10.263  34.379   2.666
 8115W        W78715   1.953  32.624  13.421
 8116W        W78716  38.536  22.991  11.999
 8117W        W78717  16.163   8.822   4.396
 8118W        W78718  26.801  42.653   5.026
 8119W        W78719  39.600  19.068   2.351
 8120W        W78720   6.226  34.560  13.504
 8121W        W78721  14.844  17.782   2.403
 8122W        W78722  22.200  11.828  12.037
 8123W        W78723  18.676   7.747   4.282
 8124W        W78724  23.392  23.056   1.828
 8125W        W78725  27.143  41.071  14.405
 8126W        W78726  32.588  14.256   2.685
 8127W        W78727  29.867  13.761  11.709
 8128W        W78728  28.066  15.390   3.771
 8129W        W78729  27.828   2.415  11.235
 8130W        W78730   8.197  41.346   2.794
 8131W        W78731  13.033  14.424   4.275
 8132W        W78732  21.226  36.362  10.454
 8133W        W78733  13.912  44.445  11.078
 8134W        W78734  33.492   6.502   3.219
 8135W        W78735   4.323   6.019  14.444
 8136W        W78736  20.252   9.364  13.658
 8137W        W78737  15.003  27.974   0.332
 8138W        W78738  36.957   1.943   4.662
 8139W        W78739  23.230  23.935  13.303
 8140W        W78740  27.062  35.662  13.524
 8141W        W78741   0.492   8.412   2.219
 8142W        W78742  12.785  31.851  14.086
 8143W        W78743   8.460  40.191  12.497
 8144W        W78744  41.321  30.514  12.990
 8145W        W78745  36.816  26.216   4.497
 8146W        W78746  39.491  37.385  13.898
 8147W        W78747  19.513  26.267  11.911
 8148W        W78748   8.778  19.831  14.042
 8149W        W78749  30.934  33.841  12.407
 8150W        W78750  20.675   3.209  12.135
 8151W        W78751  12.147   2.339   3.742
 8152W        W78752  44.721  15.909  11.162
 8153W        W78753  38.423  43.805   2.135
 8154W        W78754  18.381  41.098  10.351
 8155W        W78755   5.769  35.125  14.396
 8156W        W78756  33.126  25.008  12.609
 8157W        W78757  35.105  29.328   2.375
 8158W        W78758   2.174   5.738  11.089
 8159W        W78759  15.066  30.976   1.817
 8160W        W78760  22.855   0.590   1.319
 8161W        W78761  29.888  10.712   3.603
 8162W        W78762   8.192   8.375  12.672
 8163W        W78763  37.919  39.487   4.544
 8164W        W78764  40.392  42.327  13.312
 8165W        W78765  38.927  17.919   4.920
 8166W        W78766  19.107  32.015  13.829
 8167W        W78767  15.078  28.205   1.278
 8168W        W78768  20.035  35.106  12.789
 8169W        W78769  12.745   4.886  14.425
 8170W        W78770  43.759  18.978   1.577
 8171W        W78771  25.021  43.002   3.173
 8172W        W78772  22.256  39.056   3.217
 8173W        W78773  42.811  26.047  11.931
 8174W        W78774  44.189   7.230   5.130
 8175W        W78775  23.516  27.030  11.549
 8176W        W78776  22.498  15.215   0.999
 8177W        W78777  41.028  36.386  13.806
 8178W        W78778  43.426  11.676   2.910
 8179W        W78779  17.073  44.019   4.057
 8180W        W78780  40.595  20.859   0.817
 8181W        W78781  24.673  15.091  13.117
 8182W        W78782  13.711  38.056   4.887
 8183W        W78783  13.128  44.567   2.078
 8184W        W78784  42.994  42.314   4.264
 8185W        W78785  15.798  35.141   0.529
 8186W        W78786  21.998  33.978   1.404
 8187W        W78787  38.486  17.756  12.212
 8188W        W78788  17.979  44.002  13.698
 8189W        W78789  17.792   6.426  14.578
 8190W        W78790  34.367  27.739  11.167
 8191W        W78791  44.141  23.034  10.980
 8192W        W78792   1.481  23.075  10.711
 8193W        W78793  19.137  26.154  12.789
 8194W        W78794  26.584   2.885   3.394
 8195W        W78795  17.786   2.274   3.141
 8196W        W78796  32.184  35.042   5.012
 8197W        W78797  27.750  39.841  12.405
 8198W        W78798  12.860  12.048  10.719
 8199W        W78799   6.699  34.222  11.944
 8200W        W78800  39.978  21.713   4.397
 8201W        W78801  13.200  11.587  12.534
 8202W        W78802   5.522  12.307  12.552
 8203W        W78803  42.407   9.223   0.547
 8204W        W78804  13.791  41.991  14.145
 8205W        W78805  12.899   6.737   1.952
 8206W        W78806  29.665  23.862  12.526
 8207W        W78807   2.304   9.495   0.814
 8208W        W78808  28.133  36.560  11.948
 8209W        W78809  19.144   2.269   4.503
 8210W        W78810  19.953  34.661  10.158
 8211W        W78811  43.480  20.266   0.825
 8212W        W78812  19.980   3.500   4.148
 8213W        W78813  38.865  37.509   5.108
 8214W        W78814  34.009  12.111  13.415
 8215W        W78815   3.836   9.701   0.760
 8216W        W78816  30.612  11.782  13.248
 8217W        W78817  42.647  18.565   4.152
 8218W        W78818  35.627   1.741  12.980
 8219W        W78819  23.701  19.469  10.939
 8220W        W78820  44.717   7.166  12.424
 8221W        W78821  34.046  42.408   2.240
 8222W        W78822  31.158  28.719   3.128
 8223W        W78823  26.533   8.796   4.442
 8224W        W78824  30.348  30.462   2.365
 8225W        W78825  13.326  31.306   1.130
 8226W        W78826  35.748  26.027   2.855
 8227W        W78827  42.484   7.769  13.107
 8228W        W78828  10.834  31.729  13.774
 8229W        W78829  44.508  33.189   4.394
 8230W        W78830  38.275   3.561  14.855
 8231W        W78831   0.465  28.854   5.052
 8232W        W78832  34.424  16.243   3.107
 8233W        W78833  22.831   1.743  12.105
 8234W        W78834  41.270   3.446   2.396
 8235W        W78835  39.621   9.882  13.365
 8236W        W78836  44.932  33.822  14.392
 8237W        W78837  24.034  37.115   2.194
 8238W        W78838   9.624  32.165  14.133
 8239W        W78839  12.299  18.053   2.654
 8240W        W78840  29.520  33.392  13.840
 8241W        W78841  35.886  35.093   2.352
 8242W        W78842  19.068  40.410   2.829
 8243W        W78843   5.019  22.574   5.103
 8244W        W78844  35.664  36.026  10.736
 8245W        W78845  40.048  24.749  12.714
 8246W        W78846   0.798  21.617   4.267
 8247W        W78847  15.669   5.001  11.062
 8248W        W78848  32.425   4.162  12.554
 8249W        W78849  12.437  16.915  13.486
 8250W        W78850   0.725  17.886  11.549
 8251W        W78851   4.555  13.229   4.647
 8252W        W78852  26.952   7.173  10.606
 8253W        W78853  11.866  44.390  13.270
 8254W        W78854   0.840  16.107   3.316
 8255W        W78855  24.086   1.465  11.037
 8256W        W78856  28.276  22.623   2.842
 8257W        W78857  22.571  32.465   0.388
 8258W        W78858  18.726  44.326   0.260
 8259W        W78859  31.166  42.267   1.751
 8260W        W78860  25.908  26.441  11.787
 8261W        W78861  32.446   3.515   0.970
 8262W        W78862  20.016  16.678  13.931
 8263W        W78863  23.770   5.272  14.176
 8264W        W78864  34.891  35.923   4.666
 8265W        W78865  34.442   2.573   2.723
 8266W        W78866  13.021  34.007   3.243
 8267W        W78867   9.182  39.334   2.757
 8268W        W78868   4.319  28.235   2.785
 8269W        W78869  27.410  40.095  11.520
 8270W        W78870  14.278  33.793  11.563
 8271W        W78871  33.229  16.249  10.782
 8272W        W78872   4.290   1.308   5.129
 8273W        W78873  35.350  22.527   2.778
 8274W        W78874  12.293   6.426   0.259
 8275W        W78875  42.523  39.777  13.586
 8276W        W78876   7.155  33.102   1.265
 8277W        W78877  11.430   8.400   2.181
 8278W        W78878  15.499  15.339   1.855
 8279W        W78879  19.355   0.805  14.477
 8280W        W78880  11.261  27.054   3.618
 8281W        W78881  37.552  43.768  11.645
 8282W        W78882   6.928  25.935   4.222
 8283W        W78883   6.524   5.125   1.379
 8284W        W78884  42.863   3.902  13.567
 8285W        W78885  21.390  19.137  12.570
 8286W        W78886   8.913  38.613  10.397
 8287W        W78887  41.216  25.957   1.597
 8288W        W78888  17.051  25.469   9.797
 8289W        W78889   0.027   2.546  12.060
 8290W        W78890  25.262  10.918  12.859
 8291W        W78891   7.099   4.388  11.658
 8292W        W78892  36.287  35.056  11.970
 8293W        W78893  27.156   9.633  11.552
 8294W        W78894  12.990  33.749  13.383
 8295W        W78895  24.610   9.106   2.334
 8296W        W78896   4.356  25.999  11.723
 8297W        W78897  31.831  36.333  13.160
 8298W        W78898  18.246  23.710   5.056
 8299W        W78899   8.578  36.355   0.223
 8300W        W78900  30.062  25.005   1.292
 8301W        W78901  30.398   6.756   3.263
 8302W        W78902   5.869  23.722   3.067
 8303W        W78903   1.786  25.746  11.667
 8304W        W78904  37.969  36.413   0.409
 8305W        W78905  13.812   5.893   3.283
 8306W        W78906  29.490  20.790   4.207
 8307W        W78907  14.544  39.471  11.509
 8308W        W78908  32.102  14.099  10.653
 8309W        W78909  40.102  31.985  12.539
 8310W        W78910   4.818  15.304   2.434
 8311W        W78911  23.402   3.365   2.324
 8312W        W78912  10.544  21.999   1.667
 8313W        W78913  20.736  16.662  10.971
 8314W        W78914  18.010  21.606  13.197
 8315W        W78915  24.578  42.535  10.722
 8316W        W78916  36.904  39.436   2.468
 8317W        W78917   0.503  17.346   3.266
 8318W        W78918  16.592  29.914  13.822
 8319W        W78919  30.413  33.113   0.473
 8320W        W78920  20.593  21.765  12.214
 8321W        W78921  28.464  19.476   0.324
 8322W        W78922  19.740  21.722  11.687
 8323W        W78923  18.511  10.745  11.753
 8324W        W78924  43.826  21.565  14.982
 8325W        W78925   8.639  29.133   0.002
 8326W        W78926  31.444  30.611  10.446
 8327W        W78927  13.348   3.422  13.865
 8328W        W78928  10.444  11.150   4.490
 8329W        W78929  17.568   9.773   1.297
 8330W        W78930  27.220   7.926  13.249
 8331W        W78931  34.483  21.488   2.743
 8332W        W78932  31.525  44.541  14.884
 8333W        W78933   7.596  30.497  14.675
 8334W        W78934   5.368  24.194   4.257
 8335W        W78935  17.537  33.459   1.719
 8336W        W78936  25.187   2.930  14.956
 8337W        W78937   6.387   5.305  13.895
 8338W        W78938   8.309  34.886  13.297
 8339W        W78939   6.333  13.165   1.323
 8340W        W78940  40.427  37.018  11.603
 8341W        W78941   3.937  27.565   3.259
 8342W        W78942  36.696  23.893   2.536
 8343W        W78943  23.033  12.822  12.806
 8344W        W78944  25.122   6.896  10.926
 8345W        W78945  20.758  19.243  10.629
 8346W        W78946   4.244   6.521   2.830
 8347W        W78947  35.591  23.031  14.926
 8348W        W78948  43.923  33.278  14.486
 8349W        W78949   5.805  28.444  10.501
 8350W        W78950   7.394  44.930  13.801
 8351W        W78951   5.029  11.955   1.631
 8352W        W78952  27.994  38.660   0.153
 8353W        W78953  24.051  27.915  12.011
 8354W        W78954  32.154   2.052   2.510
 8355W        W78955  43.547  38.309   1.244
 8356W        W78956  11.588  35.013   3.184
 8357W        W78957  35.292  27.016   0.828
 8358W        W78958   5.520  22.543  11.537
 8359W        W78959  26.110  20.958   1.198
 8360W        W78960   7.336  14.060   1.664
 8361W        W78961  31.843  28.524  11.791
 8362W        W78962  36.919  24.072  11.208
 8363W        W78963  43.730  33.795  14.414
 8364W        W78964  30.576  37.840  11.904
 8365W        W78965  34.004   3.789   2.298
 8366W        W78966   3.247  39.013   0.425
 8367W        W78967  16.034  15.244  12.418
 8368W        W78968  11.053   9.715   0.504
 8369W        W78969  26.855  22.092  10.265
 8370W        W78970  25.532  10.273   4.615
 8371W        W78971  36.444   2.893  14.060
 8372W        W78972  40.295  17.627  14.385
 8373W        W78973  18.087  20.169  11.366
 8374W        W78974  19.545   4.238  11.609
 8375W        W78975  23.779  20.814  12.088
 8376W        W78976   5.354  23.806  10.475
 8377W        W78977  21.375  35.580  11.562
 8378W        W78978  21.024  14.673  13.137
 8379W        W78979  30.967  33.456  14.855
 8380W        W78980  21.313  20.771  12.048
 8381W        W78981   3.267  33.001   0.461
 8382W        W78982  33.043  33.524  11.903
 8383W        W78983  10.735  16.291  10.620
 8384W        W78984  43.398  44.242   1.406
 8385W        W78985   8.454   0.098  13.958
 8386W        W78986  12.297  15.876   4.124
 8387W        W78987  14.358  10.367   3.316
 8388W        W78988  11.815  39.864   3.462
 8389W        W78989   2.847  16.041  14.314
 8390W        W78990  27.323  23.705   1.346
 8391W        W78991  35.048  26.746  14.333
 8392W        W78992  12.623  28.626   0.733
 8393W        W78993  15.278  15.410   3.171
 8394W        W78994  14.059  34.039   9.823
 8395W        W78995   3.156  21.055   2.556
 8396W        W78996  10.724  10.868  14.362
 8397W        W78997   7.380  36.384   0.794
 8398W        W78998  16.053  30.958  11.595
 8399W        W78999  15.045  35.594   5.030
 8400W        W79000  42.492   9.870  13.806
 8401W        W79001  11.034  31.011   1.039
 8402W        W79002  21.723  24.315   0.887
 8403W        W79003  29.107  21.369   1.369
 8404W        W79004   4.348  33.799   1.985
 8405W        W79005   9.596  13.269  11.239
 8406W        W79006  38.097  11.700  10.672
 8407W        W79007  42.224  20.730   1.861
 8408W        W79008   1.930  13.236  10.610
 8409W        W79009  37.210  11.458   2.768
 8410W        W79010  31.350   3.396  14.308
 8411W        W79011  41.571  35.966  13.338
 8412W        W79012  23.117  30.420   1.247
 8413W        W79013  27.959  28.364   4.189
 8414W        W79014   8.103  39.890   2.259
 8415W        W79015  13.557  10.542   2.312
 8416W        W79016  35.785  19.022   2.613
 8417W        W79017   3.327  13.753  14.370
 8418W        W79018  31.008  30.219   3.169
 8419W        W79019  10.824  27.350   2.290
 8420W        W79020  31.918  17.802   4.088
 8421W        W79021  21.071  20.538   4.045
 8422W        W79022   6.635  24.521   0.714
 8423W        W79023  30.649  31.907   1.187
 8424W        W79024  31.539  44.528  10.654
 8425W        W79025   3.693  38.181   0.269
 8426W        W79026  18.704  25.389  10.700
 8427W        W79027   4.683  16.421  13.887
 8428W        W79028  25.786  23.073  13.853
 8429W        W79029  13.917  28.716  14.475
 8430W        W79030  24.410   6.781  13.477
 8431W        W79031  24.956   0.088  14.941
 8432W        W79032  43.469  34.033  11.008
 8433W        W79033  41.243  38.072   4.581
 8434W        W79034  44.114  25.140   2.140
 8435W        W79035   1.018   5.322   4.295
 8436W        W79036  35.810   1.877   5.075
 8437W        W79037  10.805  25.986   1.231
 8438W        W79038  34.968   7.730  11.389
 8439W        W79039  17.977  13.892   4.199
 8440W        W79040   3.538   2.682   0.853
 8441W        W79041  28.506   1.715  13.617
 8442W        W79042  44.531  23.889   3.255
 8443W        W79043  12.369  37.312   3.091
 8444W        W79044  17.043  36.637  12.270
 8445W        W79045   1.405  12.399   0.464
 8446W        W79046   7.377  34.780  11.208
 8447W        W79047  23.729  10.453   2.908
 8448W        W79048  31.131  18.230   4.653
 8449W        W79049  37.044  28.068  11.138
 8450W        W79050  19.036  30.628  10.678
 8451W        W79051  42.290  16.485   3.716
 8452W        W79052  15.742  16.183  13.507
 8453W        W79053  35.974  28.291  13.792
 8454W        W79054  11.343  19.163  12.750
 8455W        W79055  26.599  22.817   4.980
 8456W        W79056   6.236  36.394   0.928
 8457W        W79057  24.991  29.655   0.686
 8458W        W79058  18.609  25.422   1.629
 8459W        W79059  44.347  18.309   3.167
 8460W        W79060   8.992  30.113   1.121
 8461W        W79061  43.761  30.003  11.617
 8462W        W79062   2.092  33.941  14.327
 8463W        W79063  40.810  35.157   4.234
 8464W        W79064  19.448  33.355   1.632
 8465W        W79065  18.049  39.802  10.995
 8466W        W79066  21.168  44.034   9.824
 8467W        W79067   6.184  27.682  14.347
 8468W        W79068  39.681  42.051  11.653
 8469W        W79069  14.714  21.558   4.431
 8470W        W79070  38.164  28.506  11.270
 8471W        W79071  28.207  12.668  12.098
 8472W        W79072  36.444  10.869   3.685
 8473W        W79073   8.442  23.478  11.167
 8474W        W79074  29.409   8.130  12.424
 8475W        W79075   3.254  12.239   3.172
 8476W        W79076  11.339  32.890   2.810
 8477W        W79077  39.030  38.057  10.103
 8478W        W79078  37.495  24.414  13.441
 8479W        W79079  13.160   3.255  10.690
 8480W        W79080  28.240  32.619  12.566
 8481W        W79081  30.361  42.434  14.044
 8482W        W79082   6.338   8.240  11.019
 8483W        W79083  20.570   2.890  12.946
 8484W        W79084  13.130  29.450  11.205
 8485W        W79085  36.788  38.566   2.795
 8486W        W79086  29.149   5.610  13.886
 8487W        W79087  31.924  31.424   1.356
 8488W        W79088  14.753  43.962   1.284
 8489W        W79089  38.834  17.265   3.203
 8490W        W79090  35.124   8.341   1.350
 8491W        W79091  22.809  36.527  14.554
 8492W        W79092  19.432   9.934  11.107
 8493W        W79093  14.697  23.034   0.192
 8494W        W79094  36.191  22.610   0.827
 8495W        W79095   6.793   8.849   0.825
 8496W        W79096   3.053  31.670   3.192
 8497W        W79097  43.284  24.345  12.394
 8498W        W79098  24.087  10.676  10.605
 8499W        W79099  22.771  10.257  11.267
 8500W        W79100   1.325  24.817   4.054
 8501W        W79101   2.422  19.535  11.546
 8502W        W79102  10.232  12.360   1.208
 8503W        W79103  28.859  17.810   2.314
 8504W        W79104  42.896   9.233  14.313
 8505W        W79105  38.889   6.498  11.506
 8506W        W79106   3.481  29.265  12.579
 8507W        W79107  33.886   1.526   0.828
 8508W        W79108  21.577  17.621  13.471
 8509W        W79109  10.162  19.249  13.523
 8510W        W79110   4.895   6.900  11.147
 8511W        W79111  11.343   0.456   3.424
 8512W        W79112  31.184  20.510  12.893
 8513W        W79113  39.069   7.290  12.933
 8514W        W79114  26.698  11.308   4.169
 8515W        W79115  35.884  39.306  12.993
 8516W        W79116  16.114  37.372   4.157
 8517W        W79117  10.200   2.415   4.081
 8518W        W79118  25.897  13.004  11.478
 8519W        W79119  28.436  38.793  10.513
 8520W        W79120  36.826   7.856   2.906
 8521W        W79121  14.130  21.998  12.507
 8522W        W79122   5.416  24.208   1.279
 8523W        W79123  34.944  18.622  10.785
 8524W        W79124  21.910  10.612  10.233
 8525W        W79125   3.202   3.528  13.333
 8526W        W79126  38.747   5.044  10.771
 8527W        W79127  16.052   3.922  13.858
 8528W        W79128  36.850  41.841  10.769
 8529W        W79129   0.821  27.371  14.449
 8530W        W79130  39.869  11.151  13.108
 8531W        W79131  22.158  14.614   2.322
 8532W        W79132  17.161  10.364   2.667
 8533W        W79133   0.293  19.610   0.847
 8534W        W79134  10.191  21.600   0.444
 8535W        W79135  27.033   2.754  12.650
 8536W        W79136  36.602   2.292   3.127
 8537W        W79137  12.288   4.611  12.973
 8538W        W79138  44.796   1.020   4.499
 8539W        W79139   2.533  16.586  12.090
 8540W        W79140  40.335  29.057  13.842
 8541W        W79141  26.599  12.073  12.061
 8542W        W79142  34.805  44.254  10.040
 8543W        W79143   2.447   6.858   0.075
 8544W        W79144  12.072  16.540  13.544
 8545W        W79145  37.218   0.951   1.408
 8546W        W79146  22.230  42.974  13.022
 8547W        W79147  14.341   2.062  11.193
 8548W        W79148  44.356  12.929   4.620
 8549W        W79149  19.300  22.783   4.492
 8550W        W79150  34.854  19.851  13.697
 8551W        W79151  16.563  14.098   2.403
 8552W        W79152  34.574  18.002  14.608
 8553W        W79153  24.173  16.407   0.580
 8554W        W79154  43.733  10.898   0.256
 8555W        W79155   4.460  22.031  11.111
 8556W        W79156  37.995  42.739  14.812
 8557W        W79157  14.113  29.940  14.701
 8558W        W79158  20.422   6.706  13.569
 8559W        W79159  29.214   6.691   3.662
 8560W        W79160   5.868  26.250  13.310
 8561W        W79161  16.135  11.202  14.540
 8562W        W79162  17.706  10.282   1.183
 8563W        W79163   5.267  15.930   4.081
 8564W        W79164  23.936   6.900  13.325
 8565W        W79165  14.055  10.751   2.417
 8566W        W79166   2.717   8.606   3.188
 8567W        W79167  42.837   8.686   4.498
 8568W        W79168  25.467  12.116   3.327
 8569W        W79169  20.564  31.980   0.866
 8570W        W79170  26.204  20.529   2.872
 8571W        W79171  18.598   1.988   0.707
 8572W        W79172  27.138   7.495  12.982
 8573W        W79173  34.017  44.613   0.398
 8574W        W79174  31.052  28.608  13.295
 8575W        W79175  17.667   4.178  11.753
 8576W        W79176  36.340  44.987  12.382
 8577W        W79177  31.647  26.446   2.345
 8578W        W79178  10.437  37.277  10.391
 8579W        W79179  25.504  27.789   1.709
 8580W        W79180  33.039  15.637   0.526
 8581W        W79181  38.465  14.776  14.248
 8582W        W79182  36.637  34.426  11.087
 8583W        W79183  35.258   8.438  14.414
 8584W        W79184  32.231  35.116  12.469
 8585W        W79185   3.766   8.769   1.713
 8586W        W79186  33.999  37.030   0.790
 8587W        W79187  16.239  25.490  10.495
 8588W        W79188  44.002  18.304  13.045
 8589W        W79189   3.521  21.616  10.930
 8590W        W79190  23.058   9.408  12.113
 8591W        W79191  17.849  11.632   1.778
 8592W        W79192  10.316   4.784   1.330
 8593W        W79193  24.591  26.998  12.437
 8594W        W79194  23.140  33.824  12.995
 8595W        W79195   1.353  43.535  13.783
 8596W        W79196  20.021  38.125   4.724
 8597W        W79197  21.073  16.685  10.580
 8598W        W79198  32.165  25.159  14.975
 8599W        W79199  27.214  27.603  14.527
 8600W        W79200  43.431  23.197  14.333
 8601W        W79201  16.210  21.227   1.124
 8602W        W79202  29.114  23.638   1.053
 8603W        W79203  31.089  28.889  13.939
 8604W        W79204   9.154   3.298   5.145
 8605W        W79205  24.609  33.620  12.247
 8606W        W79206  20.129  14.353   1.939
 8607W        W79207  20.098  42.539   2.207
 8608W        W79208  12.749  26.157  14.397
 8609W        W79209  38.537  19.112  14.471
 8610W        W79210  16.891  18.181  13.986
 8611W        W79211  16.577  39.468  10.718
 8612W        W79212   7.823  18.326   0.561
 8613W        W79213  41.797   7.188  11.508
 8614W        W79214  13.216  28.993   1.325
 8615W        W79215  12.171  15.672   0.324
 8616W        W79216  36.850  21.079  13.494
 8617W        W79217   7.447   4.617  11.991
 8618W        W79218  44.053  25.172   3.732
 8619W        W79219  30.981  39.902   1.375
 8620W        W79220  17.139  15.319  14.629
 8621W        W79221  29.975   9.375  12.604
 8622W        W79222  26.769  20.274  11.104
 8623W        W79223   8.872  25.992   4.474
 8624W        W79224   7.757  15.725   4.570
 8625W        W79225  34.510  31.582  12.915
 8626W        W79226  25.751  40.568  11.955
 8627W        W79227  15.609  41.719   0.860
 8628W        W79228   1.785  14.071  13.971
 8629W        W79229  36.225   2.372   0.787
 8630W        W79230  22.193  40.634  14.452
 8631W        W79231   0.043  35.900  12.164
 8632W        W79232  17.701  20.369   3.632
 8633W        W79233  31.372  22.349  12.510
 8634W        W79234  39.956  18.511   3.127
 8635W        W79235  42.929  33.424  13.050
 8636W        W79236  40.433  34.544   4.108
 8637W        W79237  22.722   2.718  13.384
 8638W        W79238  10.252  27.407  11.373
 8639W        W79239  43.216  38.417   2.243
 8640W        W79240  11.030  33.067   4.185
 8641W        W79241  29.265  11.941  14.509
 8642W        W79242   7.876  37.883   1.831
 8643W        W79243   2.397  36.252   4.083
 8644W        W79244  36.372  23.426   0.200
 8645W        W79245  22.876  23.491  12.433
 8646W        W79246  10.536  28.210  11.974
 8647W        W79247  29.030  36.977  11.874
 8648W        W79248   1.203  43.383  12.329
 8649W        W79249  20.055  39.366  14.843
 8650W        W79250  26.162  42.217   4.355
 8651W        W79251  37.813   9.242  13.438
 8652W        W79252  20.186  11.417  12.503
 8653W        W79253  37.241  39.564  14.902
 8654W        W79254   1.412  18.855   3.353
 8655W        W79255  44.195  10.164   1.227
 8656W        W79256   6.973  31.169   2.313
 8657W        W79257  36.804  21.017   2.652
 8658W        W79258   2.234  17.095   1.406
 8659W        W79259  25.187  31.683   1.844
 8660W        W79260  35.155   4.185   0.296
 8661W        W79261   9.779   5.557   3.893
 8662W        W79262  21.035   2.898   3.853
 8663W        W79263  26.110   8.777   4.168
 8664W        W79264   3.445  34.169   3.218
 8665W        W79265  28.240  15.195   2.348
 8666W        W79266   5.673   0.787  12.936
 8667W        W79267   3.072  18.621  14.912
 8668W        W79268   6.295  37.804   0.418
 8669W        W79269   1.525  38.467  11.085
 8670W        W79270   6.013   7.668   1.650
 8671W        W79271   3.889  12.173   2.922
 8672W        W79272   0.063   5.864   2.961
 8673W        W79273  21.997   1.813   2.468
 8674W        W79274  37.636  44.352   4.190
 8675W        W79275   5.504  41.853   1.437
 8676W        W79276  32.456   6.409   2.315
 8677W        W79277  22.258   4.751   4.858
 8678W        W79278  39.253  26.169  14.062
 8679W        W79279  31.862  42.830   3.395
 8680W        W79280  44.523   6.378   3.063
 8681W        W79281  36.749  38.977  14.450
 8682W        W79282  44.069  17.140  13.989
 8683W        W79283   8.716  19.246   5.061
 8684W        W79284  12.571  11.726   1.888
 8685W        W79285   6.819   5.018  13.990
 8686W        W79286   0.834  37.378  12.192
 8687W        W79287  21.670  42.597   0.143
 8688W        W79288  33.412  12.138   4.542
 8689W        W79289   8.137  15.815   1.882
 8690W        W79290  40.919  44.242   1.755
 8691W        W79291  18.650   6.401   3.293
 8692W        W79292  18.596  42.056  10.852
 8693W        W79293  13.570   5.459  13.410
 8694W        W79294  25.217  25.037  12.477
 8695W        W79295  27.022   6.795   4.656
 8696W        W79296  40.360  16.546   0.810
 8697W        W79297   4.443  25.136   3.643
 8698W        W79298  26.909  13.858   3.766
 8699W        W79299  13.206   3.372  14.836
 8700W        W79300  28.179   5.389  10.019
 8701W        W79301  43.251  27.452   1.008
 8702W        W79302  27.685   6.838  11.971
 8703W        W79303  11.946  17.006  13.310
 8704W        W79304  38.412  37.995   4.780
 8705W        W79305   0.942  28.723  12.426
 8706W        W79306   6.177  24.642  13.481
 8707W        W79307   4.736  24.983   0.386
 8708W        W79308  38.780  20.401  13.069
 8709W        W79309  13.065   6.734  14.390
 8710W        W79310  22.998  25.013  14.050
 8711W        W79311   5.238  26.530  12.929
 8712W        W79312  33.983  33.547   0.035
 8713W        W79313  39.770  38.357  13.348
 8714W        W79314  22.857  28.055   1.889
 8715W        W79315   4.142  20.348   2.120
 8716W        W79316  17.405  33.101   3.601
 8717W        W79317   5.345   2.458   1.865
 8718W        W79318  12.754  38.213   3.748
 8719W        W79319  11.731  39.012  13.377
 8720W        W79320  26.642  32.881   3.919
 8721W        W79321  43.431   4.902   2.716
 8722W        W79322  35.864   7.682   2.301
 8723W        W79323  33.152  39.052   3.607
 8724W        W79324   0.305  44.249   2.793
 8725W        W79325  32.551  33.072  13.589
 8726W        W79326  38.919   9.314   1.635
 8727W        W79327  31.674   4.594   4.348
 8728W        W79328  32.303  38.115   0.686
 8729W        W79329  28.992  14.249   3.714
 8730W        W79330  13.154  10.201  12.646
 8731W        W79331  39.080   3.880   1.942
 8732W        W79332  18.107  26.494  14.683
 8733W        W79333   3.236  16.238   2.263
 8734W        W79334  16.749  28.983   2.362
 8735W        W79335  42.873  42.930  11.264
 8736W        W79336  38.844  43.647  10.915
 8737W        W79337  26.631  35.570  12.048
 8738W        W79338   6.952  21.854   3.676
 8739W        W79339  34.325  40.704   1.153
 8740W        W79340  44.806  43.647  12.263
 8741W        W79341  42.799  41.964   0.960
 8742W        W79342  38.049  16.019  11.151
 8743W        W79343  24.330  41.015  14.465
 8744W        W79344  30.198  29.440  13.814
 8745W        W79345   6.988   7.458  12.937
 8746W        W79346   0.292  20.825  12.404
 8747W        W79347  36.988   9.259  14.438
 8748W        W79348   2.926  17.981   0.647
 8749W        W79349  32.626  29.868  11.140
 8750W        W79350  42.428   3.955  13.862
 8751W        W79351   6.161   1.412   4.584
 8752W        W79352  25.001   3.068   2.650
 8753W        W79353   9.737  18.267  13.871
 8754W        W79354  44.050   8.654  14.457
 8755W        W79355  13.637  30.881  13.549
 8756W        W79356  11.589  17.073   1.743
 8757W        W79357  13.029   3.236  14.350
 8758W        W79358  30.204  28.193   4.144
 8759W        W79359  25.971  23.928   0.817
 8760W        W79360  30.135  27.254  12.434
 8761W        W79361  30.566  34.209  13.585
 8762W        W79362  30.618   6.388   0.870
 8763W        W79363  15.112  14.173  13.780
 8764W        W79364  36.045   1.271  13.899
 8765W        W79365  26.471  16.300  11.650
 8766W        W79366  38.034  26.466  10.676
 8767W        W79367  18.793   9.467   2.715
 8768W        W79368   1.877  32.757  12.917
 8769W        W79369  35.615  32.506  13.547
 8770W        W79370  35.827   0.169  12.508
 8771W        W79371  31.734   7.767  14.744
 8772W        W79372  38.278  32.638   2.243
 8773W        W79373  27.131  44.022  12.437
 8774W        W79374  13.479  19.026   0.952
 8775W        W79375  21.455   7.702   3.377
 8776W        W79376  10.371   5.765  11.490
 8777W        W79377  30.558  23.716  12.712
 8778W        W79378   5.697  15.892   0.114
 8779W        W79379   2.443  25.579  10.538
 8780W        W79380   3.783  21.488  11.636
 8781W        W79381  31.877   6.882  14.348
 8782W        W79382  39.941  16.739  12.989
 8783W        W79383  18.278   8.886   2.237
 8784W        W79384  20.238  15.122   0.749
 8785W        W79385  26.720  30.770  13.345
 8786W        W79386  28.340  29.672   2.262
 8787W        W79387  19.032  17.255   1.740
 8788W        W79388  40.577   9.997   3.713
 8789W        W79389  25.080  34.644   0.537
 8790W        W79390   9.256  14.510  13.552
 8791W        W79391  26.095  12.126  14.000
 8792W        W79392  10.426   8.349  13.954
 8793W        W79393   0.897  11.896   2.700
 8794W        W79394   5.930  44.270   0.335
 8795W        W79395  37.915   8.969   1.243
 8796W        W79396  33.556  15.002   0.246
 8797W        W79397   1.450  14.033  12.429
 8798W        W79398   1.354  35.617  13.701
 8799W        W79399  44.012   6.685   0.943
 8800W        W79400  30.724   0.745   4.267
 8801W        W79401  32.109   0.491   0.549
 8802W        W79402  38.444  16.866   3.713
 8803W        W79403  30.135  31.579  12.054
 8804W        W79404  31.658  17.262   0.935
 8805W        W79405  36.952  39.918   1.695
 8806W        W79406  32.974  44.890  11.080
 8807W        W79407  14.973   0.801   2.707
 8808W        W79408  35.342  23.600  14.435
 8809W        W79409  19.357  35.895   2.226
 8810W        W79410   0.783  33.489  14.915
 8811W        W79411   8.914  44.545  11.648
 8812W        W79412  10.753   1.143   2.047
 8813W        W79413  27.960   3.536  13.430
 8814W        W79414  24.187  31.665  11.760
 8815W        W79415   2.884  22.978   2.257
 8816W        W79416  42.956  32.635   0.249
 8817W        W79417  33.062  38.203   4.398
 8818W        W79418  26.076  42.432   0.055
 8819W        W79419  43.426  39.044   0.843
 8820W        W79420  32.415   7.269   0.250
 8821W        W79421  36.640  11.892  14.919
 8822W        W79422  22.830  33.879  13.850
 8823W        W79423   2.258  33.495  12.899
 8824W        W79424   0.029  28.296  12.605
 8825W        W79425  20.306  25.055   3.727
 8826W        W79426  18.240   3.227  13.494
 8827W        W79427  38.882  21.939  13.938
 8828W        W79428  22.572  15.204  13.940
 8829W        W79429  35.995  20.666  11.315
 8830W        W79430  43.538  35.498  12.600
 8831W        W79431   9.702  30.327  11.432
 8832W        W79432  16.565  40.474  11.624
 8833W        W79433  25.940  14.935   4.160
 8834W        W79434  30.347  36.969  12.435
 8835W        W79435  35.823  22.569  14.899
 8836W        W79436   9.611  29.468   1.445
 8837W        W79437  32.899  38.338  13.193
 8838W        W79438  37.013   1.219   1.007
 8839W        W79439   2.419  11.408   2.150
 8840W        W79440  18.558  30.184   2.757
 8841W        W79441  43.310  17.227   0.966
 8842W        W79442  11.539  42.838   3.500
 8843W        W79443  29.703  27.256   1.137
 8844W        W79444  19.254  12.878   2.120
 8845W        W79445  29.344  33.403  14.328
 8846W        W79446   0.348   8.723   0.948
 8847W        W79447  28.043  23.042  13.839
 8848W        W79448  17.764  39.443   0.450
 8849W        W79449  44.695  15.170   3.179
 8850W        W79450  33.438  43.185   1.418
 8851W        W79451  32.587  12.120   3.388
 8852W        W79452   6.227  36.595   2.428
 8853W        W79453   8.969  14.495  14.091
 8854W        W79454  27.471  16.377   3.227
 8855W        W79455  27.042  33.192   3.827
 8856W        W79456  21.300  14.561   4.090
 8857W        W79457  36.679  12.885   0.969
 8858W        W79458  27.320  13.018   0.579
 8859W        W79459   1.456  12.034   0.911
 8860W        W79460  19.193   7.277   4.253
 8861W        W79461  14.592   1.785   0.856
 8862W        W79462  11.738   2.008  14.964
 8863W        W79463  34.815  14.337  10.199
 8864W        W79464  12.093  36.655   1.280
 8865W        W79465   1.376  20.704   0.916
 8866W        W79466   1.433  15.866   3.210
 8867W        W79467   2.412  23.121   0.707
 8868W        W79468  31.412  33.964   2.782
 8869W        W79469   0.050  33.045  14.780
 8870W        W79470   0.820  44.306   1.907
 8871W        W79471  37.272   0.019   4.249
 8872W        W79472  13.254  16.197   4.410
 8873W        W79473   2.372  38.302   0.379
 8874W        W79474  26.520  16.656   3.235
 8875W        W79475  31.528  27.601  11.457
 8876W        W79476  38.607   2.157   3.333
 8877W        W79477  12.863   2.401   1.665
 8878W        W79478  41.420   0.229   1.449
 8879W        W79479   4.161   9.241   2.841
 8880W        W79480  16.136  29.439  14.797
 8881W        W79481  25.088  21.641  12.042
 8882W        W79482  12.093  24.961   0.277
 8883W        W79483  23.457  42.592  12.001
 8884W        W79484  30.094   1.911   0.709
 8885W        W79485  30.417  17.235  12.280
 8886W        W79486   1.206  16.101   2.237
 8887W        W79487  14.758   4.751  14.439
 8888W        W79488  30.442  35.478  13.812
 8889W        W79489  44.545  18.111   1.815
 8890W        W79490  12.180  21.442  11.049
 8891W        W79491   9.733  44.030  10.758
 8892W        W79492  44.326  20.786   2.232
 8893W        W79493  11.338   3.726  11.585
 8894W        W79494  34.547   1.390  14.107
 8895W        W79495  36.641   9.747  12.143
 8896W        W79496  35.144   9.692   1.695
 8897W        W79497  17.337  27.569   0.262
 8898W        W79498   6.103  41.507   4.637
 8899W        W79499  31.038  16.118   0.204
 8900W        W79500  39.774  17.552  12.988
 8901W        W79501  28.565  12.349  13.473
 8902W        W79502  38.536  37.806   1.353
 8903W        W79503   1.880  20.265   2.368
 8904W        W79504   1.390  39.323   3.279
 8905W        W79505  35.402  21.654  11.960
 8906W        W79506  17.969  18.531   0.022
 8907W        W79507   1.740  21.072   0.905
 8908W        W79508  42.848  41.833   3.273
 8909W        W79509  11.247  38.701  10.435
 8910W        W79510  24.435  23.693  10.769
 8911W        W79511  23.985  29.717   2.240
 8912W        W79512  26.171   5.937   2.266
 8913W        W79513  18.770  40.844   2.416
 8914W        W79514   1.305  17.865  12.618
 8915W        W79515  32.882  12.712  10.555
 8916W        W79516   7.651  16.188  13.556
 8917W        W79517  32.413  15.686  10.704
 8918W        W79518  34.017  43.984  14.197
 8919W        W79519   9.857  23.631  12.493
 8920W        W79520  16.194  36.860   2.769
 8921W        W79521   7.308  13.648  13.500
 8922W        W79522  20.123   7.432   2.314
 8923W        W79523  42.339  35.892   2.722
 8924W        W79524  10.546  22.975   2.334
 8925W        W79525  21.330   9.296  14.790
 8926W        W79526  41.948  31.024  11.115
 8927W        W79527  29.864  41.255   0.276
 8928W        W79528  18.594  30.451   3.805
 8929W        W79529   3.646  16.144  10.659
 8930W        W79530   6.913  35.958   2.396
 8931W        W79531  44.402  31.962  14.506
 8932W        W79532   0.189  36.198  14.592
 8933W        W79533  15.409  32.114  14.353
 8934W        W79534  15.311  11.779  11.863
 8935W        W79535  38.840   9.705  12.936
 8936W        W79536  15.776   0.305   4.507
 8937W        W79537  28.729  43.510  14.819
 8938W        W79538  12.582   2.715   4.280
 8939W        W79539  12.160  12.424   2.342
 8940W        W79540  29.188  21.338   0.019
 8941W        W79541  30.422  25.559   4.895
 8942W        W79542  44.354   7.813  10.301
 8943W        W79543   7.550   3.845  14.637
 8944W        W79544  43.810  34.172  13.474
 8945W        W79545   3.433   5.894   1.910
 8946W        W79546  32.664  30.855  13.413
 8947W        W79547  42.325  10.339  12.958
 8948W        W79548   9.203  34.848  11.141
 8949W        W79549  42.856  29.517   1.163
 8950W        W79550  21.132   9.402  13.378
 8951W        W79551  10.681  37.018   3.369
 8952W        W79552  32.948   2.932  13.774
 8953W        W79553   9.837  36.271  14.495
 8954W        W79554  19.316  39.718   2.908
 8955W        W79555   3.624  29.406   4.653
 8956W        W79556  12.530  20.568   0.224
 8957W        W79557  41.554  25.245  11.572
 8958W        W79558  41.542  43.432  13.882
 8959W        W79559   5.192  37.617  10.870
 8960W        W79560  20.105  23.153  10.548
 8961W        W79561  32.144  28.632  14.381
 8962W        W79562  15.067  23.789  12.859
 8963W        W79563  27.676  28.528   4.587
 8964W        W79564  37.066  40.765  12.907
 8965W        W79565  39.051  14.178   3.593
 8966W        W79566  25.471   3.814   1.384
 8967W        W79567  23.688  37.852   4.390
 8968W        W79568   6.263  27.118  13.649
 8969W        W79569  26.749   4.911   1.203
 8970W        W79570  18.160  38.409   0.924
 8971W        W79571   4.599  17.174  10.731
 8972W        W79572  17.578  12.129   4.194
 8973W        W79573   0.833  27.177   1.440
 8974W        W79574  28.615  12.892   3.273
 8975W        W79575  27.683  40.769  11.885
 8976W        W79576  12.859  21.941   0.571
 8977W        W79577  38.801  28.154  10.725
 8978W        W79578  33.450  13.896  12.695
 8979W        W79579   7.267  39.827  10.775
 8980W        W79580  23.187  43.507  12.213
 8981W        W79581  44.398   9.518  14.902
 8982W        W79582  38.010  27.173  12.051
 8983W        W79583  39.288  23.169  12.452
 8984W        W79584  26.183   5.518  10.752
 8985W        W79585  36.392  21.590  11.640
 8986W        W79586   7.467  28.423  13.776
 8987W        W79587  27.571  20.759  12.013
 8988W        W79588  36.383  22.119   0.892
 8989W        W79589  42.876  17.524  10.756
 8990W        W79590   9.507  15.057  13.504
 8991W        W79591  12.715   5.845   4.719
 8992W        W79592  36.388  24.961   0.340
 8993W        W79593  13.833  16.496   1.704
 8994W        W79594  36.042   1.760  13.732
 8995W        W79595  43.730   1.897   0.066
 8996W        W79596  23.510  24.942  11.121
 8997W        W79597  11.420  32.094  14.525
 8998W        W79598  33.530  41.255   1.379
 8999W        W79599  30.255  21.664   0.707
 9000W        W79600  18.718   1.037  11.616
 9001W        W79601   9.969  44.427   1.771
 9002W        W79602  35.021  36.005   2.029
 9003W        W79603  26.216   1.932   0.758
 9004W        W79604  13.850  28.120  11.479
 9005W        W79605   4.453  29.938   0.281
 9006W        W79606  28.410  28.160  12.424
 9007W        W79607  37.089  28.667   0.818
 9008W        W79608  20.289  38.456   3.161
 9009W        W79609  11.070  12.865   3.143
 9010W        W79610  36.487  39.850  11.653
 9011W        W79611  34.891   6.236   3.178
 9012W        W79612   2.186  19.857   3.751
 9013W        W79613  11.485  41.538  13.231
 9014W        W79614   7.808  40.583  10.807
 9015W        W79615   8.581  18.831   2.291
 9016W        W79616  22.152  19.337   3.593
 9017W        W79617  36.560  36.669   0.470
 9018W        W79618  12.139  10.332  13.619
 9019W        W79619  17.100  39.651   2.654
 9020W        W79620   2.013  17.762  13.840
 9021W        W79621   8.190   0.678  11.959
 9022W        W79622  31.558  44.529  13.886
 9023W        W79623   6.728  20.146  11.623
 9024W        W79624   3.391   6.571  11.638
 9025W        W79625   4.767  11.680  12.672
 9026W        W79626   5.346  11.555   4.951
 9027W        W79627  42.884  34.167  13.472
 9028W        W79628  19.572  38.734  13.024
 9029W        W79629  16.532  23.217   4.720
 9030W        W79630  38.345  35.500  13.854
 9031W        W79631  41.807  26.747   4.703
 9032W        W79632  31.932  15.628   4.603
 9033W        W79633  30.571   8.680  13.399
 9034W        W79634  27.107  35.177   2.829
 9035W        W79635  10.259  22.494   3.603
 9036W        W79636  42.888  26.495   0.490
 9037W        W79637  32.176   8.794  13.290
 9038W        W79638  33.587  43.327   4.841
 9039W        W79639  28.254  17.313  12.031
 9040W        W79640   7.756  32.399  12.107
 9041W        W79641  42.991  36.566   2.697
 9042W        W79642  42.398  19.130   3.794
 9043W        W79643  11.678  13.760  13.361
 9044W        W79644   8.715  10.623   1.681
 9045W        W79645  43.112  14.659  10.700
 9046W        W79646  36.630   6.705   4.274
 9047W        W79647  18.197  18.375  12.338
 9048W        W79648  44.337  12.798  14.899
 9049W        W79649  38.627  23.592   0.082
 9050W        W79650  38.945  24.178   1.896
 9051W        W79651  30.923  12.875  11.204
 9052W        W79652   2.841  11.059   1.397
 9053W        W79653   9.150  15.073   1.261
 9054W        W79654  36.545  25.777   0.713
 9055W        W79655  10.861   1.193  10.379
 9056W        W79656  40.765  33.524  12.062
 9057W        W79657  23.040  24.896   0.484
 9058W        W79658  10.626  42.722  13.869
 9059W        W79659  44.527  38.284  11.543
 9060W        W79660  12.138  34.914   4.436
 9061W        W79661  31.062  42.066   1.249
 9062W        W79662  36.451  43.253  12.909
 9063W        W79663  31.210  43.663  14.017
 9064W        W79664  24.128  41.280   1.391
 9065W        W79665  21.528  34.046   1.203
 9066W        W79666   8.297  20.262   3.660
 9067W        W79667  30.514  38.521  14.537
 9068W        W79668  41.067  11.397   3.787
 9069W        W79669  14.816   3.251   1.384
 9070W        W79670   5.993  35.301  12.975
 9071W        W79671   2.737  40.650   3.605
 9072W        W79672   8.754  29.422   3.218
 9073W        W79673  39.544  14.259   2.706
 9074W        W79674  10.333   4.383   3.752
 9075W        W79675  22.966  16.350  12.173
 9076W        W79676  15.186  26.541   0.825
 9077W        W79677  12.976  37.314  11.101
 9078W        W79678  12.747  18.808  11.600
 9079W        W79679  43.898   1.734   2.669
 9080W        W79680  35.391  15.259   1.440
 9081W        W79681  26.686  19.233   1.792
 9082W        W79682   5.047  17.242   2.716
 9083W        W79683   5.818   8.583  11.692
 9084W        W79684  16.689  20.113   4.432
 9085W        W79685  29.018  10.917   1.394
 9086W        W79686   2.151  26.039   3.637
 9087W        W79687  27.256  43.849  12.910
 9088W        W79688  32.567   3.042   4.215
 9089W        W79689   0.202   3.207   2.876
 9090W        W79690  10.396   1.989   4.294
 9091W        W79691  34.019  25.296   2.639
 9092W        W79692  34.994  38.953   4.060
 9093W        W79693  35.880  25.717   4.641
 9094W        W79694  37.666  29.987   4.482
 9095W        W79695  14.753  14.361  11.614
 9096W        W79696  26.278  19.494  13.965
 9097W        W79697   3.240  18.245  11.193
 9098W        W79698  41.568  27.058   1.970
 9099W        W79699   1.814  10.122  13.933
 9100W        W79700  15.606  32.457  11.122
 9101W        W79701  18.138  38.354  10.479
 9102W        W79702   6.042  38.070   0.885
 9103W        W79703  10.310  43.729   5.043
 9104W        W79704  36.065  29.038   3.885
 9105W        W79705   8.581  28.634  11.491
 9106W        W79706  33.215  21.897   1.669
 9107W        W79707  23.955  15.534   3.793
 9108W        W79708  11.873  37.165  14.756
 9109W        W79709  27.221  40.438   0.207
 9110W        W79710  43.208   8.674  14.862
 9111W        W79711  13.616  43.900  13.581
 9112W        W79712   1.706  37.055   3.975
 9113W        W79713  43.745  12.078  10.572
 9114W        W79714  10.978   7.209   2.818
 9115W        W79715  18.651  13.276   1.522
 9116W        W79716  44.369  35.437   3.850
 9117W        W79717  30.128  38.886   2.758
 9118W        W79718  37.488   8.421   3.843
 9119W        W79719  35.098  39.955  13.978
 9120W        W79720  33.568  33.159   3.413
 9121W        W79721   7.644   2.363   2.136
 9122W        W79722  20.768  27.519  10.264
 9123W        W79723  38.441  21.720  13.785
 9124W        W79724  21.766  16.591  12.512
 9125W        W79725  11.355  26.528   3.499
 9126W        W79726  18.305   7.874   1.383
 9127W        W79727  39.644  32.876  12.024
 9128W        W79728  26.225  16.105   1.769
 9129W        W79729  23.225  14.794   0.548
 9130W        W79730  38.912  30.037  10.970
 9131W        W79731  15.741   2.940   1.928
 9132W        W79732  23.869  14.137   1.767
 9133W        W79733  23.080  31.711  14.135
 9134W        W79734  14.563  38.536  14.898
 9135W        W79735  39.335  31.072   4.189
 9136W        W79736  41.849  38.236  13.380
 9137W        W79737  28.112  34.929   3.146
 9138W        W79738  25.277   5.207  13.505
 9139W        W79739   3.857   0.878  10.069
 9140W        W79740   7.633  25.605   1.207
 9141W        W79741   3.430   2.621   3.397
 9142W        W79742  32.765  41.544  13.116
 9143W        W79743  34.691   8.846   4.121
 9144W        W79744  31.683   9.986   0.492
 9145W        W79745  14.200  30.079  13.032
 9146W        W79746   6.126  32.445  13.800
 9147W        W79747  21.808  38.842   2.129
 9148W        W79748  41.307   2.727  11.433
 9149W        W79749  44.304  42.470  12.130
 9150W        W79750  11.807  27.660   3.289
 9151W        W79751   0.092  21.259   3.164
 9152W        W79752  40.529  22.859  12.764
 9153W        W79753  14.362   7.790   3.652
 9154W        W79754  19.150  10.569   4.202
 9155W        W79755   9.606   9.777   0.458
 9156W        W79756  26.033  12.052  10.484
 9157W        W79757  30.576  18.527  10.757
 9158W        W79758  15.604  31.947  11.133
 9159W        W79759  35.865  35.584  13.093
 9160W        W79760  18.784  12.620  10.779
 9161W        W79761  25.943  10.262  13.559
 9162W        W79762  39.882  12.348  14.230
 9163W        W79763  27.406  44.001  10.484
 9164W        W79764  37.088  13.987  11.587
 9165W        W79765  17.847  34.293   3.640
 9166W        W79766  34.126  37.919  10.701
 9167W        W79767   2.432  37.826  13.921
 9168W        W79768  26.971  43.719   4.539
 9169W        W79769  19.899  33.288  13.200
 9170W        W79770  21.049   2.059   4.306
 9171W        W79771  29.645   4.953   3.357
 9172W        W79772  28.636  12.673   0.474
 9173W        W79773  18.183  22.174  11.960
 9174W        W79774  23.596  41.167  10.624
 9175W        W79775  19.531  43.241   0.801
 9176W        W79776  40.857  16.799   0.828
 9177W        W79777  19.460  34.931  13.393
 9178W        W79778  30.017  38.252  12.500
 9179W        W79779  20.297  13.838   1.295
 9180W        W79780  43.397  27.590   4.650
 9181W        W79781  43.824   7.347  11.436
 9182W        W79782   3.539  32.937  14.646
 9183W        W79783  25.579  40.751   4.528
 9184W        W79784  13.854   5.273  11.492
 9185W        W79785  44.405  37.535  12.685
 9186W        W79786  22.148  16.853  13.482
 9187W        W79787   9.437  39.488  12.807
 9188W        W79788   6.367  28.504  14.932
 9189W        W79789   8.146   0.259  11.619
 9190W        W79790  14.811  24.765  12.546
 9191W        W79791   2.990  25.516  13.794
 9192W        W79792  39.740  15.825  11.087
 9193W        W79793   7.280  19.664   4.085
 9194W        W79794   5.764  44.666   3.209
 9195W        W79795  23.922   6.331   0.839
 9196W        W79796  30.219  22.737   1.203
 9197W        W79797  18.581  34.523   3.217
 9198W        W79798  42.729  20.759   1.736
 9199W        W79799  31.781   8.535  12.016
 9200W        W79800  24.559  29.959  11.901
 9201W        W79801   6.672  25.037   3.303
 9202W        W79802  32.016  38.956   5.273
 9203W        W79803  27.542  39.577  10.674
 9204W        W79804  24.099   2.057   1.427
 9205W        W79805  39.543   6.750   4.599
 9206W        W79806  31.830  16.452   1.635
 9207W        W79807  30.060   5.392   2.435
 9208W        W79808  38.406  15.911   0.990
 9209W        W79809   5.146  29.682  13.116
 9210W        W79810  41.905  31.623   3.288
 9211W        W79811  43.994  15.643  13.768
 9212W        W79812  36.547  40.424   2.315
 9213W        W79813  24.290  38.740   1.299
 9214W        W79814  31.340  19.456   4.090
 9215W        W79815  35.613  21.163  10.694
 9216W        W79816  12.371   8.051   1.970
 9217W        W79817  26.004  21.143   4.125
 9218W        W79818  11.191  14.496   0.890
 9219W        W79819  30.711   2.211   2.736
 9220W        W79820  13.171  12.221   3.577
 9221W        W79821  12.114  23.342  12.367
 9222W        W79822  10.305  14.309  10.026
 9223W        W79823  24.505  33.147   1.269
 9224W        W79824  19.763  16.610  13.391
 9225W        W79825  43.556  40.925   1.460
 9226W        W79826   9.316   9.781  13.451
 9227W        W79827   0.267  17.207   4.082
 9228W        W79828  39.852  14.247   3.128
 9229W        W79829  34.000  12.137   2.729
 9230W        W79830  18.011   1.334  11.667
 9231W        W79831  27.177   0.769   4.234
 9232W        W79832   0.257  19.298  14.327
 9233W        W79833  30.090  27.719   3.263
 9234W        W79834  17.040  24.407  11.175
 9235W        W79835  11.006  27.571   0.960
 9236W        W79836  10.326  44.927   4.667
 9237W        W79837   6.760  21.311  13.359
 9238W        W79838   2.876   8.193  14.585
 9239W        W79839  19.099  16.736   0.221
 9240W        W79840   9.960  23.723  11.976
 9241W        W79841  39.524  11.071   4.682
 9242W        W79842  25.653   2.732  11.561
 9243W        W79843  37.924  21.505   5.050
 9244W        W79844  28.285  31.632   0.027
 9245W        W79845  17.686  16.173  12.153
 9246W        W79846  34.319  38.646  11.470
 9247W        W79847  24.072   1.255   1.880
 9248W        W79848  40.539  33.456   3.041
 9249W        W79849  40.339  10.316  11.397
 9250W        W79850  42.657  19.711  13.849
 9251W        W79851  17.136   4.893  14.815
 9252W        W79852  41.166  40.422  13.765
 9253W        W79853   3.257  23.336  14.753
 9254W        W79854  17.402  36.114  13.064
 9255W        W79855   3.923  30.980  12.070
 9256W        W79856  29.621  31.507  10.390
 9257W        W79857  36.492  13.218  10.693
 9258W        W79858  29.996  20.690   3.140
 9259W        W79859   4.029  40.317   3.243
 9260W        W79860  22.721  12.580  12.032
 9261W        W79861  37.413   9.098   1.047
 9262W        W79862  16.476  17.404   0.401
 9263W        W79863  21.674  16.060  11.111
 9264W        W79864   9.895  16.727   3.300
 9265W        W79865  19.757   6.229   4.826
 9266W        W79866  26.922  16.139   0.278
 9267W        W79867  17.796  41.880   0.965
 9268W        W79868  29.276  13.886  14.462
 9269W        W79869   6.365  21.638  14.046
 9270W        W79870  18.537  13.738  13.077
 9271W        W79871  44.851  17.001   2.279
 9272W        W79872   1.972  20.593   1.711
 9273W        W79873  16.013  16.120  12.987
 9274W        W79874  11.166  36.482  14.352
 9275W        W79875  38.343  26.502  13.900
 9276W        W79876  18.959  40.014   3.121
 9277W        W79877  19.110   8.770  13.522
 9278W        W79878   1.272  34.892   3.620
 9279W        W79879  25.658   4.366  12.426
 9280W        W79880   6.870   8.660  14.447
 9281W        W79881  31.533  16.244   2.601
 9282W        W79882   9.630  20.687   3.287
 9283W        W79883  14.318  15.754  14.331
 9284W        W79884  10.864  15.322  13.483
 9285W        W79885  39.318  28.517   3.219
 9286W        W79886  24.166   9.291   2.487
 9287W        W79887  28.531  15.621   3.634
 9288W        W79888  44.992  11.512  14.660
 9289W        W79889  39.864  42.327   2.924
 9290W        W79890  38.972  28.966   2.041
 9291W        W79891  33.772  33.669   2.705
 9292W        W79892   2.216  41.790  14.093
 9293W        W79893  43.915  19.856  14.564
 9294W        W79894  38.850   8.281  11.130
 9295W        W79895  13.101  26.592  14.911
 9296W        W79896  20.650   1.519  13.981
 9297W        W79897   3.464   0.364   4.648
 9298W        W79898  13.253  43.241   0.972
 9299W        W79899  34.646   9.837  14.934
 9300W        W79900  36.217  31.136  10.825
 9301W        W79901  31.938  24.513  12.184
 9302W        W79902  10.739  21.013  12.041
 9303W        W79903  32.445  25.513  10.762
 9304W        W79904  43.471  15.463  14.385
 9305W        W79905  24.230  44.541  12.049
 9306W        W79906  30.133  25.523  11.854
 9307W        W79907  11.628  28.524  14.978
 9308W        W79908  26.073  22.146   1.956
 9309W        W79909  38.777  32.923   1.182
 9310W        W79910  34.099  20.932  13.898
 9311W        W79911  21.966  15.630   1.190
 9312W        W79912  39.810  37.525  11.603
 9313W        W79913  14.062  38.312   1.432
 9314W        W79914  39.258  12.545  14.855
 9315W        W79915  21.642   0.062  11.233
 9316W        W79916  11.554  10.737   2.247
 9317W        W79917  44.122  38.161   0.346
 9318W        W79918   1.512  25.609   2.960
 9319W        W79919   4.877  32.166  14.410
 9320W        W79920  21.818  35.297  14.378
 9321W        W79921  29.449  31.220  11.404
 9322W        W79922  33.870  14.706  12.354
 9323W        W79923  12.532  19.048   4.087
 9324W        W79924  22.872  39.448   4.159
 9325W        W79925  25.111  14.803   3.588
 9326W        W79926   7.745  21.986  12.386
 9327W        W79927  10.640   6.067   0.393
 9328W        W79928  30.615  30.804  13.439
 9329W        W79929  23.157  38.774  10.468
 9330W        W79930  40.022  15.213   4.864
 9331W        W79931  40.547  40.879  14.751
 9332W        W79932  31.748  30.557   1.646
 9333W        W79933  43.027  12.747  13.412
 9334W        W79934  32.605  27.962   4.368
 9335W        W79935  37.584  21.475  12.506
 9336W        W79936  24.178  10.317  13.372
 9337W        W79937  25.651  28.335   1.785
 9338W        W79938  17.476  21.456   3.623
 9339W        W79939  10.465  15.583   4.202
 9340W        W79940   3.857   3.839  12.607
 9341W        W79941  11.790  38.793   4.625
 9342W        W79942  37.541  13.306  14.018
 9343W        W79943  27.719  29.857   2.209
 9344W        W79944  40.538  14.816   0.313
 9345W        W79945  19.979  39.439  13.477
 9346W        W79946  29.877  36.797  12.455
 9347W        W79947  42.296  38.917  13.321
 9348W        W79948  38.951  16.974   3.609
 9349W        W79949   5.009  24.295  11.577
 9350W        W79950  13.286  27.271  11.398
 9351W        W79951  33.202  26.951   0.091
 9352W        W79952  43.009  21.188   1.898
 9353W        W79953   9.944  20.172  12.154
 9354W        W79954   1.865  32.653   4.014
 9355W        W79955   3.685   5.845   1.242
 9356W        W79956   6.475  19.179  10.034
 9357W        W79957  31.597   2.393  12.352
 9358W        W79958  18.173  37.397  10.503
 9359W        W79959  41.050   5.349  14.759
 9360W        W79960  37.427  27.664  13.660
 9361W        W79961  39.023  17.634  12.075
 9362W        W79962  18.203  37.540   4.576
 9363W        W79963  13.249  39.992   3.194
 9364W        W79964  27.827  16.254   3.570
 9365W        W79965  29.907   0.255  12.394
 9366W        W79966  27.080  18.839  12.140
 9367W        W79967  15.841   1.493   3.140
 9368W        W79968  37.694  35.335  14.579
 9369W        W79969  41.497  36.919  13.298
 9370W        W79970  20.200  25.073   4.541
 9371W        W79971  26.592   4.170  13.865
 9372W        W79972   3.916  21.680  14.536
 9373W        W79973   3.921   6.069  10.110
 9374W        W79974  29.274   2.471  11.201
 9375W        W79975   2.096   6.584   3.685
 9376W        W79976  32.590  36.160  13.531
 9377W        W79977   2.941   1.233  14.338
 9378W        W79978  22.286   4.430  14.993
 9379W        W79979   2.411  21.765   2.815
 9380W        W79980  18.333   1.854   3.001
 9381W        W79981  42.281  29.153   1.936
 9382W        W79982   4.511  43.421  14.938
 9383W        W79983  26.576  38.430   0.236
 9384W        W79984  36.385  16.807   2.736
 9385W        W79985  27.397  27.658  13.875
 9386W        W79986  37.952  20.195  14.960
 9387W        W79987  37.217  23.844   2.422
 9388W        W79988  15.113   8.937  13.168
 9389W        W79989  34.678  32.419   0.926
 9390W        W79990  41.359   7.856   3.154
 9391W        W79991  18.603  31.071   1.389
 9392W        W79992  10.699  17.973   0.054
 9393W        W79993  18.596   7.394   1.167
 9394W        W79994  28.439  37.856   1.438
 9395W        W79995  37.269  28.795  10.891
 9396W        W79996  35.952   7.149   0.393
 9397W        W79997  33.947  29.422  12.135
 9398W        W79998  27.016  25.178   2.358
 9399W        W79999   5.672  11.773  12.456
 9400W        W80000  12.619   6.226   4.327
 9401W        W80001  24.997  34.015  14.289
 9402W        W80002   2.518  21.975   1.230
 9403W        W80003  13.597  10.721   4.585
 9404W        W80004  30.554  22.069   2.200
 9405W        W80005   0.234  32.309   1.682
 9406W        W80006   8.694  15.134  12.995
 9407W        W80007   8.389  15.744  11.851
 9408W        W80008  11.943  23.087  14.582
 9409W        W80009  37.357  17.324  11.635
 9410W        W80010  25.668  18.473  13.314
 9411W        W80011  32.277   4.038  13.036
 9412W        W80012  27.102   6.091   2.068
 9413W        W80013  11.148  36.711   3.230
 9414W        W80014  17.268  22.192  11.410
 9415W        W80015   0.920  28.128  10.754
 9416W        W80016   3.365  26.984  13.759
 9417W        W80017  30.531  13.276  12.401
 9418W        W80018  12.130   6.024   4.230
 9419W        W80019  34.584  39.442   1.377
 9420W        W80020  23.375   2.660  12.984
 9421W        W80021  28.139  43.496  11.417
 9422W        W80022  14.361  38.251  14.370
 9423W        W80023   7.286  29.469   4.087
 9424W        W80024   2.451  34.148  11.732
 9425W        W80025  21.489  10.191  12.101
 9426W        W80026   5.825  29.007   2.382
 9427W        W80027  26.790  26.685  13.486
 9428W        W80028  27.077   2.488  12.125
 9429W        W80029  11.078   3.746   0.425
 9430W        W80030  35.757  19.785  13.795
 9431W        W80031  24.070  18.804  11.470
 9432W        W80032  24.058   8.884  12.942
 9433W        W80033  23.810  40.210   1.258
 9434W        W80034  22.754  36.989   1.471
 9435W        W80035  13.393  26.974   4.601
 9436W        W80036  21.629  28.923  10.863
 9437W        W80037  18.708  18.939   0.071
 9438W        W80038  31.668  28.363  14.488
 9439W        W80039  18.841   7.829   1.346
 9440W        W80040  23.433  25.919  11.625
 9441W        W80041  18.159   6.275  10.697
 9442W        W80042   4.724  18.758  13.093
 9443W        W80043  43.943  18.619   4.482
 9444W        W80044  32.991  37.439  14.861
 9445W        W80045  13.272  29.613  12.999
 9446W        W80046  39.457  19.766   3.122
 9447W        W80047  22.487  14.905   3.258
 9448W        W80048  35.919  36.157   3.201
 9449W        W80049  36.218   2.844  12.038
 9450W        W80050  42.839  17.043   1.753
 9451W        W80051  15.001  41.361   1.768
 9452W        W80052  21.975  37.921  10.955
 9453W        W80053  22.767  18.115   4.259
 9454W        W80054  22.484   4.865   0.465
 9455W        W80055  28.120  39.843  14.279
 9456W        W80056  12.871  39.754   4.577
 9457W        W80057  30.584  41.975   0.270
 9458W        W80058  17.504  15.711  10.984
 9459W        W80059  15.229  21.822   3.857
 9460W        W80060  10.963  14.125  12.139
 9461W        W80061  42.426  41.705   1.251
 9462W        W80062  44.663  37.593   1.939
 9463W        W80063  13.261  25.433  10.759
 9464W        W80064  28.839  18.142   1.922
 9465W        W80065  30.539  44.210   2.447
 9466W        W80066  25.703  12.876   0.801
 9467W        W80067  31.937  30.713   3.938
 9468W        W80068  37.974  25.688  12.141
 9469W        W80069   9.420   2.294   1.081
 9470W        W80070  26.291  20.708   2.365
 9471W        W80071   3.804  32.450   4.272
 9472W        W80072  32.360  21.899   3.770
 9473W        W80073  37.390   4.754   2.795
 9474W        W80074   8.212  29.213   4.283
 9475W        W80075  31.947  33.588   0.991
 9476W        W80076   6.717   1.241  11.160
 9477W        W80077  13.238  27.610   0.956
 9478W        W80078  44.201  31.982  11.912
 9479W        W80079   6.926  39.500   2.155
 9480W        W80080   6.722   5.281  10.693
 9481W        W80081   7.748  35.747  13.770
 9482W        W80082   7.477  28.515   3.325
 9483W        W80083  41.339   7.317  14.587
 9484W        W80084   6.953   6.728  11.922
 9485W        W80085  22.078  12.705   1.488
 9486W        W80086   0.834  38.023   1.634
 9487W        W80087  33.617   6.793  13.791
 9488W        W80088  29.706  35.571   0.411
 9489W        W80089  14.089  10.789  11.933
 9490W        W80090  31.036  21.025   3.531
 9491W        W80091  15.466  10.470   2.293
 9492W        W80092  37.747  27.681  12.908
 9493W        W80093  42.633  26.516  14.037
 9494W        W80094  43.325  19.645  14.714
 9495W        W80095  15.172  15.841  10.614
 9496W        W80096  24.383  22.149  11.737
 9497W        W80097  40.779  42.048   4.742
 9498W        W80098   3.887  27.200   0.867
 9499W        W80099   7.312   6.244  14.804
 9500W        W80100  40.725  17.966   1.358
 9501W        W80101  35.369  21.998   2.770
 9502W        W80102  40.919  40.795   4.876
 9503W        W80103   6.846  24.511   1.572
 9504W        W80104  43.887  28.256   2.520
 9505W        W80105  39.902  34.056  11.306
 9506W        W80106  19.675  38.584   2.004
 9507W        W80107  35.393  43.815  12.154
 9508W        W80108   9.779  24.632   2.830
 9509W        W80109   6.396  32.667   2.682
 9510W        W80110  18.369  17.653   3.423
 9511W        W80111  11.579  34.343  13.482
 9512W        W80112  18.008  22.820  13.731
 9513W        W80113  31.147  15.053  14.958
 9514W        W80114  37.686  20.976   0.275
 9515W        W80115  35.726   9.967  10.856
 9516W        W80116  35.040  31.780  11.246
 9517W        W80117  26.447  25.467   1.686
 9518W        W80118  32.452   3.470  14.889
 9519W        W80119   4.183  38.206   2.881
 9520W        W80120  42.324  29.575  10.963
 9521W        W80121   3.740  44.428  11.161
 9522W        W80122  35.829   8.326  10.846
 9523W        W80123   6.621   5.735  10.511
 9524W        W80124  17.537   1.186  11.773
 9525W        W80125  38.585  31.925  11.661
 9526W        W80126   6.563  26.521  14.423
 9527W        W80127  32.838   1.269  12.057
 9528W        W80128  25.777   1.088   2.719
 9529W        W80129   8.261  31.507  13.959
 9530W        W80130  25.437  27.656  14.464
 9531W        W80131  38.444  20.158   4.292
 9532W        W80132  17.060  11.323   2.778
 9533W        W80133  44.227   3.855  12.180
 9534W        W80134  26.148  38.786  13.839
 9535W        W80135  31.909  43.849  12.447
 9536W        W80136  23.268   9.183  12.531
 9537W        W80137  13.137  15.368   1.494
 9538W        W80138  40.363  17.028   4.612
 9539W        W80139   1.247  43.897   3.590
 9540W        W80140  16.140  33.478  14.214
 9541W        W80141   7.389  10.804   1.315
 9542W        W80142  36.994  14.734   2.875
 9543W        W80143  20.948   3.637   0.509
 9544W        W80144   6.293  23.251   4.273
 9545W        W80145   0.967  38.400   3.177
 9546W        W80146   1.828  21.019   0.400
 9547W        W80147  41.285  22.485  14.616
 9548W        W80148   6.906  35.478   2.646
 9549W        W80149  37.547  39.848   2.884
 9550W        W80150  19.239  16.179  10.519
 9551W        W80151  44.279  22.157   4.593
 9552W        W80152  11.664  34.678   1.706
 9553W        W80153   3.837  15.576  14.336
 9554W        W80154  19.242  19.308  12.900
 9555W        W80155  43.635   1.498  11.138
 9556W        W80156   4.423  33.360  11.937
 9557W        W80157   2.448  32.335   4.981
 9558W        W80158   1.915  27.206   2.790
 9559W        W80159  39.394  42.424   4.278
 9560W        W80160  33.409  27.703  10.568
 9561W        W80161  21.147   3.443  10.766
 9562W        W80162  42.892  16.260   3.680
 9563W        W80163  18.207  18.015  14.402
 9564W        W80164  34.555  26.089   1.381
 9565W        W80165  30.918  44.490  13.103
 9566W        W80166  17.262  34.874   3.239
 9567W        W80167  23.642   9.213  11.493
 9568W        W80168  36.559  13.058  12.045
 9569W        W80169   1.451   2.260   4.579
 9570W        W80170  11.179  13.139  10.942
 9571W        W80171   9.045  14.061   1.234
 9572W        W80172  38.392  15.347   4.991
 9573W        W80173  33.502  18.053   4.267
 9574W        W80174  41.767  22.074   2.337
 9575W        W80175  24.275  25.104   1.373
 9576W        W80176  25.687   3.919  12.059
 9577W        W80177   9.887  33.201   2.499
 9578W        W80178  28.333  30.609  13.764
 9579W        W80179  18.818  43.413  11.123
 9580W        W80180  26.558  44.385  11.953
 9581W        W80181  22.488  27.977  10.754
 9582W        W80182  17.897  44.633   2.145
 9583W        W80183  42.774   1.256   4.242
 9584W        W80184  27.469  29.812   1.313
 9585W        W80185  24.043  43.214   2.749
 9586W        W80186   2.568   3.206   2.099
 9587W        W80187  41.668  37.855  11.159
 9588W        W80188   5.476   1.992   1.606
 9589W        W80189  30.407   6.439  11.174
 9590W        W80190  11.428  24.198  12.902
 9591W        W80191   4.349   6.469  14.689
 9592W        W80192  37.066   6.063   1.928
 9593W        W80193  36.318  32.060   4.481
 9594W        W80194  20.097   0.816  11.987
 9595W        W80195  12.106  30.866   4.242
 9596W        W80196   5.409  31.939  11.108
 9597W        W80197  27.193  11.820  14.884
 9598W        W80198  39.797  36.295   1.430
 9599W        W80199  24.221   0.809   0.284
 9600W        W80200   7.999  37.908  12.468
 9601W        W80201  18.656  39.353   2.436
 9602W        W80202  36.492  41.913  13.306
 9603W        W80203   3.928   2.351  13.789
 9604W        W80204  21.135   0.770   2.299
 9605W        W80205   0.080  15.117  12.546
 9606W        W80206  22.588   6.862   4.696
 9607W        W80207  35.087  24.046  11.346
 9608W        W80208  17.664   7.150  10.558
 9609W        W80209   4.625  23.388   1.742
 9610W        W80210   0.580  21.725   1.367
 9611W        W80211  16.738  44.647   3.133
 9612W        W80212  44.320  42.432   2.200
 9613W        W80213   3.504   9.589  12.562
 9614W        W80214   5.173  32.993   1.240
 9615W        W80215  40.484  41.312  11.229
 9616W        W80216  32.217  27.899   4.798
 9617W        W80217  36.066  43.107  14.189
 9618W        W80218   6.868  27.673  11.866
 9619W        W80219  30.316   9.024   5.041
 9620W        W80220  29.689   2.499  11.749
 9621W        W80221  39.593  24.195   3.142
 9622W        W80222   0.089  26.101  12.858
 9623W        W80223  18.898  29.367  11.479
 9624W        W80224  44.722  31.082   1.851
 9625W        W80225   5.748  38.373   2.367
 9626W        W80226  38.101  35.700   0.868
 9627W        W80227  20.077  38.233  14.263
 9628W        W80228  44.070   2.356  10.749
 9629W        W80229  30.143   4.753  13.607
 9630W        W80230   4.931  37.429   0.867
 9631W        W80231  21.566  13.132   2.498
 9632W        W80232   0.700   3.962   1.468
 9633W        W80233  25.981  36.330  11.905
 9634W        W80234   7.796  23.727   4.510
 9635W        W80235   5.160  39.432   0.755
 9636W        W80236   8.411  27.420  11.128
 9637W        W80237  41.029   4.011   1.275
 9638W        W80238  30.629   0.289   0.072
 9639W        W80239  34.948  43.504   1.161
 9640W        W80240   1.781  44.099   0.393
 9641W        W80241  44.048  18.066  13.955
 9642W        W80242  34.961   8.640  10.680
 9643W        W80243  36.347   0.264   0.247
 9644W        W80244  27.211  17.605   0.401
 9645W        W80245   0.752  39.641   3.695
 9646W        W80246   6.967  44.955  11.684
 9647W        W80247   4.318  29.536   0.556
 9648W        W80248  43.243  25.048  11.560
 9649W        W80249   9.228  30.829  12.027
 9650W        W80250   3.956  23.524  13.506
 9651W        W80251  12.027   9.376  12.478
 9652W        W80252  27.680   6.673  14.926
 9653W        W80253  33.992  25.498   3.327
 9654W        W80254   6.310  44.787  12.778
 9655W        W80255  33.211  37.446  13.312
 9656W        W80256  16.588  30.997  14.809
 9657W        W80257   7.732  42.305   4.238
 9658W        W80258  15.842   1.157   2.705
 9659W        W80259  13.637   8.365   3.814
 9660W        W80260   2.640  19.280  13.771
 9661W        W80261  42.402  44.540  13.359
 9662W        W80262  23.609  21.502   2.280
 9663W        W80263  23.524   7.303  11.675
 9664W        W80264  44.902   7.684   2.544
 9665W        W80265  35.825  15.188   1.180
 9666W        W80266   4.737  17.642  12.137
 9667W        W80267  39.898   6.519  11.891
 9668W        W80268  15.988   2.494  12.087
 9669W        W80269   0.411  31.055   0.992
 9670W        W80270   8.647  39.470   3.847
 9671W        W80271  31.957   1.906  11.773
 9672W        W80272   8.107   2.789  10.549
 9673W        W80273   3.274  35.447  13.402
 9674W        W80274  44.324  17.585   0.521
 9675W        W80275  24.501  26.673  13.040
 9676W        W80276  18.254  22.727   3.602
 9677W        W80277  41.889  16.804   2.303
 9678W        W80278  14.076  27.217   2.488
 9679W        W80279  41.785   0.277  11.237
 9680W        W80280  36.774  34.095  13.803
 9681W        W80281  11.309   1.812  14.314
 9682W        W80282   4.718  14.306   1.428
 9683W        W80283  38.165   4.254   1.291
 9684W        W80284  25.230  23.933   4.962
 9685W        W80285  41.331  37.602   0.478
 9686W        W80286   3.530  35.078  11.183
 9687W        W80287   5.888  19.809   0.335
 9688W        W80288   2.559  15.159   3.695
 9689W        W80289  15.416  34.444   2.318
 9690W        W80290  30.958   0.952  13.086
 9691W        W80291  30.449   0.715   1.282
 9692W        W80292   0.045  44.161  11.510
 9693W        W80293   5.547   7.947   4.872
 9694W        W80294   2.768  14.367  12.460
 9695W        W80295   5.735   2.510   2.290
 9696W        W80296  44.178  32.543   2.177
 9697W        W80297  18.549   4.412  14.349
 9698W        W80298  31.632  35.527  14.409
 9699W        W80299  30.107  26.948   3.644
 9700W        W80300  23.671  17.128   0.985
 9701W        W80301   2.336  27.897   0.896
 9702W        W80302   8.400   7.656   2.313
 9703W        W80303  44.959  23.570   2.162
 9704W        W80304   5.208  26.789   3.374
 9705W        W80305  34.681  38.092   0.504
 9706W        W80306  43.224   3.237   1.382
 9707W        W80307   2.116  13.889   0.434
 9708W        W80308  28.714   1.281   1.281
 9709W        W80309  14.273  22.025   0.922
 9710W        W80310  42.058  25.072  11.530
 9711W        W80311   9.350  22.742   1.322
 9712W        W80312  10.404  28.194   3.269
 9713W        W80313  24.418   4.062   1.929
 9714W        W80314  29.895  17.085  12.958
 9715W        W80315   7.072  37.513   3.451
 9716W        W80316   8.319  22.603  12.030
 9717W        W80317  25.503  40.442   0.017
 9718W        W80318   9.821  13.086  13.254
 9719W        W80319  37.556  17.340  12.460
 9720W        W80320   2.281  15.960  10.251
 9721W        W80321  15.149   2.508   0.390
 9722W        W80322  42.269  31.691   3.674
 9723W        W80323   7.781  35.827   1.873
 9724W        W80324  42.188   5.534   3.459
 9725W        W80325   3.268  29.112   0.691
 9726W        W80326  15.521  17.330  11.192
 9727W        W80327   8.144  24.008   1.260
 9728W        W80328   2.363  35.505   0.833
 9729W        W80329  22.018  18.629  10.838
 9730W        W80330  10.620  33.022  10.594
 9731W        W80331  34.020  35.686   0.348
 9732W        W80332  28.654  32.356   3.756
 9733W        W80333  15.031  30.526   1.211
 9734W        W80334   9.668  40.374  12.945
 9735W        W80335   1.203  39.803   3.169
 9736W        W80336  23.056  26.117   2.318
 9737W        W80337   6.268  18.128   3.676
 9738W        W80338  26.928   2.573   1.794
 9739W        W80339   0.821   5.241   3.622
 9740W        W80340  21.589   1.843   2.140
 9741W        W80341  40.404  35.502   4.082
 9742W        W80342   0.803  11.389   2.635
 9743W        W80343  14.760  40.865   4.552
 9744W        W80344   7.320  16.157  13.945
 9745W        W80345  35.884  40.722   0.746
 9746W        W80346  27.137   7.389  12.487
 9747W        W80347  18.239   9.868   0.028
 9748W        W80348  40.398  18.148   3.102
 9749W        W80349  11.459  13.588   0.944
 9750W        W80350  33.583   7.766  11.638
 9751W        W80351   5.742  42.490  13.000
 9752W        W80352  35.240  29.589  11.740
 9753W        W80353  38.475   7.308   1.740
 9754W        W80354  36.397  34.662  12.981
 9755W        W80355  39.618  28.748   3.985
 9756W        W80356  31.107  33.978   1.155
 9757W        W80357  31.863  42.417   2.604
 9758W        W80358  37.771  28.757  11.034
 9759W        W80359  37.489   5.392  14.413
 9760W        W80360  13.347  10.425   0.396
 9761W        W80361  42.719  26.184  11.066
 9762W        W80362  44.846  10.058   2.861
 9763W        W80363  38.758  13.755   3.719
 9764W        W80364  42.454  26.039   4.748
 9765W        W80365   3.994  23.696   3.094
 9766W        W80366  30.030  42.966  10.657
 9767W        W80367  26.970  43.076   0.969
 9768W        W80368  32.362  13.393  13.328
 9769W        W80369  40.905  21.711  10.958
 9770W        W80370  31.057  22.323   2.071
 9771W        W80371  13.069  26.047   4.227
 9772W        W80372  34.819  17.074   5.139
 9773W        W80373   3.665  32.281  10.552
 9774W        W80374  10.204   0.408   4.496
 9775W        W80375  36.191  15.590  12.016
 9776W        W80376  38.417  24.455   3.686
 9777W        W80377  17.605  20.176   4.171
 9778W        W80378   2.750  13.049   0.287
 9779W        W80379   5.854  13.372  11.972
 9780W        W80380  10.378  17.090  13.809
 9781W        W80381  12.077  22.101  12.885
 9782W        W80382  23.309   9.441   5.045
 9783W        W80383   8.897  30.056   4.604
 9784W        W80384  10.475  41.339   3.308
 9785W        W80385  15.223  18.279  12.829
 9786W        W80386  31.854  25.913   0.893
 9787W        W80387  34.426  44.559  11.033
 9788W        W80388  29.846  17.014  10.970
 9789W        W80389  10.116  29.504   1.696
 9790W        W80390  34.995  28.798   2.214
 9791W        W80391   7.762  19.573  14.868
 9792W        W80392  30.450  15.109  12.973
 9793W        W80393  25.784  25.634   4.136
 9794W        W80394   0.965  22.452   2.770
 9795W        W80395  25.675  18.081  11.024
 9796W        W80396  10.368   1.739   2.904
 9797W        W80397  30.171  33.130   3.111
 9798W        W80398  10.104  35.118  14.882
 9799W        W80399  23.166  42.339  12.950
 9800W        W80400   4.859  18.274  10.531
 9801W        W80401  20.756  10.884   1.263
 9802W        W80402   9.304   2.699  14.826
 9803W        W80403   6.311  39.761   0.005
 9804W        W80404  17.740  39.570  12.001
 9805W        W80405  14.076  32.088  13.842
 9806W        W80406  20.445  26.063  13.093
 9807W        W80407  24.988  10.547   2.487
 9808W        W80408  21.531  29.229  12.540
 9809W        W80409  11.346  43.319  14.949
 9810W        W80410  36.640  28.246  10.356
 9811W        W80411  30.627  21.111   2.614
 9812W        W80412  33.508   6.742   0.484
 9813W        W80413  21.028  38.668  10.039
 9814W        W80414  14.766  38.313  11.133
 9815W        W80415  17.468  44.917   2.148
 9816W        W80416  12.807  25.300  13.003
 9817W        W80417  44.541  32.153   0.495
 9818W        W80418  39.768   1.253  14.533
 9819W        W80419  39.062  32.526  11.194
 9820W        W80420  24.139   3.372  12.621
 9821W        W80421  18.032  11.559   4.494
 9822W        W80422   9.337  20.658  10.378
 9823W        W80423  44.437  17.779   4.287
 9824W        W80424  35.953  26.484  14.836
 9825W        W80425  15.408  29.549  12.380
 9826W        W80426  26.430  31.156   2.744
 9827W        W80427  35.970  21.555  12.994
 9828W        W80428   5.893  38.296   3.385
 9829W        W80429  32.477   2.285  11.105
 9830W        W80430  11.544  33.079   1.949
 9831W        W80431  33.001   2.010  13.533
 9832W        W80432  42.791   9.655  14.922
 9833W        W80433  24.123  34.840  13.862
 9834W        W80434  35.503  41.758  13.578
 9835W        W80435  39.528  35.136  13.712
 9836W        W80436  12.066  38.116   4.166
 9837W        W80437  20.845  28.572  11.108
 9838W        W80438  40.915  30.991   1.820
 9839W        W80439  38.108  25.631   4.225
 9840W        W80440   5.821   4.214   3.131
 9841W        W80441  43.367  21.763   0.818
 9842W        W80442  29.016  43.865   1.358
 9843W        W80443  44.657   7.226   1.230
 9844W        W80444  23.142  12.698   4.851
 9845W        W80445  35.823  24.300  14.003
 9846W        W80446  39.247   5.337   0.991
 9847W        W80447  20.840  25.003  13.356
 9848W        W80448  43.869  42.951   5.018
 9849W        W80449  28.487  26.136  11.410
 9850W        W80450  42.195  42.911  10.610
 9851W        W80451  22.850  11.175   4.661
 9852W        W80452  16.840  43.738  13.021
 9853W        W80453  26.946  35.479  14.341
 9854W        W80454  13.821  27.476  13.077
 9855W        W80455  23.967   0.099   2.696
 9856W        W80456   0.410  11.407  13.195
 9857W        W80457  24.958  13.529  12.615
 9858W        W80458  21.717  15.355   3.226
 9859W        W80459   8.616   8.649  12.885
 9860W        W80460   9.727  34.314   4.929
 9861W        W80461  40.308  25.205   3.051
 9862W        W80462  25.781   9.172   4.290
 9863W        W80463   5.896  41.870  11.385
 9864W        W80464  15.258  16.342  11.482
 9865W        W80465  18.800  43.409   4.388
 9866W        W80466  27.558  29.596  11.446
 9867W        W80467   5.483  31.528   0.467
 9868W        W80468  28.926   3.267  14.307
 9869W        W80469  33.716  43.360   0.432
 9870W        W80470   7.354  42.831  10.768
 9871W        W80471  38.418  31.029   4.725
 9872W        W80472  30.272  44.324  11.923
 9873W        W80473   4.288   1.884  12.994
 9874W        W80474  25.999  36.981  11.139
 9875W        W80475  21.618  40.701  12.460
 9876W        W80476  21.799  13.882  11.574
 9877W        W80477  40.998  28.059   4.007
 9878W        W80478  19.173  23.147   4.152
 9879W        W80479  35.831  37.719   4.242
 9880W        W80480  18.186  39.030  12.574
 9881W        W80481  42.933  29.105  11.063
 9882W        W80482  28.780  39.441   0.637
 9883W        W80483  34.906   2.915  11.863
 9884W        W80484  13.672  14.199  12.596
 9885W        W80485  35.043  38.275  14.494
 9886W        W80486  40.546   7.115   0.687
 9887W        W80487  39.306  41.327   0.801
 9888W        W80488   2.796  38.379   4.401
 9889W        W80489   1.410  27.420   4.046
 9890W        W80490  30.373  19.427  13.796
 9891W        W80491  12.549  21.127   3.656
 9892W        W80492  19.734  44.875  14.548
 9893W        W80493  41.893  27.071   3.568
 9894W        W80494  15.686   8.670   0.091
 9895W        W80495  33.486   5.582   3.512
 9896W        W80496  31.553  20.786  14.569
 9897W        W80497  26.235  30.001   0.608
 9898W        W80498  13.536  14.222  11.551
 9899W        W80499  24.477  13.380   4.280
 9900W        W80500  16.373   4.871  10.789
 9901W        W80501  26.668  25.519  14.357
 9902W        W80502  34.145  24.963  13.589
 9903W        W80503  41.851  22.257   4.629
 9904W        W80504  26.694  30.940  13.845
 9905W        W80505   5.425  23.518   0.276
 9906W        W80506   0.387  24.072   0.845
 9907W        W80507  22.477  25.399   3.749
 9908W        W80508  36.433  25.765   2.790
 9909W        W80509   0.850  37.900  13.440
 9910W        W80510  28.922  32.522   1.496
 9911W        W80511  19.293  16.831   1.801
 9912W        W80512   2.290  38.022   1.861
 9913W        W80513  18.095  11.915   2.146
 9914W        W80514  12.900  21.598  13.850
 9915W        W80515  28.495  34.578  12.997
 9916W        W80516  10.074  18.561   2.343
 9917W        W80517   8.555   0.141   2.702
 9918W        W80518   3.723  38.441  12.904
 9919W        W80519   8.727  21.189   4.604
 9920W        W80520  22.455   8.466   3.033
 9921W        W80521  34.358   8.509  13.123
 9922W        W80522   9.363  35.819  10.053
 9923W        W80523  15.740  15.396   4.512
 9924W        W80524  35.277  29.148   1.913
 9925W        W80525  44.555  18.034  11.106
 9926W        W80526   3.745  32.633  14.256
 9927W        W80527  20.461  38.943  10.813
 9928W        W80528   1.804  41.445  14.723
 9929W        W80529  31.956  44.196   4.053
 9930W        W80530  27.506  16.820  10.686
 9931W        W80531  15.303  27.300  14.526
 9932W        W80532  20.042   7.644  11.995
 9933W        W80533  39.373  21.566  13.951
 9934W        W80534  26.210  36.497  11.008
 9935W        W80535  20.767   3.669  11.934
 9936W        W80536  14.114  16.293  12.970
 9937W        W80537   1.219  31.371  11.968
 9938W        W80538  26.718  39.311  12.459
 9939W        W80539  41.996   3.927  13.568
 9940W        W80540   0.955   2.429   4.577
 9941W        W80541  19.329  36.399  13.588
 9942W        W80542   9.146  11.331   0.027
 9943W        W80543  14.690  20.196   4.589
 9944W        W80544  25.691   1.874   0.073
 9945W        W80545   0.972   0.252   0.810
 9946W        W80546  29.545  13.836   2.976
 9947W        W80547  22.686  20.169   4.711
 9948W        W80548  16.361  41.819  13.426
 9949W        W80549  22.072   1.324   2.659
 9950W        W80550  14.653   2.971  14.042
 9951W        W80551  43.521  40.522   1.851
 9952W        W80552  38.823  29.224  10.388
 9953W        W80553  29.324  25.191   4.135
 9954W        W80554  23.448  14.365  12.018
 9955W        W80555  26.959  29.455   4.134
 9956W        W80556  30.629  25.683  11.795
 9957W        W80557  23.945  44.464  13.938
 9958W        W80558  34.027   8.172   4.038
 9959W        W80559  31.742   8.414   4.124
 9960W        W80560   2.763  44.548  13.950
 9961W        W80561  14.814  18.044  13.050
 9962W        W80562  25.488   0.151   9.878
 9963W        W80563  40.994  26.129  11.434
 9964W        W80564  43.315   4.270  14.369
 9965W        W80565  35.916  40.404  12.305
 9966W        W80566  13.550  36.421   1.010
 9967W        W80567  36.314  19.068  11.916
 9968W        W80568  43.924  34.662   2.310
 9969W        W80569  33.996  22.249   3.591
 9970W        W80570  42.748   9.419  13.848
 9971W        W80571   4.717  21.702  12.009
 9972W        W80572  15.402  42.809   0.327
 9973W        W80573  40.202   8.171  12.078
 9974W        W80574  18.845  42.802  10.713
 9975W        W80575   0.468  40.343  14.504
 9976W        W80576  29.365  24.460  13.013
 9977W        W80577  29.469   7.723  12.095
 9978W        W80578   5.178  19.269   0.261
 9979W        W80579  37.358   3.145   1.044
 9980W        W80580  22.513  19.726   2.676
 9981W        W80581   4.948  25.229  14.963
 9982W        W80582  18.729  36.769  12.969
 9983W        W80583  35.341  22.602  10.534
 9984W        W80584  19.700  25.141  12.642
 9985W        W80585  12.541  12.769   1.009
 9986W        W80586   6.331   1.747  12.151
 9987W        W80587   7.228  42.523  13.877
 9988W        W80588  12.297  22.172   1.953
 9989W        W80589  14.307  12.830   4.088
 9990W        W80590   7.386  28.442  11.087
 9991W        W80591  15.994  40.842  14.284
 9992W        W80592   2.369  34.481   1.192
 9993W        W80593  14.727  16.280  13.565
 9994W        W80594  22.164  21.723   0.629
 9995W        W80595  32.096   6.046   0.398
 9996W        W80596  35.608  39.394   3.320
 9997W        W80597  23.778  16.067  12.731
 9998W        W80598  40.268  34.796   4.993
 9999W        W80599  39.486  39.766  14.065
10000W        W80600   1.805   0.744   3.288
10001W        W80601  11.362  21.488   1.314
10002W        W80602   1.452   0.424   3.074
10003W        W80603  17.533  42.791  10.233
10004W        W80604   3.513  15.764   2.217
10005W        W80605  33.560  43.655  14.326
10006W        W80606  23.544  43.438   4.839
10007W        W80607  32.270  13.697   2.887
10008W        W80608   2.462  15.906  10.741
10009W        W80609   0.459  31.447  13.555
10010W        W80610  26.419  22.511   2.850
10011W        W80611  14.521  17.386  10.753
10012W        W80612  27.079  14.485   0.649
10013W        W80613  27.192  32.155  14.393
10014W        W80614  43.513  24.618   3.663
10015W        W80615  19.026   0.448  11.165
10016W        W80616   2.699  38.008  14.450
10017W        W80617  11.876   9.182  12.028
10018W        W80618  13.698   1.154   2.299
10019W        W80619   6.894  28.339  13.339
10020W        W80620  38.370  25.200   4.106
10021W        W80621  32.064   3.954  13.886
10022W        W80622  12.906  43.565  10.222
10023W        W80623  17.528  15.203  12.504
10024W        W80624  10.346  15.215   0.199
10025W        W80625  44.927  26.227  14.540
10026W        W80626  35.459  14.266   0.054
10027W        W80627  25.310   8.976   4.555
10028W        W80628   1.320  39.284   2.384
10029W        W80629  40.347   3.748  12.586
10030W        W80630  15.683  19.769   0.721
10031W        W80631  11.658  14.716   0.719
10032W        W80632  44.836  41.239   1.330
10033W        W80633  16.013  25.058  10.321
10034W        W80634  41.077  25.181  10.777
10035W        W80635  16.533  28.588  10.824
10036W        W80636  13.507  18.335  12.481
10037W        W80637  31.752  22.194  14.941
10038W        W80638  43.427  41.872   4.337
10039W        W80639   2.999  10.716   4.300
10040W        W80640  14.356  32.634   1.849
10041W        W80641  21.632  33.511  11.753
10042W        W80642  43.016  22.418   0.344
10043W        W80643  18.622  11.676   0.856
10044W        W80644  28.452  33.853   2.376
10045W        W80645  38.684  26.470  14.817
10046W        W80646   4.468  42.344  14.467
10047W        W80647   3.130   2.005   1.304
10048W        W80648  38.552   9.715   4.126
10049W        W80649   2.280  20.557  11.724
10050W        W80650  12.871  21.714  12.144
10051W        W80651  34.462  32.184  11.433
10052W        W80652   3.850   4.820   3.827
10053W        W80653  25.084  17.543  13.051
10054W        W80654   6.641   0.045  12.077
10055W        W80655  10.958  32.510  14.774
10056W        W80656   8.605  42.172  11.547
10057W        W80657  43.595  37.290   3.721
10058W        W80658  22.950  35.040  13.061
10059W        W80659  33.153  32.149  12.497
10060W        W80660   9.255  38.426   2.751
10061W        W80661   1.430  18.221   0.416
10062W        W80662  35.624   2.520  11.040
10063W        W80663  30.518  23.740  11.506
10064W        W80664  42.044  40.074  12.482
10065W        W80665   9.292  42.468   4.725
10066W        W80666  10.580  31.021  13.485
10067W        W80667  10.276  28.032  12.654
10068W        W80668  34.835  35.296   2.692
10069W        W80669   3.878  24.618   1.337
10070W        W80670  44.744  41.642  12.501
10071W        W80671  15.431  36.680  12.079
10072W        W80672  42.407  29.405   1.415
10073W        W80673  43.792  40.475   4.540
10074W        W80674   7.593  14.851   4.845
10075W        W80675  32.680  43.653  14.446
10076W        W80676  20.858  39.005   4.953
10077W        W80677  39.080   8.128  14.819
10078W        W80678  24.692  43.792  13.028
10079W        W80679   6.359  41.553   0.996
10080W        W80680  36.722  12.207  14.511
10081W        W80681   7.014  14.896   1.746
10082W        W80682  42.563  29.942  10.658
10083W        W80683  31.014  27.950   3.779
10084W        W80684   3.817   8.850   5.064
10085W        W80685  29.514  19.017   4.206
10086W        W80686  28.338  17.639  13.378
10087W        W80687   4.355  30.857  11.853
10088W        W80688   9.550  15.156   2.376
10089W        W80689  38.073  23.680  14.471
10090W        W80690  28.670  25.768  13.226
10091W        W80691  40.683   4.681  13.456
10092W        W80692  11.309  17.259   0.734
10093W        W80693  16.781   1.473  10.811
10094W        W80694   3.252   1.254  13.919
10095W        W80695  25.959  15.339  12.549
10096W        W80696  15.304  37.780  11.417
10097W        W80697  17.614  22.235   3.206
10098W        W80698   4.505  19.129   3.232
10099W        W80699  30.132   5.480  11.852
10100W        W80700   3.704  12.769  11.717
10101W        W80701  19.492  42.430  13.180
10102W        W80702  18.091   5.794   1.696
10103W        W80703  23.328  17.290  11.910
10104W        W80704  30.909  36.427   0.932
10105W        W80705  22.226   1.413   4.576
10106W        W80706  38.203   4.111   0.790
10107W        W80707  24.424  40.526  14.741
10108W        W80708  20.623  37.630  13.080
10109W        W80709  13.666  18.993  11.214
10110W        W80710  13.203  40.788   2.781
10111W        W80711   8.393  32.927  11.606
10112W        W80712  38.515  22.718   0.702
10113W        W80713  15.164   1.195  13.353
10114W        W80714  24.981  44.094  14.401
10115W        W80715  13.201  28.190  10.236
10116W        W80716  31.326  41.688  14.929
10117W        W80717   3.469  24.875   2.731
10118W        W80718  29.515   9.731   4.531
10119W        W80719  16.796  12.151   1.919
10120W        W80720  12.134   1.535  13.861
10121W        W80721  23.114   7.442   0.846
10122W        W80722  37.986  25.734   0.841
10123W        W80723  31.017  20.624  14.785
10124W        W80724  42.562   5.960  12.979
10125W        W80725   5.926   0.143  14.491
10126W        W80726  18.217  25.052  14.512
10127W        W80727  44.995  13.676   3.325
10128W        W80728   6.829  35.606  14.328
10129W        W80729   9.511   4.938  13.439
10130W        W80730  38.917  32.926  10.450
10131W        W80731  29.177   0.918  14.021
10132W        W80732  25.499  31.125   4.006
10133W        W80733  27.727  23.540  12.549
10134W        W80734   7.686   1.681  14.636
10135W        W80735  31.137  44.537   0.520
10136W        W80736  26.122  34.772   3.672
10137W        W80737  32.791  18.761   3.640
10138W        W80738  25.739  35.514  11.555
10139W        W80739   3.518   6.764   3.486
10140W        W80740   1.425   7.285   2.812
10141W        W80741  13.611  32.363  13.738
10142W        W80742  27.785   5.460  14.067
10143W        W80743   5.840  37.880   3.663
10144W        W80744   2.487  26.521  12.920
10145W        W80745  26.053  20.689   4.404
10146W        W80746  27.954   7.219  10.248
10147W        W80747  21.774  33.513   1.345
10148W        W80748   1.477  32.396   2.424
10149W        W80749  25.632  25.455  11.125
10150W        W80750  21.791  34.061   0.733
10151W        W80751  31.162  32.247   3.150
10152W        W80752  31.986  11.638  10.779
10153W        W80753  35.988  32.531  10.984
10154W        W80754  39.359  10.191   3.215
10155W        W80755   4.136   2.937  12.063
10156W        W80756   9.104  11.350   3.705
10157W        W80757   8.295  34.009  11.637
10158W        W80758   5.693  41.384  11.389
10159W        W80759  10.364  30.489   2.113
10160W        W80760  24.857   8.117   3.527
10161W        W80761  21.054  42.546  13.584
10162W        W80762  43.737  21.083  12.435
10163W        W80763  13.084  38.071  12.783
10164W        W80764  21.983  29.352   3.216
10165W        W80765  35.044  22.075   1.366
10166W        W80766  12.580  42.507   2.832
10167W        W80767   5.816  32.032   4.814
10168W        W80768  35.961   9.513   0.922
10169W        W80769  37.723   0.303  12.929
10170W        W80770  36.868  41.224   4.146
10171W        W80771  12.468   3.766   2.643
10172W        W80772  40.219  39.786  12.882
10173W        W80773   9.437  40.264  14.866
10174W        W80774  22.703  20.238  10.690
10175W        W80775  22.646  29.673   1.857
10176W        W80776  34.380  27.594  12.097
10177W        W80777  38.881  13.805  10.493
10178W        W80778  21.220   9.653  13.853
10179W        W80779  23.503  41.958   0.006
10180W        W80780  31.453   8.974   0.361
10181W        W80781  44.749   3.945   4.648
10182W        W80782  28.388  30.450  12.955
10183W        W80783  44.004  38.249  13.036
10184W        W80784  33.796  39.795  14.783
10185W        W80785  18.609   8.620   2.888
10186W        W80786  17.417   0.459  14.456
10187W        W80787  30.575   5.528  13.848
10188W        W80788  37.618   8.350  13.404
10189W        W80789  43.409  16.001  14.520
10190W        W80790  39.551  23.122  12.914
10191W        W80791   9.334  19.579  12.042
10192W        W80792  14.542  33.494   3.130
10193W        W80793  39.765  30.660   4.781
10194W        W80794   2.629  23.850   3.299
10195W        W80795  26.045  39.760  13.834
10196W        W80796  12.376  13.172   4.146
10197W        W80797  32.575  13.198  14.566
10198W        W80798  13.105   6.958   4.002
10199W        W80799  43.947  19.225   4.562
10200W        W80800  10.507  23.949   0.780
10201W        W80801   7.382  33.562  14.425
10202W        W80802  25.200  29.930   0.253
10203W        W80803  12.606  41.720   2.270
10204W        W80804  29.820  25.885   2.205
10205W        W80805  21.738  36.090   1.918
10206W        W80806  19.045   3.488   3.347
10207W        W80807  24.966  34.950  12.530
10208W        W80808  27.667  15.721   3.593
10209W        W80809  17.013  40.697   1.222
10210W        W80810  22.798  19.872  14.675
10211W        W80811  12.595  13.706  14.528
10212W        W80812  44.097  11.257   2.728
10213W        W80813   6.478  18.194  10.275
10214W        W80814  24.654  42.102   3.409
10215W        W80815  44.266  38.350  14.193
10216W        W80816  11.365  30.111   4.748
10217W        W80817  37.556  13.936  12.472
10218W        W80818  25.496  39.737   4.784
10219W        W80819  17.924   1.361  14.489
10220W        W80820  21.509  16.652  13.876
10221W        W80821  29.407  25.589  14.917
10222W        W80822  36.330  32.852  11.204
10223W        W80823  26.999  31.561  12.732
10224W        W80824  25.868  28.158   0.613
10225W        W80825  19.629  21.685  10.685
10226W        W80826  38.512  44.786   1.190
10227W        W80827  41.265  33.527  11.954
10228W        W80828   9.378  33.963   2.313
10229W        W80829  22.672  29.942  13.938
10230W        W80830  31.165  11.613  11.686
10231W        W80831  18.867  14.144   4.528
10232W        W80832  35.751  42.974   4.956
10233W        W80833  32.975  38.882   0.483
10234W        W80834  44.946  43.686  13.789
10235W        W80835   0.211   0.176  12.099
10236W        W80836  30.002   2.814  14.973
10237W        W80837  12.375  21.436  13.893
10238W        W80838   1.902  17.176   4.238
10239W        W80839  29.105   6.186  13.000
10240W        W80840  43.254  42.079   4.817
10241W        W80841  19.500  13.601  10.648
10242W        W80842  36.474  27.103  13.868
10243W        W80843  25.380  16.150   2.471
10244W        W80844  17.326  36.627  12.943
10245W        W80845   9.298  43.881  11.023
10246W        W80846  36.439  21.093   3.069
10247W        W80847  35.914  25.710   0.455
10248W        W80848   8.846   3.523   1.435
10249W        W80849  14.258  18.149   2.322
10250W        W80850   2.881  27.477   4.252
10251W        W80851   3.032   1.218   4.469
10252W        W80852  22.615  39.891  14.170
10253W        W80853   1.850  27.150   4.237
10254W        W80854   1.194  41.784  12.554
10255W        W80855  44.505  14.589   3.611
10256W        W80856  11.664   0.592  12.028
10257W        W80857  40.860  32.217   4.784
10258W        W80858  31.761  19.488   5.078
10259W        W80859  24.443  39.878   3.242
10260W        W80860  15.879  33.573  11.606
10261W        W80861  18.222  34.378  13.420
10262W        W80862   0.022  19.103   0.970
10263W        W80863  32.158  41.391  14.951
10264W        W80864  26.681  43.881   4.116
10265W        W80865   2.797  31.207  12.607
10266W        W80866  31.880  23.351  13.915
10267W        W80867  12.327   6.338   2.155
10268W        W80868  37.644  30.528  11.618
10269W        W80869  25.739   4.195  10.680
10270W        W80870   6.831  33.397   0.141
10271W        W80871  39.544   9.899   1.701
10272W        W80872   4.687  18.740   0.869
10273W        W80873  17.463  21.567  14.764
10274W        W80874   9.252  24.487   0.823
10275W        W80875  34.774   5.248   3.606
10276W        W80876   5.198   6.200  11.266
10277W        W80877  37.829   6.726   1.356
10278W        W80878  32.418  41.358   4.770
10279W        W80879  23.728  18.020  14.766
10280W        W80880  39.459   5.879   2.738
10281W        W80881  31.066  28.346  14.813
10282W        W80882  35.571  33.614   2.814
10283W        W80883  29.159  35.344   4.102
10284W        W80884   5.822  28.705   3.279
10285W        W80885  11.732  18.691   2.321
10286W        W80886   4.723  39.135  13.832
10287W        W80887  38.853  35.416   2.593
10288W        W80888  35.053  20.341  10.715
10289W        W80889   5.515  27.944   0.170
10290W        W80890  17.018  34.091  13.543
10291W        W80891  35.051  21.650  11.538
10292W        W80892  29.811  15.165   4.988
10293W        W80893  18.512   0.737  13.811
10294W        W80894  11.683  14.536   4.103
10295W        W80895  41.950  27.784   0.925
10296W        W80896  34.064  39.357   0.689
10297W        W80897  35.785  42.827   2.414
10298W        W80898   6.194  42.629   4.573
10299W        W80899  18.095  14.166  10.450
10300W        W80900  10.606  28.587  14.928
10301W        W80901  13.079  21.412  11.121
10302W        W80902  37.415  32.677  12.092
10303W        W80903  33.592  27.215  12.438
10304W        W80904   6.915  27.031   3.389
10305W        W80905  13.881  17.818  12.906
10306W        W80906  21.561  15.166   2.764
10307W        W80907  19.460   8.142   1.938
10308W        W80908  25.089  32.181  11.518
10309W        W80909  33.891   7.362  12.784
10310W        W80910   0.180  31.489   0.499
10311W        W80911  18.036  32.124   4.532
10312W        W80912  38.537  10.094  12.069
10313W        W80913  42.820  25.002   0.436
10314W        W80914   9.358   0.352   3.771
10315W        W80915   2.399   0.467   1.965
10316W        W80916   6.382   3.939  13.493
10317W        W80917   9.205  11.654  13.361
10318W        W80918  42.814   8.665   0.969
10319W        W80919  24.036  19.536   4.536
10320W        W80920  40.109  40.649  14.934
10321W        W80921  10.787  24.901   2.880
10322W        W80922   3.341  34.561  11.278
10323W        W80923  37.529  12.202  13.382
10324W        W80924   9.122  40.400  12.885
10325W        W80925  19.791  34.243  11.810
10326W        W80926   4.444  29.622  11.525
10327W        W80927  37.621  35.895  13.681
10328W        W80928  18.696  29.638   4.861
10329W        W80929  17.450   5.358   0.656
10330W        W80930  40.942   2.870   1.807
10331W        W80931   2.634  27.376   0.385
10332W        W80932   4.981  34.357  11.120
10333W        W80933   8.330  44.146   0.406
10334W        W80934  24.382  35.440   4.327
10335W        W80935  15.790  37.493  10.771
10336W        W80936  18.006  23.585  13.384
10337W        W80937  10.631   4.443   4.562
10338W        W80938  30.122   2.927  13.909
10339W        W80939  13.194  19.633   3.833
10340W        W80940   5.479   5.421  13.907
10341W        W80941  18.679   7.881   3.791
10342W        W80942  12.617  44.915  14.450
10343W        W80943  11.366  30.710   0.346
10344W        W80944  31.416  29.009   1.475
10345W        W80945   7.019  27.001   1.677
10346W        W80946  44.135   2.776  11.125
10347W        W80947  35.111  13.738   1.874
10348W        W80948   9.375  34.091   4.580
10349W        W80949  44.979  37.337  13.791
10350W        W80950  33.128  17.189   2.446
10351W        W80951  30.954  34.078  10.642
10352W        W80952   6.789  20.212  13.164
10353W        W80953  44.400  36.154  11.520
10354W        W80954  11.915  19.267   2.335
10355W        W80955   7.635  34.891   3.121
10356W        W80956  20.703  34.625  14.394
10357W        W80957  35.472  31.815  12.072
10358W        W80958   7.923  30.612  10.688
10359W        W80959  25.006   5.001  12.393
10360W        W80960   4.744  19.965   2.816
10361W        W80961  11.598  28.020  12.111
10362W        W80962  17.570  32.876   0.921
10363W        W80963  16.820  34.940   2.615
10364W        W80964   3.199   3.685   3.278
10365W        W80965  27.429  40.459   0.661
10366W        W80966  36.946   8.219   4.065
10367W        W80967  31.873  39.242  11.967
10368W        W80968  27.995  18.861   3.982
10369W        W80969  21.179  26.622  13.131
10370W        W80970  34.822  43.849  13.532
10371W        W80971  29.050   0.038  10.579
10372W        W80972   3.414  19.015   1.137
10373W        W80973  22.502  10.570   2.893
10374W        W80974  28.198   9.859  14.507
10375W        W80975  22.376  24.163   4.515
10376W        W80976  42.463  24.222   4.130
10377W        W80977  35.272  22.168   4.278
10378W        W80978   3.540   7.264  13.425
10379W        W80979  25.978  14.935  12.900
10380W        W80980  40.460  29.741  11.970
10381W        W80981  35.127  12.870  13.531
10382W        W80982   8.659  10.388  14.404
10383W        W80983  17.344   0.389  10.540
10384W        W80984   0.720   4.859  11.902
10385W        W80985   4.153   9.949  14.218
10386W        W80986  16.265  17.555  11.438
10387W        W80987  12.120   6.302   5.168
10388W        W80988  41.920  34.026   2.808
10389W        W80989  34.915  33.971   1.169
10390W        W80990  20.274  23.940   0.083
10391W        W80991  43.316  14.855  12.131
10392W        W80992   7.603  29.403  14.321
10393W        W80993  20.946  31.045  12.914
10394W        W80994  42.446   9.725  10.730
10395W        W80995  29.098  15.988   3.313
10396W        W80996  27.449  36.730   4.741
10397W        W80997   1.740  37.488  11.712
10398W        W80998  29.660  23.911   4.664
10399W        W80999  25.128   4.357   3.076
10400W        W81000  23.580   9.133   2.373
10401W        W81001  25.492  43.375  14.514
10402W        W81002  39.833  12.359   3.205
10403W        W81003  26.685   4.442   0.943
10404W        W81004  18.658   4.294   0.664
10405W        W81005  25.653   3.276  11.596
10406W        W81006   4.755  43.677   4.603
10407W        W81007  13.411   0.496   2.504
10408W        W81008  42.571  35.245  12.924
10409W        W81009  38.410  31.370  14.027
10410W        W81010  35.839  21.171   3.281
10411W        W81011  22.064  38.949   1.674
10412W        W81012  13.805  28.758  12.766
10413W        W81013  11.763  32.084   4.635
10414W        W81014  17.734  19.543  11.874
10415W        W81015  36.686  32.033   3.673
10416W        W81016  19.689  32.693  12.393
10417W        W81017  41.976   1.060   4.872
10418W        W81018   3.253  29.390   1.964
10419W        W81019  38.576  24.083   2.311
10420W        W81020  18.584   5.582   2.412
10421W        W81021  32.280  10.204  12.223
10422W        W81022  22.120   0.331   3.295
10423W        W81023  27.285  18.482  14.779
10424W        W81024  22.762  42.844  11.163
10425W        W81025  19.680  11.174   4.582
10426W        W81026  25.919   9.606   2.404
10427W        W81027  21.574  37.552  10.783
10428W        W81028  11.060  42.036  12.983
10429W        W81029  28.507   1.259   1.768
10430W        W81030   4.558  13.966   3.263
10431W        W81031  30.717  39.506  11.163
10432W        W81032  20.242  42.284  12.002
10433W        W81033  26.574   5.303   1.492
10434W        W81034  15.635  32.832  12.282
10435W        W81035  23.609  23.339  14.317
10436W        W81036  11.527   1.569   3.794
10437W        W81037   8.751  25.279  11.527
10438W        W81038   0.811  43.118   4.086
10439W        W81039  35.358  17.244  13.950
10440W        W81040  32.766  40.563  12.738
10441W        W81041  28.905  17.601  14.825
10442W        W81042  30.838  33.297  10.876
10443W        W81043  11.775  40.027   2.481
10444W        W81044  19.094  20.556   1.016
10445W        W81045  10.578  43.843  10.544
10446W        W81046  22.007  37.671   4.493
10447W        W81047  30.629  13.809  12.058
10448W        W81048  34.989  26.999   1.985
10449W        W81049  11.051  32.331   1.385
10450W        W81050  14.635  35.700   3.628
10451W        W81051  30.907  30.595   0.220
10452W        W81052  39.951  22.825   1.956
10453W        W81053  40.748  40.348   1.782
10454W        W81054  16.523  26.651  12.897
10455W        W81055  40.015   3.179  14.424
10456W        W81056   2.414  14.929  11.621
10457W        W81057  44.935  10.276   1.852
10458W        W81058   0.560  14.166  10.218
10459W        W81059  30.926   6.660   4.104
10460W        W81060  16.589  27.630  13.768
10461W        W81061  39.615  35.284  14.436
10462W        W81062  32.942  37.405   2.733
10463W        W81063  10.119  24.094  12.477
10464W        W81064   3.359   1.861   2.648
10465W        W81065  23.073  31.655   3.664
10466W        W81066  22.304  31.210  11.411
10467W        W81067   2.358  26.564   3.673
10468W        W81068   4.320  23.627   2.649
10469W        W81069   6.202   3.347   4.469
10470W        W81070  27.422  21.484  14.197
10471W        W81071  21.234  14.693  12.338
10472W        W81072   7.905  38.533   2.028
10473W        W81073  10.560  16.075  13.920
10474W        W81074  25.977  32.595  11.159
10475W        W81075  17.801  33.302  11.577
10476W        W81076  18.062  24.243  10.639
10477W        W81077  37.846   0.108  13.403
10478W        W81078  12.374  17.449  13.490
10479W        W81079  32.609   2.219   3.120
10480W        W81080  18.499   3.448   4.158
10481W        W81081  29.474  38.297  12.938
10482W        W81082  34.844  15.245  12.038
10483W        W81083  40.442  31.733   4.251
10484W        W81084  38.402  35.089   3.703
10485W        W81085  29.246  26.498   0.125
10486W        W81086  42.938  41.824   5.132
10487W        W81087  22.259   2.966  12.044
10488W        W81088  10.670  19.194   0.455
10489W        W81089   6.939  35.686   3.357
10490W        W81090  12.034   6.311   1.164
10491W        W81091  40.782  23.784  13.437
10492W        W81092  33.609   7.793  10.214
10493W        W81093  35.939  36.830   0.339
10494W        W81094  26.295  19.126  11.592
10495W        W81095  44.916  35.152   3.394
10496W        W81096  41.086  12.972  12.527
10497W        W81097   9.460  34.731   1.843
10498W        W81098   6.710  19.737  10.814
10499W        W81099   4.458  13.857   2.319
10500W        W81100  36.060  19.112   4.377
10501W        W81101   6.639  15.278   4.391
10502W        W81102   7.273  18.792   4.181
10503W        W81103  24.432   8.177   2.267
10504W        W81104  13.220  24.601  12.814
10505W        W81105   0.495   2.997  13.563
10506W        W81106  19.588   1.733   2.096
10507W        W81107   8.605  37.570  13.052
10508W        W81108  38.123  34.332  13.700
10509W        W81109  10.317   2.839   3.694
10510W        W81110  39.323  34.565  12.513
10511W        W81111  14.250  42.796   2.914
10512W        W81112  43.837  19.609  10.972
10513W        W81113   5.206   5.400  11.679
10514W        W81114   8.869  37.048  11.913
10515W        W81115   6.819  12.299  11.758
10516W        W81116  40.551  23.938   3.324
10517W        W81117  18.531  44.937   0.958
10518W        W81118  27.488   9.351  10.672
10519W        W81119   9.047   4.183  12.440
10520W        W81120  25.055   0.840  13.017
10521W        W81121  42.013  26.173   2.938
10522W        W81122  27.939  27.679  13.839
10523W        W81123  24.187   4.968  10.288
10524W        W81124  19.698  29.555  14.564
10525W        W81125  40.118  16.053  10.840
10526W        W81126  17.466   9.431  14.911
10527W        W81127  21.757   2.762  13.369
10528W        W81128   9.806  42.839   3.591
10529W        W81129  32.896  24.146  12.623
10530W        W81130   9.176  20.054   2.613
10531W        W81131  30.196   7.908  10.698
10532W        W81132   8.195  25.986  13.477
10533W        W81133  43.497  12.038  11.729
10534W        W81134  15.847   0.688  12.131
10535W        W81135  12.890  27.481   1.328
10536W        W81136  16.286  25.527  11.018
10537W        W81137  11.839  21.143  14.485
10538W        W81138   2.196  27.978   4.025
10539W        W81139  23.617   9.461   3.663
10540W        W81140   7.540  11.511   0.175
10541W        W81141  24.092  23.512   0.056
10542W        W81142  44.463  39.857   1.218
10543W        W81143  30.478  20.286   3.865
10544W        W81144   1.355  42.575   1.895
10545W        W81145   9.974  42.029   1.033
10546W        W81146  37.807  12.837  11.546
10547W        W81147  43.195   9.278  12.889
10548W        W81148  43.055  36.038   3.732
10549W        W81149  33.590  17.218   0.777
10550W        W81150  37.080  24.178   5.050
10551W        W81151  19.612  41.004   0.080
10552W        W81152   5.021  18.312  13.129
10553W        W81153  17.157  28.045   0.161
10554W        W81154  22.172  25.061  13.893
10555W        W81155  23.272  36.458   4.155
10556W        W81156  18.101  10.359   4.834
10557W        W81157  32.682   4.209   3.371
10558W        W81158  29.489   3.808   2.450
10559W        W81159  21.498  24.668   4.170
10560W        W81160  10.329  23.059  10.598
10561W        W81161  30.812  16.652  11.746
10562W        W81162  21.103  35.082   2.628
10563W        W81163  11.520  27.257  11.231
10564W        W81164   1.030  43.776   3.122
10565W        W81165  12.373  20.677  13.510
10566W        W81166   9.645   8.234  14.498
10567W        W81167  44.239  14.709   4.522
10568W        W81168  16.642  20.926  14.886
10569W        W81169  40.956  43.917  12.850
10570W        W81170  37.247  32.707   2.236
10571W        W81171  28.263  38.192   2.261
10572W        W81172  18.673  21.714   4.042
10573W        W81173  29.915  25.636  14.871
10574W        W81174   6.794  22.693   4.757
10575W        W81175  35.070   6.436   1.827
10576W        W81176   0.928  32.858   0.294
10577W        W81177  29.065  28.941  12.087
10578W        W81178   1.365  18.723  12.518
10579W        W81179  17.114   5.734   3.661
10580W        W81180  21.292  32.669  14.008
10581W        W81181   6.867   3.198   3.143
10582W        W81182  38.061  36.985  12.345
10583W        W81183  20.601  19.413  12.387
10584W        W81184  29.478   1.774  10.702
10585W        W81185  33.496  21.712   2.403
10586W        W81186  26.518  24.968  13.007
10587W        W81187  31.630   8.189   5.022
10588W        W81188  32.974  26.416   1.829
10589W        W81189  17.166  27.280  11.663
10590W        W81190  21.372  43.654   2.149
10591W        W81191  43.982   7.347   0.339
10592W        W81192   6.526   4.160  14.309
10593W        W81193  27.804  10.568  13.911
10594W        W81194  25.182  36.345   3.791
10595W        W81195  29.624   0.840   0.934
10596W        W81196  24.448  17.145  14.631
10597W        W81197  41.134   3.505   5.459
10598W        W81198  42.875  40.430  11.305
10599W        W81199  12.790  17.065   2.012
10600W        W81200  24.644  30.568   4.164
10601W        W81201  44.321  19.856  10.544
10602W        W81202  39.575  40.906  13.848
10603W        W81203  16.119  14.798   0.298
10604W        W81204  10.037  28.467  11.759
10605W        W81205  41.798  24.464  14.476
10606W        W81206  24.638   8.906   0.967
10607W        W81207  28.367  37.530  11.177
10608W        W81208  11.719  43.420  12.034
10609W        W81209  27.460   7.078   1.930
10610W        W81210   7.818  22.046   0.688
10611W        W81211  44.900  13.378   4.539
10612W        W81212  41.147  44.796   2.486
10613W        W81213  19.246  32.436  14.141
10614W        W81214  21.319  42.749   3.727
10615W        W81215  19.262   4.404   3.366
10616W        W81216  35.134  37.017   1.753
10617W        W81217   0.405  34.097   4.308
10618W        W81218  25.654   9.677  10.686
10619W        W81219  35.387  40.981   4.648
10620W        W81220  17.141  15.953  11.206
10621W        W81221  19.517  42.847   1.965
10622W        W81222   2.552  14.781  12.101
10623W        W81223  21.173  15.009   3.870
10624W        W81224  13.148  27.624  14.783
10625W        W81225  33.296   1.410   0.376
10626W        W81226   0.486  22.267   2.247
10627W        W81227   6.126   2.394   4.735
10628W        W81228  31.270  35.092   1.364
10629W        W81229  42.539  40.913   0.462
10630W        W81230   6.676  21.078   1.198
10631W        W81231  44.464  11.679  13.122
10632W        W81232  37.290   0.470  12.398
10633W        W81233  21.537   4.149  13.322
10634W        W81234  35.440  23.589  12.956
10635W        W81235  33.979   7.501   4.835
10636W        W81236  25.573  18.757   3.732
10637W        W81237  37.875  12.866  12.511
10638W        W81238   8.370  17.777  13.525
10639W        W81239  28.623   4.895   2.907
10640W        W81240  14.373  23.519  13.471
10641W        W81241  24.358  11.125  10.694
10642W        W81242  37.544  32.548   4.052
10643W        W81243  10.299  17.407  12.890
10644W        W81244   0.763  42.420  11.033
10645W        W81245  16.633  39.114   3.844
10646W        W81246  19.551  39.592  12.459
10647W        W81247  35.837  35.867   0.421
10648W        W81248  40.382  10.574  13.549
10649W        W81249  36.876   1.781   2.188
10650W        W81250  18.197  19.167   0.689
10651W        W81251  44.994  25.556  13.753
10652W        W81252  24.447  15.757  12.534
10653W        W81253  18.503   8.287  13.026
10654W        W81254  15.298  39.512   0.846
10655W        W81255   1.412  22.758  12.059
10656W        W81256  10.368   3.472   2.163
10657W        W81257  34.066  22.213   0.029
10658W        W81258   2.201  12.671  11.635
10659W        W81259  23.267  20.480  10.851
10660W        W81260  11.856  25.910  14.378
10661W        W81261   1.943   3.674   4.628
10662W        W81262   0.063  20.529   4.286
10663W        W81263  34.391  16.553  12.435
10664W        W81264   8.792  40.382   0.527
10665W        W81265   8.823  14.593  10.581
10666W        W81266  31.835   8.726   4.524
10667W        W81267  28.603  28.171   0.079
10668W        W81268   8.802  25.852  12.784
10669W        W81269  16.726  33.065   3.395
10670W        W81270  18.838  35.510   4.945
10671W        W81271  24.111  37.606   4.078
10672W        W81272  13.996   5.511  11.991
10673W        W81273  13.613  34.950  10.682
10674W        W81274  10.592  30.026   2.771
10675W        W81275  21.570  15.812   3.386
10676W        W81276   6.159  21.086   1.237
10677W        W81277  34.396   7.143   1.867
10678W        W81278   0.269  16.697   0.804
10679W        W81279  24.690  19.563  11.160
10680W        W81280  30.074  26.448  10.696
10681W        W81281   3.351  38.594  14.067
10682W        W81282  42.826  18.316   2.264
10683W        W81283  31.235  40.871  12.518
10684W        W81284  11.250   3.457  13.753
10685W        W81285  22.444  41.288  12.942
10686W        W81286  37.456  12.402  10.543
10687W        W81287  33.421  25.550  14.864
10688W        W81288   4.183  29.924   3.710
10689W        W81289  36.817  23.409  14.896
10690W        W81290  38.964  39.981   2.360
10691W        W81291   4.181  20.150   0.493
10692W        W81292  13.169  20.757  12.923
10693W        W81293  37.449  31.931   3.224
10694W        W81294   2.181  41.387   0.437
10695W        W81295  10.475  12.586  10.205
10696W        W81296   3.688  40.951  13.038
10697W        W81297  20.738  20.228   2.396
10698W        W81298  27.334  17.521   3.089
10699W        W81299  14.857  18.809  12.621
10700W        W81300  21.663  33.982   2.288
10701W        W81301  44.314  39.019   1.928
10702W        W81302  28.381  39.809  10.710
10703W        W81303  44.341   0.306   0.939
10704W        W81304  11.780   3.408   2.407
10705W        W81305   7.643  18.100   1.428
10706W        W81306  19.034  35.376  14.475
10707W        W81307  18.843   1.946   3.100
10708W        W81308  13.588  35.887   1.750
10709W        W81309  18.372   0.579   3.641
10710W        W81310  42.269   8.611  10.443
10711W        W81311  32.118  22.486   4.460
10712W        W81312  38.851  14.295   0.901
10713W        W81313  23.706  14.817   3.556
10714W        W81314  28.427  33.464  12.163
10715W        W81315  41.592  32.003   3.159
10716W        W81316  25.873  39.631  12.102
10717W        W81317  38.432  19.412   9.390
10718W        W81318  39.336  40.854  12.463
10719W        W81319  40.776  10.508  13.924
10720W        W81320  20.205  25.599  13.026
10721W        W81321  43.237  29.936   1.716
10722W        W81322  43.890  27.620  13.742
10723W        W81323  24.382   2.339   3.805
10724W        W81324  40.285  22.193   1.405
10725W        W81325   1.989  23.051  14.102
10726W        W81326  10.338  31.233  14.585
10727W        W81327  12.030  20.821  11.916
10728W        W81328  34.340   4.606   1.756
10729W        W81329   2.136   9.491  13.188
10730W        W81330  34.939  21.771   0.922
10731W        W81331   4.011  19.136   3.284
10732W        W81332  23.545  31.526  11.063
10733W        W81333  15.784  15.125  13.172
10734W        W81334   3.132  11.108  10.743
10735W        W81335   1.483  11.340  13.077
10736W        W81336   6.868   4.201   0.451
10737W        W81337  31.098  36.897   0.863
10738W        W81338  39.381  37.037   4.297
10739W        W81339  19.693  40.059   2.145
10740W        W81340  36.540   2.743   0.947
10741W        W81341  26.781  24.268  14.754
10742W        W81342  35.377  44.865   3.546
10743W        W81343  43.028  14.040  14.832
10744W        W81344   6.860   3.971   1.703
10745W        W81345  18.048  36.574  12.382
10746W        W81346   9.170  44.978   1.701
10747W        W81347  12.039   4.786  11.189
10748W        W81348  19.857  37.460  11.934
10749W        W81349  10.197  30.472  11.330
10750W        W81350  35.955  33.359  14.304
10751W        W81351  37.721  10.630  13.014
10752W        W81352  40.839  40.732  10.847
10753W        W81353  33.987  36.367  13.092
10754W        W81354  11.265  34.019  14.049
10755W        W81355  28.243  40.311  13.059
10756W        W81356  29.879   4.736   1.692
10757W        W81357   4.839  37.394  14.965
10758W        W81358   6.123  21.188  14.196
10759W        W81359  30.683  27.299  10.923
10760W        W81360  24.173  14.798  14.980
10761W        W81361   5.267  26.637  13.845
10762W        W81362   4.399  20.768  12.487
10763W        W81363  19.672  17.487  11.605
10764W        W81364   6.896  10.547   4.941
10765W        W81365  33.590  12.610   3.309
10766W        W81366   4.778   1.984  12.798
10767W        W81367  44.891  29.161   4.691
10768W        W81368  16.496  12.313   3.371
10769W        W81369   8.890  24.906   2.853
10770W        W81370  13.739   2.478   1.875
10771W        W81371  15.326  19.236   4.034
10772W        W81372   6.327   6.122   4.293
10773W        W81373  14.718  26.760  10.589
10774W        W81374  29.076  38.624   1.269
10775W        W81375  19.134  32.335  11.720
10776W        W81376  12.309  40.779   0.715
10777W        W81377  35.457  22.648   1.782
10778W        W81378  14.752   2.717   3.631
10779W        W81379   3.018  29.370  12.327
10780W        W81380  20.069  21.066  12.137
10781W        W81381  29.102  42.280  13.381
10782W        W81382  29.501  27.816   3.310
10783W        W81383   4.166  39.238  12.147
10784W        W81384  14.224  41.155   3.633
10785W        W81385  42.495  41.019   2.369
10786W        W81386   2.477  23.983   3.774
10787W        W81387  23.221  39.091   2.203
10788W        W81388  38.080  35.179  12.723
10789W        W81389  33.894  19.879   2.896
10790W        W81390   8.100   0.717  11.029
10791W        W81391  35.750  36.155  11.651
10792W        W81392  34.737  28.019  12.546
10793W        W81393  22.304   2.666   2.191
10794W        W81394  44.769  19.626  14.978
10795W        W81395  32.486   3.726   3.345
10796W        W81396  19.581  16.620   0.348
10797W        W81397  31.479   3.294   1.550
10798W        W81398  43.248  21.710   1.710
10799W        W81399  20.928  37.407   0.367
10800W        W81400  30.876  40.205   4.389
10801W        W81401  32.104  38.591   4.546
10802W        W81402  26.005   2.697  14.194
10803W        W81403   1.290  37.334   4.833
10804W        W81404  35.448  37.651   4.580
10805W        W81405  21.575  11.847   4.306
10806W        W81406   5.390  39.204  14.876
10807W        W81407  44.206  43.879   4.873
10808W        W81408  13.836   7.608   2.703
10809W        W81409   0.336   5.833   0.323
10810W        W81410   6.780  44.639  10.383
10811W        W81411   9.776   9.832  13.133
10812W        W81412  42.825  41.043  11.376
10813W        W81413  34.634  13.842   4.615
10814W        W81414   4.831  38.730  11.574
10815W        W81415  24.688  12.532  13.837
10816W        W81416  35.342  11.380   0.784
10817W        W81417  21.953  18.048  11.476
10818W        W81418  19.866  39.900   0.809
10819W        W81419   1.198  30.249   1.298
10820W        W81420   6.895  42.241   0.269
10821W        W81421  27.749  40.531   3.067
10822W        W81422  18.120  43.937   2.659
10823W        W81423  10.835   4.868   4.269
10824W        W81424  40.706  42.228  11.138
10825W        W81425  18.801  22.314  14.862
10826W        W81426  43.820  42.282  12.113
10827W        W81427  13.242  39.532  11.179
10828W        W81428  38.672  39.999  13.451
10829W        W81429  22.581  34.127   4.563
10830W        W81430  40.818  41.702  11.106
10831W        W81431   2.166   7.912   1.594
10832W        W81432  31.182  16.160  11.133
10833W        W81433  31.197  36.036   0.790
10834W        W81434  12.764  21.446  11.691
10835W        W81435  37.788  29.546  14.305
10836W        W81436   9.250  14.569   3.567
10837W        W81437  12.122  38.974  10.777
10838W        W81438  31.965  31.620  14.558
10839W        W81439  13.869  42.873   2.183
10840W        W81440  26.627  14.661  11.700
10841W        W81441  17.146   5.766   1.698
10842W        W81442   4.446  34.448   3.118
10843W        W81443  41.235   4.640  13.536
10844W        W81444  32.450  24.306   1.305
10845W        W81445  42.235  32.920   3.425
10846W        W81446  35.455  36.563  11.616
10847W        W81447   2.080  19.808   2.147
10848W        W81448  15.197  10.381  11.267
10849W        W81449  29.612  44.587   1.273
10850W        W81450   3.795  21.110   0.220
10851W        W81451  38.030  38.431  13.006
10852W        W81452  38.551  17.139  11.516
10853W        W81453  36.296  23.569   1.220
10854W        W81454  16.139  28.983   0.090
10855W        W81455  40.954  40.750  14.459
10856W        W81456  13.675  11.700   0.490
10857W        W81457  12.448  43.941   0.452
10858W        W81458   8.842  37.346   4.093
10859W        W81459  11.169  40.509  14.842
10860W        W81460  24.052  42.991   1.710
10861W        W81461  40.695  15.817  11.710
10862W        W81462  39.034  42.316   3.701
10863W        W81463  14.768  33.530   3.594
10864W        W81464  43.563  10.190   4.129
10865W        W81465  30.040  24.048  13.463
10866W        W81466  31.693  17.658   0.314
10867W        W81467  25.471  10.838  12.398
10868W        W81468  10.451  18.066  12.428
10869W        W81469  21.192  34.865  13.917
10870W        W81470  16.801  34.660   0.059
10871W        W81471  18.573   3.757  13.912
10872W        W81472  27.070   3.027  13.614
10873W        W81473  38.512  43.998   2.624
10874W        W81474  18.867  18.128   2.233
10875W        W81475  41.218  16.472  12.972
10876W        W81476   6.841  42.699   1.239
10877W        W81477  22.446  25.622  12.767
10878W        W81478   1.265  19.861   4.613
10879W        W81479  44.039   3.992   2.324
10880W        W81480  43.349  44.224   3.206
10881W        W81481  16.608  40.936   0.271
10882W        W81482   1.000  43.707  11.568
10883W        W81483  35.199  28.719   3.607
10884W        W81484   5.111  22.666   2.481
10885W        W81485  18.703   1.375   4.180
10886W        W81486  24.916  42.818  11.966
10887W        W81487  43.356  26.477   1.211
10888W        W81488  38.032  22.249   3.881
10889W        W81489  17.814  15.812  13.146
10890W        W81490  26.108  16.709  10.642
10891W        W81491  31.708  21.702  11.347
10892W        W81492  10.095  33.130  14.910
10893W        W81493  19.737  11.122  11.236
10894W        W81494  28.899  12.393   4.094
10895W        W81495   8.726  16.250   0.491
10896W        W81496  28.932  25.705   1.909
10897W        W81497  39.097  17.030  12.725
10898W        W81498  14.290  24.788  13.917
10899W        W81499  16.705  40.980  13.444
10900W        W81500   8.738  24.544   0.824
10901W        W81501  14.338   4.634  11.147
10902W        W81502  20.288  22.624   1.999
10903W        W81503  38.284  23.004   2.368
10904W        W81504  22.106  41.436  10.717
10905W        W81505   6.301  16.495   1.305
10906W        W81506  28.189   7.089   5.063
10907W        W81507  27.055   4.987   4.027
10908W        W81508  41.402  15.485   3.194
10909W        W81509  10.960   5.473  13.488
10910W        W81510   5.126  40.507   1.187
10911W        W81511  44.981   1.792   4.015
10912W        W81512  25.054  41.858   3.682
10913W        W81513  21.994  20.985   0.857
10914W        W81514   7.307  24.512  14.050
10915W        W81515  15.885  43.561   0.355
10916W        W81516  10.773  35.147  14.450
10917W        W81517  14.546  35.120   2.290
10918W        W81518  44.276  39.041   4.656
10919W        W81519   3.933  10.855  11.942
10920W        W81520  36.127  26.039   3.795
10921W        W81521  10.092  22.575   0.831
10922W        W81522   9.831  44.302  12.090
10923W        W81523   1.884  32.650   2.609
10924W        W81524  42.957  27.154   1.672
10925W        W81525  38.372   7.324  11.479
10926W        W81526  19.863  19.816  14.242
10927W        W81527  32.032  15.368   0.291
10928W        W81528  17.264  11.722  10.620
10929W        W81529  44.834  23.712  13.252
10930W        W81530   1.101   7.320   1.456
10931W        W81531  21.904  14.746  11.114
10932W        W81532  41.502  13.759  11.988
10933W        W81533  25.620  22.821  14.831
10934W        W81534  13.355   5.348  11.600
10935W        W81535  22.727  12.618  10.505
10936W        W81536  38.392  24.391  11.983
10937W        W81537  24.983  29.200   0.929
10938W        W81538  17.280   6.852   4.193
10939W        W81539  16.976  17.568   0.427
10940W        W81540  39.348  42.004   4.604
10941W        W81541  22.665  14.525  10.878
10942W        W81542  41.367  43.919   2.339
10943W        W81543  18.142  40.753  13.302
10944W        W81544  17.223  34.925  11.121
10945W        W81545   9.193  13.308  10.901
10946W        W81546  12.284   2.289   4.243
10947W        W81547  11.141  20.476   1.264
10948W        W81548  27.608   4.242   3.446
10949W        W81549  23.786  36.527   2.260
10950W        W81550  30.125  18.588   1.772
10951W        W81551   6.279  35.520  10.866
10952W        W81552   3.663   6.185  14.003
10953W        W81553  26.975  31.680  13.228
10954W        W81554  44.140  19.387  13.687
10955W        W81555  43.296  36.376  13.882
10956W        W81556  33.895   9.817   3.244
10957W        W81557  25.598  44.077  10.681
10958W        W81558  13.845  34.377   2.236
10959W        W81559  23.505  12.108   2.361
10960W        W81560  14.672  31.632  12.081
10961W        W81561  22.267  10.092   1.697
10962W        W81562  41.883   7.000   9.738
10963W        W81563  17.907  19.800  11.065
10964W        W81564  17.708  34.473   0.013
10965W        W81565   9.161  10.836   4.619
10966W        W81566  13.834  17.063  12.914
10967W        W81567  13.143  13.300   0.004
10968W        W81568  11.132  27.260   1.757
10969W        W81569   2.397  37.457   4.566
10970W        W81570  23.496  20.252   3.618
10971W        W81571   6.164  29.812   3.816
10972W        W81572   8.871  27.277  10.487
10973W        W81573  34.509   2.512  13.449
10974W        W81574  30.458  12.526  11.163
10975W        W81575  24.393  28.232   4.715
10976W        W81576  44.167  27.487   4.090
10977W        W81577   5.520  31.636  14.104
10978W        W81578  27.625  27.885   2.489
10979W        W81579   6.427  24.225   4.097
10980W        W81580  17.524   0.685   0.023
10981W        W81581   6.671   9.770   3.321
10982W        W81582  30.698  43.655   3.463
10983W        W81583  34.296  40.296   4.264
10984W        W81584  15.856  26.397  11.143
10985W        W81585   4.071  22.129  14.366
10986W        W81586  42.754  25.668  11.075
10987W        W81587  32.037  10.633  12.383
10988W        W81588   5.794  18.305   3.754
10989W        W81589  12.820   9.179   0.402
10990W        W81590   1.302  14.687   3.929
10991W        W81591   6.326  44.388  13.600
10992W        W81592  14.268   4.509   1.236
10993W        W81593  10.207  12.631   2.248
10994W        W81594  15.958   5.217  14.445
10995W        W81595  10.726  12.538   0.496
10996W        W81596  21.407  21.267   0.194
10997W        W81597  16.507  44.341  14.735
10998W        W81598   1.557  19.795   2.287
10999W        W81599  29.731  25.932  12.521
11000W        W81600  23.990  33.432   0.017
11001W        W81601   5.262  14.481   3.753
11002W        W81602  10.640   3.709   1.432
11003W        W81603  41.347   2.774  14.395
11004W        W81604  37.358  20.118  10.839
11005W        W81605  28.699  15.089  14.803
11006W        W81606  23.012  11.820  12.992
11007W        W81607   8.538   1.394  10.392
11008W        W81608  41.718  20.627   0.283
11009W        W81609  32.512  16.785  14.337
11010W        W81610   9.786  12.274  11.439
11011W        W81611   6.112  21.568  12.122
11012W        W81612   5.427  19.131  10.723
11013W        W81613   7.407  32.995  10.758
11014W        W81614  31.001  18.036  13.268
11015W        W81615  24.360  43.524  10.247
11016W        W81616  33.585  25.975  11.043
11017W        W81617  28.027  32.385  13.560
11018W        W81618  36.464  42.242   0.432
11019W        W81619   2.230   9.340   4.181
11020W        W81620  11.436  22.884   4.103
11021W        W81621  26.611  28.567  14.543
11022W        W81622  21.903  22.239  13.854
11023W        W81623   0.257   3.584   0.065
11024W        W81624  34.457  24.236   1.149
11025W        W81625  23.215  29.440   1.267
11026W        W81626  40.096   6.953   0.931
11027W        W81627  44.451  44.981  14.616
11028W        W81628  36.369   5.980   3.133
11029W        W81629   8.837   2.455  13.998
11030W        W81630  17.754   6.068  13.199
11031W        W81631   4.907  15.302  12.690
11032W        W81632   5.998  14.378   3.202
11033W        W81633   1.502   3.409  11.698
11034W        W81634   0.979  26.108   1.855
11035W        W81635  16.300  42.787   0.249
11036W        W81636  39.243  19.683   0.371
11037W        W81637  23.138  44.326  10.818
11038W        W81638  17.685  43.941   3.240
11039W        W81639  35.587  36.855  11.158
11040W        W81640  42.457  12.868  10.656
11041W        W81641   0.283  30.627  13.058
11042W        W81642   2.523  38.334  13.857
11043W        W81643  23.912   8.761  11.572
11044W        W81644  14.168  16.977   4.604
11045W        W81645  28.224  15.902  11.135
11046W        W81646   6.299  31.108  14.417
11047W        W81647  36.452  11.303  11.114
11048W        W81648   4.926  23.231  10.846
11049W        W81649  19.260  11.607   1.783
11050W        W81650   7.139  25.788  11.127
11051W        W81651  38.750  40.310  13.915
11052W        W81652  23.192   4.324  11.631
11053W        W81653   7.751  23.614   5.081
11054W        W81654   3.156  35.821  14.935
11055W        W81655   0.363  35.021   4.133
11056W        W81656  32.444  25.552  14.761
11057W        W81657  30.420  10.232   4.582
11058W        W81658   8.142  10.823  11.073
11059W        W81659  29.121  28.278  12.962
11060W        W81660   5.002   2.469  14.435
11061W        W81661  17.055   9.707  14.780
11062W        W81662  41.867  11.243  14.207
11063W        W81663  29.461   7.285   4.704
11064W        W81664   3.799  22.006  11.546
11065W        W81665  26.731  18.027  13.104
11066W        W81666   8.650  12.442   0.381
11067W        W81667  17.977  40.424  14.802
11068W        W81668  26.894   8.936   0.766
11069W        W81669   7.416  23.441  12.208
11070W        W81670  31.501  19.830   0.871
11071W        W81671  15.201  43.036   0.757
11072W        W81672  43.828  31.586  10.711
11073W        W81673  16.196  27.600   0.949
11074W        W81674  17.717  34.196   2.399
11075W        W81675  34.262  33.540   2.877
11076W        W81676   2.755  21.001   0.301
11077W        W81677  27.214  28.287  13.313
11078W        W81678  40.991  11.640  14.927
11079W        W81679  39.343   0.800   1.395
11080W        W81680  11.303  14.875  14.037
11081W        W81681  26.495  37.010   3.400
11082W        W81682  29.701  29.000   3.320
11083W        W81683  43.998  15.064   0.843
11084W        W81684  35.026  23.656  13.297
11085W        W81685   8.543  19.414   1.033
11086W        W81686  12.359   8.587  14.443
11087W        W81687  22.050  28.661  14.053
11088W        W81688  38.620  17.168  10.477
11089W        W81689  43.858  36.329  14.789
11090W        W81690   2.612  39.312  13.793
11091W        W81691  29.417  22.629   3.900
11092W        W81692  19.800   0.279  10.779
11093W        W81693  42.964  17.843   1.343
11094W        W81694  29.869  19.778  10.458
11095W        W81695  37.591  11.263  12.078
11096W        W81696  23.953   3.700   1.395
11097W        W81697  25.063   9.337   2.273
11098W        W81698  42.345  31.061  11.506
11099W        W81699  40.294  18.256   0.540
11100W        W81700  36.669  24.213  14.410
11101W        W81701  28.639  38.562   4.629
11102W        W81702  25.241  26.120  13.940
11103W        W81703  40.492  11.618   2.201
11104W        W81704  28.764  17.258  12.256
11105W        W81705  28.301   7.184  12.587
11106W        W81706  18.776  26.519  12.902
11107W        W81707   1.072  28.906   4.193
11108W        W81708  14.656  22.203   2.093
11109W        W81709  40.476  11.126   2.362
11110W        W81710   9.336  42.988   3.810
11111W        W81711  41.474  22.445   1.722
11112W        W81712   9.460  13.222  13.602
11113W        W81713  39.370  16.169   4.564
11114W        W81714  11.512   4.191   4.170
11115W        W81715  19.117  33.147   3.350
11116W        W81716  43.591   7.347   2.964
11117W        W81717  43.821  18.974  14.937
11118W        W81718  18.187  21.287   0.385
11119W        W81719  27.925  27.002   3.800
11120W        W81720  22.059   6.419  10.250
11121W        W81721  25.238   4.242  13.067
11122W        W81722  35.878  25.069   3.325
11123W        W81723   2.293  12.866  14.375
11124W        W81724  15.082  36.473   3.977
11125W        W81725  32.478  10.168  13.047
11126W        W81726  12.348  32.289   0.457
11127W        W81727  24.276  27.089  11.231
11128W        W81728   4.732  36.484   4.044
11129W        W81729  31.103  13.661   4.550
11130W        W81730  29.611  37.972  12.253
11131W        W81731   3.717  29.345   2.256
11132W        W81732  31.888  14.167  14.035
11133W        W81733  22.860   5.779   1.481
11134W        W81734  44.123  30.190  11.897
11135W        W81735  44.526  12.156   3.658
11136W        W81736   0.225  21.032   2.712
11137W        W81737  31.157  39.715  11.602
11138W        W81738  20.683  30.590  10.691
11139W        W81739  42.005  37.096  10.677
11140W        W81740  35.380  23.498  11.948
11141W        W81741  33.130   9.209   3.202
11142W        W81742   5.791  15.735   0.839
11143W        W81743  16.618   4.350  14.394
11144W        W81744   2.271   8.978   0.807
11145W        W81745  33.447  42.432   0.546
11146W        W81746  40.550   7.230   1.203
11147W        W81747  22.826  43.311   0.699
11148W        W81748  17.528  28.985  11.149
11149W        W81749  26.172  10.782   0.967
11150W        W81750  16.228  16.464   9.932
11151W        W81751  42.850   6.815  14.281
11152W        W81752  40.079  31.507  14.402
11153W        W81753  41.171   1.731  10.420
11154W        W81754  28.032  17.885   1.460
11155W        W81755   3.961  11.644   0.775
11156W        W81756  15.618  29.107  12.104
11157W        W81757  30.853  41.198  12.553
11158W        W81758  18.969   4.908  12.454
11159W        W81759  16.065  37.896   2.653
11160W        W81760  18.297  28.491  12.202
11161W        W81761   9.772  40.800   1.359
11162W        W81762  17.038  29.917   0.463
11163W        W81763  37.339  35.795   0.381
11164W        W81764   9.789  15.076   3.352
11165W        W81765  21.817   1.471  11.213
11166W        W81766  36.034  16.873   0.254
11167W        W81767  17.707  38.919   0.366
11168W        W81768  12.074  41.924  12.034
11169W        W81769  31.815   2.780   4.619
11170W        W81770  21.171  14.612   0.904
11171W        W81771  41.825  44.446  13.899
11172W        W81772  15.731  40.402   4.522
11173W        W81773  10.684  43.220  13.768
11174W        W81774  31.909  35.570  12.027
11175W        W81775   2.822   5.951  10.695
11176W        W81776  28.555  30.691  14.250
11177W        W81777  28.277  20.218   3.634
11178W        W81778  20.091   4.276  13.363
11179W        W81779  27.225   3.448  13.336
11180W        W81780  14.204   8.020  13.861
11181W        W81781  43.068  18.067  10.714
11182W        W81782   0.302  10.584  10.642
11183W        W81783  30.068  11.150  12.089
11184W        W81784   3.157  10.624   0.232
11185W        W81785  40.235  17.197   2.872
11186W        W81786  22.148  35.641  13.853
11187W        W81787  29.873  19.685   2.197
11188W        W81788  22.145  22.673   4.849
11189W        W81789  21.422  38.345   2.494
11190W        W81790  15.091  39.599  10.709
11191W        W81791  38.681  23.705  14.514
11192W        W81792  19.354  23.107  14.442
11193W        W81793  32.367  25.786  13.404
11194W        W81794   2.669  37.049  12.516
11195W        W81795   7.732   7.175   1.792
11196W        W81796   8.057  37.510   2.615
11197W        W81797  44.487  19.826  12.310
11198W        W81798  15.803  34.642  13.475
11199W        W81799  33.940  30.120  12.861
11200W        W81800   0.655  37.065  12.579
11201W        W81801  25.937  18.607  12.896
11202W        W81802  30.343  33.390   4.072
11203W        W81803  27.596  27.689   1.515
11204W        W81804  31.984  43.858   3.633
11205W        W81805  26.969   4.515   3.217
11206W        W81806  28.628  18.121   0.978
11207W        W81807  33.864  21.472  10.917
11208W        W81808   2.799  22.124   1.662
11209W        W81809  11.841  15.598   4.097
11210W        W81810  33.480  32.898  12.292
11211W        W81811   0.804  36.655   0.728
11212W        W81812   3.089   6.878   3.715
11213W        W81813  28.630   5.481  13.876
11214W        W81814  43.016  37.477  12.397
11215W        W81815   1.168  22.597  12.465
11216W        W81816  38.363  24.658   1.459
11217W        W81817  12.274   9.452  14.251
11218W        W81818  20.200  11.561  14.916
11219W        W81819  27.643  19.043   1.210
11220W        W81820  30.589  12.420  12.069
11221W        W81821   0.190  14.662  11.588
11222W        W81822   4.044  31.783  14.460
11223W        W81823  12.576  15.556  11.140
11224W        W81824   2.517   4.509  12.097
11225W        W81825  27.734  30.281   1.267
11226W        W81826  31.598  42.237   4.174
11227W        W81827  23.014  13.791  10.770
11228W        W81828  15.332  40.419   3.814
11229W        W81829   9.698  38.994  12.358
11230W        W81830  40.323  42.426  10.841
11231W        W81831  21.007  30.030  11.679
11232W        W81832   9.156  19.035  11.914
11233W        W81833   8.780  29.022   4.506
11234W        W81834  20.097  20.965  14.553
11235W        W81835  38.555  19.556   3.239
11236W        W81836  43.319   6.896  12.525
11237W        W81837  26.987  41.857   2.301
11238W        W81838  37.964   0.531   3.691
11239W        W81839   5.408  31.009   0.346
11240W        W81840   8.675  33.819   3.912
11241W        W81841  18.706  27.080  11.220
11242W        W81842  41.122  13.828   2.820
11243W        W81843  35.520  27.043   4.487
11244W        W81844  33.827  29.282   3.302
11245W        W81845  41.558  40.914   0.085
11246W        W81846  38.580   9.267  12.911
11247W        W81847  10.063  28.001   3.671
11248W        W81848  19.195  19.617  11.120
11249W        W81849  33.525  19.532   2.675
11250W        W81850   6.178  16.774  12.953
11251W        W81851  30.950  15.814   1.041
11252W        W81852  36.349   3.424  11.912
11253W        W81853  24.083  29.900  13.539
11254W        W81854  37.828  42.481   5.060
11255W        W81855  41.731  12.293  10.376
11256W        W81856  14.142   1.925  10.274
11257W        W81857  14.260  28.869   1.531
11258W        W81858  43.485   5.870  12.391
11259W        W81859   9.114   5.911   1.944
11260W        W81860   5.325  39.831  13.366
11261W        W81861  29.074  11.178   3.567
11262W        W81862  23.130   1.029   5.364
11263W        W81863  22.084  40.576  13.432
11264W        W81864  40.399  11.326  10.349
11265W        W81865   6.397  41.404  12.566
11266W        W81866  13.408  22.713   0.367
11267W        W81867  20.141  32.955   3.716
11268W        W81868  31.054  35.887  10.324
11269W        W81869   9.293  41.811   4.271
11270W        W81870  11.204   6.436   1.807
11271W        W81871   4.041  13.141  11.618
11272W        W81872  33.234  18.639  14.785
11273W        W81873  11.541  36.515  14.881
11274W        W81874  12.504  28.942  14.978
11275W        W81875  41.065   2.327   3.718
11276W        W81876  18.590  29.933   3.812
11277W        W81877  23.974  35.141  12.975
11278W        W81878  10.294   5.410   3.704
11279W        W81879  32.185  38.466   2.333
11280W        W81880  23.787  42.788   3.719
11281W        W81881  23.027  39.306   0.526
11282W        W81882  10.381  29.024   3.846
11283W        W81883  41.632   9.613  12.414
11284W        W81884  27.028  26.497   1.510
11285W        W81885  22.755  41.562   3.672
11286W        W81886  34.531  36.710  12.866
11287W        W81887   3.404  37.430   4.420
11288W        W81888  44.134   7.599  11.792
11289W        W81889   5.889  21.098  12.151
11290W        W81890  25.505  20.306   4.202
11291W        W81891   0.019  18.600   1.272
11292W        W81892  38.166  23.563  13.920
11293W        W81893  14.241   6.928   1.395
11294W        W81894  40.889   7.679  13.952
11295W        W81895   1.363  43.319  13.318
11296W        W81896  35.052   3.968  14.763
11297W        W81897  20.718  20.568  12.869
11298W        W81898  19.342  18.056  10.769
11299W        W81899   7.882  31.687   2.051
11300W        W81900  17.788  36.882   3.041
11301W        W81901   6.728  17.790   1.459
11302W        W81902  11.806  24.242  12.139
11303W        W81903  14.133   1.753   4.389
11304W        W81904  17.117   7.389  13.428
11305W        W81905  33.288  21.018   4.134
11306W        W81906  30.652  17.538   0.254
11307W        W81907  24.511   5.537   2.885
11308W        W81908  38.549  27.283  14.484
11309W        W81909  44.086  20.289  10.302
11310W        W81910  37.411  30.525   0.798
11311W        W81911  35.699  17.566   2.752
11312W        W81912  27.524  27.589   0.887
11313W        W81913  24.482  18.699   1.936
11314W        W81914  10.378   1.503   0.278
11315W        W81915  19.626  22.965  11.368
11316W        W81916   2.274  32.935  11.508
11317W        W81917  39.369   2.349  12.445
11318W        W81918   4.696  34.426   2.339
11319W        W81919  37.648   9.955   4.687
11320W        W81920   2.551  36.018   0.741
11321W        W81921  23.626  28.182   1.663
11322W        W81922  35.164  36.188   4.297
11323W        W81923   7.326  21.737  11.711
11324W        W81924  42.843  10.286   1.297
11325W        W81925  37.448   1.019   4.729
11326W        W81926   1.271  27.212   1.167
11327W        W81927  41.395  12.081  14.306
11328W        W81928  22.287   9.810  13.497
11329W        W81929  15.848  37.522   4.585
11330W        W81930  26.889  36.886   1.174
11331W        W81931  17.559   3.750   2.701
11332W        W81932  28.196  34.241   4.139
11333W        W81933   3.858  41.488  12.125
11334W        W81934  22.267  32.510  12.519
11335W        W81935  13.360  34.121   0.203
11336W        W81936  34.813  38.788   2.757
11337W        W81937  32.507  18.692   2.161
11338W        W81938  15.232  39.702   4.277
11339W        W81939   0.052  38.171  14.376
11340W        W81940  32.888  12.882   4.697
11341W        W81941   0.785  13.113  13.113
11342W        W81942  38.455  12.171   2.711
11343W        W81943  43.786   3.016   2.265
11344W        W81944  34.322  19.721   4.412
11345W        W81945   0.361  33.161  13.037
11346W        W81946  35.607  26.946  14.041
11347W        W81947  31.740   1.237   2.869
11348W        W81948  13.197  15.719   1.930
11349W        W81949  33.526  27.466   0.241
11350W        W81950   8.329  18.670  11.546
11351W        W81951  38.020   1.961   3.808
11352W        W81952  16.035  31.666  11.055
11353W        W81953  24.218  24.009   3.612
11354W        W81954  17.138  16.755  10.923
11355W        W81955   1.778  44.008   4.860
11356W        W81956  15.648  38.116  13.862
11357W        W81957  35.565  12.767  13.788
11358W        W81958   5.862   1.362  13.842
11359W        W81959  14.068   1.849   2.853
11360W        W81960   5.477  17.509  13.945
11361W        W81961  42.047  30.163   1.276
11362W        W81962   5.653  37.535  13.433
11363W        W81963  42.938  44.785   0.325
11364W        W81964  24.728  28.175  10.784
11365W        W81965  10.350  24.201   4.806
11366W        W81966   6.676  31.380   4.633
11367W        W81967  32.078  33.983   3.589
11368W        W81968   6.459  34.524  11.062
11369W        W81969  24.555   7.473   0.099
11370W        W81970  26.642  13.087   1.654
11371W        W81971  10.035  32.209  11.126
11372W        W81972  20.030  12.749   5.027
11373W        W81973  29.856  44.954   2.764
11374W        W81974  21.203  41.631   4.769
11375W        W81975  34.040  17.632   2.209
11376W        W81976  20.005  24.660   1.275
11377W        W81977   4.929   2.421   4.864
11378W        W81978  18.761   0.262  14.596
11379W        W81979  43.270   7.338  14.457
11380W        W81980  40.459  12.170  10.642
11381W        W81981   9.886  33.300  12.874
11382W        W81982  35.560   7.885   3.086
11383W        W81983  31.114  27.181   0.376
11384W        W81984  27.004  25.241  13.045
11385W        W81985  44.352   4.890   4.756
11386W        W81986   9.838  30.415   0.255
11387W        W81987  43.819  33.180   1.815
11388W        W81988  18.142  37.897   0.965
11389W        W81989   5.789  17.337  13.429
11390W        W81990  18.286   7.454  12.018
11391W        W81991  12.413  36.937   0.989
11392W        W81992   6.489  31.596   3.336
11393W        W81993  24.312   8.748   1.356
11394W        W81994  19.715   8.960   4.035
11395W        W81995  29.048   4.693  12.382
11396W        W81996   5.929  32.887   3.049
11397W        W81997  36.859   9.460   4.329
11398W        W81998   5.282  10.139   4.352
11399W        W81999  11.881  43.814  14.272
11400W        W82000   4.748   6.151  11.556
11401W        W82001  12.985  30.837   2.382
11402W        W82002   7.093   9.316  10.861
11403W        W82003  12.785  35.083   2.670
11404W        W82004  30.237  20.629  10.572
11405W        W82005   9.394  14.054  11.468
11406W        W82006  21.297  21.650   1.369
11407W        W82007  12.866  37.116  12.458
11408W        W82008   1.341  33.044  10.572
11409W        W82009  22.568  16.714  12.888
11410W        W82010   6.761   3.386   4.687
11411W        W82011  32.414  37.377   2.682
11412W        W82012   5.254  36.377  12.875
11413W        W82013  28.323  19.057   0.014
11414W        W82014   3.943   5.809   1.824
11415W        W82015  25.461  25.687   2.682
11416W        W82016  27.673  22.038   0.555
11417W        W82017   6.088  28.067   5.002
11418W        W82018  30.035   0.622  13.948
11419W        W82019  11.559   8.478  11.195
11420W        W82020  23.278  39.132   4.183
11421W        W82021   2.401   8.337   1.884
11422W        W82022  25.067  23.244   4.632
11423W        W82023  30.899  12.085  11.655
11424W        W82024   6.764  31.819  13.830
11425W        W82025   6.707   6.139   3.929
11426W        W82026  13.769  36.858  14.072
11427W        W82027  37.293  21.563   1.932
11428W        W82028  13.121  17.674   5.051
11429W        W82029  42.302  11.347   2.188
11430W        W82030  16.369  12.587  14.507
11431W        W82031  24.130  40.902   1.010
11432W        W82032   7.892  33.148  10.861
11433W        W82033  39.550  23.279  11.135
11434W        W82034  20.774  10.745   3.315
11435W        W82035   3.899  42.868   4.917
11436W        W82036  11.055  19.387   3.216
11437W        W82037  39.133  31.027   2.797
11438W        W82038  30.591  40.770   0.339
11439W        W82039   6.094   6.727  14.990
11440W        W82040  27.252  35.114  11.487
11441W        W82041  31.127  13.099   1.563
11442W        W82042   5.063  25.484   4.781
11443W        W82043   8.836  11.936  13.082
11444W        W82044  30.162  29.930   2.490
11445W        W82045  20.760  13.823   0.777
11446W        W82046  17.666  23.165  13.947
11447W        W82047  39.571   8.764  14.443
11448W        W82048  31.045   3.645  11.529
11449W        W82049  13.723  28.941   1.201
11450W        W82050  33.435  23.189   4.187
11451W        W82051  36.588  29.892   3.500
11452W        W82052  14.324   0.723   0.864
11453W        W82053   4.392  17.555   0.350
11454W        W82054  32.382  39.005  14.471
11455W        W82055  20.110  24.868  12.357
11456W        W82056  15.749  15.184   2.280
11457W        W82057  37.473  16.141  13.874
11458W        W82058  33.084  37.830   3.352
11459W        W82059  14.103  29.968  11.619
11460W        W82060  39.015  28.130   4.307
11461W        W82061  33.971   8.690   1.872
11462W        W82062  33.306  14.839   3.769
11463W        W82063   2.270  14.388   4.171
11464W        W82064  31.155  21.109  14.719
11465W        W82065  24.485  24.639   1.254
11466W        W82066  18.311  35.912   2.742
11467W        W82067  40.610  18.112   3.589
11468W        W82068   0.286   2.429   3.758
11469W        W82069   5.364   8.322  12.651
11470W        W82070  15.153   2.032   3.245
11471W        W82071   7.499  38.100   2.183
11472W        W82072  12.101  24.785   4.207
11473W        W82073  27.869  35.357   1.817
11474W        W82074  32.122   4.702   4.672
11475W        W82075   3.259  35.850  10.771
11476W        W82076  26.567  36.390  11.598
11477W        W82077  10.829  42.246  14.038
11478W        W82078  33.084  39.063  14.996
11479W        W82079  32.877  25.268   3.589
11480W        W82080  40.317  36.043  12.369
11481W        W82081  35.278  16.174  14.414
11482W        W82082  11.963  23.343   0.339
11483W        W82083  24.775  28.914   1.305
11484W        W82084  31.169  42.591  12.857
11485W        W82085  33.929  39.710  13.032
11486W        W82086  14.805  28.240   2.155
11487W        W82087  43.019  23.177   1.039
11488W        W82088  25.084  37.143   2.124
11489W        W82089  35.019  43.296   0.703
11490W        W82090  13.187  32.307   4.466
11491W        W82091   9.209   5.654  11.080
11492W        W82092  19.583   1.305   4.317
11493W        W82093   8.712   3.473   4.954
11494W        W82094  27.703   8.112  14.789
11495W        W82095  17.420   5.638  14.407
11496W        W82096   9.356   8.159   3.225
11497W        W82097  20.143  13.220  10.810
11498W        W82098  26.946  14.742  10.918
11499W        W82099  24.559   4.424   3.723
11500W        W82100  32.346  27.101   4.655
11501W        W82101   5.201  17.555   1.314
11502W        W82102   2.440   0.432   3.208
11503W        W82103  27.213  12.518   0.938
11504W        W82104   8.237  40.863   2.614
11505W        W82105  30.135  37.146   1.766
11506W        W82106  10.639  29.347   0.554
11507W        W82107  32.044  43.541  11.860
11508W        W82108  43.081  32.464  13.010
11509W        W82109  30.027   0.870  13.488
11510W        W82110  25.731  40.939  13.010
11511W        W82111   8.152  20.658  11.053
11512W        W82112  18.822  31.240   4.163
11513W        W82113  30.577  28.188  12.596
11514W        W82114  38.386  23.943  13.642
11515W        W82115  39.136  36.902  13.045
11516W        W82116  23.549  21.217  12.983
11517W        W82117  37.960   8.872   2.364
11518W        W82118  34.897  13.214  12.240
11519W        W82119  11.443  32.496  14.992
11520W        W82120  16.702  43.863   2.326
11521W        W82121  30.958   7.959   3.493
11522W        W82122  34.144  18.943  11.304
11523W        W82123   6.944   3.460   1.770
11524W        W82124  16.315  26.408   1.811
11525W        W82125   8.562   7.769   4.182
11526W        W82126   5.450   4.129  13.357
11527W        W82127  32.051  26.033   3.841
11528W        W82128   6.747  15.539   4.820
11529W        W82129  14.319  15.116   3.680
11530W        W82130  41.880  34.832   4.332
11531W        W82131  29.229   9.388   0.192
11532W        W82132  31.379  15.691   0.784
11533W        W82133  39.653   4.423  11.685
11534W        W82134  21.920  14.750   0.114
11535W        W82135  14.133  24.686  11.675
11536W        W82136  18.624   7.301   3.173
11537W        W82137  34.400  15.667  11.603
11538W        W82138   2.313  31.206  14.764
11539W        W82139  23.482  42.382   3.771
11540W        W82140  32.071  42.433   0.898
11541W        W82141  32.555  41.594   5.211
11542W        W82142  38.460  11.608   3.106
11543W        W82143  24.673  31.516  10.732
11544W        W82144  11.642  21.944  12.548
11545W        W82145  32.399  31.593   3.631
11546W        W82146   9.426   3.762   4.473
11547W        W82147  32.942  13.244   4.334
11548W        W82148  27.002   7.467  14.473
11549W        W82149   3.371  27.492   3.272
11550W        W82150  11.796   1.722   2.955
11551W        W82151  18.463  30.518  10.813
11552W        W82152  37.413  38.335   0.378
11553W        W82153  20.108  41.306  10.201
11554W        W82154  42.419   3.838   4.539
11555W        W82155  30.670  12.402   4.045
11556W        W82156  30.660  34.674   4.875
11557W        W82157  19.536  30.830  10.458
11558W        W82158  32.013  27.665   3.123
11559W        W82159  10.732   8.349  12.352
11560W        W82160  43.290  43.428   0.288
11561W        W82161  42.742  16.960  11.640
11562W        W82162   3.936  18.956  13.390
11563W        W82163  10.187  33.908  10.820
11564W        W82164   0.729  39.305   4.083
11565W        W82165   3.351  44.743  14.807
11566W        W82166  17.658  19.912  11.532
11567W        W82167   4.808  40.788   1.516
11568W        W82168  18.550  18.477  11.092
11569W        W82169  19.685  14.110   0.322
11570W        W82170  20.002  43.734   0.099
11571W        W82171  33.069  28.211   0.418
11572W        W82172  25.089   0.743   1.176
11573W        W82173  21.002  42.967  11.979
11574W        W82174  37.853  28.007   4.199
11575W        W82175   1.649  33.188  10.966
11576W        W82176  29.588   9.526   4.066
11577W        W82177  13.913  11.199   4.239
11578W        W82178  24.472   8.239   1.399
11579W        W82179  36.395   4.341  13.111
11580W        W82180  26.420  17.084  12.030
11581W        W82181  34.491  40.585   3.519
11582W        W82182  22.714   2.061   3.023
11583W        W82183  42.282  35.685  12.955
11584W        W82184  34.866  40.998  14.823
11585W        W82185  44.252  25.140  14.248
11586W        W82186  24.789  32.608  11.525
11587W        W82187   1.695  36.934   0.287
11588W        W82188  14.119   2.873  11.910
11589W        W82189  17.450  35.459   0.290
11590W        W82190  32.232  27.724   1.349
11591W        W82191  16.676  44.742  12.117
11592W        W82192   9.658   3.999  14.804
11593W        W82193  29.412  32.893   0.945
11594W        W82194  34.413  15.457  14.847
11595W        W82195  31.654  26.212   4.817
11596W        W82196  15.701  44.980  12.868
11597W        W82197  42.296  29.967  12.519
11598W        W82198   7.460  11.905  12.882
11599W        W82199  39.266   7.915   1.357
11600W        W82200  25.955  30.392  13.861
11601W        W82201  40.533  29.381  14.979
11602W        W82202   8.368  15.393  14.894
11603W        W82203  27.607  27.105   4.192
11604W        W82204   2.666  36.439   1.927
11605W        W82205  16.478  37.619  13.241
11606W        W82206  10.490  24.394  13.170
11607W        W82207   9.647  28.390  12.588
11608W        W82208  12.090  42.099  11.059
11609W        W82209  13.972   7.967  12.103
11610W        W82210  30.596  27.182   1.117
11611W        W82211  31.218  32.159  12.563
11612W        W82212  26.924  17.367  12.018
11613W        W82213  30.867  35.276  13.582
11614W        W82214  36.458  16.718  13.342
11615W        W82215  21.147  41.682  13.125
11616W        W82216  40.977  17.340   2.388
11617W        W82217  34.996  44.822  13.125
11618W        W82218  24.239  41.067  13.024
11619W        W82219   2.106  33.472  14.520
11620W        W82220  22.533  18.593   4.248
11621W        W82221  12.234  38.860   2.297
11622W        W82222   0.965   0.851  10.211
11623W        W82223  43.292  16.691  12.977
11624W        W82224  29.009  31.132  10.768
11625W        W82225  26.694  22.494   0.708
11626W        W82226  11.422  30.910  12.148
11627W        W82227  27.883  28.621   0.677
11628W        W82228  39.690   2.334  12.028
11629W        W82229  18.022   9.265  12.016
11630W        W82230  43.450   3.411   4.530
11631W        W82231  21.194  19.104   3.122
11632W        W82232   9.398  37.823   1.917
11633W        W82233  35.567  20.748  13.074
11634W        W82234  40.329   3.993   4.593
11635W        W82235   5.944  34.663  12.630
11636W        W82236  14.836  23.789  13.498
11637W        W82237  41.625  16.868   1.845
11638W        W82238  11.909  41.439  11.983
11639W        W82239  16.175  20.453   2.771
11640W        W82240  30.438  18.594   5.142
11641W        W82241   0.608  29.376  10.594
11642W        W82242  36.734   9.796   4.722
11643W        W82243  42.513  41.999  10.546
11644W        W82244  41.525  40.534  12.935
11645W        W82245  25.986  23.626  10.898
11646W        W82246  40.067  33.452   4.505
11647W        W82247  11.261  23.147  11.856
11648W        W82248  26.186  17.523   3.685
11649W        W82249  24.087  40.095   2.952
11650W        W82250  19.944  23.359  10.106
11651W        W82251  42.097  14.585   1.046
11652W        W82252  15.566  18.788   3.273
11653W        W82253  23.146  38.299  12.587
11654W        W82254  35.235  43.240  10.745
11655W        W82255  22.213  28.916   0.459
11656W        W82256  23.227  30.025  12.845
11657W        W82257  43.920  24.975  10.449
11658W        W82258  23.642  26.462   0.863
11659W        W82259  34.801  35.103  10.749
11660W        W82260  33.619  31.072  11.499
11661W        W82261  28.456  20.789   4.293
11662W        W82262  28.632   5.720  12.509
11663W        W82263  22.006  24.795  12.911
11664W        W82264  22.552   8.853   2.258
11665W        W82265  33.085  18.133  10.636
11666W        W82266  33.163  17.771  12.405
11667W        W82267  32.159  10.757   3.383
11668W        W82268  21.946   7.220   3.720
11669W        W82269  16.815   9.362  12.055
11670W        W82270  25.306  38.669   0.864
11671W        W82271  17.188  32.652   3.586
11672W        W82272  33.363  34.405   1.809
11673W        W82273  30.582   4.775   4.517
11674W        W82274  20.613  35.377   0.666
11675W        W82275  34.329  16.402  11.555
11676W        W82276  35.393  17.077   4.486
11677W        W82277  13.016  37.197  11.595
11678W        W82278  28.374  33.096   4.952
11679W        W82279  14.838  38.554  10.686
11680W        W82280  44.120  38.278   4.189
11681W        W82281   1.020  14.118   0.779
11682W        W82282  19.974  28.006  14.017
11683W        W82283  43.063  35.531  12.442
11684W        W82284  33.368  16.353  11.667
11685W        W82285  27.978   2.316   4.751
11686W        W82286  31.968   9.827  14.468
11687W        W82287  34.976  15.880  12.842
11688W        W82288   5.686   9.833  10.506
11689W        W82289   3.452  29.656  12.960
11690W        W82290  38.624  42.847  12.920
11691W        W82291  20.520  39.875  14.186
11692W        W82292   7.131   7.173  12.490
11693W        W82293  41.669  12.159  12.172
11694W        W82294   2.166  44.312  14.382
11695W        W82295   3.499  29.903   3.319
11696W        W82296  39.307  17.643  11.637
11697W        W82297   8.203  15.510   0.382
11698W        W82298  33.068   1.876   0.393
11699W        W82299  39.477  44.929  11.620
11700W        W82300  10.712   7.160   0.366
11701W        W82301  38.649  21.598  12.476
11702W        W82302   6.225  34.677   2.663
11703W        W82303  31.205  10.741   3.209
11704W        W82304  26.448  37.339   1.334
11705W        W82305  30.812  15.850   2.918
11706W        W82306  26.245  37.761  11.909
11707W        W82307  33.572  12.401   1.201
11708W        W82308   6.250   8.313  13.750
11709W        W82309  38.676  33.481  13.433
11710W        W82310  21.195   7.822   2.049
11711W        W82311  16.968  35.804  12.525
11712W        W82312  27.045  16.684   4.621
11713W        W82313  38.376  11.651   2.565
11714W        W82314  43.957  28.173  11.429
11715W        W82315  13.937  16.439  14.847
11716W        W82316   4.282  33.902  11.574
11717W        W82317  34.381  20.097   2.712
11718W        W82318  35.374  26.039  12.940
11719W        W82319   9.561  44.955  14.415
11720W        W82320  34.477  10.143   1.433
11721W        W82321  15.969  44.637   0.422
11722W        W82322  41.106   5.440  13.865
11723W        W82323  14.264  19.304  13.997
11724W        W82324  33.038  27.146   1.434
11725W        W82325   1.082  18.061  12.198
11726W        W82326  21.326  11.389   1.783
11727W        W82327  22.928  38.573   3.587
11728W        W82328  35.380   3.377  13.239
11729W        W82329  27.562  40.878  10.306
11730W        W82330  19.827  36.586   0.446
11731W        W82331  22.466  39.395  14.850
11732W        W82332  34.446   1.967  14.914
11733W        W82333  36.897  26.848  13.660
11734W        W82334  24.950   3.653   4.277
11735W        W82335  21.130  26.771   9.733
11736W        W82336   0.965  14.859   0.364
11737W        W82337   9.826  26.683   5.121
11738W        W82338  13.359  11.691   2.673
11739W        W82339  26.748  30.653   0.013
11740W        W82340  23.513  40.763   2.620
11741W        W82341  25.254  22.237   2.242
11742W        W82342  41.301  41.383   0.263
11743W        W82343  22.168  14.009   4.694
11744W        W82344  40.527  23.034  12.031
11745W        W82345  13.432  20.715   4.661
11746W        W82346  39.250   4.330   4.999
11747W        W82347  29.734  42.934  14.322
11748W        W82348   9.312  31.036   1.365
11749W        W82349   7.061  39.965  11.603
11750W        W82350  35.949  27.799  12.456
11751W        W82351  28.958  11.217  11.448
11752W        W82352  28.210  31.989  13.863
11753W        W82353   4.421  38.684  12.638
11754W        W82354  32.856   6.698  14.389
11755W        W82355   3.061  14.184  14.494
11756W        W82356  14.517  21.103   4.551
11757W        W82357  34.160  43.502   2.344
11758W        W82358   6.903   1.251   3.730
11759W        W82359  10.795  18.619  11.610
11760W        W82360  24.117  17.173   3.071
11761W        W82361   8.786  28.458  13.566
11762W        W82362  21.461  19.600   4.243
11763W        W82363  10.308  12.207  10.573
11764W        W82364  20.236  30.297   0.400
11765W        W82365  44.963  41.521   4.709
11766W        W82366   4.013  29.197  12.687
11767W        W82367  36.330  28.197  11.889
11768W        W82368  43.232   6.323  13.773
11769W        W82369  40.876  42.673   1.262
11770W        W82370  37.555  19.351  13.727
11771W        W82371  20.132  14.315   3.401
11772W        W82372  29.984  27.044  13.391
11773W        W82373  21.128  40.015   0.361
11774W        W82374  25.739   4.204  12.896
11775W        W82375  41.493  32.054  13.909
11776W        W82376  43.309   3.940  12.558
11777W        W82377  19.175  37.954  14.304
11778W        W82378  33.195  18.423   3.716
11779W        W82379  14.677  16.245   2.116
11780W        W82380  36.098  33.207  13.076
11781W        W82381  33.674  44.979  12.895
11782W        W82382  44.316  31.384   0.041
11783W        W82383  25.947  33.411  11.212
11784W        W82384  14.728  28.132  11.441
11785W        W82385   6.417  23.097   3.090
11786W        W82386  31.178  17.281   4.248
11787W        W82387  17.270  10.758  14.685
11788W        W82388  39.516  15.132  11.441
11789W        W82389   4.367  31.481  12.663
11790W        W82390  22.774  37.174  12.101
11791W        W82391  15.411  41.374  13.456
11792W        W82392  20.764  32.156  13.448
11793W        W82393  36.948  27.148  14.103
11794W        W82394  42.807  44.578  13.676
11795W        W82395  14.807  40.293  14.027
11796W        W82396   4.755  19.598   4.813
11797W        W82397  36.395  35.602  12.608
11798W        W82398  10.105  15.185  14.171
11799W        W82399  36.424  36.560  14.962
11800W        W82400  24.505  40.251   3.629
11801W        W82401  23.626  32.180   2.358
11802W        W82402  36.434   8.957  11.158
11803W        W82403  44.997  13.949   1.247
11804W        W82404  29.146  11.827  12.972
11805W        W82405  14.351  38.769   0.348
11806W        W82406  18.034  24.742  13.069
11807W        W82407   4.695   0.234  13.996
11808W        W82408  44.829  14.205   0.340
11809W        W82409  16.701  43.418  11.719
11810W        W82410  17.885  32.729  12.305
11811W        W82411  19.487  32.075   3.841
11812W        W82412  14.159  23.164  10.697
11813W        W82413  21.963  20.431   3.013
11814W        W82414  24.825  39.422  12.028
11815W        W82415   4.260  30.709   2.805
11816W        W82416   2.459  20.785  11.097
11817W        W82417  38.879  24.689   2.821
11818W        W82418  43.981  14.651   2.315
11819W        W82419  19.690  25.138   1.825
11820W        W82420  20.558  28.194  12.386
11821W        W82421   4.973  21.506   1.759
11822W        W82422  36.428  16.370   2.284
11823W        W82423  28.903  40.569   0.064
11824W        W82424  14.855  39.324  12.934
11825W        W82425  26.427  38.344  12.947
11826W        W82426   4.951   5.648   3.235
11827W        W82427   9.845  42.384  12.076
11828W        W82428  32.452   0.406  11.415
11829W        W82429   8.352  23.525   1.300
11830W        W82430  40.612  23.981   2.445
11831W        W82431   1.799  37.560  10.688
11832W        W82432  33.044  15.086   0.435
11833W        W82433  32.320  36.073  11.413
11834W        W82434  21.781  30.506   0.346
11835W        W82435  10.633  26.235   0.773
11836W        W82436  13.439  28.097   0.899
11837W        W82437  31.103  31.476   1.774
11838W        W82438  14.175   2.031  13.930
11839W        W82439  27.042   7.607  12.033
11840W        W82440  33.166  14.950   4.999
11841W        W82441  39.605  24.520  12.916
11842W        W82442  36.180  33.594  10.668
11843W        W82443  32.702  12.614   3.242
11844W        W82444  28.166   8.884  12.357
11845W        W82445  17.696  36.294  12.625
11846W        W82446  14.199  33.132  14.712
11847W        W82447  39.266   6.260   3.934
11848W        W82448  11.920  34.811  11.164
11849W        W82449  36.951  27.126   1.786
11850W        W82450  31.980  37.178   0.956
11851W        W82451  16.291  23.709  13.457
11852W        W82452  43.294  22.097   4.506
11853W        W82453   1.928  15.765  12.120
11854W        W82454  34.480  27.535  13.467
11855W        W82455  15.178  16.376   3.219
11856W        W82456  22.559  27.524  12.093
11857W        W82457  28.709  29.555   0.225
11858W        W82458  28.164  21.174   4.069
11859W        W82459   5.413  13.144  11.253
11860W        W82460   6.447   8.102  14.928
11861W        W82461   1.883  26.650   1.871
11862W        W82462  35.904  29.479  12.821
11863W        W82463  42.451   6.030   3.518
11864W        W82464  35.256   5.199  11.151
11865W        W82465  36.670  17.228   4.997
11866W        W82466   5.688  25.106  14.016
11867W        W82467  44.738  12.375  11.522
11868W        W82468  27.033  34.592  14.487
11869W        W82469  29.286  36.477   0.347
11870W        W82470  12.211  15.708  10.764
11871W        W82471   0.778  13.191  12.603
11872W        W82472  32.923  16.676   3.162
11873W        W82473  21.235  23.229   1.429
11874W        W82474  20.811  11.997  11.274
11875W        W82475  12.573  41.957  13.186
11876W        W82476  41.561  20.987  10.704
11877W        W82477  32.166  18.227   0.024
11878W        W82478  24.874   3.293  10.716
11879W        W82479  34.930  34.134  12.506
11880W        W82480  40.991  18.638   4.626
11881W        W82481   9.665  25.076   0.736
11882W        W82482  38.737   1.986  11.095
11883W        W82483   0.540  21.968  14.275
11884W        W82484  36.017  38.056  12.393
11885W        W82485  42.361  36.654   5.006
11886W        W82486   4.507  14.589  13.883
11887W        W82487  21.531  42.240   1.628
11888W        W82488  23.626  42.885  14.523
11889W        W82489  37.567  33.972  10.836
11890W        W82490   7.407   4.130   3.091
11891W        W82491  14.577  26.148  13.958
11892W        W82492   4.771   6.658  11.582
11893W        W82493  27.388  40.194  14.028
11894W        W82494  35.995  29.106   4.864
11895W        W82495  37.026  20.229   4.575
11896W        W82496   7.027  20.582  12.877
11897W        W82497   0.702  39.136   2.749
11898W        W82498  33.012  39.561  14.878
11899W        W82499   2.316   9.634   2.602
11900W        W82500  26.529  20.768  11.101
11901W        W82501   4.999  16.365   2.603
11902W        W82502  15.806  39.128   2.650
11903W        W82503  36.359  40.665  10.331
11904W        W82504  41.939   0.771  11.190
11905W        W82505  27.638  13.250  12.182
11906W        W82506   6.646  16.547  12.987
11907W        W82507  29.664  31.846   0.852
11908W        W82508  23.205  40.862   4.136
11909W        W82509  19.279  15.775   4.677
11910W        W82510  18.787  16.643  13.043
11911W        W82511  40.332  38.425   0.763
11912W        W82512   8.351  33.955  10.660
11913W        W82513  32.092   5.925   3.023
11914W        W82514  16.830  38.547   1.755
11915W        W82515   7.514  21.275   1.916
11916W        W82516  32.886  36.441  10.982
11917W        W82517  13.585  12.901   2.321
11918W        W82518  16.647  20.093   3.151
11919W        W82519  21.006  33.140  12.487
11920W        W82520   5.666  12.818   4.203
11921W        W82521   2.980  10.675  14.734
11922W        W82522  38.569  25.162  13.440
11923W        W82523  26.481  19.194   3.897
11924W        W82524   7.205  41.539   0.974
11925W        W82525  22.029  33.978  14.265
11926W        W82526  17.177  35.927   4.529
11927W        W82527  19.706  19.222  13.625
11928W        W82528  11.925  24.716   3.185
11929W        W82529  35.395  36.820   0.629
11930W        W82530  25.333   1.916   0.460
11931W        W82531  44.448  22.547   9.983
11932W        W82532  35.922  19.141  12.649
11933W        W82533  26.754  31.638   1.901
11934W        W82534  21.995  36.783  13.095
11935W        W82535  29.935  33.836  12.153
11936W        W82536   4.427   1.570  14.433
11937W        W82537  25.955  42.966  12.802
11938W        W82538  14.198  44.324   5.345
11939W        W82539  16.543   5.678  11.960
11940W        W82540  31.974  27.394   2.660
11941W        W82541  13.243  36.184   4.049
11942W        W82542  11.797  31.567   3.747
11943W        W82543  39.969  29.130   4.312
11944W        W82544  21.853  23.609  13.951
11945W        W82545  20.843  20.786   0.226
11946W        W82546  33.112   6.760  11.211
11947W        W82547  14.149   0.400   3.734
11948W        W82548  28.490  12.706  10.672
11949W        W82549  11.063  11.610   0.902
11950W        W82550  35.879  27.521  13.436
11951W        W82551  44.560  34.020  14.756
11952W        W82552   1.504  35.254  14.576
11953W        W82553  33.095  14.374   3.960
11954W        W82554   0.862  39.084  13.420
11955W        W82555  18.700  44.820  10.760
11956W        W82556  36.347  19.597   4.641
11957W        W82557  32.479  16.181   4.812
11958W        W82558  43.797  40.996   1.927
11959W        W82559  19.541  43.784  11.468
11960W        W82560   1.698  42.425   0.911
11961W        W82561  29.900  14.288  12.985
11962W        W82562   5.482  34.340   0.223
11963W        W82563  35.540  18.958  13.770
11964W        W82564  27.186  14.042  12.676
11965W        W82565  27.390  31.530   4.691
11966W        W82566  18.453  43.411   4.871
11967W        W82567  35.464   7.854  13.556
11968W        W82568  44.436   0.249  13.078
11969W        W82569   6.861  29.216  11.005
11970W        W82570  35.140  38.869  11.900
11971W        W82571  18.832   0.343   1.028
11972W        W82572  22.676   0.974  11.137
11973W        W82573  20.296  21.583   2.314
11974W        W82574  36.668  36.567   4.609
11975W        W82575  20.266  40.893   2.602
11976W        W82576   4.791  43.532  12.315
11977W        W82577  38.265   6.117   2.384
11978W        W82578  20.091  35.027  11.387
11979W        W82579  14.089  42.830   4.424
11980W        W82580  33.933  25.594  11.145
11981W        W82581  38.618  14.765   0.755
11982W        W82582  26.088   9.547  13.763
11983W        W82583   3.007  12.851  12.920
11984W        W82584  38.069  43.719   0.710
11985W        W82585  44.451   6.582  10.822
11986W        W82586  13.227  27.106   1.189
11987W        W82587  10.744  32.775  11.034
11988W        W82588  32.603  12.147   1.287
11989W        W82589  16.625  25.253   4.107
11990W        W82590   9.790  14.044   5.067
11991W        W82591  28.094  17.573  14.246
11992W        W82592  42.088  15.462  10.825
11993W        W82593  39.593  23.221   0.922
11994W        W82594  20.963  23.464   3.149
11995W        W82595   1.514  35.521  11.633
11996W        W82596  24.885  10.367  14.272
11997W        W82597  36.515   5.773   2.144
11998W        W82598  36.855  15.765   4.281
11999W        W82599   3.301  41.450   1.451
12000W        W82600  14.467   9.228   2.866
12001W        W82601  28.036   4.429  11.035
12002W        W82602   1.000  18.229  12.856
12003W        W82603  43.424  41.129   3.282
12004W        W82604   2.891  33.273   1.683
12005W        W82605  26.977  44.086   3.195
12006W        W82606  11.409  29.039   2.691
12007W        W82607  20.622  30.550  12.671
12008W        W82608   5.536  27.419  11.454
12009W        W82609  22.632  12.627   2.778
12010W        W82610  19.983  24.533  13.860
12011W        W82611  21.668   9.821   3.210
12012W        W82612   9.973  24.605   0.386
12013W        W82613  21.808   0.198  14.281
12014W        W82614  28.060  29.807  12.126
12015W        W82615  37.243  29.356   0.264
12016W        W82616  18.636  22.909   3.238
12017W        W82617  16.579  11.681  13.021
12018W        W82618  22.231   6.157   4.414
12019W        W82619  34.308  34.927  10.745
12020W        W82620  40.057  29.975   2.718
12021W        W82621  21.001  11.676  13.067
12022W        W82622   9.275  20.328   1.795
12023W        W82623  16.625  22.243  13.746
12024W        W82624   6.861  25.164   2.299
12025W        W82625   8.694  44.058   2.759
12026W        W82626   4.030  31.462  11.722
12027W        W82627  28.193  28.731   4.495
12028W        W82628  41.597  44.842   2.214
12029W        W82629  31.628  37.462   2.405
12030W        W82630  23.644  36.946   2.530
12031W        W82631  11.110  29.252  14.840
12032W        W82632   1.307  16.377   3.148
12033W        W82633  25.043  39.916  12.074
12034W        W82634  13.707  12.061   4.387
12035W        W82635  34.393  43.456   3.222
12036W        W82636  43.234  28.585   4.099
12037W        W82637  37.339  16.416  13.440
12038W        W82638  30.965  30.744   3.115
12039W        W82639  37.051   4.470  13.589
12040W        W82640  24.685  28.413   0.981
12041W        W82641   7.981  25.004   3.763
12042W        W82642  25.301  32.182   1.838
12043W        W82643   6.696  35.912   0.725
12044W        W82644  33.344   8.354   2.653
12045W        W82645  37.863  38.572  11.206
12046W        W82646  15.233  20.144  10.681
12047W        W82647   0.735  29.228  13.058
12048W        W82648  24.116  21.691  11.899
12049W        W82649  26.288  21.677   1.816
12050W        W82650  32.663  41.519  13.941
12051W        W82651   4.480  18.148   2.822
12052W        W82652  12.291   4.440   3.119
12053W        W82653  29.415  31.139   2.892
12054W        W82654  19.666  23.474  10.688
12055W        W82655  43.780  26.761  14.953
12056W        W82656  30.389  36.339   1.841
12057W        W82657  20.257  30.794   0.418
12058W        W82658  16.709  36.944   2.781
12059W        W82659   1.162   6.030  13.989
12060W        W82660  36.339  23.455   3.541
12061W        W82661  22.143  12.118  14.061
12062W        W82662  14.379   3.192   1.697
12063W        W82663  21.236  23.152  11.563
12064W        W82664   7.122  34.484   0.936
12065W        W82665  22.731  35.056   1.627
12066W        W82666  38.579  25.534  12.497
12067W        W82667  43.938   4.799  13.914
12068W        W82668  36.329  14.081   4.424
12069W        W82669  14.379  32.000  14.949
12070W        W82670  15.407  23.797   0.304
12071W        W82671  40.876  40.098   3.101
12072W        W82672  36.381  33.329   3.355
12073W        W82673  34.386   7.161   5.020
12074W        W82674   5.296  12.747  10.915
12075W        W82675  10.893  26.953   4.562
12076W        W82676   8.831  32.474   1.681
12077W        W82677  44.983   3.951  13.533
12078W        W82678   3.797  23.484   2.656
12079W        W82679  37.323  27.520  13.160
12080W        W82680  12.706   6.096   0.319
12081W        W82681  44.531  36.465   1.312
12082W        W82682  43.765  29.093   1.875
12083W        W82683  23.646  35.978   3.088
12084W        W82684  37.306   6.752  10.761
12085W        W82685  20.562  21.653   1.852
12086W        W82686  40.848  40.933   2.419
12087W        W82687  13.134   9.372   3.098
12088W        W82688  10.285   2.001  10.355
12089W        W82689  37.167  38.186  13.867
12090W        W82690  30.375  36.410   0.008
12091W        W82691  14.579  25.899  10.884
12092W        W82692  31.463  35.834  12.428
12093W        W82693   5.136  44.383   0.579
12094W        W82694  37.472   9.247  14.669
12095W        W82695   8.420  37.709   3.509
12096W        W82696  44.445   6.992   0.819
12097W        W82697  35.054  18.631   3.592
12098W        W82698   4.378  33.557  13.389
12099W        W82699   6.123  37.051   3.668
12100W        W82700  30.577  44.795  12.648
12101W        W82701   4.278  36.039   0.646
12102W        W82702  23.654  20.238   0.280
12103W        W82703  16.757  18.283   2.070
12104W        W82704  44.171   6.073  11.658
12105W        W82705  19.128   5.926  11.564
12106W        W82706   8.493  25.497  14.878
12107W        W82707  18.920  38.298  12.538
12108W        W82708  14.779  38.880  13.171
12109W        W82709  38.723   3.180   4.193
12110W        W82710  22.018  22.770  13.907
12111W        W82711  42.794   1.990  14.370
12112W        W82712  40.296  39.372   5.118
12113W        W82713  41.445   9.669   4.900
12114W        W82714   9.874   0.546   2.753
12115W        W82715   0.164  40.340  14.907
12116W        W82716   3.922   4.331  14.555
12117W        W82717  43.511  34.840   0.240
12118W        W82718  31.896  41.216  13.493
12119W        W82719  24.939  30.516  10.770
12120W        W82720  40.346   3.198  13.418
12121W        W82721   4.166  24.099   4.904
12122W        W82722  43.515   0.901   1.706
12123W        W82723   9.935   1.467  11.454
12124W        W82724   2.730  17.010  11.023
12125W        W82725   1.366  40.893   1.270
12126W        W82726  19.494   9.427  11.113
12127W        W82727  12.619  41.993   2.888
12128W        W82728   4.254   8.418  13.695
12129W        W82729  26.489  29.218   4.018
12130W        W82730  25.440  16.155  11.508
12131W        W82731  21.988   9.702   4.193
12132W        W82732  10.702  42.668  14.872
12133W        W82733  30.395  19.164  12.001
12134W        W82734  24.729  24.123   4.933
12135W        W82735  12.768  26.747   0.780
12136W        W82736  35.280   7.403   0.891
12137W        W82737  11.321  39.934  10.928
12138W        W82738   1.854   1.383  11.811
12139W        W82739  19.273  37.576   3.766
12140W        W82740  42.075   0.056   2.230
12141W        W82741   9.664  29.612   3.811
12142W        W82742  38.269  35.084  14.784
12143W        W82743  29.378  42.347   1.439
12144W        W82744  32.669  39.355  10.694
12145W        W82745  41.257  44.877  12.521
12146W        W82746  42.988   0.476   1.901
12147W        W82747  30.923  26.003   2.943
12148W        W82748  11.138  29.611  12.018
12149W        W82749  18.673  18.763  14.530
12150W        W82750  43.498  13.396  14.907
12151W        W82751  20.343   0.115   0.070
12152W        W82752  37.839   2.190   4.263
12153W        W82753  28.530   8.697  11.019
12154W        W82754  21.965  27.074  13.351
12155W        W82755  28.990  18.444  12.588
12156W        W82756  10.062  41.314  13.044
12157W        W82757   5.407  38.490   3.687
12158W        W82758  29.125   7.607  14.817
12159W        W82759  16.061  39.415   4.037
12160W        W82760  33.675  17.571   1.828
12161W        W82761  40.589  33.591   4.005
12162W        W82762  11.969   3.415  14.300
12163W        W82763  35.681  15.650  12.065
12164W        W82764  21.770   0.297  13.382
12165W        W82765  40.406  28.325   2.827
12166W        W82766   7.544  41.932  10.542
12167W        W82767  15.139  19.637   3.054
12168W        W82768  35.992   1.543   2.455
12169W        W82769  19.111   3.226  13.301
12170W        W82770  14.665  42.095  14.497
12171W        W82771   7.685  14.555   0.859
12172W        W82772  16.099  36.942  12.516
12173W        W82773  26.244  14.302  11.525
12174W        W82774  13.336  27.581   2.827
12175W        W82775  36.766   3.448  10.702
12176W        W82776  20.076  37.928  11.924
12177W        W82777  22.644   1.052   1.529
12178W        W82778  17.154  41.380  10.423
12179W        W82779  40.567  30.141   1.854
12180W        W82780  39.907  26.002   1.697
12181W        W82781  17.114  14.493   0.465
12182W        W82782   1.330   1.776  12.927
12183W        W82783  44.446  40.101  14.640
12184W        W82784  17.250  23.192  11.595
12185W        W82785  43.155  16.106   4.831
12186W        W82786   1.367  38.567   0.799
12187W        W82787  37.002  31.509   1.485
12188W        W82788  42.567  34.428   1.712
12189W        W82789  10.114  29.732   5.097
12190W        W82790  21.504  42.948  10.726
12191W        W82791  13.496  19.711   5.111
12192W        W82792  44.533  41.604   5.049
12193W        W82793  19.037  31.869   5.475
12194W        W82794   8.257   4.933  10.359
12195W        W82795  19.685   8.172   1.406
12196W        W82796  36.037   9.735  11.230
12197W        W82797  27.103  18.601   3.685
12198W        W82798  13.834   8.738   0.303
12199W        W82799  36.368  25.094   1.163
12200W        W82800  44.775   5.527  11.995
12201W        W82801  37.416  30.893   1.852
12202W        W82802  25.600   7.399  12.150
12203W        W82803   1.346  43.345   4.732
12204W        W82804  35.906  40.351  14.408
12205W        W82805   3.139  44.531   5.213
12206W        W82806   6.054   4.944   1.385
12207W        W82807  15.662   7.606   3.353
12208W        W82808  13.282  12.819  10.531
12209W        W82809  24.402   8.307  13.800
12210W        W82810  26.119  29.949   4.261
12211W        W82811   7.944  36.643   2.274
12212W        W82812  31.800  16.161  14.600
12213W        W82813   4.931   4.332  14.454
12214W        W82814   4.208  25.944  14.947
12215W        W82815  33.083  28.508  14.466
12216W        W82816  31.357  23.997   5.104
12217W        W82817   8.892   3.411   9.799
12218W        W82818  36.880  37.607   2.183
12219W        W82819   4.878   8.000  13.456
12220W        W82820   7.187   4.404   2.659
12221W        W82821  23.223  28.112  10.915
12222W        W82822  18.878  40.958  10.716
12223W        W82823  42.546  39.459  13.117
12224W        W82824  31.207   7.124   3.266
12225W        W82825  40.301  10.093  14.465
12226W        W82826   4.317   7.771   0.018
12227W        W82827  42.440  40.838  13.930
12228W        W82828  22.182  13.797  12.349
12229W        W82829  16.537  38.333   3.679
12230W        W82830  43.841  26.084   3.661
12231W        W82831   4.258  10.484   2.419
12232W        W82832  16.808  14.653   0.850
12233W        W82833  42.018   2.708  13.327
12234W        W82834   7.723  19.035   4.647
12235W        W82835  14.240  13.251  11.817
12236W        W82836  42.210  36.021   4.351
12237W        W82837  32.517  28.128  10.374
12238W        W82838  31.908   7.157   5.017
12239W        W82839  14.592  32.465   4.558
12240W        W82840  12.684  11.573   4.140
12241W        W82841   1.748  42.052   4.591
12242W        W82842  12.812  32.064   1.257
12243W        W82843  17.039  29.448   2.383
12244W        W82844  10.424  28.679   3.086
12245W        W82845  43.238  23.156  12.354
12246W        W82846   0.792  29.868   4.224
12247W        W82847  31.574  38.689   3.252
12248W        W82848   6.246   5.263  14.476
12249W        W82849  11.469  22.407   0.495
12250W        W82850   6.867  14.607  10.655
12251W        W82851  41.888  41.824   2.221
12252W        W82852   3.954  15.568   3.602
12253W        W82853  13.733  39.933  10.113
12254W        W82854   8.118  21.056   2.745
12255W        W82855   2.137  40.459   4.315
12256W        W82856  15.695   1.693  12.856
12257W        W82857  25.242   5.566  10.783
12258W        W82858  14.134  11.864   4.196
12259W        W82859  17.752  40.462  13.462
12260W        W82860  36.037  12.838   2.241
12261W        W82861  43.347  33.671  13.993
12262W        W82862   3.087  27.179  13.335
12263W        W82863  18.048  11.675   2.607
12264W        W82864   2.546  17.768   0.295
12265W        W82865  17.207  40.077  11.990
12266W        W82866  10.246  40.778  11.247
12267W        W82867  25.036  43.596  13.399
12268W        W82868  44.756   6.711   0.467
12269W        W82869   0.952   4.825   2.595
12270W        W82870  19.291  37.962  12.423
12271W        W82871  12.639  39.035  14.903
12272W        W82872  24.109  19.507   3.999
12273W        W82873  33.420   0.058   1.817
12274W        W82874  21.440   8.949   1.613
12275W        W82875  21.480  31.474   3.094
12276W        W82876  39.901  23.582   4.657
12277W        W82877  37.947  33.647   4.639
12278W        W82878   2.368  12.592   1.704
12279W        W82879  20.132  43.476  13.362
12280W        W82880  22.332  42.522   4.092
12281W        W82881   3.384  35.028  10.424
12282W        W82882  31.133  26.678   3.198
12283W        W82883  23.466  44.547   0.908
12284W        W82884   8.282  20.076   4.499
12285W        W82885  36.358  28.515  13.478
12286W        W82886  37.985   8.802  10.985
12287W        W82887  37.281  42.374  14.315
12288W        W82888  30.960  38.611   9.782
12289W        W82889   8.746  20.675  14.684
12290W        W82890  20.930  36.610   2.263
12291W        W82891   2.881  35.981  12.522
12292W        W82892  42.783   3.863  12.594
12293W        W82893  36.346  35.964  12.099
12294W        W82894  28.211  30.171   4.229
12295W        W82895  34.892  36.052  12.831
12296W        W82896  40.606  44.676  11.175
12297W        W82897  43.543  23.522  12.517
12298W        W82898  44.812  34.425   2.271
12299W        W82899  38.400   5.857   0.678
12300W        W82900  31.370  10.209  11.084
12301W        W82901   6.328   1.405  14.083
12302W        W82902  17.789  27.369  13.388
12303W        W82903   1.980  16.199   0.855
12304W        W82904  17.153   4.429  10.455
12305W        W82905  38.366  44.324   4.797
12306W        W82906  40.556   8.171   3.975
12307W        W82907  33.475   2.566   2.653
12308W        W82908  22.927   3.004   1.517
12309W        W82909   8.402   9.170   2.656
12310W        W82910  14.756   1.703   4.118
12311W        W82911  12.166  24.522  13.938
12312W        W82912  23.265  23.256   3.603
12313W        W82913   0.886   2.663  13.727
12314W        W82914  18.741  34.897   1.841
12315W        W82915  24.009  44.975   1.242
12316W        W82916  15.748   6.592  13.921
12317W        W82917  15.509  23.363  11.625
12318W        W82918  36.561  18.033   4.492
12319W        W82919  36.872   9.757  14.307
12320W        W82920  42.009  44.223  13.440
12321W        W82921  35.335  33.675  11.083
12322W        W82922  16.792  38.463   4.584
12323W        W82923  13.909   9.523   1.817
12324W        W82924  14.259  28.123  11.146
12325W        W82925  20.068  35.126   4.213
12326W        W82926   2.635  44.817   2.733
12327W        W82927  10.770  18.524   5.030
12328W        W82928  20.901  43.803   2.374
12329W        W82929  38.063  17.272  14.915
12330W        W82930  31.576  23.798   1.224
12331W        W82931  15.072  16.544  13.868
12332W        W82932  34.906  35.564  13.045
12333W        W82933  41.960  15.721  10.408
12334W        W82934   4.025  19.909  10.770
12335W        W82935  23.755  25.882  13.659
12336W        W82936   8.304  43.764   0.763
12337W        W82937  26.725  11.084  11.414
12338W        W82938  20.471   7.148   5.477
12339W        W82939  21.270  43.252   0.178
12340W        W82940  15.499  33.425   0.320
12341W        W82941  12.182  35.593  11.544
12342W        W82942  28.159  13.157   0.035
12343W        W82943  15.746  22.059   0.175
12344W        W82944  40.477  38.343   2.399
12345W        W82945  33.203  11.127   1.014
12346W        W82946  40.891  14.174   3.213
12347W        W82947  39.861  18.043  13.102
12348W        W82948  16.758  12.163  14.244
12349W        W82949   4.880  38.394  14.842
12350W        W82950   3.455  37.877  13.096
12351W        W82951  11.216   0.553  10.369
12352W        W82952   9.066  27.113   1.387
12353W        W82953  23.937  11.659   4.600
12354W        W82954  32.679   8.558  11.028
12355W        W82955  29.846  34.620  13.848
12356W        W82956  39.210  43.252   3.716
12357W        W82957   5.324  39.393  12.560
12358W        W82958  11.832  21.473   4.247
12359W        W82959   5.191  40.991  12.229
12360W        W82960  37.053  21.727   2.359
12361W        W82961   7.485  15.274   4.439
12362W        W82962  24.957  20.855   1.653
12363W        W82963  37.890   0.505  14.767
12364W        W82964  37.914  43.807   1.981
12365W        W82965  32.666  18.058  13.485
12366W        W82966   5.237  15.722   3.340
12367W        W82967  31.414  37.882   0.967
12368W        W82968  31.312  26.564  14.445
12369W        W82969  28.999   4.076  12.884
12370W        W82970  25.455   9.471   4.549
12371W        W82971   2.239  41.939  11.659
12372W        W82972  14.040  20.504   1.701
12373W        W82973  26.703  24.209   3.608
12374W        W82974  32.373  35.513   4.361
12375W        W82975  29.341   9.819  14.922
12376W        W82976  14.856  27.451   0.303
12377W        W82977  28.539   8.067  11.872
12378W        W82978   6.845  29.123  13.825
12379W        W82979  14.961  23.717  10.965
12380W        W82980   8.005  38.082   2.283
12381W        W82981  32.173   9.458  14.932
12382W        W82982  16.745  11.868  10.682
12383W        W82983  42.746  21.680   3.194
12384W        W82984  15.079   2.073  12.579
12385W        W82985  44.776   5.249   1.733
12386W        W82986  40.474  15.162   4.126
12387W        W82987  19.067  24.441   0.325
12388W        W82988  19.151   1.207  13.071
12389W        W82989  12.725  27.818  14.573
12390W        W82990  44.328  44.839   4.608
12391W        W82991  26.193  22.643   0.708
12392W        W82992  25.695  27.398   4.716
12393W        W82993   8.057  25.382  11.072
12394W        W82994  41.739  24.748   3.187
12395W        W82995  14.793  40.693   0.779
12396W        W82996   6.390  12.302   2.287
12397W        W82997  17.592  13.673  13.563
12398W        W82998  31.523  33.993   4.444
12399W        W82999  10.806  41.114   1.944
12400W        W83000  40.305  44.015  12.677
12401W        W83001  14.113  10.707   4.705
12402W        W83002  14.248  43.834   3.731
12403W        W83003  35.822  14.366  12.220
12404W        W83004  41.006  32.774  11.234
12405W        W83005  31.926  11.034  11.594
12406W        W83006   3.877  30.657  12.574
12407W        W83007  30.298  28.725  14.476
12408W        W83008  13.895   9.020   1.984
12409W        W83009  21.133  27.694  11.645
12410W        W83010  41.369  43.139   9.897
12411W        W83011  33.650  32.829   2.009
12412W        W83012  29.175  39.509   0.246
12413W        W83013  30.518   4.844   3.010
12414W        W83014   4.315  11.059   3.145
12415W        W83015  23.395  37.276  13.819
12416W        W83016  33.106  43.355   2.917
12417W        W83017  23.055   5.329   3.459
12418W        W83018  40.834  19.758   3.062
12419W        W83019   3.331  18.969  12.612
12420W        W83020   2.277  32.076   3.374
12421W        W83021  42.932  14.336   2.820
12422W        W83022  14.544  38.953  12.145
12423W        W83023   7.904   6.072  12.939
12424W        W83024   9.943  30.947   0.349
12425W        W83025  40.555  15.115  14.888
12426W        W83026  23.804  16.197  13.295
12427W        W83027  36.841  31.057  10.763
12428W        W83028   2.744  22.404  12.527
12429W        W83029  10.773  27.284   1.360
12430W        W83030  39.788  17.370  10.313
12431W        W83031  26.187  44.752  13.151
12432W        W83032  16.612   6.234   1.444
12433W        W83033  42.004  17.190  12.956
12434W        W83034  32.168  13.314  12.837
12435W        W83035  20.790  19.326  11.923
12436W        W83036  19.292  18.114  14.790
12437W        W83037   8.942  33.018   2.402
12438W        W83038  19.052  42.179   1.371
12439W        W83039   7.130  28.145   2.242
12440W        W83040  33.230   0.185  12.492
12441W        W83041  13.480   8.782   4.993
12442W        W83042  19.027  42.968   3.292
12443W        W83043  27.995  41.059   3.666
12444W        W83044   9.656  32.154  13.625
12445W        W83045  40.191  34.144  10.494
12446W        W83046  23.019  44.734  12.617
12447W        W83047  10.157  21.046   3.752
12448W        W83048  19.332  37.471  14.436
12449W        W83049  19.307   2.457   3.195
12450W        W83050  26.609  16.308  12.578
12451W        W83051  23.146   7.347   1.386
12452W        W83052   7.720   2.116  14.341
12453W        W83053  37.004  27.525  12.752
12454W        W83054  18.608  31.956   0.818
12455W        W83055  11.793   2.756   3.106
12456W        W83056   7.279  11.294  14.187
12457W        W83057  14.310  41.256   9.711
12458W        W83058  19.211   6.684  13.955
12459W        W83059  14.649  34.988   3.157
12460W        W83060  35.915   9.881   3.344
12461W        W83061  19.537  43.255   3.724
12462W        W83062   3.002  22.039   0.197
12463W        W83063  21.341  16.165   3.711
12464W        W83064  24.087  30.114  14.025
12465W        W83065  43.442  24.898   4.487
12466W        W83066  38.348  37.441   3.264
12467W        W83067  12.291  32.348  11.058
12468W        W83068   5.840  33.418  13.789
12469W        W83069  21.993   4.755   1.424
12470W        W83070  35.889   1.461  13.333
12471W        W83071  21.972  20.084  11.854
12472W        W83072   9.503  42.235   4.109
12473W        W83073  12.496  38.608  10.795
12474W        W83074   1.831  18.887   3.668
12475W        W83075  14.108   0.606  14.989
12476W        W83076   0.721  13.333   1.320
12477W        W83077  40.005  18.696   3.633
12478W        W83078   0.021  27.385  11.620
12479W        W83079  37.279   2.239   0.898
12480W        W83080  15.574  43.775  12.934
12481W        W83081   3.286   8.836  14.979
12482W        W83082  11.488  25.449   3.803
12483W        W83083  39.140  35.862  13.871
12484W        W83084  43.327  17.563  12.829
12485W        W83085   6.172  14.663  12.909
12486W        W83086   2.019  42.684  13.868
12487W        W83087  19.095  13.632  13.581
12488W        W83088  29.909  40.699  13.636
12489W        W83089  41.917  35.641  12.076
12490W        W83090  12.607  28.312  12.432
12491W        W83091  37.435  36.257  14.741
12492W        W83092  41.417   2.122   4.636
12493W        W83093   0.477  44.438  11.430
12494W        W83094   8.404  19.572   4.652
12495W        W83095  22.733  39.875  14.945
12496W        W83096   5.731  14.778  14.217
12497W        W83097  14.256   6.372   3.498
12498W        W83098  27.307  30.864   0.566
12499W        W83099  37.633  19.997   1.260
12500W        W83100  37.052   0.094   3.797
12501W        W83101   8.679  20.026  13.553
12502W        W83102  28.431   1.275  14.041
12503W        W83103  39.493  44.897   3.165
12504W        W83104  39.335   2.893  13.666
12505W        W83105  17.182  40.274   4.504
12506W        W83106  41.879  43.951   2.194
12507W        W83107  16.885  33.921   3.305
12508W        W83108  15.315  18.172  11.980
12509W        W83109   2.744  13.115   1.217
12510W        W83110  32.011  26.342  14.840
12511W        W83111  18.527  35.338  13.544
12512W        W83112   4.492  25.952   4.094
12513W        W83113  34.854  30.479   1.743
12514W        W83114  35.304  34.929  13.413
12515W        W83115  28.590  16.128  13.467
12516W        W83116   3.335  22.873  14.966
12517W        W83117   9.374   2.897   0.298
12518W        W83118  33.568  35.679  10.750
12519W        W83119  36.994  43.225   4.698
12520W        W83120   6.456  13.931   2.192
12521W        W83121  16.522  38.939   0.791
12522W        W83122  39.747  37.479  13.440
12523W        W83123   8.198   0.517  12.949
12524W        W83124  13.364   6.603  10.740
12525W        W83125  12.923  29.714  12.405
12526W        W83126  13.114  16.521  12.420
12527W        W83127  21.360  24.270  12.970
12528W        W83128  43.453  11.966   2.396
12529W        W83129   7.418  38.327  10.912
12530W        W83130  29.536  31.095   0.275
12531W        W83131  32.127   5.071  10.422
12532W        W83132   6.809  12.813   1.929
12533W        W83133  16.863   7.224  12.994
12534W        W83134  43.572   5.912  13.715
12535W        W83135  43.521   3.669   0.033
12536W        W83136  26.223  22.578  12.557
12537W        W83137  38.257   5.203  10.695
12538W        W83138  18.994  31.012   2.692
12539W        W83139  43.088   1.272  13.532
12540W        W83140  42.383  43.791   2.129
12541W        W83141   3.770   7.203   3.342
12542W        W83142   2.891   3.084   2.839
12543W        W83143  22.516  13.683  10.717
12544W        W83144   6.821  31.049   3.657
12545W        W83145  30.027  10.398  12.434
12546W        W83146  18.283   9.151   1.770
12547W        W83147  22.039  23.211   2.146
12548W        W83148  42.886  30.661  10.283
12549W        W83149  32.082  30.392   2.525
12550W        W83150  44.399   3.306  10.378
12551W        W83151  32.396  17.625  13.507
12552W        W83152  33.771  11.812   1.889
12553W        W83153  28.412   4.271  13.520
12554W        W83154  38.153  35.052   3.214
12555W        W83155  33.011  23.766   2.631
12556W        W83156   9.185  31.972  13.955
12557W        W83157  40.259  17.747  12.944
12558W        W83158   4.652  12.752   0.365
12559W        W83159  17.794   5.001   3.358
12560W        W83160  12.736  13.694  10.631
12561W        W83161  16.989  28.551  14.718
12562W        W83162  10.314  38.915   4.591
12563W        W83163   9.472  17.199   2.210
12564W        W83164  22.163  35.913   1.707
12565W        W83165  23.556  41.823  10.659
12566W        W83166  10.122  12.330   4.058
12567W        W83167  15.636  30.929  13.447
12568W        W83168  18.873  35.441   1.259
12569W        W83169   0.983   1.822   3.197
12570W        W83170   1.946  24.161   1.149
12571W        W83171  11.372  10.238  12.993
12572W        W83172  12.626  41.265  12.813
12573W        W83173   6.840  32.660   2.380
12574W        W83174   7.173  33.444  10.905
12575W        W83175   8.808   6.315   2.540
12576W        W83176  27.430  11.843  12.931
12577W        W83177  24.805  31.927   4.602
12578W        W83178  17.314   1.947  14.575
12579W        W83179  14.191  25.007  13.354
12580W        W83180  33.580  33.620   1.485
12581W        W83181   1.296   3.194   0.824
12582W        W83182   4.845  40.590  11.291
12583W        W83183   4.204  25.873   4.535
12584W        W83184   5.818  19.694  12.343
12585W        W83185  20.662  44.374   3.489
12586W        W83186  29.302  44.457  14.496
12587W        W83187  32.940  16.019  13.976
12588W        W83188  13.705  22.595   3.255
12589W        W83189  22.570  17.073   1.350
12590W        W83190  27.168  20.474   0.339
12591W        W83191  41.861   6.671   2.305
12592W        W83192  33.553  33.484  11.183
12593W        W83193  28.939   5.433   4.829
12594W        W83194  28.531  17.076   3.935
12595W        W83195   1.429  29.970  10.678
12596W        W83196  27.691   4.191  10.687
12597W        W83197  13.916  29.109   2.637
12598W        W83198   1.790  43.935   3.804
12599W        W83199  14.636  10.254  14.519
12600W        W83200  26.353  36.439   1.775
12601W        W83201  39.062  19.369   1.506
12602W        W83202   8.692   3.892  12.677
12603W        W83203  42.001  16.002  11.523
12604W        W83204   6.574   5.851   0.028
12605W        W83205  40.086   3.393  13.016
12606W        W83206  26.597  29.486   3.600
12607W        W83207  44.606  10.054  11.211
12608W        W83208  38.656  43.134   2.846
12609W        W83209  36.809  27.564  13.226
12610W        W83210  34.917   2.303   4.701
12611W        W83211  36.123  28.962   4.381
12612W        W83212  11.868  25.206  12.154
12613W        W83213  41.289  23.712  13.391
12614W        W83214  41.143   8.457  12.876
12615W        W83215  16.563  38.351   0.400
12616W        W83216  18.322  12.571   5.045
12617W        W83217  36.809  26.860   1.355
12618W        W83218  17.628  19.859   3.611
12619W        W83219  22.128  24.206   3.142
12620W        W83220  42.891   0.199  14.421
12621W        W83221  32.928  18.734  13.020
12622W        W83222  24.892  21.168   0.795
12623W        W83223  21.896   3.706  13.481
12624W        W83224  28.162  18.636   2.526
12625W        W83225  16.712   5.804   1.144
12626W        W83226  21.275  15.643  10.262
12627W        W83227  12.263  24.803   4.699
12628W        W83228  16.153  43.764  13.584
12629W        W83229  36.512   0.334   2.315
12630W        W83230  22.332  34.495   2.739
12631W        W83231  23.286  17.757  11.666
12632W        W83232  11.785  37.788   4.439
12633W        W83233  27.014  25.622  12.670
12634W        W83234  27.703  14.056  12.580
12635W        W83235  30.083  19.305   3.287
12636W        W83236  27.167   0.666   0.996
12637W        W83237  30.096   9.710  13.966
12638W        W83238  37.555  14.329   0.294
12639W        W83239   5.546  32.053  13.387
12640W        W83240  20.679  39.417  10.760
12641W        W83241  33.764   7.315   0.927
12642W        W83242  37.394   5.206   1.006
12643W        W83243  35.046   5.296  10.428
12644W        W83244  15.811  17.654   2.598
12645W        W83245  34.539   4.424   4.355
12646W        W83246  11.838  38.735   3.312
12647W        W83247  31.285  13.309  11.153
12648W        W83248   4.962   4.641  13.816
12649W        W83249  29.179  30.696  12.559
12650W        W83250  21.631  16.752   2.214
12651W        W83251  21.026  40.917  14.890
12652W        W83252  32.418  34.575   3.262
12653W        W83253  27.410   3.427  12.863
12654W        W83254  39.588  26.515  12.460
12655W        W83255  39.515  33.605  10.679
12656W        W83256  22.067  40.555   2.518
12657W        W83257  30.108  19.646   1.747
12658W        W83258   5.230  20.105  13.352
12659W        W83259  16.661  18.281  13.525
12660W        W83260  30.996   1.466  13.084
12661W        W83261  39.274  34.026  14.239
12662W        W83262  38.696  36.933   1.903
12663W        W83263  22.456  15.558   1.396
12664W        W83264  44.803  13.618  12.935
12665W        W83265  39.972  43.561   3.460
12666W        W83266  31.873  13.125  13.766
12667W        W83267  12.741  30.540  11.197
12668W        W83268   9.581  19.243   3.804
12669W        W83269   5.494   2.371  14.525
12670W        W83270  23.712   0.340  12.788
12671W        W83271  40.503  28.391   1.213
12672W        W83272  16.222  14.089   3.662
12673W        W83273   6.111   4.326   0.844
12674W        W83274   1.785  25.907   2.411
12675W        W83275  31.508  28.751   1.926
12676W        W83276   8.582  40.731  10.819
12677W        W83277  13.427  15.675  14.551
12678W        W83278  20.918  35.456  13.355
12679W        W83279  32.167  39.779   2.853
12680W        W83280  33.068  17.337   0.516
12681W        W83281  21.815  21.677   1.439
12682W        W83282  22.527   1.709  11.700
12683W        W83283  21.846   1.920  13.925
12684W        W83284  15.615  20.274   0.768
12685W        W83285  26.728   3.593  11.443
12686W        W83286  18.259   0.821  14.295
12687W        W83287  19.516  37.499   3.332
12688W        W83288  37.619  44.169  11.298
12689W        W83289  32.932  31.461  11.913
12690W        W83290   0.622  40.052  13.506
12691W        W83291  34.625   9.420   2.813
12692W        W83292  25.900  15.576   2.391
12693W        W83293  27.178  17.802  12.941
12694W        W83294  18.622  13.430  13.511
12695W        W83295   9.320   1.319   1.150
12696W        W83296  30.685   9.843  10.409
12697W        W83297  23.751  25.178   1.411
12698W        W83298  29.874  15.218  11.993
12699W        W83299  26.081  35.347   2.827
12700W        W83300  23.574  11.644  14.335
12701W        W83301  23.090  38.764  14.391
12702W        W83302  12.135  10.326   4.805
12703W        W83303  21.767  26.510   0.858
12704W        W83304  35.460  38.162   2.629
12705W        W83305  42.520  43.584  11.149
12706W        W83306  42.828  43.246  13.556
12707W        W83307  39.013  33.446  10.692
12708W        W83308  22.331   9.109  14.986
12709W        W83309  33.499  10.841   4.172
12710W        W83310  30.882  35.692  12.021
12711W        W83311  25.238  18.597   3.182
12712W        W83312  29.665  38.587   4.560
12713W        W83313  27.985  11.314   1.019
12714W        W83314   3.282  26.392   5.054
12715W        W83315  23.647  11.144  11.948
12716W        W83316  38.358  41.847   0.547
12717W        W83317  12.646  18.324  12.504
12718W        W83318  44.553  19.543  11.887
12719W        W83319  38.934  37.182   4.088
12720W        W83320  30.154  21.144   2.880
12721W        W83321  24.154   3.704  13.859
12722W        W83322  28.148  11.256  14.951
12723W        W83323   5.713  26.398  12.291
12724W        W83324  28.991  22.154   3.066
12725W        W83325  22.028   1.637  14.355
12726W        W83326   6.243   5.145   4.588
12727W        W83327  10.807  23.091   1.905
12728W        W83328  38.155   9.795  14.502
12729W        W83329  26.031  32.487   1.334
12730W        W83330  16.547  19.358  14.142
12731W        W83331   2.631  26.505   4.131
12732W        W83332  39.215  38.279  11.499
12733W        W83333   3.401  15.662  14.070
12734W        W83334  37.824  21.999   1.016
12735W        W83335  12.773  22.546  14.880
12736W        W83336  43.791  41.422   1.280
12737W        W83337   9.830  17.137   1.274
12738W        W83338  39.528   2.799   0.659
12739W        W83339  10.657  43.280   0.473
12740W        W83340  24.962  26.811  14.886
12741W        W83341  25.536   1.280  11.162
12742W        W83342  39.232  20.192  11.050
12743W        W83343   1.790  42.045   3.689
12744W        W83344  36.355  22.642  14.321
12745W        W83345   6.525  10.652  12.356
12746W        W83346  15.481  31.401  13.672
12747W        W83347   2.813  10.720  12.370
12748W        W83348  24.436  33.947   2.205
12749W        W83349  32.441  16.153   3.779
12750W        W83350   2.894   8.383   0.514
12751W        W83351  14.171  26.056   2.307
12752W        W83352  30.388  38.508  10.151
12753W        W83353  43.357   7.410  12.655
12754W        W83354  11.372  17.983   2.858
12755W        W83355  40.089  28.533  13.928
12756W        W83356   0.000  15.926  12.200
12757W        W83357  37.980  34.303   2.712
12758W        W83358  32.632   1.926   1.787
12759W        W83359  24.384  17.289  11.517
12760W        W83360   2.116  27.855  12.657
12761W        W83361  40.314   5.744   1.750
12762W        W83362  18.228   5.799  13.262
12763W        W83363   3.852  16.229  11.848
12764W        W83364  28.138  32.450   3.746
12765W        W83365   6.883  25.215   2.853
12766W        W83366  39.205  12.229  11.233
12767W        W83367  37.553  42.053   1.399
12768W        W83368  11.829  24.047  14.537
12769W        W83369  35.995  43.310  11.145
12770W        W83370  29.844  28.941   0.870
12771W        W83371  10.943  23.376   1.483
12772W        W83372  27.633  21.112   4.494
12773W        W83373  32.041   5.262   3.816
12774W        W83374   5.637  36.905   3.679
12775W        W83375  28.514  19.117  10.715
12776W        W83376  34.500  16.508  13.911
12777W        W83377  20.560  37.668   4.133
12778W        W83378  35.909   9.903  14.469
12779W        W83379  38.667  35.018   3.256
12780W        W83380   7.254  13.292   0.927
12781W        W83381  30.505  32.110   4.845
12782W        W83382  39.297  20.344  10.199
12783W        W83383  35.919  17.608  13.448
12784W        W83384   3.581   9.191   4.219
12785W        W83385   7.728  24.634   2.735
12786W        W83386  26.632  28.923   3.609
12787W        W83387  36.167  37.668  12.055
12788W        W83388  25.388  23.717  14.556
12789W        W83389   8.746  33.319   0.332
12790W        W83390  25.545  43.428  13.310
12791W        W83391  13.702  36.796   0.042
12792W        W83392   2.410  22.014  12.571
12793W        W83393  26.564  35.908   4.137
12794W        W83394   7.506  20.074  12.899
12795W        W83395  18.739   4.896   2.610
12796W        W83396   8.328  20.304  13.247
12797W        W83397  26.577  42.674   0.193
12798W        W83398  22.975  25.013  12.457
12799W        W83399  43.080   8.702   4.975
12800W        W83400  23.741   2.284   2.713
12801W        W83401  11.099   3.003  14.345
12802W        W83402  40.818  44.917  14.989
12803W        W83403   5.929  35.040   3.703
12804W        W83404   1.375  27.679   4.508
12805W        W83405  15.652  23.524  14.491
12806W        W83406  12.245  32.966   1.368
12807W        W83407  18.187  17.416  10.748
12808W        W83408  31.489  23.611   1.695
12809W        W83409   6.978  17.583   3.701
12810W        W83410  17.835   9.306   2.030
12811W        W83411   4.364   7.422  14.199
12812W        W83412  21.726  21.073  12.969
12813W        W83413  30.386   7.770   1.116
12814W        W83414  34.130  39.113  14.289
12815W        W83415  24.580  30.109   4.416
12816W        W83416  12.304  31.929  10.695
12817W        W83417  11.826  20.424   1.757
12818W        W83418  15.310  19.116  10.491
12819W        W83419  32.923  32.471  12.160
12820W        W83420  17.181  38.763  12.142
12821W        W83421  10.903  41.862   0.826
12822W        W83422  37.116  33.008  13.077
12823W        W83423  27.605  14.733  14.463
12824W        W83424  11.108  20.596  14.360
12825W        W83425  15.649  17.929   1.611
12826W        W83426   9.756  39.893  12.784
12827W        W83427  39.075  26.573  13.532
12828W        W83428  36.487  30.161  10.820
12829W        W83429  28.570  31.174  11.889
12830W        W83430   7.656  33.435   4.797
12831W        W83431  18.579  39.745  14.266
12832W        W83432  34.977   7.880   4.840
12833W        W83433  16.119   4.973   1.714
12834W        W83434   2.058  20.145   0.946
12835W        W83435   6.258  25.304  11.996
12836W        W83436  14.063  44.872  11.358
12837W        W83437  44.162  37.532  10.309
12838W        W83438  15.779  19.149   1.317
12839W        W83439  16.667  22.561   2.886
12840W        W83440  33.564  34.088   4.420
12841W        W83441  42.294  11.679   4.088
12842W        W83442   8.515  34.475   2.209
12843W        W83443  40.347  14.434   4.660
12844W        W83444  35.826  39.519   2.856
12845W        W83445  16.769  25.399  11.206
12846W        W83446  22.992  25.256   2.722
12847W        W83447  17.438  42.293   3.874
12848W        W83448  14.763  31.988   2.184
12849W        W83449   3.236  20.672   4.208
12850W        W83450  37.600   3.389  10.561
12851W        W83451  22.292  39.473  14.260
12852W        W83452  17.815   5.598  14.076
12853W        W83453  20.143  15.062  11.075
12854W        W83454  10.523  27.869  10.511
12855W        W83455  39.620  12.817   0.831
12856W        W83456   7.049  37.897  12.071
12857W        W83457  20.994   1.559   4.112
12858W        W83458  40.748  22.089  12.099
12859W        W83459   5.033  34.867  11.153
12860W        W83460  35.907   7.085  13.547
12861W        W83461  14.747  17.841  10.630
12862W        W83462  27.760   0.935   2.807
12863W        W83463  21.502  25.883  12.479
12864W        W83464   6.318   6.253   5.202
12865W        W83465  21.723  19.115   0.904
12866W        W83466  35.123  39.478   0.755
12867W        W83467  30.906  14.858  11.233
12868W        W83468  29.092   7.645   3.730
12869W        W83469  26.887  13.822   3.032
12870W        W83470  33.518  19.555   4.127
12871W        W83471  44.342  24.959  14.741
12872W        W83472  13.177   1.887   0.775
12873W        W83473   4.253  36.314  12.516
12874W        W83474  35.956  15.305   3.750
12875W        W83475   4.891  29.667   2.277
12876W        W83476  16.676  29.508   1.678
12877W        W83477  29.199   9.254   3.843
12878W        W83478  18.953  14.755   2.343
12879W        W83479  24.103  36.157  10.755
12880W        W83480  39.581  23.141  13.759
12881W        W83481  40.532  12.865  12.587
12882W        W83482  26.736  40.908   0.986
12883W        W83483  16.552  10.501  13.705
12884W        W83484   3.279   2.890   4.593
12885W        W83485  23.736  27.227  14.765
12886W        W83486  33.130  12.857  11.521
12887W        W83487  17.406  31.603   0.390
12888W        W83488  12.257  12.474   0.672
12889W        W83489  32.603  17.728  13.951
12890W        W83490  27.377  30.492  14.103
12891W        W83491  14.445  10.705  14.733
12892W        W83492   3.246  34.491   0.285
12893W        W83493  25.210  11.073   3.988
12894W        W83494  39.463  11.581   4.592
12895W        W83495  38.713  18.780  13.875
12896W        W83496  22.546  37.436  11.735
12897W        W83497  28.538  36.976   3.734
12898W        W83498  11.607   4.022   3.708
12899W        W83499  22.654   2.385   3.620
12900W        W83500  26.492  38.544   2.134
12901W        W83501   6.090   2.541  13.380
12902W        W83502  17.705   8.818  13.055
12903W        W83503  15.746  35.633   3.454
12904W        W83504  35.863  12.316  13.543
12905W        W83505  28.419  15.085  12.802
12906W        W83506   9.400  42.876  14.202
12907W        W83507  24.977   5.218   4.650
12908W        W83508  30.888  40.921   1.696
12909W        W83509   6.800  17.312   0.408
12910W        W83510  41.382  38.937   3.222
12911W        W83511  21.151  25.452   2.759
12912W        W83512  42.328  14.798  14.002
12913W        W83513  34.328  44.812   0.767
12914W        W83514  41.428  18.705   0.786
12915W        W83515  35.375  44.446  11.288
12916W        W83516  43.498   9.362  10.934
12917W        W83517  33.515  13.313  13.520
12918W        W83518  40.899   2.481  14.368
12919W        W83519  17.821  20.712  11.161
12920W        W83520  26.656  29.175   1.661
12921W        W83521  14.876  43.851  13.977
12922W        W83522  40.508  39.380  12.920
12923W        W83523  38.896  22.575   4.509
12924W        W83524  41.334   5.525  11.310
12925W        W83525  25.006  11.051   2.636
12926W        W83526   6.332  22.744   4.161
12927W        W83527  38.925  17.496   2.756
12928W        W83528  31.059   4.165  11.561
12929W        W83529  13.300   5.507   2.828
12930W        W83530  12.314  27.991  12.052
12931W        W83531   6.364  23.979   3.073
12932W        W83532  22.061  28.746  11.122
12933W        W83533   4.986  11.927   4.186
12934W        W83534   7.404  16.165   0.883
12935W        W83535  24.707  10.855   1.997
12936W        W83536  24.584  36.221  12.509
12937W        W83537   1.958  11.278   1.922
12938W        W83538  29.042  30.907  11.226
12939W        W83539  14.822  40.837  14.080
12940W        W83540  36.842  17.213   1.651
12941W        W83541  32.814   5.395  12.552
12942W        W83542  38.735  20.146  11.171
12943W        W83543   0.383  26.509   0.811
12944W        W83544  41.287  37.530   3.197
12945W        W83545  39.339   6.753   3.272
12946W        W83546  19.686  10.662   0.770
12947W        W83547  22.029   3.217  13.388
12948W        W83548  42.138  15.244   1.690
12949W        W83549   7.876  34.384   0.375
12950W        W83550  38.289  44.998   2.560
12951W        W83551  39.208   0.973   4.055
12952W        W83552  36.314  15.572   1.837
12953W        W83553  41.049  21.272  11.182
12954W        W83554  22.111  38.844  11.990
12955W        W83555   9.659  22.439  12.526
12956W        W83556  36.143  30.050  12.429
12957W        W83557  42.651  13.509  14.404
12958W        W83558  38.837  44.041  11.244
12959W        W83559   0.899  20.503  10.699
12960W        W83560  11.421  13.036  11.388
12961W        W83561  29.565  25.747  11.096
12962W        W83562  26.901  20.638  11.440
12963W        W83563  32.540  16.400  13.983
12964W        W83564   4.627  28.183   3.190
12965W        W83565  34.874  13.777  11.508
12966W        W83566  43.550   4.675  14.742
12967W        W83567  33.093   3.704   2.196
12968W        W83568  20.274   3.606  10.622
12969W        W83569  13.715  42.674   1.750
12970W        W83570  10.310  16.961   3.098
12971W        W83571  24.970  42.973  13.443
12972W        W83572  42.083  30.429   4.154
12973W        W83573  27.221   0.113  13.767
12974W        W83574   2.416  41.863  13.605
12975W        W83575  29.950   8.742  14.007
12976W        W83576   1.975  34.217   9.766
12977W        W83577  41.567  24.005   4.314
12978W        W83578   0.308  20.266  14.325
12979W        W83579  40.274  29.925   2.221
12980W        W83580  18.626   1.534  12.445
12981W        W83581  28.390   8.287  10.433
12982W        W83582  15.756  44.141  10.718
12983W        W83583  24.549  10.177   2.360
12984W        W83584   8.873  19.884  10.393
12985W        W83585   3.980  10.140  13.032
12986W        W83586  41.356   5.191   3.119
12987W        W83587  17.293  21.953  10.951
12988W        W83588   7.752  37.291  11.747
12989W        W83589  21.030  35.876  10.291
12990W        W83590  28.144  42.565  12.787
12991W        W83591  23.156  31.167   0.426
12992W        W83592  21.559  22.531  12.158
12993W        W83593  15.371  20.723   2.228
12994W        W83594  13.788  21.670   4.406
12995W        W83595  27.617   2.950  12.770
12996W        W83596   7.784  32.589   2.599
12997W        W83597  22.032  26.069   4.471
12998W        W83598  34.208  27.009  13.250
12999W        W83599  28.448   2.683  13.356
13000W        W83600   0.910  12.878   1.987
13001W        W83601  18.697  35.940  13.949
13002W        W83602  42.489   7.423   3.490
13003W        W83603   8.190  31.633  12.031
13004W        W83604   3.490  42.425  11.433
13005W        W83605  16.987  38.490   3.452
13006W        W83606  35.831   2.090  10.753
13007W        W83607  33.147  12.762   4.248
13008W        W83608  41.386  25.204  14.290
13009W        W83609  33.647  43.905   3.240
13010W        W83610   3.526  27.240  10.674
13011W        W83611  25.232  22.248   4.423
13012W        W83612  11.337   8.842   1.951
13013W        W83613  28.038  31.848  12.022
13014W        W83614  44.515  15.148  13.408
13015W        W83615  12.747   2.001  11.898
13016W        W83616   1.743  21.843  12.004
13017W        W83617  39.591   2.891   0.160
13018W        W83618  43.764  20.150  12.441
13019W        W83619  30.926   8.623  13.969
13020W        W83620  16.281  22.702  11.215
13021W        W83621  29.949   2.499   3.632
13022W        W83622   3.853  33.315   3.145
13023W        W83623   8.408  32.428  11.591
13024W        W83624  10.225  20.281  13.537
13025W        W83625  26.050  31.314   3.055
13026W        W83626  14.512  14.687   0.394
13027W        W83627  20.129  42.800   1.387
13028W        W83628   6.623  40.450   2.134
13029W        W83629  37.409  29.589   3.637
13030W        W83630  30.508  44.783   4.195
13031W        W83631  18.987  22.384   2.541
13032W        W83632  36.564   2.367  14.073
13033W        W83633  42.488  25.631   2.869
13034W        W83634  23.568  13.175   2.096
13035W        W83635  32.645  18.271   3.732
13036W        W83636  40.826  29.008   2.977
13037W        W83637  16.282  23.617   3.196
13038W        W83638  27.217  19.616  14.441
13039W        W83639  23.248  40.385   2.274
13040W        W83640   7.624   9.608   0.386
13041W        W83641  33.764  11.681  14.445
13042W        W83642  12.817  28.277  11.970
13043W        W83643  44.444   6.764  10.348
13044W        W83644   1.161  12.816  11.580
13045W        W83645  17.708  24.717   0.241
13046W        W83646  19.544  44.874   0.882
13047W        W83647  21.747  26.065   0.637
13048W        W83648  14.768  19.283   3.221
13049W        W83649  28.991  18.691   4.857
13050W        W83650   1.452  43.442  10.845
13051W        W83651  30.253  14.592  14.998
13052W        W83652  16.292  13.600   3.516
13053W        W83653  22.340  27.947   1.821
13054W        W83654   3.420  25.694   1.590
13055W        W83655  23.174  22.798   3.419
13056W        W83656  29.072  11.298   2.670
13057W        W83657  32.159  42.489  11.132
13058W        W83658  18.993  34.199   3.185
13059W        W83659   9.409   5.319  13.834
13060W        W83660  18.280  32.948   2.356
13061W        W83661   1.544  29.528  10.916
13062W        W83662  44.747  38.986   4.110
13063W        W83663   1.020  23.991  14.934
13064W        W83664   4.000  37.461  11.556
13065W        W83665  15.306  36.010   4.110
13066W        W83666  30.768  29.084  12.992
13067W        W83667  43.404  38.005  10.795
13068W        W83668  36.517   0.788   0.036
13069W        W83669   1.862  27.106   0.300
13070W        W83670   5.619   5.876   2.709
13071W        W83671  35.584  24.477  11.981
13072W        W83672  10.387   7.543  13.411
13073W        W83673  23.866  40.437  11.923
13074W        W83674  34.035  34.993  14.943
13075W        W83675  41.812   7.917  13.406
13076W        W83676  10.728  32.060   3.046
13077W        W83677  13.060   2.825  10.933
13078W        W83678  32.994  20.801  13.961
13079W        W83679  24.566  30.142   2.863
13080W        W83680  19.784  22.117   3.844
13081W        W83681   8.415  33.408   4.142
13082W        W83682  32.496  32.070  10.753
13083W        W83683  26.475  23.708   1.253
13084W        W83684  39.521  12.618   0.350
13085W        W83685  25.269   7.899  13.979
13086W        W83686  30.459   0.808   2.738
13087W        W83687   4.001  19.027  11.156
13088W        W83688  18.594  28.038  10.265
13089W        W83689  18.587  33.177   1.226
13090W        W83690  33.128  16.636   0.212
13091W        W83691  38.605   4.348   4.177
13092W        W83692  14.511   6.948  11.883
13093W        W83693   2.342  10.012   0.777
13094W        W83694  12.538  41.402   0.434
13095W        W83695  24.476  36.951   1.947
13096W        W83696  19.111   2.021   0.874
13097W        W83697   3.331  35.386   0.719
13098W        W83698   3.257  25.049   2.243
13099W        W83699  37.315   3.377  11.559
13100W        W83700  44.897  43.890  10.717
13101W        W83701  26.046  39.903  13.022
13102W        W83702  18.685   7.634   2.787
13103W        W83703   9.252  33.689  12.926
13104W        W83704   5.739   7.033   3.560
13105W        W83705  31.824  21.180   5.017
13106W        W83706   4.970  40.585   2.822
13107W        W83707  41.736  37.621   4.971
13108W        W83708   9.308  18.359  11.843
13109W        W83709  28.013  44.381  11.933
13110W        W83710  22.628  16.538   1.264
13111W        W83711  18.221  13.192   4.065
13112W        W83712  36.997  41.283  12.934
13113W        W83713   2.337  31.988  11.930
13114W        W83714  20.853  14.754   1.302
13115W        W83715  25.237  29.457   3.545
13116W        W83716  42.172  12.082   0.350
13117W        W83717   2.424  14.879  10.743
13118W        W83718  44.559  35.114   2.674
13119W        W83719  42.042  17.599   0.978
13120W        W83720   1.023  31.586  11.552
13121W        W83721   3.928   0.760   0.432
13122W        W83722  26.912  26.622   2.362
13123W        W83723   6.339  22.324   0.730
13124W        W83724  13.802  35.855   4.213
13125W        W83725  40.270  13.610   2.820
13126W        W83726  26.907   6.775   4.154
13127W        W83727  28.057  38.948  13.791
13128W        W83728  31.951  20.048   0.970
13129W        W83729  43.318  15.866  11.113
13130W        W83730  19.629  44.084  14.073
13131W        W83731  44.020  42.001   2.298
13132W        W83732  39.063   6.797   0.017
13133W        W83733  28.574  23.395  10.783
13134W        W83734  20.584  14.774   3.690
13135W        W83735   9.245  16.307  12.021
13136W        W83736  39.359   3.043   4.546
13137W        W83737  41.398  11.838   3.729
13138W        W83738  29.212  13.257   2.425
13139W        W83739   1.427  17.512   1.110
13140W        W83740  16.379   6.811   4.224
13141W        W83741  17.865  11.096   1.809
13142W        W83742   6.378   7.995  13.362
13143W        W83743  20.809  16.246  10.695
13144W        W83744  36.530  41.281  11.168
13145W        W83745  44.275  24.771   0.231
13146W        W83746  18.556  38.029   1.923
13147W        W83747  16.259  37.480   0.992
13148W        W83748  43.455  35.061  13.818
13149W        W83749  19.179  35.247   0.821
13150W        W83750   5.725  37.084  11.492
13151W        W83751  32.577  34.919   2.683
13152W        W83752  44.698  27.191   2.182
13153W        W83753   9.241  28.732  12.116
13154W        W83754  30.099  37.504   3.298
13155W        W83755   3.356   4.553   1.763
13156W        W83756  13.382  40.355   1.781
13157W        W83757  34.912  15.059   3.581
13158W        W83758  16.903  39.762   3.838
13159W        W83759  38.396  18.070  13.435
13160W        W83760  36.071   2.661   4.545
13161W        W83761  24.161  20.685  13.542
13162W        W83762  28.877  22.464   0.299
13163W        W83763  22.160  14.623  12.099
13164W        W83764  28.604  21.612   1.367
13165W        W83765   1.306   3.958   0.340
13166W        W83766   2.534   4.331   2.720
13167W        W83767  21.732  12.875  13.980
13168W        W83768  44.168  39.832   1.644
13169W        W83769   2.492  38.031   2.380
13170W        W83770  20.582  32.001  14.904
13171W        W83771   1.313  15.566   1.891
13172W        W83772  15.523  32.415   2.734
13173W        W83773  36.318   7.614  14.879
13174W        W83774  44.515  28.454  12.536
13175W        W83775  12.869  28.777  11.917
13176W        W83776  39.800  37.379   3.584
13177W        W83777  41.406  11.267  13.265
13178W        W83778  24.098  35.665   3.073
13179W        W83779  25.731  40.920  14.969
13180W        W83780   6.144  20.401   3.149
13181W        W83781   4.182  21.593  13.595
13182W        W83782  34.846  28.378  10.879
13183W        W83783  18.004   8.402  12.925
13184W        W83784  39.053   5.979  12.361
13185W        W83785  19.904  44.004   2.652
13186W        W83786  14.155   7.643  13.491
13187W        W83787  42.779  38.261  12.000
13188W        W83788   0.379   4.489  10.560
13189W        W83789  25.950  19.287  12.571
13190W        W83790  16.802  40.455  11.178
13191W        W83791   6.488  12.102  10.462
13192W        W83792  19.094   6.925  11.421
13193W        W83793  30.858  11.240   2.275
13194W        W83794   0.250  33.360  11.285
13195W        W83795   6.286   2.442   3.302
13196W        W83796   3.872   9.084  14.889
13197W        W83797  18.756  14.071  14.300
13198W        W83798  12.726   0.264   0.259
13199W        W83799  37.255  28.554   0.285
13200W        W83800  39.467  12.660  11.142
13201W        W83801  27.549  32.201   3.304
13202W        W83802  13.716  16.111  11.269
13203W        W83803  31.995  27.240  10.945
13204W        W83804  24.282  23.997  13.881
13205W        W83805  35.983   7.665   0.333
13206W        W83806  14.560  38.071  10.727
13207W        W83807  21.945  40.478  14.886
13208W        W83808  33.398   7.542   3.347
13209W        W83809   6.016   7.468  12.678
13210W        W83810  30.986   8.215   2.368
13211W        W83811  13.851   4.219  12.421
13212W        W83812  28.182   4.817  13.578
13213W        W83813  30.396   7.868  13.029
13214W        W83814  31.612  13.754   4.591
13215W        W83815   8.873   1.515  13.320
13216W        W83816   6.414  33.424   1.381
13217W        W83817  35.012  35.567   2.299
13218W        W83818  20.603  10.132  13.502
13219W        W83819  39.746  38.969  11.213
13220W        W83820  23.151   7.076   2.295
13221W        W83821   7.367  32.211   4.151
13222W        W83822  40.346   8.258   0.660
13223W        W83823   9.357  35.065   1.117
13224W        W83824  11.366   1.514   4.336
13225W        W83825  44.877  19.618  13.606
13226W        W83826  18.085  14.564  13.812
13227W        W83827  36.956  30.827   3.608
13228W        W83828   6.604   7.768   0.751
13229W        W83829  42.194  35.148   1.611
13230W        W83830   8.134  35.098   4.348
13231W        W83831  19.607   1.999  13.225
13232W        W83832  13.364  40.007  13.219
13233W        W83833  25.477  29.612  10.806
13234W        W83834   0.001  12.655   2.265
13235W        W83835  20.026  38.396  11.749
13236W        W83836  20.858   9.200  14.566
13237W        W83837   6.783  37.978  14.388
13238W        W83838  33.635  42.490  12.638
13239W        W83839  27.930  28.905  11.402
13240W        W83840  25.485  19.444  11.374
13241W        W83841  10.875  17.118   2.378
13242W        W83842   9.156  22.737   1.811
13243W        W83843  12.590  38.135   0.289
13244W        W83844  19.643  41.667  10.671
13245W        W83845  14.382  22.545   3.765
13246W        W83846  13.839  34.352  14.481
13247W        W83847  41.951  32.918  13.687
13248W        W83848  44.799  26.952   0.381
13249W        W83849  29.502  25.583   0.449
13250W        W83850  15.631  35.777  10.532
13251W        W83851  21.694  26.466  14.464
13252W        W83852  41.926  38.356   0.172
13253W        W83853   0.391  24.593   1.287
13254W        W83854   1.918  19.781   4.164
13255W        W83855  15.913  17.714   3.628
13256W        W83856  22.187  38.796  11.469
13257W        W83857  18.768  20.075  13.589
13258W        W83858  36.533  22.734   1.196
13259W        W83859  30.192  30.118  12.072
13260W        W83860  18.332  17.176   3.592
13261W        W83861  17.823  12.458  10.599
13262W        W83862  13.248  31.841   0.255
13263W        W83863  20.296  29.728  12.899
13264W        W83864  15.359   0.182  13.254
13265W        W83865  41.356  25.280  12.893
13266W        W83866  14.768  10.137  12.056
13267W        W83867  16.002   6.509  13.482
13268W        W83868   6.960  15.096  11.976
13269W        W83869  38.089  39.072  13.580
13270W        W83870  36.901  18.270  10.727
13271W        W83871  37.388  14.236   1.724
13272W        W83872  14.012   6.649   3.910
13273W        W83873  14.873   8.573   2.160
13274W        W83874  18.929  35.845  11.459
13275W        W83875  42.868  38.397  10.627
13276W        W83876  33.108  26.901  12.420
13277W        W83877  32.540   6.701   3.037
13278W        W83878  26.625  12.327  11.589
13279W        W83879  43.714  23.989  12.442
13280W        W83880  41.545  32.591   0.484
13281W        W83881   4.875   8.710   2.174
13282W        W83882  14.295  41.930   3.446
13283W        W83883  39.323   1.925  10.487
13284W        W83884  39.852   8.736  12.499
13285W        W83885   8.514  34.390   0.507
13286W        W83886  28.035  16.849   3.751
13287W        W83887  16.275  17.825   3.247
13288W        W83888  14.803  29.587  10.779
13289W        W83889  13.608  41.896   2.242
13290W        W83890  23.743  35.626   3.841
13291W        W83891  25.241  36.375  13.456
13292W        W83892   6.635  30.570   0.066
13293W        W83893  13.341  30.133  12.970
13294W        W83894  21.114   6.013  10.676
13295W        W83895   1.077  10.055  10.259
13296W        W83896  24.208   3.456   3.245
13297W        W83897  34.932  42.522  13.377
13298W        W83898  26.704  22.764   3.223
13299W        W83899  30.155  21.529  14.389
13300W        W83900  15.092  25.952  14.833
13301W        W83901  21.819  17.994  12.856
13302W        W83902   3.896  22.964   4.296
13303W        W83903  15.717  32.419  14.023
13304W        W83904  22.706   9.167  13.048
13305W        W83905   4.196   9.223  14.462
13306W        W83906  30.513  13.311   4.275
13307W        W83907  22.005  25.296   4.501
13308W        W83908  26.518  20.810  12.062
13309W        W83909  21.922  10.368   9.751
13310W        W83910  41.804  27.513   1.842
13311W        W83911  32.068  36.363  12.690
13312W        W83912  30.043  19.663  14.985
13313W        W83913  33.896  13.915  12.994
13314W        W83914  11.149  34.235  11.014
13315W        W83915   2.784  29.179   0.477
13316W        W83916  34.205  19.249   3.200
13317W        W83917  26.318  11.914  11.665
13318W        W83918  19.169  22.731  10.566
13319W        W83919  43.567  13.667   3.082
13320W        W83920  18.066  20.711   1.234
13321W        W83921  40.395  30.904   1.829
13322W        W83922   6.397  26.130   0.472
13323W        W83923  44.025  22.503  13.469
13324W        W83924  24.521  29.156  12.371
13325W        W83925  39.637  22.721  14.311
13326W        W83926  22.959  21.649  12.612
13327W        W83927  24.587  30.070   3.899
13328W        W83928   5.682  34.375  10.763
13329W        W83929  40.383  42.731   2.250
13330W        W83930   4.837  28.767   1.273
13331W        W83931  30.667  14.788   0.914
13332W        W83932  11.557  19.162   0.969
13333W        W83933  15.143  19.125  13.547
13334W        W83934  18.625  23.031   2.503
13335W        W83935   2.401  30.655   4.067
13336W        W83936  41.748  26.972  14.338
13337W        W83937  31.515   8.250  14.760
13338W        W83938  28.982  16.670  12.432
13339W        W83939   8.926  13.270  14.917
13340W        W83940  38.052  18.742  10.054
13341W        W83941  36.408  29.068   0.027
13342W        W83942  10.070   7.742   4.110
13343W        W83943   8.307  40.448  12.079
13344W        W83944   7.543   7.242  14.346
13345W        W83945  25.007  10.551  11.524
13346W        W83946  37.984   2.406  10.625
13347W        W83947  28.755  31.236  13.320
13348W        W83948  43.370  31.169  11.197
13349W        W83949   2.505  44.809  11.621
13350W        W83950  16.560   4.909   0.199
13351W        W83951  30.946  27.276   2.360
13352W        W83952  44.153  31.175   1.779
13353W        W83953  29.177  37.797   3.092
13354W        W83954  15.910  26.913  13.484
13355W        W83955  39.389   6.273   4.442
13356W        W83956  12.222  19.693   0.029
13357W        W83957  33.948  31.285  14.768
13358W        W83958  27.295  41.124  12.054
13359W        W83959  17.235  15.873   3.277
13360W        W83960   5.448  19.306  11.632
13361W        W83961  10.128  10.804   1.882
13362W        W83962   1.198   9.210  14.294
13363W        W83963  21.498  33.956  11.524
13364W        W83964  27.332   4.363  12.818
13365W        W83965  39.538  43.411   2.248
13366W        W83966  18.632  16.839  11.019
13367W        W83967   3.872   0.931   4.116
13368W        W83968  13.055   5.547   0.183
13369W        W83969  35.960  36.133   2.319
13370W        W83970   7.725  12.110   3.386
13371W        W83971  39.884  29.948   3.213
13372W        W83972  19.964   1.843  14.848
13373W        W83973  29.144   9.403  12.025
13374W        W83974  17.525  22.737   3.245
13375W        W83975  34.072  21.914  12.991
13376W        W83976  26.137  22.440  13.053
13377W        W83977   3.769  11.686   3.744
13378W        W83978   5.416  10.430  11.627
13379W        W83979   6.139  33.035  14.960
13380W        W83980  31.973  12.268   0.646
13381W        W83981  33.916  17.471  14.630
13382W        W83982   8.842  33.527  13.797
13383W        W83983  42.268  20.340   3.124
13384W        W83984  33.080  25.269  13.936
13385W        W83985   1.753  37.261  13.036
13386W        W83986  35.999   6.423  11.205
13387W        W83987  27.328  30.487   2.001
13388W        W83988  37.394  36.378  11.159
13389W        W83989  18.188  32.416  11.842
13390W        W83990   0.744   1.727   4.655
13391W        W83991   5.888   0.863  14.769
13392W        W83992  38.405  28.891   3.421
13393W        W83993  18.988  37.897   2.367
13394W        W83994  44.929  37.520  12.750
13395W        W83995  19.355  22.681  11.040
13396W        W83996  43.708  34.553   4.245
13397W        W83997  34.676  16.552  10.704
13398W        W83998  29.694  27.354   3.255
13399W        W83999  41.342   7.817  14.413
13400W        W84000  42.651  39.896  10.757
13401W        W84001  17.667  21.940   3.644
13402W        W84002  19.604   3.289  11.596
13403W        W84003   2.807  12.191  13.885
13404W        W84004  31.875  34.440  14.751
13405W        W84005  39.138   4.330  11.708
13406W        W84006  25.738  18.524   3.287
13407W        W84007  33.493   7.873   2.474
13408W        W84008  15.756   6.417  11.802
13409W        W84009   1.953  14.596  13.945
13410W        W84010  38.383  14.079  13.749
13411W        W84011  18.632  43.776  14.401
13412W        W84012  15.641   0.881  12.565
13413W        W84013   3.030  43.800  14.222
13414W        W84014  32.608  27.181   3.806
13415W        W84015  44.820  37.497  14.546
13416W        W84016   5.335   4.622  13.446
13417W        W84017  33.967  17.666  10.899
13418W        W84018   0.143  33.898   0.565
13419W        W84019  43.005  33.490   2.397
13420W        W84020   5.979  18.004   0.851
13421W        W84021  26.843  42.342   1.194
13422W        W84022  17.589  28.641  12.860
13423W        W84023  33.550  12.795   5.497
13424W        W84024   9.281   5.966   0.501
13425W        W84025  36.638  19.455  10.298
13426W        W84026  15.331  22.220  10.688
13427W        W84027  38.437  39.099   1.702
13428W        W84028  33.871  35.559   2.971
13429W        W84029  15.312  35.099  12.483
13430W        W84030  41.933  22.275  10.725
13431W        W84031   6.396  10.585   3.602
13432W        W84032  31.636  12.447  12.930
13433W        W84033   8.465  38.120   0.242
13434W        W84034  18.254  36.078   4.128
13435W        W84035  37.254  28.014   1.356
13436W        W84036   7.272  36.323   2.274
13437W        W84037  19.675  10.935  11.976
13438W        W84038  19.048   1.687  14.489
13439W        W84039  11.856   3.711  14.716
13440W        W84040  20.998  27.102   0.404
13441W        W84041  16.225   5.873   1.386
13442W        W84042  25.254  17.170   3.988
13443W        W84043  42.392  35.681   0.320
13444W        W84044   7.771  30.915   3.650
13445W        W84045  22.635   2.345   4.566
13446W        W84046  11.588  22.738  10.310
13447W        W84047  18.685  22.234  13.596
13448W        W84048  32.543  33.352   3.711
13449W        W84049  18.920  13.046  12.193
13450W        W84050  20.394   6.683   4.214
13451W        W84051  35.637  25.466   1.676
13452W        W84052  32.167   4.340  11.566
13453W        W84053  30.544  43.796  11.603
13454W        W84054  16.142  17.784   0.293
13455W        W84055  10.802  33.545  11.580
13456W        W84056   9.283  36.537   2.152
13457W        W84057  10.383  22.932   3.845
13458W        W84058   1.180  17.841  14.854
13459W        W84059  26.630  27.143  12.576
13460W        W84060  25.695  35.170  11.933
13461W        W84061  41.483  31.502   4.948
13462W        W84062  26.566  43.744   3.186
13463W        W84063  23.110  37.361   1.477
13464W        W84064  27.419  30.963  12.867
13465W        W84065  30.836  36.161   4.924
13466W        W84066   3.910   1.355   2.139
13467W        W84067   4.196  31.411   0.809
13468W        W84068  21.162  26.505   0.439
13469W        W84069  44.193  31.088   4.850
13470W        W84070   3.739  40.813  13.903
13471W        W84071  25.541  19.551  11.870
13472W        W84072   8.774  28.959  12.148
13473W        W84073  36.350  14.417  11.530
13474W        W84074  32.231  22.909   3.652
13475W        W84075  20.962   3.286   2.341
13476W        W84076  37.987  25.022  12.886
13477W        W84077   2.916  41.064  11.665
13478W        W84078  27.139  32.108   1.064
13479W        W84079  40.149   0.903  11.213
13480W        W84080   4.727  33.213   2.463
13481W        W84081   2.322   1.527  14.013
13482W        W84082  26.589  17.041  12.954
13483W        W84083  44.006   2.754   1.812
13484W        W84084  28.119  41.008   1.666
13485W        W84085  29.290  40.272  14.097
13486W        W84086   0.995  24.741   2.890
13487W        W84087  15.582  33.591   1.688
13488W        W84088   5.881  42.313   2.743
13489W        W84089   2.664  14.336   1.301
13490W        W84090  34.614  33.435  14.027
13491W        W84091  36.418   4.460  14.053
13492W        W84092   5.047  39.058  11.933
13493W        W84093   3.945  18.611  11.538
13494W        W84094  26.216  17.507  11.282
13495W        W84095  39.287  16.165  13.025
13496W        W84096   0.477  33.660   0.266
13497W        W84097   7.306  21.995   4.626
13498W        W84098   1.762   4.009   1.245
13499W        W84099  15.262  41.454  12.966
13500W        W84100  36.409  12.203   4.385
13501W        W84101  13.881  19.990  11.001
13502W        W84102  17.780  21.102  10.717
13503W        W84103  18.765  29.163   4.517
13504W        W84104  16.152   2.006  12.056
13505W        W84105  17.364  19.201  11.949
13506W        W84106   1.884  14.799   2.225
13507W        W84107  19.567  15.166   0.451
13508W        W84108  33.463  35.766   2.214
13509W        W84109  22.801   1.469  10.235
13510W        W84110  42.839  11.206   2.238
13511W        W84111  17.830   5.643  12.286
13512W        W84112  26.095  41.495   0.820
13513W        W84113  25.670  21.043   1.456
13514W        W84114   1.372  42.524   0.518
13515W        W84115   6.036  22.620  11.536
13516W        W84116  24.525  33.163  13.387
13517W        W84117   9.227  41.421  14.028
13518W        W84118  24.092  22.270   4.690
13519W        W84119  20.195  29.859   0.101
13520W        W84120  10.952  12.969   2.635
13521W        W84121  25.776  24.532   1.783
13522W        W84122   6.855  42.176   1.303
13523W        W84123  27.141  39.070  11.077
13524W        W84124  38.993  24.673   4.491
13525W        W84125  18.521  16.124   0.741
13526W        W84126  20.363  24.135   4.844
13527W        W84127   8.356  25.639   2.206
13528W        W84128  38.023   2.587  13.029
13529W        W84129  39.360  43.256  14.978
13530W        W84130  15.738  20.340   2.164
13531W        W84131   5.944  10.048  12.958
13532W        W84132  42.023   6.448   2.786
13533W        W84133  35.152   9.459   2.149
13534W        W84134   9.735  29.031  12.011
13535W        W84135  37.046  10.159   1.855
13536W        W84136  24.488  41.928  14.461
13537W        W84137   5.466   5.727   3.232
13538W        W84138  14.027   6.937  12.085
13539W        W84139   2.210  30.143   3.208
13540W        W84140  29.043  20.051  14.865
13541W        W84141  22.318  11.317   4.573
13542W        W84142  36.490  15.554   1.365
13543W        W84143  44.013  12.812   3.293
13544W        W84144   7.195  37.933   3.102
13545W        W84145  40.978  33.318   4.312
13546W        W84146   4.687  14.325   2.223
13547W        W84147  20.567  25.160   4.159
13548W        W84148  23.084   2.354  13.356
13549W        W84149   8.140   3.953   1.367
13550W        W84150   2.797  13.795  14.246
13551W        W84151  22.604   2.336   0.099
13552W        W84152  37.744  40.574  13.526
13553W        W84153  32.657  44.915  12.990
13554W        W84154  34.488  30.661  11.856
13555W        W84155  27.988  40.243   4.142
13556W        W84156  35.561  26.115  12.448
13557W        W84157  15.632   8.322  11.440
13558W        W84158  22.556  26.290   2.157
13559W        W84159  31.558  32.812   4.524
13560W        W84160  23.654  39.682  11.867
13561W        W84161  17.720   2.748  12.103
13562W        W84162  14.917   4.465   4.289
13563W        W84163   2.765  20.804   2.860
13564W        W84164  10.485  19.695  14.459
13565W        W84165  23.484  26.503  10.469
13566W        W84166   6.210  16.992  10.655
13567W        W84167  44.546  12.690   5.037
13568W        W84168  18.053  32.581   2.736
13569W        W84169   2.753  29.985  12.997
13570W        W84170  44.293  33.506   0.752
13571W        W84171  40.728   0.780   1.056
13572W        W84172   5.884  22.147   4.746
13573W        W84173   2.935  38.780   4.027
13574W        W84174   8.274  38.353  10.965
13575W        W84175  16.065   7.397   1.675
13576W        W84176  40.873  40.675   4.332
13577W        W84177  42.308  32.869   4.186
13578W        W84178   6.120  14.989  12.484
13579W        W84179  39.054  17.034   0.407
13580W        W84180  40.967  23.962  13.893
13581W        W84181  21.131  22.505  10.169
13582W        W84182  25.644   1.003   1.225
13583W        W84183   5.475   6.387  11.680
13584W        W84184  32.199  32.332  11.184
13585W        W84185   1.084  41.433   3.617
13586W        W84186  17.603  30.118   1.482
13587W        W84187  26.815   9.564  12.376
13588W        W84188  20.200  15.769   4.572
13589W        W84189  26.236  16.714   4.336
13590W        W84190   3.206  21.131  14.367
13591W        W84191  15.874  14.077  11.542
13592W        W84192  42.816  40.582  11.783
13593W        W84193  21.905  39.471   4.079
13594W        W84194  14.680  13.796  12.483
13595W        W84195  33.932  27.980   1.863
13596W        W84196   9.223  29.748   3.524
13597W        W84197  22.111  37.936   2.059
13598W        W84198  39.342  29.834   0.785
13599W        W84199  10.950  19.159  10.732
13600W        W84200  14.252  29.229   3.885
13601W        W84201  34.453  25.398   0.378
13602W        W84202  17.624   3.788  12.139
13603W        W84203  42.976   7.256   4.408
13604W        W84204  27.722  43.587  10.600
13605W        W84205   0.384  41.321   0.246
13606W        W84206  24.698  28.264  13.634
13607W        W84207   3.184  39.830  11.951
13608W        W84208  37.624  25.660   5.152
13609W        W84209  31.668   7.167  10.749
13610W        W84210  37.604   7.789   1.815
13611W        W84211  44.291   5.720  12.003
13612W        W84212   7.716  30.168   3.122
13613W        W84213  30.888  28.179   0.397
13614W        W84214  12.847  36.706   4.689
13615W        W84215  11.586  27.404   2.898
13616W        W84216  19.576  29.400   4.376
13617W        W84217   2.253  12.845  13.478
13618W        W84218  10.404  12.763   0.164
13619W        W84219  11.794  17.339   4.647
13620W        W84220  41.546   3.779   3.224
13621W        W84221  16.243  20.757   1.857
13622W        W84222  15.203   6.172   3.339
13623W        W84223  40.770  13.881  14.424
13624W        W84224  42.009  29.116   0.415
13625W        W84225  15.333   8.033   1.277
13626W        W84226  24.165  41.529  14.336
13627W        W84227  22.253  27.917   3.384
13628W        W84228  37.352  18.038  12.943
13629W        W84229  39.672   8.144   3.726
13630W        W84230   8.971  23.555  12.988
13631W        W84231  12.240  33.136  13.288
13632W        W84232  13.644   3.552  11.438
13633W        W84233  35.012  34.493  13.385
13634W        W84234  42.831  18.716   0.376
13635W        W84235  30.691  13.102   3.490
13636W        W84236  20.278  39.882   4.373
13637W        W84237  25.642  25.026   1.605
13638W        W84238  39.461  25.276   0.931
13639W        W84239   2.326  25.931   2.915
13640W        W84240  19.696   0.255  12.544
13641W        W84241  40.254  11.912   1.215
13642W        W84242  34.962   1.588   3.682
13643W        W84243  15.271  37.169  12.032
13644W        W84244  34.899  33.202  13.632
13645W        W84245   7.862  42.959  14.353
13646W        W84246  38.540   3.203  10.734
13647W        W84247  25.891   3.868  12.525
13648W        W84248  36.544   7.323   3.112
13649W        W84249  12.185  42.608  11.015
13650W        W84250  44.519   8.580   2.949
13651W        W84251   7.164  26.078   1.802
13652W        W84252  28.732   4.382   4.184
13653W        W84253  36.462  13.681   1.368
13654W        W84254  37.974   3.243  13.914
13655W        W84255  11.257  29.771  13.365
13656W        W84256   2.921   4.370  14.808
13657W        W84257  21.852  24.684   1.819
13658W        W84258   1.843   7.654   3.248
13659W        W84259  23.710   8.285  13.386
13660W        W84260  40.637  13.981   2.732
13661W        W84261  32.645   3.240  11.934
13662W        W84262  29.856   8.810  11.884
13663W        W84263   4.412   4.501   4.651
13664W        W84264  13.790  15.641  11.083
13665W        W84265   7.300  16.119   0.367
13666W        W84266   7.846  26.871   3.840
13667W        W84267  44.313  34.424   0.019
13668W        W84268  12.774   4.290  13.748
13669W        W84269  20.798  18.231   3.328
13670W        W84270  13.491   2.998   4.154
13671W        W84271  15.575  43.238  12.993
13672W        W84272   2.249   0.281  11.722
13673W        W84273  14.429  19.690   2.105
13674W        W84274   9.692  23.279   2.824
13675W        W84275  38.939  16.179  11.715
13676W        W84276  33.112  36.939  10.482
13677W        W84277   8.216  35.902  13.932
13678W        W84278  40.438  23.504   4.607
13679W        W84279  14.556  32.267   3.539
13680W        W84280   6.639  37.512  14.654
13681W        W84281   0.006  15.534   0.403
13682W        W84282  15.651  10.626  11.412
13683W        W84283  27.378   5.984  11.619
13684W        W84284  24.695   5.955  11.082
13685W        W84285  23.216  13.822  11.231
13686W        W84286  30.755  26.067   3.727
13687W        W84287  22.823  38.566  13.949
13688W        W84288  23.781  27.183   2.314
13689W        W84289  36.483  22.906   4.733
13690W        W84290   6.541  11.242  11.877
13691W        W84291  13.666  32.777   2.756
13692W        W84292  14.920   2.603   4.119
13693W        W84293  16.785   3.309   4.666
13694W        W84294  41.233   2.893   3.589
13695W        W84295   1.149  30.534  13.554
13696W        W84296   5.026  24.797  11.420
13697W        W84297   3.473  32.230   5.017
13698W        W84298  17.295  40.282   1.351
13699W        W84299  43.699  43.004  13.958
13700W        W84300  28.723  44.854   4.751
13701W        W84301   2.346  32.574  14.987
13702W        W84302  15.166  42.035  14.382
13703W        W84303  27.408  22.965   0.417
13704W        W84304   9.949  27.439  12.346
13705W        W84305  30.686  11.518   4.010
13706W        W84306  17.714   3.270  12.087
13707W        W84307  44.531  35.300  10.175
13708W        W84308  33.270  44.823   2.249
13709W        W84309  34.415  19.736   1.379
13710W        W84310  31.439  36.569  11.944
13711W        W84311  32.418  30.405  13.479
13712W        W84312   3.189  13.665   2.845
13713W        W84313  37.491  44.486  12.343
13714W        W84314  27.649  18.950  13.451
13715W        W84315   2.869  34.650   2.734
13716W        W84316  21.371   3.123  12.422
13717W        W84317  38.046   5.719  11.812
13718W        W84318  31.529  31.851   0.843
13719W        W84319  20.894  35.553   2.344
13720W        W84320  11.343  17.859  14.366
13721W        W84321  33.487  20.023   1.747
13722W        W84322  24.020  44.994  14.855
13723W        W84323  27.489  38.897  12.500
13724W        W84324  12.750  30.964   0.339
13725W        W84325  27.204  12.322   1.434
13726W        W84326  28.130  16.755  10.302
13727W        W84327  30.364  31.575  11.088
13728W        W84328  23.163  24.376   1.712
13729W        W84329  23.672  27.677  14.986
13730W        W84330   4.662  37.479  10.736
13731W        W84331  25.933  18.249   1.163
13732W        W84332   6.322   8.613  14.958
13733W        W84333  18.106  22.038   0.835
13734W        W84334  21.073  30.207   3.408
13735W        W84335   1.844  31.293   0.001
13736W        W84336   8.244  14.242  13.470
13737W        W84337  17.734  42.922  11.671
13738W        W84338  19.193   8.360  13.100
13739W        W84339   4.228  42.400  10.738
13740W        W84340   5.728  29.831   1.284
13741W        W84341  41.944  15.856  12.880
13742W        W84342  32.383   6.285   3.295
13743W        W84343  19.707   3.794   0.435
13744W        W84344  30.708   8.879  11.300
13745W        W84345   8.700  38.538   0.469
13746W        W84346   8.719  14.297  13.120
13747W        W84347  14.832   8.258  11.986
13748W        W84348  39.739  13.701  13.548
13749W        W84349  17.343  20.426  14.796
13750W        W84350  16.081  19.636   2.426
13751W        W84351  27.929  12.095  11.082
13752W        W84352   8.522  15.703   3.222
13753W        W84353  18.643   3.359   1.389
13754W        W84354   8.906  31.462   4.263
13755W        W84355  35.319  24.467  11.550
13756W        W84356  13.893  23.760  13.428
13757W        W84357   5.693  38.505  10.775
13758W        W84358   4.196  13.649   1.915
13759W        W84359   1.766  35.538  12.850
13760W        W84360  37.580  24.984   2.707
13761W        W84361  43.861  25.456  10.696
13762W        W84362  39.970  34.625  12.856
13763W        W84363  39.316  23.889   2.811
13764W        W84364  11.366   8.387  14.328
13765W        W84365  19.486  11.131   1.676
13766W        W84366  26.032   4.961   3.188
13767W        W84367   6.233  30.546  13.703
13768W        W84368  22.024  31.957   4.368
13769W        W84369   7.226  18.352  11.649
13770W        W84370  29.674  11.801   4.696
13771W        W84371  20.525  21.827  14.072
13772W        W84372  40.587  28.012   0.884
13773W        W84373  24.420  36.079   2.811
13774W        W84374   1.251  31.663   0.291
13775W        W84375  40.747  29.913   0.653
13776W        W84376  24.255  29.210   0.290
13777W        W84377  42.413  14.296  14.012
13778W        W84378  37.601  30.584   3.355
13779W        W84379  37.604  12.590   1.122
13780W        W84380   3.234  21.191  10.690
13781W        W84381  28.439  35.543  14.391
13782W        W84382  22.194   7.130   1.393
13783W        W84383  39.784   2.081   2.736
13784W        W84384  18.113  32.931   0.896
13785W        W84385  31.397  44.145   2.412
13786W        W84386  28.568   1.531  12.550
13787W        W84387  11.886  35.955   5.122
13788W        W84388  25.188  27.252  13.992
13789W        W84389  31.064  19.938  13.719
13790W        W84390  16.640  22.465  10.463
13791W        W84391  40.043  10.971   2.563
13792W        W84392  43.968  34.991   3.378
13793W        W84393  43.361   5.176  13.317
13794W        W84394  14.354  23.498  12.410
13795W        W84395  24.507  10.199  13.951
13796W        W84396  14.703  32.251   2.614
13797W        W84397  38.109  32.656   4.059
13798W        W84398   8.637  19.132  12.623
13799W        W84399  30.513   3.620  11.605
13800W        W84400  35.081  24.096  10.826
13801W        W84401   3.034   2.412   4.559
13802W        W84402  43.261   9.483   4.632
13803W        W84403  16.044   3.900  13.320
13804W        W84404  33.842  23.062  13.805
13805W        W84405  26.430  32.413   4.126
13806W        W84406   2.850  17.761   4.434
13807W        W84407   4.826   7.503   4.522
13808W        W84408  43.329  17.614  11.562
13809W        W84409  19.007  23.780  13.531
13810W        W84410  16.695  42.767   3.654
13811W        W84411  36.937  23.104   3.611
13812W        W84412   8.836  22.870   5.133
13813W        W84413   6.808   6.987   4.288
13814W        W84414  37.491  28.696  14.811
13815W        W84415  42.908  37.455  10.237
13816W        W84416  20.150  21.962  10.986
13817W        W84417  41.250  16.899   0.413
13818W        W84418  32.905  11.206   0.045
13819W        W84419  19.091  37.032  14.510
13820W        W84420  30.612  21.949  12.978
13821W        W84421  37.338  31.718   2.422
13822W        W84422  23.553  11.409   3.922
13823W        W84423   4.259  15.435  12.850
13824W        W84424  24.799  33.217  12.914
13825W        W84425  15.583   9.267   0.218
13826W        W84426  41.519  17.640   0.897
13827W        W84427  12.459   7.650   4.526
13828W        W84428   0.295  24.686   0.243
13829W        W84429  34.594  31.024  13.421
13830W        W84430  35.535   1.055  14.087
13831W        W84431  24.263  21.614   1.832
13832W        W84432  10.444   2.422   0.740
13833W        W84433  10.503   7.095   2.722
13834W        W84434  12.983  30.692  11.647
13835W        W84435  24.231  14.297   3.276
13836W        W84436  17.070  17.313   0.890
13837W        W84437  28.692  42.331   4.773
13838W        W84438  30.986  40.845  11.049
13839W        W84439  37.302  28.870   4.237
13840W        W84440   8.178  13.651   0.216
13841W        W84441  30.146  34.093   2.146
13842W        W84442   1.748   9.280  10.494
13843W        W84443  13.668  33.420   3.090
13844W        W84444  27.914   9.644   0.026
13845W        W84445  34.427  28.233  12.898
13846W        W84446  25.789  22.861  14.331
13847W        W84447  22.800  22.505   2.509
13848W        W84448  28.382  23.036   2.494
13849W        W84449   9.765  38.493   2.630
13850W        W84450  17.643   6.273   0.581
13851W        W84451  13.193  30.655   0.860
13852W        W84452  36.828  25.694   0.283
13853W        W84453  23.305  21.009  12.092
13854W        W84454  23.992   9.378  11.148
13855W        W84455  40.099  32.033  10.535
13856W        W84456  28.662  23.650   2.827
13857W        W84457   3.266  16.278   1.357
13858W        W84458  30.915  37.849  13.419
13859W        W84459  11.356  34.525   4.537
13860W        W84460  15.435  22.746  11.552
13861W        W84461  38.434  32.880   4.543
13862W        W84462  14.896  14.875  12.503
13863W        W84463  21.904  24.788   0.756
13864W        W84464  36.389  22.649   1.709
13865W        W84465  33.211  35.456  13.126
13866W        W84466   6.457  25.111   3.765
13867W        W84467  32.411   9.812   4.154
13868W        W84468  21.691  18.482  12.073
13869W        W84469  16.459  29.679   3.250
13870W        W84470  19.002  17.662  10.948
13871W        W84471  15.447  27.134  11.138
13872W        W84472   3.731   7.128   1.441
13873W        W84473  20.246   0.873  12.851
13874W        W84474  28.121  25.011  11.726
13875W        W84475   5.604  36.455  12.502
13876W        W84476  14.571  12.907  14.700
13877W        W84477   3.339  24.229  14.860
13878W        W84478  42.918   3.448  14.498
13879W        W84479   3.201  24.659   0.093
13880W        W84480  40.478  15.762   1.577
13881W        W84481  28.215   0.939  12.003
13882W        W84482  17.829  20.058  12.571
13883W        W84483  25.208  11.199  13.293
13884W        W84484  10.326  20.750  11.622
13885W        W84485   4.657  11.669  14.608
13886W        W84486  32.705  39.411  14.454
13887W        W84487   6.824  29.602   3.911
13888W        W84488  30.981  32.217   1.474
13889W        W84489   0.347  22.520  12.787
13890W        W84490  19.629  41.092  11.108
13891W        W84491  41.428  35.589   4.892
13892W        W84492  40.889   2.347   4.677
13893W        W84493  40.816  17.770   0.069
13894W        W84494  33.535   0.436  11.151
13895W        W84495  40.497  13.288   4.095
13896W        W84496  24.739  44.571  11.934
13897W        W84497  33.713  23.158  13.308
13898W        W84498  35.484  41.343  11.575
13899W        W84499  30.966  23.987   4.474
13900W        W84500  11.638  31.589  14.497
13901W        W84501  33.860   0.368   2.464
13902W        W84502  21.987  21.809   1.907
13903W        W84503  21.119   1.976   1.805
13904W        W84504  35.348  16.317   1.333
13905W        W84505  34.831  16.514   1.223
13906W        W84506  32.692  11.754  12.468
13907W        W84507   8.916   6.434   2.062
13908W        W84508  27.513  26.554  12.545
13909W        W84509   3.373  43.803   1.528
13910W        W84510  15.580   7.798  13.616
13911W        W84511  43.472  42.250   1.655
13912W        W84512  15.305  15.277  11.513
13913W        W84513  10.225  33.630  11.612
13914W        W84514   7.263  25.255  14.282
13915W        W84515  26.984  43.305  11.127
13916W        W84516  34.907  39.834   2.919
13917W        W84517  21.913  22.325   1.876
13918W        W84518  27.998  26.002  11.242
13919W        W84519  36.026  22.073  10.898
13920W        W84520  34.825  28.274   2.135
13921W        W84521  25.710  16.810   1.760
13922W        W84522  30.812  31.127   0.686
13923W        W84523  26.663   3.921  12.986
13924W        W84524  20.193  40.332  13.060
13925W        W84525  23.407   1.812   0.218
13926W        W84526   8.834  20.782  12.897
13927W        W84527  19.516  17.633   4.658
13928W        W84528  28.041  24.643   3.670
13929W        W84529  31.011  31.001   2.157
13930W        W84530   7.246  38.014   0.001
13931W        W84531  16.542  36.463   0.875
13932W        W84532  32.536  43.117   1.239
13933W        W84533  34.062   5.570   2.649
13934W        W84534  12.757   4.463  12.837
13935W        W84535  42.322  15.056  13.550
13936W        W84536   8.186  12.374   4.908
13937W        W84537  25.613  27.178  13.659
13938W        W84538  26.652   4.447   1.974
13939W        W84539  34.778  15.334   0.736
13940W        W84540   9.501  19.793  13.399
13941W        W84541  34.276   6.888  14.569
13942W        W84542  24.123  42.907  13.041
13943W        W84543  24.989  13.607   0.099
13944W        W84544  29.965   4.926   4.252
13945W        W84545   7.428  23.767  11.100
13946W        W84546  41.239  34.215   4.451
13947W        W84547  13.864  22.686   1.326
13948W        W84548  14.918   0.297  12.462
13949W        W84549   4.915  14.882  13.975
13950W        W84550  29.975  20.336   4.093
13951W        W84551   7.644   1.008  11.125
13952W        W84552  22.261   6.385   1.951
13953W        W84553   6.431  25.068   4.623
13954W        W84554  11.240  27.084   0.815
13955W        W84555  17.047  21.235   2.162
13956W        W84556   5.027  44.932   1.133
13957W        W84557  41.445  41.542  13.145
13958W        W84558   4.918   0.649  10.263
13959W        W84559  24.813  12.369  14.323
13960W        W84560  28.963   9.370  10.720
13961W        W84561  10.600  44.325  13.980
13962W        W84562  26.564  11.856  12.519
13963W        W84563  19.598   6.424  13.560
13964W        W84564  38.888  33.134   0.715
13965W        W84565  43.336  10.117   1.225
13966W        W84566  40.325  27.109   1.396
13967W        W84567  30.875  23.055   0.876
13968W        W84568   4.176  12.613   2.967
13969W        W84569   6.704   9.093   1.884
13970W        W84570  13.369  30.545  14.349
13971W        W84571  25.001  30.049   1.197
13972W        W84572  25.551  32.089  12.017
13973W        W84573  20.230  39.459  13.008
13974W        W84574   3.301  38.562   3.728
13975W        W84575   5.157  31.330   3.715
13976W        W84576   3.383  42.605  12.303
13977W        W84577  31.419  12.417   4.548
13978W        W84578  28.760  31.763   0.903
13979W        W84579  42.465  21.199   1.872
13980W        W84580   0.889  38.381  11.114
13981W        W84581   8.240  15.554   4.359
13982W        W84582  29.161  37.035   0.386
13983W        W84583   5.028   4.754   3.159
13984W        W84584  42.330  33.376   4.126
13985W        W84585  30.108   6.166   0.960
13986W        W84586  39.982  17.657   3.713
13987W        W84587   6.022   2.889   3.139
13988W        W84588   4.151  12.190   0.992
13989W        W84589   0.940  32.837  14.290
13990W        W84590  22.873   9.823   2.287
13991W        W84591  18.729  20.790   0.676
13992W        W84592  18.598  31.382  13.858
13993W        W84593  20.418  44.103  14.465
13994W        W84594  16.120  36.693   4.980
13995W        W84595  30.471   4.753   1.622
13996W        W84596   7.329  12.544  13.915
13997W        W84597  15.845   0.394  12.583
13998W        W84598  15.961  33.529   3.217
13999W        W84599  22.669   3.809  11.420
14000W        W84600  21.063  26.139   1.398
14001W        W84601  15.778  13.370   0.397
14002W        W84602   8.628  44.112  12.544
14003W        W84603   2.896  41.777   4.202
14004W        W84604  25.186  30.934  13.875
14005W        W84605  15.509  21.749  14.467
14006W        W84606  39.544  21.361  13.489
14007W        W84607   0.527  20.226   4.526
14008W        W84608  44.513  31.567   1.819
14009W        W84609  29.958  30.219  13.511
14010W        W84610  15.863   7.475  13.884
14011W        W84611  17.542  11.760   4.564
14012W        W84612  37.012  14.919   1.352
14013W        W84613  42.515  39.008  14.353
14014W        W84614  40.459  26.633  11.606
14015W        W84615  32.983   0.708  14.814
14016W        W84616  31.140   0.265   2.615
14017W        W84617  44.230  24.118   1.432
14018W        W84618  36.342  44.026  14.384
14019W        W84619  29.654  16.020  10.757
14020W        W84620   6.791  21.401  12.571
14021W        W84621  18.981  34.128  13.330
14022W        W84622  28.128  22.094  11.153
14023W        W84623  17.296  13.257   5.137
14024W        W84624  11.349  14.297   2.192
14025W        W84625  37.515  32.970   1.705
14026W        W84626  11.048  44.637  12.695
14027W        W84627  33.335  13.144   3.961
14028W        W84628  29.600  33.010  12.358
14029W        W84629  30.887  38.038   2.252
14030W        W84630  30.673  43.898   1.037
14031W        W84631   9.199  18.572   2.105
14032W        W84632  20.078  10.403   2.243
14033W        W84633  34.713   2.989   4.190
14034W        W84634  32.651  24.021   4.226
14035W        W84635  21.656  19.061   0.393
14036W        W84636  31.981  21.970   1.264
14037W        W84637  32.519   0.502  13.953
14038W        W84638   5.416  24.314   3.344
14039W        W84639   0.074  20.064   2.887
14040W        W84640  39.312  27.910   0.299
14041W        W84641  36.323  35.912   1.275
14042W        W84642  30.181  35.355  11.591
14043W        W84643  36.851  34.123   3.038
14044W        W84644  41.521  28.249   3.149
14045W        W84645  33.351   0.711   3.313
14046W        W84646  43.094  11.164   4.101
14047W        W84647   7.658  43.239  13.962
14048W        W84648  32.488  13.595   2.433
14049W        W84649  22.965  36.844  11.160
14050W        W84650  33.881   5.377  12.597
14051W        W84651   3.217  21.737   3.254
14052W        W84652   0.414  16.192  12.336
14053W        W84653  42.064   6.195   0.011
14054W        W84654  24.252  15.079   3.793
14055W        W84655  42.055  28.061   3.541
14056W        W84656  20.197  29.956   4.438
14057W        W84657  13.151  42.562   0.364
14058W        W84658   9.365  35.233   1.737
14059W        W84659  23.578  41.493  11.480
14060W        W84660  42.823  43.069   3.666
14061W        W84661   0.505  18.561   4.759
14062W        W84662   9.315  11.719  12.885
14063W        W84663  37.636  40.595  12.994
14064W        W84664  21.327  32.791  11.219
14065W        W84665  15.742  36.097  13.967
14066W        W84666  33.269  41.091   4.679
14067W        W84667  11.236   1.246   2.896
14068W        W84668  33.204  27.548  12.884
14069W        W84669  17.685  35.494   1.720
14070W        W84670  42.453  29.455  11.941
14071W        W84671   9.682  30.584  11.890
14072W        W84672   2.763  17.348   2.846
14073W        W84673  36.493  40.945  10.748
14074W        W84674  18.275  20.599   2.118
14075W        W84675  36.133   2.070  11.601
14076W        W84676  41.869  14.800  14.289
14077W        W84677  22.458  30.042  10.743
14078W        W84678  34.540   0.486  12.977
14079W        W84679  31.953  40.417  14.464
14080W        W84680  13.269  24.117   3.408
14081W        W84681  44.286  18.749  12.879
14082W        W84682  32.519   7.877   1.343
14083W        W84683   3.773   0.986  12.414
14084W        W84684  15.060  23.057  11.635
14085W        W84685  16.370  34.419   0.214
14086W        W84686  19.748   5.397   1.788
14087W        W84687  41.351  11.338  11.454
14088W        W84688  19.284  23.294   4.657
14089W        W84689   4.918  32.878  10.828
14090W        W84690  26.077  39.729  10.520
14091W        W84691  10.076  32.241   4.258
14092W        W84692  35.389  25.190   3.381
14093W        W84693  43.228  43.231  14.803
14094W        W84694  24.186  17.256  10.602
14095W        W84695  37.017  26.657   4.166
14096W        W84696  11.532  28.997  14.804
14097W        W84697   2.486   5.208   0.431
14098W        W84698  15.430  29.725   3.181
14099W        W84699  33.651  33.494  13.607
14100W        W84700  26.533  12.775   0.240
14101W        W84701  32.768  28.032   3.874
14102W        W84702  20.048  16.089  12.932
14103W        W84703  12.229  21.577   2.784
14104W        W84704  36.159  18.705  14.381
14105W        W84705  29.922  15.100   2.768
14106W        W84706  38.016  10.227  10.865
14107W        W84707   8.844   4.301  14.322
14108W        W84708  24.122  21.797   4.506
14109W        W84709  33.235  33.575   0.526
14110W        W84710  16.613   3.716   1.769
14111W        W84711   3.098  31.076  13.030
14112W        W84712  36.948  42.946   2.716
14113W        W84713   3.903  36.863   4.661
14114W        W84714   2.851  10.672  10.920
14115W        W84715  25.398  22.638   2.792
14116W        W84716   0.693  36.876   0.202
14117W        W84717  24.695  36.413   3.129
14118W        W84718  41.827  37.537  10.467
14119W        W84719  18.507  44.891  13.578
14120W        W84720  23.111   7.346  12.416
14121W        W84721  43.926  16.314   4.169
14122W        W84722  43.476  18.344  10.568
14123W        W84723  36.949  29.381  10.772
14124W        W84724   3.522   5.329  13.535
14125W        W84725  19.086  28.479   2.156
14126W        W84726  42.768  33.070   3.208
14127W        W84727  40.880  23.898   3.734
14128W        W84728  20.688  39.913   1.188
14129W        W84729  20.559   9.808  12.726
14130W        W84730  38.247  23.617   0.472
14131W        W84731  41.908  27.543   2.766
14132W        W84732  13.582  38.250  14.040
14133W        W84733  39.069  40.620  12.050
14134W        W84734   4.783  20.735  10.186
14135W        W84735  34.584  25.450  12.703
14136W        W84736  36.128  31.621  13.785
14137W        W84737  20.209  29.059   4.307
14138W        W84738  39.463  17.285   0.569
14139W        W84739  36.599   3.760   4.361
14140W        W84740  13.284  22.221   3.616
14141W        W84741  32.884  27.537  11.647
14142W        W84742   4.300  18.281  12.206
14143W        W84743  16.792  24.497  12.500
14144W        W84744   6.447   9.230   2.309
14145W        W84745  39.895  17.573   2.726
14146W        W84746   2.589  21.318  11.213
14147W        W84747  21.838   4.630   2.749
14148W        W84748  26.190   3.158  11.114
14149W        W84749  17.303  14.865   1.768
14150W        W84750  25.696  14.911   4.594
14151W        W84751   7.273  14.121   4.944
14152W        W84752  29.164   8.450  14.437
14153W        W84753   0.425  28.887  10.600
14154W        W84754  31.999  14.841   2.535
14155W        W84755  25.016  11.172   1.717
14156W        W84756  40.258  19.101   2.659
14157W        W84757  34.743  34.362   4.564
14158W        W84758   0.790  39.631  10.655
14159W        W84759  24.627  10.122   3.287
14160W        W84760  43.892  32.654  13.536
14161W        W84761  20.794   5.846  11.582
14162W        W84762  42.283   1.304   4.078
14163W        W84763   5.418   0.480   3.667
14164W        W84764  16.417  24.707  11.741
14165W        W84765   2.551  39.648  11.175
14166W        W84766  10.754  33.320   2.331
14167W        W84767  19.972  29.983  11.668
14168W        W84768  43.447  40.427  12.369
14169W        W84769  22.332  25.611   3.196
14170W        W84770  36.148  27.974   2.135
14171W        W84771  35.560   3.051  13.936
14172W        W84772  24.243  24.535  12.425
14173W        W84773  14.060  21.216   4.277
14174W        W84774  32.016   9.393  13.527
14175W        W84775   8.012  15.677  12.756
14176W        W84776  31.963  31.639   0.581
14177W        W84777  16.067  11.292   0.479
14178W        W84778  16.207   4.058   4.223
14179W        W84779   2.020  13.601  14.980
14180W        W84780  17.346  39.045   1.334
14181W        W84781  43.017  34.443  11.533
14182W        W84782   5.882   9.148  12.946
14183W        W84783   4.865  28.704  10.348
14184W        W84784   4.822  16.131   3.473
14185W        W84785  14.126   1.921  14.783
14186W        W84786   0.780  22.234  10.581
14187W        W84787  16.545  16.584  14.408
14188W        W84788   3.206  33.450  12.533
14189W        W84789  19.578  10.938  13.306
14190W        W84790  16.287  23.234   2.356
14191W        W84791  43.906  14.313  13.438
14192W        W84792  26.237  44.998   9.312
14193W        W84793  41.324  23.328   2.114
14194W        W84794  27.034  22.885   3.611
14195W        W84795  32.503   6.925   0.896
14196W        W84796   2.902  39.408  12.507
14197W        W84797  20.515   6.947  10.330
14198W        W84798  13.134  34.995  14.845
14199W        W84799  13.779   8.110   2.490
14200W        W84800  44.348   5.898   4.575
14201W        W84801  29.728  10.099  10.369
14202W        W84802  19.667   7.374   3.635
14203W        W84803  10.433   0.339  12.609
14204W        W84804  25.346  11.536  13.847
14205W        W84805  18.603  21.733   4.548
14206W        W84806  39.283  19.504   2.725
14207W        W84807  37.049  31.373   3.704
14208W        W84808  32.139  29.445  13.079
14209W        W84809   4.244   8.361   4.142
14210W        W84810  28.091  25.510  14.490
14211W        W84811  35.028  23.519   1.803
14212W        W84812  36.788  35.500   1.807
14213W        W84813   8.327  24.070   3.700
14214W        W84814   7.745   6.956   1.341
14215W        W84815  41.007  20.108   1.395
14216W        W84816  14.218  14.953   4.653
14217W        W84817   6.206   4.661   4.844
14218W        W84818  14.815   8.809  11.236
14219W        W84819  13.916   2.351  11.238
14220W        W84820   4.256   7.778   1.916
14221W        W84821  31.457  19.290  14.464
14222W        W84822  22.100  23.052  10.774
14223W        W84823  15.968  34.891  13.023
14224W        W84824  29.573   7.698  13.564
14225W        W84825  27.169  34.999  14.214
14226W        W84826  29.020  29.573   3.162
14227W        W84827  42.472  39.385   4.497
14228W        W84828  42.283  23.968  11.136
14229W        W84829   8.665  43.883  11.178
14230W        W84830  28.889  23.126   3.827
14231W        W84831  17.060   2.312  14.291
14232W        W84832  31.439  43.530   5.431
14233W        W84833   7.356   0.173   4.146
14234W        W84834  18.655   2.736  13.985
14235W        W84835  28.260  14.756   0.276
14236W        W84836  16.713  17.271  13.468
14237W        W84837  32.004  34.918  11.081
14238W        W84838  27.482  31.376   4.208
14239W        W84839  23.730  43.290   0.192
14240W        W84840  16.903  20.606  13.478
14241W        W84841  22.889   8.662   2.798
14242W        W84842   8.928  19.347  12.252
14243W        W84843  22.139   5.223   3.266
14244W        W84844   6.351  20.600   1.250
14245W        W84845  37.421  30.500  10.614
14246W        W84846  18.110  38.578   0.397
14247W        W84847  35.529  42.248  13.442
14248W        W84848  33.907  26.040  12.934
14249W        W84849  33.618  44.240   0.407
14250W        W84850  23.179  32.340   3.193
14251W        W84851  18.825  26.139   0.825
14252W        W84852  35.129  26.879  13.809
14253W        W84853  33.106  22.816   1.904
14254W        W84854  29.195  22.773   1.230
14255W        W84855   3.799  28.935   1.946
14256W        W84856  35.369  31.656   3.126
14257W        W84857  29.079  17.536   4.579
14258W        W84858  24.247  42.924  13.908
14259W        W84859  28.706   0.832  12.027
14260W        W84860   7.270  37.037   1.402
14261W        W84861   2.531  31.612  11.626
14262W        W84862  14.806  23.466  11.791
14263W        W84863  41.106  10.723   0.419
14264W        W84864   2.284  30.716   2.282
14265W        W84865  35.039  25.015   4.116
14266W        W84866  36.863  33.140   3.395
14267W        W84867  15.640  29.527  14.889
14268W        W84868   5.861  18.722   1.901
14269W        W84869  29.629   9.648  11.659
14270W        W84870  37.045  30.000   3.294
14271W        W84871  13.722  24.927   3.160
14272W        W84872   7.462  28.683   0.697
14273W        W84873  29.371  13.055   1.951
14274W        W84874  38.980  39.836   1.850
14275W        W84875  30.626  29.149   4.180
14276W        W84876  28.833  20.143   2.794
14277W        W84877  25.912   2.116  13.310
14278W        W84878  36.982  21.831   3.137
14279W        W84879  31.050  10.119  10.677
14280W        W84880   1.709  21.614   4.150
14281W        W84881   3.655   5.143   4.198
14282W        W84882  36.485   8.398   3.860
14283W        W84883  31.353  35.395   4.156
14284W        W84884   1.182  24.645  14.846
14285W        W84885   7.983  37.568  12.090
14286W        W84886   8.360  36.438   1.193
14287W        W84887  32.687   1.805  14.764
14288W        W84888  34.288  29.641   1.034
14289W        W84889  36.311  10.397   1.135
14290W        W84890  22.162   7.627  11.743
14291W        W84891  21.255  38.299   4.015
14292W        W84892  35.296  43.850   1.869
14293W        W84893  16.228  38.756   0.375
14294W        W84894  29.404  42.961   1.068
14295W        W84895   8.509  20.591  14.229
14296W        W84896  13.654  42.830  12.579
14297W        W84897  37.101   0.951   0.544
14298W        W84898  11.283  30.429  12.328
14299W        W84899  34.953  38.115  13.881
14300W        W84900  29.256   7.744   2.114
14301W        W84901   9.686  17.066   2.872
14302W        W84902  25.362  19.901   1.741
14303W        W84903  35.921  12.581   4.293
14304W        W84904  28.285  34.473   1.578
14305W        W84905  38.922  30.664   4.628
14306W        W84906  39.291  37.252   3.559
14307W        W84907  35.517  21.237  11.205
14308W        W84908  18.480  14.262  13.927
14309W        W84909  19.507   4.865  12.265
14310W        W84910  44.200  24.136  12.569
14311W        W84911  29.579  22.630   3.404
14312W        W84912   1.125   0.287  13.360
14313W        W84913   9.815  26.866  13.344
14314W        W84914  34.792  40.100   4.675
14315W        W84915  27.438  18.381   4.561
14316W        W84916  21.853  30.224  14.400
14317W        W84917  41.552  34.676  11.235
14318W        W84918  40.547  34.052   1.291
14319W        W84919  18.728   7.331  14.173
14320W        W84920   5.692  13.436   2.310
14321W        W84921  15.270  44.719  12.936
14322W        W84922  27.172   4.334   4.704
14323W        W84923  25.249  31.872  12.882
14324W        W84924   5.813  12.289  14.292
14325W        W84925  16.707  35.683   4.532
14326W        W84926  20.666  40.838   0.865
14327W        W84927  27.618  24.145  10.587
14328W        W84928  32.438  17.865   2.792
14329W        W84929  15.577  37.048   0.174
14330W        W84930  41.891  41.725  14.052
14331W        W84931  37.249   5.621  13.976
14332W        W84932  32.941  33.464   0.948
14333W        W84933  28.810  15.035   1.331
14334W        W84934  13.117   3.675  12.009
14335W        W84935  16.778  41.320  11.869
14336W        W84936  20.220   5.400  13.291
14337W        W84937  17.152   1.825  10.672
14338W        W84938   6.757  20.767  10.823
14339W        W84939  37.113   1.482  11.998
14340W        W84940  42.144  42.976   0.274
14341W        W84941   7.867  38.339  10.642
14342W        W84942  23.023  40.378  10.924
14343W        W84943   0.483  23.074   2.701
14344W        W84944  10.948   9.102   4.195
14345W        W84945  23.382  21.593   0.319
14346W        W84946  13.281  19.672   0.743
14347W        W84947  23.574  15.205  12.430
14348W        W84948   5.845  16.537   4.473
14349W        W84949  44.228  18.064  13.472
14350W        W84950   6.305  28.276  10.296
14351W        W84951  35.360  31.068  12.892
14352W        W84952  13.768  31.330   1.410
14353W        W84953  16.903  44.001   3.562
14354W        W84954   4.409   2.533   3.214
14355W        W84955  16.096  25.730  13.252
14356W        W84956  37.634  30.457  14.533
14357W        W84957  12.049  13.104  12.587
14358W        W84958  13.118  37.261   4.827
14359W        W84959  15.814  10.067   1.861
14360W        W84960   0.589  23.150  14.005
14361W        W84961   8.627   8.500  13.505
14362W        W84962  35.146  30.065   3.759
14363W        W84963  13.135   6.846   2.964
14364W        W84964  38.440  19.066   3.287
14365W        W84965  38.597  14.043  12.430
14366W        W84966  22.928  36.677  12.030
14367W        W84967  38.106   4.795  14.250
14368W        W84968  37.996  25.523   1.316
14369W        W84969  18.604  25.285   3.118
14370W        W84970   0.909   2.530   1.339
14371W        W84971  31.258  26.885  14.896
14372W        W84972  24.251   2.900   0.901
14373W        W84973  11.089   8.668   4.478
14374W        W84974  11.727  14.170  11.441
14375W        W84975  23.055  32.186  11.142
14376W        W84976   4.550   1.950  10.972
14377W        W84977  22.541  14.794   4.766
14378W        W84978  40.962  39.667   4.080
14379W        W84979   3.135  14.596   4.560
14380W        W84980  23.761  34.410  12.523
14381W        W84981  28.509  23.111   4.269
14382W        W84982  40.421  43.506   1.147
14383W        W84983  16.444   8.691  10.565
14384W        W84984  39.370   1.265  11.227
14385W        W84985  40.374  16.120  11.394
14386W        W84986  44.256  28.514   1.294
14387W        W84987  26.228  15.651  14.210
14388W        W84988  40.254   5.367   3.215
14389W        W84989  27.759  18.613  14.506
14390W        W84990  39.409  25.677  13.993
14391W        W84991   0.023  18.042  13.917
14392W        W84992   2.373   6.763  11.614
14393W        W84993  38.924  21.406   1.312
14394W        W84994   1.290   6.781  11.593
14395W        W84995  17.230  33.995  11.428
14396W        W84996   3.746  39.089  13.430
14397W        W84997  23.176   4.858  14.832
14398W        W84998  19.869   5.262   4.332
14399W        W84999  34.500   1.751  12.408
14400W        W85000  38.000  38.708  13.956
14401W        W85001  43.097  41.451  11.597
14402W        W85002  27.061  35.690  11.838
14403W        W85003  44.843  39.769  10.767
14404W        W85004  36.021  12.243   2.763
14405W        W85005   5.803   0.010  10.580
14406W        W85006   6.815  43.429  14.875
14407W        W85007  35.224   6.025   0.893
14408W        W85008  35.034  16.101   1.688
14409W        W85009  27.274  43.813   0.929
14410W        W85010  29.432  21.783   2.802
14411W        W85011  36.001  14.472  10.558
14412W        W85012  29.323  11.795   3.733
14413W        W85013  29.868  24.108   1.897
14414W        W85014  12.715  21.682   2.960
14415W        W85015   0.456  38.585   0.036
14416W        W85016  18.876  20.681  12.454
14417W        W85017   9.154  41.948  12.114
14418W        W85018  39.775  24.092  12.412
14419W        W85019  17.232  12.633   3.093
14420W        W85020  38.023  28.617  14.755
14421W        W85021   9.917  36.142  13.089
14422W        W85022   1.014  40.030   4.603
14423W        W85023   8.431  21.679   3.762
14424W        W85024  27.744  23.205  14.237
14425W        W85025   3.943  39.708   1.982
14426W        W85026  12.140  44.830  12.204
14427W        W85027  16.718  14.244   1.414
14428W        W85028  29.883  31.393  14.336
14429W        W85029  32.681   6.338   4.135
14430W        W85030   2.148  32.026  11.458
14431W        W85031  41.857  36.812  12.604
14432W        W85032  29.905  38.807   4.126
14433W        W85033  21.332  31.424  12.929
14434W        W85034  20.691  42.547  12.577
14435W        W85035  23.181  31.413  10.656
14436W        W85036   1.314  35.552  13.184
14437W        W85037  41.276  15.597   2.315
14438W        W85038  35.828  11.641  13.079
14439W        W85039  23.045  30.432   4.171
14440W        W85040  12.204  27.751   4.661
14441W        W85041   7.624   0.316   4.615
14442W        W85042  34.768  26.504  13.921
14443W        W85043  12.221  31.089   3.250
14444W        W85044  24.126  31.492   3.640
14445W        W85045  12.582  18.509  10.537
14446W        W85046   6.887  11.252   2.312
14447W        W85047  28.559  15.648   1.250
14448W        W85048  21.454   6.699  11.232
14449W        W85049  29.518   5.642  10.729
14450W        W85050  28.312   9.881   2.664
14451W        W85051  33.835  18.285  12.947
14452W        W85052  43.227  31.837  12.500
14453W        W85053  32.474   9.790  11.425
14454W        W85054  31.508  20.059  10.999
14455W        W85055  43.082  42.759  14.956
14456W        W85056  12.758  10.747  13.531
14457W        W85057  44.468  14.749   2.040
14458W        W85058  15.908  20.004   3.658
14459W        W85059   0.351  32.352  11.208
14460W        W85060   6.238  22.810   0.830
14461W        W85061  18.005  29.380   4.160
14462W        W85062   8.739  21.833  13.770
14463W        W85063   6.674   9.801  11.579
14464W        W85064  37.573   5.682  10.172
14465W        W85065  31.235  40.412  11.238
14466W        W85066  15.087   4.250   2.458
14467W        W85067  19.319   6.212   2.518
14468W        W85068  17.338  16.820  10.451
14469W        W85069   7.502  15.085   1.812
14470W        W85070  34.155   8.995   2.271
14471W        W85071  39.840  34.447  13.334
14472W        W85072  36.123  37.279   4.225
14473W        W85073  12.579   2.984  13.875
14474W        W85074  13.300  23.874   2.661
14475W        W85075  16.175  38.605  14.476
14476W        W85076   6.836   7.439   2.876
14477W        W85077  32.568  29.698  13.023
14478W        W85078  26.941  29.682  12.104
14479W        W85079  41.326  32.932   1.425
14480W        W85080  31.912  12.559   3.668
14481W        W85081  20.168  12.631   4.076
14482W        W85082  28.706  38.005   1.854
14483W        W85083  33.604  31.728   0.574
14484W        W85084  43.563   2.659  11.974
14485W        W85085  39.498  39.500  14.508
14486W        W85086   9.610  36.912  12.554
14487W        W85087  10.825  16.062  11.071
14488W        W85088  31.038  32.660  12.351
14489W        W85089   6.604   3.046   1.769
14490W        W85090  26.504   7.472   0.898
14491W        W85091  19.330  28.951   2.272
14492W        W85092  25.757  25.924   0.778
14493W        W85093  22.068  21.186  11.945
14494W        W85094   7.642   2.448  12.515
14495W        W85095  23.604   9.971   3.787
14496W        W85096  10.936  39.262   1.456
14497W        W85097  27.771   0.969  12.736
14498W        W85098  14.273  22.477   2.355
14499W        W85099   4.728   6.702   2.831
14500W        W85100  39.947  14.166  13.603
14501W        W85101   9.702  37.080  13.072
14502W        W85102   2.784  10.617  10.424
14503W        W85103  17.191  18.268  13.570
14504W        W85104  30.404   2.878  11.612
14505W        W85105  36.528  17.247   2.997
14506W        W85106  12.044  17.871  14.381
14507W        W85107  34.170  12.413   2.326
14508W        W85108  23.971   2.829   2.701
14509W        W85109   4.653   8.093  14.768
14510W        W85110   7.765   0.206   3.759
14511W        W85111   2.582  29.551   3.585
14512W        W85112  15.565  37.570  12.981
14513W        W85113  23.953  35.572  14.693
14514W        W85114   3.958  42.344   4.245
14515W        W85115  41.015  29.129  11.494
14516W        W85116  44.315  22.265  13.827
14517W        W85117  38.602  29.018   1.680
14518W        W85118  13.272  35.541   2.047
14519W        W85119   6.282  38.171  13.257
14520W        W85120  28.905  21.778   2.733
14521W        W85121  10.167   7.326  11.730
14522W        W85122  21.157  40.530  14.541
14523W        W85123  36.154  44.354   0.997
14524W        W85124  36.826  34.812  12.550
14525W        W85125  22.004  39.822  11.194
14526W        W85126  11.587  14.195   1.086
14527W        W85127  39.571   1.019   1.795
14528W        W85128  35.484  17.845   3.344
14529W        W85129  28.934  27.133  12.496
14530W        W85130  44.483  34.063   1.801
14531W        W85131  26.861  14.682   4.148
14532W        W85132  15.292  21.703  10.581
14533W        W85133   6.630  11.720   2.424
14534W        W85134   5.818  32.868   1.728
14535W        W85135  34.080   0.929   3.578
14536W        W85136   3.724  30.734   2.851
14537W        W85137  28.400   1.529   0.395
14538W        W85138  12.805  34.653  12.914
14539W        W85139  10.883  43.021   4.778
14540W        W85140  13.836  40.552   5.272
14541W        W85141  17.780  32.263   2.285
14542W        W85142   8.990   1.874  12.086
14543W        W85143  14.161  28.349   1.461
14544W        W85144  40.921  10.189   5.099
14545W        W85145  38.025  36.489  12.148
14546W        W85146  36.375  29.473  12.544
14547W        W85147  35.486  20.034  10.557
14548W        W85148   6.361  28.171  14.100
14549W        W85149  13.733   3.421   2.863
14550W        W85150  39.359   7.282   0.762
14551W        W85151  29.707  43.957   3.638
14552W        W85152  34.455   7.835  11.402
14553W        W85153  15.477  36.400  12.519
14554W        W85154  12.534  32.761   3.303
14555W        W85155  28.680  14.599  11.589
14556W        W85156  44.232  38.495   2.260
14557W        W85157   3.408  27.520   1.925
14558W        W85158  38.314   8.823  10.572
14559W        W85159  17.583   2.324  14.314
14560W        W85160  24.781  21.264  12.587
14561W        W85161  38.218  14.594  13.825
14562W        W85162   0.565  33.661  12.243
14563W        W85163  10.675  27.061  11.520
14564W        W85164  15.714  39.338   4.947
14565W        W85165  29.747  34.355  11.095
14566W        W85166  29.362  14.120   4.485
14567W        W85167  20.779  26.391  13.367
14568W        W85168  44.961  12.427   1.399
14569W        W85169  27.915  15.682  10.714
14570W        W85170  43.207  23.561   3.141
14571W        W85171   7.345  12.246   2.415
14572W        W85172  34.391  23.873   2.181
14573W        W85173  12.657  43.728  13.860
14574W        W85174   3.937  11.215  14.905
14575W        W85175  14.027   8.898   4.930
14576W        W85176  23.638  19.308   4.176
14577W        W85177  11.188   6.688  10.790
14578W        W85178  19.408  33.574   4.559
14579W        W85179  18.556  22.345   0.809
14580W        W85180  34.174  27.175  13.732
14581W        W85181  22.888  39.612  14.513
14582W        W85182  38.709   7.224   4.654
14583W        W85183   9.648  34.830  11.644
14584W        W85184  29.666   8.730  13.545
14585W        W85185  38.507  32.455   1.217
14586W        W85186  33.629  40.476   0.887
14587W        W85187  40.282  20.580   1.108
14588W        W85188   6.444  34.976   4.698
14589W        W85189   7.038  36.571  10.635
14590W        W85190  27.316  16.194  11.165
14591W        W85191  38.344   0.392   2.867
14592W        W85192  29.319  24.955   2.227
14593W        W85193   3.225  30.614  11.151
14594W        W85194  19.800  15.633   2.677
14595W        W85195   2.394  20.515   0.747
14596W        W85196  39.004  42.353  11.049
14597W        W85197  23.720   7.638   3.899
14598W        W85198  42.024  22.024  11.155
14599W        W85199  42.953   6.349  11.164
14600W        W85200   2.775  13.633   1.152
14601W        W85201  20.646  30.010   0.281
14602W        W85202  10.362   3.845  10.741
14603W        W85203   7.366  13.208   1.468
14604W        W85204  25.002  34.630  12.966
14605W        W85205  40.639  26.560   9.897
14606W        W85206  25.580  34.290  14.520
14607W        W85207  25.730  32.632   3.380
14608W        W85208   8.345  34.436  10.866
14609W        W85209   0.591  40.406   1.771
14610W        W85210  11.190   0.457   1.182
14611W        W85211  10.095  35.400   1.257
14612W        W85212  31.283  17.814   3.471
14613W        W85213   0.037  14.183  11.688
14614W        W85214  27.679  28.980   0.985
14615W        W85215  25.652  39.954  12.503
14616W        W85216  12.340   5.275  11.535
14617W        W85217   6.956  37.373   1.691
14618W        W85218  42.776  29.476   3.199
14619W        W85219  42.905  35.324  12.012
14620W        W85220  34.048  40.876   4.169
14621W        W85221   0.856   7.246   0.635
14622W        W85222   5.399  41.366  14.721
14623W        W85223  35.120  10.273   0.374
14624W        W85224  16.795  31.651  13.504
14625W        W85225  15.121  13.404  13.322
14626W        W85226  25.890   3.412   3.612
14627W        W85227  32.199  17.862  12.135
14628W        W85228  31.038  21.465  13.978
14629W        W85229  43.900   4.135  10.512
14630W        W85230  30.450   7.962  13.900
14631W        W85231   5.242  40.044  11.028
14632W        W85232  18.100  31.868   3.232
14633W        W85233  29.533   8.417  12.903
14634W        W85234  44.288   2.378   4.071
14635W        W85235   0.226  39.443  14.534
14636W        W85236  15.934  25.650   3.595
14637W        W85237  16.222  23.237  10.590
14638W        W85238  12.945   4.149   4.163
14639W        W85239  17.580  39.471   3.923
14640W        W85240  35.594   5.459  12.509
14641W        W85241  28.853  19.733   3.144
14642W        W85242  33.303  36.389  11.269
14643W        W85243  18.218  27.457   0.782
14644W        W85244  40.280  42.110  11.657
14645W        W85245  30.130  38.066  10.120
14646W        W85246  13.827  10.077  11.420
14647W        W85247  39.442  34.894  12.098
14648W        W85248  23.214  15.145   1.734
14649W        W85249  20.164  36.101   4.568
14650W        W85250   5.438  21.637   2.686
14651W        W85251  10.111  44.359  14.985
14652W        W85252  23.097   2.968  14.523
14653W        W85253  41.053  38.908  10.686
14654W        W85254  38.460   2.758  12.303
14655W        W85255  16.305  32.951  14.814
14656W        W85256   0.987  10.302  10.711
14657W        W85257  41.501   8.345  10.623
14658W        W85258  15.248   1.880   4.081
14659W        W85259  16.019  21.702   1.845
14660W        W85260  24.973  21.723  10.514
14661W        W85261  18.320  26.408   1.704
14662W        W85262  22.795  18.197   1.001
14663W        W85263  33.057  43.905  13.568
14664W        W85264  36.500  11.727  14.367
14665W        W85265  14.052  44.771   1.869
14666W        W85266   6.655  38.642   2.265
14667W        W85267   1.745   7.508   4.601
14668W        W85268  41.588  14.188   4.038
14669W        W85269  40.165   3.346  10.120
14670W        W85270  37.536  25.398   0.737
14671W        W85271   2.843  42.887   1.952
14672W        W85272  42.507   8.216   0.889
14673W        W85273  14.751  19.686   0.885
14674W        W85274  42.709  23.050   1.933
14675W        W85275   8.223  23.724  12.328
14676W        W85276  10.943  19.533   2.745
14677W        W85277  39.035  40.823   0.721
14678W        W85278  20.291  31.411  12.044
14679W        W85279  27.975  21.653   4.019
14680W        W85280  35.795  27.960  10.576
14681W        W85281  13.750  34.530  11.892
14682W        W85282  25.704  15.639  14.370
14683W        W85283  23.175  23.143  13.444
14684W        W85284  39.986   1.901   3.175
14685W        W85285   3.245   4.002   2.215
14686W        W85286  27.199   6.367  14.890
14687W        W85287  43.090  39.913   3.706
14688W        W85288   0.380  40.256  11.184
14689W        W85289  32.909   9.103  10.798
14690W        W85290  24.789   1.791  14.803
14691W        W85291  44.840  43.511  11.083
14692W        W85292  18.323  31.473   2.010
14693W        W85293   9.175   5.562   4.618
14694W        W85294  18.606  17.554   0.453
14695W        W85295  32.025   6.851   3.030
14696W        W85296   2.926  37.815  11.083
14697W        W85297  44.137  26.408   0.227
14698W        W85298   7.179  14.778   0.893
14699W        W85299  34.783   5.869  13.784
14700W        W85300  15.737  42.006   3.173
14701W        W85301  13.336  28.852   1.806
14702W        W85302   6.908  28.700  11.011
14703W        W85303  12.614  24.469  13.381
14704W        W85304  31.603  28.071  12.203
14705W        W85305  19.860  32.821  10.685
14706W        W85306  29.034  32.487  13.771
14707W        W85307  37.325  24.418   0.737
14708W        W85308  34.060  10.826   1.892
14709W        W85309  30.852  34.911   2.712
14710W        W85310  32.830  15.321   0.883
14711W        W85311  40.662  19.008  12.395
14712W        W85312   3.980  28.589   4.132
14713W        W85313  14.621  17.093  12.459
14714W        W85314  44.342  39.776  10.518
14715W        W85315  35.266  32.360   3.849
14716W        W85316   4.610  11.649  13.556
14717W        W85317   9.156  41.094   2.629
14718W        W85318  29.154  18.215   4.132
14719W        W85319  40.547   4.002   0.395
14720W        W85320  18.839  15.761   3.873
14721W        W85321  24.530  14.490   1.424
14722W        W85322   1.316  41.143  13.912
14723W        W85323  30.601   3.156  10.766
14724W        W85324  27.107  39.746   2.262
14725W        W85325  10.028  35.369  13.378
14726W        W85326  26.188  29.105  12.472
14727W        W85327  14.481  42.398  13.437
14728W        W85328  37.487  18.004   3.518
14729W        W85329  15.975  41.500   1.842
14730W        W85330  44.247  21.991   2.745
14731W        W85331  23.739   6.355  13.981
14732W        W85332  42.792   3.599   1.381
14733W        W85333  40.917   7.962  11.954
14734W        W85334   6.993  41.292  10.996
14735W        W85335   8.864  11.152  11.261
14736W        W85336  33.981  31.467  12.827
14737W        W85337  42.771  10.235  10.378
14738W        W85338  44.617   1.405  11.912
14739W        W85339  37.011  32.664   4.240
14740W        W85340   1.384  34.361   2.718
14741W        W85341  44.124  36.754   1.756
14742W        W85342  18.032  41.512   1.788
14743W        W85343  41.935  12.307   2.897
14744W        W85344  26.680  30.238  13.426
14745W        W85345  43.847  34.103  11.936
14746W        W85346  44.060   8.842   2.895
14747W        W85347  34.845  42.324   4.539
14748W        W85348  29.980  35.474  13.561
14749W        W85349  44.540  22.892   1.129
14750W        W85350  23.784   8.768   3.091
14751W        W85351  15.589  30.878  12.913
14752W        W85352  28.544  32.581   0.281
14753W        W85353   6.201   0.787  13.006
14754W        W85354  22.993  25.347   1.866
14755W        W85355  26.019   0.735   1.465
14756W        W85356  29.499  19.237  12.129
14757W        W85357  42.503  10.872  11.093
14758W        W85358  32.869  11.670   4.031
14759W        W85359   2.640   0.386   1.517
14760W        W85360   1.650   4.331   0.461
14761W        W85361  28.642  42.940  14.862
14762W        W85362  37.144   8.182   2.648
14763W        W85363  42.904   7.166  11.475
14764W        W85364  37.430  23.014  11.947
14765W        W85365  15.773  26.575  12.412
14766W        W85366   5.206  39.151   2.689
14767W        W85367  25.333   7.264   1.928
14768W        W85368  33.855  34.557   1.850
14769W        W85369   9.974  16.583  12.448
14770W        W85370  32.064  38.275  13.364
14771W        W85371   7.457  41.898  12.859
14772W        W85372  38.445  28.620   1.387
14773W        W85373  18.608  10.586  13.378
14774W        W85374  33.067  26.188   1.357
14775W        W85375  42.073  36.352   0.393
14776W        W85376  32.101  38.791  12.099
14777W        W85377  11.206  14.847  14.923
14778W        W85378  18.826  19.271   1.425
14779W        W85379  24.186  26.505  12.039
14780W        W85380  13.724  13.908   0.359
14781W        W85381  40.937  43.441   1.120
14782W        W85382  15.031  17.392  10.466
14783W        W85383  38.005  38.303   2.603
14784W        W85384  36.957  39.457   1.451
14785W        W85385  21.177  12.189  13.015
14786W        W85386   4.551   7.022   2.469
14787W        W85387  20.068  14.342   4.951
14788W        W85388  25.556  32.701   1.290
14789W        W85389  22.060   2.286   0.905
14790W        W85390  25.584  31.923   2.689
14791W        W85391   4.061  38.904   0.122
14792W        W85392   2.296   5.838   0.905
14793W        W85393  14.548  31.140  12.133
14794W        W85394  13.213  37.965   2.870
14795W        W85395  40.639  27.130   0.943
14796W        W85396   9.499  39.534  13.323
14797W        W85397  25.090   0.320   5.407
14798W        W85398  42.602  19.775  11.085
14799W        W85399  34.776  16.195  14.556
14800W        W85400  43.404  12.357  14.795
14801W        W85401  38.362  11.413  14.764
14802W        W85402  18.440  29.063  14.833
14803W        W85403  14.129   5.735  11.466
14804W        W85404  13.828  36.647   4.742
14805W        W85405  31.924  38.945   2.260
14806W        W85406  31.603  28.957   3.288
14807W        W85407  13.152  11.318   4.789
14808W        W85408   2.370  33.938  13.171
14809W        W85409  40.362  23.755  12.000
14810W        W85410   0.390  26.887  12.343
14811W        W85411  44.449  34.592  13.948
14812W        W85412  43.857   2.750  11.563
14813W        W85413  37.901   3.254   2.236
14814W        W85414  24.884   2.418   3.759
14815W        W85415  13.431   3.871  12.412
14816W        W85416  43.936  41.255  12.981
14817W        W85417  19.411  10.804   3.828
14818W        W85418  32.617  20.320  12.505
14819W        W85419   2.033  42.455  13.385
14820W        W85420  28.620  31.226  11.384
14821W        W85421  29.052   6.919   4.566
14822W        W85422  41.016   6.062  12.631
14823W        W85423  27.436   0.250  11.526
14824W        W85424   2.810  22.094   3.083
14825W        W85425  16.669   9.367  14.544
14826W        W85426   4.533  17.379   1.843
14827W        W85427  15.766  16.560   1.155
14828W        W85428  32.980  19.321   2.672
14829W        W85429  24.709  13.364  11.451
14830W        W85430  39.490  16.576   4.242
14831W        W85431  11.655  44.702  12.350
14832W        W85432  13.023  31.138   0.735
14833W        W85433  33.551  34.434   0.491
14834W        W85434  36.041  25.455  14.869
14835W        W85435  37.211  21.222   2.362
14836W        W85436  14.699  19.034  14.431
14837W        W85437   7.406   4.614   1.329
14838W        W85438   1.260  35.573  12.684
14839W        W85439  28.971  19.574   0.332
14840W        W85440  43.431   2.195   4.227
14841W        W85441  35.500  12.076   2.362
14842W        W85442  38.111  44.215   1.743
14843W        W85443  36.616  24.961  11.602
14844W        W85444   9.178  16.111   3.661
14845W        W85445  21.001  31.930   2.973
14846W        W85446  14.368   2.701   0.839
14847W        W85447   9.628   6.840  11.575
14848W        W85448  34.546  11.710  13.894
14849W        W85449  39.107  17.062  13.516
14850W        W85450  18.330  35.723   2.223
14851W        W85451   3.454  32.864  11.974
14852W        W85452  35.773  18.503  13.847
14853W        W85453   5.325  28.467  14.427
14854W        W85454  18.355  24.209   2.777
14855W        W85455  28.689  10.145   2.332
14856W        W85456  38.344   8.837  13.057
14857W        W85457   0.777   0.719   1.099
14858W        W85458  41.556  25.173  13.784
14859W        W85459  21.280  36.433   0.821
14860W        W85460   5.357  12.664   3.801
14861W        W85461  33.890   0.705  13.078
14862W        W85462  19.598  20.674   2.794
14863W        W85463  23.121  20.635   5.028
14864W        W85464   5.503  36.541   1.607
14865W        W85465  36.822   4.922  12.648
14866W        W85466  12.177   0.961  13.477
14867W        W85467  24.560   8.118  14.626
14868W        W85468  24.181  34.113   0.323
14869W        W85469   8.086  30.603   4.899
14870W        W85470   7.267   0.954  14.272
14871W        W85471  22.753  37.401  14.687
14872W        W85472   9.772  28.201   0.818
14873W        W85473  14.196  44.327  14.394
14874W        W85474  34.969   4.807   3.333
14875W        W85475  32.683  27.919   0.627
14876W        W85476  10.271  36.390   2.792
14877W        W85477  25.633  33.866  13.116
14878W        W85478   3.382   3.153  13.016
14879W        W85479  17.135   8.869   3.390
14880W        W85480   3.723  33.596  13.166
14881W        W85481  28.135  20.755   0.366
14882W        W85482  20.122  41.769   4.735
14883W        W85483  16.137  28.206  10.769
14884W        W85484   9.908   9.954   3.414
14885W        W85485  38.354  39.651  11.015
14886W        W85486  23.545  10.597   1.964
14887W        W85487  25.828  26.130   3.694
14888W        W85488  12.293   0.457  13.522
14889W        W85489  44.673   1.453   1.705
14890W        W85490   7.917  39.842   3.770
14891W        W85491  26.682  10.608   3.862
14892W        W85492  14.386  13.706   1.298
14893W        W85493  44.997   7.345   2.160
14894W        W85494   0.661  31.899  10.258
14895W        W85495  26.202  24.410   0.779
14896W        W85496  20.799  16.742  12.452
14897W        W85497  23.530   5.831   4.489
14898W        W85498   3.656  32.151  14.406
14899W        W85499  19.235  22.595   0.023
14900W        W85500   3.725  32.378  13.725
14901W        W85501   3.305   7.328   2.699
14902W        W85502  44.531  28.307  10.696
14903W        W85503  29.963   7.456  10.550
14904W        W85504  35.527  28.949   1.486
14905W        W85505  10.655   5.651   1.313
14906W        W85506  14.087  15.150  10.579
14907W        W85507  26.723  39.828  12.481
14908W        W85508  18.373  17.760  11.582
14909W        W85509   4.453  21.357   1.732
14910W        W85510   7.435   7.480   4.730
14911W        W85511   9.270  18.056  13.835
14912W        W85512  40.617  11.323  13.831
14913W        W85513  14.149  26.923  14.939
14914W        W85514  40.406  10.512  12.714
14915W        W85515  34.970  10.454  11.096
14916W        W85516   5.839  42.395   4.889
14917W        W85517   0.941  35.494   4.528
14918W        W85518  32.402  11.062  14.394
14919W        W85519   3.929  25.232   0.015
14920W        W85520  31.050   3.353  13.861
14921W        W85521  15.766  37.616  11.559
14922W        W85522  41.622  17.874   0.207
14923W        W85523  16.774   1.379   3.088
14924W        W85524  22.965  19.840   1.463
14925W        W85525  42.397  11.748  10.719
14926W        W85526   7.498  24.496   2.109
14927W        W85527  15.493   5.984  14.516
14928W        W85528  32.458  28.392  11.227
14929W        W85529  43.790  33.710   1.850
14930W        W85530  16.275  13.253  12.416
14931W        W85531  39.605  44.419   0.257
14932W        W85532  42.013   3.050   4.125
14933W        W85533  44.323  14.657   1.183
14934W        W85534  44.997  28.688  14.427
14935W        W85535  18.386   7.679  14.036
14936W        W85536  34.538  29.042  10.711
14937W        W85537  28.505  31.200  14.244
14938W        W85538  34.655   8.216   1.488
14939W        W85539  42.145  13.313  13.351
14940W        W85540  23.341   3.352  14.798
14941W        W85541  18.542  20.119  11.123
14942W        W85542  36.750  31.943   1.459
14943W        W85543   1.552  21.300   0.027
14944W        W85544   4.725  30.446   2.683
14945W        W85545  43.362  20.341  10.731
14946W        W85546  27.751  24.418   4.060
14947W        W85547   4.439  36.323  13.272
14948W        W85548   6.158  43.469   3.720
14949W        W85549   7.622  27.135  13.762
14950W        W85550   2.200  41.065   3.195
14951W        W85551  25.015  15.167  11.780
14952W        W85552   9.795   1.867   2.258
14953W        W85553  33.982  16.584  14.719
14954W        W85554   5.802  24.941  12.139
14955W        W85555   5.767  31.626  13.557
14956W        W85556   2.387  13.125   1.643
14957W        W85557  44.533   7.295  10.214
14958W        W85558  12.114   9.897   3.875
14959W        W85559   9.843  33.133  12.076
14960W        W85560   4.852   2.420  13.935
14961W        W85561  43.971   0.668  13.486
14962W        W85562   8.746  22.603  11.515
14963W        W85563  23.149   0.999   0.351
14964W        W85564  34.489  11.194   1.327
14965W        W85565  36.452  23.398  10.684
14966W        W85566  10.295  18.641  11.820
14967W        W85567  17.989  37.079  12.463
14968W        W85568  13.575  25.495   1.844
14969W        W85569  35.072   3.679   0.408
14970W        W85570  13.033   1.035   3.344
14971W        W85571  27.685  23.975  14.508
14972W        W85572  32.388   2.947   4.709
14973W        W85573  14.734   5.924  12.125
14974W        W85574   0.312  19.278   4.307
14975W        W85575  19.321  29.477  14.932
14976W        W85576  43.793  30.318   2.393
14977W        W85577  43.588  14.287  13.825
14978W        W85578  23.834  40.679  11.452
14979W        W85579   3.413  41.498  11.389
14980W        W85580   2.371   6.114   5.101
14981W        W85581  40.891  20.631  11.603
14982W        W85582   3.728   4.250   0.909
14983W        W85583  16.378   7.660   3.758
14984W        W85584   4.211  38.563   3.302
14985W        W85585  14.821  37.072  13.911
14986W        W85586  41.830  10.627   3.797
14987W        W85587  12.528  17.509  12.094
14988W        W85588  37.140  35.310   3.255
14989W        W85589  35.065  12.357   2.249
14990W        W85590   7.118  12.941  14.929
14991W        W85591  44.764  12.224  14.086
14992W        W85592  11.610  36.188  14.341
14993W        W85593   8.675  27.068   3.274
14994W        W85594  16.479  32.005   4.530
14995W        W85595  27.567  41.479   3.720
14996W        W85596  17.449  25.982  13.523
14997W        W85597  24.412  25.724   1.744
14998W        W85598  10.663  34.681   3.744
14999W        W85599   8.223  27.604   1.648
15000W        W85600  24.765  15.040  11.120
15001W        W85601  39.484  23.583  11.642
15002W        W85602  25.638   9.868   3.695
15003W        W85603  37.831  14.906   4.599
15004W        W85604  22.904   6.268   4.818
15005W        W85605   1.716  16.157   4.053
15006W        W85606  34.573  40.576   4.613
15007W        W85607  11.265   8.177   4.399
15008W        W85608  41.343  26.388   1.882
15009W        W85609  10.871  40.996   4.402
15010W        W85610  11.870  32.915  11.970
15011W        W85611  14.867  26.762   2.803
15012W        W85612  10.910  32.462  14.245
15013W        W85613  21.473  31.068   1.372
15014W        W85614   0.768  28.450   0.156
15015W        W85615  28.619  11.458  14.896
15016W        W85616  16.815  20.762  11.247
15017W        W85617   1.756  19.835   1.309
15018W        W85618   5.388   1.016   3.049
15019W        W85619  37.838   3.329   1.328
15020W        W85620  32.626   6.765  11.330
15021W        W85621  39.514  33.871   3.678
15022W        W85622   4.485   2.866  11.481
15023W        W85623   9.386   7.789  11.510
15024W        W85624   7.654  42.477   3.385
15025W        W85625  34.976  38.156   0.912
15026W        W85626  27.721  43.988   4.188
15027W        W85627  20.261   7.694   2.748
15028W        W85628  22.385   7.200  13.614
15029W        W85629  13.698   2.037   0.876
15030W        W85630  22.571  24.211   2.897
15031W        W85631  36.531  21.490   4.212
15032W        W85632  20.368  17.841   4.599
15033W        W85633  14.110  25.248   4.136
15034W        W85634  34.966   3.451  10.714
15035W        W85635   8.910  39.997   3.581
15036W        W85636   8.385  17.271  10.321
15037W        W85637  26.626  10.743   2.943
15038W        W85638  22.006  15.144   1.080
15039W        W85639  40.373  42.570   2.757
15040W        W85640  32.438  28.979  10.655
15041W        W85641  27.246   4.604  11.927
15042W        W85642  15.131  39.917  10.296
15043W        W85643  16.053  37.888  13.412
15044W        W85644  40.624  18.113  13.868
15045W        W85645  39.541   2.359  10.747
15046W        W85646  17.044  42.389   4.770
15047W        W85647  35.132  34.358   2.935
15048W        W85648  30.687   0.302   1.011
15049W        W85649  15.994  42.464   3.336
15050W        W85650  20.043  14.164   2.911
15051W        W85651  42.905   5.872   2.778
15052W        W85652   4.536  13.064  11.728
15053W        W85653   1.279  30.463  11.441
15054W        W85654  17.724  12.366  14.245
15055W        W85655  36.673  15.198   1.729
15056W        W85656  36.976   0.541  13.585
15057W        W85657  25.494   7.438  14.621
15058W        W85658  12.453  16.918   4.163
15059W        W85659  44.779  12.927   1.257
15060W        W85660  16.690  39.445  12.473
15061W        W85661  32.150   7.035  10.650
15062W        W85662  24.970  31.194  14.478
15063W        W85663   3.503  42.130  13.560
15064W        W85664  16.801   7.384  11.161
15065W        W85665   3.661  35.958   3.535
15066W        W85666  43.229   1.881   0.208
15067W        W85667  26.878  13.102  13.769
15068W        W85668   6.566  30.820  12.344
15069W        W85669  37.006  18.766   0.244
15070W        W85670  31.115  15.327  11.491
15071W        W85671  23.193  11.098   5.654
15072W        W85672  10.507  34.049  12.302
15073W        W85673  25.989  43.772  13.470
15074W        W85674  44.896   6.544  14.966
15075W        W85675  15.453  28.683  14.892
15076W        W85676  34.921  35.135  12.379
15077W        W85677   9.126  16.955  14.944
15078W        W85678   8.935  24.989   1.424
15079W        W85679  25.695  39.514  14.922
15080W        W85680  18.763  22.814  14.942
15081W        W85681  36.617  11.169  13.076
15082W        W85682  36.950  40.230  13.795
15083W        W85683   3.726  32.204  12.686
15084W        W85684  14.797  29.017   1.823
15085W        W85685  37.913   4.727   3.243
15086W        W85686  15.387  25.787   2.105
15087W        W85687  22.010  43.534   1.895
15088W        W85688  29.229  38.455   3.616
15089W        W85689  35.689  38.574   1.375
15090W        W85690  44.702  21.785   2.365
15091W        W85691  33.118  35.835  14.399
15092W        W85692  13.992  42.772  10.726
15093W        W85693  29.736  25.192  10.078
15094W        W85694  26.950  29.071   2.255
15095W        W85695  11.251  21.718  14.780
15096W        W85696  12.603  21.208  11.259
15097W        W85697  13.546  21.598  11.007
15098W        W85698  28.333  14.278   2.571
15099W        W85699  18.097  31.199  13.786
15100W        W85700  17.767  33.663  12.998
15101W        W85701  44.924  14.699   0.013
15102W        W85702  18.797   9.281  14.290
15103W        W85703   6.224   2.326   2.340
15104W        W85704  19.984  31.572  11.189
15105W        W85705  30.920  29.288  12.091
15106W        W85706   6.317  30.379  11.215
15107W        W85707  18.084  20.150  11.869
15108W        W85708  36.907  40.316   4.023
15109W        W85709  32.107   0.815  14.784
15110W        W85710   9.326  28.220   1.695
15111W        W85711  11.626  43.937  11.402
15112W        W85712  33.630  42.760   2.821
15113W        W85713  44.029  33.716  10.574
15114W        W85714  20.707  15.198  12.872
15115W        W85715   8.173   6.788  10.719
15116W        W85716  29.479   8.720  10.818
15117W        W85717  22.177   9.238   2.221
15118W        W85718   0.766  14.004  10.667
15119W        W85719  28.557  14.233  12.906
15120W        W85720  36.871   0.868   3.186
15121W        W85721   6.746  43.355  13.945
15122W        W85722   5.697  27.054   0.350
15123W        W85723  39.753  37.001   0.856
15124W        W85724   0.524   4.750  12.372
15125W        W85725   5.498  28.686  13.935
15126W        W85726  13.711  26.673   4.315
15127W        W85727  31.921   7.294  10.252
15128W        W85728  37.415  32.529  12.983
15129W        W85729  35.131  20.422  13.251
15130W        W85730  29.668   0.315  13.085
15131W        W85731  24.113  20.854   3.282
15132W        W85732  10.399  37.381   2.423
15133W        W85733  31.929  10.108   4.793
15134W        W85734  25.473   2.218  12.465
15135W        W85735  37.275  21.162   3.605
15136W        W85736  32.086   9.768  12.974
15137W        W85737  30.110  39.352   1.356
15138W        W85738  15.930  31.316  10.244
15139W        W85739  15.934   0.106  13.860
15140W        W85740  36.083  39.811   1.932
15141W        W85741  10.977  24.629  12.573
15142W        W85742  27.484  44.545   1.350
15143W        W85743   5.738  37.375   3.823
15144W        W85744   0.536  33.739  13.788
15145W        W85745  40.762   3.581   2.481
15146W        W85746  28.033  10.818   1.189
15147W        W85747  27.148  20.766   2.331
15148W        W85748  43.573  14.738   0.708
15149W        W85749  21.713  35.537   4.214
15150W        W85750  33.432  13.033  11.151
15151W        W85751   1.224   2.862   4.671
15152W        W85752  27.539   1.679  14.457
15153W        W85753  24.670  12.847  13.334
15154W        W85754  29.670   0.789   3.732
15155W        W85755   2.370  20.600   3.147
15156W        W85756   0.542  35.959  14.268
15157W        W85757  26.052  31.511   0.351
15158W        W85758  24.525  24.396  14.169
15159W        W85759  22.995  42.755   3.272
15160W        W85760  21.574  16.346   4.681
15161W        W85761  33.075   8.469   1.762
15162W        W85762  27.084  31.079   4.641
15163W        W85763  24.624  21.041  10.696
15164W        W85764  26.159  25.425   3.847
15165W        W85765   8.287   7.284   4.808
15166W        W85766   9.789  11.103  11.130
15167W        W85767  12.820  25.447   2.325
15168W        W85768   0.796  23.699  14.589
15169W        W85769  26.253   7.420   0.411
15170W        W85770   9.255  11.199  13.114
15171W        W85771  38.350   7.658  10.666
15172W        W85772  39.851   0.340   4.851
15173W        W85773  22.017  13.842   1.769
15174W        W85774  14.570  12.046  11.092
15175W        W85775  20.648  33.845   4.660
15176W        W85776  36.586  15.885   2.137
15177W        W85777  16.175  24.044   4.375
15178W        W85778   1.815  37.292   1.905
15179W        W85779  39.870  31.376  13.841
15180W        W85780  20.598  22.599  11.944
15181W        W85781   5.355   9.174  13.019
15182W        W85782  29.540  33.978  12.603
15183W        W85783  23.344  23.554   1.161
15184W        W85784  32.230  36.336   4.479
15185W        W85785  35.052   3.897  12.828
15186W        W85786   5.345  17.041   0.397
15187W        W85787  29.654  31.347   3.861
15188W        W85788  10.052  43.611   1.279
15189W        W85789  41.826  37.289  14.439
15190W        W85790  36.607  19.998   1.886
15191W        W85791  16.830  10.169   3.218
15192W        W85792   8.904  20.200  14.831
15193W        W85793  44.769  26.562   3.648
15194W        W85794  35.504  35.484   0.510
15195W        W85795  43.998  40.956  10.667
15196W        W85796  43.105  37.189   5.025
15197W        W85797  29.321  35.808   2.330
15198W        W85798  16.506   3.895  13.591
15199W        W85799  28.637  10.965  14.964
15200W        W85800   2.254  44.353  11.700
15201W        W85801  27.590  13.856   2.405
15202W        W85802  21.999  28.865   3.333
15203W        W85803  12.748  13.132  11.492
15204W        W85804  30.574  42.861   1.524
15205W        W85805  11.639  15.184  14.297
15206W        W85806  37.892   5.310   2.985
15207W        W85807  24.575   9.512  11.429
15208W        W85808   5.767  17.852   0.361
15209W        W85809   6.803  17.293   1.357
15210W        W85810  32.126  36.868   1.898
15211W        W85811  11.083   4.951   1.729
15212W        W85812  23.019   5.757   4.640
15213W        W85813  12.819  28.482  11.056
15214W        W85814  37.393  25.302  14.739
15215W        W85815  30.655  18.576   2.548
15216W        W85816  36.808  19.090   2.758
15217W        W85817  14.223  32.011  10.255
15218W        W85818  38.864  18.716  11.067
15219W        W85819   7.300  35.334  11.122
15220W        W85820  26.193   2.869  10.687
15221W        W85821   3.383  10.416  13.953
15222W        W85822  39.042  10.183  10.769
15223W        W85823  26.967  33.356  10.416
15224W        W85824  34.946  39.580  12.973
15225W        W85825   0.054  25.976  10.630
15226W        W85826   9.894  18.724   2.858
15227W        W85827  21.075   4.872   0.077
15228W        W85828  21.136  37.698  14.341
15229W        W85829  17.482  35.823  12.590
15230W        W85830  19.748  24.656   2.651
15231W        W85831   4.215  41.312   4.378
15232W        W85832   4.923  21.563   0.007
15233W        W85833   6.396  44.866  14.316
15234W        W85834  33.401  22.937  11.262
15235W        W85835  22.186  22.232   4.192
15236W        W85836  13.124  41.844  14.864
15237W        W85837  44.224   0.497  14.039
15238W        W85838  23.607  41.890   3.971
15239W        W85839  37.009  32.701  14.733
15240W        W85840   3.899  43.976  14.827
15241W        W85841  38.760  14.372  13.043
15242W        W85842  27.476  41.756   0.780
15243W        W85843  32.310  44.769  12.025
15244W        W85844   3.276  21.696   4.689
15245W        W85845  28.486  21.644   0.445
15246W        W85846  23.717  34.050  12.110
15247W        W85847  16.550  23.684  12.954
15248W        W85848   1.941  12.676  13.952
15249W        W85849  42.371  36.849  10.927
15250W        W85850  26.427  22.148  11.223
15251W        W85851   6.595  27.370   3.613
15252W        W85852  38.391  28.106  13.893
15253W        W85853   1.690   3.807   2.941
15254W        W85854  12.147  25.172  11.338
15255W        W85855  16.021  17.392  11.014
15256W        W85856  42.850  17.784   2.286
15257W        W85857  14.118  43.331   3.610
15258W        W85858  11.893  14.632   1.213
15259W        W85859   1.977  37.714  13.151
15260W        W85860  11.413  16.565   1.804
15261W        W85861   2.068  27.155  13.455
15262W        W85862  28.998  29.362  14.454
15263W        W85863   4.809  11.875   2.121
15264W        W85864  24.072  23.695   4.235
15265W        W85865  33.112  19.050   4.244
15266W        W85866  34.380  11.116   3.235
15267W        W85867  35.127  25.701  10.414
15268W        W85868   4.717   7.699  13.857
15269W        W85869  27.006  25.929  12.054
15270W        W85870  18.469  37.890  10.608
15271W        W85871  10.744  33.509  10.771
15272W        W85872  42.301  21.514   2.284
15273W        W85873  11.440  27.919  14.518
15274W        W85874   3.256  14.703  14.471
15275W        W85875  31.113   3.302  10.681
15276W        W85876  33.169  22.179   1.177
15277W        W85877  41.416  21.007  12.442
15278W        W85878  28.401  28.861  12.083
15279W        W85879  15.112  15.209   3.933
15280W        W85880  40.868  18.356  13.457
15281W        W85881  34.549   9.708  11.156
15282W        W85882  14.015  20.021   2.449
15283W        W85883  21.797   1.199  13.481
15284W        W85884  30.906  33.949  11.507
15285W        W85885  26.370  31.138  13.505
15286W        W85886  22.149  25.347   0.562
15287W        W85887  35.509  30.363  12.856
15288W        W85888  37.116  21.687   0.521
15289W        W85889  23.036  39.028   2.700
15290W        W85890  17.629  38.878  12.421
15291W        W85891   1.959   1.956   2.391
15292W        W85892  42.010  30.015   3.289
15293W        W85893  20.544   9.373   5.110
15294W        W85894  42.545   5.966  13.821
15295W        W85895  40.822  20.579   4.099
15296W        W85896   6.245  18.115   0.366
15297W        W85897   8.382  12.799  12.762
15298W        W85898  33.879  20.528   1.499
15299W        W85899  30.463  29.000   4.676
15300W        W85900  27.423  20.672   1.745
15301W        W85901  21.921  17.013   3.802
15302W        W85902  31.294  44.406  14.417
15303W        W85903  37.145  36.830  12.683
15304W        W85904  28.738  38.615  12.587
15305W        W85905  24.508  29.710  10.862
15306W        W85906  18.757  24.030   0.450
15307W        W85907   9.835  41.280   3.765
15308W        W85908  11.855  10.405  11.561
15309W        W85909   1.346  38.206   4.686
15310W        W85910  34.201  19.508   2.745
15311W        W85911  35.582  18.538  13.366
15312W        W85912  12.686  30.370   3.236
15313W        W85913   9.281  35.923  10.571
15314W        W85914   8.233  29.394  10.629
15315W        W85915  29.692  34.011  11.686
15316W        W85916   6.367  13.030  11.696
15317W        W85917   0.503   4.953   2.271
15318W        W85918   6.588  29.999   4.983
15319W        W85919  28.340  29.528  13.000
15320W        W85920  27.461   0.484  14.085
15321W        W85921  43.303  15.569   1.948
15322W        W85922  33.380  14.546  11.118
15323W        W85923  40.297  28.481  11.115
15324W        W85924  43.692  14.974   2.016
15325W        W85925  13.593   7.375  12.897
15326W        W85926   3.540  34.917   0.523
15327W        W85927  38.567  10.373   3.617
15328W        W85928  23.791  40.029   4.225
15329W        W85929  35.324  37.603  11.599
15330W        W85930  36.529  31.021   3.830
15331W        W85931  44.200  27.013   2.195
15332W        W85932  34.104   7.249  13.264
15333W        W85933   9.726  44.538  12.995
15334W        W85934  35.554  34.621   2.788
15335W        W85935  42.090  35.439  11.642
15336W        W85936   2.933  34.108   0.072
15337W        W85937  30.578  36.673   3.124
15338W        W85938  17.038  32.512   1.751
15339W        W85939  16.237  27.526   2.863
15340W        W85940  36.026   0.350  13.921
15341W        W85941  16.848  29.714  14.480
15342W        W85942  24.347   0.679  11.371
15343W        W85943  19.999  14.057  11.199
15344W        W85944   1.343   1.843   2.804
15345W        W85945  19.654  15.096   1.890
15346W        W85946   7.774   6.200   4.459
15347W        W85947   4.682  21.959  11.562
15348W        W85948  41.522   9.165   4.704
15349W        W85949  10.225  37.128  12.981
15350W        W85950  17.522  36.307  13.939
15351W        W85951  41.059  25.284  11.623
15352W        W85952  44.914  10.168  10.769
15353W        W85953  40.569  16.936  14.886
15354W        W85954   4.854  29.682   0.553
15355W        W85955  42.030  18.262   0.303
15356W        W85956   6.636  29.484  12.585
15357W        W85957  18.225  44.770   3.911
15358W        W85958  23.285   1.527   1.331
15359W        W85959  24.674   6.802  11.229
15360W        W85960   1.320  28.186   4.576
15361W        W85961  24.698  39.369   1.876
15362W        W85962  32.929  22.257  12.485
15363W        W85963  33.120  23.284   0.831
15364W        W85964  41.441  17.270  12.521
15365W        W85965   4.799   8.218  10.717
15366W        W85966  34.864  17.054  13.949
15367W        W85967  44.773  13.992   2.383
15368W        W85968  11.479   7.281   2.850
15369W        W85969   1.869  31.874   4.498
15370W        W85970  31.134  34.308  12.442
15371W        W85971  23.180  38.119   4.056
15372W        W85972  13.787  25.978  14.752
15373W        W85973  13.209  26.402  14.443
15374W        W85974  28.257  35.269   4.168
15375W        W85975  37.480  12.944   0.181
15376W        W85976  21.503   1.888  13.461
15377W        W85977   2.808   6.796   0.992
15378W        W85978   5.913  31.220   0.455
15379W        W85979  24.907  36.901  14.808
15380W        W85980   3.667  10.793   0.679
15381W        W85981  33.108   7.728   0.605
15382W        W85982  14.819   4.701   3.359
15383W        W85983   4.212  27.589   0.685
15384W        W85984  32.490  27.780  11.874
15385W        W85985  36.933  17.151  14.019
15386W        W85986  14.366   8.665  11.422
15387W        W85987   4.435  26.965  12.280
15388W        W85988  30.111  21.472  12.158
15389W        W85989  33.087  14.113   4.406
15390W        W85990  21.502  20.918  14.341
15391W        W85991  41.392  34.914   0.050
15392W        W85992   1.722   0.567   4.144
15393W        W85993  25.740  19.525   3.157
15394W        W85994   0.454   8.307   1.382
15395W        W85995  29.071  35.265  13.984
15396W        W85996  28.488  28.399   4.160
15397W        W85997  15.234  40.058   0.807
15398W        W85998   6.401   6.383   0.835
15399W        W85999  43.356  43.183  14.313
15400W        W86000  24.215  17.710  12.454
15401W        W86001  23.413   4.858  10.818
15402W        W86002   3.640  28.572   4.522
15403W        W86003  11.196  37.854   4.219
15404W        W86004   6.704   6.010  14.549
15405W        W86005  30.849  13.380   1.954
15406W        W86006  15.558  43.847  12.415
15407W        W86007   9.885  31.042   1.652
15408W        W86008   9.700  23.437   5.009
15409W        W86009  42.559  32.669   3.787
15410W        W86010  38.746   0.379   0.116
15411W        W86011  22.614   4.940  12.029
15412W        W86012  11.893   7.208   0.692
15413W        W86013  42.435  12.160   2.942
15414W        W86014  38.775  22.098   4.386
15415W        W86015   3.372   6.487  14.317
15416W        W86016   7.890  31.635  14.769
15417W        W86017  12.729  24.965  12.639
15418W        W86018  27.302  19.203   3.572
15419W        W86019  37.247  40.816   4.618
15420W        W86020  10.711  44.939  12.435
15421W        W86021  16.038  39.500  10.704
15422W        W86022  20.034  25.517   3.610
15423W        W86023  13.093   8.216   4.206
15424W        W86024   2.204  36.997   0.921
15425W        W86025  16.248  44.350  10.797
15426W        W86026  35.650  18.812   4.234
15427W        W86027  25.851  24.134  11.612
15428W        W86028  12.445  30.573  14.410
15429W        W86029  41.817   1.490  14.509
15430W        W86030   2.785  43.979   0.218
15431W        W86031  25.719  15.078  13.447
15432W        W86032   6.829  40.122  14.415
15433W        W86033  10.349  33.513   4.594
15434W        W86034   8.887  44.831  13.073
15435W        W86035   3.797  40.803   0.286
15436W        W86036   5.179   2.448   1.355
15437W        W86037  27.677   0.715   1.903
15438W        W86038   3.206  11.678   2.499
15439W        W86039  25.460  26.848   1.674
15440W        W86040  36.249  41.680   4.517
15441W        W86041  21.792  12.054   1.879
15442W        W86042  28.557  19.551  11.156
15443W        W86043   9.335  12.153   4.333
15444W        W86044   5.499  36.064   1.371
15445W        W86045  12.279   5.238  13.858
15446W        W86046  11.381  42.243   1.399
15447W        W86047  10.676  14.642  12.100
15448W        W86048  17.572   4.875  12.954
15449W        W86049   6.484  19.622   2.825
15450W        W86050  30.286  25.989  10.595
15451W        W86051   4.359  30.552   2.303
15452W        W86052  31.926  29.027  11.625
15453W        W86053  15.908   4.891  12.447
15454W        W86054  37.485  12.686   2.081
15455W        W86055   5.702  40.329  11.123
15456W        W86056   7.625   0.389  13.768
15457W        W86057  13.689  42.817   0.038
15458W        W86058  19.152  15.445  11.229
15459W        W86059  14.200   3.619  11.090
15460W        W86060   9.747  11.829   2.291
15461W        W86061  19.790  35.489   2.308
15462W        W86062  26.762  41.763   1.136
15463W        W86063  23.981  35.443  13.804
15464W        W86064  27.639  14.182  10.717
15465W        W86065  43.467  23.613  14.032
15466W        W86066   1.060  36.411  12.679
15467W        W86067  38.165  34.172   0.023
15468W        W86068  34.857  29.497  14.839
15469W        W86069  16.840  43.875  12.006
15470W        W86070  34.778  10.562  10.622
15471W        W86071   3.065  11.772  14.872
15472W        W86072  24.645  18.187   2.222
15473W        W86073  16.756  14.946  12.032
15474W        W86074   5.323  29.086  14.741
15475W        W86075  15.997  22.923   1.768
15476W        W86076   6.406   7.228   0.223
15477W        W86077  40.376   9.957   2.360
15478W        W86078  41.860  14.630  11.873
15479W        W86079   3.505  42.105   4.966
15480W        W86080  35.893  17.755  11.645
15481W        W86081  14.868   5.665   0.251
15482W        W86082   9.663  32.035   4.018
15483W        W86083  11.826   8.744   2.164
15484W        W86084   5.258  17.852  14.972
15485W        W86085  11.698  18.684   0.790
15486W        W86086  38.329  42.741   0.593
15487W        W86087   6.675  44.529  14.935
15488W        W86088  39.279   8.740  12.041
15489W        W86089  25.655  15.764   1.667
15490W        W86090  35.671  14.180  12.683
15491W        W86091  17.657  34.810  13.891
15492W        W86092  37.783  44.503  14.295
15493W        W86093  42.533  20.291   1.842
15494W        W86094  30.111   6.221  13.295
15495W        W86095  16.994  39.629   0.188
15496W        W86096  34.319  24.787  11.609
15497W        W86097  33.828  16.386   2.370
15498W        W86098  37.398  44.717   1.786
15499W        W86099  37.436  14.807   0.025
15500W        W86100   9.051  19.339   1.787
15501W        W86101  43.342  13.356   3.926
15502W        W86102  28.884  18.667   0.604
15503W        W86103   5.394  23.314  10.651
15504W        W86104  39.101  30.521   2.254
15505W        W86105  20.606  16.179  11.188
15506W        W86106  33.116  38.967  13.988
15507W        W86107  40.969  26.720   2.034
15508W        W86108  10.299   3.903  11.708
15509W        W86109  38.013  34.074  11.040
15510W        W86110  27.569  31.945   1.405
15511W        W86111  14.285  44.410  12.958
15512W        W86112  30.046  13.169   0.486
15513W        W86113   1.329   8.227   2.848
15514W        W86114  12.152  37.136   1.420
15515W        W86115   4.724   5.790   2.201
15516W        W86116  17.053  14.223   0.990
15517W        W86117   2.476   9.129  10.729
15518W        W86118  35.098   2.964  14.447
15519W        W86119   0.244  27.613  14.279
15520W        W86120  40.566  25.239  10.731
15521W        W86121  14.208  25.605  14.630
15522W        W86122  39.991  24.155  10.569
15523W        W86123  38.886  43.844   0.220
15524W        W86124  18.745  24.738  14.759
15525W        W86125  28.854  26.498   3.763
15526W        W86126  11.143   9.975  13.455
15527W        W86127  14.059  38.575  14.973
15528W        W86128  34.363   8.427  11.630
15529W        W86129  38.523   2.423  13.633
15530W        W86130   7.463  19.566  13.010
15531W        W86131  42.547  37.298  11.091
15532W        W86132  20.076  22.042   0.750
15533W        W86133   6.669   4.273   2.620
15534W        W86134  38.267  42.652  11.941
15535W        W86135  30.526  40.273   2.265
15536W        W86136   0.220  23.968  11.984
15537W        W86137   6.963   5.810   3.605
15538W        W86138  10.622  14.381   4.299
15539W        W86139  36.116  36.033  12.995
15540W        W86140  30.612  13.909   3.675
15541W        W86141  29.239  22.947  14.437
15542W        W86142   1.839   6.871   4.588
15543W        W86143  36.752   1.169   1.868
15544W        W86144  26.218  15.554   5.008
15545W        W86145  28.116  15.389   1.395
15546W        W86146  12.580  42.987   2.660
15547W        W86147   6.270  13.199   2.924
15548W        W86148  13.766  27.107  10.704
15549W        W86149   3.367  38.783   2.790
15550W        W86150  28.185  23.294   3.398
15551W        W86151  14.142  27.238   3.042
15552W        W86152   5.113  12.242  10.717
15553W        W86153   6.175  38.799   2.409
15554W        W86154  37.577  33.625  10.447
15555W        W86155  37.355  39.123   5.370
15556W        W86156  22.113  10.064   1.203
15557W        W86157  42.851   0.439  11.529
15558W        W86158  19.097  17.730   0.746
15559W        W86159  19.099  37.115   0.896
15560W        W86160  16.694  20.486  11.674
15561W        W86161   6.888  24.798   0.327
15562W        W86162  36.614  18.186   0.937
15563W        W86163  19.557   7.103   0.754
15564W        W86164  42.428   7.408  12.735
15565W        W86165  24.532   4.030  11.221
15566W        W86166  26.740   8.291   1.787
15567W        W86167   5.120  44.940   3.717
15568W        W86168   7.141  40.919  10.669
15569W        W86169  28.290   5.096   0.240
15570W        W86170   3.758  13.258   4.582
15571W        W86171   3.416  26.196  12.615
15572W        W86172   1.362   6.006   1.172
15573W        W86173   8.268  38.351   0.705
15574W        W86174   9.504  19.916  14.533
15575W        W86175  14.218  40.388  10.978
15576W        W86176  11.351  19.660   4.347
15577W        W86177  32.534  30.526  12.549
15578W        W86178  34.957  34.101   0.298
15579W        W86179  13.335   2.360  14.870
15580W        W86180  37.135  43.368  12.840
15581W        W86181   9.665   6.336  10.997
15582W        W86182  25.111   7.649  13.548
15583W        W86183  32.631   6.187   2.863
15584W        W86184  15.943  14.492  10.724
15585W        W86185  40.485  38.907  11.700
15586W        W86186  30.127  27.083   1.390
15587W        W86187  21.219   3.459   2.749
15588W        W86188  10.602  27.518  11.756
15589W        W86189  26.792  15.616  14.760
15590W        W86190  20.767  36.671  10.789
15591W        W86191   2.735   1.595   4.249
15592W        W86192   3.633  12.102   0.856
15593W        W86193  10.136  11.248  10.741
15594W        W86194   2.341  35.915   1.260
15595W        W86195  12.156   1.048  13.980
15596W        W86196   0.533  31.887   0.454
15597W        W86197  39.885  18.421  11.843
15598W        W86198  27.629  16.303  12.531
15599W        W86199  16.680   8.800   3.126
15600W        W86200  22.570  43.357  14.685
15601W        W86201  37.588  10.887  13.881
15602W        W86202  23.545   5.821   2.095
15603W        W86203  23.462   5.624  10.790
15604W        W86204  11.139  35.979  14.526
15605W        W86205  19.771   6.914   1.551
15606W        W86206  29.383  38.985   0.391
15607W        W86207  11.440  14.752   2.808
15608W        W86208  36.843  37.806   0.763
15609W        W86209  26.943  43.428   4.084
15610W        W86210  30.737  24.616  11.543
15611W        W86211   8.826  26.915   3.737
15612W        W86212   1.014  38.952  14.351
15613W        W86213  40.547   8.609  13.771
15614W        W86214  32.677  27.998   1.147
15615W        W86215  22.541  33.103  14.393
15616W        W86216  18.499  39.983   2.889
15617W        W86217  31.408  26.740   0.384
15618W        W86218  26.611   8.894  10.498
15619W        W86219   2.339  14.002   4.494
15620W        W86220   7.326  33.385  14.918
15621W        W86221  36.714  36.172   0.357
15622W        W86222  35.472   1.865   4.495
15623W        W86223  14.640  22.714  12.544
15624W        W86224  37.362   4.216   2.757
15625W        W86225   3.990  22.506   0.931
15626W        W86226  21.805  11.849  14.803
15627W        W86227  13.109  35.705  12.982
15628W        W86228  18.089   3.963  13.760
15629W        W86229  25.141  16.454  13.516
15630W        W86230   5.654   8.682  13.022
15631W        W86231   0.821  32.694  10.455
15632W        W86232  24.292  26.057   3.603
15633W        W86233  21.116   9.319   3.104
15634W        W86234  30.786  43.431   2.195
15635W        W86235  32.124  37.946   0.231
15636W        W86236  10.217  16.306  10.711
15637W        W86237  10.095  28.664   1.645
15638W        W86238  34.140   6.791   2.196
15639W        W86239   0.945   2.871   4.228
15640W        W86240  16.572  37.323  11.881
15641W        W86241  18.285   5.909   0.307
15642W        W86242  16.790  14.826   3.628
15643W        W86243  17.981  35.309   0.287
15644W        W86244  34.398  19.779   2.295
15645W        W86245  10.071  28.456   1.177
15646W        W86246   6.995  30.048   4.082
15647W        W86247   0.248  10.706   0.799
15648W        W86248  26.083  37.424   4.124
15649W        W86249  11.111  15.511  12.595
15650W        W86250  20.253  23.668  12.404
15651W        W86251  21.528  14.416   0.040
15652W        W86252  15.365   1.281  12.876
15653W        W86253  18.822  39.545   2.869
15654W        W86254  20.238  17.619   3.437
15655W        W86255   6.794  44.176  12.848
15656W        W86256  12.838  19.072  13.909
15657W        W86257   5.351  32.140  12.912
15658W        W86258   2.327  35.925   3.681
15659W        W86259  38.248  18.892  14.103
15660W        W86260  32.847  37.363  10.687
15661W        W86261  42.009  42.285   1.837
15662W        W86262  38.357  24.899  13.828
15663W        W86263  34.614  30.623   2.213
15664W        W86264  20.233  15.253  14.639
15665W        W86265  18.228  21.514  14.907
15666W        W86266  38.563  17.234  14.776
15667W        W86267  42.760   7.334  14.391
15668W        W86268  35.709  37.044  10.696
15669W        W86269  16.251  16.673  13.922
15670W        W86270  39.735  10.717   1.459
15671W        W86271   9.454   0.955  10.626
15672W        W86272  14.586  44.990   0.245
15673W        W86273  13.335  16.453  13.336
15674W        W86274  39.893  42.993  10.139
15675W        W86275   8.394  12.749   0.710
15676W        W86276  19.174  15.837   1.763
15677W        W86277  28.676   5.824   2.420
15678W        W86278  15.415   9.963  12.132
15679W        W86279   8.244   0.785   1.660
15680W        W86280  39.315  13.326   2.743
15681W        W86281  27.055   7.043   2.868
15682W        W86282   9.766   2.990  11.192
15683W        W86283  43.571  13.679   1.629
15684W        W86284   8.889  40.751  13.894
15685W        W86285  43.068  34.721  13.657
15686W        W86286  11.393  20.289   2.371
15687W        W86287  38.290  11.725   0.311
15688W        W86288  26.365  26.981   3.801
15689W        W86289   2.270  18.320  10.653
15690W        W86290  15.014   4.291   0.523
15691W        W86291   8.202  29.957  11.601
15692W        W86292  19.297  36.956  11.237
15693W        W86293  17.333  16.702  13.111
15694W        W86294   1.053  31.127  14.060
15695W        W86295  29.908   9.778  14.909
15696W        W86296  38.285  26.019  11.215
15697W        W86297   1.776   8.808  12.113
15698W        W86298  29.995  28.394  14.024
15699W        W86299  21.426  37.124   1.738
15700W        W86300  38.139   9.882  11.832
15701W        W86301   6.858  43.641  11.164
15702W        W86302  26.666  36.478  13.215
15703W        W86303  20.912   8.422  12.617
15704W        W86304  11.102  10.666   2.485
15705W        W86305  39.581  33.614   0.866
15706W        W86306  14.140  10.114  13.919
15707W        W86307  40.045   8.871   3.218
15708W        W86308  22.092  19.134  11.995
15709W        W86309  23.329   1.017   2.115
15710W        W86310  15.452  35.012  12.965
15711W        W86311  12.259   8.402   2.368
15712W        W86312  12.048  10.846  14.893
15713W        W86313   6.879  20.811  13.305
15714W        W86314   3.718  37.762   3.778
15715W        W86315  41.055  35.166  14.700
15716W        W86316  30.465   5.751  14.362
15717W        W86317  17.789  44.289   2.893
15718W        W86318  31.880  31.622   3.652
15719W        W86319  18.825  17.210   3.696
15720W        W86320   9.482   0.318   0.856
15721W        W86321   6.676   3.215   2.676
15722W        W86322  11.857  38.517  11.198
15723W        W86323   4.954  33.654   2.312
15724W        W86324  19.241  11.479   0.874
15725W        W86325  33.415  36.495   3.817
15726W        W86326  23.241  10.343   2.653
15727W        W86327  32.162  34.970   3.022
15728W        W86328  13.686  24.119   0.760
15729W        W86329  26.953  37.194  11.517
15730W        W86330   8.896  10.100   4.077
15731W        W86331   6.218  18.670  14.969
15732W        W86332  40.594  12.272  11.985
15733W        W86333  20.476  28.031   2.428
15734W        W86334   5.809  11.820   0.230
15735W        W86335  37.324  39.297  11.857
15736W        W86336  36.178  10.701  14.824
15737W        W86337  26.704  13.195  12.835
15738W        W86338  13.894  33.999  13.537
15739W        W86339  25.032   1.527   2.486
15740W        W86340  34.929  28.494  12.533
15741W        W86341  41.052  17.230   3.813
15742W        W86342  24.942  27.506  13.108
15743W        W86343  10.640  34.326   1.855
15744W        W86344  15.113   5.627   2.417
15745W        W86345  38.337  12.573   2.146
15746W        W86346  39.489  35.984   2.196
15747W        W86347  36.438  21.463   1.727
15748W        W86348  20.493  32.052   2.855
15749W        W86349  36.493  15.216  10.618
15750W        W86350  41.096   3.828   5.043
15751W        W86351   0.908  35.264  13.314
15752W        W86352  26.962  40.907   1.456
15753W        W86353   4.171  16.031  14.597
15754W        W86354  26.321  16.106  11.165
15755W        W86355  35.663   8.826   1.686
15756W        W86356  25.000  38.703  13.611
15757W        W86357  32.668  43.332   2.646
15758W        W86358  21.712  34.835   1.966
15759W        W86359  36.180  39.621  11.233
15760W        W86360  11.703  19.071   0.384
15761W        W86361   5.912  19.779  14.286
15762W        W86362  27.907   9.481  10.979
15763W        W86363   8.199  33.531  12.942
15764W        W86364  35.772  16.111   1.585
15765W        W86365  13.698  18.321  12.009
15766W        W86366  28.526  15.317  13.873
15767W        W86367  29.756  27.678   4.626
15768W        W86368   4.492  29.987   4.160
15769W        W86369   2.024  21.839  13.381
15770W        W86370  25.694  43.019   5.079
15771W        W86371  16.816  16.149  14.370
15772W        W86372  25.652  33.965  13.646
15773W        W86373  42.413  40.296  11.535
15774W        W86374  11.711  25.240  12.660
15775W        W86375  21.747  27.065   0.005
15776W        W86376   8.875  15.649   4.191
15777W        W86377  22.614   0.860  14.093
15778W        W86378  25.212  34.196  14.868
15779W        W86379  35.016  27.899  11.647
15780W        W86380   4.143  30.098   2.196
15781W        W86381  34.005   1.723  14.786
15782W        W86382  34.065  44.469   4.596
15783W        W86383   2.296  44.880  14.913
15784W        W86384   8.360  33.147   0.988
15785W        W86385  11.277   5.281   0.294
15786W        W86386  30.178  29.179  11.204
15787W        W86387  25.975   8.274   4.235
15788W        W86388  36.610  18.270  13.545
15789W        W86389   2.680  40.771  12.059
15790W        W86390  44.565  30.169  14.380
15791W        W86391  34.829  10.326   3.163
15792W        W86392  19.137  14.177   0.374
15793W        W86393   4.046   2.269   4.950
15794W        W86394  20.444  27.346  12.077
15795W        W86395   0.556  26.662  14.932
15796W        W86396  38.055   7.246  12.782
15797W        W86397  29.784  41.406   1.128
15798W        W86398  42.742   7.926  13.559
15799W        W86399  24.061   8.858  14.666
15800W        W86400  21.430  29.888  14.392
15801W        W86401  41.838  23.062  13.338
15802W        W86402  22.307  17.358  12.360
15803W        W86403  27.663   4.303   4.877
15804W        W86404   8.950  27.592  11.455
15805W        W86405  29.770  19.554   5.031
15806W        W86406  20.731  26.732   2.588
15807W        W86407  20.889  42.796  11.483
15808W        W86408  33.973   9.225   4.193
15809W        W86409  36.549  40.898   2.523
15810W        W86410  43.564  31.675  12.870
15811W        W86411  36.903  18.490  14.818
15812W        W86412   3.878  10.813   2.219
15813W        W86413   5.210  42.198  14.956
15814W        W86414  18.566   0.519  12.896
15815W        W86415  15.178  27.371   1.974
15816W        W86416  19.708  15.332  12.130
15817W        W86417  24.250  23.009  11.008
15818W        W86418  40.872  21.272  11.676
15819W        W86419  22.769  39.996   4.519
15820W        W86420  37.465   5.459   3.256
15821W        W86421  17.292  10.377  11.260
15822W        W86422  15.905   4.000   2.854
15823W        W86423  30.103  17.515  13.172
15824W        W86424  18.114  15.299   1.874
15825W        W86425  10.284  13.702  13.984
15826W        W86426  42.318   2.910  12.926
15827W        W86427  30.861   7.312   0.861
15828W        W86428  41.709   8.740  12.365
15829W        W86429  15.178  24.463   4.435
15830W        W86430  29.619  43.193   1.770
15831W        W86431  40.545  40.094   3.850
15832W        W86432  12.765   2.022  12.413
15833W        W86433  44.006   9.617   2.342
15834W        W86434  12.487  43.240   2.205
15835W        W86435   3.414  19.062   0.620
15836W        W86436  14.873  11.603   1.788
15837W        W86437  26.866  31.251  13.468
15838W        W86438   9.158  28.750  13.343
15839W        W86439  10.424  24.492   3.600
15840W        W86440  12.158   8.014   4.292
15841W        W86441  19.328  28.507  12.955
15842W        W86442   9.361  10.228  12.945
15843W        W86443   8.424  12.846  12.245
15844W        W86444  16.342   1.636  11.045
15845W        W86445  12.155  41.294   0.769
15846W        W86446  36.104  39.383  12.534
15847W        W86447  11.779   5.236  12.551
15848W        W86448  26.908  20.678   3.131
15849W        W86449  13.575  26.221   3.699
15850W        W86450   0.403  34.348   3.450
15851W        W86451  32.579  23.590   2.395
15852W        W86452   0.246  27.126  14.030
15853W        W86453  20.071  19.070  14.467
15854W        W86454  26.485  40.678  11.352
15855W        W86455  13.190   6.932   0.778
15856W        W86456  17.036  38.422   0.183
15857W        W86457  40.732   5.492   0.924
15858W        W86458  27.986  42.376   3.376
15859W        W86459   7.640  28.129  10.674
15860W        W86460  30.046   0.469   2.021
15861W        W86461  30.393  14.848   3.170
15862W        W86462  41.986  10.928  11.080
15863W        W86463  42.622  34.942  14.097
15864W        W86464   7.113  11.750   0.008
15865W        W86465  37.314  17.347   4.559
15866W        W86466  38.863  30.513   5.148
15867W        W86467   1.077  17.460   0.477
15868W        W86468   4.475  29.942   3.264
15869W        W86469  39.019  27.708   0.772
15870W        W86470  42.568  22.091   2.887
15871W        W86471  27.595  30.172  10.947
15872W        W86472  32.119  32.933   1.840
15873W        W86473   6.232   0.900   3.271
15874W        W86474  44.991  39.918   1.261
15875W        W86475  16.536  38.416   1.237
15876W        W86476  44.472   7.946  12.725
15877W        W86477  19.374   5.181  13.465
15878W        W86478  11.294  29.056   3.573
15879W        W86479  32.932  27.923  12.600
15880W        W86480  25.962  18.718  11.408
15881W        W86481  10.613  35.882   0.795
15882W        W86482  42.324  37.218  14.253
15883W        W86483  35.069  33.903   3.665
15884W        W86484   9.463  36.693   4.196
15885W        W86485  10.871  38.428   4.989
15886W        W86486  31.556  15.573   0.309
15887W        W86487   7.437  17.304  11.868
15888W        W86488  24.346  34.059   4.217
15889W        W86489  41.057  41.622   4.265
15890W        W86490  13.550  25.439  11.566
15891W        W86491  20.285  21.562   3.218
15892W        W86492  22.825  28.715   0.310
15893W        W86493  13.594  39.822   3.526
15894W        W86494  35.872   8.273  12.445
15895W        W86495   2.741  28.663  13.836
15896W        W86496  35.485  16.667  14.918
15897W        W86497  28.107  38.657   2.076
15898W        W86498  22.323  17.841   1.919
15899W        W86499  15.766   7.843  11.565
15900W        W86500   9.669  37.871  11.306
15901W        W86501  24.727  13.138   3.661
15902W        W86502  39.288   4.209  13.882
15903W        W86503  42.907  13.586   0.811
15904W        W86504  32.512  44.437  13.986
15905W        W86505  27.050  21.813   2.348
15906W        W86506  35.721  29.833   0.936
15907W        W86507  23.258  20.773   4.333
15908W        W86508  32.296  23.665  12.857
15909W        W86509   4.775   3.879  12.263
15910W        W86510  25.639  18.250   4.551
15911W        W86511  22.028   4.021  13.087
15912W        W86512  18.645  41.711  14.138
15913W        W86513  29.652  37.828  11.758
15914W        W86514  15.265  38.263  11.197
15915W        W86515  34.067  20.597  13.481
15916W        W86516  13.239  31.219   1.610
15917W        W86517  13.315   2.200   1.930
15918W        W86518   2.707  19.319  10.787
15919W        W86519   7.722  23.783  12.449
15920W        W86520  19.596   8.764   2.615
15921W        W86521   0.668  39.123  10.631
15922W        W86522  42.814  37.145  14.089
15923W        W86523   0.280  24.587   4.215
15924W        W86524  32.760  28.831  13.553
15925W        W86525  24.772   9.974   1.076
15926W        W86526  36.502  24.687  14.896
15927W        W86527  17.403  23.257  14.391
15928W        W86528   5.814  34.904  14.887
15929W        W86529  10.356  41.280  10.224
15930W        W86530  15.820  36.529   3.598
15931W        W86531   4.934  27.998   0.308
15932W        W86532  26.575  31.437   0.982
15933W        W86533  16.362   8.185   3.718
15934W        W86534  34.114  44.550   3.700
15935W        W86535  23.530   1.274   0.100
15936W        W86536  19.611  12.694  14.543
15937W        W86537   2.918   0.786  12.061
15938W        W86538  35.602  27.228  14.981
15939W        W86539   8.631   2.650  10.505
15940W        W86540  13.809  34.069   1.827
15941W        W86541  24.742  13.326   4.755
15942W        W86542   1.434  14.379  14.863
15943W        W86543  43.293  43.729  14.863
15944W        W86544  41.556  35.470  12.553
15945W        W86545  41.430  23.980   2.910
15946W        W86546  21.041  11.227   0.061
15947W        W86547   6.751  22.523   0.457
15948W        W86548  44.791  36.640   1.734
15949W        W86549  12.320  34.687  13.907
15950W        W86550  41.937  37.074  11.739
15951W        W86551  30.645  42.385  12.754
15952W        W86552  39.969  36.306   2.430
15953W        W86553  38.385   0.713  14.015
15954W        W86554   0.730  44.921  12.151
15955W        W86555  36.109  38.605  13.993
15956W        W86556  21.223  39.192  10.748
15957W        W86557  34.174  35.934   2.730
15958W        W86558  36.286  17.756   2.314
15959W        W86559  11.893   9.367   0.376
15960W        W86560  22.036   4.753  14.687
15961W        W86561   7.416  14.417  10.501
15962W        W86562  26.957  41.537   1.852
15963W        W86563  37.691   1.831  14.488
15964W        W86564  29.559   2.170   3.767
15965W        W86565  26.000   2.931  13.725
15966W        W86566  27.506  12.332   2.155
15967W        W86567  32.018  12.687   0.928
15968W        W86568  43.394  13.003   1.353
15969W        W86569  36.021  33.566  13.839
15970W        W86570  41.071  31.668   0.450
15971W        W86571  23.583  27.089   4.191
15972W        W86572  44.790  34.296   1.394
15973W        W86573  33.926   9.193  13.625
15974W        W86574  26.157   2.039   0.214
15975W        W86575   7.888  43.584   1.375
15976W        W86576  36.525  39.901  14.447
15977W        W86577   0.796   6.311   1.796
15978W        W86578  38.899  20.880   1.302
15979W        W86579  16.283  43.870  10.573
15980W        W86580   5.206  38.305  11.679
15981W        W86581   6.390   3.046   4.847
15982W        W86582  17.224  30.408   0.304
15983W        W86583  23.318  16.458  11.163
15984W        W86584   3.878   6.627  11.534
15985W        W86585  19.541  29.062  14.714
15986W        W86586  23.459  31.107   2.821
15987W        W86587  33.485  11.779  13.999
15988W        W86588  16.651  28.120  10.647
15989W        W86589   3.620  21.067   2.848
15990W        W86590   6.589  16.236  13.538
15991W        W86591  13.799   4.657  12.087
15992W        W86592  33.236  33.906  10.070
15993W        W86593  15.816  39.016  11.525
15994W        W86594   7.338  28.928   4.056
15995W        W86595  33.896  28.528   2.783
15996W        W86596   5.252  11.626   2.430
15997W        W86597  32.135  39.507   2.129
15998W        W86598   4.795  16.976   3.219
15999W        W86599   7.454  36.163   2.759
16000W        W86600  29.994  39.362  14.036
16001W        W86601   8.884   4.774  10.952
16002W        W86602  30.451  30.172  14.925
16003W        W86603  29.054  22.503  11.415
16004W        W86604  22.834  38.956  13.622
16005W        W86605  30.557  42.959  10.271
16006W        W86606  30.914  33.169  14.301
16007W        W86607  27.565  30.158  10.443
16008W        W86608  41.976  44.943   4.254
16009W        W86609  39.389  42.622   4.958
16010W        W86610   4.612  36.338   1.343
16011W        W86611  37.906   4.336  12.044
16012W        W86612  21.371  21.143  12.519
16013W        W86613   7.302  34.101   0.622
16014W        W86614  36.972  13.792   4.457
16015W        W86615  35.913  44.966  12.024
16016W        W86616  36.384  36.891  11.964
16017W        W86617  12.565  41.895  11.120
16018W        W86618  42.025  23.043   1.370
16019W        W86619  28.148  12.187   1.381
16020W        W86620   3.989  34.723   0.343
16021W        W86621   2.873  15.084  14.379
16022W        W86622  29.233  11.310  11.034
16023W        W86623   3.232   8.011  10.908
16024W        W86624   5.741   5.930  14.558
16025W        W86625  28.260  13.760   2.557
16026W        W86626  32.311  19.600   0.293
16027W        W86627   0.503  18.317   3.160
16028W        W86628  41.750  34.051   2.263
16029W        W86629  19.298   9.948   3.826
16030W        W86630  24.278  24.360   5.109
16031W        W86631  17.253   0.741  11.555
16032W        W86632  30.239   8.626   3.105
16033W        W86633  17.876  12.658   2.494
16034W        W86634  22.052  12.040   0.961
16035W        W86635  27.635  15.303   4.031
16036W        W86636  35.539   9.236  12.896
16037W        W86637  23.946  28.515   1.421
16038W        W86638  25.298  41.743   4.140
16039W        W86639  12.185  43.674  13.019
16040W        W86640   2.139  21.661  11.192
16041W        W86641   7.228  14.871  13.928
16042W        W86642  42.956  13.503  14.852
16043W        W86643  43.438  24.823  12.482
16044W        W86644   6.997  26.791   4.783
16045W        W86645  36.920  32.545  10.724
16046W        W86646  14.696   9.212  13.384
16047W        W86647  44.324  34.622  11.521
16048W        W86648  33.567  30.971   1.934
16049W        W86649   6.639   4.437   0.886
16050W        W86650  16.366  15.194   3.712
16051W        W86651  25.607   2.334   0.366
16052W        W86652  24.665  17.869   3.138
16053W        W86653  44.836  42.436  14.964
16054W        W86654   5.175  13.375   2.216
16055W        W86655  27.149  10.686   1.114
16056W        W86656   9.478  10.680   1.319
16057W        W86657  44.343  39.466   0.885
16058W        W86658  41.850  39.531   1.729
16059W        W86659   0.580   6.404   0.440
16060W        W86660  37.423  12.757   2.631
16061W        W86661  16.849  10.911  13.866
16062W        W86662  10.709   3.607  11.933
16063W        W86663  30.130  41.698   0.260
16064W        W86664  43.374   8.473   4.566
16065W        W86665  11.286  43.795  13.592
16066W        W86666  27.199  22.174  11.514
16067W        W86667  19.105  31.922   2.522
16068W        W86668  40.193  10.815  10.480
16069W        W86669  30.611   5.006  13.842
16070W        W86670  10.687  40.291   1.475
16071W        W86671   9.978  24.898  13.920
16072W        W86672   6.650  13.594  14.001
16073W        W86673  34.302  19.043  11.795
16074W        W86674  40.786  13.701  10.781
16075W        W86675  42.857  25.303   2.704
16076W        W86676  31.610   1.313   3.767
16077W        W86677  16.305  24.174  10.684
16078W        W86678   0.563  19.978  12.947
16079W        W86679   1.759   1.967   0.267
16080W        W86680  17.130  12.163  13.537
16081W        W86681  18.813  37.833   0.020
16082W        W86682  13.609  29.457   1.277
16083W        W86683   5.247   4.935  11.513
16084W        W86684  21.520  42.593   2.814
16085W        W86685   9.927   9.353  14.760
16086W        W86686  32.608  28.232   4.837
16087W        W86687  29.987  16.239   2.257
16088W        W86688  31.143   4.332  13.821
16089W        W86689  20.367  17.845  13.123
16090W        W86690  32.365  24.293  13.917
16091W        W86691  37.432  29.990  11.335
16092W        W86692  22.750   1.830  14.860
16093W        W86693  41.718  14.351   1.309
16094W        W86694  20.700   4.398  12.543
16095W        W86695  16.532  25.762   4.145
16096W        W86696  13.658  21.676   2.947
16097W        W86697  11.367  42.992  13.025
16098W        W86698   2.464  21.753   0.757
16099W        W86699  36.902  44.728   4.612
16100W        W86700  32.343  41.922  13.849
16101W        W86701  15.400   4.462  11.404
16102W        W86702  28.702  10.858   1.822
16103W        W86703  17.055  31.075  10.694
16104W        W86704  27.740   4.665  14.472
16105W        W86705  32.913  10.290   0.871
16106W        W86706   5.789  17.649  13.026
16107W        W86707  23.773  43.562  11.909
16108W        W86708   7.210   9.590  14.734
16109W        W86709  19.178   2.702  13.417
16110W        W86710  34.981  25.573   2.496
16111W        W86711   9.939  16.592  14.462
16112W        W86712  41.916  35.857   0.439
16113W        W86713  28.262  22.118  14.309
16114W        W86714  38.607  13.948   4.179
16115W        W86715  25.221  43.851   1.157
16116W        W86716  26.864  43.479   0.675
16117W        W86717  10.879  34.501   4.195
16118W        W86718  24.249  18.680   4.658
16119W        W86719  24.808  26.223  13.342
16120W        W86720  40.681  39.011   0.366
16121W        W86721   8.263  27.989  11.920
16122W        W86722  12.122   5.972  11.995
16123W        W86723   0.886  37.071   1.813
16124W        W86724   1.718  44.501   5.022
16125W        W86725  23.246  39.954   0.792
16126W        W86726  27.119  14.348   2.466
16127W        W86727  10.255  21.069  11.195
16128W        W86728  34.633  15.108  10.693
16129W        W86729   4.525  15.468   0.513
16130W        W86730  11.892  34.502   0.376
16131W        W86731  27.282  13.637   2.761
16132W        W86732  33.146  27.937   2.889
16133W        W86733  21.366  37.513   3.632
16134W        W86734  30.562  23.582   2.287
16135W        W86735   8.560  23.774   0.002
16136W        W86736  24.508  15.592   2.184
16137W        W86737  35.388  43.338  11.934
16138W        W86738  29.960  32.940   2.671
16139W        W86739   1.798  15.354   0.666
16140W        W86740  41.747  44.360   4.199
16141W        W86741  15.724  29.903  13.150
16142W        W86742  40.732  25.798  13.468
16143W        W86743  12.236  39.748  11.425
16144W        W86744   5.327  41.943  11.190
16145W        W86745  29.999  33.816   0.793
16146W        W86746  41.001  10.541  12.809
16147W        W86747  34.987  34.708   3.306
16148W        W86748  23.804  19.086   4.622
16149W        W86749  26.982  40.235  13.733
16150W        W86750   6.339  24.383  10.863
16151W        W86751  15.840  41.102  13.355
16152W        W86752   0.771  23.597  13.169
16153W        W86753  31.406  39.057  14.572
16154W        W86754   7.872  30.196  12.868
16155W        W86755  30.959  39.001   3.091
16156W        W86756   8.710   2.488  12.575
16157W        W86757  39.372  42.206   2.818
16158W        W86758  16.620  14.520   3.215
16159W        W86759  30.258   4.475   4.214
16160W        W86760  20.058  19.567  10.946
16161W        W86761  32.983  39.101  12.133
16162W        W86762   6.853  33.669   2.056
16163W        W86763  44.362   2.856   1.409
16164W        W86764  37.261   0.231   1.819
16165W        W86765  30.683  42.926   4.624
16166W        W86766  12.386  21.617  12.030
16167W        W86767  11.915  43.821   1.374
16168W        W86768  23.457   2.943  13.855
16169W        W86769  38.009   3.925   4.532
16170W        W86770  16.266   2.574  12.587
16171W        W86771  20.466  27.489  14.693
16172W        W86772  38.041  14.533   0.348
16173W        W86773  16.633   1.867   2.864
16174W        W86774  38.458  42.915  14.578
16175W        W86775   0.398   1.978   1.764
16176W        W86776  43.022  24.400  14.463
16177W        W86777   0.180  43.904   1.853
16178W        W86778  38.815  42.670   0.758
16179W        W86779  24.214  34.533   2.160
16180W        W86780   2.414  22.763  13.883
16181W        W86781  14.284  43.805   4.435
16182W        W86782  11.763   9.901   3.286
16183W        W86783  29.599   7.847   0.685
16184W        W86784  25.133   2.861   4.647
16185W        W86785  44.940   1.946  14.572
16186W        W86786  32.022  27.153   3.114
16187W        W86787   6.412  26.532   0.920
16188W        W86788  18.226  31.599  14.213
16189W        W86789  33.093  41.997  11.189
16190W        W86790  30.023  25.905   2.762
16191W        W86791  21.525  39.125  14.799
16192W        W86792  19.020  25.726   1.685
16193W        W86793   3.435  13.582  12.050
16194W        W86794  21.934  25.691   4.844
16195W        W86795   5.192  18.752  13.423
16196W        W86796   0.718   6.808   1.803
16197W        W86797  38.081  35.549  14.939
16198W        W86798  22.802  28.709  13.039
16199W        W86799   0.833  20.064   1.902
16200W        W86800  13.830  28.384  11.947
16201W        W86801  37.995  40.031  10.861
16202W        W86802  17.150  29.194  13.990
16203W        W86803  41.016   5.120  13.469
16204W        W86804  29.835  43.530   2.232
16205W        W86805  15.732  41.679  11.179
16206W        W86806  17.562  18.639   1.270
16207W        W86807  32.098   2.455  12.290
16208W        W86808  36.874   6.833   0.499
16209W        W86809   0.493  25.563  13.965
16210W        W86810  25.309  35.150  14.815
16211W        W86811  33.987   3.350   2.600
16212W        W86812  18.916  27.068  10.751
16213W        W86813  15.708  19.768  11.421
16214W        W86814  24.695  32.454  10.729
16215W        W86815  43.655  10.655  13.023
16216W        W86816  34.778   8.735   1.173
16217W        W86817   7.048  17.673  11.581
16218W        W86818   4.758  15.115   1.954
16219W        W86819  41.327  28.763  10.495
16220W        W86820  13.314   9.908  13.490
16221W        W86821   2.407   1.193  14.986
16222W        W86822  36.530  12.209   2.863
16223W        W86823  11.858  22.653  13.842
16224W        W86824  18.446  32.002  14.461
16225W        W86825  41.997  19.603  14.569
16226W        W86826  32.450  41.552   2.920
16227W        W86827  22.767   5.835   3.742
16228W        W86828  42.836  37.377   2.290
16229W        W86829  23.423  22.151  12.857
16230W        W86830  13.845  15.801   1.278
16231W        W86831  44.752  22.501  14.002
16232W        W86832  44.071   2.526  13.819
16233W        W86833  11.940  16.022  14.451
16234W        W86834  21.322  24.925  14.234
16235W        W86835  19.627  12.280  10.761
16236W        W86836  42.409  24.413  13.321
16237W        W86837   4.170  33.370  12.427
16238W        W86838  11.608   6.619   2.371
16239W        W86839  13.226  16.674   0.022
16240W        W86840  26.361  41.024  13.774
16241W        W86841  29.818  38.007   2.236
16242W        W86842   5.890  24.108   3.418
16243W        W86843  12.809  11.865   0.988
16244W        W86844  42.018  11.982  10.052
16245W        W86845  14.799   5.363  11.230
16246W        W86846  36.291  30.959   0.515
16247W        W86847  27.012  36.495   3.446
16248W        W86848   2.460  25.246  11.348
16249W        W86849  23.754  26.371   1.723
16250W        W86850  30.630  25.193   3.683
16251W        W86851  12.627  20.697  14.338
16252W        W86852  35.327  35.982   1.216
16253W        W86853  41.275  23.957  14.337
16254W        W86854  42.018  31.841  11.202
16255W        W86855  37.272  11.795   4.608
16256W        W86856  36.695  30.984   4.353
16257W        W86857  38.307  21.270  14.027
16258W        W86858  24.979  24.935   0.878
16259W        W86859   1.037  39.966  14.364
16260W        W86860  18.085   0.368   3.277
16261W        W86861  14.150   0.765   3.370
16262W        W86862  11.417   2.845  12.951
16263W        W86863  29.006  36.839   1.866
16264W        W86864  13.039  33.023   2.267
16265W        W86865  24.147  16.997   2.161
16266W        W86866  14.314  24.510  13.407
16267W        W86867  32.447  37.098  14.385
16268W        W86868  37.872   5.435  13.151
16269W        W86869  11.346  41.108   4.546
16270W        W86870   7.223   1.454  14.414
16271W        W86871   3.602  15.944   3.241
16272W        W86872  17.135  30.123  14.400
16273W        W86873  21.051  25.490  13.435
16274W        W86874  43.840  38.824  11.590
16275W        W86875   3.108   6.839  12.392
16276W        W86876   2.251  21.651   2.310
16277W        W86877   4.789  35.648  13.529
16278W        W86878  20.585  15.315   2.746
16279W        W86879  44.075  44.394  12.461
16280W        W86880  19.281  15.066   4.140
16281W        W86881  16.080  26.601  11.569
16282W        W86882  43.481  22.286   0.864
16283W        W86883  14.362  28.766   3.294
16284W        W86884  42.768  44.934  13.250
16285W        W86885  22.234  22.691   0.239
16286W        W86886  19.248  31.578   0.945
16287W        W86887  28.264  35.297  11.588
16288W        W86888   8.248  19.795  13.290
16289W        W86889  35.013   8.735   3.340
16290W        W86890   8.003  32.881  14.604
16291W        W86891  31.777  17.698   3.605
16292W        W86892  23.159  44.381   4.493
16293W        W86893  14.371  39.555   4.563
16294W        W86894   6.222  28.718  10.617
16295W        W86895  12.108  17.612   3.836
16296W        W86896   6.442   6.150  11.402
16297W        W86897  24.680  17.097  12.570
16298W        W86898  15.743  31.684   1.535
16299W        W86899   2.707  36.536   2.948
16300W        W86900  31.190  20.961  13.815
16301W        W86901  25.525  27.311   0.791
16302W        W86902  24.782  28.194   2.845
16303W        W86903   9.846  13.088  10.815
16304W        W86904  26.627  27.439   3.784
16305W        W86905  30.457   3.666  14.743
16306W        W86906  40.394  22.673   0.691
16307W        W86907  32.913  12.792  11.064
16308W        W86908  28.190  11.763  12.505
16309W        W86909  44.109  18.648   2.361
16310W        W86910  10.412  11.273  14.341
16311W        W86911  12.488   8.602  12.986
16312W        W86912   3.886  12.259  13.014
16313W        W86913  12.315  19.086  13.950
16314W        W86914  17.273  11.221   0.017
16315W        W86915  20.338  12.200   0.542
16316W        W86916  34.403  30.996  11.167
16317W        W86917  10.394  17.790  10.680
16318W        W86918  17.630   7.474  13.350
16319W        W86919  42.532  36.724  14.329
16320W        W86920  30.667  43.431  12.010
16321W        W86921   2.972  42.354  13.007
16322W        W86922  35.956  17.566   4.098
16323W        W86923   1.726  26.708  10.730
16324W        W86924   8.511  23.875  13.294
16325W        W86925  35.570   3.466  14.225
16326W        W86926  26.659  11.384  14.989
16327W        W86927  24.679  29.156  13.437
16328W        W86928  33.473  38.559  10.511
16329W        W86929  14.493   3.174  11.106
16330W        W86930  19.559  14.721   3.603
16331W        W86931   6.394   8.432  11.516
16332W        W86932  12.694   8.788  10.661
16333W        W86933  12.280  19.062   2.719
16334W        W86934   3.949  26.530   4.444
16335W        W86935   1.487  41.365  12.657
16336W        W86936  32.568  34.672   1.257
16337W        W86937  10.372  11.618   2.261
16338W        W86938  30.084  32.327  14.739
16339W        W86939  16.660  40.244  12.893
16340W        W86940  29.032  21.419  14.525
16341W        W86941  35.146   5.200   4.073
16342W        W86942  41.376   2.444  10.595
16343W        W86943  26.302   4.230  10.646
16344W        W86944   9.897   3.662  10.575
16345W        W86945  36.504   0.788   4.175
16346W        W86946   1.995  36.619  11.180
16347W        W86947   7.150  44.385   4.169
16348W        W86948  31.346  23.378  12.676
16349W        W86949  35.657  33.964  14.899
16350W        W86950  15.044  44.008  12.358
16351W        W86951  12.795   1.360   4.157
16352W        W86952  32.204  25.945  14.492
16353W        W86953   8.346  11.575   1.888
16354W        W86954  37.128  27.116   0.042
16355W        W86955  34.181  14.343   0.288
16356W        W86956  42.532  42.432   4.515
16357W        W86957  38.415  40.594   0.022
16358W        W86958  42.704   6.844  11.121
16359W        W86959  37.847   6.114  10.043
16360W        W86960  17.609   4.889   2.408
16361W        W86961   1.942  43.956  13.325
16362W        W86962  16.364  29.933  11.019
16363W        W86963  32.492  37.428   3.660
16364W        W86964   7.120  14.637  11.737
16365W        W86965  41.008  32.334  14.754
16366W        W86966  20.091   3.463   1.844
16367W        W86967  15.776  33.132  13.281
16368W        W86968  15.302  13.803  12.995
16369W        W86969  10.178  24.051  12.983
16370W        W86970  15.620  19.785  14.241
16371W        W86971  33.501  18.200   0.626
16372W        W86972  18.133  13.184  10.554
16373W        W86973  36.478  28.554   0.016
16374W        W86974  42.209  40.498   0.680
16375W        W86975  43.395  10.173  12.834
16376W        W86976  35.724   0.285   1.923
16377W        W86977  11.842   4.419   2.324
16378W        W86978  31.613  44.099   4.446
16379W        W86979  32.629   7.620  12.847
16380W        W86980  43.752  39.932   3.178
16381W        W86981  29.702  39.024  14.964
16382W        W86982   1.220  22.625  14.863
16383W        W86983   0.388  30.146   2.242
16384W        W86984  42.555   3.332   4.605
16385W        W86985   2.461   2.923   4.377
16386W        W86986  28.412  23.747  11.143
16387W        W86987   1.084  13.610   4.154
16388W        W86988  31.664   0.756  11.203
16389W        W86989  10.896  42.226   2.161
16390W        W86990  27.256  13.512   0.398
16391W        W86991   5.693  12.154   4.668
16392W        W86992   6.575  26.588  12.297
16393W        W86993  19.359   5.224   4.189
16394W        W86994  10.842  38.863   3.255
16395W        W86995   8.466  15.431   1.776
16396W        W86996  44.991  38.305  12.294
16397W        W86997  27.015  26.422  10.771
16398W        W86998  16.209   0.949   0.250
16399W        W86999  13.773  41.540  12.536
16400W        W87000  11.605   9.706   4.821
16401W        W87001   6.657  18.573   3.616
16402W        W87002  19.957  20.700   2.055
16403W        W87003  17.102  23.972   0.718
16404W        W87004  38.869  21.911  10.815
16405W        W87005  32.285  21.190   4.106
16406W        W87006  18.683  25.467  11.515
16407W        W87007  12.918  33.244   1.280
16408W        W87008   8.720  27.480   0.295
16409W        W87009   0.761   5.502  12.480
16410W        W87010  18.096  28.015   0.349
16411W        W87011   0.003  22.238   4.101
16412W        W87012   9.235  39.303  11.793
16413W        W87013  19.164  28.656  13.455
16414W        W87014   6.354  32.608   3.181
16415W        W87015  34.385  16.224  12.030
16416W        W87016  29.167   4.815   3.617
16417W        W87017  43.294  11.439  13.674
16418W        W87018  14.390  26.921  12.050
16419W        W87019  23.984  38.204  11.671
16420W        W87020  20.293  19.176   3.620
16421W        W87021  16.636  18.775   1.198
16422W        W87022  11.906  27.579  12.137
16423W        W87023  35.399   3.284  10.493
16424W        W87024  43.161  10.127   4.953
16425W        W87025  41.035  19.140   2.323
16426W        W87026  41.345  16.300  13.845
16427W        W87027  37.486   5.372  12.395
16428W        W87028  12.128  21.176  12.721
16429W        W87029  20.444  44.707   1.394
16430W        W87030   5.090  41.648  14.384
16431W        W87031   7.336  40.765   2.747
16432W        W87032   1.587  13.335   0.963
16433W        W87033  18.808   1.400   1.716
16434W        W87034  16.308  29.441  10.864
16435W        W87035   9.419   5.912  12.592
16436W        W87036   9.269  37.039  11.031
16437W        W87037  30.085  13.778   3.737
16438W        W87038  16.561  28.105   3.755
16439W        W87039  34.046  39.765  13.936
16440W        W87040  43.193  22.386  12.219
16441W        W87041   9.286   4.627   4.858
16442W        W87042  26.439  37.553   2.696
16443W        W87043  28.420  34.547   3.284
16444W        W87044   2.670  37.031  10.723
16445W        W87045  32.393  15.406   2.606
16446W        W87046  24.131  41.417   2.355
16447W        W87047  25.480   7.915  11.088
16448W        W87048  26.918  44.789   0.829
16449W        W87049  33.725   4.759   2.805
16450W        W87050  13.908  24.608  12.122
16451W        W87051  37.550  43.232  11.538
16452W        W87052  31.658   2.734   2.349
16453W        W87053  15.644  23.167  12.956
16454W        W87054  35.853  28.046  12.036
16455W        W87055  31.497  26.196   1.738
16456W        W87056  13.656  37.577  13.452
16457W        W87057  20.736  29.186  10.529
16458W        W87058  21.553  35.786   0.531
16459W        W87059  24.181   1.274  14.332
16460W        W87060  27.502  35.620  10.944
16461W        W87061  29.820   4.792   5.149
16462W        W87062   8.338  32.686   1.843
16463W        W87063  25.932  44.309  10.121
16464W        W87064  13.255   5.314  13.832
16465W        W87065  16.853  25.916  10.447
16466W        W87066   7.838   3.413   0.969
16467W        W87067   5.663  10.871  10.955
16468W        W87068  27.414  10.400  13.355
16469W        W87069  37.043  29.395  13.378
16470W        W87070  23.869   3.828  13.424
16471W        W87071   8.747   8.828   3.690
16472W        W87072  23.901  19.505   2.289
16473W        W87073   2.235  16.179  11.111
16474W        W87074   8.674  13.672  12.377
16475W        W87075  31.610  37.913   4.606
16476W        W87076  18.617  37.427   0.264
16477W        W87077  12.192  37.306   5.000
16478W        W87078  13.424  38.043  14.648
16479W        W87079  12.265  41.228   2.856
16480W        W87080  15.324  21.756   0.400
16481W        W87081  31.109  24.325   4.067
16482W        W87082  40.478  38.996   0.849
16483W        W87083  18.605  44.814  14.385
16484W        W87084  10.156  29.449   4.080
16485W        W87085   5.237  28.744   2.238
16486W        W87086  33.112   3.884  10.635
16487W        W87087   0.444  25.702   0.417
16488W        W87088  10.548  32.283  11.067
16489W        W87089  20.123   5.746   1.620
16490W        W87090  42.926  25.824   2.674
16491W        W87091  22.857  43.025   4.950
16492W        W87092  41.474  13.411  12.379
16493W        W87093  12.258  39.914   2.331
16494W        W87094  32.692  28.607   0.350
16495W        W87095  35.922  28.987  11.647
16496W        W87096  39.846   1.403  10.523
16497W        W87097  33.093   8.905  12.077
16498W        W87098  20.797  16.140  11.686
16499W        W87099   1.218  20.824  13.444
16500W        W87100  29.508  44.072   1.312
16501W        W87101  23.585  21.624   4.250
16502W        W87102  43.967   8.336  11.255
16503W        W87103  28.030  32.027  11.547
16504W        W87104  11.973  16.724   1.826
16505W        W87105  30.028   6.461   3.546
16506W        W87106  19.811  39.910  13.645
16507W        W87107   2.013  13.175   2.659
16508W        W87108  36.134  15.786  13.298
16509W        W87109  25.296   4.665  14.268
16510W        W87110  38.776  27.218  12.672
16511W        W87111  21.783  23.123  14.227
16512W        W87112   4.286  32.574   2.944
16513W        W87113   9.355   0.084   2.183
16514W        W87114  13.374  20.171  11.080
16515W        W87115  40.516  15.102   0.748
16516W        W87116  20.638  24.096  11.890
16517W        W87117  33.935   2.410   3.857
16518W        W87118  29.374   5.395  13.465
16519W        W87119  22.039  23.193   0.122
16520W        W87120  38.090  37.593  11.867
16521W        W87121  34.616  24.322   2.018
16522W        W87122  32.422  12.929  11.200
16523W        W87123  33.989  32.990   4.068
16524W        W87124  34.503  20.597   4.175
16525W        W87125  31.052  11.475   0.259
16526W        W87126  43.512  34.020   2.706
16527W        W87127  29.039  12.826  14.722
16528W        W87128   9.857   6.611   1.738
16529W        W87129  40.573  11.685   3.077
16530W        W87130  18.880  12.332  12.913
16531W        W87131  26.237   8.199  14.823
16532W        W87132  22.810  41.971   2.847
16533W        W87133   2.614  28.464   4.236
16534W        W87134  31.619  28.047  11.709
16535W        W87135  27.206  37.834   0.307
16536W        W87136   2.190   8.855   4.026
16537W        W87137  14.974  34.920  10.074
16538W        W87138   1.970  23.888  11.239
16539W        W87139  35.722  15.272  13.568
16540W        W87140   6.473   3.862   2.288
16541W        W87141   1.336   4.919   4.309
16542W        W87142  37.098  30.510  12.892
16543W        W87143  27.913  22.514  12.310
16544W        W87144  26.620  23.047  14.379
16545W        W87145  41.409  37.565   4.544
16546W        W87146   1.740  10.554   4.588
16547W        W87147  40.279  30.764   4.183
16548W        W87148  33.020   5.293  13.023
16549W        W87149  39.219  40.996   3.419
16550W        W87150   1.387  37.426   3.777
16551W        W87151  15.794  23.537  12.619
16552W        W87152  33.434   8.046  11.249
16553W        W87153   0.361   7.586   1.903
16554W        W87154  28.889  32.041   3.373
16555W        W87155   7.046  19.267   4.313
16556W        W87156  36.883  32.435   0.735
16557W        W87157   1.248  30.098   3.541
16558W        W87158  18.041  21.251   2.349
16559W        W87159  22.148  32.952  11.572
16560W        W87160  16.774  38.852   0.352
16561W        W87161  35.661  21.665  10.942
16562W        W87162  25.595  30.029   4.244
16563W        W87163  12.582  21.131  13.120
16564W        W87164  24.637  38.066   4.339
16565W        W87165  44.534   9.908   4.594
16566W        W87166  21.651   3.684  13.022
16567W        W87167   1.924  19.335   3.923
16568W        W87168  12.578   0.459  11.988
16569W        W87169  16.150  15.843  11.204
16570W        W87170   1.742   0.785   0.988
16571W        W87171   5.783  22.306  14.124
16572W        W87172  39.494  24.589   1.173
16573W        W87173  23.485   8.486   0.425
16574W        W87174  36.898  13.282   1.332
16575W        W87175  17.786  11.420  12.468
16576W        W87176  37.565  41.530   1.544
16577W        W87177  35.066  37.988   3.819
16578W        W87178  22.985  17.651  14.969
16579W        W87179  25.408  23.995  13.023
16580W        W87180  31.603  23.500  11.650
16581W        W87181   9.353  11.204   1.359
16582W        W87182   2.629  16.116  13.021
16583W        W87183  30.120  38.450   9.729
16584W        W87184  18.544  40.550  10.717
16585W        W87185  19.361   8.132  12.645
16586W        W87186  35.389  10.811  14.401
16587W        W87187  17.302  22.130   1.953
16588W        W87188   3.761  29.409   0.485
16589W        W87189  15.728  19.073  10.813
16590W        W87190  31.203   0.112  13.282
16591W        W87191  42.256  24.198  14.546
16592W        W87192   8.455  24.688  14.473
16593W        W87193   9.090  23.000  13.097
16594W        W87194  36.945  21.197  10.477
16595W        W87195  23.213  28.494  13.913
16596W        W87196  19.601  40.337  13.877
16597W        W87197  31.137  15.054   4.452
16598W        W87198  33.853  22.623  12.150
16599W        W87199  42.949  28.282   4.492
16600W        W87200  28.028  27.910   1.703
16601W        W87201   8.054  21.290  13.036
16602W        W87202  28.272  18.275  13.808
16603W        W87203  27.040  40.984   4.557
16604W        W87204  43.425  37.579   0.357
16605W        W87205  40.255  15.726  14.279
16606W        W87206  13.421   2.534  11.160
16607W        W87207  14.292   3.574   2.040
16608W        W87208  28.469  18.189  13.345
16609W        W87209  15.376  24.100  11.672
16610W        W87210  18.336  23.097  14.085
16611W        W87211  30.221   2.087  12.844
16612W        W87212  27.193  34.840   0.128
16613W        W87213   1.819   7.316  14.526
16614W        W87214  38.964   5.346   0.105
16615W        W87215  22.656   2.805  12.448
16616W        W87216  22.086  33.345  13.359
16617W        W87217  42.829  14.545  13.844
16618W        W87218  38.103   5.788   2.755
16619W        W87219  29.633  34.594   4.246
16620W        W87220  23.628  30.916  13.713
16621W        W87221  44.739   1.815   4.494
16622W        W87222  42.538  16.717   4.098
16623W        W87223  14.132  12.659  14.751
16624W        W87224  20.086   8.188  13.072
16625W        W87225  28.369   5.261  12.375
16626W        W87226  19.525  15.575  13.158
16627W        W87227  30.125  34.908   4.380
16628W        W87228  36.440   4.354   0.459
16629W        W87229  43.433  28.099   4.781
16630W        W87230  12.430  30.115   1.449
16631W        W87231  44.738  39.899  13.293
16632W        W87232  44.346  17.976   3.576
16633W        W87233  39.345  13.811   0.374
16634W        W87234  28.638  38.289  14.758
16635W        W87235  19.027  27.451  14.341
16636W        W87236  24.791  19.722  13.905
16637W        W87237  16.904   0.263   2.785
16638W        W87238  24.647  36.956  13.913
16639W        W87239  32.215  12.782   3.257
16640W        W87240   8.376   3.167  14.863
16641W        W87241  21.619   0.491  10.922
16642W        W87242  16.500   7.306   1.964
16643W        W87243   1.300  43.038   0.434
16644W        W87244  25.199  41.998   2.145
16645W        W87245  24.614  27.376   0.782
16646W        W87246   4.490  18.262   0.810
16647W        W87247  44.309  22.393  12.354
16648W        W87248  17.765   6.955   4.123
16649W        W87249  42.598  22.725   4.908
16650W        W87250  26.003  19.033   3.881
16651W        W87251  18.739  34.873  12.903
16652W        W87252  16.107  38.720  13.580
16653W        W87253  44.224  20.058   9.665
16654W        W87254  42.909  32.440  11.104
16655W        W87255   3.028   0.372   4.355
16656W        W87256  16.197  26.189   0.488
16657W        W87257  27.187  16.342   1.727
16658W        W87258  33.670  36.066   4.047
16659W        W87259  41.444  20.495  12.433
16660W        W87260   8.416  37.009   4.261
16661W        W87261  36.466  20.797  12.967
16662W        W87262  37.897  32.506   3.144
16663W        W87263  24.493  34.516  11.246
16664W        W87264  13.609  41.049   5.376
16665W        W87265  14.331   1.331  12.899
16666W        W87266  24.213  33.382  12.468
16667W        W87267  28.712  35.035   4.156
16668W        W87268  14.194   8.214   1.812
16669W        W87269  24.627   1.234   3.357
16670W        W87270  42.942   6.758  13.754
16671W        W87271   9.207  32.729  12.476
16672W        W87272  14.644  17.858  11.157
16673W        W87273  28.340  24.235  13.928
16674W        W87274  12.668  31.376   3.673
16675W        W87275  32.021  43.267   3.736
16676W        W87276  25.038  40.218   1.326
16677W        W87277  24.805   1.881   4.540
16678W        W87278   2.432  21.961   3.414
16679W        W87279  13.923  27.697   2.319
16680W        W87280  44.505  34.886  11.098
16681W        W87281  44.841  33.384  10.156
16682W        W87282  18.622  44.920   0.438
16683W        W87283   1.724   9.735  13.543
16684W        W87284  27.439  23.504  14.544
16685W        W87285  43.017  13.078   4.197
16686W        W87286  32.540  27.455  14.490
16687W        W87287   6.057   5.866  12.121
16688W        W87288   8.742  30.595   9.995
16689W        W87289  19.778  14.206  10.754
16690W        W87290  22.075   3.703  14.500
16691W        W87291  26.114  20.596   1.584
16692W        W87292   6.197  27.378   1.932
16693W        W87293  23.828  41.020   2.243
16694W        W87294  30.568  10.354  13.102
16695W        W87295  29.052  34.844   3.210
16696W        W87296  43.730  11.472  14.643
16697W        W87297  38.905  32.683   4.549
16698W        W87298   9.108  40.128   2.312
16699W        W87299  36.175  15.164   1.546
16700W        W87300   5.446   1.215   4.124
16701W        W87301   5.197  11.537   1.907
16702W        W87302  11.458   8.199   1.668
16703W        W87303  14.478   0.685   5.176
16704W        W87304   2.988   0.344   3.347
16705W        W87305  27.430  36.960  11.569
16706W        W87306  13.837  41.601   3.267
16707W        W87307  33.819  36.053   3.180
16708W        W87308  26.727  33.177  12.474
16709W        W87309  26.702  42.994  11.455
16710W        W87310  38.736  17.651   0.972
16711W        W87311  16.243  39.960  13.865
16712W        W87312   3.838  25.639  13.140
16713W        W87313  35.339  30.659  11.482
16714W        W87314  10.432  35.658   2.313
16715W        W87315  22.635   8.152  12.852
16716W        W87316  23.692  44.151  14.885
16717W        W87317  11.155   3.929  14.571
16718W        W87318  29.682   0.813  12.908
16719W        W87319   7.407  11.274   2.372
16720W        W87320   6.048  42.805  11.415
16721W        W87321  25.219   3.115   1.231
16722W        W87322   2.661  10.096   4.410
16723W        W87323  28.946   5.311   4.330
16724W        W87324  24.189  19.287  14.795
16725W        W87325  17.848   5.301   1.858
16726W        W87326  31.991  16.015   2.714
16727W        W87327  16.444  34.981  14.510
16728W        W87328  29.430  15.105   4.632
16729W        W87329  23.702  34.106   4.264
16730W        W87330  44.409  11.626  11.461
16731W        W87331  35.664   4.445  14.526
16732W        W87332  40.893  14.891   3.772
16733W        W87333  30.201  23.766   2.633
16734W        W87334  26.858   2.309   1.350
16735W        W87335  43.014  11.715   2.219
16736W        W87336  29.019   8.538  12.159
16737W        W87337  12.271  19.775   3.840
16738W        W87338  41.310   8.893  11.446
16739W        W87339  17.836   9.256   0.453
16740W        W87340  16.207  24.628  10.926
16741W        W87341  43.966  26.432   2.349
16742W        W87342  35.536  27.979   3.688
16743W        W87343  27.986  31.694   1.217
16744W        W87344  37.983  40.909   0.715
16745W        W87345  37.989  23.088  11.213
16746W        W87346  16.220  22.266   4.462
16747W        W87347  37.064  39.560   0.851
16748W        W87348  10.830  44.070   4.870
16749W        W87349  28.816  16.744  11.952
16750W        W87350  36.312  35.417   4.151
16751W        W87351  22.314  43.396  12.751
16752W        W87352  44.530  12.803   3.430
16753W        W87353   9.812  21.017   0.968
16754W        W87354  12.353  16.238  11.362
16755W        W87355   8.340  43.366  12.521
16756W        W87356  16.106  14.361   2.403
16757W        W87357  22.658  27.352  14.057
16758W        W87358  43.297   0.812  13.843
16759W        W87359  29.935  20.578  11.423
16760W        W87360  12.184  40.563  11.073
16761W        W87361  39.620  10.846   2.808
16762W        W87362  43.716  22.328  14.527
16763W        W87363  10.623  25.064   5.294
16764W        W87364  41.036  42.445   2.067
16765W        W87365  33.195  32.870  14.873
16766W        W87366  16.111  34.593   0.660
16767W        W87367  42.392  42.811   3.635
16768W        W87368  43.244  20.086  13.354
16769W        W87369  42.003   3.158  14.072
16770W        W87370   7.295   8.638   3.298
16771W        W87371  13.248  12.727  13.234
16772W        W87372  16.255   7.474  11.262
16773W        W87373   9.729  32.006   3.512
16774W        W87374   3.262  37.872   0.328
16775W        W87375   9.768  43.467   2.135
16776W        W87376   3.422  33.037  11.107
16777W        W87377  15.419  17.883   1.148
16778W        W87378  21.092  36.277  13.115
16779W        W87379  16.799  17.101  11.502
16780W        W87380  37.511  42.987   1.040
16781W        W87381  19.698  39.286  14.085
16782W        W87382  16.662  29.393   9.948
16783W        W87383  22.712   1.726   2.132
16784W        W87384  19.077  30.382  11.632
16785W        W87385  23.984  39.809   1.935
16786W        W87386  27.411  40.244   2.741
16787W        W87387   5.990   3.063  11.953
16788W        W87388  22.321  28.679   2.922
16789W        W87389  41.363  29.168   3.255
16790W        W87390  14.276  12.997   0.134
16791W        W87391  26.691  17.573   2.330
16792W        W87392  15.788  22.569  11.112
16793W        W87393  35.149  17.874   4.061
16794W        W87394  42.875  25.969  12.442
16795W        W87395  37.078  31.928  11.759
16796W        W87396  35.581  28.148  13.327
16797W        W87397  25.046   2.335   1.701
16798W        W87398  32.472  37.335  14.871
16799W        W87399  30.491  20.712   0.974
16800W        W87400  40.793  44.534  14.354
16801W        W87401  38.396  29.150  11.738
16802W        W87402  27.184   3.975   4.326
16803W        W87403  43.721  32.350   2.244
16804W        W87404  27.702  17.688  11.295
16805W        W87405   3.396   5.420   2.782
16806W        W87406   6.834  36.396   4.460
16807W        W87407  14.091   4.789   4.097
16808W        W87408   6.808   8.374   3.190
16809W        W87409   2.026  15.116   2.793
16810W        W87410   8.730  40.696   5.232
16811W        W87411  21.634  43.456   5.399
16812W        W87412  44.496   9.167  11.011
16813W        W87413  36.337  44.483  11.463
16814W        W87414  39.593  26.504  14.720
16815W        W87415  13.576  41.298  12.949
16816W        W87416   0.353   6.529   0.899
16817W        W87417  22.245  28.159  11.196
16818W        W87418  28.449  25.731   1.408
16819W        W87419   3.925  40.309  13.901
16820W        W87420  30.486  13.071  14.425
16821W        W87421  14.083  36.083   2.589
16822W        W87422   4.862  19.062   4.590
16823W        W87423  35.580  33.357   0.916
16824W        W87424  42.865   6.966   0.365
16825W        W87425  27.395  34.559   1.369
16826W        W87426   4.409  11.056  11.985
16827W        W87427   7.908  39.013  14.389
16828W        W87428  35.281  34.719   0.784
16829W        W87429  23.511  16.818  13.911
16830W        W87430   5.910  29.624   3.138
16831W        W87431  33.702  15.288   4.084
16832W        W87432  38.916  44.560  12.457
16833W        W87433  42.912  12.346   2.844
16834W        W87434  32.200  25.459  13.018
16835W        W87435  17.027  22.561  13.690
16836W        W87436  21.473   3.569  11.154
16837W        W87437  42.370   3.450   2.899
16838W        W87438  36.982  24.248   2.140
16839W        W87439  28.695  38.768  14.922
16840W        W87440  38.467   9.622  13.737
16841W        W87441  30.966  20.864   0.275
16842W        W87442  10.794   9.610  11.164
16843W        W87443   6.886  22.631  11.759
16844W        W87444  12.298  33.600  12.549
16845W        W87445  38.814  26.850  14.485
16846W        W87446  31.622  37.490  12.457
16847W        W87447   2.031  35.898   0.856
16848W        W87448  11.269  20.093  14.405
16849W        W87449  20.915  20.665  13.368
16850W        W87450  31.132  43.516  12.744
16851W        W87451  20.029  40.436   2.664
16852W        W87452  37.981   7.658  13.603
16853W        W87453  14.902  20.620  13.324
16854W        W87454  19.741   4.459   4.267
16855W        W87455  33.509  42.858  10.854
16856W        W87456  21.641  17.677   3.086
16857W        W87457  15.603  19.693   3.325
16858W        W87458  28.213  34.752   4.166
16859W        W87459  29.893  12.174  11.436
16860W        W87460  16.083   0.781  12.845
16861W        W87461   9.288  37.797  11.638
16862W        W87462  13.813  30.433  11.116
16863W        W87463  18.304  39.650   0.161
16864W        W87464  41.545   2.542   2.692
16865W        W87465  25.651  10.564  12.805
16866W        W87466  27.866  28.711  12.940
16867W        W87467   2.460  18.192  11.505
16868W        W87468  22.995   5.737   3.132
16869W        W87469   3.291  34.412   1.743
16870W        W87470  30.473  16.014   1.358
16871W        W87471  19.533  18.675   1.423
16872W        W87472  14.659   4.417  13.463
16873W        W87473  33.491   2.257  13.435
16874W        W87474  23.396  38.456  13.067
16875W        W87475  13.693   4.204   4.564
16876W        W87476   4.376   1.717   2.324
16877W        W87477  39.785  17.582  14.337
16878W        W87478  44.073   4.086  11.747
16879W        W87479  31.979  27.415   3.587
16880W        W87480   7.342  17.988  12.786
16881W        W87481   7.821   5.062   4.871
16882W        W87482  16.423  29.871   3.839
16883W        W87483  36.103   4.347   4.341
16884W        W87484  18.009  13.377   0.725
16885W        W87485  29.172  32.289   3.710
16886W        W87486  10.687  10.347  14.360
16887W        W87487   2.780  14.540  13.541
16888W        W87488  44.361  32.482   5.106
16889W        W87489  44.574   2.829  10.157
16890W        W87490  15.957  24.480   3.208
16891W        W87491  37.902   4.000  12.559
16892W        W87492  29.850   3.874   1.096
16893W        W87493  40.791  22.829   2.836
16894W        W87494  26.156  23.324  13.502
16895W        W87495  15.071  20.494   1.180
16896W        W87496  13.648  29.466   2.926
16897W        W87497  10.763   3.746   2.345
16898W        W87498  11.576   1.716   2.037
16899W        W87499  11.153  24.226  13.945
16900W        W87500  14.034  23.072   0.365
16901W        W87501  44.554  43.316  13.093
16902W        W87502  20.758  10.253   1.866
16903W        W87503   4.838  42.994   1.967
16904W        W87504  31.046  12.075  10.790
16905W        W87505  29.466  33.391   0.773
16906W        W87506  18.381  32.958  14.579
16907W        W87507  16.039  10.420   0.502
16908W        W87508  13.173  36.204  12.856
16909W        W87509  31.088  38.566  12.936
16910W        W87510  14.022  30.852  14.876
16911W        W87511  12.363  15.720  10.279
16912W        W87512  32.124  13.821  11.088
16913W        W87513  23.802   7.945  14.605
16914W        W87514  43.243  44.356   0.307
16915W        W87515  31.422   2.027   4.132
16916W        W87516  14.848  37.141   1.304
16917W        W87517  25.141  30.629  13.408
16918W        W87518  30.158  27.654   2.281
16919W        W87519  24.865  18.591   0.010
16920W        W87520  15.055  21.151  12.152
16921W        W87521   0.308  37.577  14.909
16922W        W87522  14.665  35.835  10.611
16923W        W87523   0.356  42.417  12.477
16924W        W87524   5.710  36.572  11.615
16925W        W87525  42.529  43.975  14.410
16926W        W87526  27.692  12.588   1.688
16927W        W87527  26.737  19.050   0.905
16928W        W87528   2.770  37.409   2.301
16929W        W87529  43.968  27.891   2.145
16930W        W87530  17.075  29.040  14.501
16931W        W87531  15.357   0.871   3.561
16932W        W87532   1.762   4.539  11.127
16933W        W87533  13.387  43.914   0.218
16934W        W87534  18.535  24.403   0.140
16935W        W87535   8.709   9.885  12.751
16936W        W87536  41.083  38.031   0.721
16937W        W87537  21.754   7.818   2.954
16938W        W87538  21.287  30.885   2.306
16939W        W87539  37.418  24.544   2.411
16940W        W87540  12.234  42.955   3.157
16941W        W87541   6.501  41.705   1.847
16942W        W87542  42.347  27.734  14.431
16943W        W87543  25.059  17.236   2.561
16944W        W87544  23.171   1.185  11.141
16945W        W87545  24.462   7.595   0.899
16946W        W87546   1.055  13.816   1.973
16947W        W87547   4.946  10.822   4.298
16948W        W87548  31.340  13.298  12.033
16949W        W87549  11.013   2.659   0.046
16950W        W87550   5.399  41.423   1.189
16951W        W87551  17.715  10.709  14.421
16952W        W87552  42.448  13.094  11.639
16953W        W87553   9.297  30.720   4.592
16954W        W87554   9.345  39.753  11.546
16955W        W87555   3.422   6.370   2.608
16956W        W87556  41.634   1.020  14.445
16957W        W87557  17.402   6.759  14.396
16958W        W87558  36.415  34.856   3.315
16959W        W87559  21.495  27.527   1.748
16960W        W87560  28.535  15.071  11.832
16961W        W87561  37.146  41.468   0.596
16962W        W87562  20.144   8.693   2.774
16963W        W87563  16.278  27.856  10.406
16964W        W87564  34.349  30.976   4.294
16965W        W87565  43.819  11.980  12.609
16966W        W87566  11.702   8.058  14.585
16967W        W87567  13.505  30.041   2.510
16968W        W87568  36.267   8.823  13.915
16969W        W87569  33.322   9.857  13.816
16970W        W87570   7.043  35.564  10.733
16971W        W87571   3.412   3.874   4.560
16972W        W87572  33.114  25.769  14.061
16973W        W87573   6.901   4.918   0.836
16974W        W87574  33.903   8.700  10.780
16975W        W87575  31.091  24.962   3.687
16976W        W87576  43.545  30.218  13.372
16977W        W87577  42.570  18.046  10.710
16978W        W87578  44.553   5.700   1.934
16979W        W87579  39.864   3.696   1.715
16980W        W87580  40.265   7.244  10.952
16981W        W87581  20.288   3.809  13.543
16982W        W87582  19.165  43.542   1.898
16983W        W87583  24.541  42.757   0.483
16984W        W87584  13.246  21.203   1.788
16985W        W87585  44.758  29.315  10.859
16986W        W87586  42.391  14.616  12.640
16987W        W87587  33.048  34.926   0.012
16988W        W87588  16.147  30.124   4.186
16989W        W87589  36.892   1.471  14.141
16990W        W87590  41.772   0.746   0.198
16991W        W87591  19.698  44.414   3.772
16992W        W87592   7.975  19.699   1.195
16993W        W87593  21.136   0.074  11.654
16994W        W87594  25.781  36.112  13.807
16995W        W87595   5.264  14.433   2.783
16996W        W87596   4.773  18.311   0.348
16997W        W87597   0.927   4.819  13.254
16998W        W87598  26.733  35.604   4.535
16999W        W87599   7.082   8.002  12.080
17000W        W87600  16.681   3.948   4.024
17001W        W87601  37.178  44.243   1.788
17002W        W87602  10.218  42.508   3.643
17003W        W87603  16.642  21.253   4.688
17004W        W87604  26.617   7.915  10.559
17005W        W87605  30.863   4.379  11.132
17006W        W87606  11.217  25.584   1.113
17007W        W87607   0.988  22.028   0.505
17008W        W87608  39.519   4.453   0.756
17009W        W87609  23.082   3.210  10.809
17010W        W87610  25.038  32.384   4.478
17011W        W87611  41.147  25.772   0.996
17012W        W87612  38.289  15.125  13.903
17013W        W87613  27.045  21.122   4.010
17014W        W87614   7.869   4.412  10.563
17015W        W87615  11.400  21.407  13.088
17016W        W87616  18.158  23.536   2.111
17017W        W87617  21.111  32.145   3.466
17018W        W87618  22.495   1.398   5.028
17019W        W87619  15.360  39.427  14.813
17020W        W87620  30.412   0.270  12.494
17021W        W87621  19.258  15.340   0.851
17022W        W87622  12.720  15.559  12.013
17023W        W87623   4.818  37.322  13.836
17024W        W87624  25.025  44.102  13.268
17025W        W87625  21.716  38.510   1.470
17026W        W87626  34.311  39.445  11.993
17027W        W87627  34.626  12.087  11.164
17028W        W87628  43.112  25.085   0.012
17029W        W87629   0.646  39.140  10.055
17030W        W87630  24.285  36.025   5.227
17031W        W87631  30.612  39.333   2.253
17032W        W87632  25.160  32.129   4.978
17033W        W87633  34.176   7.662  12.482
17034W        W87634  42.998  38.899  10.697
17035W        W87635  21.220  41.065   2.382
17036W        W87636  42.722  13.332   1.360
17037W        W87637  35.889  26.069  14.517
17038W        W87638  27.024   6.661  10.659
17039W        W87639  36.407  11.095   0.059
17040W        W87640  25.884  33.084   3.138
17041W        W87641   2.339  12.310   5.034
17042W        W87642   0.782  37.793  14.813
17043W        W87643  34.043  23.989  13.485
17044W        W87644  24.668  28.349  14.221
17045W        W87645  40.946  14.628  10.877
17046W        W87646  32.991  24.271   2.690
17047W        W87647  37.596  17.137   3.744
17048W        W87648  43.363  14.339   4.994
17049W        W87649  37.397  15.799   2.603
17050W        W87650  20.423   6.127   0.415
17051W        W87651  44.341   8.763  11.740
17052W        W87652   9.677  17.752   2.168
17053W        W87653   8.014  31.134  14.763
17054W        W87654  30.034   4.382  12.528
17055W        W87655  29.515  35.466  13.824
17056W        W87656   5.817  28.714  10.939
17057W        W87657  36.528  30.545   4.133
17058W        W87658  39.342  29.887   4.875
17059W        W87659  35.034  20.631   3.562
17060W        W87660  26.159  42.096   0.823
17061W        W87661  38.889  22.308  12.288
17062W        W87662  38.440  39.654   0.378
17063W        W87663  11.905   2.035  10.084
17064W        W87664  42.541  38.034  14.417
17065W        W87665  27.893   2.418  14.486
17066W        W87666   2.490  22.212   3.856
17067W        W87667  13.248   3.730  13.437
17068W        W87668  16.955  42.016   3.177
17069W        W87669  42.498  21.093  13.122
17070W        W87670   9.917  38.782  13.147
17071W        W87671   0.468  32.157   4.559
17072W        W87672  36.759  28.870  13.991
17073W        W87673  22.079  36.158   4.535
17074W        W87674  42.481   4.268   9.963
17075W        W87675  11.233  19.793   4.867
17076W        W87676  27.310  30.381   4.461
17077W        W87677   0.870  10.136   1.919
17078W        W87678  29.996   6.644   0.091
17079W        W87679  22.133   0.317   2.249
17080W        W87680   8.301  44.762   4.323
17081W        W87681  33.033  40.947   3.284
17082W        W87682  17.300  44.251   2.712
17083W        W87683  22.951  36.075  13.635
17084W        W87684  14.651   6.138  14.077
17085W        W87685   8.373  27.173   3.712
17086W        W87686  19.973  28.996   3.225
17087W        W87687  34.658  29.915   0.118
17088W        W87688  37.412   0.108   9.425
17089W        W87689  29.230  13.568  11.721
17090W        W87690  32.947   2.107  14.399
17091W        W87691   1.208  15.232   2.418
17092W        W87692  12.677   0.778  12.364
17093W        W87693   6.630  15.681  13.749
17094W        W87694  38.869  10.643  10.623
17095W        W87695  23.193  28.289  11.856
17096W        W87696  23.197  10.430  12.086
17097W        W87697  10.574  19.058  11.845
17098W        W87698  35.335   4.779   4.681
17099W        W87699   6.135  40.336  11.403
17100W        W87700  15.494  21.683   1.904
17101W        W87701  11.784  43.930  11.890
17102W        W87702  38.784  14.678  13.469
17103W        W87703   9.755  43.505  10.741
17104W        W87704  14.471  16.232   4.441
17105W        W87705   2.821  39.737  12.895
17106W        W87706   2.336  14.609   2.020
17107W        W87707  21.577  35.457   0.966
17108W        W87708  43.808  18.356  14.381
17109W        W87709  21.346  11.887   1.670
17110W        W87710  34.061  16.846  12.749
17111W        W87711  21.048  19.559   3.929
17112W        W87712  39.293  23.842   4.187
17113W        W87713  17.497   0.276  11.838
17114W        W87714  39.565  19.084  11.558
17115W        W87715  17.109  19.098   3.677
17116W        W87716  14.129  20.759  11.890
17117W        W87717  28.981   8.859  10.820
17118W        W87718  28.254  25.848  13.509
17119W        W87719  21.062  10.417  13.459
17120W        W87720   9.333  26.558   4.994
17121W        W87721  34.494   6.983  11.894
17122W        W87722  40.894  39.596   2.605
17123W        W87723  18.279  35.614  13.888
17124W        W87724  39.960  26.758  13.387
17125W        W87725  41.417  33.401   1.186
17126W        W87726  42.860  39.786  12.093
17127W        W87727   1.200  34.371  12.462
17128W        W87728  15.153   2.421  13.102
17129W        W87729  34.070  15.670   4.179
17130W        W87730  11.973  14.276   0.718
17131W        W87731  37.759  43.319   3.668
17132W        W87732  39.726  33.572  14.828
17133W        W87733  29.456  38.365   3.136
17134W        W87734  30.544   4.967  14.746
17135W        W87735  22.788  32.613  12.673
17136W        W87736  27.234   0.491  13.424
17137W        W87737  42.830  42.826  10.771
17138W        W87738  14.177   9.136  13.486
17139W        W87739  26.129  21.493  12.469
17140W        W87740  18.582   3.776  11.227
17141W        W87741  37.982  12.709   3.354
17142W        W87742   8.257   8.921   0.412
17143W        W87743   6.321  16.256   3.176
17144W        W87744  25.356  21.285  13.425
17145W        W87745  14.160  24.074   1.031
17146W        W87746  17.150  11.651   0.836
17147W        W87747   2.940   0.187  14.357
17148W        W87748   6.275  28.446   0.465
17149W        W87749  37.048  18.147  13.335
17150W        W87750  23.897  23.991   1.690
17151W        W87751   8.038   9.074  11.161
17152W        W87752  30.817  44.990   3.223
17153W        W87753  22.675  12.742   9.948
17154W        W87754  25.455  10.755   2.631
17155W        W87755  11.348   7.077  13.706
17156W        W87756  44.087  37.933  11.974
17157W        W87757  10.573  33.870   1.558
17158W        W87758   7.709  31.449   4.475
17159W        W87759   7.774  38.281   4.367
17160W        W87760  20.023  10.409  10.664
17161W        W87761  41.402   5.579   4.035
17162W        W87762  36.885  28.611  12.471
17163W        W87763  21.072  30.340   2.788
17164W        W87764  17.691  10.354  12.515
17165W        W87765  10.774  43.242  11.705
17166W        W87766  35.924  43.890   1.313
17167W        W87767   4.767   4.750   2.709
17168W        W87768  35.602  13.296   4.496
17169W        W87769  16.792  23.483  11.663
17170W        W87770   4.760  29.919   2.752
17171W        W87771   2.400   2.868  12.806
17172W        W87772  40.981  18.666  14.991
17173W        W87773  25.663  33.462   1.935
17174W        W87774   8.899  40.890   1.953
17175W        W87775  35.624  35.112  12.992
17176W        W87776  33.790  32.149   1.015
17177W        W87777  23.078  13.075   4.459
17178W        W87778  16.676  14.747  11.544
17179W        W87779  42.492  31.198  14.236
17180W        W87780  20.398   3.904   1.540
17181W        W87781  32.079  30.145   1.147
17182W        W87782  27.160   9.962   4.543
17183W        W87783   7.953  11.871  11.625
17184W        W87784   7.779   7.896   3.832
17185W        W87785  29.943  22.000   2.964
17186W        W87786  35.050  39.072  12.782
17187W        W87787   6.956  31.653   0.686
17188W        W87788  27.483  21.788   2.812
17189W        W87789  13.603  13.264  14.719
17190W        W87790  38.320  19.297   2.844
17191W        W87791  15.818  13.013  12.441
17192W        W87792   5.670   4.931   4.105
17193W        W87793  31.879  11.093   2.672
17194W        W87794  37.099   4.344   3.804
17195W        W87795  14.834   7.253  13.793
17196W        W87796   9.710  29.448   0.289
17197W        W87797  31.928   1.815   4.205
17198W        W87798  15.167  38.557   3.429
17199W        W87799  12.056  23.201   2.289
17200W        W87800   0.211   6.448  12.372
17201W        W87801  32.957   4.582   2.431
17202W        W87802  29.485   9.127  12.570
17203W        W87803  40.238  30.511   4.955
17204W        W87804  21.151  35.453  12.567
17205W        W87805  29.213  34.101   4.644
17206W        W87806  11.572  17.042   4.272
17207W        W87807  19.083   1.225   4.495
17208W        W87808  28.950  21.164  10.587
17209W        W87809   7.480   3.521   2.213
17210W        W87810   9.307  39.353  14.719
17211W        W87811  24.210  28.490   1.908
17212W        W87812  22.209  35.602  11.527
17213W        W87813   0.854  23.379  11.863
17214W        W87814  16.592  35.935  11.999
17215W        W87815   4.280  34.577   3.590
17216W        W87816  17.307   6.730  12.413
17217W        W87817  16.554  28.098  13.533
17218W        W87818  19.649  36.901  12.963
17219W        W87819   0.307  15.614   4.573
17220W        W87820  15.309   8.434  12.057
17221W        W87821  43.948   3.886  13.726
17222W        W87822  42.518  38.527  13.057
17223W        W87823  32.650  14.873  13.980
17224W        W87824  26.556   9.478   2.078
17225W        W87825   6.371  34.111   0.654
17226W        W87826   7.913  13.411  14.830
17227W        W87827  10.177  16.164   3.836
17228W        W87828  41.784   5.539   3.104
17229W        W87829  13.189  19.569  10.423
17230W        W87830   7.425   5.293  11.902
17231W        W87831  13.417  16.596   4.139
17232W        W87832  16.683   3.788  11.632
17233W        W87833  16.801   1.951   0.308
17234W        W87834  17.811  16.679  10.327
17235W        W87835  23.147  19.249   2.668
17236W        W87836  31.122   4.550   2.852
17237W        W87837   0.940  34.916   3.227
17238W        W87838  33.649  29.054  11.299
17239W        W87839   3.416  40.366  13.772
17240W        W87840  31.948   3.334   1.243
17241W        W87841   5.453  42.814   3.676
17242W        W87842  11.132  18.639  10.697
17243W        W87843  21.544  36.899  12.836
17244W        W87844  19.379  34.439  14.955
17245W        W87845  11.890  32.911  14.441
17246W        W87846  27.520  14.389   3.637
17247W        W87847  41.965   7.910  12.132
17248W        W87848   0.354   9.993  14.261
17249W        W87849  32.809  17.690   3.758
17250W        W87850  30.853  25.311  13.861
17251W        W87851   2.815  29.427   1.673
17252W        W87852  42.431  10.160   1.715
17253W        W87853  17.644  33.523  11.118
17254W        W87854  15.338  37.567   4.618
17255W        W87855  35.892  13.410  11.594
17256W        W87856   6.123  42.219  13.938
17257W        W87857  12.855  44.826   0.007
17258W        W87858  44.192  31.993  13.330
17259W        W87859  30.376  15.308  10.673
17260W        W87860  34.788  18.989  14.287
17261W        W87861  30.705  16.142   3.386
17262W        W87862  38.908  39.771  11.817
17263W        W87863  22.072  27.986  14.400
17264W        W87864  26.824  17.328  11.176
17265W        W87865  13.081  18.152   1.397
17266W        W87866   2.781  42.536  11.071
17267W        W87867  30.889   8.866  12.579
17268W        W87868  10.464  34.668  13.882
17269W        W87869   0.751   9.880   2.399
17270W        W87870  34.777  14.671   2.226
17271W        W87871   5.845  41.809  13.694
17272W        W87872  11.876  33.908   1.951
17273W        W87873   6.471   2.968   0.129
17274W        W87874  14.318  40.852   0.841
17275W        W87875  40.775   8.954   1.909
17276W        W87876  32.167  27.561  12.210
17277W        W87877  35.412  29.513  14.231
17278W        W87878  20.767   3.007   0.981
17279W        W87879  33.848  44.981   4.586
17280W        W87880   4.905  16.244  14.327
17281W        W87881  13.370  13.599  14.398
17282W        W87882  25.655  30.967   4.462
17283W        W87883  12.645  26.259   1.870
17284W        W87884  38.898  25.638  10.648
17285W        W87885   2.606  44.738  13.027
17286W        W87886  22.544  40.935  13.826
17287W        W87887  39.449  31.704   0.932
17288W        W87888   5.685  37.818  11.095
17289W        W87889  42.270  12.197   2.440
17290W        W87890  14.111   2.768   1.707
17291W        W87891  20.320  40.864  14.563
17292W        W87892  42.473  12.193  11.454
17293W        W87893   8.690  13.949   0.412
17294W        W87894   7.870  36.933  12.871
17295W        W87895  30.499  31.425   0.993
17296W        W87896  18.043  36.622   4.378
17297W        W87897  38.230   9.745   1.851
17298W        W87898  29.103  23.817  13.390
17299W        W87899  27.382   5.754  13.081
17300W        W87900  14.401  33.923  10.816
17301W        W87901  31.923  13.128  13.247
17302W        W87902  27.042  42.651   4.571
17303W        W87903   8.354   5.614   3.169
17304W        W87904  15.970  44.066   2.739
17305W        W87905  13.323   6.827  14.827
17306W        W87906  16.547  36.612   1.817
17307W        W87907  10.163   9.053  14.344
17308W        W87908  41.848  29.316  13.535
17309W        W87909  16.268   8.936  11.013
17310W        W87910  16.378  16.068   0.805
17311W        W87911  44.818  34.638   2.760
17312W        W87912  21.215   2.979   4.350
17313W        W87913  40.948  41.945   2.209
17314W        W87914   8.861   7.923  11.505
17315W        W87915   0.521  16.742  12.979
17316W        W87916  26.062   0.892  13.171
17317W        W87917  12.656  23.826   4.995
17318W        W87918   3.807  34.078   0.987
17319W        W87919   4.073   1.954  11.175
17320W        W87920   9.363  19.260   3.322
17321W        W87921  15.374  40.289   0.346
17322W        W87922   3.851  14.252   2.711
17323W        W87923  44.717  13.284   3.557
17324W        W87924  17.405  44.129   3.655
17325W        W87925  16.192   1.050   1.263
17326W        W87926  11.628  19.317   1.484
17327W        W87927  31.629  33.579   4.123
17328W        W87928  38.836  26.645  11.812
17329W        W87929  31.419  28.980   0.938
17330W        W87930   8.663  35.652  12.087
17331W        W87931  14.444   6.727  12.323
17332W        W87932  20.708  13.663   3.410
17333W        W87933  42.936  32.150   4.084
17334W        W87934   1.421  44.294  10.637
17335W        W87935  37.560  28.209  12.816
17336W        W87936  20.514  28.516   1.664
17337W        W87937  30.665   4.251   1.670
17338W        W87938   5.127   5.620  12.123
17339W        W87939  20.454  33.545   3.829
17340W        W87940  33.505  14.104   0.608
17341W        W87941  13.996  29.617   4.276
17342W        W87942  34.142  27.147   4.049
17343W        W87943  33.147  17.605   4.232
17344W        W87944  25.911  44.683   0.393
17345W        W87945  19.761   7.264  11.789
17346W        W87946  31.111  17.340   0.057
17347W        W87947  14.469  37.514  11.609
17348W        W87948  23.606  19.080   2.389
17349W        W87949   2.017  10.396   4.998
17350W        W87950   1.228  33.649   9.890
17351W        W87951  28.650  35.373  11.193
17352W        W87952   7.980   2.706   2.878
17353W        W87953  27.104  42.374   2.199
17354W        W87954  30.171  11.600   2.752
17355W        W87955  42.456  22.053   2.005
17356W        W87956  22.596  25.121   0.363
17357W        W87957  20.013  41.514   4.263
17358W        W87958  23.154  20.907   2.831
17359W        W87959  27.074   9.401   4.405
17360W        W87960   0.939  37.503   1.310
17361W        W87961  30.436  30.942   3.291
17362W        W87962  24.721   5.724   0.216
17363W        W87963   4.990   1.828   1.749
17364W        W87964   5.688  38.099  11.528
17365W        W87965  24.414  12.846   4.322
17366W        W87966  13.010  34.484   1.715
17367W        W87967  22.091  14.525   4.659
17368W        W87968   7.015   3.781   2.176
17369W        W87969   2.370   3.004   1.400
17370W        W87970   6.798  34.030  12.419
17371W        W87971  43.708  17.274  10.769
17372W        W87972  23.763   5.204  10.731
17373W        W87973  38.872  22.598  11.877
17374W        W87974  16.687  37.420   0.169
17375W        W87975   4.429   5.005   4.663
17376W        W87976  17.493  16.628  11.775
17377W        W87977   9.791   7.295  13.999
17378W        W87978  21.133  16.679   4.559
17379W        W87979  42.388  20.097  13.611
17380W        W87980   6.524   7.717   4.600
17381W        W87981  36.903   2.672   3.293
17382W        W87982  19.252  28.555   0.745
17383W        W87983   7.653  32.302   0.770
17384W        W87984  28.573  20.046   1.225
17385W        W87985  24.802  38.147  14.472
17386W        W87986  33.094  14.454   4.839
17387W        W87987  32.025  19.830   4.184
17388W        W87988  27.302  39.935   4.695
17389W        W87989   7.301  12.820  11.373
17390W        W87990  21.659  11.257  14.376
17391W        W87991  25.575  44.690  13.784
17392W        W87992  12.545   1.430   0.839
17393W        W87993  34.039   4.588   4.830
17394W        W87994   6.358  21.761  12.542
17395W        W87995  30.276  22.382   0.473
17396W        W87996  22.017  18.020   2.882
17397W        W87997   2.786   2.657  13.382
17398W        W87998  25.661  30.092  14.973
17399W        W87999  19.033  24.648  12.856
17400W        W88000   1.779  37.044  11.440
17401W        W88001   5.761  39.313   3.364
17402W        W88002  33.736   2.502  12.217
17403W        W88003  41.786   5.905   1.898
17404W        W88004  23.010   3.033   0.051
17405W        W88005  28.436  26.043  10.405
17406W        W88006   5.497  21.529  10.771
17407W        W88007   3.585  27.951   3.315
17408W        W88008  40.294  11.632   4.101
17409W        W88009  40.293  22.211   0.512
17410W        W88010  23.758  37.299   0.460
17411W        W88011  22.217  33.769  12.060
17412W        W88012   3.072  35.400   0.257
17413W        W88013  34.493   7.819   4.062
17414W        W88014  18.620  24.890  10.715
17415W        W88015   1.331  22.646   1.061
17416W        W88016  32.507   6.556   1.782
17417W        W88017  42.467   0.810   4.294
17418W        W88018  43.418   0.920  12.869
17419W        W88019  20.536  20.135  14.974
17420W        W88020  35.050  33.043   2.288
17421W        W88021  34.528  33.928   3.768
17422W        W88022  28.941  41.996  13.791
17423W        W88023   7.512   8.632  13.912
17424W        W88024  15.845  36.921   4.203
17425W        W88025  23.435  41.818   4.457
17426W        W88026  30.671  23.147  13.603
17427W        W88027  18.568  18.922   4.253
17428W        W88028  36.586  43.044  14.254
17429W        W88029  23.519  22.854  12.086
17430W        W88030  11.906   0.919   1.939
17431W        W88031  30.710  25.128   0.007
17432W        W88032  10.241  10.400   3.633
17433W        W88033   7.156   5.277  10.381
17434W        W88034  36.685  16.752  13.785
17435W        W88035  11.471  40.632  13.504
17436W        W88036   3.340  35.235   9.951
17437W        W88037  13.885  28.195   2.281
17438W        W88038  13.340  39.022   2.815
17439W        W88039  31.052  42.778   3.734
17440W        W88040  32.613  13.702  12.413
17441W        W88041  39.248  31.635  10.718
17442W        W88042  10.686  37.441  12.014
17443W        W88043   0.229  11.128  12.387
17444W        W88044   8.997  22.980  10.505
17445W        W88045   7.740  18.816   1.306
17446W        W88046  36.285  20.997  14.757
17447W        W88047  12.712  22.500   3.222
17448W        W88048  15.726  18.090   0.211
17449W        W88049  35.016  28.617   4.090
17450W        W88050  34.746  39.484  11.171
17451W        W88051  22.746  26.584   4.258
17452W        W88052  31.264   1.289   4.802
17453W        W88053   8.700  29.800   5.035
17454W        W88054  33.510  34.080   3.906
17455W        W88055   3.287  29.611   0.315
17456W        W88056  32.902  16.604   4.219
17457W        W88057   0.198  42.264   3.609
17458W        W88058   1.746   8.155   3.180
17459W        W88059  22.480  36.396  11.196
17460W        W88060  24.741  26.868   2.400
17461W        W88061  40.010  19.498  13.531
17462W        W88062  18.156  40.506   2.905
17463W        W88063  14.565  36.809  10.924
17464W        W88064  14.784  18.284  13.512
17465W        W88065  41.372  23.183  14.951
17466W        W88066  35.030  35.313  11.151
17467W        W88067   1.935  20.964  12.994
17468W        W88068   0.979  21.066   4.694
17469W        W88069  36.259  10.065   4.030
17470W        W88070  13.163   1.923   2.339
17471W        W88071   2.908  25.770  12.800
17472W        W88072  17.741  21.062   0.471
17473W        W88073  21.483  25.026  14.706
17474W        W88074  29.714  28.007   4.206
17475W        W88075  13.908  39.701   3.134
17476W        W88076   8.406  38.053   1.155
17477W        W88077  25.264  19.325   0.892
17478W        W88078  19.057  26.881   1.248
17479W        W88079  41.605  33.467   4.953
17480W        W88080  16.604  38.903   2.096
17481W        W88081  38.416   2.401   0.530
17482W        W88082  11.167  18.722   0.833
17483W        W88083  32.378  34.038  11.825
17484W        W88084  12.577  22.495  10.788
17485W        W88085  24.171  34.110  13.003
17486W        W88086  29.149  23.565   3.022
17487W        W88087  37.566   9.206   2.268
17488W        W88088  41.488   1.886  11.621
17489W        W88089  23.191  34.487  14.350
17490W        W88090  22.747   4.754  14.470
17491W        W88091  38.643  35.393  10.679
17492W        W88092  37.365   9.848   2.190
17493W        W88093  11.719  10.613   4.870
17494W        W88094  11.996   0.870  10.740
17495W        W88095  14.836  23.929   3.705
17496W        W88096  44.238  27.915   4.818
17497W        W88097  11.654   2.177   1.440
17498W        W88098  42.957  23.621   0.020
17499W        W88099  44.236   9.720  12.579
17500W        W88100  38.380  22.100   2.390
17501W        W88101  35.567  33.652  14.483
17502W        W88102  22.467   5.319   0.719
17503W        W88103  35.589  15.139  12.911
17504W        W88104  27.711  27.538   4.856
17505W        W88105  32.193  42.459  12.545
17506W        W88106  34.447  27.090  12.117
17507W        W88107  34.003  29.357   4.861
17508W        W88108   5.632  38.364   1.258
17509W        W88109  39.779  20.741  12.966
17510W        W88110  23.187  37.750   4.410
17511W        W88111  15.665  10.347   3.671
17512W        W88112  32.329  23.260  11.919
17513W        W88113   1.858  37.106  10.435
17514W        W88114  39.084  11.651   0.035
17515W        W88115  15.596  12.253  13.021
17516W        W88116   4.306   0.545  13.273
17517W        W88117  20.417  40.887  13.617
17518W        W88118  31.401  36.565  14.908
17519W        W88119  26.218  39.984   0.867
17520W        W88120  10.542  34.123   3.673
17521W        W88121  19.523   5.178   0.265
17522W        W88122   7.096  42.383  10.753
17523W        W88123  43.344  29.740  14.068
17524W        W88124  42.704  12.852   3.880
17525W        W88125  30.873  29.648  13.528
17526W        W88126  28.708  27.659   4.530
17527W        W88127   3.734  39.428  13.948
17528W        W88128  27.509   1.902  11.364
17529W        W88129  11.097  28.708  14.842
17530W        W88130  14.643  20.735   2.877
17531W        W88131   0.030  41.420  14.881
17532W        W88132  20.026  33.903  12.634
17533W        W88133   8.258  22.012   1.304
17534W        W88134  36.898  13.792  13.074
17535W        W88135  28.111  35.469   2.273
17536W        W88136   1.526  19.701  10.800
17537W        W88137  13.105  37.072   1.460
17538W        W88138  33.582  38.720  12.896
17539W        W88139  15.121  11.690   0.227
17540W        W88140  10.385  13.584  12.658
17541W        W88141  20.580  14.561   1.728
17542W        W88142  18.262   0.221  13.184
17543W        W88143  41.940  30.369  13.729
17544W        W88144  35.757   8.801  11.582
17545W        W88145  40.247  36.983   1.824
17546W        W88146  24.652   7.595  14.615
17547W        W88147   2.472  31.523  12.862
17548W        W88148   3.307   8.853  10.968
17549W        W88149  14.166  24.135  13.007
17550W        W88150   0.129  31.620   2.300
17551W        W88151   6.189  31.891   3.690
17552W        W88152  23.658  37.395  10.750
17553W        W88153   3.608  29.291  14.412
17554W        W88154   9.158   3.963  12.902
17555W        W88155  12.549  16.703  11.544
17556W        W88156  22.649  27.780  10.297
17557W        W88157  33.051  13.918  13.045
17558W        W88158  23.813  30.513   1.817
17559W        W88159   4.430  23.093  10.658
17560W        W88160  18.703  30.560  12.383
17561W        W88161   4.278  17.808   1.738
17562W        W88162  18.708   2.807   4.490
17563W        W88163  43.339  39.226   3.459
17564W        W88164  13.645  26.725   3.789
17565W        W88165  29.713  22.680   1.210
17566W        W88166  10.028   4.319  12.619
17567W        W88167  12.213   9.719   1.491
17568W        W88168  34.932  34.432  14.494
17569W        W88169   4.906  35.083   1.885
17570W        W88170  43.173   5.747   1.248
17571W        W88171  31.081  13.119  10.731
17572W        W88172  13.225  27.516  14.289
17573W        W88173   5.253  17.326  12.959
17574W        W88174   1.896   3.691   1.988
17575W        W88175  12.827  16.376  14.613
17576W        W88176   2.256  27.675   3.575
17577W        W88177  25.922  19.749  14.969
17578W        W88178   8.245  43.134   0.259
17579W        W88179  31.889  19.595   2.227
17580W        W88180  39.401  44.478   0.727
17581W        W88181  37.526  25.934   0.689
17582W        W88182  29.664   6.355  14.118
17583W        W88183  28.022  34.518   2.788
17584W        W88184  14.191  29.904  12.566
17585W        W88185  24.890  31.914   3.639
17586W        W88186   5.814  29.564  11.859
17587W        W88187  22.690  15.040   1.866
17588W        W88188  37.342  12.702  11.313
17589W        W88189  17.319   4.963  12.124
17590W        W88190  27.975  30.656   2.107
17591W        W88191  13.215  13.118  10.952
17592W        W88192   6.100  13.076  14.661
17593W        W88193  20.174  25.502  14.352
17594W        W88194   1.219  12.890   3.689
17595W        W88195  41.971   6.811   0.899
17596W        W88196   5.875  21.219   1.842
17597W        W88197  32.392  22.073  11.615
17598W        W88198   2.751  31.013  14.936
17599W        W88199   2.681  28.082   1.666
17600W        W88200  30.010  31.861  14.508
17601W        W88201  32.454  43.404   3.121
17602W        W88202  14.275  20.006  10.642
17603W        W88203  30.079  10.732  13.970
17604W        W88204  17.623   5.770  11.117
17605W        W88205  26.503   4.233  13.367
17606W        W88206  20.714  20.212   2.911
17607W        W88207  44.411  17.336  12.909
17608W        W88208   1.994   1.360   0.814
17609W        W88209  12.757  10.790  11.898
17610W        W88210  21.981  40.156  14.428
17611W        W88211  16.067  43.445   3.626
17612W        W88212  20.514  33.904  12.489
17613W        W88213  35.715  19.450   2.928
17614W        W88214   2.310  25.946  13.508
17615W        W88215  24.998  12.303  12.060
17616W        W88216  40.693   4.970   2.236
17617W        W88217  17.315  44.358  11.029
17618W        W88218  20.513  42.996  10.662
17619W        W88219  38.249  18.175   1.698
17620W        W88220  34.392  26.541   3.655
17621W        W88221  22.166   7.454  11.243
17622W        W88222  10.844  36.601  12.043
17623W        W88223  32.454  35.997  12.607
17624W        W88224  38.363  18.285   0.258
17625W        W88225  19.764  23.366   4.905
17626W        W88226  30.526  30.698   2.833
17627W        W88227  13.263  39.430   3.700
17628W        W88228  26.030  19.613   4.721
17629W        W88229   5.790  18.063   3.296
17630W        W88230  21.586  19.681   1.173
17631W        W88231  11.267  39.957   0.794
17632W        W88232  37.587  31.506  13.015
17633W        W88233  28.675  34.534   0.519
17634W        W88234  22.471  37.976  13.300
17635W        W88235  36.808  35.868  12.474
17636W        W88236  38.609  17.199   1.186
17637W        W88237  20.284  21.956  14.803
17638W        W88238  36.435   3.830   0.497
17639W        W88239   8.776  26.394   0.498
17640W        W88240   8.946  15.518  10.766
17641W        W88241  17.806  39.285   1.431
17642W        W88242  40.804  42.782  11.193
17643W        W88243  15.750   2.972  13.363
17644W        W88244  16.617   7.192   2.966
17645W        W88245  32.178   1.697  11.036
17646W        W88246   2.497  34.044   0.370
17647W        W88247  20.323  42.237   2.982
17648W        W88248  14.650  44.049  14.414
17649W        W88249  27.507  43.421   4.546
17650W        W88250  29.379   2.884  11.943
17651W        W88251  10.231   0.277   2.459
17652W        W88252  20.909  24.273  12.689
17653W        W88253  22.558  13.164   4.443
17654W        W88254  10.128  16.278   4.350
17655W        W88255  22.228  25.701   4.113
17656W        W88256  32.055  18.313  11.584
17657W        W88257  28.077   1.326  10.770
17658W        W88258  13.010  44.061   1.925
17659W        W88259  20.994  11.879   1.286
17660W        W88260  27.977   8.710   1.874
17661W        W88261  17.097  43.534  13.417
17662W        W88262  37.840  16.053  13.065
17663W        W88263  34.231  26.431  12.160
17664W        W88264   4.032  28.150   4.407
17665W        W88265  33.600  15.666   3.257
17666W        W88266  15.222   3.839  14.334
17667W        W88267   0.376   8.850  11.562
17668W        W88268   8.433   1.892   1.280
17669W        W88269   1.982  22.781  11.921
17670W        W88270  38.870  23.993  12.783
17671W        W88271  30.806  17.814   3.228
17672W        W88272  33.541   1.689  14.537
17673W        W88273  14.388  11.999   4.951
17674W        W88274  44.018  23.940   3.193
17675W        W88275  34.686   1.491  13.147
17676W        W88276  18.092  10.170   3.673
17677W        W88277  38.641  35.172  11.135
17678W        W88278   9.243  19.982  13.841
17679W        W88279  35.983  42.880  11.396
17680W        W88280  13.425  10.796   3.188
17681W        W88281  11.209  18.002   4.671
17682W        W88282  31.909  37.368   2.831
17683W        W88283  21.639   4.151  14.296
17684W        W88284  22.027  19.741  12.656
17685W        W88285  28.848   9.313  13.627
17686W        W88286  33.495  43.710  13.353
17687W        W88287   1.450   4.978  12.604
17688W        W88288  36.455   4.239   2.649
17689W        W88289  15.282  44.559   3.263
17690W        W88290  20.950  34.626   2.417
17691W        W88291   3.484  31.244   0.400
17692W        W88292  26.860   0.884   1.356
17693W        W88293  36.184  25.413   0.792
17694W        W88294  33.334   6.816   2.808
17695W        W88295  11.041  42.879   0.858
17696W        W88296  23.555  16.102   4.525
17697W        W88297  25.201   8.837   2.320
17698W        W88298  39.773   4.284  10.317
17699W        W88299  20.942  17.745  10.713
17700W        W88300  10.847  18.134   2.848
17701W        W88301  14.272  35.097   3.629
17702W        W88302  13.200   2.916   0.761
17703W        W88303  25.191   7.141   2.395
17704W        W88304   0.330   5.436   3.593
17705W        W88305   5.526   4.249  11.967
17706W        W88306  27.425  16.264   0.658
17707W        W88307   1.216  28.428   4.138
17708W        W88308  37.663  32.148   2.807
17709W        W88309  34.108  21.479   0.491
17710W        W88310   1.846  17.845   3.772
17711W        W88311  44.305  12.812   1.449
17712W        W88312  11.203  44.307   2.272
17713W        W88313  15.254  28.266   4.176
17714W        W88314   1.787  22.050  13.833
17715W        W88315  25.589  20.477   0.419
17716W        W88316  34.165  32.517   4.822
17717W        W88317  27.919  21.406  13.515
17718W        W88318   1.871   4.912  13.899
17719W        W88319  14.178  18.173   0.404
17720W        W88320  11.666  30.564   4.101
17721W        W88321  13.156  29.388   2.236
17722W        W88322  33.388  14.546   4.367
17723W        W88323  17.521  18.114  11.579
17724W        W88324  13.713  40.506   3.969
17725W        W88325  21.199   5.382   0.331
17726W        W88326  31.938  19.182  13.076
17727W        W88327   2.236  18.162   3.674
17728W        W88328  29.918   2.972  11.767
17729W        W88329  28.346  41.292  10.627
17730W        W88330  24.091   7.265   0.211
17731W        W88331  19.446   1.875  14.827
17732W        W88332  15.096   6.132   2.410
17733W        W88333  32.064  17.317  14.995
17734W        W88334  34.344  16.164   0.299
17735W        W88335   4.818  32.504   0.898
17736W        W88336   6.172   9.078   3.713
17737W        W88337  19.295  20.238   2.764
17738W        W88338  25.353  39.497  11.961
17739W        W88339  22.241  12.317   0.490
17740W        W88340  39.072  21.965   2.895
17741W        W88341  22.111  19.104   3.093
17742W        W88342  11.307  40.344   3.143
17743W        W88343  26.143  18.206   4.890
17744W        W88344  41.486  27.078  14.768
17745W        W88345  22.087  20.450   4.152
17746W        W88346   3.139  41.313   0.727
17747W        W88347  19.076  18.890   4.165
17748W        W88348  33.185  34.028   2.621
17749W        W88349  14.107   5.688   3.912
17750W        W88350  31.634  35.374   2.991
17751W        W88351  18.807   9.261   1.714
17752W        W88352  38.999  32.306   1.791
17753W        W88353   6.882  30.931   4.867
17754W        W88354  33.040   1.752  12.053
17755W        W88355  41.444  22.972  14.486
17756W        W88356  35.832  31.615   3.329
17757W        W88357  23.232  32.844   1.022
17758W        W88358  35.581  35.153   3.662
17759W        W88359  30.957  44.023  12.815
17760W        W88360  36.848  19.088   0.919
17761W        W88361  19.541  11.096  14.858
17762W        W88362   9.197  31.380   0.382
17763W        W88363   8.414  44.445   3.912
17764W        W88364  13.223   1.306  14.348
17765W        W88365  20.561   6.282  11.539
17766W        W88366  17.746  30.535   0.479
17767W        W88367  21.754  18.231   4.302
17768W        W88368  41.272   1.353  12.420
17769W        W88369  17.018   0.580  10.187
17770W        W88370  18.077  16.100  14.030
17771W        W88371  37.502  32.557  14.927
17772W        W88372   2.340  44.018   2.614
17773W        W88373   1.894  31.083   3.281
17774W        W88374  15.833  14.761   5.030
17775W        W88375  20.137  43.256  14.909
17776W        W88376  11.373  32.664   2.255
17777W        W88377  20.929  29.301   1.930
17778W        W88378  24.477   9.419  14.350
17779W        W88379   2.383  14.790  14.941
17780W        W88380  29.167  17.594  13.834
17781W        W88381  28.714  42.380   3.867
17782W        W88382  18.980   8.985   2.801
17783W        W88383  23.260  44.859   9.755
17784W        W88384   1.829  27.429   4.673
17785W        W88385   5.855  18.777   4.697
17786W        W88386  12.229  28.635  13.319
17787W        W88387  10.892   9.009  14.867
17788W        W88388  19.061   5.836   2.258
17789W        W88389  26.712  21.468   3.628
17790W        W88390  16.777  33.757  11.175
17791W        W88391  38.740   1.668   2.898
17792W        W88392  13.223  44.423  12.625
17793W        W88393  23.995  37.031   0.832
17794W        W88394  17.085  33.660   2.325
17795W        W88395  39.931  35.802   3.213
17796W        W88396   2.077  18.852  14.971
17797W        W88397  28.148  39.813   3.208
17798W        W88398  23.765   3.141   4.860
17799W        W88399  43.929  37.235  12.784
17800W        W88400  11.017  27.152  11.146
17801W        W88401  15.120  15.209   0.929
17802W        W88402   0.564  11.155   1.700
17803W        W88403  35.059  12.643  13.057
17804W        W88404  10.866   0.315   4.091
17805W        W88405  17.438  30.413   5.171
17806W        W88406   6.940  12.109   0.347
17807W        W88407  37.607  42.252  11.476
17808W        W88408  42.474   8.272   4.445
17809W        W88409  14.656  31.308  13.257
17810W        W88410   4.182  16.551   0.358
17811W        W88411  34.511  27.787   4.270
17812W        W88412  40.102   0.289  12.452
17813W        W88413  32.573  22.761  13.066
17814W        W88414   0.352   6.206  14.972
17815W        W88415  24.468  38.475  11.572
17816W        W88416  20.872   2.315   0.117
17817W        W88417   8.233  42.795   2.767
17818W        W88418   2.656  25.073   1.681
17819W        W88419   5.547  34.301  14.316
17820W        W88420  11.711   3.011  10.516
17821W        W88421   1.331   0.780  14.906
17822W        W88422  14.793  43.394  12.527
17823W        W88423   8.509  38.340  13.536
17824W        W88424  41.789  14.296  14.397
17825W        W88425  25.627   7.455   3.351
17826W        W88426  42.085  24.483   1.443
17827W        W88427   7.003  14.241  12.042
17828W        W88428  20.557  32.395  13.853
17829W        W88429  32.027  25.971  13.039
17830W        W88430  33.065   6.820   4.632
17831W        W88431  43.756   7.349  14.865
17832W        W88432  31.498  19.344  12.528
17833W        W88433  34.443   8.365   1.020
17834W        W88434  22.102  23.190   4.932
17835W        W88435  32.986  23.467  10.907
17836W        W88436  19.504  23.987   3.223
17837W        W88437   8.814  41.955  14.378
17838W        W88438  36.371  20.534   0.638
17839W        W88439  32.138   4.757   3.734
17840W        W88440  44.416  44.774  12.435
17841W        W88441  42.382  13.349  14.812
17842W        W88442  37.416  26.228   1.149
17843W        W88443  23.256  19.845   3.380
17844W        W88444   1.468  19.626  13.434
17845W        W88445   2.849  10.065   3.318
17846W        W88446  34.349  20.502  14.820
17847W        W88447  29.064  19.028  11.309
17848W        W88448  29.351  26.682  10.119
17849W        W88449  20.363  13.837  14.002
17850W        W88450   7.415  13.957  11.979
17851W        W88451  11.019   0.889   4.216
17852W        W88452  37.881   7.104   3.667
17853W        W88453  33.170  33.470  12.849
17854W        W88454  11.612  39.447  14.021
17855W        W88455  14.011  38.841   9.706
17856W        W88456  36.090   5.666   1.270
17857W        W88457  31.947  26.256  10.827
17858W        W88458  44.437   8.123  13.226
17859W        W88459   9.747  41.377   3.263
17860W        W88460   7.548  28.549   4.326
17861W        W88461   2.546  13.963   4.013
17862W        W88462  29.542  33.489  11.968
17863W        W88463  39.548   6.829   0.946
17864W        W88464  35.368  15.156   2.742
17865W        W88465  22.062   4.880   0.174
17866W        W88466  28.388  17.239  10.247
17867W        W88467  32.531  23.255  13.225
17868W        W88468   4.510   5.224  13.788
17869W        W88469  37.333  31.016  14.066
17870W        W88470  42.354  38.939   3.289
17871W        W88471  13.392  33.538  11.598
17872W        W88472  10.545  27.914   0.449
17873W        W88473  41.481   4.669  14.913
17874W        W88474  36.047  41.650  14.856
17875W        W88475   4.198  44.672   2.787
17876W        W88476   6.781  23.489   0.761
17877W        W88477  17.852  12.830  14.046
17878W        W88478  38.785  24.376  12.399
17879W        W88479  36.313  11.918   2.462
17880W        W88480  15.628  37.859  12.489
17881W        W88481  10.318  41.892   1.946
17882W        W88482  20.529  21.183   0.437
17883W        W88483  22.829  19.359  14.746
17884W        W88484  37.432  10.971   0.335
17885W        W88485   9.592  11.491   4.316
17886W        W88486  20.062  10.944   3.276
17887W        W88487  25.396  11.908  12.980
17888W        W88488  41.213   6.716   5.476
17889W        W88489   5.338  25.224   1.333
17890W        W88490  32.538  23.732  12.001
17891W        W88491   5.905  43.972  13.984
17892W        W88492  41.178   1.901   5.043
17893W        W88493   7.426  36.861   2.705
17894W        W88494  24.562  43.477   0.525
17895W        W88495  40.942  36.233  11.311
17896W        W88496  32.332  22.670   2.731
17897W        W88497  18.849   0.705   2.699
17898W        W88498  42.887   4.357   3.185
17899W        W88499  27.529  16.655   3.723
17900W        W88500  16.805  18.338  11.957
17901W        W88501  22.145  17.233   4.246
17902W        W88502  21.506  36.818   4.842
17903W        W88503  11.162   4.874  12.075
17904W        W88504  33.419  33.971   0.237
17905W        W88505  16.688  15.197   3.289
17906W        W88506   3.804  25.511   4.702
17907W        W88507  36.680  18.081  12.032
17908W        W88508   9.655   8.244   2.819
17909W        W88509  40.616  32.571   2.216
17910W        W88510  41.333  40.014  12.925
17911W        W88511  41.529   1.976  10.703
17912W        W88512   3.205  14.332   1.320
17913W        W88513  14.894  14.859   2.617
17914W        W88514  31.564  37.911  11.940
17915W        W88515  22.165  18.671  12.178
17916W        W88516  41.967  18.185   2.240
17917W        W88517  44.109  11.912   0.918
17918W        W88518  14.205  34.308  11.660
17919W        W88519  28.909  42.512   1.279
17920W        W88520   0.417  23.192  12.105
17921W        W88521  17.748  37.621   2.951
17922W        W88522  14.981  29.315  14.405
17923W        W88523   9.645  31.087   2.593
17924W        W88524  43.842  11.385  13.491
17925W        W88525   0.959  37.558   0.287
17926W        W88526   4.780  13.375  11.407
17927W        W88527  13.318   5.264   3.755
17928W        W88528  14.638   5.612   3.817
17929W        W88529  26.055  24.255  12.150
17930W        W88530  21.289  10.252  14.318
17931W        W88531  27.239  11.219   2.353
17932W        W88532   8.908  10.748  13.374
17933W        W88533  15.590  31.936  13.884
17934W        W88534  23.459  10.868   2.781
17935W        W88535   7.312  31.031  12.851
17936W        W88536  17.033  39.877   1.155
17937W        W88537  18.731  12.479   1.539
17938W        W88538  25.944  41.245   1.286
17939W        W88539   2.377  25.925  14.565
17940W        W88540  41.633   5.534  12.985
17941W        W88541  25.732  25.178   5.031
17942W        W88542  15.668   8.558   2.004
17943W        W88543   3.993   4.231   4.448
17944W        W88544  10.199   7.221   4.036
17945W        W88545  33.627  16.096  12.514
17946W        W88546  16.322  41.396   0.464
17947W        W88547  14.202  33.677   0.463
17948W        W88548  43.149  32.641   4.060
17949W        W88549  30.441  12.768  12.466
17950W        W88550  35.593  12.918  12.888
17951W        W88551  25.118  33.875   3.369
17952W        W88552  38.817  24.686   0.569
17953W        W88553  17.811   9.747  14.018
17954W        W88554  23.046  33.985  14.333
17955W        W88555   1.755  18.672  13.833
17956W        W88556   3.537  39.237   0.817
17957W        W88557  21.176  13.751  12.531
17958W        W88558   4.058  17.809  14.058
17959W        W88559  19.155  36.070   4.736
17960W        W88560  19.053  44.918  11.107
17961W        W88561  31.213  35.524   3.689
17962W        W88562  33.086   7.771   2.156
17963W        W88563  41.993  18.566   2.760
17964W        W88564  38.939   9.429   0.600
17965W        W88565  25.488   1.381  11.654
17966W        W88566   2.964   1.890  12.268
17967W        W88567  29.653  28.598   3.003
17968W        W88568   6.399   7.113   2.787
17969W        W88569  17.843   6.291   3.663
17970W        W88570   6.358  12.295   3.176
17971W        W88571  24.657   5.010  12.799
17972W        W88572   7.465   8.290   4.533
17973W        W88573   9.631  28.838   3.241
17974W        W88574  34.252  12.618  13.403
17975W        W88575  28.169  41.541  11.938
17976W        W88576   3.696  37.811  14.383
17977W        W88577  28.438  42.343   0.339
17978W        W88578  23.549  38.857   2.651
17979W        W88579  21.308  44.393   2.747
17980W        W88580  34.128  32.260   3.142
17981W        W88581  14.954  37.404   1.762
17982W        W88582  21.570   8.342   0.853
17983W        W88583  37.764  41.675   4.642
17984W        W88584  38.524  25.410  13.899
17985W        W88585  36.900  14.419   3.771
17986W        W88586   0.461   6.036  14.464
17987W        W88587   0.490  38.975   2.271
17988W        W88588  41.017  30.380   2.074
17989W        W88589  23.327  43.438  13.696
17990W        W88590  17.129  31.832  14.855
17991W        W88591  36.960  10.620   3.571
17992W        W88592  18.777   8.727   2.396
17993W        W88593  12.993  33.966  14.789
17994W        W88594  12.589  28.563  10.606
17995W        W88595  15.681  18.544   1.531
17996W        W88596  21.379  11.354  10.031
17997W        W88597  24.478   6.239   4.110
17998W        W88598  35.567  10.093  12.084
17999W        W88599   2.723  40.846  12.596
18000W        W88600  11.810  37.658  13.450
18001W        W88601  18.158   1.791  13.260
18002W        W88602  26.687  21.044   4.927
18003W        W88603  13.852  20.703  12.567
18004W        W88604  15.716  27.029  13.965
18005W        W88605   0.518  41.842  13.039
18006W        W88606   0.229  41.664  14.439
18007W        W88607   2.954  28.611   2.352
18008W        W88608  28.444  32.568  10.063
18009W        W88609  43.688   9.205  11.967
18010W        W88610  18.921   0.310   1.532
18011W        W88611  42.761  41.270   1.275
18012W        W88612   5.348   5.429  14.751
18013W        W88613  32.168  19.164   2.336
18014W        W88614  17.252  23.243  13.560
18015W        W88615  36.023  18.227   2.333
18016W        W88616  16.299  19.638  13.022
18017W        W88617   5.440  29.683  13.939
18018W        W88618  11.365  15.361   4.143
18019W        W88619  31.951  31.008   4.898
18020W        W88620   1.899  17.035   3.313
18021W        W88621  34.118  40.337   3.781
18022W        W88622  33.043  11.721  12.023
18023W        W88623   4.377  43.792   1.247
18024W        W88624   1.451  41.400   1.399
18025W        W88625  19.612  25.497   0.765
18026W        W88626   9.092   1.216   4.188
18027W        W88627  44.379  23.423  11.229
18028W        W88628  11.298   9.672   2.518
18029W        W88629  15.139  41.891   0.357
18030W        W88630  42.245  33.868   4.241
18031W        W88631  34.868   8.445   2.000
18032W        W88632   9.768  26.653  12.865
18033W        W88633  34.861  16.924   4.067
18034W        W88634  44.559  41.598   0.840
18035W        W88635  15.154  23.528   1.756
18036W        W88636  34.457  22.532   0.786
18037W        W88637  38.996  13.366  10.800
18038W        W88638  24.570  17.068   0.143
18039W        W88639   4.226  38.412  13.927
18040W        W88640  12.795  16.791  13.867
18041W        W88641  14.623   4.634   4.693
18042W        W88642  42.974  12.883   4.654
18043W        W88643  26.073  16.175  14.902
18044W        W88644  12.431   9.695   2.700
18045W        W88645  25.514   9.984  12.124
18046W        W88646  21.177  16.035   2.645
18047W        W88647  32.134   2.482   0.725
18048W        W88648   3.692  43.412  14.503
18049W        W88649  23.250  17.920   1.866
18050W        W88650  28.951  24.223  10.678
18051W        W88651   1.789  16.253  12.464
18052W        W88652  40.296   1.362  10.826
18053W        W88653  27.901   1.457  12.039
18054W        W88654  11.128  16.484  10.978
18055W        W88655   4.365  21.490   2.244
18056W        W88656  23.502  23.840  14.392
18057W        W88657   9.767   1.359  12.781
18058W        W88658  19.781  23.266   1.838
18059W        W88659  16.125  26.698   0.450
18060W        W88660   5.882  36.332  11.199
18061W        W88661  33.981   4.680  14.061
18062W        W88662  41.261  25.963  13.725
18063W        W88663  22.720   4.414   0.299
18064W        W88664  27.031  21.983   2.996
18065W        W88665   0.851  10.533  11.984
18066W        W88666   5.953  19.939  11.154
18067W        W88667  42.551   6.455  13.047
18068W        W88668  42.035   1.348  13.601
18069W        W88669  29.725  24.619  12.670
18070W        W88670  19.647  35.588   2.879
18071W        W88671  28.965  13.148  13.985
18072W        W88672  17.270  29.371  12.361
18073W        W88673   2.862  29.489   5.070
18074W        W88674  13.713  21.147   1.507
18075W        W88675   5.048  23.091   4.720
18076W        W88676  22.882  28.187  10.519
18077W        W88677  26.539   2.419  10.720
18078W        W88678  19.794   8.370  12.695
18079W        W88679  41.961   5.490  10.160
18080W        W88680  39.133  19.717  12.969
18081W        W88681  17.764  38.329  13.012
18082W        W88682   3.062  15.799   1.371
18083W        W88683   2.406  25.919   1.756
18084W        W88684  25.985  38.067  12.855
18085W        W88685  38.988  34.890   1.364
18086W        W88686   5.908  44.345  13.316
18087W        W88687  40.513  19.914   0.003
18088W        W88688   7.639  29.308   0.099
18089W        W88689  21.499  42.006  14.375
18090W        W88690  23.358  23.657  12.431
18091W        W88691  14.128   6.813  14.429
18092W        W88692  21.720  38.734  11.662
18093W        W88693  11.647  33.334  13.886
18094W        W88694   8.215  44.301   4.568
18095W        W88695  42.402   0.777  14.705
18096W        W88696  29.677  21.097  13.682
18097W        W88697  28.634  37.813  11.968
18098W        W88698   0.948  41.523   1.339
18099W        W88699  19.375  14.163   1.246
18100W        W88700  11.690  42.200   4.168
18101W        W88701  28.971  17.820   1.309
18102W        W88702  36.078   4.915   3.817
18103W        W88703  38.322  41.516  14.294
18104W        W88704  32.453  19.101  11.949
18105W        W88705  36.137   6.144   2.710
18106W        W88706   8.992  35.489   4.605
18107W        W88707  28.341   5.782  11.526
18108W        W88708  25.112   9.305   1.691
18109W        W88709  42.452  33.965   2.661
18110W        W88710  42.036   2.865  11.135
18111W        W88711  43.808   0.501   3.575
18112W        W88712  35.536  29.947   0.034
18113W        W88713   9.290   8.193   1.204
18114W        W88714  23.644  37.905  14.612
18115W        W88715   5.544  43.456  10.690
18116W        W88716  42.082   9.618   1.655
18117W        W88717   0.218  34.544  11.157
18118W        W88718  24.057  14.593  14.490
18119W        W88719  29.297  29.714  13.632
18120W        W88720   2.451  25.013  13.445
18121W        W88721  43.994   6.429  10.405
18122W        W88722   7.353  27.977  14.985
18123W        W88723  21.176  29.600  10.431
18124W        W88724  39.258  36.265   2.573
18125W        W88725  36.751  11.258   2.918
18126W        W88726   4.813   4.665  11.873
18127W        W88727   2.896  15.638  10.667
18128W        W88728  25.502  34.588  13.040
18129W        W88729  26.039  23.307  12.640
18130W        W88730  25.647  25.717  13.497
18131W        W88731  15.365  25.584   1.453
18132W        W88732   5.279   6.672  14.288
18133W        W88733  18.520  24.695   5.322
18134W        W88734  31.019  26.982  12.522
18135W        W88735  27.512  20.322   4.144
18136W        W88736  19.934  44.051   4.085
18137W        W88737  40.977   2.786  14.800
18138W        W88738  26.629  40.813   1.870
18139W        W88739  11.704  17.833  14.766
18140W        W88740   7.754  22.010   2.924
18141W        W88741  18.981   0.508   2.234
18142W        W88742  43.405  17.179  12.451
18143W        W88743  16.987   5.958  11.887
18144W        W88744  28.354  28.865  13.018
18145W        W88745  36.394  14.066  11.158
18146W        W88746   0.242   6.374  10.600
18147W        W88747  15.239  11.214  14.978
18148W        W88748  35.518   4.355   4.436
18149W        W88749   8.226  40.201  11.639
18150W        W88750  21.099  25.185   0.012
18151W        W88751  10.929  43.406  11.255
18152W        W88752  17.806  41.360  12.108
18153W        W88753  44.713  12.336  12.447
18154W        W88754  42.305  36.928  12.362
18155W        W88755  44.069  26.813  11.059
18156W        W88756   3.607  20.212  12.047
18157W        W88757  40.905  28.523  10.684
18158W        W88758  38.208  35.261  14.292
18159W        W88759   3.458  25.518  10.982
18160W        W88760   1.749  29.364   0.334
18161W        W88761  19.527  33.685   2.076
18162W        W88762  18.615  23.866  10.721
18163W        W88763  26.710  32.534  14.057
18164W        W88764  38.823  32.483  10.736
18165W        W88765  43.478  32.437  13.332
18166W        W88766  43.275  38.525   4.323
18167W        W88767  22.916  32.020   4.592
18168W        W88768  24.140  10.340   2.610
18169W        W88769  29.701   9.151   0.277
18170W        W88770   2.467   0.319   0.663
18171W        W88771  27.288  34.877  11.029
18172W        W88772  13.289  18.643   1.300
18173W        W88773  23.156   4.123   0.175
18174W        W88774  18.639  26.943  11.701
18175W        W88775  11.323  38.556  14.875
18176W        W88776  35.872  23.907  11.134
18177W        W88777  41.525  37.041   3.207
18178W        W88778  23.434  33.209   2.338
18179W        W88779  11.366  43.010  14.452
18180W        W88780  23.474  38.742   4.479
18181W        W88781  29.154   3.223  14.780
18182W        W88782  14.303  16.481   0.407
18183W        W88783  44.619   3.875   1.774
18184W        W88784  29.849  26.170  11.152
18185W        W88785  14.482  19.893  13.049
18186W        W88786   2.753  23.980   0.855
18187W        W88787  18.874  24.661   9.949
18188W        W88788  39.212  10.853  13.383
18189W        W88789  23.492  18.601  12.924
18190W        W88790  42.219  19.976  11.364
18191W        W88791   2.743  44.976  10.752
18192W        W88792  13.820  39.021  14.576
18193W        W88793  34.045  22.245   0.954
18194W        W88794   8.018   9.937   0.378
18195W        W88795  42.646  10.120  14.546
18196W        W88796  39.297  28.426   1.044
18197W        W88797   3.755  30.248   3.593
18198W        W88798  42.428  30.299   3.279
18199W        W88799  28.432  33.615  13.127
18200W        W88800  43.471  30.251  10.401
18201W        W88801  10.610  20.690  14.471
18202W        W88802  15.614  18.250   4.583
18203W        W88803   4.908  23.139   2.272
18204W        W88804   0.356  16.543  11.180
18205W        W88805   0.201   6.783   4.430
18206W        W88806  12.895  19.589  13.877
18207W        W88807   3.678  31.514  14.928
18208W        W88808  18.650  24.790   2.327
18209W        W88809  22.774  14.883  14.511
18210W        W88810  28.219  21.802   3.095
18211W        W88811  14.606   0.038   4.223
18212W        W88812  34.791  40.830  11.160
18213W        W88813  29.164   8.609  10.399
18214W        W88814  29.963  29.175   4.693
18215W        W88815  34.834  21.172  14.949
18216W        W88816  19.173  13.995  11.860
18217W        W88817   2.387  13.940  10.705
18218W        W88818  15.842  20.616   4.650
18219W        W88819   0.662  27.478  13.967
18220W        W88820  11.832  26.396  14.196
18221W        W88821   6.324  10.766  11.888
18222W        W88822  27.926  10.869   4.544
18223W        W88823  10.110   2.002  14.966
18224W        W88824  43.895   3.330   4.256
18225W        W88825   4.198  13.249  13.380
18226W        W88826  32.201   2.738   1.330
18227W        W88827  43.394  36.495   2.229
18228W        W88828  35.984  36.579  13.905
18229W        W88829   5.993  31.498   1.265
18230W        W88830   2.861  12.385   1.818
18231W        W88831   9.325  32.479  13.856
18232W        W88832   0.272   6.823   0.473
18233W        W88833   9.388   9.796   1.344
18234W        W88834  27.475  22.157   3.712
18235W        W88835   9.818   3.224   1.958
18236W        W88836  28.635  43.927   2.679
18237W        W88837  38.099  39.841   4.122
18238W        W88838  32.971   0.389   3.550
18239W        W88839  15.912   7.356  11.660
18240W        W88840  28.246  33.556  13.598
18241W        W88841   3.187  43.472  14.600
18242W        W88842  32.041  32.619  11.999
18243W        W88843  32.502   2.934  11.540
18244W        W88844  28.156  43.350  13.060
18245W        W88845  25.466  39.431  13.807
18246W        W88846  36.688  28.969  13.451
18247W        W88847  31.433  23.815   3.053
18248W        W88848   2.834  10.584   1.153
18249W        W88849   1.164   0.891  12.724
18250W        W88850  40.849   9.752  10.707
18251W        W88851  41.065  43.935   1.255
18252W        W88852  32.880  40.045   2.639
18253W        W88853  32.626  35.543   3.897
18254W        W88854  33.645  15.761  10.165
18255W        W88855  34.917  34.122   4.125
18256W        W88856  32.287   5.961   2.499
18257W        W88857  29.044   0.918  11.661
18258W        W88858  29.023  10.387  12.499
18259W        W88859  27.606   5.283   2.220
18260W        W88860   6.771  35.895  12.021
18261W        W88861  32.979  39.609  11.437
18262W        W88862  22.309  37.532  14.384
18263W        W88863  15.265  36.810   1.191
18264W        W88864  35.872  37.364   4.675
18265W        W88865  15.382  22.992  14.288
18266W        W88866  30.566  29.234   0.378
18267W        W88867   1.431  24.758   2.554
18268W        W88868   5.499  35.983  12.608
18269W        W88869  23.319  29.181  13.355
18270W        W88870   5.543  44.796  14.439
18271W        W88871  20.277  33.465   2.584
18272W        W88872  15.984  26.945   2.265
18273W        W88873  29.742   2.137  13.059
18274W        W88874  34.579  13.283  14.496
18275W        W88875  17.995  15.344  13.372
18276W        W88876   5.356  37.785  11.729
18277W        W88877  15.830  26.096  12.556
18278W        W88878  15.840  38.583  13.997
18279W        W88879   5.290  25.186  11.239
18280W        W88880  34.950  30.732  14.511
18281W        W88881  19.667   3.766   1.767
18282W        W88882  23.672  23.250  14.830
18283W        W88883   1.476  10.181   1.386
18284W        W88884  22.262   9.391   5.098
18285W        W88885  34.687   8.093   3.170
18286W        W88886   3.168  33.011   2.788
18287W        W88887   5.485  32.942  11.659
18288W        W88888  23.751  18.102  13.760
18289W        W88889   6.345  34.047  11.245
18290W        W88890   1.349   8.928   3.464
18291W        W88891  22.965  33.495  10.823
18292W        W88892  18.567  18.133   2.686
18293W        W88893  30.049  23.208  12.057
18294W        W88894  34.082   4.199  13.070
18295W        W88895  26.069  26.198   1.396
18296W        W88896  18.447  31.621   0.212
18297W        W88897  22.633  15.836  14.648
18298W        W88898  38.816  27.341  11.155
18299W        W88899  35.558   6.445  13.648
18300W        W88900  23.994   6.825  12.806
18301W        W88901  39.410  34.144  11.580
18302W        W88902  20.710  17.826   4.162
18303W        W88903  21.716  22.093  12.992
18304W        W88904  44.757  15.392  11.220
18305W        W88905   1.715  27.111  11.765
18306W        W88906  24.004  35.912  10.308
18307W        W88907  31.075  17.809   0.327
18308W        W88908  29.115  36.594   2.302
18309W        W88909  25.346  14.289  13.904
18310W        W88910  20.230  20.827   1.613
18311W        W88911   4.698  42.589   0.813
18312W        W88912   7.217   6.165   3.257
18313W        W88913   5.492  19.615  14.018
18314W        W88914  36.441  28.804   2.251
18315W        W88915  11.572  10.431  12.512
18316W        W88916  11.829  35.541  14.898
18317W        W88917  24.281   1.790  12.421
18318W        W88918  39.057   2.862   2.340
18319W        W88919  23.030  21.363  13.904
18320W        W88920  37.375  40.463  13.974
18321W        W88921  31.534  43.969   0.790
18322W        W88922   0.699  42.818  11.698
18323W        W88923   1.040  38.874   4.082
18324W        W88924  23.592  40.417   4.610
18325W        W88925   5.486  36.746   2.913
18326W        W88926  38.043  30.898  11.677
18327W        W88927  41.500   7.738  13.013
18328W        W88928  23.031  26.620   2.466
18329W        W88929  27.190  11.208   4.161
18330W        W88930  44.739  18.140   1.294
18331W        W88931  19.037   4.472  14.198
18332W        W88932  30.030  24.517  11.561
18333W        W88933  14.163  44.534  12.073
18334W        W88934  34.915  13.774  10.710
18335W        W88935  10.820   1.389  11.378
18336W        W88936  11.316  29.146  12.924
18337W        W88937  36.934   2.470  11.097
18338W        W88938  35.176   8.640   4.167
18339W        W88939  12.901   8.925  11.112
18340W        W88940   0.516  14.178   0.870
18341W        W88941  18.623   1.624  14.811
18342W        W88942   2.645  13.788   0.582
18343W        W88943  13.012  32.983  13.964
18344W        W88944  16.374  26.011  10.608
18345W        W88945  30.131  23.129   4.684
18346W        W88946  15.076  38.456  14.937
18347W        W88947  17.869  28.470   0.253
18348W        W88948   6.114  29.074   1.945
18349W        W88949  25.484  33.562  11.004
18350W        W88950   6.503   6.047  10.912
18351W        W88951   6.044  26.596   4.618
18352W        W88952  26.355  42.902   2.643
18353W        W88953  11.787  15.065  13.824
18354W        W88954  12.973  38.086   4.191
18355W        W88955  21.576   0.441  13.858
18356W        W88956  30.794  22.747  13.920
18357W        W88957   8.237  24.657   0.795
18358W        W88958  14.710  12.242  13.999
18359W        W88959  38.360   9.070  11.957
18360W        W88960  22.738  22.739  14.497
18361W        W88961  13.851  31.371  13.532
18362W        W88962  11.566  24.278  11.218
18363W        W88963  43.154  34.428   0.866
18364W        W88964  35.466  19.034  11.363
18365W        W88965   9.157  35.846  11.930
18366W        W88966  34.764  14.665  11.507
18367W        W88967   5.504  29.448  13.416
18368W        W88968   4.706  23.869  11.628
18369W        W88969  13.834  23.096   1.710
18370W        W88970   9.102  44.438   2.789
18371W        W88971   4.027  21.439   2.771
18372W        W88972   4.654  15.247  11.257
18373W        W88973  38.636   7.697  14.625
18374W        W88974  41.941  44.453   2.189
18375W        W88975  25.233  24.381   2.622
18376W        W88976  40.794  11.041  12.105
18377W        W88977  22.441  18.579  14.632
18378W        W88978  11.555  26.615  13.247
18379W        W88979  43.274  40.959   1.901
18380W        W88980  36.909  34.757  10.783
18381W        W88981  42.991  11.665  14.044
18382W        W88982   9.896  14.909  13.785
18383W        W88983  13.667   2.619  12.630
18384W        W88984  34.809  24.624  11.549
18385W        W88985  43.891  23.546  11.122
18386W        W88986   4.803  16.213   0.245
18387W        W88987  21.524  12.119  10.889
18388W        W88988  34.838  13.450   3.026
18389W        W88989  15.552  27.913   1.281
18390W        W88990  43.300  40.620   4.645
18391W        W88991  11.248  26.008  12.426
18392W        W88992   8.674  16.739  14.794
18393W        W88993  30.385  18.798   2.170
18394W        W88994  21.586  18.693  11.116
18395W        W88995   2.230  38.049   3.633
18396W        W88996  44.846  28.623   2.727
18397W        W88997   6.775  18.055   3.681
18398W        W88998  19.108  40.891  14.244
18399W        W88999  43.017   1.411  14.980
18400W        W89000  35.699  14.858  12.415
18401W        W89001  15.721   2.942   3.607
18402W        W89002   2.794  32.676   0.312
18403W        W89003  18.157   8.291   0.421
18404W        W89004  28.462  14.135  14.455
18405W        W89005  44.032  36.528  11.542
18406W        W89006  34.101  25.387  12.515
18407W        W89007   8.392  43.329   2.701
18408W        W89008  27.774  11.247  10.708
18409W        W89009  41.369  38.855  13.375
18410W        W89010  13.364   3.422   4.701
18411W        W89011  17.938  43.412   4.829
18412W        W89012  12.583   2.225  14.161
18413W        W89013  25.457  43.985  11.562
18414W        W89014  39.210   9.267  12.125
18415W        W89015   1.637  23.029   2.324
18416W        W89016   0.756  42.789   4.478
18417W        W89017  34.511  40.359  12.183
18418W        W89018  41.578   2.557   9.696
18419W        W89019  33.051  10.665   4.368
18420W        W89020  29.814  29.762  13.666
18421W        W89021   2.783  11.055   3.355
18422W        W89022  22.057  34.526   0.786
18423W        W89023  44.176  28.926  10.308
18424W        W89024  33.528  15.912  14.798
18425W        W89025  40.390  13.670  11.101
18426W        W89026   5.884  34.663   5.285
18427W        W89027  35.569  22.607  13.879
18428W        W89028  30.388  24.452  13.347
18429W        W89029  28.109  35.652   0.831
18430W        W89030   0.902   4.852   1.101
18431W        W89031  13.714  36.561  13.613
18432W        W89032  18.136  43.782   4.369
18433W        W89033  41.812  41.772   9.772
18434W        W89034  43.814  13.581  10.742
18435W        W89035  24.331  14.015  11.436
18436W        W89036  30.878  29.468  14.444
18437W        W89037  27.149  22.240  14.961
18438W        W89038  16.747  32.244   2.320
18439W        W89039  15.621  21.556  12.066
18440W        W89040  23.935  19.301   0.226
18441W        W89041  36.878   4.190   2.261
18442W        W89042  33.979   6.903   0.691
18443W        W89043  36.246   3.290   5.170
18444W        W89044   5.274  33.399  11.897
18445W        W89045  17.708  13.919  10.757
18446W        W89046  42.847  10.716   3.693
18447W        W89047  12.269  25.727  11.542
18448W        W89048  41.454  36.844  11.973
18449W        W89049   2.441  29.591   3.097
18450W        W89050  28.283   3.186  11.683
18451W        W89051   5.929   9.259   3.316
18452W        W89052   4.166   7.822   2.432
18453W        W89053  14.149  15.628   3.544
18454W        W89054  25.054  42.184  11.256
18455W        W89055  28.988  27.175  10.828
18456W        W89056  12.213  16.429   2.892
18457W        W89057   6.790  27.745   0.507
18458W        W89058  25.692   4.885  14.976
18459W        W89059  25.519  33.799  14.679
18460W        W89060  19.793  11.435  13.936
18461W        W89061  43.235  18.969   2.692
18462W        W89062   5.771  10.648  14.351
18463W        W89063  43.337  22.145  10.966
18464W        W89064   5.048  34.364  14.490
18465W        W89065  25.340  41.353   2.907
18466W        W89066  31.840  17.196  13.984
18467W        W89067   3.180  15.895   3.557
18468W        W89068   3.438  41.305  13.413
18469W        W89069  17.237  13.664  11.623
18470W        W89070  21.503  15.387  10.648
18471W        W89071   6.786  34.914   4.305
18472W        W89072   7.315  44.504  12.501
18473W        W89073  37.017  12.493  12.603
18474W        W89074   6.949  34.521  14.433
18475W        W89075  27.117  34.065   4.638
18476W        W89076  41.841   0.462   4.255
18477W        W89077   8.354  31.409  13.365
18478W        W89078   0.937   1.359  10.675
18479W        W89079  32.017   3.722  14.891
18480W        W89080  24.593  26.668   5.055
18481W        W89081  11.266  29.042   1.201
18482W        W89082   0.951  15.121  13.923
18483W        W89083  37.759  16.906   4.250
18484W        W89084  33.950   2.419   1.854
18485W        W89085  12.177   2.757  12.135
18486W        W89086  41.606  12.615   3.284
18487W        W89087   4.288  25.038   4.555
18488W        W89088  13.820   8.746  12.625
18489W        W89089   7.989  22.221  11.947
18490W        W89090  41.386  29.051   1.233
18491W        W89091  35.770   9.453  10.877
18492W        W89092   4.100  16.153  10.888
18493W        W89093  10.449  40.783  12.990
18494W        W89094  43.729   4.877  12.028
18495W        W89095   4.136   4.502   1.069
18496W        W89096  29.080  44.536  13.995
18497W        W89097   1.815  38.736   1.687
18498W        W89098  10.252  40.079   4.687
18499W        W89099  15.847   0.282   1.990
18500W        W89100  42.346  16.694   4.575
18501W        W89101  12.137  28.452  14.831
18502W        W89102   4.477   8.916  13.632
18503W        W89103  41.577  44.479  12.485
18504W        W89104  23.687  43.220   1.257
18505W        W89105  20.981  38.552   4.677
18506W        W89106  23.147  30.006   0.931
18507W        W89107  36.551  31.700  12.881
18508W        W89108  34.578   4.858   0.449
18509W        W89109  11.206   0.831   0.803
18510W        W89110  38.527  12.830   0.668
18511W        W89111  32.113   3.836  11.207
18512W        W89112  25.734  21.576   3.828
18513W        W89113  22.041  18.147   4.732
18514W        W89114  33.035  41.003  12.655
18515W        W89115  24.694   2.815   3.415
18516W        W89116  11.128  23.431   3.290
18517W        W89117  11.631  24.786  13.420
18518W        W89118  17.205  12.257   0.048
18519W        W89119  28.461  30.990  12.917
18520W        W89120  44.895   5.629  13.524
18521W        W89121  31.134   1.893  12.827
18522W        W89122  15.655  16.657  12.614
18523W        W89123  20.361   2.946   0.215
18524W        W89124  39.642  23.789  14.925
18525W        W89125  14.749  40.025   2.327
18526W        W89126   2.275  27.964   9.794
18527W        W89127  39.636  36.478   0.954
18528W        W89128  39.383  12.040   3.170
18529W        W89129   7.199  13.056   2.824
18530W        W89130   4.411  33.156  12.960
18531W        W89131   1.389  21.580   2.628
18532W        W89132   3.820  13.893  10.799
18533W        W89133  23.848  22.180  14.736
18534W        W89134   2.003  39.531  14.796
18535W        W89135  24.603   9.428  13.451
18536W        W89136   5.726  33.538  11.668
18537W        W89137  37.571  15.615  13.875
18538W        W89138  17.036  40.053  12.521
18539W        W89139  23.138  12.430   1.845
18540W        W89140  22.388  24.558   4.176
18541W        W89141   0.506  34.838   1.771
18542W        W89142  42.397   9.829   0.837
18543W        W89143  27.928   7.261  13.594
18544W        W89144  32.920   3.213   2.259
18545W        W89145  18.909  38.404  14.340
18546W        W89146  25.279  37.459   1.763
18547W        W89147  17.787  37.772   1.315
18548W        W89148   2.451   8.785  10.352
18549W        W89149  33.629  30.032  11.101
18550W        W89150  18.720  44.714   3.682
18551W        W89151  28.590  16.377  12.242
18552W        W89152  44.230  21.052  12.572
18553W        W89153  33.435  10.342   2.900
18554W        W89154  20.527  17.896   0.751
18555W        W89155   9.770  34.832   3.443
18556W        W89156  33.029  36.797  11.471
18557W        W89157   0.981  15.374  11.631
18558W        W89158  44.884  41.431   3.281
18559W        W89159  40.806   1.262   0.720
18560W        W89160  44.325  32.551   1.209
18561W        W89161  25.137  44.307   1.449
18562W        W89162   1.649  36.872  13.355
18563W        W89163  23.157  44.604   3.604
18564W        W89164  29.221   7.374   4.249
18565W        W89165  21.429   2.228   3.359
18566W        W89166  23.122  30.128  11.855
18567W        W89167  39.231  36.027   3.063
18568W        W89168  34.312  27.978   2.218
18569W        W89169  17.259   2.473  14.724
18570W        W89170  23.782  19.218  13.511
18571W        W89171  33.733  39.352  14.505
18572W        W89172  13.299  18.257   0.076
18573W        W89173  27.581  17.664   1.223
18574W        W89174  21.071  12.810  12.386
18575W        W89175  11.727  34.659   0.845
18576W        W89176  23.165  11.931   1.693
18577W        W89177  19.354  10.920  12.822
18578W        W89178  17.057   5.250  10.686
18579W        W89179  21.691  28.943   4.601
18580W        W89180  31.026   2.769  11.398
18581W        W89181  10.680  43.060   2.127
18582W        W89182   7.298   0.258  11.968
18583W        W89183  32.606  29.669   3.744
18584W        W89184  26.216  25.700   0.484
18585W        W89185  11.118  21.893   0.832
18586W        W89186  39.585  18.439   2.719
18587W        W89187  18.017   6.098  14.058
18588W        W89188  20.714  25.045  12.845
18589W        W89189   0.685  26.625   2.739
18590W        W89190  22.959   5.743   2.146
18591W        W89191  40.329  32.013  11.363
18592W        W89192  28.007  37.662  14.893
18593W        W89193  23.662  29.890   1.714
18594W        W89194  34.599  12.827   3.754
18595W        W89195  10.353  41.373   1.958
18596W        W89196   8.323  29.901   2.406
18597W        W89197   3.801  37.395   4.750
18598W        W89198  41.102   5.619  11.738
18599W        W89199   9.369   7.215  12.995
18600W        W89200  17.266   0.653   2.801
18601W        W89201  12.708  44.283  13.819
18602W        W89202  35.161  40.460  13.878
18603W        W89203   6.355  16.661  14.329
18604W        W89204  17.785  27.999   1.780
18605W        W89205  19.547  34.396   1.705
18606W        W89206   9.185  15.207  12.834
18607W        W89207  33.395  20.523  13.789
18608W        W89208  33.530   2.093   3.598
18609W        W89209  24.260  39.006  11.410
18610W        W89210   1.997  40.530   0.259
18611W        W89211  20.193  29.021   3.765
18612W        W89212  40.704  36.498   4.160
18613W        W89213   2.222  15.592   1.808
18614W        W89214  14.252  39.856   2.250
18615W        W89215  41.214  26.503  12.093
18616W        W89216  37.579  15.682  12.401
18617W        W89217  19.522  29.216   3.104
18618W        W89218  19.579  33.210  12.348
18619W        W89219   7.398   1.787  14.016
18620W        W89220  23.834  20.265   4.454
18621W        W89221  18.309  41.577  14.499
18622W        W89222  37.421  25.712  13.368
18623W        W89223  38.134   0.317   4.149
18624W        W89224  13.147   9.123   2.639
18625W        W89225  20.184   9.841   1.947
18626W        W89226  37.884  19.608   3.723
18627W        W89227  11.675  25.617   1.359
18628W        W89228   6.698  11.189   1.801
18629W        W89229  28.480  11.948   1.785
18630W        W89230   5.438  39.387   2.278
18631W        W89231  30.370  29.692   0.535
18632W        W89232  32.964   1.916  10.698
18633W        W89233   2.283  36.847   2.839
18634W        W89234  23.754  40.479   2.252
18635W        W89235  25.586   9.685   2.826
18636W        W89236  44.793  37.824   3.667
18637W        W89237  28.267  44.965   1.232
18638W        W89238  31.906  10.693  12.889
18639W        W89239  32.256  11.165  12.920
18640W        W89240  10.803  19.109   1.450
18641W        W89241  29.740  24.111  13.956
18642W        W89242  44.154  17.555  13.599
18643W        W89243   1.058  15.165  12.294
18644W        W89244  11.163  26.175   0.854
18645W        W89245  22.095  40.356   4.755
18646W        W89246  27.280   2.789   3.805
18647W        W89247  13.488  17.777   1.299
18648W        W89248  26.473   9.351   0.933
18649W        W89249  12.740  40.846   2.237
18650W        W89250  13.842  27.221  13.530
18651W        W89251   4.685  17.347  11.580
18652W        W89252  37.932  22.576  13.414
18653W        W89253  29.692  34.470   2.290
18654W        W89254  34.857  33.101   4.122
18655W        W89255   9.796  32.887   0.459
18656W        W89256  16.782  17.662  14.925
18657W        W89257   0.271  41.126   4.926
18658W        W89258  35.371   2.498   1.240
18659W        W89259  38.866  20.986  12.496
18660W        W89260  36.152   1.189  12.958
18661W        W89261  36.603  35.471   1.245
18662W        W89262  31.595   4.419   1.227
18663W        W89263  11.667  31.455   0.066
18664W        W89264  39.948  26.812  11.014
18665W        W89265  20.497  42.005   4.038
18666W        W89266  14.473   5.227  10.760
18667W        W89267  22.264  41.890   2.745
18668W        W89268  34.612  41.289   0.383
18669W        W89269  19.738  19.477  12.784
18670W        W89270  14.369  11.670  14.809
18671W        W89271  37.282  19.985  10.343
18672W        W89272  38.961  22.408  10.688
18673W        W89273  12.826  21.318  14.585
18674W        W89274  40.516  11.830   1.726
18675W        W89275   6.767  44.884  12.561
18676W        W89276  22.832  34.020   4.113
18677W        W89277  18.032  13.750  12.295
18678W        W89278  43.425   5.973  12.870
18679W        W89279  44.716  15.788   2.786
18680W        W89280   5.537  39.225  12.058
18681W        W89281  20.500  21.350  12.677
18682W        W89282  17.095  24.085   2.353
18683W        W89283  39.364   0.748  13.323
18684W        W89284  11.907  32.003  10.262
18685W        W89285   0.606  31.886   5.003
18686W        W89286  37.947  35.903  10.407
18687W        W89287  20.782  19.654   0.029
18688W        W89288   1.304  38.733   1.654
18689W        W89289  40.370  27.412   3.627
18690W        W89290   8.239   4.753  14.272
18691W        W89291  11.384  38.086   0.938
18692W        W89292  37.526  37.805  13.798
18693W        W89293   0.837  14.355   0.375
18694W        W89294  23.657  37.826   3.363
18695W        W89295  13.249  16.576  13.819
18696W        W89296  28.534  38.900   1.898
18697W        W89297   2.970  11.899  14.310
18698W        W89298  39.143  15.978   1.847
18699W        W89299  36.969  37.866   1.732
18700W        W89300  17.697  19.339   0.561
18701W        W89301  26.877  18.347  11.995
18702W        W89302  20.482  41.997  14.386
18703W        W89303  44.798   1.849  12.758
18704W        W89304  17.191  10.863   1.870
18705W        W89305  19.803  23.872   4.988
18706W        W89306  33.444  34.929   1.719
18707W        W89307  41.011  33.036  12.704
18708W        W89308  12.378  30.604   2.778
18709W        W89309  34.043  19.003  13.523
18710W        W89310  23.118  12.252  13.896
18711W        W89311   3.737  38.453  13.786
18712W        W89312  14.775  42.795   0.910
18713W        W89313  33.378  11.717  13.053
18714W        W89314  31.688  31.984   0.309
18715W        W89315  41.852   6.854  10.690
18716W        W89316  40.725  34.822   3.385
18717W        W89317  19.177   9.604  11.503
18718W        W89318  11.788  11.895   5.306
18719W        W89319  16.726  13.106   0.401
18720W        W89320  33.039  41.415  10.806
18721W        W89321   8.741  29.119  11.413
18722W        W89322  32.502  36.573  14.365
18723W        W89323  40.424  40.984  13.623
18724W        W89324   9.853  17.390   4.797
18725W        W89325  19.082   8.717  10.591
18726W        W89326  41.784  23.585  13.444
18727W        W89327  13.393   8.226   2.839
18728W        W89328   6.188  25.684   0.747
18729W        W89329  15.539  37.601  12.022
18730W        W89330  34.561  21.534  11.639
18731W        W89331   5.490   1.853   0.191
18732W        W89332  40.500  37.444   4.128
18733W        W89333   4.545   8.055  11.183
18734W        W89334  25.908  30.068   2.903
18735W        W89335  16.185  37.907  13.906
18736W        W89336  16.840   1.884   1.341
18737W        W89337  11.660  31.102   2.433
18738W        W89338  19.000   3.712   4.114
18739W        W89339  14.865  19.060  13.091
18740W        W89340  17.426   2.605  11.660
18741W        W89341  32.124   4.331   1.148
18742W        W89342  37.228   1.924  11.696
18743W        W89343  16.135   6.394   1.256
18744W        W89344  16.969  33.917  14.518
18745W        W89345  43.844   5.137  12.909
18746W        W89346   6.648  14.793   4.588
18747W        W89347  14.920  33.808   1.801
18748W        W89348   6.579  32.851  11.161
18749W        W89349  21.753  23.543   1.351
18750W        W89350  40.052  11.227   4.790
18751W        W89351  25.476   0.484  11.698
18752W        W89352  37.811   5.064  13.530
18753W        W89353  12.491  39.007   0.467
18754W        W89354   2.310  29.967   0.938
18755W        W89355  36.391  23.139   1.853
18756W        W89356  25.066  35.656   3.255
18757W        W89357  34.838  42.241  12.056
18758W        W89358  14.267  19.565   2.568
18759W        W89359   0.413   5.665  11.442
18760W        W89360   8.398  16.990  13.054
18761W        W89361  27.078   6.448  13.332
18762W        W89362  14.849  12.196  13.486
18763W        W89363   0.239  25.119  13.961
18764W        W89364  27.447  15.078   1.362
18765W        W89365  10.907  10.369   1.659
18766W        W89366  16.846  14.096  12.191
18767W        W89367   5.818  12.055  12.901
18768W        W89368   0.892  23.362   1.768
18769W        W89369  29.601  33.546   1.256
18770W        W89370  25.059   2.653   4.170
18771W        W89371   3.762  32.323   3.710
18772W        W89372  40.408  31.825   1.789
18773W        W89373  13.671   5.207   0.924
18774W        W89374  34.122   2.676   0.402
18775W        W89375  23.542  14.164  14.889
18776W        W89376  38.092  40.041   1.803
18777W        W89377  11.416  41.958   0.958
18778W        W89378  43.827   5.799   2.359
18779W        W89379   5.978  42.886   4.984
18780W        W89380  22.343  19.483  14.593
18781W        W89381  21.526  11.208  12.432
18782W        W89382   5.401  23.298  13.790
18783W        W89383  10.644   5.483  12.595
18784W        W89384  22.090  15.579   2.664
18785W        W89385   4.321   4.442   2.895
18786W        W89386  16.481  42.524  10.706
18787W        W89387  38.056  19.060   5.134
18788W        W89388  27.879  19.913   2.907
18789W        W89389  40.176   3.644   0.318
18790W        W89390  44.709  25.254  14.549
18791W        W89391  26.751  30.526   5.067
18792W        W89392  20.727  31.166  11.447
18793W        W89393  29.953  12.383  13.401
18794W        W89394  39.964   4.322   2.520
18795W        W89395  19.023  43.254   3.715
18796W        W89396  44.203  39.551  13.900
18797W        W89397  35.037  21.722  14.428
18798W        W89398  33.873  38.512  11.718
18799W        W89399  38.280   3.784   3.645
18800W        W89400  29.441  33.972   3.833
18801W        W89401  13.824   0.326  11.239
18802W        W89402  40.453  41.456  13.381
18803W        W89403  11.665  17.705   1.082
18804W        W89404   6.870   6.557  10.498
18805W        W89405  25.003  33.384   0.358
18806W        W89406   1.037  16.893   4.046
18807W        W89407  37.423  35.819   4.839
18808W        W89408  37.096   9.372   1.383
18809W        W89409  17.762  17.116  12.472
18810W        W89410   8.238   0.927  13.262
18811W        W89411  28.396  39.206  11.310
18812W        W89412   4.457  22.736  14.531
18813W        W89413  29.621  30.675   1.527
18814W        W89414  10.845  10.581  13.003
18815W        W89415  44.302   3.440   2.768
18816W        W89416  29.112  31.749   3.742
18817W        W89417  20.022  16.613  10.685
18818W        W89418  30.229  32.166   1.269
18819W        W89419  37.412  23.893  13.349
18820W        W89420  43.410   0.433  12.129
18821W        W89421  19.897  31.449  13.426
18822W        W89422  40.753  26.732   3.729
18823W        W89423   5.409  38.933   0.784
18824W        W89424   1.569  36.497  12.585
18825W        W89425  38.272  39.521  11.502
18826W        W89426  23.117  12.906  12.280
18827W        W89427   6.476  40.937   0.419
18828W        W89428  30.771  14.670  13.067
18829W        W89429   0.922  40.895  10.887
18830W        W89430  43.856  23.136   3.542
18831W        W89431   7.839  33.899   4.675
18832W        W89432  14.242  38.102   2.676
18833W        W89433   3.470  26.039  12.059
18834W        W89434   4.838   0.367   0.398
18835W        W89435  42.938  19.785   2.207
18836W        W89436  40.187  44.946  13.564
18837W        W89437  11.256   0.464  10.883
18838W        W89438  27.901  29.230  12.933
18839W        W89439  30.145  15.143  12.524
18840W        W89440  39.250   5.817   0.834
18841W        W89441  24.173  37.598  13.476
18842W        W89442  39.514  33.159  13.485
18843W        W89443  42.286  21.037  12.138
18844W        W89444  27.928  41.246   4.141
18845W        W89445  37.735   1.453  13.727
18846W        W89446  13.856  41.283   4.983
18847W        W89447  11.727  15.603  13.977
18848W        W89448   2.204  44.280  13.023
18849W        W89449  15.665  33.787  13.983
18850W        W89450  13.896   6.402  13.026
18851W        W89451  44.437  36.440   2.797
18852W        W89452  20.638  40.027   2.599
18853W        W89453  42.861   1.847  11.967
18854W        W89454  28.540  32.075  12.372
18855W        W89455  37.822  36.621  14.953
18856W        W89456  10.974  43.544  12.475
18857W        W89457  16.671  35.808   5.425
18858W        W89458   5.940  34.598   2.181
18859W        W89459   3.508   3.560  11.493
18860W        W89460  34.917  35.654  12.489
18861W        W89461  16.698  12.734  11.624
18862W        W89462  41.206   4.616  10.898
18863W        W89463  34.556  33.548  13.479
18864W        W89464  44.543  33.437   3.150
18865W        W89465   1.013  40.096   3.735
18866W        W89466   0.480  12.707  13.486
18867W        W89467  41.800  17.529  14.831
18868W        W89468  28.428  18.490   5.021
18869W        W89469  25.648  16.673  11.404
18870W        W89470  16.351  30.578   2.940
18871W        W89471  17.772  41.465   0.374
18872W        W89472  20.211  30.537   2.382
18873W        W89473  29.571  18.519   4.100
18874W        W89474  28.068  36.091   3.742
18875W        W89475  36.451   0.277   1.404
18876W        W89476  18.798  22.803   0.914
18877W        W89477  12.789  28.600   0.242
18878W        W89478  31.699  14.331   4.289
18879W        W89479  22.302  19.855  11.509
18880W        W89480  42.349  25.488  10.688
18881W        W89481  29.555  33.118  12.840
18882W        W89482   2.952  15.814   4.353
18883W        W89483  20.042   4.808   1.140
18884W        W89484  37.329  17.612   3.872
18885W        W89485   9.230  12.649   4.093
18886W        W89486  21.852  24.691  10.480
18887W        W89487   5.852  41.495   0.852
18888W        W89488  44.298  10.905  14.524
18889W        W89489  22.820  32.733   0.750
18890W        W89490  44.477  41.834   4.506
18891W        W89491   9.832  30.582  10.988
18892W        W89492  33.572  44.535   2.531
18893W        W89493  20.779  16.879   4.223
18894W        W89494  42.505   2.234  10.715
18895W        W89495  15.647  42.582   1.907
18896W        W89496  12.249  44.029  13.982
18897W        W89497  10.154  19.806  12.681
18898W        W89498  44.259  28.140   1.672
18899W        W89499  25.123  25.792   3.058
18900W        W89500  33.963  12.060  10.556
18901W        W89501  37.034   9.798  13.425
18902W        W89502  27.779  14.595  14.952
18903W        W89503  37.779  26.384  12.623
18904W        W89504  26.069  28.070  14.484
18905W        W89505  34.916  15.559  11.577
18906W        W89506  44.910   7.668   3.585
18907W        W89507  18.553  23.926  13.922
18908W        W89508  38.864  36.590   2.445
18909W        W89509   3.855  20.745  11.180
18910W        W89510  21.047  28.018  13.064
18911W        W89511  11.837  29.185   3.622
18912W        W89512  13.290   0.348  13.458
18913W        W89513  27.115  15.204  11.147
18914W        W89514   1.232  28.568  13.482
18915W        W89515  33.717  11.627  11.259
18916W        W89516   5.850   5.017  12.708
18917W        W89517  25.686  36.617  10.764
18918W        W89518  43.672  37.827  14.907
18919W        W89519  33.990   9.680   0.679
18920W        W89520  44.491  19.181   0.808
18921W        W89521  13.311  33.780   5.070
18922W        W89522  10.770  21.601  12.509
18923W        W89523  18.355  14.100   2.656
18924W        W89524  34.982  30.544  12.114
18925W        W89525  10.469  20.241   2.322
18926W        W89526   9.497  43.517   2.956
18927W        W89527  10.748  40.937   0.314
18928W        W89528   8.289   2.790  11.895
18929W        W89529  31.532   3.948  11.560
18930W        W89530  20.544   6.429  14.006
18931W        W89531  11.597  22.099   0.892
18932W        W89532  40.210  29.933   4.755
18933W        W89533  28.221  36.315   1.446
18934W        W89534  18.212   8.190  10.970
18935W        W89535  44.524   1.361  13.531
18936W        W89536  34.645  43.952   3.220
18937W        W89537   9.058  18.772   4.518
18938W        W89538  36.529  21.973  10.918
18939W        W89539  34.122  36.625  12.141
18940W        W89540  40.721  24.219   4.587
18941W        W89541   4.853  39.862  13.144
18942W        W89542  30.487  32.915  14.495
18943W        W89543  11.005  33.983  12.440
18944W        W89544  30.321  18.937  12.446
18945W        W89545  37.255  10.299  12.448
18946W        W89546  44.281  24.063   3.670
18947W        W89547   3.361  28.933   2.243
18948W        W89548  37.905  44.705   1.805
18949W        W89549  35.175  24.739   2.295
18950W        W89550  32.060  40.352  13.411
18951W        W89551  10.372  43.741   2.187
18952W        W89552  25.122  43.579  11.430
18953W        W89553   5.426   0.070   3.330
18954W        W89554  33.591  32.523  14.881
18955W        W89555  26.166  35.475   4.461
18956W        W89556  16.812  12.577  12.624
18957W        W89557  20.496  15.792  12.971
18958W        W89558  41.064  38.864   3.683
18959W        W89559  23.663  22.084   3.092
18960W        W89560  25.204   4.320  10.721
18961W        W89561  16.610  21.225  11.211
18962W        W89562  31.102  13.262  14.430
18963W        W89563  44.249  14.248  12.140
18964W        W89564  27.948   1.297   0.899
18965W        W89565  44.216   7.651   4.302
18966W        W89566  32.391  40.930   0.723
18967W        W89567  13.253  39.503   3.015
18968W        W89568   0.937  25.216  14.665
18969W        W89569  17.982  29.978  14.967
18970W        W89570  35.423  10.467  12.446
18971W        W89571  15.309  22.249  12.995
18972W        W89572  44.782  16.770   3.598
18973W        W89573  35.032  40.954  12.595
18974W        W89574  18.653  23.573   2.315
18975W        W89575  22.909  26.171  14.884
18976W        W89576  37.986   8.688   3.823
18977W        W89577  25.121  25.044   1.780
18978W        W89578  37.641  36.363   3.721
18979W        W89579  43.784   8.133   4.080
18980W        W89580  36.330  14.203   1.273
18981W        W89581  28.100   3.853   3.208
18982W        W89582   7.414   4.123   1.214
18983W        W89583  29.112  37.636   2.604
18984W        W89584  33.334  13.562  10.427
18985W        W89585  29.504  41.332  12.359
18986W        W89586  23.987   6.206  10.794
18987W        W89587  10.291  15.733   2.857
18988W        W89588  35.283  39.464   0.285
18989W        W89589   1.137  19.612   3.694
18990W        W89590  18.646   9.638  12.376
18991W        W89591   9.244  34.532  13.138
18992W        W89592  27.461  17.307   0.855
18993W        W89593  44.837  38.070   3.202
18994W        W89594  38.028  10.279   3.764
18995W        W89595  43.323  40.926  13.493
18996W        W89596  36.853  33.488  11.240
18997W        W89597  42.431  35.548   3.327
18998W        W89598  24.087  25.577   1.353
18999W        W89599  44.770  12.550  12.921
19000W        W89600  16.068  20.045  14.221
19001W        W89601  38.353  36.064   1.254
19002W        W89602   6.184  42.852   3.170
19003W        W89603  32.981   0.986   1.695
19004W        W89604  37.277  40.660  11.172
19005W        W89605  28.121  23.276   4.693
19006W        W89606  10.008  22.990  14.751
19007W        W89607  25.625  31.802   4.948
19008W        W89608  23.598  38.300   1.394
19009W        W89609  26.011  37.550  12.940
19010W        W89610  29.474   6.760   1.719
19011W        W89611  26.116  10.128   4.135
19012W        W89612   4.378   6.838   0.506
19013W        W89613  36.875  12.415   1.113
19014W        W89614  18.692  42.852   3.658
19015W        W89615  44.343   3.447  12.960
19016W        W89616  26.125  38.424  11.282
19017W        W89617   1.954   8.498   0.566
19018W        W89618   8.652  43.255   3.187
19019W        W89619  11.220  18.771  13.052
19020W        W89620   0.328  18.834  10.701
19021W        W89621  31.078  27.663   4.642
19022W        W89622  20.612  19.913  12.269
19023W        W89623  39.296  27.988   2.430
19024W        W89624  15.336  23.974   0.925
19025W        W89625  13.801  15.205   3.583
19026W        W89626  13.054  21.660   0.961
19027W        W89627  44.021  11.290  11.479
19028W        W89628  30.085   2.814   2.745
19029W        W89629  10.354  11.703  10.447
19030W        W89630   6.727  10.279   0.806
19031W        W89631  33.146  33.565  10.874
19032W        W89632  33.256   2.628  12.012
19033W        W89633  35.331  26.665  13.176
19034W        W89634  11.845  26.601   4.225
19035W        W89635  37.878  26.056   1.345
19036W        W89636  23.269  43.283   0.409
19037W        W89637  33.579  44.155  14.497
19038W        W89638  29.121  44.444   1.378
19039W        W89639  28.693  24.456   4.930
19040W        W89640  13.993  21.823   0.072
19041W        W89641   1.918  40.134  12.688
19042W        W89642   4.278  29.418   3.888
19043W        W89643  41.621  32.490  13.405
19044W        W89644  35.533  17.605   3.800
19045W        W89645  19.330   6.250   3.934
19046W        W89646  32.736  33.168  14.666
19047W        W89647  34.289  27.938  14.326
19048W        W89648  14.903  40.059   0.413
19049W        W89649  40.027  35.992  10.573
19050W        W89650  16.226   8.246   4.549
19051W        W89651   5.784  24.527  12.505
19052W        W89652  33.036  26.087   2.272
19053W        W89653  43.381  13.500  12.474
19054W        W89654  38.353  21.226   2.711
19055W        W89655  39.455  21.952   0.352
19056W        W89656   0.376  14.434   1.309
19057W        W89657  27.272  38.762   3.596
19058W        W89658  18.819  14.368   2.729
19059W        W89659   5.193  38.777  13.856
19060W        W89660  16.250  44.780  13.616
19061W        W89661   5.786   5.399   4.359
19062W        W89662  26.704  23.701   0.327
19063W        W89663  39.775  43.689   4.724
19064W        W89664  42.505  17.986  14.127
19065W        W89665  20.594  33.323   4.718
19066W        W89666   3.820  28.603   3.642
19067W        W89667  22.717  44.311  12.530
19068W        W89668  14.621  12.205   0.710
19069W        W89669  38.446   5.656  10.820
19070W        W89670  12.255  43.371  11.663
19071W        W89671  15.785  35.008  13.875
19072W        W89672   1.654   4.397  10.637
19073W        W89673  36.935  34.925   3.592
19074W        W89674  39.509  44.369  13.879
19075W        W89675  41.477  26.541  10.697
19076W        W89676  37.622   3.176   1.812
19077W        W89677   2.601  14.589   5.122
19078W        W89678   1.992  11.543   4.594
19079W        W89679  28.638  38.089  13.271
19080W        W89680  22.192   6.865   5.502
19081W        W89681  30.805   8.587  12.174
19082W        W89682  23.746  17.667   1.690
19083W        W89683  31.441   6.038   2.356
19084W        W89684  26.917  44.560   3.395
19085W        W89685   2.195  35.830  12.958
19086W        W89686   0.439  30.514  11.108
19087W        W89687  34.985  39.625   4.669
19088W        W89688  25.260  37.616  12.079
19089W        W89689  13.218  27.584  11.797
19090W        W89690  32.037   0.293  14.825
19091W        W89691  36.514  35.949  10.319
19092W        W89692   5.484  36.028   2.359
19093W        W89693  33.558  39.294   2.748
19094W        W89694  41.846  40.860  12.449
19095W        W89695  17.286  21.592   4.211
19096W        W89696  35.070  40.290  13.405
19097W        W89697  34.391  37.835   3.317
19098W        W89698  26.425  44.248   3.293
19099W        W89699  23.271  15.732   0.921
19100W        W89700  39.346  37.626   4.933
19101W        W89701   9.158   1.851   4.964
19102W        W89702   8.648  32.743   1.179
19103W        W89703  23.149  38.603   1.374
19104W        W89704   1.111  15.691   4.566
19105W        W89705  33.654  32.691   5.026
19106W        W89706  21.104  28.115  11.226
19107W        W89707   4.427  10.927   2.187
19108W        W89708   0.041  42.727   1.818
19109W        W89709  28.098  35.345  14.060
19110W        W89710  40.886  13.184  13.853
19111W        W89711   0.691  13.392   2.825
19112W        W89712  29.638  31.430   4.378
19113W        W89713  34.970   5.733  14.251
19114W        W89714  44.993  31.161  10.813
19115W        W89715  41.614  14.165   1.782
19116W        W89716  35.351  37.304  13.845
19117W        W89717  40.812  32.572   3.213
19118W        W89718  11.823  10.096  10.681
19119W        W89719  10.144  13.867   0.222
19120W        W89720  35.715  19.791   4.160
19121W        W89721  21.066  18.181  14.031
19122W        W89722  27.043  17.176  14.366
19123W        W89723  16.517  10.819  14.788
19124W        W89724  37.084  19.164   1.380
19125W        W89725   8.189  15.641   4.895
19126W        W89726   9.689  27.374   2.615
19127W        W89727  30.057   3.289  12.473
19128W        W89728  40.349  41.910  13.614
19129W        W89729  28.037  32.082  12.483
19130W        W89730  25.071  37.798   4.139
19131W        W89731  20.174   8.918  14.589
19132W        W89732  10.667  15.570  14.895
19133W        W89733  39.306  40.802  13.002
19134W        W89734  40.663   9.830  12.529
19135W        W89735  18.519  15.285  13.382
19136W        W89736   7.432   1.551  13.467
19137W        W89737  30.545   1.715   0.511
19138W        W89738  30.083  11.789  14.810
19139W        W89739  37.000  21.770  10.858
19140W        W89740   3.326  13.380   0.386
19141W        W89741  18.576  16.376  12.632
19142W        W89742   8.352   9.104  13.047
19143W        W89743  18.130  41.574  11.310
19144W        W89744   4.281  42.563  12.791
19145W        W89745  25.619  12.934  12.352
19146W        W89746  32.733  34.382   3.781
19147W        W89747  17.354  39.169  13.547
19148W        W89748  44.867   5.685   2.500
19149W        W89749   1.468  21.662  11.506
19150W        W89750   7.177   3.637  11.189
19151W        W89751  33.114  42.839   2.747
19152W        W89752  20.493  21.790   0.964
19153W        W89753  27.946  22.954  11.207
19154W        W89754  29.039   6.751   2.222
19155W        W89755  10.285  19.330  11.522
19156W        W89756  17.628  15.753   1.434
19157W        W89757  37.562  20.479   0.187
19158W        W89758  11.516  29.973  11.940
19159W        W89759  17.451  43.227  14.981
19160W        W89760  33.777  15.042   3.609
19161W        W89761  24.109  28.203   3.446
19162W        W89762   2.413  17.279  10.696
19163W        W89763  21.237  43.210   4.031
19164W        W89764  33.357  35.299  11.048
19165W        W89765  24.752  11.759   0.876
19166W        W89766   8.320  32.024  13.751
19167W        W89767  44.794   8.051   0.228
19168W        W89768   4.655  34.894  13.825
19169W        W89769  19.518   3.352   0.263
19170W        W89770  40.097  36.625   0.785
19171W        W89771   0.916  13.687   2.444
19172W        W89772  14.644  36.976   3.140
19173W        W89773   7.931   4.624   3.550
19174W        W89774  28.452  38.434   9.805
19175W        W89775  30.941  23.467  12.340
19176W        W89776  30.205  23.937   0.376
19177W        W89777  16.199   8.452  11.174
19178W        W89778  35.208  13.914  14.277
19179W        W89779  27.530  26.441   1.766
19180W        W89780  17.092  11.022   9.908
19181W        W89781  11.463  19.035  10.694
19182W        W89782  29.983  39.954   0.728
19183W        W89783  22.146  39.307   0.289
19184W        W89784  36.091  37.942   3.854
19185W        W89785   5.987  28.475   0.909
19186W        W89786  21.325  27.611  13.897
19187W        W89787  44.835  32.446   4.905
19188W        W89788  29.052  23.156  12.590
19189W        W89789  19.800  29.549   0.055
19190W        W89790  33.088  36.737   4.128
19191W        W89791  44.378  20.728  13.363
19192W        W89792  25.464  15.161  10.687
19193W        W89793   5.476  20.704   2.310
19194W        W89794  11.127  31.895  11.234
19195W        W89795  15.865  38.521   1.825
19196W        W89796   2.326  37.963  12.171
19197W        W89797  34.519   6.811   1.014
19198W        W89798  25.807   1.116   4.124
19199W        W89799  27.453  36.726   1.711
19200W        W89800  31.183   0.501   0.886
19201W        W89801  27.739  34.798  12.527
19202W        W89802  19.054   1.260  10.838
19203W        W89803  33.928  18.733   2.130
19204W        W89804  13.632   4.822  10.713
19205W        W89805  22.501  41.419   2.129
19206W        W89806  42.622  10.130   0.064
19207W        W89807  41.467   0.098   4.256
19208W        W89808  37.319   1.164   2.710
19209W        W89809  27.984  42.930   3.756
19210W        W89810  23.750   4.846   1.363
19211W        W89811  28.346  42.081  14.838
19212W        W89812  15.292  10.772   0.272
19213W        W89813  19.038  11.532  14.546
19214W        W89814  36.445  15.167  11.115
19215W        W89815  14.832  10.193   4.777
19216W        W89816  14.068   1.717   4.894
19217W        W89817  41.498  38.682  11.668
19218W        W89818  30.883  43.055   3.263
19219W        W89819  39.277  15.578   2.916
19220W        W89820  36.107  28.681   1.729
19221W        W89821  33.137  26.037   4.752
19222W        W89822  12.379  27.772  11.527
19223W        W89823  41.098  27.109   1.720
19224W        W89824  18.978  18.392  11.610
19225W        W89825  41.635  18.777  12.727
19226W        W89826  22.272   7.193  13.102
19227W        W89827   2.947  26.474  14.311
19228W        W89828  39.538   1.577  13.017
19229W        W89829  18.061  29.606  10.787
19230W        W89830   8.824  28.888   0.422
19231W        W89831   4.715  27.001  13.761
19232W        W89832  44.349  11.296  11.849
19233W        W89833  25.537   8.417  14.587
19234W        W89834  39.506  14.778   0.498
19235W        W89835  31.171  23.471   2.775
19236W        W89836   5.405  23.806   3.262
19237W        W89837  37.512  10.382  12.007
19238W        W89838  15.149  16.848   5.021
19239W        W89839  37.087  41.998  13.965
19240W        W89840  26.786  40.259  11.094
19241W        W89841  16.567   4.886   0.716
19242W        W89842  44.075  26.403  11.355
19243W        W89843  21.027   8.329  12.136
19244W        W89844  38.868  36.633  12.706
19245W        W89845  15.151  12.131  10.204
19246W        W89846  35.574  20.992   4.553
19247W        W89847  19.155   0.905  13.998
19248W        W89848  32.102  35.123  10.628
19249W        W89849  19.922   7.184   4.925
19250W        W89850  27.528  17.574   3.559
19251W        W89851  27.989  40.369  14.882
19252W        W89852  24.464  17.716   3.616
19253W        W89853  18.209  16.284   0.358
19254W        W89854  32.624  33.619   1.338
19255W        W89855  43.241  31.853   1.879
19256W        W89856  34.025  31.975  11.586
19257W        W89857   0.777  17.689  12.019
19258W        W89858  41.248  22.116   4.719
19259W        W89859  26.592   2.347  12.027
19260W        W89860  18.025   8.867  12.652
19261W        W89861  20.572  34.354  12.166
19262W        W89862  19.508  10.586   4.721
19263W        W89863   7.294  23.715  14.526
19264W        W89864   6.249  17.512   2.327
19265W        W89865  12.347  32.198  13.432
19266W        W89866  25.226  15.672   4.133
19267W        W89867   1.090  34.906  11.143
19268W        W89868  22.743  37.912   0.945
19269W        W89869  31.147  13.077   3.792
19270W        W89870  42.071  42.191   4.391
19271W        W89871  36.063  43.901   4.807
19272W        W89872  32.911  34.134  12.520
19273W        W89873  11.366  42.797  10.620
19274W        W89874  41.055   7.467  10.602
19275W        W89875  36.417  38.441   0.792
19276W        W89876  12.360  11.728   1.202
19277W        W89877   9.601  17.347  13.402
19278W        W89878  41.893  27.056  12.162
19279W        W89879  40.236  44.392   3.332
19280W        W89880  27.876  27.610  14.794
19281W        W89881   1.876   7.218  14.027
19282W        W89882  35.887  18.703  11.220
19283W        W89883   0.786  43.320  14.472
19284W        W89884  11.630   2.694   1.704
19285W        W89885  14.792   6.521   2.818
19286W        W89886   4.279  14.684  12.328
19287W        W89887  43.329   5.403   0.842
19288W        W89888  33.331  25.117   4.841
19289W        W89889  44.129  12.528   3.722
19290W        W89890  30.125  32.198  14.132
19291W        W89891  29.661  33.876  14.318
19292W        W89892  27.579  21.662   3.659
19293W        W89893   4.493  36.867   1.284
19294W        W89894  33.603  10.275  14.412
19295W        W89895   8.724  26.767  10.585
19296W        W89896   2.325  17.632   3.732
19297W        W89897   4.762   2.049   2.176
19298W        W89898   6.192  28.231   2.234
19299W        W89899   9.179  43.843  13.609
19300W        W89900  21.795  26.120  13.265
19301W        W89901  36.118  31.592  12.006
19302W        W89902  36.433  27.239   4.089
19303W        W89903  34.647  28.770  14.391
19304W        W89904  11.246  43.378   4.662
19305W        W89905  30.410  33.308  11.583
19306W        W89906  21.580  10.115   4.053
19307W        W89907  18.087  19.470  14.775
19308W        W89908  34.456  27.058   3.645
19309W        W89909   9.614  23.467  11.639
19310W        W89910  16.293  28.492  10.358
19311W        W89911  32.631   9.325  12.059
19312W        W89912   9.297  12.350  10.856
19313W        W89913  29.137   9.869   0.417
19314W        W89914  28.443  39.867  12.100
19315W        W89915  36.368   1.985  12.309
19316W        W89916  19.622  29.102   5.112
19317W        W89917  41.889  18.539  14.888
19318W        W89918  38.735   6.736   4.111
19319W        W89919   2.981  15.831  12.213
19320W        W89920  11.346   7.418   4.616
19321W        W89921  35.419  43.912   4.115
19322W        W89922  24.076  20.143  13.297
19323W        W89923  39.375   3.660   1.535
19324W        W89924   8.648  32.450   4.065
19325W        W89925   6.359  15.804  11.138
19326W        W89926   9.984   7.027   1.290
19327W        W89927  31.542  15.369  12.455
19328W        W89928  37.660  23.935  14.314
19329W        W89929  40.926   7.999   2.862
19330W        W89930   6.238  25.542  13.745
19331W        W89931  11.968  44.739   4.463
19332W        W89932  31.173  20.334   0.187
19333W        W89933  21.015  18.238   2.757
19334W        W89934   8.060  26.933   1.451
19335W        W89935  44.085  34.388   0.928
19336W        W89936  28.510  14.790   4.777
19337W        W89937  13.382   5.910  12.478
19338W        W89938  30.740  23.120  10.997
19339W        W89939  42.079  16.624   2.876
19340W        W89940  19.506   3.821  10.894
19341W        W89941  12.179  19.519   0.502
19342W        W89942  31.387  17.712  13.287
19343W        W89943   6.029  24.771   2.470
19344W        W89944  35.964  18.704   4.636
19345W        W89945  39.501  28.697   1.437
19346W        W89946  23.709  21.381  14.516
19347W        W89947  25.586  24.925  11.041
19348W        W89948  43.800   0.982  13.872
19349W        W89949  18.022  39.223   2.436
19350W        W89950  41.561  19.976   1.832
19351W        W89951  26.717   0.982  12.906
19352W        W89952  33.009   2.881  11.560
19353W        W89953   4.867  29.185   3.850
19354W        W89954  18.644  17.979  11.201
19355W        W89955   0.714  13.354   4.988
19356W        W89956  27.917  28.256   0.258
19357W        W89957   1.189   2.830  14.113
19358W        W89958  10.401  26.615   2.916
19359W        W89959  21.604  40.198   3.131
19360W        W89960   0.723  40.450   4.490
19361W        W89961  21.990  25.933  13.717
19362W        W89962  19.316  30.615   2.660
19363W        W89963   2.364  38.369   3.252
19364W        W89964   3.972   6.689   3.257
19365W        W89965  21.709  43.565   2.897
19366W        W89966   5.225  25.502   0.872
19367W        W89967  23.462   9.400  14.369
19368W        W89968   0.972  19.239  11.190
19369W        W89969  33.998  33.113   0.326
19370W        W89970  32.406  38.667   4.113
19371W        W89971  22.061  30.966   0.824
19372W        W89972  30.554   9.194   3.775
19373W        W89973  20.690  23.570   0.013
19374W        W89974  27.502  23.022   1.898
19375W        W89975  39.150  11.709  11.517
19376W        W89976  34.539  17.054  10.688
19377W        W89977  13.284  34.465  12.645
19378W        W89978  18.692  36.460  10.773
19379W        W89979  18.582  30.633  14.951
19380W        W89980  14.630  37.535   3.994
19381W        W89981  23.191  30.651   0.360
19382W        W89982  23.165  24.138  12.386
19383W        W89983  20.255  34.558  11.585
19384W        W89984  18.688  25.207   4.485
19385W        W89985   5.902  12.571  11.573
19386W        W89986  10.752  43.547   1.889
19387W        W89987  19.522  43.276   1.656
19388W        W89988   7.817   3.083   3.201
19389W        W89989  18.611  35.371  11.580
19390W        W89990  28.186  44.373   2.654
19391W        W89991   0.854  43.408  11.967
19392W        W89992   7.101  28.037   3.789
19393W        W89993   6.946  43.756   1.304
19394W        W89994  11.628  21.086  12.134
19395W        W89995  31.136  20.566   4.637
19396W        W89996  40.087  23.299  13.788
19397W        W89997  30.657  26.337   0.440
19398W        W89998  39.458  43.292   0.819
19399W        W89999  15.228  16.856   4.071
19400W        W90000  44.955  43.580  13.275
19401W        W90001   0.219  16.279   1.370
19402W        W90002  32.420  42.375  14.055
19403W        W90003  20.845   4.846  12.340
19404W        W90004  10.071   3.290  14.408
19405W        W90005  11.825   7.167  13.439
19406W        W90006  42.185  39.989  14.505
19407W        W90007   9.955  37.642   2.356
19408W        W90008  17.768  36.366   3.524
19409W        W90009  24.903  40.536   3.808
19410W        W90010  44.377   0.327  13.579
19411W        W90011  14.844  17.647   3.614
19412W        W90012  26.742  44.463  10.533
19413W        W90013   4.593  10.088  11.986
19414W        W90014  22.191   3.481  12.027
19415W        W90015  31.984  31.157   3.130
19416W        W90016   9.195  44.855  14.774
19417W        W90017  41.822  24.620  10.613
19418W        W90018  41.402  18.706  11.766
19419W        W90019  16.657  15.840  11.067
19420W        W90020  37.977   6.627  11.578
19421W        W90021   7.128  24.258   1.166
19422W        W90022  22.859   5.243  14.689
19423W        W90023  35.606  41.295   0.374
19424W        W90024   2.927  29.648  13.824
19425W        W90025  15.143   1.336   3.615
19426W        W90026  38.832  36.128  10.595
19427W        W90027  19.582  34.267  11.350
19428W        W90028  13.329  30.859   4.519
19429W        W90029  26.156  31.082   4.562
19430W        W90030  40.407   2.793  11.394
19431W        W90031  10.612  37.223   2.882
19432W        W90032  37.444  38.525   3.325
19433W        W90033   6.706  21.990   1.276
19434W        W90034  22.581  19.067  12.951
19435W        W90035  26.745  37.404   3.641
19436W        W90036   8.521   4.874  13.842
19437W        W90037  33.340   3.294   1.948
19438W        W90038  32.113   7.513   4.159
19439W        W90039  12.010  32.981  12.479
19440W        W90040  25.668  22.808   3.191
19441W        W90041  39.891  12.408   1.111
19442W        W90042  20.244  15.234  14.100
19443W        W90043  40.840  40.757  13.432
19444W        W90044  12.705   7.732   0.468
19445W        W90045   1.002  32.718   2.420
19446W        W90046  13.160  30.079   2.915
19447W        W90047  11.608  19.131  14.469
19448W        W90048  43.479  22.040   2.248
19449W        W90049   1.813  16.628   4.317
19450W        W90050  15.580   0.360   1.016
19451W        W90051  10.110  18.543  14.913
19452W        W90052  28.123   8.290   4.512
19453W        W90053   3.975  27.441  11.449
19454W        W90054  16.520   1.465   1.352
19455W        W90055  19.306   2.395  14.962
19456W        W90056  12.657  36.450  14.675
19457W        W90057  33.604  41.024  10.487
19458W        W90058  10.736  43.768  11.547
19459W        W90059   8.858  22.190   1.972
19460W        W90060  12.728  28.698   4.253
19461W        W90061  28.999  29.953  13.298
19462W        W90062  38.678  23.109   1.379
19463W        W90063  34.956  31.607   2.316
19464W        W90064  39.704  12.842   3.590
19465W        W90065   9.569  16.754   2.447
19466W        W90066   8.783   2.728   2.218
19467W        W90067  24.444  31.041   2.707
19468W        W90068   5.236  19.541   3.408
19469W        W90069  27.482  10.328  14.271
19470W        W90070  42.869  29.646   4.559
19471W        W90071  15.366  33.346  10.225
19472W        W90072  36.833  44.474   5.071
19473W        W90073  26.871  36.384  12.445
19474W        W90074  43.908  11.088  10.646
19475W        W90075   8.663  20.706   2.954
19476W        W90076   9.900  37.604   3.698
19477W        W90077  36.898  28.940   0.345
19478W        W90078  12.843  34.010   2.745
19479W        W90079  23.060  23.977  10.688
19480W        W90080  33.461  11.722   2.789
19481W        W90081  37.221  17.134   4.106
19482W        W90082  15.729  33.277  12.006
19483W        W90083  13.376   6.826  12.901
19484W        W90084  12.316   9.355  11.626
19485W        W90085  16.111  37.517  14.249
19486W        W90086  22.061  19.301  14.992
19487W        W90087  26.277   2.109   3.153
19488W        W90088  28.623  41.881   0.222
19489W        W90089  34.290  26.000   3.669
19490W        W90090   1.479  10.200  10.598
19491W        W90091  39.352  32.385   2.217
19492W        W90092  14.555  22.486   4.263
19493W        W90093   3.990  21.138   2.350
19494W        W90094  31.669  28.559  10.457
19495W        W90095  28.375  10.628   0.436
19496W        W90096  18.258  42.152   3.327
19497W        W90097  36.895  41.448  14.612
19498W        W90098   1.993   6.386   4.266
19499W        W90099  25.183  12.545   0.655
19500W        W90100   9.883  28.503   4.531
19501W        W90101  21.069  43.289  10.697
19502W        W90102   8.757  26.491   1.985
19503W        W90103   0.004   2.698   4.118
19504W        W90104  41.115   2.760  13.899
19505W        W90105  21.497  36.588  14.833
19506W        W90106  41.354  39.008   4.509
19507W        W90107  31.107  38.707   4.901
19508W        W90108  21.073  27.176  13.908
19509W        W90109   0.257  24.377  11.134
19510W        W90110  11.368   8.861  14.982
19511W        W90111  43.446   6.537  12.942
19512W        W90112  36.245  11.768   3.682
19513W        W90113  29.766  18.138  12.060
19514W        W90114  41.918  13.101  14.053
19515W        W90115  10.906   4.481  13.257
19516W        W90116  30.094  43.750  14.006
19517W        W90117   8.878   8.425   2.345
19518W        W90118  36.161   5.151   1.231
19519W        W90119  44.524  15.673   4.060
19520W        W90120  40.727  43.900  12.376
19521W        W90121   7.227  13.476  12.192
19522W        W90122  42.598  12.525  10.267
19523W        W90123   7.991  25.096   2.841
19524W        W90124   7.828  32.076  12.533
19525W        W90125   9.458  10.328  12.354
19526W        W90126   5.206  22.647  11.915
19527W        W90127  22.445  35.410  13.497
19528W        W90128  11.285  41.498   0.287
19529W        W90129  40.471  27.384   4.432
19530W        W90130  21.461  24.400   4.604
19531W        W90131  27.457  34.044  12.952
19532W        W90132  22.189   5.235   1.464
19533W        W90133  43.845  38.777   4.796
19534W        W90134  26.200  30.848  13.904
19535W        W90135  20.067   3.124  11.391
19536W        W90136  20.865  11.171   1.868
19537W        W90137  21.291   8.402  14.827
19538W        W90138  21.299   1.471   1.910
19539W        W90139  29.987  26.011  14.516
19540W        W90140  36.586  26.075  13.948
19541W        W90141   0.759  43.476  14.971
19542W        W90142   5.986   1.904  13.819
19543W        W90143  11.622  28.455   2.780
19544W        W90144  20.001  36.820   2.271
19545W        W90145  27.485  18.493   4.053
19546W        W90146  44.029  11.714   0.416
19547W        W90147  41.936  14.468  10.537
19548W        W90148   9.390  40.448  13.357
19549W        W90149  42.371   4.934   0.017
19550W        W90150  15.577  34.312  12.129
19551W        W90151   3.910  10.723  14.657
19552W        W90152  25.473  34.526   2.793
19553W        W90153  21.057   5.868  12.391
19554W        W90154  34.918  37.479   3.655
19555W        W90155   5.270  28.516   1.356
19556W        W90156  32.112  31.950  12.672
19557W        W90157   3.743  36.105   0.635
19558W        W90158  25.222  39.867  11.603
19559W        W90159  36.933  30.140  14.558
19560W        W90160  26.491  17.615  14.015
19561W        W90161  28.972   7.848  12.564
19562W        W90162  23.203  21.835   3.164
19563W        W90163  23.117  24.722   3.605
19564W        W90164  24.178  25.996   2.609
19565W        W90165   2.253  41.575   2.383
19566W        W90166  15.908   0.412   2.499
19567W        W90167  42.415  28.396   3.731
19568W        W90168  40.731  36.897   2.798
19569W        W90169  36.711  27.407   1.368
19570W        W90170  20.591   0.711  11.952
19571W        W90171  28.099  43.962  11.196
19572W        W90172  25.005  27.629  13.627
19573W        W90173   7.424   4.229   4.950
19574W        W90174   3.040  23.340   4.282
19575W        W90175  27.770   8.447   3.639
19576W        W90176  19.742   1.866  11.427
19577W        W90177  26.911   6.889  12.527
19578W        W90178  11.568  29.562   4.093
19579W        W90179  25.162   4.950   0.746
19580W        W90180  11.085   6.655   4.152
19581W        W90181  31.177  19.052  11.587
19582W        W90182   2.772   9.797  13.569
19583W        W90183  29.698   4.998   4.691
19584W        W90184  16.177  22.612   3.224
19585W        W90185  35.937  20.254   0.791
19586W        W90186  26.585   5.741  14.285
19587W        W90187  38.037  11.356  12.568
19588W        W90188  25.745   4.721   1.313
19589W        W90189  21.285  18.124  10.734
19590W        W90190  24.248  32.431  10.494
19591W        W90191  15.621   2.653   4.990
19592W        W90192  27.073   5.808   3.173
19593W        W90193  37.388   6.256   2.323
19594W        W90194  24.214   3.511  12.110
19595W        W90195  31.565  41.794  11.941
19596W        W90196  12.170  29.718  10.767
19597W        W90197   5.926  34.142  12.536
19598W        W90198   5.104  36.991  11.187
19599W        W90199  35.866  10.565   4.360
19600W        W90200  36.840  44.051   1.437
19601W        W90201  18.173   7.263  10.983
19602W        W90202  40.502  13.128  11.192
19603W        W90203  31.734  29.443  10.884
19604W        W90204  11.986  33.726  13.902
19605W        W90205   7.156  30.577   1.374
19606W        W90206  34.193   5.687  10.650
19607W        W90207   7.232  33.855  12.627
19608W        W90208   5.966  20.114  12.026
19609W        W90209  19.257  27.491  13.859
19610W        W90210  20.817  16.876   0.942
19611W        W90211  30.314  18.359  13.196
19612W        W90212  31.096  26.960  10.934
19613W        W90213  44.791   1.782   0.981
19614W        W90214   1.882   5.884   2.408
19615W        W90215   4.736   9.035  11.079
19616W        W90216  41.840  29.343   2.159
19617W        W90217  26.948  22.478   2.882
19618W        W90218  43.853  37.788  10.653
19619W        W90219  27.524   9.857  13.314
19620W        W90220  43.699  25.536   0.434
19621W        W90221  38.882   1.003  12.478
19622W        W90222  25.027  17.755  14.092
19623W        W90223  44.978   4.720  10.819
19624W        W90224  20.964  17.099  11.199
19625W        W90225  22.940  37.913   4.831
19626W        W90226  34.831  27.025   4.682
19627W        W90227  37.942  24.480   3.213
19628W        W90228  32.209   6.561   0.578
19629W        W90229  42.450  21.924  14.755
19630W        W90230  30.900   2.651   2.926
19631W        W90231  37.877  15.050   1.337
19632W        W90232  14.839  33.153   2.634
19633W        W90233  32.680  25.655  13.802
19634W        W90234  16.282  44.324   4.557
19635W        W90235   0.063  33.992  14.875
19636W        W90236   3.370   2.274  12.042
19637W        W90237   0.464  24.800   2.886
19638W        W90238  30.674  17.945   0.609
19639W        W90239  36.080  13.605   4.366
19640W        W90240  21.661  42.483  10.956
19641W        W90241  38.576   4.928  12.144
19642W        W90242  13.207   2.352  10.725
19643W        W90243  22.300   8.144  13.301
19644W        W90244  35.602   1.457   4.865
19645W        W90245  30.328  11.947   2.215
19646W        W90246  14.217  33.045  10.811
19647W        W90247  22.744  14.905  10.547
19648W        W90248  31.633  15.860  13.397
19649W        W90249  36.915   2.431   3.781
19650W        W90250  26.651  17.042   2.888
19651W        W90251   8.712  36.609   4.540
19652W        W90252  43.561   9.886   0.571
19653W        W90253   5.456  22.191   4.424
19654W        W90254   2.502  37.272   0.337
19655W        W90255  20.624  16.348  14.897
19656W        W90256   1.905  35.905  14.145
19657W        W90257  13.549  32.958   2.276
19658W        W90258  37.141  26.081   0.270
19659W        W90259   1.200  12.583  12.470
19660W        W90260  17.123  37.094  10.051
19661W        W90261  16.540  43.340   4.997
19662W        W90262  25.644  24.698  13.860
19663W        W90263   2.581   9.561  12.874
19664W        W90264  42.755  31.414  11.009
19665W        W90265  32.892  16.581  10.567
19666W        W90266  33.048  13.343  13.137
19667W        W90267  36.970  44.566   2.724
19668W        W90268  25.928  10.299   0.837
19669W        W90269   8.843  22.480  12.139
19670W        W90270  27.251   5.815   3.656
19671W        W90271  18.746  35.573   0.775
19672W        W90272  44.450  39.964  12.599
19673W        W90273  27.805  36.533   3.807
19674W        W90274  33.075  37.118  11.874
19675W        W90275   2.949  34.992  13.411
19676W        W90276   0.024  32.550   3.225
19677W        W90277  32.093  44.119   5.017
19678W        W90278  24.018  27.961   2.583
19679W        W90279  37.399  29.194  14.799
19680W        W90280  13.728  12.638   0.495
19681W        W90281  34.499  25.923  14.350
19682W        W90282  19.419   4.300   2.678
19683W        W90283   9.840  30.176   3.897
19684W        W90284  19.026  17.326  14.313
19685W        W90285  43.024  33.057  14.880
19686W        W90286   9.351   5.080   2.293
19687W        W90287   9.011   7.607  10.236
19688W        W90288  34.631  16.716  11.991
19689W        W90289  36.507  29.449  13.430
19690W        W90290  16.236  30.377   0.661
19691W        W90291   4.633  11.436  14.134
19692W        W90292  37.002  42.350   2.254
19693W        W90293   3.302  24.343  11.512
19694W        W90294  37.070  41.962  12.631
19695W        W90295  44.522  40.430   1.908
19696W        W90296   6.278  40.465  10.492
19697W        W90297  21.166  30.706   1.846
19698W        W90298  18.904  31.703   1.347
19699W        W90299  43.492  28.191   2.207
19700W        W90300  19.328  32.383  12.563
19701W        W90301  39.884  13.316   3.183
19702W        W90302   2.124  44.823   2.606
19703W        W90303  19.820  38.379   2.950
19704W        W90304  42.603  44.759  14.891
19705W        W90305  44.202  29.077  14.745
19706W        W90306  37.642  40.359   2.879
19707W        W90307  40.408  36.500   1.654
19708W        W90308  13.185   2.126  12.970
19709W        W90309  18.703  28.570   0.892
19710W        W90310   0.246   5.922   3.430
19711W        W90311  17.700   8.830  11.117
19712W        W90312  39.425  44.259  12.571
19713W        W90313  40.795   0.717   2.175
19714W        W90314   5.806  35.569  12.568
19715W        W90315   9.703  29.453   4.740
19716W        W90316   7.770  39.879  12.826
19717W        W90317  23.537  34.324   1.817
19718W        W90318  18.867  30.031  13.045
19719W        W90319  11.490   4.798  12.524
19720W        W90320  25.833  28.017   1.364
19721W        W90321  29.852   9.878  14.395
19722W        W90322  13.466  32.927   3.236
19723W        W90323  16.801   3.052   4.236
19724W        W90324  38.938   3.354   4.622
19725W        W90325  23.619  16.543  12.523
19726W        W90326   8.471  29.789  12.369
19727W        W90327  36.229  30.188   1.790
19728W        W90328  21.232  34.119  10.635
19729W        W90329  13.254   4.831  11.172
19730W        W90330  23.277  29.744  11.057
19731W        W90331  23.571  30.615   1.367
19732W        W90332  19.650   9.389   0.336
19733W        W90333  28.645  37.347  12.579
19734W        W90334  36.351  28.487  12.489
19735W        W90335   8.766   8.234  11.084
19736W        W90336   9.561   7.820   4.063
19737W        W90337   3.242  33.990  10.849
19738W        W90338  32.097   4.180  14.703
19739W        W90339  43.074  20.728  11.946
19740W        W90340  39.792  16.206   2.668
19741W        W90341  29.026  15.568   2.900
19742W        W90342  13.059  32.059   1.765
19743W        W90343  39.128  30.479   1.750
19744W        W90344  22.479  23.042   1.906
19745W        W90345  12.221  21.940  11.095
19746W        W90346  26.424  44.318  14.400
19747W        W90347  14.291  31.582  10.573
19748W        W90348   9.134  28.610  14.714
19749W        W90349  37.877   2.470   3.832
19750W        W90350  32.922   4.344  12.470
19751W        W90351   0.452  28.603   3.615
19752W        W90352   4.045  30.713   5.059
19753W        W90353  24.295  31.799   4.556
19754W        W90354  43.403   0.310  11.596
19755W        W90355   3.824  18.108  12.411
19756W        W90356  30.537   8.547   0.254
19757W        W90357  41.829  30.497  14.741
19758W        W90358  40.422  27.487  11.413
19759W        W90359  31.843  35.464  12.546
19760W        W90360  23.562  31.372   3.243
19761W        W90361  19.509   8.582   1.650
19762W        W90362  15.250  38.122  12.290
19763W        W90363  38.785  30.946  12.857
19764W        W90364  37.619  10.069  11.174
19765W        W90365  37.749   5.263   4.000
19766W        W90366  14.239  13.533  13.780
19767W        W90367  24.157  28.592   0.956
19768W        W90368  44.976  35.019  10.233
19769W        W90369  24.271   0.840  10.180
19770W        W90370  10.642  35.374   1.269
19771W        W90371  27.433  30.058  12.949
19772W        W90372  37.567  18.333   2.685
19773W        W90373   9.950  23.676  11.314
19774W        W90374  27.224   8.536  12.376
19775W        W90375   2.979   2.029  12.745
19776W        W90376  29.717  12.429  12.372
19777W        W90377  14.737  31.919  13.338
19778W        W90378  23.127  33.859  10.508
19779W        W90379  13.796   6.931  10.620
19780W        W90380  33.599  15.321   2.590
19781W        W90381  21.965  24.715   3.199
19782W        W90382  44.975  24.981   0.541
19783W        W90383  21.652  20.723  12.596
19784W        W90384  28.623  16.303  14.392
19785W        W90385  36.273   0.809   2.355
19786W        W90386   6.095  37.996   2.589
19787W        W90387  40.291  30.581  14.396
19788W        W90388  31.652  18.774  13.790
19789W        W90389  11.303  15.345  13.806
19790W        W90390  16.579  13.844  13.436
19791W        W90391  15.418  32.754  11.505
19792W        W90392  13.761  44.474   0.758
19793W        W90393  39.627  42.184   1.823
19794W        W90394  37.849  19.243  10.640
19795W        W90395   1.930   2.974  10.607
19796W        W90396  24.717  11.664  14.747
19797W        W90397  36.832   4.734   2.297
19798W        W90398  33.710  24.615   0.898
19799W        W90399  10.347  28.707  12.137
19800W        W90400  11.845  22.653  13.315
19801W        W90401  23.118  12.681  14.733
19802W        W90402  20.745  10.377   4.266
19803W        W90403  25.016  41.450   3.356
19804W        W90404   1.338   7.430   0.432
19805W        W90405   5.722  27.597   1.769
19806W        W90406   0.948  33.598   2.795
19807W        W90407  35.151  24.310  12.710
19808W        W90408  22.219  16.721  14.335
19809W        W90409  43.310  14.764   4.532
19810W        W90410  31.434  37.980  11.456
19811W        W90411  15.432  36.406  13.052
19812W        W90412  36.420  38.303  13.294
19813W        W90413  15.011  32.869   0.280
19814W        W90414  22.048  23.814   1.709
19815W        W90415   7.886  17.061  11.986
19816W        W90416  41.602  10.847   0.872
19817W        W90417  42.989   8.695   1.867
19818W        W90418  40.613   7.906   4.611
19819W        W90419   9.619  21.318   1.326
19820W        W90420  30.106  16.628  13.833
19821W        W90421  25.636  14.788   0.706
19822W        W90422  37.553  37.807   1.208
19823W        W90423  37.509   6.231  12.878
19824W        W90424  37.936  39.545   2.734
19825W        W90425  26.008  37.915  13.778
19826W        W90426  21.813   3.871   0.367
19827W        W90427  26.934  12.750   1.397
19828W        W90428  16.515  40.798   1.141
19829W        W90429   4.305  44.812   4.094
19830W        W90430  37.967  15.375  12.627
19831W        W90431   2.953   9.401   0.320
19832W        W90432  10.551  16.712   2.702
19833W        W90433  31.022  20.758   2.273
19834W        W90434  27.550  32.692   1.727
19835W        W90435  16.577  31.860  13.942
19836W        W90436  23.376  31.264  12.096
19837W        W90437  18.363   5.711  12.389
19838W        W90438  44.446  35.102   4.676
19839W        W90439   5.727   1.427   0.996
19840W        W90440  21.738   7.875  12.518
19841W        W90441   9.728   3.213   0.072
19842W        W90442  31.368  31.975   1.819
19843W        W90443  22.631   0.848   3.672
19844W        W90444  36.509  14.090  13.581
19845W        W90445   9.902  42.296   0.236
19846W        W90446  43.211  37.120   0.328
19847W        W90447  19.095  34.137  10.271
19848W        W90448  39.877  36.936  11.605
19849W        W90449  32.045  29.051  10.999
19850W        W90450  23.793  15.366  11.947
19851W        W90451  17.691  33.119  13.055
19852W        W90452  30.410  43.998   4.816
19853W        W90453  38.122   5.973   0.195
19854W        W90454   0.132  24.556  13.400
19855W        W90455   4.130  17.318   3.762
19856W        W90456  14.837  22.002   0.342
19857W        W90457  31.107   3.814  14.092
19858W        W90458   5.402  13.584  14.476
19859W        W90459  15.970  37.475   3.270
19860W        W90460  19.765  11.965  13.515
19861W        W90461  29.196  33.406  11.038
19862W        W90462  26.160  39.468  11.713
19863W        W90463   4.202   2.143   1.164
19864W        W90464  25.435  25.124  14.696
19865W        W90465  27.637  37.032   3.933
19866W        W90466  41.278   8.705   4.580
19867W        W90467  25.697   1.690  10.893
19868W        W90468  33.881  11.440  13.997
19869W        W90469   1.692   3.285  12.423
19870W        W90470   3.738  24.139   4.101
19871W        W90471  35.494  13.116   2.345
19872W        W90472  39.458  23.682  12.566
19873W        W90473   2.821   7.192  14.187
19874W        W90474  35.059  38.819   3.577
19875W        W90475  18.191  10.596   2.698
19876W        W90476  43.533   3.101   4.990
19877W        W90477  41.372  38.468   2.306
19878W        W90478   4.494  37.371   2.057
19879W        W90479  44.680  18.582  14.894
19880W        W90480   1.933  41.307   2.026
19881W        W90481  12.312  41.530   4.577
19882W        W90482  40.403  21.169  13.490
19883W        W90483  22.993  23.325   0.854
19884W        W90484  15.207   7.003  14.295
19885W        W90485  38.853   7.811   4.530
19886W        W90486  42.065  40.971  12.929
19887W        W90487  43.992  11.305   1.780
19888W        W90488  29.613  25.874  13.022
19889W        W90489   0.239   9.840   1.930
19890W        W90490  33.616  44.935  11.170
19891W        W90491  23.251  23.308  12.067
19892W        W90492   7.653   9.679   4.205
19893W        W90493  31.637  18.746  10.834
19894W        W90494  19.561  42.690  14.268
19895W        W90495  43.542  33.549   3.273
19896W        W90496  13.694  43.800  12.120
19897W        W90497  12.864  12.094  11.554
19898W        W90498  38.517   2.129  14.620
19899W        W90499  14.112  44.802   2.381
19900W        W90500  15.835  33.913   0.901
19901W        W90501  39.793   9.236  14.424
19902W        W90502   5.219  24.597   4.600
19903W        W90503   7.894  43.448  11.193
19904W        W90504  16.054  12.676   0.874
19905W        W90505   6.903  23.882  14.221
19906W        W90506  26.247  26.473  12.163
19907W        W90507  31.864  35.404   4.222
19908W        W90508  14.335  20.897  14.926
19909W        W90509  29.225  18.062  10.931
19910W        W90510  21.164  24.909   0.465
19911W        W90511   3.830  10.832   1.692
19912W        W90512  40.058  44.245   1.891
19913W        W90513   5.867  31.631  11.027
19914W        W90514   1.255  39.540  13.605
19915W        W90515  34.626  43.438  11.542
19916W        W90516  39.214  40.952   1.680
19917W        W90517  18.175  27.733   1.237
19918W        W90518   2.464   3.826  13.605
19919W        W90519  18.185   4.905   3.053
19920W        W90520  15.821  41.581  12.051
19921W        W90521   9.303  11.142  14.021
19922W        W90522  31.867  14.579   0.248
19923W        W90523  24.406  13.806   0.940
19924W        W90524  13.630   0.813   4.771
19925W        W90525  33.402  20.549   1.786
19926W        W90526  39.567  35.361   2.336
19927W        W90527  29.943  11.639   1.350
19928W        W90528  15.180  15.407   1.420
19929W        W90529   4.057  43.268   2.974
19930W        W90530  39.286   8.657  13.962
19931W        W90531  31.299   1.399  12.010
19932W        W90532   9.715  13.719   1.474
19933W        W90533  13.825  18.794   1.346
19934W        W90534  10.506  42.871   0.800
19935W        W90535  20.133  11.331  11.493
19936W        W90536  34.627  21.276   1.512
19937W        W90537  39.507  34.130   0.968
19938W        W90538  18.619  34.412  13.814
19939W        W90539  17.304  14.768  10.710
19940W        W90540  22.651  33.990  12.896
19941W        W90541  43.496  42.670   1.345
19942W        W90542   7.843  32.615  10.754
19943W        W90543  36.571  34.778   0.245
19944W        W90544  39.945   5.182  12.286
19945W        W90545  17.559  41.859  11.924
19946W        W90546  19.478  30.356  10.654
19947W        W90547  25.723  32.975  12.856
19948W        W90548  37.494   6.419  11.821
19949W        W90549   2.314  28.602  11.563
19950W        W90550  13.491   5.232   0.404
19951W        W90551   9.395  43.838  14.555
19952W        W90552   9.329  14.590   1.348
19953W        W90553  28.215  24.991  14.386
19954W        W90554   0.494  15.780   1.394
19955W        W90555   9.142  28.883  11.212
19956W        W90556   6.357  44.369  13.065
19957W        W90557  24.636  10.200   0.156
19958W        W90558  29.071  40.924  14.725
19959W        W90559  37.076  14.572  11.666
19960W        W90560  38.423  12.720   0.184
19961W        W90561  42.839  23.378  11.082
19962W        W90562  22.993  36.890  12.490
19963W        W90563   9.133  24.128   2.941
19964W        W90564  40.621  41.076   3.281
19965W        W90565   3.978  17.365   0.632
19966W        W90566  27.619  15.598  13.803
19967W        W90567  37.888   9.114  11.729
19968W        W90568  23.410   3.054   3.710
19969W        W90569   2.779  23.531  11.670
19970W        W90570  28.937  35.738   0.667
19971W        W90571  33.602   0.558   1.831
19972W        W90572  44.299  26.077  14.007
19973W        W90573  13.027  37.586   1.416
19974W        W90574  12.646  29.353  12.672
19975W        W90575  34.892  33.406   3.591
19976W        W90576  16.892  35.039   2.121
19977W        W90577  31.607  14.137   0.293
19978W        W90578   1.852  39.441   2.382
19979W        W90579  22.004  26.477  10.713
19980W        W90580   1.408  28.303  13.058
19981W        W90581  27.085   8.761  13.734
19982W        W90582   5.158  22.807   2.994
19983W        W90583  26.714  36.483   0.791
19984W        W90584  27.939  17.303  13.321
19985W        W90585  41.640  12.789  10.982
19986W        W90586  13.093   7.849   3.290
19987W        W90587  29.220  31.609   4.638
19988W        W90588  31.194  14.105   1.308
19989W        W90589  42.039  32.469   3.218
19990W        W90590  33.626  39.613  12.546
19991W        W90591  25.315  17.688   3.866
19992W        W90592  15.563  14.918  11.250
19993W        W90593   4.923  43.881   0.483
19994W        W90594  40.393   1.193  12.876
19995W        W90595  41.451   4.189  11.680
19996W        W90596  16.276  32.682   0.259
19997W        W90597  30.550  16.328  12.504
19998W        W90598   3.673  10.378   4.239
19999W        W90599  25.234  12.183   0.255
20000W        W90600  24.484  21.025   4.866
20001W        W90601  20.643  37.824  12.610
20002W        W90602   1.759  41.550  11.230
20003W        W90603  31.396  22.462  11.552
20004W        W90604  10.255  12.410   4.552
20005W        W90605  15.803   7.945   2.882
20006W        W90606  39.798  39.432  11.451
20007W        W90607  28.416  36.487  12.917
20008W        W90608  19.073  30.545   3.428
20009W        W90609  39.145  10.354   0.822
20010W        W90610  24.494   2.536  14.434
20011W        W90611  36.397  10.931   1.883
20012W        W90612  23.690   3.348   2.752
20013W        W90613   5.001  44.484   4.429
20014W        W90614  28.654  34.803  11.985
20015W        W90615  19.513  14.298  11.212
20016W        W90616  20.914  29.166  12.537
20017W        W90617  25.361  42.435   0.774
20018W        W90618  19.459   5.442  10.152
20019W        W90619  41.123   7.733  14.917
20020W        W90620   1.165  40.572  13.075
20021W        W90621  36.973  39.014   1.169
20022W        W90622   6.016  31.507  14.003
20023W        W90623   9.322  40.813   0.762
20024W        W90624  40.985  22.466  10.332
20025W        W90625  25.233   7.690   1.322
20026W        W90626  34.105  15.851   3.268
20027W        W90627  18.922   3.801   1.311
20028W        W90628  30.561  17.036   1.453
20029W        W90629   3.738  13.547   3.674
20030W        W90630  34.878  10.851  14.387
20031W        W90631  16.557  26.876   3.288
20032W        W90632  19.106  31.377   0.041
20033W        W90633  19.920  10.713   3.744
20034W        W90634  36.417  12.135   2.018
20035W        W90635  33.117  27.165   3.946
20036W        W90636   5.910  21.252   0.715
20037W        W90637  37.699  39.091   2.725
20038W        W90638  33.489  11.823   0.479
20039W        W90639  43.029  43.008  13.122
20040W        W90640  33.835  34.063   1.676
20041W        W90641  11.588  35.319   0.320
20042W        W90642  24.241   2.375   2.763
20043W        W90643  41.710  24.503  12.646
20044W        W90644  16.600  39.497   4.190
20045W        W90645  14.211  13.506   2.001
20046W        W90646  23.239  22.594  14.337
20047W        W90647  44.938  25.874  12.037
20048W        W90648  31.433  34.443   4.190
20049W        W90649  39.892   8.895   2.019
20050W        W90650  10.488  44.001   3.766
20051W        W90651  10.704  29.008  14.647
20052W        W90652  33.148  21.052   2.857
20053W        W90653  43.745  43.728   1.840
20054W        W90654  16.266  25.887   1.888
20055W        W90655  42.385   2.473   2.642
20056W        W90656  12.166   3.602   4.603
20057W        W90657  41.836  13.790  12.467
20058W        W90658  31.349  31.618  12.535
20059W        W90659   3.168  19.233  13.815
20060W        W90660   7.940  13.812   4.961
20061W        W90661   9.820  23.235  10.661
20062W        W90662  42.981  16.866   0.273
20063W        W90663  38.987  43.232  12.939
20064W        W90664  29.448   8.901  13.075
20065W        W90665  36.497  30.148   4.486
20066W        W90666   2.300  10.785   3.752
20067W        W90667  23.592  20.159  12.514
20068W        W90668  31.571   5.447  13.535
20069W        W90669  15.798  17.612   3.138
20070W        W90670  38.000  36.469  14.097
20071W        W90671  36.664   1.185  12.918
20072W        W90672  13.475  19.719  10.833
20073W        W90673  40.441  41.423  12.811
20074W        W90674  12.422  20.815  12.481
20075W        W90675  18.340   2.789  14.396
20076W        W90676   3.858  16.806  14.189
20077W        W90677  26.406   6.797   3.252
20078W        W90678   6.218  15.112   1.971
20079W        W90679   9.272  14.799  13.134
20080W        W90680  33.380  21.287   0.454
20081W        W90681  39.502  16.335  14.827
20082W        W90682  43.356  39.347  13.992
20083W        W90683   3.344  25.709  12.445
20084W        W90684  29.815   8.104   1.820
20085W        W90685  22.139  14.971   1.951
20086W        W90686  27.207   3.234  11.450
20087W        W90687  15.065  20.301   0.087
20088W        W90688  11.796  34.761  13.814
20089W        W90689   7.244  12.326  14.949
20090W        W90690  11.763  12.625  10.542
20091W        W90691  13.603  26.538   1.323
20092W        W90692  35.003   7.666   4.346
20093W        W90693  25.599  36.923  14.767
20094W        W90694  20.667  30.963   0.699
20095W        W90695  31.960  32.050  10.831
20096W        W90696  16.711  30.131   0.832
20097W        W90697   7.726   6.817   2.804
20098W        W90698  36.332   4.917  12.491
20099W        W90699   2.020  35.141   4.941
20100W        W90700  26.942   8.449   3.895
20101W        W90701  28.790  36.236   0.676
20102W        W90702  27.022  39.206   3.836
20103W        W90703  31.233  39.506   0.549
20104W        W90704   0.353  31.090  13.925
20105W        W90705  18.883  32.329   3.060
20106W        W90706  44.799  11.875  11.667
20107W        W90707   0.550   7.558  11.487
20108W        W90708  43.635  35.415  10.784
20109W        W90709  15.538   7.304  10.764
20110W        W90710  35.379  24.560  13.947
20111W        W90711  17.685  41.120   1.695
20112W        W90712   1.907  39.072  11.548
20113W        W90713  10.850  44.931   2.397
20114W        W90714  21.611  12.292   0.864
20115W        W90715  13.039  28.582  12.349
20116W        W90716  11.335  16.359   2.931
20117W        W90717  31.588  40.785  13.051
20118W        W90718  32.884  37.319   3.268
20119W        W90719   3.096  40.496  12.508
20120W        W90720   9.062  10.822  14.407
20121W        W90721  17.852  32.349   3.253
20122W        W90722  44.938  44.803  10.855
20123W        W90723  17.826  30.560   2.542
20124W        W90724  27.510  16.654   1.341
20125W        W90725   9.308  32.093   2.113
20126W        W90726  26.353  23.462   2.719
20127W        W90727  24.690  17.538  12.307
20128W        W90728  43.855  42.258   2.959
20129W        W90729   8.242  33.177  12.024
20130W        W90730  27.660  44.743  11.893
20131W        W90731  18.613  26.138   2.374
20132W        W90732  36.398   1.844   2.342
20133W        W90733  11.518  12.181   3.892
20134W        W90734  19.159  33.182  11.984
20135W        W90735  40.162  23.490   4.150
20136W        W90736  33.794  16.071   1.920
20137W        W90737  28.651  33.942   1.856
20138W        W90738  36.898  40.223  11.785
20139W        W90739  30.709   7.471   2.621
20140W        W90740  39.382  29.600  14.295
20141W        W90741  37.276  35.859   2.169
20142W        W90742   5.347  39.452  14.414
20143W        W90743  36.216  12.319  14.410
20144W        W90744  21.093  21.575  11.466
20145W        W90745  30.588  18.774  13.039
20146W        W90746  43.106  27.530   2.199
20147W        W90747  14.598  42.569   0.460
20148W        W90748  43.530  42.535  11.626
20149W        W90749  23.008   4.385   4.727
20150W        W90750  32.200   3.332   3.506
20151W        W90751  32.068  32.348   1.228
20152W        W90752  26.450   9.742  11.042
20153W        W90753  16.152   9.291  13.924
20154W        W90754  24.604  37.037   1.445
20155W        W90755  32.483  28.437   3.295
20156W        W90756  36.040  36.059   4.123
20157W        W90757  27.119  14.792   0.247
20158W        W90758  44.267  15.161  13.881
20159W        W90759  19.218  35.566   4.599
20160W        W90760  23.274  17.826   0.358
20161W        W90761  29.854  39.075   4.579
20162W        W90762   1.872  16.292  11.441
20163W        W90763  27.577  35.342  13.493
20164W        W90764  38.265  38.274  12.549
20165W        W90765  18.993  44.692  12.818
20166W        W90766   0.686   3.500  13.390
20167W        W90767  41.043  23.028   3.295
20168W        W90768   8.446  22.105  12.107
20169W        W90769  31.185  42.492  14.658
20170W        W90770   4.373  23.584   3.714
20171W        W90771  35.495  32.294   2.364
20172W        W90772  15.584  17.453  13.888
20173W        W90773  15.427  34.964  13.480
20174W        W90774  38.239  38.598   1.638
20175W        W90775  15.241  19.748   4.165
20176W        W90776  17.021  11.966  13.074
20177W        W90777  21.387  19.530   2.108
20178W        W90778  24.447  20.590   0.770
20179W        W90779  34.059  14.120  14.817
20180W        W90780   4.894  28.520   0.216
20181W        W90781  22.425  42.616  12.072
20182W        W90782  39.548   4.269   2.239
20183W        W90783  25.953  20.741   0.747
20184W        W90784  28.005  42.548   2.882
20185W        W90785  11.698  33.940  14.383
20186W        W90786   1.211  32.615  10.794
20187W        W90787   8.432  20.597  13.682
20188W        W90788  12.315  28.744   1.269
20189W        W90789  28.357  15.075   1.042
20190W        W90790   4.341  37.338  14.058
20191W        W90791  31.938  37.313  11.383
20192W        W90792  30.513  27.993   4.500
20193W        W90793  39.361  16.065   1.073
20194W        W90794  28.978  33.383  13.949
20195W        W90795  37.143  27.508  14.485
20196W        W90796  11.787  40.953  12.594
20197W        W90797  11.351   0.239   4.291
20198W        W90798  43.476   6.392  11.117
20199W        W90799  34.981  14.769  10.439
20200W        W90800   4.896  40.087  13.603
20201W        W90801   9.334  12.597   4.603
20202W        W90802  35.723   6.104   3.713
20203W        W90803  18.572   1.440   0.777
20204W        W90804   9.332  38.136   3.237
20205W        W90805  43.341  19.984  11.623
20206W        W90806   7.906  22.685   4.132
20207W        W90807  38.118   3.561  12.896
20208W        W90808   2.183  26.994  11.007
20209W        W90809  36.558   5.934  14.522
20210W        W90810  28.034   2.386  10.770
20211W        W90811  43.337  12.091   1.513
20212W        W90812  10.371  35.765  12.425
20213W        W90813  17.656  27.394  14.897
20214W        W90814  21.113  44.428  13.774
20215W        W90815  41.754  44.974  12.562
20216W        W90816   0.854  35.415   1.207
20217W        W90817  39.290  21.571   0.878
20218W        W90818   9.494   0.277  14.865
20219W        W90819  24.434   1.461   3.772
20220W        W90820  26.075  16.170  10.686
20221W        W90821  36.505  39.262   1.336
20222W        W90822  10.500  41.173   2.420
20223W        W90823  16.633  21.892   0.177
20224W        W90824  23.972   4.421  14.537
20225W        W90825  28.935  42.964   0.787
20226W        W90826  10.262  36.273   0.344
20227W        W90827  40.378  33.831   0.845
20228W        W90828  33.028  18.974   1.362
20229W        W90829   7.276   0.792  12.924
20230W        W90830  39.303   5.954  14.937
20231W        W90831  19.977  31.983   3.799
20232W        W90832  34.496   2.041   1.325
20233W        W90833  39.228  16.496   3.794
20234W        W90834  21.651  38.773  14.453
20235W        W90835  22.081  18.714   1.945
20236W        W90836  43.416  19.222   4.539
20237W        W90837  21.820  36.593  13.552
20238W        W90838  28.645  11.618   4.512
20239W        W90839  25.429  14.555  14.372
20240W        W90840  24.500   5.017   2.836
20241W        W90841  21.146  27.411  14.365
20242W        W90842  38.286  27.890   2.607
20243W        W90843  23.048  36.570   3.679
20244W        W90844  27.790   2.850   3.798
20245W        W90845   3.817  31.643   2.745
20246W        W90846  40.756   3.577   1.322
20247W        W90847  27.524   7.311  12.136
20248W        W90848  33.158  30.185  13.227
20249W        W90849   4.823  11.541   0.511
20250W        W90850  19.499  12.681   0.451
20251W        W90851  15.108  37.620  12.309
20252W        W90852  11.153  26.121   1.855
20253W        W90853  16.030  31.608  13.038
20254W        W90854  13.361  39.107  13.026
20255W        W90855  15.340  12.773  11.135
20256W        W90856  11.568  35.665   4.824
20257W        W90857  39.072  40.599  10.764
20258W        W90858  18.702   7.215   4.135
20259W        W90859  16.854  35.245  11.299
20260W        W90860  38.016  31.482  12.100
20261W        W90861  37.051  32.042  10.782
20262W        W90862  42.803  37.216   4.587
20263W        W90863  41.474  24.156  10.820
20264W        W90864  19.725  31.072   3.826
20265W        W90865   2.302  31.365   4.599
20266W        W90866   1.861   5.388  14.148
20267W        W90867  21.664  42.030  10.695
20268W        W90868  18.599  42.359  14.777
20269W        W90869  26.232  30.675   5.019
20270W        W90870  22.018  23.584  10.923
20271W        W90871  21.002   0.503   5.079
20272W        W90872  17.719  43.522   0.315
20273W        W90873  26.743  42.218  13.400
20274W        W90874  10.386  19.346   3.220
20275W        W90875  43.479  40.969  10.779
20276W        W90876  44.633  25.652  10.793
20277W        W90877  35.109  25.429  12.903
20278W        W90878  22.556  44.367  14.546
20279W        W90879   1.670   2.026  10.749
20280W        W90880   1.694  39.362  13.389
20281W        W90881  38.903  13.906  14.463
20282W        W90882  21.891   1.810   4.567
20283W        W90883  19.059   8.044  12.236
20284W        W90884  28.657   4.261  10.417
20285W        W90885  30.484  12.918  11.978
20286W        W90886  40.077  30.006   1.293
20287W        W90887  14.665  10.353  13.999
20288W        W90888  27.727   6.908  13.983
20289W        W90889  24.714  15.579  12.960
20290W        W90890  17.354  25.025   0.805
20291W        W90891  38.514  20.624  13.621
20292W        W90892  28.632  37.078  11.142
20293W        W90893  42.643  14.392  14.799
20294W        W90894  41.018  18.561  12.557
20295W        W90895  17.143   2.106  11.109
20296W        W90896  28.584  35.845   1.031
20297W        W90897  31.941   4.336  11.115
20298W        W90898  17.771  24.768  14.706
20299W        W90899  28.813  36.333   3.709
20300W        W90900   2.822  34.233   1.841
20301W        W90901   6.494   4.489  11.948
20302W        W90902   5.420  29.359  14.326
20303W        W90903  21.659  19.001  13.005
20304W        W90904   4.845  36.967   3.544
20305W        W90905   3.396  43.262  11.988
20306W        W90906  12.285  27.589  14.746
20307W        W90907  34.264  36.881  11.084
20308W        W90908  12.492  16.186  10.793
20309W        W90909   7.161  19.668   3.579
20310W        W90910  13.661   5.997  14.280
20311W        W90911  38.337   4.751  10.957
20312W        W90912  41.931  25.090   0.717
20313W        W90913  22.612   9.121  12.125
20314W        W90914  34.017   9.097   1.480
20315W        W90915   7.942  38.029  14.371
20316W        W90916  30.729  40.760   2.249
20317W        W90917   3.369  30.627   3.719
20318W        W90918  10.613   2.514  13.599
20319W        W90919  26.158  32.690   0.897
20320W        W90920  13.665  30.576   0.621
20321W        W90921  40.130  29.042  11.114
20322W        W90922   9.750  22.561  13.732
20323W        W90923  15.872  30.468  11.469
20324W        W90924  14.316  35.581  12.638
20325W        W90925  14.715  35.324   1.842
20326W        W90926   1.556   5.336  12.992
20327W        W90927  25.160  40.093   1.810
20328W        W90928  39.776  39.490  13.743
20329W        W90929   8.659   7.273   2.794
20330W        W90930  10.849  28.757   1.319
20331W        W90931  11.854  38.861  14.418
20332W        W90932   9.550   5.958  11.310
20333W        W90933   9.801   4.663   0.420
20334W        W90934  30.170  35.201  14.428
20335W        W90935  10.344  36.534  12.706
20336W        W90936  17.010  40.283   3.788
20337W        W90937   3.270  31.027  14.958
20338W        W90938  32.905   0.737   3.068
20339W        W90939  27.211  10.740   2.604
20340W        W90940  28.888   1.503  11.076
20341W        W90941   7.271   4.311   1.742
20342W        W90942  26.260  13.841  13.864
20343W        W90943  35.837   8.542   2.656
20344W        W90944  27.764  22.678   2.860
20345W        W90945   7.088  24.662   3.582
20346W        W90946  23.019  13.853   0.744
20347W        W90947  40.851   7.664   0.344
20348W        W90948  11.196  11.335  14.782
20349W        W90949  20.415  39.471   3.632
20350W        W90950   0.076  27.703  11.138
20351W        W90951  44.927   9.272   0.700
20352W        W90952   4.034  33.516   0.320
20353W        W90953  20.838  10.705   0.786
20354W        W90954  18.149  14.102   3.687
20355W        W90955  32.620  11.375  13.235
20356W        W90956  18.568  40.639  12.052
20357W        W90957  11.211  32.057   3.209
20358W        W90958  32.618  20.039   0.269
20359W        W90959  19.638   2.143   0.866
20360W        W90960   8.297   2.165   3.374
20361W        W90961  15.300   5.722   1.560
20362W        W90962  29.639  38.589  14.724
20363W        W90963  28.143  32.108   2.279
20364W        W90964  24.956  21.505   1.269
20365W        W90965  11.748  42.586  13.032
20366W        W90966   9.274  41.497  11.890
20367W        W90967  42.888  15.642   0.884
20368W        W90968   3.524  25.157   3.243
20369W        W90969  12.167  41.971   2.139
20370W        W90970  11.795   4.699   3.147
20371W        W90971  34.326  31.530  12.415
20372W        W90972  40.545   2.924   4.142
20373W        W90973  14.641  28.496   1.339
20374W        W90974  10.108   5.667   0.647
20375W        W90975   0.039   4.795   1.955
20376W        W90976  14.537  38.475  12.950
20377W        W90977  22.219   5.697  11.558
20378W        W90978  20.948   3.298  14.529
20379W        W90979   4.370  41.033   1.342
20380W        W90980   8.700  12.640  14.329
20381W        W90981  10.725  29.509   0.064
20382W        W90982  19.767  16.185   3.862
20383W        W90983  15.690  18.138  13.944
20384W        W90984   6.929  23.472   1.688
20385W        W90985  19.350  26.146   1.703
20386W        W90986  10.092  44.792  11.267
20387W        W90987  28.122  13.727  13.640
20388W        W90988  38.901  25.227   0.680
20389W        W90989  14.990  25.147  10.462
20390W        W90990  35.406   7.790  10.724
20391W        W90991  28.113  22.692   1.875
20392W        W90992  41.398  40.923   0.580
20393W        W90993  11.944  36.777   0.071
20394W        W90994  39.003  20.184  10.589
20395W        W90995  26.705  28.407   3.665
20396W        W90996  44.983  32.790   1.352
20397W        W90997   4.851  37.659   2.295
20398W        W90998  25.903  43.077   1.857
20399W        W90999  31.093  12.825  14.706
20400W        W91000  28.201   7.027  11.938
20401W        W91001  35.064  19.085   1.919
20402W        W91002  39.516  23.952  14.450
20403W        W91003  26.184  38.786   2.928
20404W        W91004  34.591  22.795   2.218
20405W        W91005   1.201   2.347   2.800
20406W        W91006  31.669  31.154   2.719
20407W        W91007  34.021  24.106  12.108
20408W        W91008  32.943  21.736   3.587
20409W        W91009   6.783  28.640   3.182
20410W        W91010  16.625   4.403   0.510
20411W        W91011   2.001  30.170   2.370
20412W        W91012  36.045  23.098  12.041
20413W        W91013  29.455   1.589   2.691
20414W        W91014  12.774  11.899   3.760
20415W        W91015   0.509  10.600   4.148
20416W        W91016  23.780  41.074  11.129
20417W        W91017  10.747  17.771   4.687
20418W        W91018  33.277  43.199   2.404
20419W        W91019   3.970  20.567   3.496
20420W        W91020   9.285  39.941   1.831
20421W        W91021  29.786  28.506   0.384
20422W        W91022   7.280  13.706   3.637
20423W        W91023  31.129  16.619  13.863
20424W        W91024  19.005  20.554   4.188
20425W        W91025  20.484   4.245   2.129
20426W        W91026  28.723   1.840   3.772
20427W        W91027  43.428  35.484   2.218
20428W        W91028   8.752  36.019  13.880
20429W        W91029   6.596  10.109   4.915
20430W        W91030  31.888  17.782  12.543
20431W        W91031  44.594  31.630  14.151
20432W        W91032  14.637   6.220  13.551
20433W        W91033  33.940   6.717   4.316
20434W        W91034  37.610   0.681  13.620
20435W        W91035  41.446  13.224  10.716
20436W        W91036  33.505  28.628   2.419
20437W        W91037  37.444  31.410   1.743
20438W        W91038  17.160  24.008   1.240
20439W        W91039  26.782  25.129  12.599
20440W        W91040   0.049  15.163  11.620
20441W        W91041  35.996   0.381  12.986
20442W        W91042  11.687  18.199  12.110
20443W        W91043   1.701  30.855   3.708
20444W        W91044  15.315  28.979  13.506
20445W        W91045  31.181  31.629  10.710
20446W        W91046  34.543  32.053  12.395
20447W        W91047  40.741  30.669   1.138
20448W        W91048  41.362  24.682   0.086
20449W        W91049   2.497  12.650   2.230
20450W        W91050   0.061  21.031  12.846
20451W        W91051   3.711  13.680   1.655
20452W        W91052  32.573  23.508  14.464
20453W        W91053  37.452  19.510   3.435
20454W        W91054  36.361  21.751   1.263
20455W        W91055  14.759  36.480   3.050
20456W        W91056  12.193  11.152  13.907
20457W        W91057   2.941  42.402  10.600
20458W        W91058  44.379   3.510   5.037
20459W        W91059   2.299  29.658  11.542
20460W        W91060  31.667  35.247   3.746
20461W        W91061  12.779  10.839   3.968
20462W        W91062  16.110   5.696   0.914
20463W        W91063  40.658   1.449   4.667
20464W        W91064  10.254  13.352   0.302
20465W        W91065  19.150  40.022  13.207
20466W        W91066  19.776   0.395  13.436
20467W        W91067  24.666   9.672   1.475
20468W        W91068  15.823  21.608  13.085
20469W        W91069   6.648  23.085   3.952
20470W        W91070  31.494  26.646  10.523
20471W        W91071   8.890  13.789   4.919
20472W        W91072  20.837  29.528  11.674
20473W        W91073  41.826   2.487  11.412
20474W        W91074   0.949  39.227  13.905
20475W        W91075  42.719  12.749   2.523
20476W        W91076  34.162   9.366   1.043
20477W        W91077  36.317  31.531  13.313
20478W        W91078  37.890   9.810   3.919
20479W        W91079   2.783  21.630   2.291
20480W        W91080  10.400  44.236  13.513
20481W        W91081   9.631  11.758   4.739
20482W        W91082  30.928  41.221   4.505
20483W        W91083  39.538  12.400   1.753
20484W        W91084   7.883  25.031  12.075
20485W        W91085  20.831  28.142   2.809
20486W        W91086  11.068   4.837  11.146
20487W        W91087  25.706   6.337   4.578
20488W        W91088  39.939  39.404  14.257
20489W        W91089   4.882  32.965   3.639
20490W        W91090  37.906  33.913   0.380
20491W        W91091  37.430  31.474  13.846
20492W        W91092  19.279   5.347   1.481
20493W        W91093  30.138  27.933   1.704
20494W        W91094  11.802  33.521  11.368
20495W        W91095  36.041  35.641   3.227
20496W        W91096   2.470  31.107  11.497
20497W        W91097  37.893  36.452   2.085
20498W        W91098  41.850  24.414   2.317
20499W        W91099  17.202  39.542  12.616
20500W        W91100  19.641  27.850   4.129
20501W        W91101   8.718  11.599   0.698
20502W        W91102  40.524   1.969   1.798
20503W        W91103  16.801  42.769  14.473
20504W        W91104  40.528  40.336  11.086
20505W        W91105  34.485  12.185  14.688
20506W        W91106  26.486  42.110  13.839
20507W        W91107  27.459  20.622   4.577
20508W        W91108  22.977  18.184  14.378
20509W        W91109  37.876  13.345   1.924
20510W        W91110  20.009   6.411   3.166
20511W        W91111  11.158  29.544   1.403
20512W        W91112  37.154  17.314  12.102
20513W        W91113  38.382  27.060  13.939
20514W        W91114   3.728  21.138  10.715
20515W        W91115  10.880  22.323  12.946
20516W        W91116  16.378  41.924  11.563
20517W        W91117   9.597  28.347  12.077
20518W        W91118  13.006  30.950   3.528
20519W        W91119  34.670   6.389   4.980
20520W        W91120  13.060  30.103   1.732
20521W        W91121  33.223  39.348  14.421
20522W        W91122  33.859  18.213  13.993
20523W        W91123  31.667  34.044   3.244
20524W        W91124   2.384  20.504  14.399
20525W        W91125  25.787   2.857   2.340
20526W        W91126  36.414  23.911   0.372
20527W        W91127  37.415  19.314  13.219
20528W        W91128  32.622  44.004  13.230
20529W        W91129  37.888   4.922  13.003
20530W        W91130  19.659  38.802   2.710
20531W        W91131  25.944  29.487   1.790
20532W        W91132   0.037   0.466   3.183
20533W        W91133  12.290  32.419   2.721
20534W        W91134  25.546   1.404   2.344
20535W        W91135  39.525   1.971   1.177
20536W        W91136  11.683   7.660  11.688
20537W        W91137  25.113  19.990   4.008
20538W        W91138  25.999  17.629   3.213
20539W        W91139   2.258   7.654  14.056
20540W        W91140  12.965  26.255  11.647
20541W        W91141   5.917  42.019  14.742
20542W        W91142  23.051  20.490  10.373
20543W        W91143  19.609   1.744   4.016
20544W        W91144   1.090  34.377   0.509
20545W        W91145  17.908  21.629  11.282
20546W        W91146  23.963   6.286  14.881
20547W        W91147  41.886  20.825   4.120
20548W        W91148  17.581  25.357  10.574
20549W        W91149  23.169   8.867  13.847
20550W        W91150  27.078  14.733  12.919
20551W        W91151  29.174   3.890  14.100
20552W        W91152  32.464  13.088   2.387
20553W        W91153  13.713  43.859  10.312
20554W        W91154  33.981  36.316  13.947
20555W        W91155  32.623  13.222  11.580
20556W        W91156   5.955  28.639  13.421
20557W        W91157  36.958  30.034   4.724
20558W        W91158  15.896  44.828  11.383
20559W        W91159  43.289   2.743  14.140
20560W        W91160  33.924  21.732   3.649
20561W        W91161  20.817   0.454  14.382
20562W        W91162   8.758   6.271   3.555
20563W        W91163  12.276  37.299   0.086
20564W        W91164  37.166  29.709  11.680
20565W        W91165  34.165  24.672  12.906
20566W        W91166  29.082  35.101  11.883
20567W        W91167   6.307   1.218  12.092
20568W        W91168  34.786  30.692   1.213
20569W        W91169   8.498  33.996   2.415
20570W        W91170  35.297  14.240   3.094
20571W        W91171   0.916  18.214   4.597
20572W        W91172   5.915  42.855   2.725
20573W        W91173  16.754   4.997  12.594
20574W        W91174  17.767  22.791  12.958
20575W        W91175  39.626  10.347   3.686
20576W        W91176  11.281  25.569   3.201
20577W        W91177   0.523   2.182   4.669
20578W        W91178  16.882  11.865  14.886
20579W        W91179   8.723  21.611  10.692
20580W        W91180  10.462   6.775  14.934
20581W        W91181  29.088  10.258  14.767
20582W        W91182  28.593  28.211   1.857
20583W        W91183  21.112  35.134  11.837
20584W        W91184   6.344  22.538  11.961
20585W        W91185  13.677  33.125   4.498
20586W        W91186  43.836  40.125   1.892
20587W        W91187  16.020  38.863   0.857
20588W        W91188   4.996  43.006   0.701
20589W        W91189  26.593  26.897  13.043
20590W        W91190  16.819  22.807   3.838
20591W        W91191   5.379  24.717  13.824
20592W        W91192  10.767  19.626   0.842
20593W        W91193  12.186   5.737   2.819
20594W        W91194   7.133  23.045  11.998
20595W        W91195   3.816  11.298   2.433
20596W        W91196  11.718  43.257   4.817
20597W        W91197  31.259  10.215   0.902
20598W        W91198  22.313   8.154  14.625
20599W        W91199   3.160  43.180   2.693
20600W        W91200  26.571   0.702  11.138
20601W        W91201  14.103  42.032   0.228
20602W        W91202  44.837  11.361  11.723
20603W        W91203   3.407  15.582   0.033
20604W        W91204  42.025   6.279  14.512
20605W        W91205  12.153  37.334  10.528
20606W        W91206  16.054  32.074   3.266
20607W        W91207  41.254   3.218  10.267
20608W        W91208  38.533  22.033  11.182
20609W        W91209  11.284  42.927   4.422
20610W        W91210  10.422   6.935   3.631
20611W        W91211  37.980  25.658  10.621
20612W        W91212  10.849  21.065   0.183
20613W        W91213  15.135  23.282  13.881
20614W        W91214  17.484   5.325  11.315
20615W        W91215   9.162  10.710   0.359
20616W        W91216  42.761  36.645  10.608
20617W        W91217  21.824  20.787  12.105
20618W        W91218  44.363  42.142  10.869
20619W        W91219  26.604  14.849  10.554
20620W        W91220  28.654  30.055   2.437
20621W        W91221  38.898  44.150  11.723
20622W        W91222  35.324  29.476   0.817
20623W        W91223  38.866  44.043   3.221
20624W        W91224  20.015  38.604   4.569
20625W        W91225   3.699  31.528   0.791
20626W        W91226  25.611  31.921   3.197
20627W        W91227  19.052   9.855   4.707
20628W        W91228  27.864  35.808  12.672
20629W        W91229  33.056   7.319   4.416
20630W        W91230   6.614  29.373   2.823
20631W        W91231   9.170  19.735   3.376
20632W        W91232  19.254  40.090  11.491
20633W        W91233  42.706  39.402   1.197
20634W        W91234  36.352  25.991   4.627
20635W        W91235  11.080  37.507  11.681
20636W        W91236   1.995  21.546  10.686
20637W        W91237  43.342  30.009   3.787
20638W        W91238  37.730  28.688  13.900
20639W        W91239   6.763  25.600   3.807
20640W        W91240  31.211   3.878   0.467
20641W        W91241  19.639  13.086   4.604
20642W        W91242  13.416  43.482   1.380
20643W        W91243   4.957  30.073   3.228
20644W        W91244   4.904  39.388   2.334
20645W        W91245  28.643   5.548   3.546
20646W        W91246  15.172  22.788  13.846
20647W        W91247  44.331  11.362   3.595
20648W        W91248  44.829  19.319  14.030
20649W        W91249   4.298   7.957  10.724
20650W        W91250   9.227  30.942   2.824
20651W        W91251  28.709  10.792  11.606
20652W        W91252  40.883  35.267   1.922
20653W        W91253  26.755  30.198  11.733
20654W        W91254  38.549  35.754  11.933
20655W        W91255  12.070  15.662   2.310
20656W        W91256  30.862  20.116  12.058
20657W        W91257  38.045  22.094   1.925
20658W        W91258   4.275  12.482   4.224
20659W        W91259  12.111  36.020   0.606
20660W        W91260  31.505   8.774   4.931
20661W        W91261  27.678  10.245   4.583
20662W        W91262  10.787  40.414  12.948
20663W        W91263  36.083  11.276   3.709
20664W        W91264  17.653  24.938   4.869
20665W        W91265  31.603  40.038  11.647
20666W        W91266  27.071  11.183  13.472
20667W        W91267  28.555  19.030  11.208
20668W        W91268   4.967  38.383   3.359
20669W        W91269   6.903  33.704  14.072
20670W        W91270  11.184  20.315  13.932
20671W        W91271  40.187  15.839  11.813
20672W        W91272  41.733  19.089   3.953
20673W        W91273  28.097  42.012  13.588
20674W        W91274  13.062  36.836   5.163
20675W        W91275  19.890   4.618  11.465
20676W        W91276  20.635  29.135   4.005
20677W        W91277  37.500  26.077   3.883
20678W        W91278  17.040  40.261   0.805
20679W        W91279  21.165  13.229  10.646
20680W        W91280  15.362   9.211   4.112
20681W        W91281  26.561  43.563   2.365
20682W        W91282  18.759  16.710   0.912
20683W        W91283  38.391  15.465  13.408
20684W        W91284  40.373  32.542  13.542
20685W        W91285  32.639  12.229  12.656
20686W        W91286  28.010  24.065   1.853
20687W        W91287   9.662  38.581  11.913
20688W        W91288  35.595   3.526   4.202
20689W        W91289   1.212  34.149  14.207
20690W        W91290   7.686  24.488  14.397
20691W        W91291   0.778  17.337   4.145
20692W        W91292   9.860   6.041   4.959
20693W        W91293  39.777  35.886  11.512
20694W        W91294  30.077  32.939  12.155
20695W        W91295  39.114  21.068  14.767
20696W        W91296  42.464  35.890  14.289
20697W        W91297  41.536  17.508  12.016
20698W        W91298  15.803  27.046   3.718
20699W        W91299  16.604  37.063   0.540
20700W        W91300  31.550  10.719  14.918
20701W        W91301  30.236  12.295  12.440
20702W        W91302  23.766  34.392   0.294
20703W        W91303  22.261  15.300  13.431
20704W        W91304   2.835  10.656   3.005
20705W        W91305  25.309  34.868  11.052
20706W        W91306   2.404   5.151  10.537
20707W        W91307  11.682  42.747  11.609
20708W        W91308  33.539  29.535   5.018
20709W        W91309  31.330  13.282  14.948
20710W        W91310  19.193   5.823  14.790
20711W        W91311  14.346  23.587   0.949
20712W        W91312  25.039  32.800  10.900
20713W        W91313  10.324   4.742   4.234
20714W        W91314  30.976  21.175  11.807
20715W        W91315   0.847  15.808   3.726
20716W        W91316  39.312   8.505   0.436
20717W        W91317  26.173  18.997  13.925
20718W        W91318  29.870  34.535   1.262
20719W        W91319   5.099   3.199  10.989
20720W        W91320  12.823  44.553  11.843
20721W        W91321  29.931  42.245   1.422
20722W        W91322   8.333   4.043   2.097
20723W        W91323  14.405  33.384  12.468
20724W        W91324  29.122  26.152   3.251
20725W        W91325  39.241  44.720   0.020
20726W        W91326   8.376  14.945   1.707
20727W        W91327  40.996  43.732  11.424
20728W        W91328   3.029  40.447  13.397
20729W        W91329  42.970  24.151  11.575
20730W        W91330   8.162  16.854  14.822
20731W        W91331   8.279  22.961   2.880
20732W        W91332  29.953  35.367   4.584
20733W        W91333   3.941   8.917  13.658
20734W        W91334  16.162   7.904  13.918
20735W        W91335  16.639  40.276  14.669
20736W        W91336  40.001  16.433   4.940
20737W        W91337  27.690  19.257   0.685
20738W        W91338  35.027  38.440  12.486
20739W        W91339  21.987   5.387   3.727
20740W        W91340   1.801  23.213  12.104
20741W        W91341  10.619  32.986  11.504
20742W        W91342  32.677   8.161  12.050
20743W        W91343  36.435  23.533   2.206
20744W        W91344   2.392  15.239   1.385
20745W        W91345  27.592  42.337   0.879
20746W        W91346  30.554   4.167  11.547
20747W        W91347  37.119   4.843  11.886
20748W        W91348   5.920   4.869  10.859
20749W        W91349  17.588  11.118  12.098
20750W        W91350  36.080  40.356   4.557
20751W        W91351  28.403  34.976   0.422
20752W        W91352   1.971  17.843   1.877
20753W        W91353   2.705  22.665  10.755
20754W        W91354  19.980  29.426   4.023
20755W        W91355  34.964  31.834  12.157
20756W        W91356  18.477  29.586   2.494
20757W        W91357   5.974  27.779   2.194
20758W        W91358  30.654   4.774   4.014
20759W        W91359   6.350   3.600   4.934
20760W        W91360  38.566   9.644   1.397
20761W        W91361   6.404   7.344   1.764
20762W        W91362  41.436  39.802   0.973
20763W        W91363  43.983   5.481  14.911
20764W        W91364  29.009  19.871  11.027
20765W        W91365  43.710  35.372   3.623
20766W        W91366  38.500  39.397  10.586
20767W        W91367  24.612  13.573  14.734
20768W        W91368  33.824  33.012   9.971
20769W        W91369  33.446  17.402  14.887
20770W        W91370  24.753  42.924   1.357
20771W        W91371  17.145  27.451   1.282
20772W        W91372   9.629  37.892   1.079
20773W        W91373  17.058  32.675   4.957
20774W        W91374  43.161  35.192   2.546
20775W        W91375  43.600   4.199   0.888
20776W        W91376  28.198  31.883   0.747
20777W        W91377  19.140   1.989   4.067
20778W        W91378  27.661   1.554  14.936
20779W        W91379  38.348  20.497   3.321
20780W        W91380  34.844  28.468   2.627
20781W        W91381  14.770   1.716   3.136
20782W        W91382  35.963  43.287  12.656
20783W        W91383  27.110  31.465   3.850
20784W        W91384  33.917  13.281  12.688
20785W        W91385   4.705  40.258   5.014
20786W        W91386  26.618  14.437   0.871
20787W        W91387  42.457   4.187   2.177
20788W        W91388   4.541  18.236   1.732
20789W        W91389  22.540  16.769   0.348
20790W        W91390  23.934  30.609  13.984
20791W        W91391  16.546   6.333   3.299
20792W        W91392  12.771  23.635  14.933
20793W        W91393  19.484  14.701  12.860
20794W        W91394  11.488  14.247   0.546
20795W        W91395  44.683  10.998  10.376
20796W        W91396   3.490  35.326  12.948
20797W        W91397   0.328  23.720   4.394
20798W        W91398  28.884  31.430  14.514
20799W        W91399   6.385  20.348   1.693
20800W        W91400  16.540  43.781  14.532
20801W        W91401  13.563  31.894  12.079
20802W        W91402  37.155  19.255   0.174
20803W        W91403   3.350  12.274   1.665
20804W        W91404  30.856   3.852   2.377
20805W        W91405  25.212  30.506   1.338
20806W        W91406  30.993  39.541   3.174
20807W        W91407   5.935  40.928   1.700
20808W        W91408   8.157  21.001   1.388
20809W        W91409  13.947  41.625  10.774
20810W        W91410  34.159  21.079   2.753
20811W        W91411  18.370  31.417  13.410
20812W        W91412  41.958  27.713  13.889
20813W        W91413  32.506  12.899   0.924
20814W        W91414   9.716  40.898  11.914
20815W        W91415   9.393   5.529  12.255
20816W        W91416  12.107  12.680   3.251
20817W        W91417  32.575   9.728   4.646
20818W        W91418  25.078  27.752  14.113
20819W        W91419  26.468  42.128   0.240
20820W        W91420   9.477  43.974   4.687
20821W        W91421  28.448   7.205   2.818
20822W        W91422  22.240  27.449   4.449
20823W        W91423  39.932  35.792   2.397
20824W        W91424  41.372  23.004  11.608
20825W        W91425  28.549   7.616   4.450
20826W        W91426  33.991  30.645   4.100
20827W        W91427   2.207  36.750   4.059
20828W        W91428  32.140  10.722   2.355
20829W        W91429  13.262  18.890  11.527
20830W        W91430  13.093   8.456  11.185
20831W        W91431  24.667  40.907   0.888
20832W        W91432  31.616   6.500  13.389
20833W        W91433  10.833  17.399   4.332
20834W        W91434  36.776  33.270   5.024
20835W        W91435  11.931  23.502  13.359
20836W        W91436  39.966  31.554   1.024
20837W        W91437  27.415  23.044  11.831
20838W        W91438  36.368   3.511   4.744
20839W        W91439  26.175  39.967  11.621
20840W        W91440   1.520  29.558  14.469
20841W        W91441  41.482  29.484  12.095
20842W        W91442   8.650  27.629   3.746
20843W        W91443  42.348  40.942  13.372
20844W        W91444   4.999  31.691   0.532
20845W        W91445  17.833  39.979  13.672
20846W        W91446  36.283  29.611   0.330
20847W        W91447  11.724  25.811  14.883
20848W        W91448  28.046  21.671   2.241
20849W        W91449  14.176  23.274  14.913
20850W        W91450  30.430  17.891  11.558
20851W        W91451  36.855  34.921   3.088
20852W        W91452  29.662  23.237  14.376
20853W        W91453  38.835  25.055  12.873
20854W        W91454  33.199  39.301   2.393
20855W        W91455  39.082   0.133   0.650
20856W        W91456   6.318  43.259   1.611
20857W        W91457   6.634  21.684  10.493
20858W        W91458  12.655  11.853  11.160
20859W        W91459  21.293  24.963   2.754
20860W        W91460  26.710  13.313  14.805
20861W        W91461  26.501  17.207   1.005
20862W        W91462  34.382   0.004   4.473
20863W        W91463   1.424  16.268  13.289
20864W        W91464  14.666  22.302   0.745
20865W        W91465  24.652   8.099   0.904
20866W        W91466  44.383  39.592   0.389
20867W        W91467  14.306   1.783   3.877
20868W        W91468  14.134  43.961  10.722
20869W        W91469   5.149  19.606  10.725
20870W        W91470  41.999  17.788  12.017
20871W        W91471  31.485  14.365  13.262
20872W        W91472  18.781  44.822   1.399
20873W        W91473  37.450  19.549   1.478
20874W        W91474   0.433  33.311   1.832
20875W        W91475   6.031  12.079   3.777
20876W        W91476  43.989  24.674   1.928
20877W        W91477  28.108   2.719   1.262
20878W        W91478   0.962  27.443   4.748
20879W        W91479   8.639  37.519  14.850
20880W        W91480  33.177  44.996  13.025
20881W        W91481  25.150  37.488  11.601
20882W        W91482  10.138  30.856  11.674
20883W        W91483  27.114   1.799   4.651
20884W        W91484   8.791  31.166  11.672
20885W        W91485   2.007  31.325  11.571
20886W        W91486  14.272  15.627   4.474
20887W        W91487  37.156  36.888  13.953
20888W        W91488  32.346  17.593  12.599
20889W        W91489  11.835  31.065  13.317
20890W        W91490  40.049  41.435  11.027
20891W        W91491  37.782  27.199   3.783
20892W        W91492  40.986  33.120   0.025
20893W        W91493  23.272  11.144  11.599
20894W        W91494  24.511  44.779  14.836
20895W        W91495  14.371  26.625  14.063
20896W        W91496  41.706  37.786   2.775
20897W        W91497  19.659   2.955   4.573
20898W        W91498  22.749   1.461   4.580
20899W        W91499  23.356  42.834   9.661
20900W        W91500  11.997  16.253   3.898
20901W        W91501   4.277   7.461   3.211
20902W        W91502  22.349  42.048  11.418
20903W        W91503   5.864  37.903   2.129
20904W        W91504  19.214   7.204  10.567
20905W        W91505  16.916  27.828   4.043
20906W        W91506   2.877  15.191  11.426
20907W        W91507  20.782  13.340  14.816
20908W        W91508  40.757  35.883  11.004
20909W        W91509  13.292  15.368   0.491
20910W        W91510   0.231  13.748   2.250
20911W        W91511  24.908  40.522   4.370
20912W        W91512  39.281  27.020   3.808
20913W        W91513   6.795  27.558   4.050
20914W        W91514  27.857   5.179  14.502
20915W        W91515  20.486   3.418   4.107
20916W        W91516  10.197  22.042   0.755
20917W        W91517   8.818  13.283   3.122
20918W        W91518  14.433  18.589  14.391
20919W        W91519  29.469  13.320   2.884
20920W        W91520  23.762  24.288  12.570
20921W        W91521  32.156  37.041  10.988
20922W        W91522  35.171  30.072   1.822
20923W        W91523  36.260   0.352  11.247
20924W        W91524   7.887   6.866  14.559
20925W        W91525  39.809   3.066  13.531
20926W        W91526   2.192  13.702  12.979
20927W        W91527  30.691  23.677   2.804
20928W        W91528  25.996  30.495  11.579
20929W        W91529  22.184  20.385  11.514
20930W        W91530   5.247  20.460  12.512
20931W        W91531  24.252  33.169  12.944
20932W        W91532  17.838  21.224   3.216
20933W        W91533  38.971  20.751   3.319
20934W        W91534  40.919  19.567   2.602
20935W        W91535  42.996  21.753  13.957
20936W        W91536   2.004  29.569   0.736
20937W        W91537  42.498  44.086  13.598
20938W        W91538  33.995  20.683   4.364
20939W        W91539  22.282  41.044   4.456
20940W        W91540  14.135   1.200   0.899
20941W        W91541  26.931  11.153   2.803
20942W        W91542  10.878   2.710  13.153
20943W        W91543  25.969   1.284  12.396
20944W        W91544  23.626  32.604  12.613
20945W        W91545  23.131  40.340   0.464
20946W        W91546   2.198  33.716  11.924
20947W        W91547  16.116  17.347  10.204
20948W        W91548  37.992  15.528  11.236
20949W        W91549  25.501   2.055  13.592
20950W        W91550  24.080  24.047  10.935
20951W        W91551  18.632  42.588  12.893
20952W        W91552  43.241  37.938  12.410
20953W        W91553  33.988  42.368   3.670
20954W        W91554  28.980   0.502  10.328
20955W        W91555  19.806  36.995  11.032
20956W        W91556  21.663  12.433  11.625
20957W        W91557   1.839  38.091   4.952
20958W        W91558  44.107  23.173   1.112
20959W        W91559  18.798  19.595  13.352
20960W        W91560   6.487  37.403  11.026
20961W        W91561  30.883  38.891   2.211
20962W        W91562  23.924  38.537  14.920
20963W        W91563  27.958  16.007   4.502
20964W        W91564  28.183  23.024  11.648
20965W        W91565  30.921  10.152  11.971
20966W        W91566  40.076  21.123   0.052
20967W        W91567  41.495   4.739   0.934
20968W        W91568  11.714   3.490  10.678
20969W        W91569  25.476  19.803   0.872
20970W        W91570  42.289   9.843   2.227
20971W        W91571  16.337  28.077   0.793
20972W        W91572  41.564  20.394   4.915
20973W        W91573   9.949  14.888  14.544
20974W        W91574  33.907  18.692  10.488
20975W        W91575  26.532   3.779   4.224
20976W        W91576  31.951  31.495  12.054
20977W        W91577  18.093   6.284   4.537
20978W        W91578  14.625  34.710  12.037
20979W        W91579  27.893   5.516   2.912
20980W        W91580   1.302  20.827  12.540
20981W        W91581  39.320   2.534   4.468
20982W        W91582  26.699  24.417  11.594
20983W        W91583  42.430  13.691   4.405
20984W        W91584  25.898  41.532  12.181
20985W        W91585  33.208  21.784  11.668
20986W        W91586  27.843  22.622   4.372
20987W        W91587   8.349  25.567  12.472
20988W        W91588   1.533  29.039   1.453
20989W        W91589  11.568  16.675  13.498
20990W        W91590  17.546  20.588  10.719
20991W        W91591   4.468  23.526  13.395
20992W        W91592  14.002   0.342   0.744
20993W        W91593  27.184  18.982  11.557
20994W        W91594  26.713  28.198   2.726
20995W        W91595  15.309  18.519   2.391
20996W        W91596  34.549  42.416   3.843
20997W        W91597   9.708  19.773  14.068
20998W        W91598  39.492  22.531   3.266
20999W        W91599  32.809  35.969  11.213
21000W        W91600  43.837  35.437  13.873
21001W        W91601  20.271  15.978  13.393
21002W        W91602  15.480  12.562   4.213
21003W        W91603  20.125  20.057  12.101
21004W        W91604  31.880  26.123  14.089
21005W        W91605  35.460  23.625   3.126
21006W        W91606  32.630  32.102   4.072
21007W        W91607  20.160  39.473   2.193
21008W        W91608  13.873  37.546   1.790
21009W        W91609  13.513   8.778  13.056
21010W        W91610  32.466  25.879   2.314
21011W        W91611  27.924  33.065  12.613
21012W        W91612  26.672  11.207  12.894
21013W        W91613  16.941  43.292   4.610
21014W        W91614  30.953  41.919   3.498
21015W        W91615  17.156  36.473  11.775
21016W        W91616   2.180  39.881  11.765
21017W        W91617  29.299   9.553   1.765
21018W        W91618  21.157  30.846   2.798
21019W        W91619  38.689  14.935   3.420
21020W        W91620  39.047   7.726  11.155
21021W        W91621  35.607  16.345   3.193
21022W        W91622  31.424  34.344   0.925
21023W        W91623   5.858  29.318  14.042
21024W        W91624  40.440   2.183   2.303
21025W        W91625  14.283  27.278  12.432
21026W        W91626   4.236  15.093  11.996
21027W        W91627   1.842  17.122  12.030
21028W        W91628  42.019  10.757   0.006
21029W        W91629  22.975  26.302   1.195
21030W        W91630   7.315   5.188  13.849
21031W        W91631  29.570  11.683  14.885
21032W        W91632   2.737   2.926   0.449
21033W        W91633   2.858  41.364   1.156
21034W        W91634  17.070  22.768  10.630
21035W        W91635   2.516  43.315   1.933
21036W        W91636  25.912   9.730  13.307
21037W        W91637  36.074  33.313   1.143
21038W        W91638   6.064   5.919  11.155
21039W        W91639  41.937  17.861   5.744
21040W        W91640  44.919  23.649   0.649
21041W        W91641  34.676  28.662   3.679
21042W        W91642   0.535  11.665   3.210
21043W        W91643  33.014  18.691  10.639
21044W        W91644   8.634  16.985  11.292
21045W        W91645  22.936  36.844   4.079
21046W        W91646  14.193   8.829   4.409
21047W        W91647  14.616  32.330   1.267
21048W        W91648  18.103  30.455  14.802
21049W        W91649  43.478   1.740   3.108
21050W        W91650  32.013  44.258  14.022
21051W        W91651  26.096   0.728  10.142
21052W        W91652  33.127  10.856   2.872
21053W        W91653  30.481  24.406  10.753
21054W        W91654   4.625  25.120   2.172
21055W        W91655  30.532  21.207   0.163
21056W        W91656  14.809  16.054   1.659
21057W        W91657  35.567   4.671  13.096
21058W        W91658   1.361  18.872   0.403
21059W        W91659  44.084  36.085   0.203
21060W        W91660  42.942  32.985   2.209
21061W        W91661  39.648  31.929  10.825
21062W        W91662   6.699  14.901   3.785
21063W        W91663   7.349  32.504  11.468
21064W        W91664  25.038  41.856  10.507
21065W        W91665  11.750  13.424   0.149
21066W        W91666  30.815  34.726   3.575
21067W        W91667   2.294  10.331  13.884
21068W        W91668  37.625  16.100  12.025
21069W        W91669  37.647  15.748  10.922
21070W        W91670  26.096   2.988   0.100
21071W        W91671  24.027   4.367  12.462
21072W        W91672  19.231  23.019  13.916
21073W        W91673  32.522  41.437  12.670
21074W        W91674  29.619  26.012   3.506
21075W        W91675  23.707  39.610  12.386
21076W        W91676   6.424  41.926  11.332
21077W        W91677  25.755  34.439   4.264
21078W        W91678  42.807  33.090  14.409
21079W        W91679  10.123  20.194   1.420
21080W        W91680  29.977   3.398   2.032
21081W        W91681   3.229  27.787   3.660
21082W        W91682  37.124  10.538  14.673
21083W        W91683   6.990  42.938  14.927
21084W        W91684  19.484  38.956   0.854
21085W        W91685  23.211  13.698   2.193
21086W        W91686  14.727  15.115  12.923
21087W        W91687   8.920  31.502  12.422
21088W        W91688  16.595  11.731   0.681
21089W        W91689  30.703   9.877   2.277
21090W        W91690   7.747  32.329  11.175
21091W        W91691   4.944  13.845  13.589
21092W        W91692  16.075  35.458   0.192
21093W        W91693   6.691  26.931   0.766
21094W        W91694   8.225  17.536   1.451
21095W        W91695  21.833  41.027   0.269
21096W        W91696   5.764  15.146   4.063
21097W        W91697  30.434  35.501   4.801
21098W        W91698  24.297  11.863  11.439
21099W        W91699  20.214  31.103  13.236
21100W        W91700  44.874  19.427   2.337
21101W        W91701  27.043   0.926  11.186
21102W        W91702  32.993  36.434  14.374
21103W        W91703  41.247  41.938  12.878
21104W        W91704   4.147  29.713  11.114
21105W        W91705  44.993  38.846  14.022
21106W        W91706   7.392  24.514  10.720
21107W        W91707  32.901  25.812  13.339
21108W        W91708  22.500  38.028  11.031
21109W        W91709  42.693  23.452  14.412
21110W        W91710  44.783  18.506  12.659
21111W        W91711   3.505   1.283   4.725
21112W        W91712   3.217  31.670   0.216
21113W        W91713   3.947  25.000   2.874
21114W        W91714  17.416  24.096  12.082
21115W        W91715  25.270  19.073   4.939
21116W        W91716  38.356   7.753   1.493
21117W        W91717   6.956  28.972   2.786
21118W        W91718  14.858  23.039  14.261
21119W        W91719   4.182  28.948  12.259
21120W        W91720  19.203  18.573  11.202
21121W        W91721  11.276  35.958  13.467
21122W        W91722  41.675  10.338  13.903
21123W        W91723  42.778  41.002   2.812
21124W        W91724  10.398  30.681   0.372
21125W        W91725  41.893  34.068  12.395
21126W        W91726  22.613  28.777  13.527
21127W        W91727  29.063  26.989   0.025
21128W        W91728  17.270   2.710   0.697
21129W        W91729  40.109  23.540   0.861
21130W        W91730  18.086  26.694   1.353
21131W        W91731  10.766  37.434  14.524
21132W        W91732  32.186  20.215   3.220
21133W        W91733  34.356  25.691   1.091
21134W        W91734  32.678  43.760  11.355
21135W        W91735  21.928   3.250  14.244
21136W        W91736  44.633  27.734   5.116
21137W        W91737   4.029  42.861  11.486
21138W        W91738  28.025  21.276  10.052
21139W        W91739  20.082  31.976   1.143
21140W        W91740  22.064   2.710   2.692
21141W        W91741  42.053  41.377  13.302
21142W        W91742  11.007  12.239   3.774
21143W        W91743   4.903  31.208   0.350
21144W        W91744   8.283  24.653   4.591
21145W        W91745  25.552   4.427  14.809
21146W        W91746  18.884  34.910  11.601
21147W        W91747  12.665  19.235  14.398
21148W        W91748  44.254  15.695  10.783
21149W        W91749  43.370  30.805   5.029
21150W        W91750  30.534   8.979   3.324
21151W        W91751  29.221  11.674   0.420
21152W        W91752  10.426  28.474   5.004
21153W        W91753  34.989   0.070  11.759
21154W        W91754  32.543  19.183   1.262
21155W        W91755  21.107  16.824   1.403
21156W        W91756  42.867   2.723   2.790
21157W        W91757  25.661  28.584   4.507
21158W        W91758  41.736  29.570   3.378
21159W        W91759   4.243   2.978  14.285
21160W        W91760  31.943  26.667   0.427
21161W        W91761   4.668  24.728  12.248
21162W        W91762  30.959  42.031  12.029
21163W        W91763  27.033  32.640  14.880
21164W        W91764  24.538  39.908  14.340
21165W        W91765  40.509  37.414   1.618
21166W        W91766   7.183  26.463   5.244
21167W        W91767  43.791  34.504   3.319
21168W        W91768  24.172  28.992   3.410
21169W        W91769  29.475  14.918   0.300
21170W        W91770  20.507   0.830   4.161
21171W        W91771   4.682  24.633   2.384
21172W        W91772  36.876  37.736  13.924
21173W        W91773  10.197  32.740  10.063
21174W        W91774  32.410   4.937  13.322
21175W        W91775   7.250  23.434   0.510
21176W        W91776  14.751  32.912   4.308
21177W        W91777  42.109  12.303   0.862
21178W        W91778  12.796  19.589  12.983
21179W        W91779  38.387  37.876   2.732
21180W        W91780   6.794  36.283   3.229
21181W        W91781   7.650  34.674  13.392
21182W        W91782  29.365  36.807   3.166
21183W        W91783  16.336  39.041   4.301
21184W        W91784  27.863  38.940  14.605
21185W        W91785  17.769  36.264   4.059
21186W        W91786  25.346  44.240   4.167
21187W        W91787  19.155  18.210  13.410
21188W        W91788  30.870  26.163  13.854
21189W        W91789  10.940  13.257   2.068
21190W        W91790   2.844   9.969  13.090
21191W        W91791  44.796  11.378  13.396
21192W        W91792  28.142  20.308   1.909
21193W        W91793  27.469  36.121  10.766
21194W        W91794  31.035  31.133  10.645
21195W        W91795  33.033   1.495  13.375
21196W        W91796  35.174   3.884   0.875
21197W        W91797  37.616   2.385  13.321
21198W        W91798  18.649  32.446   3.538
21199W        W91799  24.205  32.140  11.948
21200W        W91800  32.408  44.202   0.312
21201W        W91801   3.153  42.977  10.797
21202W        W91802  39.024  41.954  14.305
21203W        W91803   8.207  38.367  12.384
21204W        W91804  28.464  21.146  12.827
21205W        W91805   9.257  13.975   4.483
21206W        W91806  24.485  31.513  14.109
21207W        W91807  22.817  22.330  12.162
21208W        W91808  41.514  29.565   3.865
21209W        W91809  35.859   4.236  12.012
21210W        W91810  34.126  39.348  13.376
21211W        W91811   8.180   1.642  12.372
21212W        W91812  19.342  36.444   0.307
21213W        W91813  16.019   2.442   3.209
21214W        W91814  16.476  14.069  14.431
21215W        W91815  10.145  14.049  11.171
21216W        W91816  37.027   7.746  11.631
21217W        W91817   3.254  19.812  12.851
21218W        W91818  29.497  32.686  10.971
21219W        W91819  28.704  26.893  12.103
21220W        W91820  18.239  13.635   3.849
21221W        W91821  38.486  30.190   2.947
21222W        W91822  40.263  15.716   3.651
21223W        W91823  16.992  37.948   2.277
21224W        W91824  36.380  42.398  13.078
21225W        W91825  44.479  25.084  11.908
21226W        W91826  13.849  34.452   4.520
21227W        W91827  23.495  28.921   4.435
21228W        W91828  26.665   0.878  12.024
21229W        W91829   5.075  38.845   3.884
21230W        W91830   7.127  17.214  14.844
21231W        W91831   4.446   5.683   1.770
21232W        W91832  30.075   3.014   1.377
21233W        W91833  37.893  33.685  12.940
21234W        W91834  36.388   3.329  10.142
21235W        W91835  22.667  19.235   2.427
21236W        W91836   8.863   4.409  12.885
21237W        W91837  10.095  17.191  10.711
21238W        W91838  18.183   8.936   4.827
21239W        W91839  40.380  33.109   2.650
21240W        W91840  37.133  15.765   3.843
21241W        W91841  42.023  42.891  12.136
21242W        W91842  20.638  31.447  14.962
21243W        W91843  24.253  28.899  11.078
21244W        W91844  21.852  13.855   4.309
21245W        W91845  36.810   5.262  14.011
21246W        W91846   4.720  19.077   2.759
21247W        W91847  31.310  16.047  14.401
21248W        W91848  13.698  21.711  11.473
21249W        W91849  38.879  23.661   3.930
21250W        W91850   2.677  31.615  13.790
21251W        W91851   9.923  28.385   3.244
21252W        W91852  26.257  16.070  12.896
21253W        W91853  44.715   7.742  11.102
21254W        W91854  15.428  44.157  12.026
21255W        W91855  42.376  13.391  10.694
21256W        W91856  38.848  31.647  12.517
21257W        W91857   5.877  33.873  12.974
21258W        W91858  41.473  41.372   1.759
21259W        W91859  35.300   7.715  13.065
21260W        W91860  10.773  16.486   0.382
21261W        W91861  41.015   8.669   1.539
21262W        W91862  40.137  41.363   4.740
21263W        W91863  24.631  19.647   2.842
21264W        W91864  21.668   3.736   2.853
21265W        W91865  30.668  18.070   2.322
21266W        W91866  41.314  24.175  12.554
21267W        W91867  39.091  26.363  12.498
21268W        W91868  22.554  40.257   4.090
21269W        W91869  40.817  31.127  12.629
21270W        W91870   6.422  10.720  13.704
21271W        W91871  41.355   4.187  10.620
21272W        W91872  21.522  14.093  11.171
21273W        W91873   8.468  38.852   2.808
21274W        W91874   8.832  43.578  12.506
21275W        W91875   7.234   9.300   0.658
21276W        W91876  36.153  11.876   9.745
21277W        W91877   9.962  42.518   0.801
21278W        W91878  31.122   6.730   1.466
21279W        W91879  16.660  12.637   2.145
21280W        W91880  11.944  22.950   3.286
21281W        W91881  17.283  20.187   2.833
21282W        W91882  12.693   4.348   4.883
21283W        W91883  40.293  31.091  11.743
21284W        W91884  44.482  25.253   9.847
21285W        W91885  15.190  34.779   3.516
21286W        W91886  38.893  29.259  13.536
21287W        W91887  13.984  34.379   5.037
21288W        W91888  39.352  41.324  14.854
21289W        W91889  15.351  40.491   1.729
21290W        W91890  34.319  43.838  12.453
21291W        W91891  23.518  37.774  13.804
21292W        W91892  22.069  23.471  10.433
21293W        W91893  14.337  43.328  11.533
21294W        W91894  10.220  40.287  12.990
21295W        W91895  12.069  16.196   1.268
21296W        W91896  14.983  13.081   4.626
21297W        W91897   4.881  41.074   2.763
21298W        W91898   7.146   9.834  13.817
21299W        W91899  12.651  31.726   3.272
21300W        W91900  14.714  38.305   2.768
21301W        W91901  18.661   1.850   3.982
21302W        W91902  30.011   0.932  11.568
21303W        W91903  32.659   0.181   1.668
21304W        W91904  31.631  12.102   3.652
21305W        W91905  19.626   3.711   3.231
21306W        W91906  17.405  28.645  11.836
21307W        W91907  42.222   2.929   4.606
21308W        W91908  32.773  36.020   3.144
21309W        W91909  32.832   5.367   4.139
21310W        W91910  13.336  17.252   4.835
21311W        W91911  18.419  32.936  13.855
21312W        W91912  26.645  18.934   4.301
21313W        W91913   3.090  37.083  12.931
21314W        W91914  18.284  13.100   4.581
21315W        W91915  37.128   7.794  14.466
21316W        W91916  44.096   6.094  13.747
21317W        W91917  22.413  24.911   0.810
21318W        W91918  33.089  20.277  14.526
21319W        W91919   1.137  13.877   0.314
21320W        W91920  14.335  39.100   2.686
21321W        W91921  35.666  16.289  12.492
21322W        W91922   8.944  34.344  12.476
21323W        W91923  23.284  41.816  13.051
21324W        W91924  21.873  16.830   0.901
21325W        W91925  35.838   3.503   4.895
21326W        W91926  12.704   7.135   1.693
21327W        W91927   2.442  38.619  14.369
21328W        W91928   0.235  19.170  11.897
21329W        W91929  42.811  10.378   4.601
21330W        W91930  17.788  19.627  12.895
21331W        W91931  21.147   6.746   2.609
21332W        W91932   8.893  35.299   2.390
21333W        W91933  16.089  13.111  13.810
21334W        W91934  17.504  38.502   3.443
21335W        W91935   5.407   8.340   0.450
21336W        W91936  37.017  21.788  11.366
21337W        W91937   5.803   2.257  11.575
21338W        W91938  29.117  41.798   2.185
21339W        W91939  22.947  22.128   1.863
21340W        W91940  21.010  34.455   0.813
21341W        W91941  31.477   6.606  12.486
21342W        W91942  14.120   3.031   1.222
21343W        W91943  22.839   6.775  11.006
21344W        W91944  16.763   0.466  12.748
21345W        W91945  38.268  41.972   1.733
21346W        W91946  22.022  40.744  13.955
21347W        W91947  15.575  10.373  12.836
21348W        W91948  40.511   7.304   0.221
21349W        W91949  29.139  10.778  14.984
21350W        W91950   3.000  41.951   2.417
21351W        W91951  42.025  37.330   1.723
21352W        W91952  14.551  39.741  10.770
21353W        W91953   8.816  18.846   1.815
21354W        W91954  15.841  36.337   0.012
21355W        W91955  22.476  25.097  12.634
21356W        W91956  35.299  36.621   3.770
21357W        W91957  20.930  28.739   1.909
21358W        W91958   3.901   3.410   1.104
21359W        W91959  23.660  16.467   0.365
21360W        W91960   7.851   8.904  14.693
21361W        W91961  43.235  30.161  13.783
21362W        W91962   5.061   4.539  14.950
21363W        W91963  26.050   3.779  10.717
21364W        W91964  22.843  13.262   0.006
21365W        W91965  17.553  29.630  10.963
21366W        W91966  30.918  15.178   3.601
21367W        W91967  33.275  14.396   1.518
21368W        W91968  33.541  39.522   4.619
21369W        W91969  33.940  15.861   2.359
21370W        W91970   3.508  43.949  11.217
21371W        W91971  26.175  26.970  12.383
21372W        W91972  29.090  18.344   0.964
21373W        W91973   2.121  19.370   9.800
21374W        W91974   8.367  23.996  11.147
21375W        W91975  23.060   6.938   1.738
21376W        W91976   3.811  19.854  14.337
21377W        W91977   9.696  35.814   0.918
21378W        W91978  33.667  20.703  10.785
21379W        W91979  26.092  44.752   4.311
21380W        W91980  26.529  35.116   4.589
21381W        W91981   7.681  44.142  11.143
21382W        W91982  27.235   8.733  11.881
21383W        W91983  29.386  22.357  11.018
21384W        W91984  35.084  22.853  10.008
21385W        W91985  38.878  16.691  10.434
21386W        W91986  22.594   4.279  14.289
21387W        W91987  27.440  31.202   0.926
21388W        W91988   6.619  13.599   1.363
21389W        W91989   7.423  23.021   3.732
21390W        W91990  30.350   7.171  13.424
21391W        W91991   4.673   3.877  14.392
21392W        W91992  31.504  32.329   1.273
21393W        W91993  43.466  23.099   3.069
21394W        W91994   7.965  21.006   1.873
21395W        W91995  33.808  23.476   1.423
21396W        W91996  34.315   3.768   0.664
21397W        W91997  13.390  30.671  14.850
21398W        W91998  33.547  22.464   3.801
21399W        W91999  25.496  13.036  13.969
21400W        W92000  38.566  30.291   1.073
21401W        W92001   2.924   3.634   1.956
21402W        W92002   6.564  42.636  11.384
21403W        W92003  31.004  41.440   3.299
21404W        W92004  44.401   0.716  12.872
21405W        W92005  37.495  34.412   1.918
21406W        W92006  40.607  41.556   4.633
21407W        W92007  43.453  39.438   4.374
21408W        W92008  16.120  10.819  11.374
21409W        W92009  26.152  11.315   3.283
21410W        W92010   2.660  38.472  13.312
21411W        W92011  31.098  31.389  14.846
21412W        W92012  38.849  18.277  13.899
21413W        W92013  34.256  38.444  13.341
21414W        W92014  24.535  27.910  11.198
21415W        W92015  33.516   3.489  12.008
21416W        W92016  30.588  23.734   1.325
21417W        W92017  13.811  33.960  11.658
21418W        W92018  19.635  31.865  12.053
21419W        W92019   2.701  11.403  13.419
21420W        W92020   8.955  29.962  13.482
21421W        W92021  33.010  11.202   0.536
21422W        W92022   4.414  36.871  13.344
21423W        W92023   8.846  42.481  14.288
21424W        W92024  40.151  10.168   0.977
21425W        W92025   6.381  18.792   1.799
21426W        W92026  19.975  33.307   3.377
21427W        W92027  42.354  14.107  11.756
21428W        W92028   4.619  32.850  11.273
21429W        W92029   4.775   6.802  14.717
21430W        W92030  21.118   7.371  12.945
21431W        W92031  20.292   0.400   1.928
21432W        W92032  20.340   1.380  13.581
21433W        W92033  44.583  32.686   4.163
21434W        W92034  17.653   6.979  11.056
21435W        W92035  31.333  21.700  12.122
21436W        W92036  23.489   1.881   1.694
21437W        W92037   2.287  38.386   4.310
21438W        W92038  42.428   3.136  13.389
21439W        W92039  12.177  21.190  12.220
21440W        W92040  13.318  33.040   3.747
21441W        W92041   5.964  19.605   2.821
21442W        W92042  24.793   7.841  12.080
21443W        W92043   4.390  12.594  12.287
21444W        W92044  24.442  16.169   1.407
21445W        W92045  34.202  13.582   0.857
21446W        W92046  42.442   4.424  12.942
21447W        W92047   7.806  11.858  13.820
21448W        W92048  28.095  42.506  11.593
21449W        W92049  12.208  10.431  14.465
21450W        W92050  19.157  24.313  13.283
21451W        W92051  27.674  34.366   0.274
21452W        W92052  23.480   6.088   0.798
21453W        W92053   3.013  41.588  11.712
21454W        W92054  29.479  38.268   0.749
21455W        W92055  15.135   7.330   4.169
21456W        W92056  23.000  31.240   1.742
21457W        W92057  36.731  16.426   2.750
21458W        W92058  26.403  21.869  14.902
21459W        W92059  30.636  36.313   1.371
21460W        W92060  23.167  31.185  11.158
21461W        W92061   2.740  42.430  14.536
21462W        W92062  14.827  39.732   1.891
21463W        W92063  11.290   1.411  10.643
21464W        W92064  43.482  37.630   4.102
21465W        W92065   4.840  43.539   2.868
21466W        W92066  15.635  10.198  13.817
21467W        W92067  25.423  24.771  12.075
21468W        W92068  42.354  16.082  12.560
21469W        W92069   7.841   9.207   4.333
21470W        W92070  18.278  42.222   4.219
21471W        W92071  32.349  20.168  13.361
21472W        W92072   1.210  14.718   4.926
21473W        W92073  20.182  17.324  11.561
21474W        W92074  15.247  13.499   4.448
21475W        W92075  19.221  19.755  10.567
21476W        W92076  27.696  12.751  12.057
21477W        W92077  25.186  21.959   1.162
21478W        W92078  18.723  24.606   1.144
21479W        W92079   1.832   3.922   0.746
21480W        W92080  42.513  20.187   2.700
21481W        W92081  20.123  41.719   0.525
21482W        W92082  42.205   4.174   2.640
21483W        W92083   2.043  22.285   4.104
21484W        W92084  19.719  37.807  11.536
21485W        W92085  38.560  17.509  13.503
21486W        W92086   5.063  32.902   3.148
21487W        W92087  24.510  30.170  11.091
21488W        W92088  35.139  34.622  12.456
21489W        W92089  39.809   8.471  11.213
21490W        W92090  14.085   2.299  14.360
21491W        W92091   0.847  37.970   2.175
21492W        W92092   1.274  44.591  13.922
21493W        W92093  17.306  29.491  14.387
21494W        W92094  21.496  13.109  11.102
21495W        W92095  37.958  26.692   2.520
21496W        W92096  43.514  34.088   4.060
21497W        W92097  21.261  34.137  11.927
21498W        W92098   5.342   1.254  13.846
21499W        W92099  27.928  19.788  13.324
21500W        W92100  27.964  14.034  14.577
21501W        W92101  32.412   6.343  12.617
21502W        W92102  29.081  19.689   4.181
21503W        W92103   7.200  21.409   0.518
21504W        W92104  25.402  32.750  13.609
21505W        W92105  39.117  21.216   3.079
21506W        W92106   7.385  15.369  12.132
21507W        W92107  13.697  19.159   0.450
21508W        W92108  35.800  42.495  11.138
21509W        W92109   9.103  26.053  10.965
21510W        W92110  30.626  37.615   0.362
21511W        W92111   7.106  24.515  14.911
21512W        W92112   2.534   6.387   3.173
21513W        W92113   1.971  41.994  14.551
21514W        W92114   7.229   2.911   3.611
21515W        W92115  17.123  12.524   1.858
21516W        W92116  40.371  14.282  14.488
21517W        W92117  15.391  12.364  14.494
21518W        W92118   1.911  43.191   3.238
21519W        W92119  18.288  23.084   2.882
21520W        W92120  38.979  42.907  13.352
21521W        W92121  28.779  35.308  12.512
21522W        W92122  40.429   5.367  12.432
21523W        W92123  36.134  20.670  12.584
21524W        W92124  11.539  19.654  14.418
21525W        W92125  17.056   8.642  12.518
21526W        W92126  20.078  35.649   0.494
21527W        W92127  14.755  32.475   3.100
21528W        W92128  32.454  28.375   2.346
21529W        W92129  10.423  18.149   4.894
21530W        W92130  27.744  29.144  10.718
21531W        W92131   3.907  22.038   0.693
21532W        W92132   5.986  23.387  11.238
21533W        W92133   2.403   5.677  10.640
21534W        W92134  18.207  23.734   1.640
21535W        W92135  20.264  26.641   2.368
21536W        W92136  33.592  29.251  14.323
21537W        W92137  26.117  15.638  14.730
21538W        W92138  32.024  16.805  10.579
21539W        W92139  11.643  17.494   4.037
21540W        W92140  17.587  24.150   2.445
21541W        W92141   4.838  21.599   3.108
21542W        W92142  34.852   5.128  11.438
21543W        W92143  16.480  18.262  12.387
21544W        W92144  25.808  30.456   1.910
21545W        W92145  16.148  26.995  14.854
21546W        W92146  21.979  25.129   1.549
21547W        W92147  22.811  35.359   3.230
21548W        W92148  22.177  35.328   4.057
21549W        W92149  39.109  32.137  13.532
21550W        W92150  42.898   2.256  12.642
21551W        W92151  24.378  40.871  13.481
21552W        W92152   3.369   6.426   4.227
21553W        W92153  35.133   4.379   2.543
21554W        W92154   0.830  20.989  13.779
21555W        W92155  18.537  42.951   1.797
21556W        W92156   6.921  34.339  10.964
21557W        W92157  33.030  23.001  13.347
21558W        W92158  13.594   1.110  11.605
21559W        W92159  27.720  30.510  11.687
21560W        W92160  12.295  11.664  13.891
21561W        W92161  29.090   6.129  14.944
21562W        W92162  23.786   8.784  10.486
21563W        W92163   6.328  14.867   0.725
21564W        W92164   8.208   0.879   2.158
21565W        W92165  36.763   0.563   4.567
21566W        W92166   2.324  36.153  14.321
21567W        W92167  32.084   6.196  14.437
21568W        W92168  22.616  15.664  13.654
21569W        W92169   7.587  41.975   2.486
21570W        W92170  40.625  37.995   0.930
21571W        W92171  11.148   7.840   0.810
21572W        W92172  14.468  38.495   2.343
21573W        W92173  11.441  26.148  13.463
21574W        W92174  15.919   3.206  11.956
21575W        W92175  44.653  40.409   0.008
21576W        W92176  20.519  44.358  10.138
21577W        W92177   0.419  14.629   3.392
21578W        W92178  15.559  18.152  12.424
21579W        W92179  34.892   9.808   1.256
21580W        W92180  39.815   8.658  13.600
21581W        W92181  33.554   2.293   3.120
21582W        W92182  43.630  24.043  13.739
21583W        W92183  36.649  17.378  14.407
21584W        W92184  23.999  24.783   0.559
21585W        W92185  17.329   6.495  11.053
21586W        W92186  43.305  15.326   3.804
21587W        W92187  10.792  28.992   0.181
21588W        W92188  33.042  44.977   0.347
21589W        W92189  38.125  26.213   0.351
21590W        W92190  35.609  33.115   2.853
21591W        W92191  32.856   9.627  12.401
21592W        W92192  19.085  32.366   3.801
21593W        W92193   0.114   6.897  12.643
21594W        W92194  12.941  27.078   1.672
21595W        W92195  34.308  24.343   4.093
21596W        W92196  43.115  34.607  12.489
21597W        W92197  30.155  21.185  10.730
21598W        W92198  27.433   4.279  13.789
21599W        W92199  15.106  35.479   0.856
21600W        W92200  23.915  14.049   2.634
21601W        W92201  35.029   4.355   4.633
21602W        W92202  38.741  25.031   0.197
21603W        W92203  10.223   9.091  12.404
21604W        W92204  26.543   5.710  12.832
21605W        W92205  11.798  23.562  14.373
21606W        W92206  35.406  11.155   1.805
21607W        W92207  13.117  43.977  13.788
21608W        W92208  20.776  18.256  10.775
21609W        W92209  13.837  36.338  12.864
21610W        W92210   5.666  23.087   3.662
21611W        W92211  41.864  28.485   1.728
21612W        W92212  15.138  14.738   4.147
21613W        W92213  28.608  12.268  12.482
21614W        W92214  12.694  29.491  12.001
21615W        W92215  33.059  40.956  13.942
21616W        W92216  40.969  29.032   4.299
21617W        W92217  23.479  21.181   3.600
21618W        W92218  28.028  27.720  12.926
21619W        W92219  25.117  28.912  12.903
21620W        W92220   0.703   5.008   3.183
21621W        W92221   6.220   1.939  11.628
21622W        W92222  19.081  11.040  14.451
21623W        W92223  21.409   5.182  12.902
21624W        W92224  12.670  19.790   2.554
21625W        W92225  19.227  14.100   2.932
21626W        W92226   8.820  37.080  13.909
21627W        W92227  14.632   9.092   4.236
21628W        W92228  26.095  39.305   1.169
21629W        W92229  18.134  36.850   3.419
21630W        W92230  20.201  34.558   0.373
21631W        W92231  11.679  41.711   1.983
21632W        W92232  10.465  37.734   0.716
21633W        W92233  22.614  33.989   2.687
21634W        W92234   9.773  15.749   0.890
21635W        W92235  43.514  31.925   3.707
21636W        W92236  15.625  31.233   2.366
21637W        W92237  24.281  10.263  12.837
21638W        W92238  35.536  37.739   2.293
21639W        W92239  12.238   7.013  14.356
21640W        W92240  30.620   6.731  11.549
21641W        W92241  16.052  17.250  12.959
21642W        W92242  19.659  44.417  13.636
21643W        W92243  27.111  17.497   2.635
21644W        W92244  20.031  33.836  10.510
21645W        W92245  31.665  37.670  12.936
21646W        W92246   7.254  37.680  10.391
21647W        W92247  34.492  25.091   4.537
21648W        W92248  15.655  29.111  13.885
21649W        W92249  13.360  33.987  10.533
21650W        W92250  43.732  35.968  13.315
21651W        W92251   2.847  35.170  10.412
21652W        W92252  17.249  17.171  14.838
21653W        W92253  43.451  38.961   2.334
21654W        W92254   5.209   3.548   1.679
21655W        W92255  43.090  12.771  11.188
21656W        W92256  34.577  30.198  10.731
21657W        W92257  28.538  44.835  10.861
21658W        W92258  36.042   6.904  14.942
21659W        W92259   7.696  43.691   2.640
21660W        W92260   9.133  15.662  13.547
21661W        W92261  44.658  43.025  14.357
21662W        W92262  31.490   5.153   1.939
21663W        W92263   0.671  43.298  11.504
21664W        W92264  22.698  10.763  11.234
21665W        W92265  27.715  30.589   0.398
21666W        W92266  41.696  31.112  13.587
21667W        W92267  35.516  28.441   1.431
21668W        W92268  35.276   4.777  14.578
21669W        W92269  28.404  27.738   1.026
21670W        W92270   7.887  37.625  11.050
21671W        W92271  33.438   2.807  13.855
21672W        W92272   7.155  29.764  13.412
21673W        W92273  19.212  35.049  13.818
21674W        W92274   2.756  23.531  14.562
21675W        W92275  28.421  20.219  14.868
21676W        W92276  19.931  30.964   2.229
21677W        W92277  35.565   3.856   0.483
21678W        W92278  20.541  22.114   0.497
21679W        W92279  28.887  36.991  13.004
21680W        W92280  14.949  12.093   1.851
21681W        W92281  29.051  29.093   1.261
21682W        W92282  20.673  13.341  10.755
21683W        W92283  34.612  18.169   1.923
21684W        W92284  29.632  44.900   3.694
21685W        W92285  23.517  12.836   4.021
21686W        W92286  40.273  14.594  14.926
21687W        W92287  33.013   8.274   3.050
21688W        W92288  32.494  26.537   0.724
21689W        W92289  18.692  23.716  12.170
21690W        W92290  44.910  20.822   3.402
21691W        W92291  40.974  16.578   1.295
21692W        W92292  36.361  17.643   4.817
21693W        W92293  42.741  27.687  11.579
21694W        W92294  41.107  11.409  12.395
21695W        W92295   9.371   8.826   3.841
21696W        W92296  27.950   7.716   3.194
21697W        W92297   5.463  24.548  11.536
21698W        W92298  15.715  13.625   2.346
21699W        W92299  38.938  36.436   2.934
21700W        W92300  28.455  36.641   0.705
21701W        W92301  38.920  25.984  14.452
21702W        W92302  27.116  30.010   1.827
21703W        W92303   4.690  16.830   1.748
21704W        W92304  26.554  41.863   4.450
21705W        W92305  25.100  18.125   4.616
21706W        W92306   5.965   5.349  11.103
21707W        W92307  38.151  30.419   0.783
21708W        W92308  11.182  23.187   2.843
21709W        W92309  11.748  19.141   2.813
21710W        W92310  11.563  35.025   2.650
21711W        W92311  39.298  31.494   4.494
21712W        W92312  19.279  22.734   1.780
21713W        W92313  24.661  42.440  14.572
21714W        W92314  29.175  40.023  12.736
21715W        W92315  36.839  41.280   2.337
21716W        W92316  43.367  22.744  14.580
21717W        W92317  24.800  36.680  11.109
21718W        W92318  17.483  25.585  12.810
21719W        W92319  11.359   5.396   3.750
21720W        W92320  37.871  35.904   3.697
21721W        W92321  38.479   9.122  14.893
21722W        W92322   4.342   0.296   0.703
21723W        W92323  15.120  35.346   0.246
21724W        W92324  30.937  43.381   2.695
21725W        W92325  41.823  43.316  11.933
21726W        W92326  42.704  44.512   1.666
21727W        W92327   0.174   4.547   2.419
21728W        W92328  39.735  39.780  11.849
21729W        W92329  18.526   2.836  14.902
21730W        W92330  21.145  11.665   0.406
21731W        W92331  36.898  40.968  11.074
21732W        W92332  32.916  19.396  14.457
21733W        W92333  19.074   2.718   0.396
21734W        W92334  19.528  36.425  12.077
21735W        W92335  37.727   0.975  10.688
21736W        W92336  20.693   4.659   2.384
21737W        W92337  13.885   6.947  12.923
21738W        W92338  18.735  19.545  12.838
21739W        W92339  33.511  38.027  14.680
21740W        W92340  28.171  20.369  10.583
21741W        W92341  14.621  27.542  14.388
21742W        W92342  23.107   5.256   2.958
21743W        W92343  15.139   6.432   4.612
21744W        W92344   8.952  37.443  10.633
21745W        W92345  27.473   2.438  12.675
21746W        W92346   6.931   9.581   3.715
21747W        W92347  40.279   9.172  13.557
21748W        W92348  19.763  41.560   1.354
21749W        W92349  37.852   6.231  14.839
21750W        W92350  10.425  14.193  12.071
21751W        W92351   2.583  30.946  12.974
21752W        W92352  14.852  40.523   3.691
21753W        W92353  24.982  40.731   1.252
21754W        W92354  12.507  24.880  13.101
21755W        W92355  32.073  22.517   0.364
21756W        W92356   0.084  41.348   1.800
21757W        W92357  20.622  17.387   2.749
21758W        W92358  28.805  19.079   0.176
21759W        W92359  32.604  18.137  10.851
21760W        W92360  40.894  34.741  14.992
21761W        W92361  15.758  29.821   4.234
21762W        W92362  21.947   1.670  12.576
21763W        W92363   1.428   9.223   1.383
21764W        W92364  11.197  15.874   3.082
21765W        W92365   6.396  34.772   5.154
21766W        W92366   4.764   0.411   1.428
21767W        W92367   4.066  30.567   1.066
21768W        W92368  10.880   4.536   3.545
21769W        W92369  17.560   6.731   3.672
21770W        W92370  21.551  43.745  13.262
21771W        W92371  16.028  38.339   3.549
21772W        W92372   0.222  39.023  10.322
21773W        W92373  29.714   9.304  14.285
21774W        W92374  15.447  34.482  13.810
21775W        W92375  11.538  32.351  10.928
21776W        W92376   7.040  17.757  12.423
21777W        W92377  15.164  22.984  11.128
21778W        W92378  39.016   5.884   3.709
21779W        W92379   2.697   3.362  13.404
21780W        W92380  11.423  43.300  12.472
21781W        W92381  36.233   0.253   1.878
21782W        W92382  27.714  14.859   3.789
21783W        W92383  19.991  40.262  11.954
21784W        W92384   0.195   4.277   2.887
21785W        W92385   7.691  33.053   4.387
21786W        W92386   9.921  31.336  11.494
21787W        W92387   1.270  32.123  10.771
21788W        W92388  39.027   4.374   3.599
21789W        W92389   5.454  44.702  12.376
21790W        W92390   9.347  21.593  13.869
21791W        W92391  29.339   1.794  13.893
21792W        W92392  33.379  21.615  10.921
21793W        W92393  33.107  22.550   4.661
21794W        W92394  25.943  31.312  13.744
21795W        W92395  13.280  12.262   4.594
21796W        W92396  19.037   9.224   3.675
21797W        W92397  17.806  34.977  12.369
21798W        W92398  27.647  17.812   0.733
21799W        W92399  31.915  20.581   0.390
21800W        W92400  42.610   1.393   3.207
21801W        W92401  38.289  29.409   1.610
21802W        W92402  25.592  13.644  13.122
21803W        W92403  17.437   4.526   0.014
21804W        W92404  43.872   6.386   0.255
21805W        W92405  10.178  33.863   0.302
21806W        W92406  22.255  30.029   0.868
21807W        W92407  16.340   0.938   4.533
21808W        W92408   0.742  19.015  12.571
21809W        W92409  24.571   1.508   4.276
21810W        W92410  38.892  20.533   2.600
21811W        W92411  13.593   4.072  11.557
21812W        W92412  26.992   9.928  11.147
21813W        W92413  27.173   9.242   1.463
21814W        W92414  14.134  36.600  12.529
21815W        W92415  33.484  32.883   2.972
21816W        W92416  44.277  41.164  14.868
21817W        W92417  32.522   8.090  11.175
21818W        W92418  14.813   1.760   1.331
21819W        W92419  18.200   3.715  13.311
21820W        W92420  30.858  23.813  14.778
21821W        W92421  17.039  14.899  12.676
21822W        W92422  13.468  14.740  11.595
21823W        W92423  36.432  30.064   0.537
21824W        W92424   6.327  26.221   4.860
21825W        W92425   1.980   2.832  12.511
21826W        W92426  29.146  22.172   4.094
21827W        W92427  29.350  41.596   0.898
21828W        W92428  11.443  17.654  10.700
21829W        W92429  40.381   2.890  11.943
21830W        W92430  26.383  32.119  14.809
21831W        W92431  10.819  19.110  12.883
21832W        W92432   9.209   8.309  13.570
21833W        W92433  12.884  35.680  12.462
21834W        W92434  23.781   8.944   0.432
21835W        W92435  34.482  33.065  11.209
21836W        W92436  40.097  44.831  11.173
21837W        W92437  10.538  40.986  14.297
21838W        W92438  28.500   4.985  13.931
21839W        W92439  15.081  34.828  11.603
21840W        W92440  31.833  32.673  11.528
21841W        W92441  31.497  24.312   0.244
21842W        W92442  20.066  42.022   4.296
21843W        W92443  15.072  34.843  13.826
21844W        W92444   1.751  40.067   1.573
21845W        W92445   6.211  12.166   4.580
21846W        W92446   6.399   1.727  10.001
21847W        W92447  12.609   8.599   0.856
21848W        W92448  41.883  31.011  14.824
21849W        W92449  14.387  29.121   0.785
21850W        W92450   2.934  17.525   1.909
21851W        W92451  44.580  10.644  11.231
21852W        W92452  20.486  38.922   0.661
21853W        W92453  14.397  22.726   0.500
21854W        W92454   0.857  41.017  12.166
21855W        W92455  35.620  13.738   1.772
21856W        W92456  28.050  31.554  14.069
21857W        W92457  14.387  38.235   3.195
21858W        W92458  11.877  30.849  12.398
21859W        W92459   2.681  12.886  11.758
21860W        W92460  30.862  13.155   3.008
21861W        W92461  15.221  41.087  10.685
21862W        W92462   9.926   4.672  13.597
21863W        W92463  29.123   7.458  10.764
21864W        W92464   6.233  32.333   1.013
21865W        W92465  21.807  35.804  14.467
21866W        W92466   5.441  24.055  14.446
21867W        W92467  36.434  18.537  11.949
21868W        W92468   1.596  13.645   4.127
21869W        W92469  30.971  28.920   1.709
21870W        W92470  38.010  14.064  13.388
21871W        W92471  34.807   0.666   0.435
21872W        W92472   5.474  24.500   0.291
21873W        W92473  42.713  38.328   2.352
21874W        W92474  32.528   3.277   0.496
21875W        W92475   0.532  42.479  14.218
21876W        W92476  25.909  28.500  14.217
21877W        W92477  44.814  14.767   1.083
21878W        W92478  32.826  43.892  10.847
21879W        W92479   6.186   8.806   2.422
21880W        W92480  39.253  39.078  10.699
21881W        W92481   1.296   7.890   3.251
21882W        W92482  18.378  24.575   3.678
21883W        W92483  43.553  11.822  12.197
21884W        W92484  29.002  39.899   0.566
21885W        W92485  16.873  15.961   2.654
21886W        W92486  24.227  16.635  14.514
21887W        W92487  25.166  12.517  12.524
21888W        W92488  29.516   7.193  10.571
21889W        W92489  33.498  19.728  12.558
21890W        W92490  33.425   3.287   4.314
21891W        W92491   8.128  30.062  14.965
21892W        W92492  31.025  44.374  10.685
21893W        W92493   5.366  26.002   0.455
21894W        W92494  21.230  10.151   2.730
21895W        W92495  41.401  19.136  12.049
21896W        W92496   9.865  37.386  12.672
21897W        W92497  44.396  24.323   0.532
21898W        W92498  30.622  22.321   4.574
21899W        W92499  17.146  23.687  14.504
21900W        W92500  23.062  34.112  13.433
21901W        W92501  39.265  14.213  10.379
21902W        W92502  36.102  33.694   1.689
21903W        W92503  32.999   8.034  13.860
21904W        W92504   8.564   1.319  11.442
21905W        W92505   6.767  23.198   1.256
21906W        W92506  17.522  40.005   0.952
21907W        W92507  29.583  44.037   4.126
21908W        W92508  28.537  14.128   1.196
21909W        W92509  26.617  31.901   2.331
21910W        W92510  10.432  35.407  14.057
21911W        W92511  43.850   2.485   2.250
21912W        W92512   5.984  35.344  13.952
21913W        W92513  42.807  25.029  13.660
21914W        W92514  14.120  30.373  12.400
21915W        W92515  34.539   1.421   0.087
21916W        W92516  24.617  41.978  12.393
21917W        W92517  19.588  37.856   4.616
21918W        W92518  23.617  40.791   0.843
21919W        W92519  34.925  35.042  11.574
21920W        W92520  18.789  22.976   1.533
21921W        W92521  28.459  26.240   1.269
21922W        W92522  13.246  31.060  14.446
21923W        W92523  35.293  30.584   1.240
21924W        W92524  24.816   8.731  12.061
21925W        W92525  44.006  44.722  11.100
21926W        W92526  41.089  13.746   4.624
21927W        W92527  41.784  21.628  14.295
21928W        W92528   8.152  38.501  14.305
21929W        W92529  33.482  27.843   4.495
21930W        W92530  34.287  11.182  14.923
21931W        W92531  33.376  27.147   1.043
21932W        W92532  15.630  43.753  13.477
21933W        W92533  25.448   4.333   0.435
21934W        W92534  22.979  23.874   1.706
21935W        W92535  37.531  22.481   0.338
21936W        W92536  24.652  25.183  10.406
21937W        W92537  29.555  30.912  11.017
21938W        W92538   7.726   4.821  10.289
21939W        W92539  25.829  15.944   3.259
21940W        W92540  20.872  30.635   3.172
21941W        W92541  41.477  31.692   1.916
21942W        W92542   8.220  16.050   3.446
21943W        W92543  22.761  18.588  12.761
21944W        W92544  29.427  37.466  12.360
21945W        W92545  35.050   6.039   4.998
21946W        W92546  32.460  44.466  13.453
21947W        W92547   4.192  30.534   0.555
21948W        W92548  31.657   5.736  14.906
21949W        W92549  25.551  26.316  12.170
21950W        W92550   9.817  26.685  11.597
21951W        W92551   6.242  35.006   3.265
21952W        W92552  38.427  15.576  12.478
21953W        W92553  31.647  19.166   2.350
21954W        W92554   1.330  33.624  11.830
21955W        W92555  17.178  28.644   4.053
21956W        W92556   7.275  34.972  10.739
21957W        W92557  13.798   3.745  13.374
21958W        W92558   7.215   5.266  10.902
21959W        W92559   0.832  10.913  12.414
21960W        W92560   5.964  20.509   4.313
21961W        W92561  36.523  27.262  12.880
21962W        W92562  34.299  12.514  11.094
21963W        W92563  16.195  42.037   3.575
21964W        W92564  33.875  35.607  12.061
21965W        W92565   1.767  40.084  11.476
21966W        W92566  31.247  25.937   3.877
21967W        W92567  27.908  20.235  12.968
21968W        W92568  31.035  36.525   3.669
21969W        W92569  17.298  12.553  10.603
21970W        W92570  34.481  17.102  12.510
21971W        W92571   9.103  37.017   0.718
21972W        W92572  36.630   6.402   0.274
21973W        W92573   7.353  43.327  14.999
21974W        W92574  20.964   3.510   3.215
21975W        W92575  29.739   2.771   3.250
21976W        W92576   8.959   8.182   0.780
21977W        W92577  37.298  12.693  14.763
21978W        W92578  44.455  42.752   4.838
21979W        W92579  25.440  19.330  10.885
21980W        W92580  27.889  22.815   0.282
21981W        W92581  41.005  39.851   0.187
21982W        W92582  22.750   3.861  10.928
21983W        W92583  33.948  25.044   3.090
21984W        W92584  29.534   7.307  11.092
21985W        W92585  35.245   5.637  13.798
21986W        W92586  22.683  19.271   2.923
21987W        W92587  38.452  22.668   1.206
21988W        W92588   2.247  21.971  10.774
21989W        W92589  10.426  30.334  14.601
21990W        W92590  23.137  44.495  12.080
21991W        W92591  32.967   1.040  12.960
21992W        W92592  33.152  20.136  12.476
21993W        W92593  10.767   3.064   3.756
21994W        W92594  15.053  41.043  14.499
21995W        W92595  22.562  21.949  14.293
21996W        W92596  39.700  42.682  13.829
21997W        W92597  41.743  16.330  11.081
21998W        W92598   1.286  25.031  12.882
21999W        W92599   2.982  10.140   4.824
22000W        W92600  17.595   9.175   2.483
22001W        W92601   1.847   3.064   1.367
22002W        W92602  33.975   3.811   2.842
22003W        W92603  33.419  23.058  14.106
22004W        W92604  10.893  24.284   3.540
22005W        W92605   1.554   8.399  14.230
22006W        W92606  20.934  15.623  13.190
22007W        W92607   9.148  39.080   2.230
22008W        W92608  15.288  26.677   1.355
22009W        W92609  25.182  41.135  14.358
22010W        W92610  24.763   5.591   2.004
22011W        W92611  34.391  36.216  12.814
22012W        W92612  34.600  12.694   2.311
22013W        W92613  32.141  36.137  10.505
22014W        W92614   9.149  21.637   2.170
22015W        W92615  40.876   9.945   3.277
22016W        W92616   2.523  20.675  10.591
22017W        W92617   4.265   5.882  10.503
22018W        W92618  22.643  17.871  11.139
22019W        W92619  17.180  34.459  14.725
22020W        W92620  34.888  38.682   0.753
22021W        W92621  36.977  23.913  14.877
22022W        W92622  25.166  40.358  13.046
22023W        W92623  41.934   4.251   2.213
22024W        W92624  11.372  33.705   1.912
22025W        W92625  27.877  25.032   2.312
22026W        W92626  21.080   9.767   1.812
22027W        W92627  40.101  24.512  12.264
22028W        W92628  31.039  10.814  12.567
22029W        W92629  13.308  10.944   0.320
22030W        W92630  24.303   9.012   4.989
22031W        W92631  36.869  31.636   2.738
22032W        W92632  14.861  12.804   3.499
22033W        W92633  19.220  16.637   3.284
22034W        W92634  43.916  35.413   0.091
22035W        W92635  40.801  30.629  12.098
22036W        W92636  27.288  28.049  11.242
22037W        W92637   3.667  27.103   3.329
22038W        W92638  32.680  40.586   3.210
22039W        W92639  35.009  14.228   2.091
22040W        W92640  33.430  38.278   0.997
22041W        W92641  11.252  25.904   0.397
22042W        W92642  12.609  28.815   2.981
22043W        W92643  19.282  15.955  14.831
22044W        W92644  40.147   1.313   4.495
22045W        W92645  17.068   0.951   3.227
22046W        W92646  36.399  39.353  12.969
22047W        W92647   6.723  42.877   4.298
22048W        W92648  40.168  25.575   3.440
22049W        W92649   6.581  22.020  12.955
22050W        W92650   0.236  24.041   1.364
22051W        W92651  27.944  42.437  13.944
22052W        W92652  21.085  40.963  11.453
22053W        W92653  43.568  16.126  13.547
22054W        W92654  14.197  28.674   0.502
22055W        W92655  27.701  19.882  12.434
22056W        W92656  22.131  24.735   1.243
22057W        W92657  44.816   8.836   3.320
22058W        W92658  28.004  30.746   2.638
22059W        W92659   0.581  43.869   1.317
22060W        W92660  19.038  11.855  13.323
22061W        W92661  15.237   7.626   0.951
22062W        W92662   4.986   1.843  14.730
22063W        W92663  25.038  17.786  12.617
22064W        W92664  36.562  12.923   9.667
22065W        W92665  27.458  42.743   0.009
22066W        W92666  16.111  16.868   4.108
22067W        W92667  32.989  42.551  12.973
22068W        W92668   1.204  24.086  13.048
22069W        W92669  30.634   1.218   1.277
22070W        W92670   9.549   3.721   2.972
22071W        W92671  21.117  39.103   0.699
22072W        W92672  34.762  30.549   5.006
22073W        W92673   0.230  28.542  13.036
22074W        W92674   5.218   3.675  12.459
22075W        W92675  19.233  27.624   0.199
22076W        W92676   1.246  18.520  12.077
22077W        W92677  34.945  40.765   3.315
22078W        W92678  14.588  44.471   3.724
22079W        W92679  37.225  37.641   3.141
22080W        W92680  43.612  25.993  10.855
22081W        W92681  13.878   8.201   0.450
22082W        W92682  19.267  21.184  10.535
22083W        W92683  43.535  17.523   3.857
22084W        W92684  12.115   9.307  11.128
22085W        W92685   9.730  13.375  12.800
22086W        W92686  40.303  44.840   4.127
22087W        W92687  31.106  34.163  14.378
22088W        W92688  19.936   4.667  14.466
22089W        W92689  20.752  25.619  13.003
22090W        W92690  43.893  26.723  13.546
22091W        W92691   9.769  39.866   3.956
22092W        W92692   5.308   3.007   1.703
22093W        W92693  32.466  27.532   0.935
22094W        W92694  14.105   2.348  13.532
22095W        W92695  29.571  26.373   3.100
22096W        W92696   7.791   7.397   4.080
22097W        W92697  10.250   6.735  10.634
22098W        W92698  31.376  21.151  14.253
22099W        W92699  13.664  27.187   4.207
22100W        W92700  16.473  42.058   1.738
22101W        W92701  35.653   6.000  11.554
22102W        W92702  22.689   4.451   4.156
22103W        W92703   6.199  37.381   4.719
22104W        W92704  19.033  31.887  11.490
22105W        W92705  32.370  24.974   2.467
22106W        W92706  13.264  31.231  13.563
22107W        W92707  13.572   5.736   4.927
22108W        W92708  21.747  25.459  11.573
22109W        W92709  31.812   6.808  14.851
22110W        W92710  40.598  13.742  12.860
22111W        W92711  27.626  10.428  14.763
22112W        W92712  29.058   8.388   4.913
22113W        W92713  17.785  16.788   2.391
22114W        W92714  12.713  40.064   3.184
22115W        W92715  15.931  31.654   2.379
22116W        W92716  37.150  10.790   3.119
22117W        W92717  36.441  40.374  11.619
22118W        W92718  18.692  27.632   3.626
22119W        W92719  43.008  43.836  14.298
22120W        W92720  14.355  19.402  13.070
22121W        W92721  27.922  41.256  10.963
22122W        W92722  18.763  36.349  13.621
22123W        W92723  31.513  27.145  11.172
22124W        W92724  16.800  43.526   4.157
22125W        W92725  36.076  16.134   4.048
22126W        W92726  10.350  26.561  12.554
22127W        W92727  29.076  20.125   3.792
22128W        W92728  11.085  41.781   1.343
22129W        W92729  27.554  23.622  10.716
22130W        W92730  29.582   6.263  13.113
22131W        W92731  25.497  31.881   1.449
22132W        W92732  25.712  32.149  11.125
22133W        W92733  33.132  13.636   0.858
22134W        W92734  41.249   9.266  11.845
22135W        W92735  24.812  33.881  14.772
22136W        W92736  12.883   2.296   0.663
22137W        W92737  14.336   8.288  11.772
22138W        W92738   1.737  27.545  11.526
22139W        W92739  32.942  42.373   2.367
22140W        W92740  14.828  35.196   3.611
22141W        W92741  12.687   9.251   2.029
22142W        W92742  40.453  44.030  13.984
22143W        W92743  38.794  31.990  10.593
22144W        W92744  10.368  17.474   3.226
22145W        W92745  42.063  17.790  14.357
22146W        W92746   7.658  10.546  11.260
22147W        W92747  37.344  20.911  14.880
22148W        W92748   8.189  35.350  13.083
22149W        W92749   1.946   3.722  13.737
22150W        W92750  42.810  33.161  13.525
22151W        W92751  44.625  33.396  12.078
22152W        W92752  29.118  13.468  13.087
22153W        W92753  23.958  34.904  10.807
22154W        W92754  23.817  24.429   2.710
22155W        W92755  20.993  43.562  14.372
22156W        W92756  21.135  28.163   4.329
22157W        W92757  38.883  15.167   0.210
22158W        W92758  19.124   1.672   1.404
22159W        W92759  36.577  21.529  10.659
22160W        W92760  11.620  29.696   1.652
22161W        W92761  43.719  36.768   3.739
22162W        W92762  43.410  11.756   1.909
22163W        W92763  17.108   6.197  10.638
22164W        W92764  37.409  23.670  14.739
22165W        W92765  43.683  42.793  14.425
22166W        W92766  11.258   3.399  12.511
22167W        W92767   2.741  29.480  13.369
22168W        W92768  38.097  44.930  12.953
22169W        W92769  22.441  14.395   3.176
22170W        W92770  34.568   2.826  14.455
22171W        W92771  12.256  31.918   4.547
22172W        W92772  14.544  15.005  13.942
22173W        W92773  21.288  14.300  10.726
22174W        W92774  29.328  10.148   1.857
22175W        W92775  40.659  15.896   2.853
22176W        W92776  17.031  39.033   0.890
22177W        W92777  42.467   9.706   0.327
22178W        W92778  26.864   4.406  13.030
22179W        W92779  35.607  10.958  11.553
22180W        W92780  40.323  42.137   4.515
22181W        W92781   1.426  13.780   2.388
22182W        W92782   2.740   8.136   0.969
22183W        W92783  36.444  43.530  14.907
22184W        W92784  23.087  18.041  10.337
22185W        W92785  23.266  37.607  13.401
22186W        W92786  34.065  17.925   1.757
22187W        W92787  42.007   9.680   4.826
22188W        W92788  18.811  10.655   0.900
22189W        W92789  33.969  10.258   2.724
22190W        W92790  31.909  12.681  14.448
22191W        W92791  13.489  41.278   0.594
22192W        W92792   8.966  20.716  10.725
22193W        W92793  24.242  38.541  13.483
22194W        W92794  13.601  41.175   1.086
22195W        W92795  44.485  14.826  14.751
22196W        W92796  26.950  42.400   1.697
22197W        W92797   3.015  20.495  14.918
22198W        W92798  22.517   8.092  10.699
22199W        W92799  12.715  13.052   1.760
22200W        W92800  26.463  25.960  12.098
22201W        W92801   2.476   6.679   2.275
22202W        W92802   3.865  20.751  14.761
22203W        W92803   7.060  38.209  11.278
22204W        W92804  42.788  20.233  12.826
22205W        W92805  19.125  16.351   1.766
22206W        W92806  41.144  22.759  12.454
22207W        W92807  34.038  32.031   4.801
22208W        W92808  36.526   5.197  13.415
22209W        W92809  14.808  36.482  13.081
22210W        W92810  34.010  24.495  13.425
22211W        W92811   9.962   4.443  13.131
22212W        W92812   8.480   8.222  11.839
22213W        W92813  21.968   9.003   2.640
22214W        W92814  29.124  26.448  13.456
22215W        W92815  27.567  10.629   4.212
22216W        W92816  29.961  27.854  10.863
22217W        W92817  23.180  29.023  11.902
22218W        W92818  22.049  39.980   3.314
22219W        W92819  44.987  35.488  13.284
22220W        W92820  40.783  25.924  13.976
22221W        W92821  24.578   8.921  13.364
22222W        W92822  11.736   1.224  10.984
22223W        W92823  12.273  40.579   0.241
22224W        W92824  33.314   3.319  11.563
22225W        W92825  17.692   1.234   4.000
22226W        W92826  24.769  16.994   4.101
22227W        W92827   3.412  15.604   4.526
22228W        W92828  29.187  12.417  12.387
22229W        W92829  38.833   4.403  12.157
22230W        W92830   7.228  39.531  12.388
22231W        W92831  10.642  19.239  13.364
22232W        W92832  20.724  19.712  14.460
22233W        W92833  26.972  34.706   3.613
22234W        W92834  18.765   5.431   1.634
22235W        W92835  26.217  40.214   4.166
22236W        W92836   9.841  27.726  11.454
22237W        W92837   4.171  13.684  14.044
22238W        W92838   3.483  30.070  13.741
22239W        W92839   4.316  42.579   4.849
22240W        W92840  36.625   9.118  10.652
22241W        W92841   7.942  37.519   0.374
22242W        W92842   7.314  24.774  13.066
22243W        W92843  13.335  21.089   0.252
22244W        W92844  26.431  16.580  13.853
22245W        W92845  22.237  19.823  13.638
22246W        W92846   6.871   5.535  14.711
22247W        W92847  34.523   0.794  10.494
22248W        W92848  33.831  18.888  11.717
22249W        W92849  14.181  19.073  14.468
22250W        W92850  10.423  24.544   1.304
22251W        W92851   4.420  19.767   0.250
22252W        W92852  21.049   5.916   2.091
22253W        W92853  21.346  17.182  13.941
22254W        W92854  41.226  12.228   3.339
22255W        W92855  43.246  30.977  12.486
22256W        W92856  25.983  29.578  10.740
22257W        W92857   4.019   8.724  14.530
22258W        W92858  30.761  32.520  11.320
22259W        W92859   8.708  37.821  10.906
22260W        W92860  23.542  20.135  13.944
22261W        W92861  19.802   3.252  14.834
22262W        W92862  34.108  44.897   3.313
22263W        W92863   0.357  43.814  12.795
22264W        W92864   9.308   7.946   0.358
22265W        W92865   5.421  15.255   3.155
22266W        W92866  21.059   1.152  12.467
22267W        W92867  43.829  11.891  13.532
22268W        W92868   4.495  20.101  12.132
22269W        W92869  11.383  36.348   2.284
22270W        W92870  36.750   0.179   1.850
22271W        W92871  18.982  15.543  10.753
22272W        W92872  22.033  33.986   0.271
22273W        W92873  24.931  15.914   2.195
22274W        W92874  11.201  13.638  11.936
22275W        W92875  30.673  16.313  10.596
22276W        W92876   3.065  23.769  14.968
22277W        W92877   1.806  28.542   0.962
22278W        W92878  44.260  32.991   2.437
22279W        W92879  30.347   8.238  11.633
22280W        W92880  44.833  26.479   2.773
22281W        W92881  29.610  24.585   0.252
22282W        W92882  40.686  24.271  13.228
22283W        W92883   9.853  33.796   3.380
22284W        W92884  16.312  35.905  12.424
22285W        W92885  31.418  32.525   3.508
22286W        W92886   0.018   9.659  12.119
22287W        W92887  41.292  13.990   3.646
22288W        W92888  33.569  10.633  14.840
22289W        W92889  41.026   1.549   1.609
22290W        W92890  14.254  23.008  12.429
22291W        W92891   6.835  25.687  14.988
22292W        W92892  20.919   8.293   2.061
22293W        W92893  43.314  18.175  13.585
22294W        W92894  29.156  28.587   1.424
22295W        W92895  18.547  12.152  10.691
22296W        W92896  28.000  37.361   2.282
22297W        W92897  26.653   4.944  11.462
22298W        W92898  42.182  15.652   2.722
22299W        W92899  40.761  36.385  14.280
22300W        W92900  31.439  44.464  11.533
22301W        W92901   4.922  27.086  12.470
22302W        W92902  11.763   4.140   0.807
22303W        W92903  40.257  42.431   0.057
22304W        W92904  36.884  10.819   1.658
22305W        W92905  17.097  39.957  14.808
22306W        W92906  11.653  26.617  12.012
22307W        W92907  27.643   8.569  11.061
22308W        W92908  26.043  10.424   3.730
22309W        W92909  15.145  33.469  11.161
22310W        W92910   4.704  39.714   1.426
22311W        W92911  38.423  27.751   4.881
22312W        W92912  20.005  24.203  13.000
22313W        W92913  20.254  42.877   4.524
22314W        W92914  29.938   6.612  14.532
22315W        W92915  33.614   4.539   0.692
22316W        W92916   7.897  19.742  10.767
22317W        W92917  41.067  25.370   3.389
22318W        W92918  12.307  31.294  14.533
22319W        W92919  40.300  33.054   1.368
22320W        W92920   0.038  44.597   2.101
22321W        W92921  42.925  30.935  11.106
22322W        W92922  38.441  15.180   0.492
22323W        W92923  32.405   3.330   5.070
22324W        W92924   5.852  18.250   1.321
22325W        W92925  30.320  37.464   4.650
22326W        W92926  41.879  31.361   3.745
22327W        W92927  19.852  13.528  11.548
22328W        W92928   6.338  14.382  14.427
22329W        W92929  19.412   7.957  14.497
22330W        W92930  17.610  42.485  13.133
22331W        W92931  38.773  37.512  12.379
22332W        W92932  10.613  22.993  11.113
22333W        W92933  39.611  18.314   1.746
22334W        W92934  38.842  37.557  10.115
22335W        W92935  22.129  33.665  13.849
22336W        W92936  11.799  23.800   1.311
22337W        W92937  18.915  18.392  12.974
22338W        W92938  40.462  39.393  14.101
22339W        W92939  11.314  25.495   0.072
22340W        W92940  10.219   2.459   2.207
22341W        W92941   9.295  32.458   1.464
22342W        W92942  21.347  43.332  14.657
22343W        W92943  17.738   8.513  10.650
22344W        W92944   8.813   6.851  11.998
22345W        W92945  15.993  29.280  14.284
22346W        W92946   6.057  43.847  11.938
22347W        W92947  22.460  39.639   2.415
22348W        W92948  14.338  18.337   3.221
22349W        W92949  30.919  40.814  10.539
22350W        W92950  32.561  14.547   2.208
22351W        W92951  41.963  18.605   1.287
22352W        W92952   4.231  12.258   1.547
22353W        W92953  25.608   6.108   3.691
22354W        W92954  23.636   6.340   2.155
22355W        W92955  33.822   9.406   2.428
22356W        W92956  24.868   1.971   0.283
22357W        W92957  36.988   5.217  13.118
22358W        W92958  28.464  39.810   0.484
22359W        W92959   0.271  22.201  13.356
22360W        W92960   6.946  26.541  11.977
22361W        W92961  25.051   2.343   4.578
22362W        W92962  20.660  18.766  13.998
22363W        W92963  43.850  29.631  14.019
22364W        W92964  38.360  10.642  10.779
22365W        W92965  15.159  40.310   3.336
22366W        W92966   0.469   0.929  11.543
22367W        W92967  17.272  24.573   2.367
22368W        W92968  23.089   5.338   4.981
22369W        W92969  37.782  15.529  14.525
22370W        W92970  39.578   7.228   0.307
22371W        W92971   3.229   4.822   4.085
22372W        W92972  26.488  26.123   0.316
22373W        W92973  22.925  36.516  12.855
22374W        W92974  10.841  41.894   2.558
22375W        W92975  15.028  10.789   0.728
22376W        W92976   4.761  29.392  10.116
22377W        W92977  11.171   4.818  14.399
22378W        W92978  26.376  37.876   0.882
22379W        W92979   1.822  39.589  11.440
22380W        W92980  30.957  34.546   4.023
22381W        W92981  13.627   6.741  13.338
22382W        W92982  34.993  20.766   2.204
22383W        W92983  15.761   1.672  12.034
22384W        W92984  13.993   4.243  11.869
22385W        W92985  31.909   0.045  14.398
22386W        W92986  27.104   5.893  14.089
22387W        W92987  44.903  17.055  14.186
22388W        W92988   0.232  32.148  10.726
22389W        W92989  41.795  28.579  10.643
22390W        W92990  39.671  27.066  12.461
22391W        W92991  18.937   2.314   1.285
22392W        W92992  42.776  15.486   1.842
22393W        W92993  24.297   1.636  14.705
22394W        W92994   3.300  10.127  12.399
22395W        W92995   1.407  21.398   4.840
22396W        W92996  21.231   6.999  12.581
22397W        W92997   6.162   8.028   4.801
22398W        W92998  16.762   7.762   1.891
22399W        W92999   0.478  14.748   0.477
22400W        W93000  16.054  30.668   3.358
22401W        W93001  35.969  34.989   1.528
22402W        W93002   1.399  43.922   0.720
22403W        W93003  40.018  34.210   4.112
22404W        W93004  38.135   5.685   4.687
22405W        W93005   9.972  15.785  13.203
22406W        W93006   1.488  31.316  11.533
22407W        W93007  39.403  27.097   1.893
22408W        W93008  27.911  10.222  12.964
22409W        W93009  43.246  32.067   4.694
22410W        W93010  29.239  44.965  13.102
22411W        W93011   8.815  26.525   5.189
22412W        W93012  12.785  36.300   1.644
22413W        W93013   8.055   3.882  14.487
22414W        W93014  12.313  31.413  11.336
22415W        W93015  24.956   9.369   4.491
22416W        W93016  17.000  26.795  11.528
22417W        W93017  26.907  35.942   0.062
22418W        W93018  32.474  12.190  14.505
22419W        W93019  32.033  43.572  14.651
22420W        W93020  27.032  44.293   2.548
22421W        W93021  13.138  10.874   2.240
22422W        W93022   0.718   9.448  13.381
22423W        W93023   2.299   7.779  14.560
22424W        W93024   3.883  20.771   1.508
22425W        W93025  43.255  19.710   4.621
22426W        W93026  12.853   7.769   4.861
22427W        W93027  31.635   4.215  13.803
22428W        W93028  43.749  29.922  12.139
22429W        W93029   1.730  16.789  14.311
22430W        W93030  28.524  29.418  11.160
22431W        W93031  26.921  32.504   4.210
22432W        W93032   6.826  20.535   0.763
22433W        W93033   5.788  14.852  14.910
22434W        W93034   5.105  29.198  11.169
22435W        W93035  40.163  43.000  12.451
22436W        W93036  25.012  17.778  13.557
22437W        W93037   2.502   5.623  12.964
22438W        W93038   4.914   4.242  12.615
22439W        W93039   8.206  32.420  14.445
22440W        W93040   0.771  26.612   0.454
22441W        W93041  25.470  13.474   3.241
22442W        W93042   9.743  30.491  12.403
22443W        W93043   3.782  11.742   2.165
22444W        W93044  41.698   2.205  12.173
22445W        W93045  24.552  26.363  14.055
22446W        W93046   7.962   9.822   3.758
22447W        W93047   4.233  23.259  11.500
22448W        W93048   1.539  24.115   2.594
22449W        W93049  23.037  17.643   3.461
22450W        W93050   1.587  28.086  13.497
22451W        W93051  10.653  44.487   3.842
22452W        W93052  19.033  37.142   1.763
22453W        W93053  36.669  21.583  13.473
22454W        W93054  32.819  42.336   2.875
22455W        W93055   1.849  40.393   3.388
22456W        W93056  43.011  26.959   0.722
22457W        W93057   5.600  26.814   2.196
22458W        W93058  23.978  31.329  14.354
22459W        W93059  22.230  31.227  12.575
22460W        W93060  30.333   6.023   0.519
22461W        W93061  19.239  23.673   4.101
22462W        W93062  23.234  13.507   3.682
22463W        W93063  33.466  14.843   1.313
22464W        W93064  20.029  44.023   1.666
22465W        W93065   8.172   5.588   2.648
22466W        W93066  15.841   9.712  14.385
22467W        W93067  17.650  13.143   0.408
22468W        W93068  25.874  27.105   3.670
22469W        W93069  13.550   4.196  13.378
22470W        W93070  28.654  22.090   3.929
22471W        W93071  22.185  15.850  11.233
22472W        W93072   1.327   1.427  11.509
22473W        W93073   7.739   7.684   1.829
22474W        W93074  13.125  25.465   3.651
22475W        W93075  40.226  28.455  11.641
22476W        W93076  24.738   0.596   5.113
22477W        W93077  11.696  23.519  10.777
22478W        W93078  27.474  42.314   4.605
22479W        W93079  32.624  34.888   0.330
22480W        W93080  43.812  26.099  12.588
22481W        W93081  16.818  39.047   2.914
22482W        W93082   6.542  18.705  12.997
22483W        W93083   9.610  17.310  12.430
22484W        W93084  35.858  42.180   2.737
22485W        W93085  25.625  32.278   4.746
22486W        W93086  38.407  22.254   0.427
22487W        W93087  28.526  13.085  12.027
22488W        W93088   7.267  24.222   3.027
22489W        W93089  13.256  40.498   1.273
22490W        W93090  32.345  29.193  11.894
22491W        W93091   0.220  16.027   0.187
22492W        W93092  44.308  30.681   3.146
22493W        W93093  27.115  44.983   3.136
22494W        W93094  30.321   8.195   1.802
22495W        W93095  28.539  39.791   1.799
22496W        W93096  15.234   0.868   1.420
22497W        W93097  39.934   1.246   0.842
22498W        W93098   2.387   1.023  12.474
22499W        W93099  11.241  35.399  11.622
22500W        W93100  23.613  11.381   2.719
22501W        W93101  40.299  16.504   3.197
22502W        W93102  12.769  23.029   0.798
22503W        W93103  36.999   1.954  11.257
22504W        W93104  31.601  35.862  10.696
22505W        W93105  18.209  26.954   1.799
22506W        W93106  23.822  13.027  12.532
22507W        W93107  19.717  12.663   0.920
22508W        W93108   6.604  32.066  10.444
22509W        W93109  21.745  42.504  13.055
22510W        W93110  19.690  43.752   1.959
22511W        W93111  17.572  17.992  13.058
22512W        W93112  37.788  32.004   1.536
22513W        W93113  31.812  37.481  10.387
22514W        W93114  39.927   3.820  14.033
22515W        W93115  17.110  23.609   2.905
22516W        W93116  10.598  14.738  10.904
22517W        W93117   2.303  42.924   4.635
22518W        W93118  29.099   1.149   3.051
22519W        W93119  35.967   6.831  11.536
22520W        W93120  20.858  12.256   0.449
22521W        W93121   7.120  25.952   0.955
22522W        W93122  11.396   3.198   2.707
22523W        W93123  12.352  23.633   1.149
22524W        W93124  21.676  13.379  14.926
22525W        W93125  44.021  24.670  11.270
22526W        W93126  13.648  36.334   1.495
22527W        W93127   8.184  32.577   3.829
22528W        W93128  20.605  19.606   3.622
22529W        W93129  30.417  15.183   1.638
22530W        W93130  29.765  26.479   2.233
22531W        W93131  22.612  39.547   0.327
22532W        W93132   7.588  44.117  14.788
22533W        W93133   4.953  39.981  14.947
22534W        W93134  25.076  20.589  13.125
22535W        W93135  37.027  21.984  13.430
22536W        W93136  31.319  15.136  11.938
22537W        W93137  20.320  44.699  11.719
22538W        W93138  14.024  39.432   1.417
22539W        W93139  32.658  13.144  10.761
22540W        W93140  30.545   7.475  11.048
22541W        W93141  12.330  23.574   2.548
22542W        W93142  38.597   9.847  12.506
22543W        W93143   8.094  20.260  14.465
22544W        W93144  43.716  42.407   3.820
22545W        W93145   2.023  36.337  13.010
22546W        W93146  35.860   0.801  13.751
22547W        W93147  10.853  15.464  11.877
22548W        W93148  24.740  19.712   4.265
22549W        W93149  18.761   4.501   4.263
22550W        W93150  11.728  14.339  14.691
22551W        W93151   1.357   7.644  12.528
22552W        W93152  44.110  13.209   2.356
22553W        W93153   0.414  17.037  11.269
22554W        W93154   8.935  38.103   1.888
22555W        W93155  29.994   0.821  10.623
22556W        W93156   0.733  28.052  10.283
22557W        W93157  38.926   7.691  13.878
22558W        W93158  22.442  15.295  10.668
22559W        W93159  39.638  29.430  12.896
22560W        W93160   3.659  24.488   3.700
22561W        W93161  35.522  27.989  11.596
22562W        W93162  16.911  31.420   4.530
22563W        W93163  21.984  41.000  13.070
22564W        W93164  11.850  44.317  13.782
22565W        W93165   2.145  15.149  12.997
22566W        W93166   9.627   3.266   0.588
22567W        W93167  34.049  24.515   1.302
22568W        W93168  19.209  33.114  13.068
22569W        W93169  19.537  25.750  14.051
22570W        W93170   3.028  19.324  12.811
22571W        W93171  23.108   1.003  12.081
22572W        W93172  26.593   3.855   0.388
22573W        W93173  22.169  36.493  12.395
22574W        W93174  12.060  16.817   0.728
22575W        W93175   2.412   8.195   3.747
22576W        W93176  26.491  22.940  11.419
22577W        W93177  12.367  24.653   2.878
22578W        W93178  18.898   8.383   0.177
22579W        W93179  25.531  42.770   1.667
22580W        W93180  29.036   1.294   4.542
22581W        W93181   0.393  20.323  12.446
22582W        W93182  13.850  30.426  13.631
22583W        W93183  30.898  12.615   3.620
22584W        W93184  40.285  26.906   3.619
22585W        W93185   3.775  40.006   2.905
22586W        W93186   0.892  24.439  10.502
22587W        W93187  10.955  30.956  10.884
22588W        W93188  10.501   2.763   0.145
22589W        W93189   3.290  30.634   2.138
22590W        W93190  35.762  22.107   4.502
22591W        W93191  21.472  44.017  10.256
22592W        W93192   0.761  19.736   4.596
22593W        W93193  41.871  28.753  11.607
22594W        W93194   6.845  22.688   4.246
22595W        W93195   0.861  44.388   0.261
22596W        W93196  12.092  19.319   1.810
22597W        W93197  25.090   1.206  14.397
22598W        W93198  13.530  25.697   2.710
22599W        W93199  23.074  28.798   0.771
22600W        W93200  15.197  10.701  11.666
22601W        W93201  34.351  43.858   0.019
22602W        W93202  10.775  32.605   3.896
22603W        W93203  12.346  29.990   4.100
22604W        W93204  14.593  43.291  14.914
22605W        W93205  36.376  37.347  11.687
22606W        W93206   2.700  19.117  11.642
22607W        W93207  26.801   4.346  10.775
22608W        W93208  25.275  42.524  13.495
22609W        W93209  34.620   5.340   0.670
22610W        W93210  38.470  14.151   1.563
22611W        W93211  19.233  17.215   0.366
22612W        W93212  31.070  22.595   0.685
22613W        W93213  21.856  27.621  12.935
22614W        W93214  36.622  16.453  12.256
22615W        W93215  23.655  28.462  11.673
22616W        W93216   7.402   7.358   0.783
22617W        W93217  36.574  15.978  13.548
22618W        W93218  29.501  22.922   0.805
22619W        W93219  16.130   0.464   0.007
22620W        W93220  23.877  18.620  14.025
22621W        W93221  18.637  27.754  10.729
22622W        W93222  35.220  23.231   3.368
22623W        W93223  23.576  35.131   2.552
22624W        W93224   5.638  17.631  11.223
22625W        W93225  17.100  16.242  12.972
22626W        W93226  32.953  39.534   3.766
22627W        W93227  30.552  35.700  13.336
22628W        W93228  17.216  31.066  14.099
22629W        W93229  21.740   5.838  11.135
22630W        W93230   2.865  25.680   4.848
22631W        W93231  14.145  20.665   0.366
22632W        W93232   0.598   1.816  12.172
22633W        W93233  34.845  39.719   0.375
22634W        W93234  21.361  17.785  13.029
22635W        W93235  43.833  30.971   3.131
22636W        W93236  35.355  17.744   2.425
22637W        W93237  15.283  39.898  11.568
22638W        W93238   4.587  22.677   2.390
22639W        W93239  41.867  27.946  13.457
22640W        W93240  34.941  10.334   1.216
22641W        W93241  43.457  31.916   2.796
22642W        W93242  40.631  17.091   4.083
22643W        W93243  32.442  35.815  12.134
22644W        W93244  11.228   8.087  13.872
22645W        W93245  33.025  15.884   2.012
22646W        W93246  28.615  43.448  11.226
22647W        W93247  13.576  38.005  11.551
22648W        W93248  30.717  14.763   1.815
22649W        W93249  30.103   3.274  14.692
22650W        W93250  38.694  27.448   4.545
22651W        W93251  40.799  26.736  14.321
22652W        W93252  25.418  27.632  13.315
22653W        W93253  36.078  16.134  11.227
22654W        W93254  41.307  11.149   4.369
22655W        W93255  38.144  12.301  11.138
22656W        W93256  30.717  27.920   0.848
22657W        W93257  22.743  40.521   2.251
22658W        W93258   3.849  29.340  12.206
22659W        W93259  28.372  42.560   1.212
22660W        W93260  27.190  37.105  13.055
22661W        W93261  15.613  31.669   0.942
22662W        W93262  23.438  10.404   0.788
22663W        W93263   2.810  24.869   0.360
22664W        W93264  38.861  16.773   2.219
22665W        W93265  32.180  17.413  13.094
22666W        W93266  21.785   0.781  11.877
22667W        W93267  20.710   3.721  14.841
22668W        W93268   8.785  42.639   0.723
22669W        W93269  28.503  13.751  10.986
22670W        W93270  38.519  11.195  12.430
22671W        W93271  36.071   2.519   2.205
22672W        W93272  29.968  15.207  11.013
22673W        W93273  26.019   2.490   4.362
22674W        W93274  18.702  21.800  14.870
22675W        W93275  33.970   3.900   4.800
22676W        W93276  35.395  37.120   4.668
22677W        W93277   1.833  32.866  12.394
22678W        W93278  32.029   3.143  14.770
22679W        W93279  16.320  41.314  13.459
22680W        W93280  11.684  41.970  10.778
22681W        W93281   6.275  36.946  10.990
22682W        W93282   1.856  28.776   3.411
22683W        W93283  36.373  11.819  10.984
22684W        W93284  40.906   4.396   2.175
22685W        W93285  35.011  13.802  12.003
22686W        W93286  37.904  19.705   1.675
22687W        W93287   3.947  21.702  12.496
22688W        W93288  14.790  31.669  12.895
22689W        W93289  14.678   2.572   4.580
22690W        W93290  10.329   3.360  10.585
22691W        W93291  36.503  39.395  14.290
22692W        W93292  14.944  33.661   0.950
22693W        W93293  41.307  31.482  12.235
22694W        W93294  21.665  44.173  12.123
22695W        W93295  33.348  14.591   2.209
22696W        W93296   3.678  41.631  14.344
22697W        W93297  43.924   0.792  14.334
22698W        W93298  27.596  43.698  12.047
22699W        W93299   6.003  29.191   2.828
22700W        W93300  30.639  11.810   2.592
22701W        W93301  11.864  12.280  11.520
22702W        W93302  34.814  41.172   3.615
22703W        W93303  37.745  36.092  12.411
22704W        W93304  23.214  20.904  10.076
22705W        W93305  27.683   0.723   4.141
22706W        W93306  10.729  10.956   2.273
22707W        W93307  34.131  37.098  11.935
22708W        W93308  34.444   8.899  13.482
22709W        W93309   2.992  37.931   4.208
22710W        W93310  31.637  22.623  14.256
22711W        W93311  20.694  34.897  14.861
22712W        W93312   8.602  13.313   2.656
22713W        W93313  41.878   3.753   0.881
22714W        W93314  35.678  24.213   3.783
22715W        W93315  44.260   1.661   3.306
22716W        W93316  36.065   0.701   0.268
22717W        W93317  12.895  36.894  14.756
22718W        W93318   4.176   4.368   0.563
22719W        W93319  13.235  10.787  12.071
22720W        W93320  12.793   2.284   3.146
22721W        W93321  36.424  31.743   2.229
22722W        W93322   4.191  16.051  12.203
22723W        W93323  43.784  39.082  12.020
22724W        W93324  12.757  21.586   3.455
22725W        W93325  11.720  23.980   4.730
22726W        W93326  14.678  42.869   1.786
22727W        W93327   0.376  33.691   4.635
22728W        W93328  17.138  36.373   4.264
22729W        W93329  20.121   5.180   2.920
22730W        W93330   4.406  18.057  10.641
22731W        W93331  23.781  11.838  11.378
22732W        W93332  13.232  31.711  14.322
22733W        W93333  41.901  11.874  12.558
22734W        W93334   9.139   8.046   1.939
22735W        W93335  14.728  25.440  14.425
22736W        W93336  27.428  15.815  10.782
22737W        W93337  44.909   2.721   1.451
22738W        W93338  19.671  15.211   5.029
22739W        W93339  42.799   3.312   2.340
22740W        W93340  20.345   6.413   2.777
22741W        W93341  41.000  16.116   3.186
22742W        W93342   8.319   3.761   5.215
22743W        W93343  28.288  16.392   3.832
22744W        W93344  43.305  27.010  10.671
22745W        W93345  27.298  42.288  14.817
22746W        W93346  11.816  12.848   1.921
22747W        W93347  24.644  12.113  11.099
22748W        W93348   4.801  23.262   3.693
22749W        W93349  30.913  11.885  14.043
22750W        W93350  31.500  38.643   4.114
22751W        W93351  18.086  28.504  14.406
22752W        W93352  22.659  14.347  13.585
22753W        W93353  13.996  18.978   0.851
22754W        W93354  14.723  10.357   0.047
22755W        W93355  37.812  38.898  12.962
22756W        W93356  29.065   2.788   0.026
22757W        W93357  31.915  22.666   4.005
22758W        W93358   0.861  37.493  13.137
22759W        W93359  31.499  25.703  12.060
22760W        W93360  39.115  13.435  14.366
22761W        W93361  35.796  31.590  12.421
22762W        W93362  39.969  41.481   0.824
22763W        W93363  14.686   6.712   4.677
22764W        W93364  23.311  26.993   2.236
22765W        W93365  10.123  42.089  11.782
22766W        W93366  18.579  37.001  14.607
22767W        W93367  41.799  10.762   1.367
22768W        W93368  44.188  44.059  10.258
22769W        W93369   6.258   1.269  10.847
22770W        W93370  18.578  31.175   2.410
22771W        W93371  33.334  17.184   4.909
22772W        W93372  39.040  27.619  13.837
22773W        W93373  17.769  13.203   2.664
22774W        W93374  23.243  24.068  11.477
22775W        W93375  23.156  35.312   1.814
22776W        W93376  35.527   2.860   0.461
22777W        W93377  22.971  11.822  11.648
22778W        W93378  17.710  35.626  11.159
22779W        W93379  23.187   0.651   5.000
22780W        W93380  36.542   4.956  14.369
22781W        W93381  12.687  31.008  12.855
22782W        W93382  39.113  41.976  12.396
22783W        W93383  37.527  28.903   2.834
22784W        W93384   4.209  33.811  12.069
22785W        W93385  30.040  22.923  11.625
22786W        W93386  33.442   3.869   4.293
22787W        W93387  31.942   4.776   0.959
22788W        W93388   5.247   1.278   0.863
22789W        W93389  12.799  34.415   3.997
22790W        W93390  22.800   9.655  14.834
22791W        W93391  40.386  39.996  13.335
22792W        W93392   4.455  28.549  12.094
22793W        W93393  35.709  40.110  13.019
22794W        W93394  21.183  18.612   1.832
22795W        W93395  44.494  13.717   3.302
22796W        W93396  42.493  35.460  13.408
22797W        W93397   9.136  29.122  10.713
22798W        W93398  10.330  15.590  11.131
22799W        W93399  39.922  39.763  13.309
22800W        W93400  18.854  39.116   4.001
22801W        W93401   6.165   9.573  12.954
22802W        W93402   4.124   9.591  10.998
22803W        W93403  27.317  25.200   3.589
22804W        W93404  17.934  19.112  11.648
22805W        W93405  35.752   1.747   4.082
22806W        W93406  15.346  19.336  13.142
22807W        W93407  42.409   3.893   1.178
22808W        W93408  16.669  34.032   2.346
22809W        W93409   0.560  22.207   3.372
22810W        W93410   1.379   7.976   3.757
22811W        W93411  42.863  28.109   1.375
22812W        W93412  13.896  29.428  13.806
22813W        W93413   6.401  14.917  10.716
22814W        W93414   3.780  19.717   2.137
22815W        W93415  27.044  34.200   3.637
22816W        W93416  13.661  35.202  14.063
22817W        W93417  24.831  17.473   3.897
22818W        W93418  24.553  36.803  12.788
22819W        W93419  18.589  14.853   2.710
22820W        W93420  35.377  11.686   3.746
22821W        W93421  11.409  44.524  13.061
22822W        W93422  32.471   9.125  14.506
22823W        W93423  21.122  44.914   3.100
22824W        W93424  44.037   2.224   1.794
22825W        W93425  14.665  40.285  12.176
22826W        W93426  38.296   3.213  12.549
22827W        W93427   1.692  24.856  12.599
22828W        W93428  30.630  15.248   4.042
22829W        W93429  44.784  43.352  14.742
22830W        W93430  12.738  15.789  13.440
22831W        W93431   4.928  19.611  10.241
22832W        W93432   9.858   3.986   4.298
22833W        W93433   3.430  13.648   2.396
22834W        W93434  17.815  25.953   0.858
22835W        W93435  25.964  31.124   3.542
22836W        W93436  35.902  31.110   0.012
22837W        W93437  42.208  24.569  11.440
22838W        W93438  42.131  14.299  14.896
22839W        W93439  33.453  27.655  13.319
22840W        W93440  29.633  30.658   5.021
22841W        W93441  18.102  14.887   0.461
22842W        W93442  19.258  30.604  14.386
22843W        W93443  16.753  30.358  14.973
22844W        W93444  12.355  25.179  14.299
22845W        W93445  15.051  40.691   4.162
22846W        W93446  31.463   0.832   4.607
22847W        W93447  35.633  11.388  13.511
22848W        W93448   5.124  20.564  13.027
22849W        W93449  21.804  21.706   3.723
22850W        W93450   2.862  14.222   4.837
22851W        W93451  17.460   5.694   9.910
22852W        W93452   5.383  22.038  14.378
22853W        W93453   0.264  39.026   0.806
22854W        W93454   3.474  28.664   4.031
22855W        W93455  23.103  35.971   4.227
22856W        W93456  20.632  31.656  11.632
22857W        W93457  29.101  33.041  10.647
22858W        W93458  31.014  28.357  12.341
22859W        W93459  16.599  36.444  12.062
22860W        W93460  37.208  38.389  11.750
22861W        W93461  44.936   0.196  11.442
22862W        W93462  10.418   2.945   0.637
22863W        W93463  33.943  31.468  10.711
22864W        W93464  26.039  31.059  11.928
22865W        W93465  29.639  44.875  12.802
22866W        W93466  12.609  32.539   4.829
22867W        W93467   1.155  17.581  11.686
22868W        W93468  37.778   6.624   3.824
22869W        W93469   8.529  24.110   2.054
22870W        W93470  21.038  17.224  14.374
22871W        W93471  15.408  20.627  11.088
22872W        W93472  22.770  15.245  13.418
22873W        W93473  43.997  41.790   2.804
22874W        W93474  20.580  37.874  11.666
22875W        W93475  10.909  15.810  11.518
22876W        W93476   9.190   8.094  14.860
22877W        W93477  13.340   6.831   1.269
22878W        W93478  37.158  18.712   2.823
22879W        W93479  23.983  29.304  14.845
22880W        W93480  31.124  31.014   3.644
22881W        W93481   9.634  12.969  12.024
22882W        W93482  29.607  43.200  14.758
22883W        W93483  34.929  30.216   1.316
22884W        W93484  27.700  32.466  12.579
22885W        W93485  15.691  35.239   1.598
22886W        W93486  37.609   2.295  13.849
22887W        W93487  14.764   7.929   2.799
22888W        W93488  14.874  31.869  11.619
22889W        W93489  23.974   5.344  11.191
22890W        W93490  39.933  27.471  12.149
22891W        W93491   0.941  32.427   1.205
22892W        W93492  41.160  39.953   2.316
22893W        W93493   4.528  34.342  11.448
22894W        W93494  22.155  44.319  13.384
22895W        W93495  41.855  35.397  10.784
22896W        W93496  16.678   6.905  11.586
22897W        W93497  21.329   2.257   1.391
22898W        W93498  26.453  24.395   2.322
22899W        W93499  33.083  40.264   4.516
22900W        W93500  34.627  29.197   2.238
22901W        W93501  18.147   5.904   4.907
22902W        W93502  42.937  32.367   0.818
22903W        W93503  37.865  29.294  11.040
22904W        W93504  34.506  41.172  13.984
22905W        W93505   7.723   1.045   4.121
22906W        W93506  10.555   8.405   1.954
22907W        W93507  20.191  34.089   4.586
22908W        W93508  19.000  26.116  13.585
22909W        W93509   4.367  41.775   2.859
22910W        W93510  40.465   3.777  11.754
22911W        W93511   9.875  14.576   1.170
22912W        W93512  14.159  33.071  14.210
22913W        W93513  23.602  30.445  10.746
22914W        W93514  12.122  21.058   4.421
22915W        W93515  20.266   7.247  10.719
22916W        W93516  31.613  40.996   3.755
22917W        W93517  30.418  34.559   2.861
22918W        W93518  10.429  18.990  12.333
22919W        W93519  13.179  24.252  11.547
22920W        W93520  34.916   1.310   2.731
22921W        W93521  18.304  38.337  12.931
22922W        W93522  10.958   9.356   0.907
22923W        W93523   1.745  22.742  12.443
22924W        W93524  31.169  36.160  10.744
22925W        W93525   2.905  32.849  14.423
22926W        W93526  43.521  25.501   2.075
22927W        W93527  32.884  20.760  14.462
22928W        W93528  29.985  33.074   4.488
22929W        W93529   0.449  11.547  14.442
22930W        W93530  23.238  28.922   1.316
22931W        W93531  34.970  44.949   3.239
22932W        W93532  12.803  25.185  12.166
22933W        W93533   5.156  23.918   0.912
22934W        W93534  44.588  13.702   1.427
22935W        W93535   6.331   8.632   0.966
22936W        W93536  23.462  23.192   2.357
22937W        W93537   6.928  33.665  14.691
22938W        W93538  11.230   3.300   1.727
22939W        W93539  43.519   9.947  14.541
22940W        W93540  41.039  41.071  12.136
22941W        W93541  19.760  34.301  12.800
22942W        W93542  35.415  37.914  14.646
22943W        W93543  12.744  31.919   3.776
22944W        W93544  30.243  15.108  14.992
22945W        W93545  22.263  40.397   2.060
22946W        W93546  32.017   1.054  13.451
22947W        W93547  31.222  23.981   0.910
22948W        W93548  30.511  22.298   3.739
22949W        W93549   6.571   0.364   2.774
22950W        W93550  29.646   9.859   1.545
22951W        W93551   4.451  38.108   3.355
22952W        W93552  21.573  38.082  12.068
22953W        W93553  22.749  27.080  14.916
22954W        W93554  42.479  41.381  13.596
22955W        W93555  37.533  28.900   0.923
22956W        W93556  39.952  11.182  11.718
22957W        W93557  38.943  14.923  14.057
22958W        W93558  39.418  30.894  11.248
22959W        W93559   7.910   3.425  14.790
22960W        W93560  37.055   6.091  14.354
22961W        W93561   3.522  30.535  13.012
22962W        W93562  14.645  29.372  12.137
22963W        W93563  38.566  24.174  10.714
22964W        W93564   0.413  40.976   3.978
22965W        W93565  30.397  15.193  12.034
22966W        W93566  12.647  13.097  14.290
22967W        W93567  38.347   8.087   2.381
22968W        W93568  42.444  43.482   1.177
22969W        W93569   6.976  17.857  13.411
22970W        W93570  28.257  43.556   4.711
22971W        W93571  25.886  33.877   0.510
22972W        W93572  38.815  44.425  13.395
22973W        W93573  32.501  19.272  13.534
22974W        W93574  38.571  38.148   0.430
22975W        W93575  33.325  21.120  14.484
22976W        W93576  12.869  29.471   3.572
22977W        W93577  19.017  41.769  13.771
22978W        W93578  40.944  23.081   0.787
22979W        W93579   3.294  40.314   2.932
22980W        W93580  24.077  37.904   2.689
22981W        W93581  35.429  28.339  11.975
22982W        W93582  38.411  19.129   4.254
22983W        W93583  43.818  39.162  13.815
22984W        W93584  16.600  10.791  11.514
22985W        W93585  21.206  43.121   0.715
22986W        W93586  36.534  11.163  13.593
22987W        W93587  35.134  14.664   3.799
22988W        W93588   0.219  32.620   3.684
22989W        W93589  35.956   6.874  12.403
22990W        W93590  39.062  13.818  12.572
22991W        W93591  17.965   5.366  11.090
22992W        W93592  22.421  30.529   4.045
22993W        W93593   5.135  44.280  13.019
22994W        W93594  32.333   1.521  14.088
22995W        W93595   5.373   8.131  12.170
22996W        W93596  31.619  35.803   3.960
22997W        W93597  25.945  25.458   1.825
22998W        W93598  27.878   6.685  14.430
22999W        W93599  16.119  27.194   3.273
23000W        W93600   4.103   8.319  11.015
23001W        W93601  11.273  15.185  12.964
23002W        W93602  15.866  33.048   5.366
23003W        W93603  27.505  41.263   4.731
23004W        W93604   1.740  30.852   4.500
23005W        W93605  39.811  16.250  12.926
23006W        W93606  41.665  36.509   0.671
23007W        W93607  40.700  42.221  14.946
23008W        W93608  28.197  38.086  12.025
23009W        W93609  36.381   3.876  14.003
23010W        W93610  40.301  35.165   1.904
23011W        W93611  12.106  20.694   1.141
23012W        W93612  42.394  34.179  12.114
23013W        W93613  29.375  18.038   2.759
23014W        W93614   8.359  30.159   0.913
23015W        W93615  28.498  25.134  10.926
23016W        W93616  37.135  36.488   3.657
23017W        W93617   1.761  35.843   4.189
23018W        W93618  16.582   9.680   3.206
23019W        W93619  24.779  43.651  11.047
23020W        W93620   6.842  27.514  12.358
23021W        W93621   9.602   9.120  11.612
23022W        W93622  31.886   1.445  13.798
23023W        W93623   7.945  43.475  14.332
23024W        W93624   6.659   2.329   4.683
23025W        W93625  23.653  44.851  13.670
23026W        W93626  35.457  17.252  10.509
23027W        W93627  22.008  10.466   2.972
23028W        W93628   1.989  26.613   0.100
23029W        W93629  30.026  36.961   0.845
23030W        W93630  11.608  14.842   3.701
23031W        W93631  10.711   4.576   2.650
23032W        W93632  13.273  23.211  10.857
23033W        W93633  29.639  21.650  14.320
23034W        W93634  27.484  42.225  12.352
23035W        W93635  23.695   7.381  13.823
23036W        W93636  13.711  34.109  10.189
23037W        W93637  38.770   6.723   1.348
23038W        W93638  41.921   8.147  14.782
23039W        W93639  36.760  15.306   0.799
23040W        W93640   1.141  36.867  12.421
23041W        W93641   0.030   5.358   0.313
23042W        W93642   8.809   4.803  12.400
23043W        W93643  17.005  23.085   1.705
23044W        W93644  17.381   9.368  10.674
23045W        W93645  24.992  29.910   4.692
23046W        W93646  19.305   7.651  12.465
23047W        W93647  30.611  21.859  13.962
23048W        W93648  28.882  22.897   2.236
23049W        W93649   5.955  25.278  11.580
23050W        W93650  37.457   1.336   0.751
23051W        W93651  43.851   3.006   1.384
23052W        W93652  21.326  15.937  14.640
23053W        W93653  30.848  27.030  13.930
23054W        W93654   2.189  24.408   3.719
23055W        W93655   6.728  23.235   3.477
23056W        W93656  34.063  24.770   4.443
23057W        W93657   7.336  37.898  11.658
23058W        W93658  12.876   7.723  12.771
23059W        W93659  25.670  24.663   2.650
23060W        W93660  44.988  31.493   4.006
23061W        W93661  26.929   2.281   0.072
23062W        W93662  30.015  24.317   0.030
23063W        W93663   8.174  10.817   3.271
23064W        W93664  19.588  24.538  14.571
23065W        W93665  26.490  36.059   3.634
23066W        W93666   7.592   7.901  11.971
23067W        W93667  14.304  19.413   0.852
23068W        W93668  29.018  31.375   2.689
23069W        W93669  20.499  23.802  13.914
23070W        W93670  44.885  26.690   0.867
23071W        W93671  22.555  41.260  14.935
23072W        W93672  25.021  34.464   1.526
23073W        W93673  23.592   1.438   1.944
23074W        W93674  14.908  42.289  14.932
23075W        W93675   7.226  29.879   1.699
23076W        W93676  37.225  14.213   4.646
23077W        W93677   2.364   0.809   2.865
23078W        W93678  22.973  10.213  12.519
23079W        W93679  38.355  17.767  11.715
23080W        W93680  40.605  33.584   4.546
23081W        W93681  17.137  21.013  13.250
23082W        W93682  38.336  16.584  12.412
23083W        W93683  24.667  41.508  14.199
23084W        W93684  16.423  17.051  12.253
23085W        W93685  41.024  39.095   2.370
23086W        W93686  38.393  25.841   3.661
23087W        W93687  16.660  43.749   3.201
23088W        W93688  17.812  40.334   1.257
23089W        W93689  35.446   8.223  14.879
23090W        W93690  29.388   0.923   4.673
23091W        W93691  33.874   4.420  13.531
23092W        W93692  36.527  18.245   2.230
23093W        W93693  11.221  10.393  14.850
23094W        W93694  43.325  40.067  13.085
23095W        W93695  30.579  19.933  14.047
23096W        W93696  26.754  32.469  11.530
23097W        W93697  22.769  30.716   5.027
23098W        W93698  25.818  23.487  12.184
23099W        W93699   2.879  27.497   3.400
23100W        W93700  18.152  36.842  11.555
23101W        W93701  23.565  27.334   4.646
23102W        W93702  35.422  32.075   4.496
23103W        W93703   3.710  38.463   0.722
23104W        W93704  14.225  33.459  11.989
23105W        W93705   3.062  42.817  10.308
23106W        W93706   5.308  18.005  11.413
23107W        W93707  24.248   4.126  12.845
23108W        W93708  25.912  11.819   1.410
23109W        W93709  13.150  22.729   4.513
23110W        W93710  43.790  13.708   1.157
23111W        W93711  17.816   9.078  11.551
23112W        W93712   1.730  12.962  13.514
23113W        W93713  32.952  24.760  11.457
23114W        W93714   7.405  14.564   1.778
23115W        W93715  29.017  19.213  12.309
23116W        W93716   7.893   4.243   0.405
23117W        W93717  23.465  20.958   2.227
23118W        W93718  26.244  31.166   0.686
23119W        W93719   4.831  27.471  11.156
23120W        W93720   7.987  33.993   2.592
23121W        W93721  25.009   4.882  13.850
23122W        W93722  12.313  18.127   0.926
23123W        W93723   5.704  25.649   3.607
23124W        W93724  29.493  22.140   3.227
23125W        W93725  17.673  32.371   4.805
23126W        W93726  27.423  14.168  12.151
23127W        W93727  29.875   1.918   2.750
23128W        W93728  12.134   0.935   0.261
23129W        W93729  43.743  37.105  13.930
23130W        W93730   8.859   4.844   0.581
23131W        W93731  29.511  24.187  14.909
23132W        W93732  12.562  27.053   2.859
23133W        W93733  29.077  16.300  12.014
23134W        W93734  13.815  28.925  13.982
23135W        W93735  19.050  14.110   3.876
23136W        W93736   8.147  13.858  14.697
23137W        W93737   2.327  17.034  12.212
23138W        W93738  28.254   3.984  13.931
23139W        W93739  19.282  35.503  14.044
23140W        W93740  26.122  21.721  11.060
23141W        W93741  22.539  44.026   3.227
23142W        W93742  23.793  15.877  14.026
23143W        W93743  18.765  38.155  11.210
23144W        W93744  38.360   1.409   3.305
23145W        W93745  20.005  32.495   0.416
23146W        W93746  39.055  35.046  12.825
23147W        W93747  40.899  19.745  10.350
23148W        W93748  12.700  28.194   2.335
23149W        W93749   7.545  25.141  12.463
23150W        W93750  19.308  23.937   1.224
23151W        W93751  26.236  10.981  11.464
23152W        W93752   8.906  18.909  14.868
23153W        W93753  12.717  42.729  12.110
23154W        W93754  40.916  22.533  12.874
23155W        W93755  14.196  44.968  10.886
23156W        W93756  14.859  41.581  10.549
23157W        W93757  14.123  10.738  10.516
23158W        W93758  23.761  31.495  11.544
23159W        W93759   7.381  41.168  13.616
23160W        W93760   1.770  42.192  12.141
23161W        W93761  13.227   5.814  11.179
23162W        W93762  34.000  37.833  14.816
23163W        W93763  26.497  19.541   0.895
23164W        W93764   2.515  12.290  13.430
23165W        W93765  11.194   8.222  12.579
23166W        W93766  42.073  15.030  12.651
23167W        W93767   6.702   9.112   3.697
23168W        W93768   8.236  18.120   0.817
23169W        W93769  22.559  42.975   4.148
23170W        W93770   3.028  18.238   3.282
23171W        W93771  38.044  26.189  13.040
23172W        W93772  17.064  41.870  12.102
23173W        W93773   9.155  11.422   0.932
23174W        W93774  34.830  39.405   3.272
23175W        W93775  40.584  32.882  11.490
23176W        W93776  11.858   5.869   3.200
23177W        W93777  12.729  20.251   2.778
23178W        W93778  37.018   5.310   1.416
23179W        W93779  20.502  29.006  14.853
23180W        W93780   7.434  39.014  14.612
23181W        W93781   5.184  30.915  12.442
23182W        W93782  15.902  26.536  13.852
23183W        W93783   9.442  33.076   1.828
23184W        W93784   5.796  29.993   2.207
23185W        W93785  11.876  42.181   1.297
23186W        W93786  40.263  16.790   3.686
23187W        W93787   8.899   0.990  12.417
23188W        W93788  42.734  43.083   1.029
23189W        W93789  31.431  35.647  13.847
23190W        W93790   1.807  33.248  12.737
23191W        W93791   9.539   6.527  12.274
23192W        W93792  18.693   5.326  12.265
23193W        W93793  19.222   0.721   4.471
23194W        W93794  31.171  37.056  11.631
23195W        W93795  38.973   2.248   4.768
23196W        W93796  20.264  16.641  14.380
23197W        W93797  33.164   0.264   3.083
23198W        W93798  31.017   3.425   1.780
23199W        W93799  31.628   6.325   4.774
23200W        W93800  32.358  33.197  11.527
23201W        W93801  13.213   4.352   3.747
23202W        W93802  28.235  35.849  13.192
23203W        W93803  19.946  29.551  11.417
23204W        W93804  25.405  30.444  13.844
23205W        W93805  21.238  43.775  10.661
23206W        W93806  23.477  13.684  13.536
23207W        W93807  16.166  36.961  13.487
23208W        W93808  28.951  38.781  14.471
23209W        W93809  43.641   2.769  13.763
23210W        W93810  38.641  34.000   3.818
23211W        W93811  37.572  36.854   2.160
23212W        W93812  15.771  37.669  10.279
23213W        W93813  35.578  19.963   2.825
23214W        W93814   0.250  34.585   1.262
23215W        W93815  38.277  23.879  12.012
23216W        W93816  19.736   9.724  11.473
23217W        W93817   9.235   6.017  13.600
23218W        W93818  28.302  36.518  12.422
23219W        W93819   0.384   9.089   4.257
23220W        W93820  31.584  20.487   3.690
23221W        W93821  30.580   4.162  14.689
23222W        W93822  16.717  10.549  12.455
23223W        W93823  36.749  43.653  13.052
23224W        W93824  27.430   9.522   2.247
23225W        W93825   2.410  29.638  10.656
23226W        W93826  18.820  19.168   3.646
23227W        W93827   6.300  14.241   4.948
23228W        W93828   5.760  10.159  13.834
23229W        W93829  20.648  38.891   2.575
23230W        W93830  41.379  24.501   4.353
23231W        W93831   1.715  20.561   4.226
23232W        W93832   8.677  28.633  10.472
23233W        W93833   9.131  41.379  12.388
23234W        W93834  11.375   8.359  13.432
23235W        W93835   9.231  31.261   0.892
23236W        W93836   6.135  38.763  12.568
23237W        W93837  14.638  12.252  10.208
23238W        W93838  25.559   3.825   4.598
23239W        W93839  11.607  39.668  12.658
23240W        W93840  15.917  10.613   4.042
23241W        W93841  18.884  42.721   2.816
23242W        W93842  18.624   7.877  10.985
23243W        W93843  43.267  16.370  12.106
23244W        W93844  42.182  38.775   2.834
23245W        W93845  36.777  34.010   2.104
23246W        W93846  22.218   3.915   2.326
23247W        W93847  41.828   1.879   1.632
23248W        W93848  34.094  15.112   1.411
23249W        W93849  32.505  34.972  12.869
23250W        W93850   4.437  44.085  14.242
23251W        W93851   8.950   7.257  13.832
23252W        W93852   2.079  11.201  12.427
23253W        W93853  28.963  29.472   0.840
23254W        W93854  32.071   6.691  11.382
23255W        W93855  20.118  19.239   1.878
23256W        W93856  39.082  20.554  13.518
23257W        W93857  21.491  31.126   1.890
23258W        W93858  21.030  30.515  11.854
23259W        W93859  18.329  43.331  12.487
23260W        W93860  16.173   1.523   0.947
23261W        W93861  16.283  23.672   0.489
23262W        W93862  37.020  11.048  10.410
23263W        W93863  31.621  23.488  10.738
23264W        W93864  25.976  24.387   3.798
23265W        W93865  10.176  23.351   3.025
23266W        W93866   2.072  33.153   1.904
23267W        W93867  29.168  30.420   0.261
23268W        W93868  33.650  41.126   2.309
23269W        W93869  33.891  19.073   2.826
23270W        W93870  44.314  30.163   4.055
23271W        W93871  12.592  14.682  14.041
23272W        W93872  43.674  22.695   3.339
23273W        W93873  35.387  35.637   3.572
23274W        W93874   5.361  32.919  12.135
23275W        W93875  17.318  25.220  11.044
23276W        W93876   7.269   8.264  12.870
23277W        W93877  40.376  23.369  11.599
23278W        W93878   6.024   4.439  10.559
23279W        W93879  17.339  23.513  12.593
23280W        W93880  20.005  21.125   4.898
23281W        W93881  36.582  37.992   3.671
23282W        W93882  41.819  44.699  14.350
23283W        W93883  22.154   1.170   1.676
23284W        W93884  34.425  25.047  14.029
23285W        W93885  19.994  32.453   1.833
23286W        W93886  38.794  30.555  11.156
23287W        W93887  44.792  43.723  11.652
23288W        W93888  25.090  36.666   3.400
23289W        W93889   7.722   6.127  12.123
23290W        W93890  13.173  35.174  13.829
23291W        W93891  29.900  11.675   2.308
23292W        W93892  14.596  44.863  12.550
23293W        W93893  34.403  22.242   3.100
23294W        W93894  40.328  38.289  14.348
23295W        W93895  18.772  16.203  14.387
23296W        W93896  13.791  34.918   1.747
23297W        W93897   0.496   8.073   1.832
23298W        W93898   5.295  18.113   0.428
23299W        W93899   9.307  44.032  10.463
23300W        W93900   3.767   1.830  13.113
23301W        W93901  42.926  21.071   4.483
23302W        W93902  20.611  21.146   1.755
23303W        W93903  18.813  24.137  11.155
23304W        W93904  21.493  39.954  12.049
23305W        W93905  41.995   2.690   2.892
23306W        W93906  22.508  25.409   0.931
23307W        W93907  25.569   0.343  12.359
23308W        W93908  29.788   3.462  10.183
23309W        W93909   2.860  17.209   2.340
23310W        W93910  14.724  20.728   0.812
23311W        W93911  24.130  38.602   4.008
23312W        W93912  33.171  28.849  12.083
23313W        W93913   3.966  30.505  10.730
23314W        W93914  26.982  11.833  11.150
23315W        W93915  39.842   7.611  10.928
23316W        W93916   2.598  41.496   2.783
23317W        W93917  25.246   4.798   3.763
23318W        W93918   7.701  44.097  12.501
23319W        W93919  25.422  36.502   1.793
23320W        W93920  38.961  20.276   3.597
23321W        W93921  40.337   0.258   3.339
23322W        W93922  44.878  23.435  11.049
23323W        W93923  12.771  27.253  13.523
23324W        W93924   3.415  33.991   0.370
23325W        W93925  21.658   2.872   0.450
23326W        W93926  32.153  20.973   3.624
23327W        W93927  31.877   8.426   2.209
23328W        W93928   9.528   5.180  12.617
23329W        W93929  29.190  16.485   3.179
23330W        W93930  43.579  21.349   3.167
23331W        W93931   8.644  25.736   2.633
23332W        W93932  21.290  35.874   2.184
23333W        W93933  32.894  30.591   4.979
23334W        W93934  24.541  35.864  12.131
23335W        W93935  20.038  11.080   0.052
23336W        W93936  34.984  12.384   3.137
23337W        W93937   5.513  30.946   1.803
23338W        W93938   8.716  22.784   4.634
23339W        W93939  29.050  41.255  13.364
23340W        W93940  40.029  16.114  12.394
23341W        W93941  31.196  40.488   0.596
23342W        W93942  44.982   2.151  13.756
23343W        W93943   5.632  15.271   0.694
23344W        W93944   6.533   3.787   0.431
23345W        W93945  22.710  25.256   2.287
23346W        W93946  23.675  39.398   1.903
23347W        W93947   8.458  20.270   3.161
23348W        W93948  38.338  36.614   0.698
23349W        W93949  23.783  39.945  10.979
23350W        W93950   2.794  13.478   3.111
23351W        W93951  15.266  18.781  12.946
23352W        W93952  31.413  38.931   2.223
23353W        W93953  18.105  33.077   4.854
23354W        W93954  14.645  17.535   4.058
23355W        W93955  44.785  42.018   4.898
23356W        W93956   8.248   8.687   4.461
23357W        W93957  44.554  26.977  11.117
23358W        W93958   3.802   6.437   3.950
23359W        W93959  13.466  32.869   0.494
23360W        W93960  28.056  16.314  13.411
23361W        W93961  10.457  12.832   2.652
23362W        W93962   7.797  27.181  12.859
23363W        W93963   5.795   4.400   4.101
23364W        W93964   3.872  44.488   1.141
23365W        W93965  18.814   9.224  10.725
23366W        W93966  19.257  24.983   0.325
23367W        W93967   2.671  15.036  13.605
23368W        W93968  29.989  30.342   1.731
23369W        W93969   1.708  31.512   2.354
23370W        W93970  19.746  21.707   0.519
23371W        W93971   5.890   5.834   4.095
23372W        W93972  13.811  10.375   3.229
23373W        W93973   5.004  35.668   3.645
23374W        W93974  10.212   3.494  12.870
23375W        W93975  32.923   2.894  12.412
23376W        W93976  28.667  26.024  12.434
23377W        W93977  44.148   0.931  11.504
23378W        W93978  25.632  16.268   2.925
23379W        W93979   7.219   6.300   0.311
23380W        W93980   0.347  13.210  13.403
23381W        W93981  24.032  44.298   2.405
23382W        W93982   1.395   3.904  10.615
23383W        W93983  36.634  13.209  11.184
23384W        W93984  31.449  44.717   2.053
23385W        W93985  27.505   9.353  13.501
23386W        W93986  39.994  39.469   3.443
23387W        W93987  36.770  43.531  12.042
23388W        W93988  23.005  38.899  14.922
23389W        W93989  42.475  42.294   3.624
23390W        W93990   9.727  18.546  12.532
23391W        W93991  29.745  39.916  12.013
23392W        W93992  36.143  24.747   2.107
23393W        W93993   6.694  44.495   4.379
23394W        W93994  38.367  30.630   3.740
23395W        W93995   3.416  19.661  11.726
23396W        W93996  40.786  14.373  13.548
23397W        W93997   4.430  10.315   4.815
23398W        W93998  23.780  36.053   3.585
23399W        W93999  40.477  31.105   1.233
23400W        W94000   6.321  42.021  13.526
23401W        W94001  19.599   8.031  13.090
23402W        W94002  10.744  44.961   3.697
23403W        W94003  29.939   4.937  12.637
23404W        W94004  21.674   3.333  13.798
23405W        W94005  29.735   7.290   4.251
23406W        W94006  44.637  22.172   3.751
23407W        W94007  17.043   6.768  13.418
23408W        W94008   2.326  19.181  13.352
23409W        W94009  26.633  20.063   0.768
23410W        W94010  17.008  11.730   3.674
23411W        W94011   2.722  20.507  13.993
23412W        W94012  35.972  10.286  10.503
23413W        W94013   4.066  25.062   4.074
23414W        W94014  32.315  33.353   4.552
23415W        W94015  32.998   2.279   1.486
23416W        W94016   6.109  24.462   3.742
23417W        W94017   9.457  18.466   4.609
23418W        W94018  21.161  17.770   4.969
23419W        W94019  11.455  34.815   0.428
23420W        W94020   5.142   5.818   0.974
23421W        W94021  22.359  28.652   9.931
23422W        W94022  22.636   1.021   1.043
23423W        W94023  24.514  10.713  13.074
23424W        W94024  18.481  23.630   0.709
23425W        W94025  15.706  10.090  13.282
23426W        W94026  12.723  10.903   3.453
23427W        W94027  22.186  31.592  11.124
23428W        W94028  15.799  42.437  12.330
23429W        W94029  33.505  44.267  12.497
23430W        W94030   6.931  24.627   3.102
23431W        W94031  19.622   4.020   4.552
23432W        W94032  17.347  42.663   2.697
23433W        W94033  25.898  39.309  11.305
23434W        W94034   6.712  40.624  14.487
23435W        W94035   8.277  43.807  13.491
23436W        W94036  10.663  25.762   3.316
23437W        W94037   6.301   3.570   2.687
23438W        W94038  28.958   5.894   1.700
23439W        W94039  17.661  33.479  12.026
23440W        W94040   0.472  25.161  11.784
23441W        W94041  12.489  29.528   3.930
23442W        W94042  39.630   9.892  11.634
23443W        W94043  15.708  19.289  14.368
23444W        W94044  37.995  38.509   4.150
23445W        W94045  41.484  39.159   0.321
23446W        W94046  11.878  13.803  11.118
23447W        W94047  30.637  40.562   0.866
23448W        W94048   0.268  18.075   1.244
23449W        W94049  28.905   0.397  11.840
23450W        W94050  29.552   3.491  12.537
23451W        W94051  13.354  44.697   3.044
23452W        W94052  13.307  17.001   3.854
23453W        W94053   0.520  19.035  11.134
23454W        W94054  17.072  36.755   1.690
23455W        W94055   5.779  25.834  10.804
23456W        W94056  31.695  31.527   1.816
23457W        W94057  30.386  33.886  11.545
23458W        W94058  35.957  16.800  14.260
23459W        W94059  27.555   6.992   2.898
23460W        W94060   1.499  25.920  14.791
23461W        W94061  11.256  25.019  11.588
23462W        W94062  25.104  14.284  12.212
23463W        W94063  10.781  30.464   1.408
23464W        W94064  29.046  41.961   4.596
23465W        W94065   1.493  15.064  10.672
23466W        W94066  29.824  36.427   0.305
23467W        W94067  22.457  23.725   3.094
23468W        W94068   7.423  43.703  12.820
23469W        W94069  25.482  28.987  12.529
23470W        W94070   8.099  11.091   3.711
23471W        W94071   3.310  32.692  13.608
23472W        W94072  33.990   8.131  12.419
23473W        W94073   4.439   9.199   1.429
23474W        W94074  19.769  23.547  12.482
23475W        W94075  41.622  43.964  13.706
23476W        W94076  23.487  17.068   3.438
23477W        W94077  44.738  10.596   0.822
23478W        W94078  11.855  28.129  10.563
23479W        W94079  34.862  41.285  13.523
23480W        W94080  29.684   2.148  14.007
23481W        W94081  11.433  13.637  12.412
23482W        W94082  25.619   5.570   1.163
23483W        W94083  19.435  11.939  11.644
23484W        W94084  34.040  40.601   4.608
23485W        W94085  40.127  17.220  12.786
23486W        W94086  24.298  37.294  14.447
23487W        W94087  20.039  23.658  14.359
23488W        W94088  25.915  10.702   4.150
23489W        W94089  26.057  40.269  12.644
23490W        W94090  43.581  42.215  11.219
23491W        W94091  22.451   3.933  10.498
23492W        W94092  40.618  36.051  13.683
23493W        W94093   5.178  41.902   2.979
23494W        W94094   9.858   5.570  12.586
23495W        W94095  31.137  28.627   0.230
23496W        W94096  16.367  40.370   4.200
23497W        W94097   3.274  18.524   1.272
23498W        W94098  39.757  15.661  14.106
23499W        W94099  18.656  39.927   1.795
23500W        W94100  27.829   9.959  11.137
23501W        W94101  44.544  17.496  11.070
23502W        W94102  21.128  15.050  14.187
23503W        W94103  32.653  41.834   4.631
23504W        W94104  39.319   9.743  10.760
23505W        W94105  16.009  18.421  12.313
23506W        W94106  40.512   1.986  13.888
23507W        W94107  13.055   8.613  13.976
23508W        W94108  13.474   9.266   1.722
23509W        W94109  43.057   6.156  11.626
23510W        W94110  23.793   7.268  12.963
23511W        W94111  17.216  35.303   1.799
23512W        W94112  26.307  35.004  13.899
23513W        W94113  41.323  21.213   4.689
23514W        W94114  23.952  29.141  11.519
23515W        W94115  10.768  26.747   1.231
23516W        W94116  10.229  43.501   3.621
23517W        W94117  17.784  34.081   1.575
23518W        W94118  32.185  33.569  11.896
23519W        W94119   3.693  40.980  12.175
23520W        W94120   7.261   7.469   1.679
23521W        W94121   1.039  27.658   1.313
23522W        W94122  19.720  44.875  13.350
23523W        W94123  40.752  12.760   4.925
23524W        W94124  39.592  16.921  13.802
23525W        W94125  22.345  16.257   0.349
23526W        W94126  32.979  39.664  12.782
23527W        W94127  27.950   0.787  10.787
23528W        W94128  17.701  15.384   4.152
23529W        W94129  11.717  10.093   0.799
23530W        W94130  34.744   7.954  14.339
23531W        W94131  41.258  12.989   2.608
23532W        W94132  26.177   6.371   4.355
23533W        W94133  17.103  20.171  11.896
23534W        W94134  10.143  26.267   1.789
23535W        W94135  42.811  15.624  13.986
23536W        W94136  38.184  40.561  11.098
23537W        W94137   8.353   2.343  13.065
23538W        W94138  34.627  18.906   3.295
23539W        W94139  44.498  18.365  13.903
23540W        W94140  36.894  25.074   3.226
23541W        W94141  27.720  25.588  11.037
23542W        W94142  18.612  38.639   4.160
23543W        W94143  41.574  29.984  10.773
23544W        W94144  39.529  33.528   4.551
23545W        W94145  12.452  34.508  14.360
23546W        W94146  36.809  30.519   1.214
23547W        W94147  31.139  11.859  11.247
23548W        W94148   9.100  35.078  12.511
23549W        W94149   9.408  34.222   1.818
23550W        W94150  24.451   3.427   2.032
23551W        W94151  44.033  26.195   1.863
23552W        W94152   9.135  38.354   0.668
23553W        W94153  41.898  42.934   3.664
23554W        W94154  40.825  40.376  11.678
23555W        W94155  14.365   6.798   1.898
23556W        W94156  12.796  13.166   2.720
23557W        W94157  37.610   8.721   2.009
23558W        W94158   0.173   0.278  14.448
23559W        W94159   7.133  30.176   2.726
23560W        W94160  26.350  25.405  10.490
23561W        W94161   3.260  32.653   0.048
23562W        W94162  43.740   2.732   2.707
23563W        W94163  23.923   6.638   3.313
23564W        W94164   3.676   9.698  13.038
23565W        W94165  15.398  32.959   1.535
23566W        W94166  10.943  35.087  11.084
23567W        W94167   8.201  15.313   1.298
23568W        W94168  33.964  28.680   1.534
23569W        W94169  16.658   0.966   0.490
23570W        W94170  19.604   8.804   4.506
23571W        W94171  36.664  35.116  12.996
23572W        W94172  35.782   6.179  13.079
23573W        W94173  26.973  30.039   1.283
23574W        W94174  18.131  40.346  11.879
23575W        W94175  23.052  27.599  13.795
23576W        W94176  15.254  19.638   2.544
23577W        W94177  33.877  13.133   2.852
23578W        W94178   2.847  37.288  11.123
23579W        W94179  44.110  15.222   4.306
23580W        W94180  28.755  33.562   4.553
23581W        W94181   7.118   4.907   2.835
23582W        W94182   0.868  20.798   1.266
23583W        W94183  23.174  13.322  13.901
23584W        W94184  17.537  12.730   3.929
23585W        W94185  18.122  19.670  11.558
23586W        W94186   8.670   6.789  14.712
23587W        W94187  28.112  41.719  10.828
23588W        W94188  14.672   2.194   3.397
23589W        W94189  40.836  10.019  12.035
23590W        W94190   3.809   7.397  11.042
23591W        W94191  17.054  42.194  11.304
23592W        W94192  31.898   9.073  10.792
23593W        W94193  11.856  31.877   5.109
23594W        W94194  14.014   5.438   3.463
23595W        W94195  18.560  21.274   0.767
23596W        W94196   9.858  26.182  11.404
23597W        W94197  21.254   3.415  12.834
23598W        W94198  28.964  14.578  13.771
23599W        W94199  22.739  31.106  13.446
23600W        W94200  30.636  40.370  13.109
23601W        W94201   3.285  38.584  12.578
23602W        W94202  15.560  33.461   2.819
23603W        W94203  33.479  12.218  10.652
23604W        W94204  20.229  25.682   2.156
23605W        W94205  33.353   4.979   2.313
23606W        W94206  41.833   6.107   1.401
23607W        W94207   2.617  27.091  11.285
23608W        W94208  38.451  20.718   4.158
23609W        W94209  12.113  14.925  14.361
23610W        W94210  37.992   0.597  13.283
23611W        W94211  28.131   5.293   5.020
23612W        W94212  35.595  21.201  14.004
23613W        W94213   1.945   9.626  14.013
23614W        W94214  22.099  26.014   1.471
23615W        W94215  24.142   6.300  14.389
23616W        W94216  35.242  40.803  14.268
23617W        W94217  10.360  24.151   5.326
23618W        W94218  42.036  15.252  14.841
23619W        W94219  10.264  16.274   4.860
23620W        W94220   5.197  14.868  11.975
23621W        W94221  37.421  18.403  12.571
23622W        W94222  11.231  18.032  13.740
23623W        W94223  13.406  17.289  12.160
23624W        W94224  10.877  17.078  13.866
23625W        W94225  14.629  14.762   3.175
23626W        W94226  26.764  37.526   1.720
23627W        W94227  41.261  40.109   0.566
23628W        W94228   9.667   7.820  13.959
23629W        W94229   8.171  35.573  13.551
23630W        W94230  27.085  31.515  11.013
23631W        W94231  15.318   2.191  13.556
23632W        W94232  37.433  12.121   1.239
23633W        W94233  12.772  38.633   0.195
23634W        W94234  35.667  20.442  14.415
23635W        W94235  26.149   8.916  12.522
23636W        W94236  38.087  17.176  10.574
23637W        W94237  29.014  26.226  13.932
23638W        W94238  18.281   5.387  12.966
23639W        W94239  19.203  12.694  13.109
23640W        W94240  39.202  29.651   2.742
23641W        W94241  39.012  34.917  11.824
23642W        W94242  44.553  34.582   0.993
23643W        W94243  24.912  13.799   1.002
23644W        W94244  38.264   5.926   1.181
23645W        W94245  29.516  38.114  14.853
23646W        W94246   5.461  37.001   4.239
23647W        W94247   3.729  19.002   2.854
23648W        W94248  26.502  34.423   2.714
23649W        W94249  21.504  34.867  13.088
23650W        W94250  33.949   3.850  11.865
23651W        W94251  37.434   1.951   1.307
23652W        W94252  19.137   1.144   1.313
23653W        W94253  38.020  40.052   2.713
23654W        W94254   0.907  32.331  14.294
23655W        W94255  37.320  28.226  14.889
23656W        W94256  16.612  28.996   1.861
23657W        W94257   5.248  17.499   2.141
23658W        W94258  44.747  14.686   4.254
23659W        W94259  12.946  15.762  11.585
23660W        W94260   0.484  37.074   4.551
23661W        W94261  39.104  19.546  13.970
23662W        W94262  42.882  42.021   3.770
23663W        W94263  43.039  17.299   2.156
23664W        W94264  20.738  39.488  12.079
23665W        W94265  37.290  21.884  13.890
23666W        W94266  42.363  19.031   1.364
23667W        W94267  24.146  19.277   2.684
23668W        W94268  36.630   5.691  10.565
23669W        W94269  31.384  43.306   4.129
23670W        W94270   2.185   0.744  11.541
23671W        W94271  25.905  43.442  14.169
23672W        W94272   6.703  44.014   0.028
23673W        W94273  28.888  13.109  10.705
23674W        W94274  44.573  12.742  14.415
23675W        W94275   5.413  13.793   0.935
23676W        W94276  13.262   4.669  12.080
23677W        W94277  44.713  39.307   4.527
23678W        W94278  18.099   9.850   1.340
23679W        W94279  15.681   9.190   4.530
23680W        W94280  38.874  20.021   4.576
23681W        W94281  33.499  23.696   9.974
23682W        W94282  34.540  33.929  12.131
23683W        W94283  42.400  43.473  14.395
23684W        W94284  13.675  16.480  12.699
23685W        W94285  22.627  21.136  10.770
23686W        W94286  24.567  34.901   2.345
23687W        W94287  27.476   7.656  14.569
23688W        W94288  35.262  38.665   4.762
23689W        W94289  39.440  22.473   0.653
23690W        W94290  23.964  16.511   2.274
23691W        W94291  38.547  29.847  14.422
23692W        W94292  28.905  36.160   4.478
23693W        W94293  34.495  40.228   0.991
23694W        W94294  27.555  16.308  10.710
23695W        W94295  40.919  43.791   2.106
23696W        W94296  12.974   3.731   2.743
23697W        W94297  37.554  26.016  12.953
23698W        W94298  16.093  22.190  11.361
23699W        W94299  26.523   3.801   4.756
23700W        W94300  35.491  26.262  10.993
23701W        W94301  34.946  23.444   3.754
23702W        W94302  19.829  37.101  13.769
23703W        W94303   2.419  13.098   0.746
23704W        W94304   6.697  29.992  13.429
23705W        W94305  39.385  21.735   4.238
23706W        W94306   9.080  31.496   2.606
23707W        W94307   6.447   9.913   2.872
23708W        W94308  30.987  11.864  14.880
23709W        W94309  18.605  36.165  11.190
23710W        W94310  42.868  12.833   1.339
23711W        W94311  15.588   7.316  13.468
23712W        W94312  35.088  24.071   0.205
23713W        W94313  21.692  21.022  13.859
23714W        W94314  36.124  33.796  11.151
23715W        W94315  11.143  24.968  13.339
23716W        W94316  40.788   5.288  12.048
23717W        W94317  35.501  35.893   2.211
23718W        W94318   9.608  37.092  14.844
23719W        W94319   4.265   1.999  13.516
23720W        W94320  19.052  21.441   0.693
23721W        W94321   0.947   1.783  12.559
23722W        W94322  38.277  37.441   2.332
23723W        W94323   9.047  27.998   4.461
23724W        W94324  33.968  21.684  11.810
23725W        W94325  36.990  20.464  11.616
23726W        W94326   5.816  25.468   1.297
23727W        W94327  21.994  11.015   0.984
23728W        W94328   1.767  40.947  12.505
23729W        W94329  19.589   6.813  11.609
23730W        W94330  30.428  27.322  13.388
23731W        W94331  20.645   8.797  12.980
23732W        W94332  10.654   7.305  13.797
23733W        W94333  16.583  19.238  13.173
23734W        W94334  44.627  23.244   2.394
23735W        W94335  14.966  25.664  12.581
23736W        W94336   3.328  43.008  14.421
23737W        W94337   4.748  12.424   1.633
23738W        W94338  44.482   7.151   0.307
23739W        W94339  10.489  27.508  13.486
23740W        W94340  43.197  43.536   2.798
23741W        W94341  26.043  29.890   1.474
23742W        W94342  16.553  17.200   0.949
23743W        W94343  34.378  27.193  11.068
23744W        W94344   4.840  22.302  13.271
23745W        W94345  18.324   5.669  14.270
23746W        W94346   0.835  35.893   1.410
23747W        W94347  40.496  33.893   3.358
23748W        W94348  27.192  37.174   0.865
23749W        W94349  10.778  19.973  12.120
23750W        W94350  23.989  10.381  12.416
23751W        W94351  20.724  23.973   0.357
23752W        W94352  30.911   2.928  10.397
23753W        W94353   7.216  11.730   4.087
23754W        W94354   3.938   6.551   0.116
23755W        W94355  15.898  12.358  14.581
23756W        W94356  22.309  10.771   0.648
23757W        W94357   1.046  29.596  14.267
23758W        W94358  25.287   3.335   1.706
23759W        W94359  25.699  33.452   0.782
23760W        W94360  24.827  12.187   0.559
23761W        W94361  16.317  44.282   2.386
23762W        W94362  12.283  35.861   3.936
23763W        W94363   9.085   1.285  11.633
23764W        W94364  32.904   0.294  10.614
23765W        W94365  26.282  16.588  12.951
23766W        W94366  27.271  33.491   1.403
23767W        W94367   8.034  35.214  10.635
23768W        W94368  42.023  10.772   3.213
23769W        W94369   2.039   7.278  13.454
23770W        W94370   2.457  33.869  13.976
23771W        W94371  22.848  42.708   5.500
23772W        W94372  15.787  16.163  14.424
23773W        W94373   7.394  27.743   1.405
23774W        W94374  23.355  41.847   0.483
23775W        W94375   8.347   4.406  13.509
23776W        W94376   4.546  22.545  11.303
23777W        W94377  13.189   2.617   3.248
23778W        W94378  10.846  13.363   3.241
23779W        W94379  11.141  14.016  12.605
23780W        W94380  36.715  15.605  11.213
23781W        W94381  33.086  25.012   3.182
23782W        W94382  19.890  38.271  12.929
23783W        W94383  36.959   6.489   1.628
23784W        W94384  22.103  27.589  13.391
23785W        W94385  27.037   6.780  11.635
23786W        W94386  25.620  21.475  12.297
23787W        W94387  43.016  39.366  12.858
23788W        W94388  28.581  10.045   4.578
23789W        W94389   1.678  34.139  13.419
23790W        W94390  32.067  21.597  13.497
23791W        W94391  33.636  16.997   2.546
23792W        W94392  10.947  24.301  12.989
23793W        W94393  20.676  29.835   4.586
23794W        W94394  39.782  22.457   2.696
23795W        W94395   2.255  41.593  14.971
23796W        W94396  41.956  26.637  13.888
23797W        W94397  26.085  42.981   0.842
23798W        W94398   2.433  42.397  10.708
23799W        W94399  14.320  21.973  13.564
23800W        W94400  13.092  25.310   2.799
23801W        W94401  25.695  19.000  13.100
23802W        W94402  37.847  16.313  13.540
23803W        W94403  12.716  18.556   3.397
23804W        W94404  37.558   2.646   4.402
23805W        W94405  23.324   1.982  12.085
23806W        W94406  28.622  23.841  12.918
23807W        W94407  14.288  29.004   4.716
23808W        W94408   3.688   7.725   4.848
23809W        W94409   8.405   2.663   2.588
23810W        W94410   1.396  26.140   4.485
23811W        W94411  38.427  15.932   2.423
23812W        W94412   0.976  23.096   4.190
23813W        W94413  28.287   5.319  14.235
23814W        W94414  14.767  44.038   5.405
23815W        W94415  30.107  28.571  13.554
23816W        W94416  22.152  11.665   4.108
23817W        W94417   9.033  26.767  14.670
23818W        W94418  38.016  16.268  14.054
23819W        W94419  24.023  37.735   1.276
23820W        W94420   9.394  38.576   3.511
23821W        W94421  29.442  43.335  11.717
23822W        W94422  28.556  15.200  13.296
23823W        W94423  13.178  38.580   1.351
23824W        W94424  23.553  36.458   4.584
23825W        W94425  38.370  22.547   4.194
23826W        W94426  30.840  37.341  11.925
23827W        W94427  35.649  36.360   0.414
23828W        W94428  31.000  21.741  13.527
23829W        W94429   6.934  40.805   1.929
23830W        W94430  13.137  28.174  13.122
23831W        W94431  35.468  24.894   4.385
23832W        W94432  13.335  41.831  13.835
23833W        W94433  28.501  40.962   3.619
23834W        W94434   4.266  19.459   5.012
23835W        W94435  18.602  17.729  12.055
23836W        W94436  18.163   2.460  11.918
23837W        W94437   1.443   4.381   4.407
23838W        W94438  42.278  35.026   4.058
23839W        W94439   4.908  25.526   1.298
23840W        W94440   3.335  32.715   3.154
23841W        W94441   4.374  44.521  13.492
23842W        W94442  33.012   0.975  13.477
23843W        W94443   2.792  41.347   1.670
23844W        W94444  12.074  17.705   0.711
23845W        W94445  37.476  24.443  11.703
23846W        W94446  36.362  44.511  13.104
23847W        W94447  39.450  38.568  14.300
23848W        W94448  15.741  40.734   2.702
23849W        W94449  34.865  16.161   0.363
23850W        W94450  10.115  42.598   1.414
23851W        W94451   7.348   3.925  11.615
23852W        W94452  41.965  20.334   1.198
23853W        W94453  34.164  14.440  13.074
23854W        W94454   1.342  19.572  14.917
23855W        W94455  13.043  41.806   1.663
23856W        W94456   0.670  27.964   5.176
23857W        W94457  26.649  31.001  11.125
23858W        W94458  22.317  10.565  14.014
23859W        W94459  17.234  44.780  10.694
23860W        W94460  19.625   3.281   1.979
23861W        W94461   3.276  38.050   3.775
23862W        W94462  24.585   4.405  12.538
23863W        W94463  14.593   3.747   3.791
23864W        W94464   1.482  28.574  14.319
23865W        W94465   5.201   6.846  12.744
23866W        W94466  11.371  23.657   0.213
23867W        W94467  30.078  44.851  10.642
23868W        W94468   2.874  17.724  14.858
23869W        W94469  33.693   5.795  11.388
23870W        W94470  10.756   4.590   0.501
23871W        W94471  29.193  16.214   0.707
23872W        W94472  19.701  25.137   4.748
23873W        W94473  44.821  35.465   4.718
23874W        W94474  32.658   1.485  11.573
23875W        W94475  41.137  41.192   2.090
23876W        W94476  30.528  21.697  10.662
23877W        W94477  13.293  36.576  14.812
23878W        W94478  25.091   5.844   2.333
23879W        W94479  19.438   4.498  14.532
23880W        W94480   4.727  34.018  13.725
23881W        W94481  39.300  34.931  14.648
23882W        W94482  30.449  29.189  10.729
23883W        W94483  20.736  33.994   0.722
23884W        W94484   0.296  40.445  12.710
23885W        W94485  12.711  18.360   4.705
23886W        W94486  43.561  38.000   2.365
23887W        W94487  44.841  22.508  11.131
23888W        W94488  24.816  35.276   1.919
23889W        W94489  44.330  40.122  13.070
23890W        W94490  21.895  30.227   1.824
23891W        W94491   1.267  11.730  12.811
23892W        W94492  22.149   7.762  14.942
23893W        W94493   1.745  38.299  11.517
23894W        W94494  39.373  31.548  12.505
23895W        W94495  25.575  41.419   2.340
23896W        W94496  30.836  32.529   2.858
23897W        W94497  32.956   1.010   4.195
23898W        W94498  17.736  30.402  11.505
23899W        W94499   6.384  44.868  13.809
23900W        W94500  22.674  12.763   0.120
23901W        W94501  32.971  26.912  13.242
23902W        W94502  44.249   3.510   0.479
23903W        W94503  39.492  10.525  11.136
23904W        W94504   7.721   1.547  11.112
23905W        W94505   0.722  36.580  12.313
23906W        W94506   8.741  22.056   0.484
23907W        W94507  32.932  41.267  14.336
23908W        W94508   2.545   3.966   1.890
23909W        W94509  10.529  35.396  13.537
23910W        W94510  25.414  32.493  13.179
23911W        W94511   7.417   9.358   4.577
23912W        W94512  20.641  15.236  11.092
23913W        W94513  39.309  15.163  12.490
23914W        W94514   4.850  14.151   2.658
23915W        W94515  15.339   5.264  11.574
23916W        W94516  34.903  41.273  14.296
23917W        W94517  26.091  16.888   4.977
23918W        W94518   0.325  10.016  13.341
23919W        W94519   2.303  39.545   4.055
23920W        W94520  18.542  44.452  12.642
23921W        W94521   9.398  42.702  11.591
23922W        W94522  29.924  40.606  14.980
23923W        W94523  27.113   5.167   1.477
23924W        W94524  27.050   4.135  14.481
23925W        W94525  40.282  32.532  10.666
23926W        W94526  26.011   7.620   3.837
23927W        W94527   8.861  17.214   3.223
23928W        W94528  27.399  11.013   4.591
23929W        W94529  24.647  30.111  14.703
23930W        W94530  26.008   6.163   0.736
23931W        W94531   4.776   5.634  11.568
23932W        W94532  43.314   7.108   0.575
23933W        W94533  13.160  39.113   0.743
23934W        W94534  38.536  14.441   4.273
23935W        W94535  17.569  23.072  11.151
23936W        W94536   2.276  20.712  12.710
23937W        W94537  20.141  35.572  11.118
23938W        W94538  21.392  37.146   0.344
23939W        W94539  19.176   9.109  13.942
23940W        W94540  36.520   4.371  14.546
23941W        W94541  14.527  42.620   4.596
23942W        W94542  38.843   5.189  11.546
23943W        W94543   2.962  40.960  13.471
23944W        W94544  29.554  25.387  10.739
23945W        W94545  36.971   8.749  14.237
23946W        W94546  37.936  24.110  13.891
23947W        W94547  37.213  37.800  11.179
23948W        W94548  16.769  29.434  13.733
23949W        W94549  27.280  36.426  11.179
23950W        W94550  18.771   8.727  11.499
23951W        W94551  13.846  42.195   1.880
23952W        W94552  17.617  41.513   3.793
23953W        W94553   9.146  29.092  14.931
23954W        W94554   5.915  36.932   4.683
23955W        W94555   3.903  42.806  10.686
23956W        W94556  27.603  39.765   1.860
23957W        W94557  24.976  43.312   3.621
23958W        W94558   3.940   8.505   4.596
23959W        W94559  27.682   9.829  10.635
23960W        W94560  21.145  24.090  14.520
23961W        W94561  42.565  22.544  12.909
23962W        W94562  31.983   4.858  11.766
23963W        W94563   9.138  15.324   2.110
23964W        W94564  28.219   4.524  12.304
23965W        W94565   5.654  20.921  14.960
23966W        W94566  19.222   0.482  12.556
23967W        W94567  39.480   3.033   2.782
23968W        W94568  29.896  15.725   0.262
23969W        W94569  23.777  43.242  13.778
23970W        W94570  41.702  33.021  10.721
23971W        W94571  18.332  31.836  11.263
23972W        W94572  15.457  28.089   5.115
23973W        W94573  29.148  23.702   2.536
23974W        W94574  14.883  18.689   1.106
23975W        W94575  16.208   8.205  10.721
23976W        W94576  24.545  38.351   3.190
23977W        W94577  29.547  17.071   2.483
23978W        W94578  11.167  18.302   3.220
23979W        W94579  25.957  38.841  10.588
23980W        W94580  39.610  11.494  11.421
23981W        W94581  33.162  14.602  10.641
23982W        W94582  23.702   2.276  13.083
23983W        W94583  30.159  29.420   1.793
23984W        W94584  44.947  37.412  13.272
23985W        W94585  30.963  33.760  11.042
23986W        W94586   5.828   5.214  13.582
23987W        W94587   3.810   5.874   4.214
23988W        W94588  38.644  26.852  11.369
23989W        W94589  38.879   3.943   0.596
23990W        W94590  36.173   9.001   0.868
23991W        W94591  35.642  21.723  13.409
23992W        W94592  34.720  36.273  11.119
23993W        W94593   7.181  10.402  14.434
23994W        W94594  43.247   6.146   4.200
23995W        W94595  33.905   0.963   1.700
23996W        W94596   4.173  32.844   4.254
23997W        W94597  33.037  22.150   0.317
23998W        W94598  22.314  43.407   1.056
23999W        W94599  37.342  35.356  11.192
24000W        W94600  22.287  23.589   0.374
24001W        W94601  38.463  36.778  14.322
24002W        W94602  20.560  39.989  14.678
24003W        W94603  27.977   8.196  11.177
24004W        W94604   8.663  44.386  12.967
24005W        W94605  24.028  21.803   1.389
24006W        W94606  22.246  14.142  13.046
24007W        W94607  23.802  35.085  14.830
24008W        W94608  44.992  26.100   4.695
24009W        W94609  32.872  33.060   2.703
24010W        W94610  12.526  17.367   1.441
24011W        W94611  26.276  12.257   3.206
24012W        W94612  44.419  37.701  14.931
24013W        W94613  30.218  24.613   4.042
24014W        W94614  13.829   1.115  12.923
24015W        W94615   1.435   7.092   2.305
24016W        W94616  21.241  17.685  14.540
24017W        W94617  21.039  19.142  11.059
24018W        W94618  15.775  40.309   4.031
24019W        W94619   4.467  21.619  10.603
24020W        W94620  37.352  27.716   3.304
24021W        W94621  44.427  23.058   3.559
24022W        W94622  12.815  29.097   3.931
24023W        W94623  32.854  25.453  12.430
24024W        W94624  26.525  39.841  11.254
24025W        W94625  13.168  17.218   0.206
24026W        W94626  43.786   1.957  10.872
24027W        W94627  10.119  31.032   2.758
24028W        W94628  10.679  22.966   4.619
24029W        W94629  27.649  29.645  10.938
24030W        W94630   5.941  43.388   2.563
24031W        W94631  44.136  24.841  13.351
24032W        W94632   2.750  10.121  14.501
24033W        W94633  24.027  39.932   0.845
24034W        W94634  23.089   7.230   3.338
24035W        W94635  17.937  38.104   0.517
24036W        W94636  20.665  16.471   4.642
24037W        W94637  20.882  23.522  11.582
24038W        W94638   4.255  19.720   2.982
24039W        W94639  19.487   0.204   2.244
24040W        W94640  41.034  16.967   5.003
24041W        W94641  18.032  20.053   3.887
24042W        W94642  37.805  23.425  10.558
24043W        W94643  19.740   7.115   2.214
24044W        W94644  14.154  42.195  14.430
24045W        W94645  41.756  15.535   1.854
24046W        W94646  25.729  27.922  10.088
24047W        W94647  39.936  24.150  11.939
24048W        W94648  28.684  32.710  12.945
24049W        W94649   8.928  11.309  12.723
24050W        W94650  38.626  44.476  12.009
24051W        W94651  31.546  41.089   2.662
24052W        W94652  18.065  38.929   0.781
24053W        W94653  18.959  43.785   2.279
24054W        W94654  33.406  38.023  12.387
24055W        W94655  29.479  40.959  13.508
24056W        W94656  17.168   1.366   0.778
24057W        W94657  39.712  21.129  13.969
24058W        W94658  35.803  38.533   2.730
24059W        W94659  34.390  42.324   2.735
24060W        W94660   2.663  43.787  12.440
24061W        W94661  17.222  17.749  12.447
24062W        W94662  37.979  13.100  12.983
24063W        W94663  11.482  25.360   1.777
24064W        W94664  11.166   9.314   1.816
24065W        W94665  38.597  16.766  13.982
24066W        W94666  21.210   0.844   2.952
24067W        W94667  29.998  43.759   4.057
24068W        W94668  35.002  25.514  11.414
24069W        W94669   5.651   2.510   4.942
24070W        W94670  15.529   0.859  10.826
24071W        W94671  11.871  11.767   3.117
24072W        W94672  18.762  31.441   3.385
24073W        W94673  29.188   2.868  14.043
24074W        W94674  35.603  34.634   3.727
24075W        W94675  32.872  42.320  14.355
24076W        W94676  31.000  35.549   0.765
24077W        W94677   0.927   5.927   1.472
24078W        W94678  20.245   0.317   3.739
24079W        W94679   6.154  23.779  12.194
24080W        W94680   4.727  22.573   0.291
24081W        W94681  16.094   6.765   2.909
24082W        W94682  39.009   4.941   1.798
24083W        W94683  34.433   9.017  12.977
24084W        W94684  31.082  39.862   2.744
24085W        W94685  26.686  39.439  13.329
24086W        W94686   6.897  40.323   1.706
24087W        W94687  42.699  26.696  11.231
24088W        W94688  44.047   9.856   0.786
24089W        W94689  11.086  39.797  14.340
24090W        W94690   1.727  34.811  10.344
24091W        W94691   1.091   8.377  11.475
24092W        W94692  37.098  40.051  10.475
24093W        W94693  33.947  26.208  14.698
24094W        W94694  27.224  22.698  11.525
24095W        W94695  15.607  36.584   1.712
24096W        W94696  43.881  24.574  10.775
24097W        W94697  12.897   8.653   0.370
24098W        W94698   7.030  16.024  14.462
24099W        W94699   1.667  32.125   1.259
24100W        W94700  14.035  16.725  14.396
24101W        W94701   0.674  12.390   4.685
24102W        W94702  36.818  31.348   1.045
24103W        W94703   3.321  38.510   2.340
24104W        W94704   5.392  20.409   3.168
24105W        W94705  43.347   4.314   1.346
24106W        W94706  27.419  25.080  14.826
24107W        W94707   5.975   9.603  14.286
24108W        W94708  33.492  25.548  14.341
24109W        W94709  20.835  13.228   4.164
24110W        W94710  31.299  18.301  12.057
24111W        W94711   9.197  30.362  13.176
24112W        W94712  34.847   4.936  14.814
24113W        W94713  12.689  39.333   1.249
24114W        W94714  29.971  24.467   1.101
24115W        W94715   9.356  16.285   1.165
24116W        W94716  13.710  13.557   0.750
24117W        W94717  22.074  25.670  10.994
24118W        W94718  23.530  44.182   1.763
24119W        W94719   1.851  25.703  14.455
24120W        W94720  25.511  34.864   1.197
24121W        W94721  35.814  33.546  13.376
24122W        W94722  24.271  33.202  11.116
24123W        W94723   6.711  31.100  11.396
24124W        W94724  38.846  23.524   1.108
24125W        W94725  35.853  10.694  13.441
24126W        W94726  20.371  37.515  11.987
24127W        W94727   9.755   1.665   3.715
24128W        W94728  14.261  39.279  14.496
24129W        W94729  42.207  26.708  14.353
24130W        W94730  11.618  15.348   3.694
24131W        W94731  23.782  27.434  11.704
24132W        W94732   7.212  42.282   3.601
24133W        W94733  13.365   0.875   3.692
24134W        W94734  28.760   4.907  14.361
24135W        W94735  36.067  17.121   3.165
24136W        W94736   4.266  40.681  13.817
24137W        W94737  31.893  24.639   1.928
24138W        W94738  24.294  38.939  14.889
24139W        W94739   0.473  38.136   2.990
24140W        W94740  38.189   3.687  11.086
24141W        W94741  24.802  13.095  14.949
24142W        W94742  33.768  43.911  13.757
24143W        W94743  11.139  13.207  12.376
24144W        W94744  35.103  11.674  13.982
24145W        W94745  25.689  12.273   2.021
24146W        W94746   4.933   9.252  10.646
24147W        W94747  20.872   1.301   2.215
24148W        W94748  12.700  17.289  11.617
24149W        W94749  23.048   3.383  13.475
24150W        W94750  21.353  19.565  14.779
24151W        W94751  27.610  39.663   5.014
24152W        W94752  19.858  10.816  12.868
24153W        W94753  14.839  20.656   4.392
24154W        W94754  44.386   5.709  11.383
24155W        W94755  32.623  31.125   3.752
24156W        W94756  26.365  12.777  11.543
24157W        W94757   1.575  34.648  13.329
24158W        W94758  41.827   2.385   1.764
24159W        W94759  29.156  40.077   2.832
24160W        W94760  33.187  28.646   1.693
24161W        W94761  36.393  37.526   3.817
24162W        W94762  18.327  30.180   0.342
24163W        W94763   8.315  20.416   0.615
24164W        W94764  12.372  26.286  11.622
24165W        W94765   3.333  44.362   3.304
24166W        W94766   5.848  14.545  13.767
24167W        W94767  36.983  34.456   3.412
24168W        W94768  41.853  16.957  12.483
24169W        W94769  38.630  13.233   1.389
24170W        W94770   3.924   1.415  10.486
24171W        W94771   5.119  10.272   2.833
24172W        W94772  27.393  20.546   3.293
24173W        W94773  28.884   0.953  13.554
24174W        W94774   2.462  29.525  12.882
24175W        W94775   8.139  31.157   4.356
24176W        W94776  25.714  32.455  10.479
24177W        W94777   3.724  26.077   4.566
24178W        W94778   4.169  24.577   2.375
24179W        W94779   9.641  14.347   2.757
24180W        W94780   2.746  18.162   3.702
24181W        W94781  33.237  28.920   3.764
24182W        W94782  30.599  34.626   0.057
24183W        W94783  18.149  24.738  10.636
24184W        W94784  28.158  33.937   4.623
24185W        W94785  35.612  28.564   4.600
24186W        W94786   9.109   7.081  14.495
24187W        W94787  12.249  37.371   3.596
24188W        W94788  35.439  24.101   2.261
24189W        W94789  39.994  34.713  14.224
24190W        W94790   6.413  11.306  14.303
24191W        W94791  36.744  40.775   4.432
24192W        W94792  28.937   1.427   3.466
24193W        W94793  38.682  30.939   0.241
24194W        W94794  32.522   8.376  11.603
24195W        W94795  35.517  27.755   4.161
24196W        W94796  25.095  27.600   0.809
24197W        W94797  43.438  34.298  12.738
24198W        W94798  17.941  27.856  13.416
24199W        W94799  22.191   5.906  10.271
24200W        W94800  10.936   9.235   3.689
24201W        W94801   3.230  44.908   4.845
24202W        W94802  42.463  38.094   0.911
24203W        W94803   2.280  31.559   0.159
24204W        W94804  15.086  15.683  13.073
24205W        W94805  39.224   2.492  11.135
24206W        W94806  21.959   6.274   3.635
24207W        W94807  28.505  17.190  14.339
24208W        W94808  28.163  40.306   3.339
24209W        W94809  39.915   4.180  14.458
24210W        W94810  12.823  40.378  12.167
24211W        W94811  35.243  30.710   0.434
24212W        W94812  23.098   5.282   1.470
24213W        W94813  32.055  24.073  14.842
24214W        W94814  37.379  19.144  10.967
24215W        W94815  44.728   1.775   0.004
24216W        W94816   2.835   7.728  14.282
24217W        W94817  42.837  32.115   3.180
24218W        W94818   7.294  22.318   3.654
24219W        W94819   1.405  41.268   2.229
24220W        W94820  34.731  13.463  11.116
24221W        W94821   1.269  42.038  12.131
24222W        W94822  25.993   6.037  10.595
24223W        W94823  22.952  11.239  12.512
24224W        W94824  20.313  16.608  12.079
24225W        W94825  29.958  35.044   1.329
24226W        W94826  41.953  18.033  14.814
24227W        W94827  28.396  13.338   4.210
24228W        W94828   3.533  13.269   2.869
24229W        W94829  40.905   7.936   5.069
24230W        W94830  37.154  36.326  10.716
24231W        W94831  42.941  22.987  14.381
24232W        W94832  10.879  13.638  14.545
24233W        W94833  34.853  23.808  14.283
24234W        W94834  30.473  22.576   4.169
24235W        W94835  21.160   1.780   3.440
24236W        W94836  21.682   2.687  14.965
24237W        W94837  17.018   5.280  11.568
24238W        W94838  28.441  15.704  10.694
24239W        W94839  37.375  34.554  13.595
24240W        W94840  29.530   0.843   2.303
24241W        W94841  35.087  30.077  10.868
24242W        W94842  29.394  38.973   4.332
24243W        W94843  12.790  34.612  11.388
24244W        W94844  44.831  30.019   2.857
24245W        W94845  43.026  41.821  14.956
24246W        W94846   3.880  38.180  11.047
24247W        W94847   1.358  32.388  11.250
24248W        W94848   3.238  38.284   2.817
24249W        W94849  20.728  43.603  10.450
24250W        W94850  36.499  33.048   3.795
24251W        W94851  37.435  42.494   4.698
24252W        W94852   9.755  13.121   0.428
24253W        W94853  31.004  24.447   2.966
24254W        W94854  34.443  40.716  14.807
24255W        W94855  44.802  12.851   0.741
24256W        W94856  26.153  41.884   3.171
24257W        W94857  42.357  20.696   2.738
24258W        W94858  22.692   0.382  14.315
24259W        W94859  30.397  13.711  13.555
24260W        W94860  29.927  21.910  13.452
24261W        W94861  33.306  34.938   3.495
24262W        W94862  37.462  40.990  14.839
24263W        W94863  27.149   2.604   3.310
24264W        W94864  26.914   2.669   0.978
24265W        W94865  44.239   9.405   3.748
24266W        W94866  39.476   1.048  13.726
24267W        W94867  30.876   8.208   0.442
24268W        W94868  26.679  39.294   4.635
24269W        W94869  20.050  27.521   4.956
24270W        W94870  39.978   6.456   0.856
24271W        W94871   8.926  39.291  12.207
24272W        W94872  35.771  26.675   1.281
24273W        W94873  35.692   8.707   4.153
24274W        W94874  10.554  35.207  11.424
24275W        W94875  42.933  25.169   3.204
24276W        W94876  27.365  27.992   1.162
24277W        W94877  14.028   0.804  11.371
24278W        W94878  12.736  12.770   0.513
24279W        W94879  37.081  44.007  13.406
24280W        W94880  38.399   8.975  12.508
24281W        W94881  25.552  15.028  12.499
24282W        W94882  36.995   3.468   3.642
24283W        W94883  44.728  27.967   0.259
24284W        W94884  23.492  31.937  12.867
24285W        W94885   9.721  34.516   3.855
24286W        W94886  37.633  39.225  13.322
24287W        W94887  27.718  27.515   1.996
24288W        W94888  42.114   8.119  12.965
24289W        W94889  35.967  22.040   1.449
24290W        W94890  10.406  14.224   0.521
24291W        W94891   1.551  18.568   2.499
24292W        W94892  21.028  24.906   4.060
24293W        W94893  41.907  21.171  12.578
24294W        W94894  21.903   0.031  13.809
24295W        W94895  14.080  18.093  11.225
24296W        W94896   3.730  20.551   4.351
24297W        W94897   3.969  12.879  13.650
24298W        W94898  29.575  23.872   3.739
24299W        W94899  33.475  29.523  11.203
24300W        W94900   7.949  27.187   1.889
24301W        W94901   2.082  37.506  12.085
24302W        W94902   0.422   3.533   2.434
24303W        W94903  34.470  31.315  14.940
24304W        W94904  15.194   9.118   2.386
24305W        W94905  33.851  29.643   1.982
24306W        W94906   2.078  31.533   4.168
24307W        W94907   3.285   7.809   4.061
24308W        W94908   8.847   5.911  10.839
24309W        W94909  21.146   2.490   1.821
24310W        W94910   6.883  13.376  14.430
24311W        W94911   6.271  37.165   1.154
24312W        W94912   7.931  24.200  13.950
24313W        W94913  42.260   8.194   9.632
24314W        W94914  28.738  36.913   2.428
24315W        W94915  31.676  32.392  11.131
24316W        W94916  36.584  39.795   3.156
24317W        W94917  18.595   7.352   0.639
24318W        W94918  41.567  27.461  11.089
24319W        W94919   8.125  24.897  11.234
24320W        W94920  20.791  34.505  11.703
24321W        W94921  28.415  19.623  13.343
24322W        W94922  31.353  30.730   2.774
24323W        W94923   8.587  39.095   3.477
24324W        W94924  41.421  33.892  14.879
24325W        W94925  12.719  34.116  12.076
24326W        W94926  25.264  40.002  14.896
24327W        W94927  19.749   3.861  11.874
24328W        W94928  10.721  33.382   3.311
24329W        W94929  43.049  25.734  14.210
24330W        W94930  32.303  42.908   3.154
24331W        W94931  35.522  20.545  11.513
24332W        W94932   6.722  41.961  14.114
24333W        W94933  16.303  25.809   3.268
24334W        W94934   7.601  30.900  14.999
24335W        W94935  23.981  10.762   3.894
24336W        W94936   1.543  39.440  10.852
24337W        W94937  15.675  23.364   1.717
24338W        W94938  21.739  30.585  11.172
24339W        W94939  27.663  39.641   0.952
24340W        W94940   7.801   3.443  12.833
24341W        W94941  40.269  42.045   2.776
24342W        W94942  10.692   8.922   0.760
24343W        W94943  27.577  43.930  14.594
24344W        W94944  22.630  31.490   1.428
24345W        W94945   6.870  25.279  11.578
24346W        W94946  29.946  10.017   4.665
24347W        W94947  10.634  18.654   0.820
24348W        W94948   4.284  11.164   1.747
24349W        W94949  10.244  34.862   5.014
24350W        W94950  28.560  38.829  11.006
24351W        W94951  33.368  25.356   1.302
24352W        W94952  30.510  26.711   2.766
24353W        W94953  11.845   5.352   0.977
24354W        W94954  33.303  27.955   3.753
24355W        W94955  24.170   2.762   3.636
24356W        W94956  18.227   9.726  10.633
24357W        W94957  11.186   5.210  11.505
24358W        W94958   7.795   1.066   2.458
24359W        W94959  27.571   3.030  14.934
24360W        W94960  30.681  29.172   2.437
24361W        W94961   3.995  16.729  13.438
24362W        W94962   9.210  36.316  11.708
24363W        W94963  28.117  21.374  14.433
24364W        W94964  30.003  29.261   1.310
24365W        W94965   0.873  17.481   4.841
24366W        W94966  16.810  31.191  12.555
24367W        W94967   0.356  28.711   0.370
24368W        W94968  10.395   6.278  11.507
24369W        W94969   9.255  15.581   2.846
24370W        W94970  23.115  20.435  12.949
24371W        W94971  31.096  14.159   0.441
24372W        W94972  10.663   3.749  12.969
24373W        W94973  34.391  10.233   3.695
24374W        W94974  15.729  18.835   0.046
24375W        W94975  43.400  27.079   2.107
24376W        W94976  40.660  29.675   4.857
24377W        W94977  37.917  12.605   0.230
24378W        W94978  31.511  16.442  12.583
24379W        W94979  28.543  18.443  14.382
24380W        W94980   3.672   9.445   4.667
24381W        W94981  16.193  19.882   4.506
24382W        W94982   3.181   8.419   0.970
24383W        W94983  31.535  11.903  10.730
24384W        W94984   8.266  22.156   3.598
24385W        W94985  38.103  19.769  13.771
24386W        W94986   7.163  25.882  12.008
24387W        W94987  14.575  31.087   1.918
24388W        W94988   3.465  26.045  13.582
24389W        W94989   1.481  36.480   0.334
24390W        W94990   7.463   9.779  12.007
24391W        W94991  16.438   9.286  12.910
24392W        W94992  33.837  27.728  11.573
24393W        W94993   6.376  11.347  12.860
24394W        W94994   5.645  25.060   2.250
24395W        W94995  10.873   3.163   2.872
24396W        W94996   5.720  44.282   0.804
24397W        W94997  22.192  18.700  14.162
24398W        W94998  34.815  34.541   0.544
24399W        W94999  11.259   5.608  14.892
24400W        W95000  12.421  34.813  12.598
24401W        W95001  39.080  10.157  12.972
24402W        W95002   9.709  18.190  12.911
24403W        W95003  23.035  17.760   2.965
24404W        W95004  40.526   7.751  12.963
24405W        W95005  37.849   6.896   3.180
24406W        W95006  44.285  29.114   1.826
24407W        W95007  18.595  11.265  14.436
24408W        W95008  22.117  42.399  11.713
24409W        W95009   0.555  16.776   3.981
24410W        W95010  24.142   2.336   0.213
24411W        W95011   9.815  44.964  13.951
24412W        W95012  29.899  24.095  10.671
24413W        W95013  28.253  24.884  13.532
24414W        W95014  29.126  36.500  14.038
24415W        W95015   8.799   5.319   3.201
24416W        W95016  38.937  29.217   2.925
24417W        W95017  27.543  16.086  13.597
24418W        W95018  22.721  20.675   9.981
24419W        W95019  22.074  39.236   2.340
24420W        W95020  33.631   4.798   5.057
24421W        W95021  22.039  10.185   5.040
24422W        W95022   0.925   9.750   4.392
24423W        W95023  23.199  34.713  13.866
24424W        W95024   5.438  36.592  13.310
24425W        W95025  39.466   7.609   1.726
24426W        W95026  19.665  44.916  11.937
24427W        W95027  38.324   2.845  13.890
24428W        W95028  15.938   9.221  11.857
24429W        W95029  31.649  29.465   3.924
24430W        W95030   8.648  10.772   0.317
24431W        W95031  29.621  23.698   1.198
24432W        W95032   0.204   6.811  11.134
24433W        W95033   4.235  24.085  11.828
24434W        W95034   5.628  20.532  11.962
24435W        W95035  18.978   9.231  14.786
24436W        W95036  14.798  30.294   4.698
24437W        W95037  42.399  31.604   2.326
24438W        W95038  40.100  40.738  11.964
24439W        W95039   6.823   4.727  13.538
24440W        W95040  11.748   5.477  13.024
24441W        W95041  38.916  16.032   0.827
24442W        W95042   0.188  13.425  11.218
24443W        W95043   7.727  17.609   1.484
24444W        W95044  12.894  14.113   3.886
24445W        W95045  29.946  11.125   1.379
24446W        W95046  37.106  34.560  11.223
24447W        W95047  24.484  15.023   1.413
24448W        W95048  38.858  25.619   2.338
24449W        W95049  43.510  17.323   3.254
24450W        W95050  23.582  41.982  13.491
24451W        W95051  15.257  39.409   1.794
24452W        W95052   7.336  29.448  13.026
24453W        W95053  16.384   7.979   2.179
24454W        W95054  10.795  12.195   4.648
24455W        W95055  12.715  40.360  10.875
24456W        W95056  38.806  17.005   2.670
24457W        W95057  11.168  17.352   3.564
24458W        W95058  26.939  39.958   1.340
24459W        W95059   7.886   3.830   2.360
24460W        W95060   6.764  42.290   3.298
24461W        W95061  44.250  13.392   4.811
24462W        W95062  33.135  16.197  12.614
24463W        W95063  40.283  10.312  13.988
24464W        W95064  33.962  41.843   4.427
24465W        W95065  15.704   5.119  14.927
24466W        W95066   0.867   9.525  11.137
24467W        W95067  44.800  11.136  14.358
24468W        W95068  44.195  34.396   4.290
24469W        W95069   1.571  10.822   3.110
24470W        W95070   0.333  41.040   1.467
24471W        W95071   6.234   1.410   0.987
24472W        W95072  13.555  27.468  12.162
24473W        W95073   0.857  11.901  10.724
24474W        W95074   0.792  22.458   0.692
24475W        W95075  29.568  18.790  14.970
24476W        W95076  23.997  23.165   2.350
24477W        W95077  16.071  21.591   3.782
24478W        W95078  25.004  13.333   1.760
24479W        W95079   1.781  25.016  12.105
24480W        W95080  20.077  42.321   3.845
24481W        W95081  32.426  38.307  12.977
24482W        W95082   7.195  19.018   0.430
24483W        W95083   8.579   5.117   4.159
24484W        W95084   2.616  34.579  13.411
24485W        W95085  22.981  36.309   0.455
24486W        W95086  20.254  38.442   5.082
24487W        W95087  41.838  27.918  12.013
24488W        W95088  23.994   7.447  13.404
24489W        W95089  34.865  22.684   0.217
24490W        W95090  17.700  23.567   2.721
24491W        W95091  18.236  36.233   2.342
24492W        W95092   7.636   9.391  10.694
24493W        W95093   9.179   2.430   2.589
24494W        W95094  12.161  29.640   1.748
24495W        W95095  27.674   4.728  12.994
24496W        W95096  18.787  19.106  13.131
24497W        W95097  25.186  24.240  13.852
24498W        W95098  42.547  11.651   3.074
24499W        W95099  12.439  17.012  11.955
24500W        W95100  37.036   0.766  14.342
24501W        W95101  35.633  15.704  13.947
24502W        W95102  39.824  32.527   4.313
24503W        W95103  27.258  41.306  13.508
24504W        W95104  10.213   9.333  12.901
24505W        W95105  16.819  23.562  12.540
24506W        W95106   9.650  23.205   1.316
24507W        W95107  18.678  11.537  12.474
24508W        W95108  25.227  31.545   2.747
24509W        W95109   5.180  11.867   3.436
24510W        W95110   2.754   9.687  10.780
24511W        W95111  39.429  32.836  13.039
24512W        W95112  36.827   3.374  11.702
24513W        W95113  20.634  30.701   1.142
24514W        W95114  20.193  21.054   3.373
24515W        W95115  33.624  14.014  10.313
24516W        W95116  15.752  16.613  14.003
24517W        W95117  41.037   9.162  14.127
24518W        W95118  42.911  41.706   4.180
24519W        W95119  37.794   2.414  14.341
24520W        W95120  34.446  30.733  13.830
24521W        W95121  36.233  19.604  12.597
24522W        W95122  27.932  25.848   4.649
24523W        W95123   4.256  18.314   4.649
24524W        W95124  20.862  38.965  10.459
24525W        W95125  16.191  12.705   3.490
24526W        W95126  26.914  43.413   1.937
24527W        W95127  11.705  35.804   0.384
24528W        W95128  34.409  30.951   1.446
24529W        W95129   1.779   3.722   3.782
24530W        W95130  24.645  44.420  13.437
24531W        W95131  34.927  19.627   3.775
24532W        W95132  23.042  19.101  10.928
24533W        W95133  14.786  32.508  13.959
24534W        W95134  35.287  24.110   3.092
24535W        W95135  32.972  12.353  11.390
24536W        W95136  31.779  36.954   0.172
24537W        W95137  16.554  12.468   4.214
24538W        W95138  27.032  20.752  11.916
24539W        W95139  11.602  25.886   2.937
24540W        W95140   5.180  43.461   0.854
24541W        W95141  43.938  43.366   3.595
24542W        W95142  24.813  42.750   2.211
24543W        W95143   5.426   9.410  11.568
24544W        W95144  12.708   0.775   4.768
24545W        W95145  15.252  21.288   0.169
24546W        W95146  36.381  13.566  11.934
24547W        W95147  36.494  39.130   1.827
24548W        W95148   0.573  18.172   2.663
24549W        W95149  12.272  31.537   4.885
24550W        W95150  39.976  19.964  11.444
24551W        W95151  42.304  12.835  14.828
24552W        W95152  17.519   6.785   1.848
24553W        W95153  11.637  18.063   1.482
24554W        W95154  29.717   3.173  10.616
24555W        W95155   8.720  31.838  14.466
24556W        W95156  16.631  22.211  14.249
24557W        W95157   6.032   1.438   2.417
24558W        W95158  38.329  33.125   4.094
24559W        W95159  17.027  12.237   3.370
24560W        W95160   1.924  31.477  14.522
24561W        W95161  27.568  20.287   1.038
24562W        W95162  39.007  32.432  10.236
24563W        W95163   8.859  34.817   3.272
24564W        W95164  30.935  32.644  14.337
24565W        W95165  19.550   4.631   2.251
24566W        W95166  34.458  27.041   1.942
24567W        W95167  31.988   6.251  11.669
24568W        W95168  33.105  40.408   1.705
24569W        W95169  10.708   7.213   1.871
24570W        W95170  22.009  33.990   4.390
24571W        W95171  11.868  42.320  14.922
24572W        W95172  14.634   9.365  13.994
24573W        W95173   0.246   1.356   0.342
24574W        W95174  36.085  26.439   0.962
24575W        W95175  32.396  43.869   2.716
24576W        W95176  39.448  14.132  13.751
24577W        W95177   6.600  15.794   4.415
24578W        W95178  42.044  32.568   3.773
24579W        W95179   9.894  38.441  10.548
24580W        W95180   6.909   9.854   1.051
24581W        W95181  44.317  35.362   3.328
24582W        W95182  26.918  12.617  10.744
24583W        W95183  11.764  25.521  10.634
24584W        W95184  23.982  30.309   4.895
24585W        W95185  26.196  20.306   0.575
24586W        W95186  27.562  44.286   0.396
24587W        W95187   4.891  23.964  10.258
24588W        W95188  29.145  26.982  13.452
24589W        W95189  35.392  18.543  10.497
24590W        W95190  20.486  30.471  14.016
24591W        W95191  10.718   1.720  13.986
24592W        W95192   0.483  19.742  11.551
24593W        W95193   9.310   7.787   0.853
24594W        W95194  28.652  38.070   0.701
24595W        W95195   8.256  11.752   4.266
24596W        W95196  23.534   9.177  12.001
24597W        W95197  13.239  16.434   3.166
24598W        W95198  34.292  31.067  10.678
24599W        W95199  24.692  24.178   1.296
24600W        W95200  43.983  15.691  12.852
24601W        W95201   3.680  20.132   3.480
24602W        W95202  27.793   8.221   0.799
24603W        W95203  11.648  19.075  13.154
24604W        W95204  17.319  30.769  12.228
24605W        W95205  14.160  26.268   1.849
24606W        W95206  44.307  29.078  11.679
24607W        W95207  26.085  44.802   1.392
24608W        W95208  18.290  27.893   1.749
24609W        W95209  12.617  23.144  13.488
24610W        W95210  34.188  41.377  11.026
24611W        W95211   8.715  19.045  10.794
24612W        W95212  38.761   1.793  14.962
24613W        W95213  12.408   7.377  10.601
24614W        W95214   4.247  44.857  14.881
24615W        W95215   3.859  12.757   4.026
24616W        W95216   1.816   6.769  11.622
24617W        W95217  20.196  35.165   3.037
24618W        W95218  27.432  43.958   4.607
24619W        W95219  22.655  28.507  12.580
24620W        W95220  20.120  38.335  14.921
24621W        W95221  12.723   9.226  13.601
24622W        W95222   5.831  43.809   1.056
24623W        W95223   8.412   4.567  11.977
24624W        W95224  31.608   3.735  14.020
24625W        W95225  15.357   2.417  10.760
24626W        W95226  11.786   6.890  14.030
24627W        W95227  19.506  15.739  11.456
24628W        W95228  37.374  27.631  10.623
24629W        W95229  17.619  18.789   2.197
24630W        W95230  40.796  33.581  14.789
24631W        W95231  18.679   4.881  12.014
24632W        W95232  19.816  43.974  11.858
24633W        W95233   9.608  39.313  11.422
24634W        W95234  10.587  27.119   2.793
24635W        W95235  42.323  36.133   4.886
24636W        W95236  38.028   6.819   4.837
24637W        W95237  36.878   3.145  12.521
24638W        W95238  26.705  41.564   0.242
24639W        W95239  22.994  20.300   3.810
24640W        W95240   5.477  32.611   2.974
24641W        W95241  10.360  15.885   5.183
24642W        W95242   5.454  21.991   0.828
24643W        W95243  19.247  43.503   4.671
24644W        W95244  44.774  20.734   4.662
24645W        W95245  11.236   8.626  13.842
24646W        W95246  30.648  20.783   4.697
24647W        W95247  21.767  21.487   2.291
24648W        W95248  32.527  14.854   2.606
24649W        W95249  33.896  12.748  12.881
24650W        W95250  17.036   2.938  11.587
24651W        W95251  22.813  14.819   5.218
24652W        W95252  31.972  41.855   1.271
24653W        W95253   1.259  25.179  13.828
24654W        W95254  12.129  27.315  11.607
24655W        W95255  31.649  24.114   1.662
24656W        W95256   2.016  41.275  13.690
24657W        W95257  43.353  18.041   3.850
24658W        W95258   0.439  19.240   2.947
24659W        W95259  34.156   4.326   2.218
24660W        W95260  30.039  15.824   4.563
24661W        W95261  26.034  10.399   4.588
24662W        W95262  37.045  24.042  12.797
24663W        W95263  20.122   7.514   5.301
24664W        W95264  30.276   4.230  12.966
24665W        W95265  23.136  44.927  11.681
24666W        W95266  12.892  21.596   4.436
24667W        W95267  24.995  19.036   3.342
24668W        W95268  35.405  27.717   0.979
24669W        W95269  11.798   9.383   1.299
24670W        W95270  15.842  13.746  11.912
24671W        W95271  35.275  23.376   0.448
24672W        W95272  11.390  41.426  11.967
24673W        W95273   9.237   9.855   0.829
24674W        W95274   4.672  33.852   1.557
24675W        W95275  28.926   4.886   0.737
24676W        W95276  32.939  29.561   1.824
24677W        W95277   1.105  28.796  13.052
24678W        W95278  28.250   6.654  11.095
24679W        W95279  10.936   5.925   3.022
24680W        W95280  30.975  32.031   5.022
24681W        W95281  21.097  10.759   3.738
24682W        W95282  40.927  28.181  13.068
24683W        W95283  41.584   6.830  11.125
24684W        W95284  18.267   3.185  12.534
24685W        W95285   1.903  19.216  11.227
24686W        W95286   6.112  44.521  11.805
24687W        W95287  19.201  15.191   2.219
24688W        W95288  14.704  30.873   1.442
24689W        W95289  42.548   3.318   0.933
24690W        W95290  19.642   1.770   1.600
24691W        W95291  41.652   1.571  13.294
24692W        W95292  17.361  42.037   5.002
24693W        W95293   5.717  31.515  12.994
24694W        W95294  35.628  30.795   2.152
24695W        W95295   4.188  41.083  12.328
24696W        W95296  13.651  39.592  13.372
24697W        W95297  35.378  35.266  11.543
24698W        W95298  34.640  15.255   2.208
24699W        W95299   9.454  42.017  14.388
24700W        W95300  41.466  35.320  12.072
24701W        W95301   9.973  17.834   4.110
24702W        W95302  40.119  24.199   3.135
24703W        W95303   8.827  39.716  11.039
24704W        W95304  16.701  19.423   3.636
24705W        W95305  41.056  10.948   1.790
24706W        W95306  15.176  11.013  13.919
24707W        W95307  38.656  12.594  11.878
24708W        W95308  20.717  15.830   2.838
24709W        W95309  17.927  18.079  12.649
24710W        W95310  17.487  26.893  14.967
24711W        W95311  22.643  12.842  14.022
24712W        W95312  18.133  35.685  13.410
24713W        W95313  17.265  38.042   3.583
24714W        W95314  22.013  33.855  13.360
24715W        W95315  26.671  27.469   0.480
24716W        W95316  18.181  18.123   0.882
24717W        W95317   0.315  27.073   1.287
24718W        W95318  33.084  19.814   2.603
24719W        W95319  39.273  41.849   3.777
24720W        W95320  44.583  28.343   0.869
24721W        W95321  14.075  19.497   5.005
24722W        W95322  40.501  18.045  11.308
24723W        W95323  24.096  23.618  13.567
24724W        W95324   2.968  30.908  14.477
24725W        W95325  17.540  33.117  12.555
24726W        W95326  39.781  15.261  12.910
24727W        W95327   7.273  32.616   3.367
24728W        W95328  35.751   9.685   4.674
24729W        W95329  29.222  15.119  14.866
24730W        W95330  24.104   7.750   3.146
24731W        W95331   2.827   4.054   3.200
24732W        W95332  18.671  39.404   1.457
24733W        W95333  17.310   0.310   0.379
24734W        W95334  29.911  17.227  11.434
24735W        W95335  39.861  29.693   4.403
24736W        W95336  24.745  35.994  13.917
24737W        W95337  37.029  30.844   2.243
24738W        W95338   6.873  43.883  14.073
24739W        W95339   9.596  42.680  12.446
24740W        W95340  36.651   4.043   1.778
24741W        W95341  36.364  17.160  14.912
24742W        W95342  12.125  40.966   1.605
24743W        W95343  30.935   8.618  13.033
24744W        W95344  13.773   6.188   4.689
24745W        W95345  39.120  38.392   1.970
24746W        W95346   4.206   7.370  12.825
24747W        W95347  20.684  44.298  14.054
24748W        W95348  18.199  35.737  10.345
24749W        W95349   0.828  29.870   0.542
24750W        W95350   0.502  20.599  11.997
24751W        W95351  21.842   6.886  13.973
24752W        W95352  11.179   7.741  12.371
24753W        W95353   3.450   6.317   1.140
24754W        W95354  36.854  35.557   2.335
24755W        W95355   5.458  12.551   2.159
24756W        W95356  22.655  40.539   0.465
24757W        W95357  13.740   7.119  11.143
24758W        W95358  16.158   3.671  12.426
24759W        W95359  41.890   0.571  11.647
24760W        W95360  14.768  33.522  13.941
24761W        W95361   2.836   3.887  10.799
24762W        W95362  34.821  36.900   3.632
24763W        W95363  43.770  13.281   3.362
24764W        W95364  24.461  14.634  11.154
24765W        W95365  38.288  27.761   0.335
24766W        W95366  16.702   0.477   1.409
24767W        W95367  14.351  20.560  11.487
24768W        W95368  33.444  13.598   0.429
24769W        W95369  17.493  31.027  13.446
24770W        W95370   4.646  29.164   3.391
24771W        W95371   7.223  18.931   0.929
24772W        W95372  34.070  40.346  14.775
24773W        W95373   0.440  12.617   3.300
24774W        W95374  38.386  40.466   1.985
24775W        W95375   5.940   5.633   0.402
24776W        W95376   0.561   9.723   3.407
24777W        W95377  15.848  14.646   0.709
24778W        W95378  32.970  12.858  11.998
24779W        W95379  25.250  20.077  13.065
24780W        W95380  14.673   4.876   1.452
24781W        W95381   1.707  14.631   1.234
24782W        W95382   6.917  16.540   1.587
24783W        W95383   8.926  44.711   2.238
24784W        W95384   4.842  16.481   0.688
24785W        W95385  16.312   1.938   1.211
24786W        W95386   8.569   1.770   3.601
24787W        W95387  23.250  11.483   4.818
24788W        W95388  12.593  30.859   0.854
24789W        W95389  43.771  42.124   0.352
24790W        W95390  25.158  11.823   4.175
24791W        W95391   6.755  20.717   1.820
24792W        W95392  26.137  25.178   1.388
24793W        W95393  19.245  22.647   3.219
24794W        W95394  29.980   0.317  10.393
24795W        W95395   6.375  13.506   3.810
24796W        W95396  15.246  33.657   5.411
24797W        W95397   4.885   9.340   3.373
24798W        W95398   1.896   5.820  11.497
24799W        W95399   3.882   0.884  10.641
24800W        W95400  22.032  41.262   1.835
24801W        W95401   9.244  40.753  14.811
24802W        W95402  28.539   9.145  12.639
24803W        W95403  28.994  28.538   4.241
24804W        W95404   7.491   6.149   5.026
24805W        W95405   1.750  21.557   0.425
24806W        W95406  42.582   9.573   3.211
24807W        W95407  36.599  21.480   2.276
24808W        W95408  14.090   4.319  13.353
24809W        W95409  12.150   1.981   0.734
24810W        W95410  12.722  22.737   2.070
24811W        W95411  22.613   4.810  12.539
24812W        W95412   1.956  29.167  14.898
24813W        W95413  34.976  24.267  14.036
24814W        W95414   4.791  33.608   2.798
24815W        W95415  43.030   9.125   0.850
24816W        W95416  39.466   4.429   3.311
24817W        W95417  28.667  21.196   4.539
24818W        W95418  41.325  21.503  11.542
24819W        W95419  39.598  19.946   2.640
24820W        W95420  23.652  26.520  12.124
24821W        W95421  17.139  28.858   0.529
24822W        W95422  39.440  33.772  11.980
24823W        W95423  11.194  27.753  13.108
24824W        W95424  22.846  41.926  11.530
24825W        W95425  44.639  31.734  10.233
24826W        W95426  32.064  28.272  14.834
24827W        W95427  31.868  12.793   0.419
24828W        W95428  13.078  13.579   2.806
24829W        W95429  25.549  10.400  14.864
24830W        W95430  36.723   2.029   2.710
24831W        W95431  16.378  40.733   5.087
24832W        W95432  42.149  16.350   9.124
24833W        W95433  26.818  36.823  12.831
24834W        W95434  25.992   4.664   0.861
24835W        W95435   3.449  43.793  12.901
24836W        W95436  17.333   8.318  10.897
24837W        W95437  43.420   6.832   2.888
24838W        W95438   3.900   9.736   2.308
24839W        W95439  25.005   2.316  11.664
24840W        W95440  19.347  40.006   4.592
24841W        W95441  34.927  18.967  12.972
24842W        W95442  11.883  30.618   0.461
24843W        W95443  11.833  33.974   4.579
24844W        W95444  20.628  26.028   4.320
24845W        W95445  40.531  22.943  11.258
24846W        W95446   7.724  25.582   0.256
24847W        W95447   7.343  25.020  10.728
24848W        W95448  26.762  32.920   2.787
24849W        W95449  21.919  12.262  11.175
24850W        W95450  42.459  24.067  11.622
24851W        W95451  34.687   6.795   3.227
24852W        W95452  42.965  10.429   0.324
24853W        W95453  29.081   6.442  13.440
24854W        W95454  43.036  23.286  13.127
24855W        W95455   6.875  34.970   5.047
24856W        W95456   0.996  25.482  14.194
24857W        W95457  29.919  38.533  11.069
24858W        W95458  21.532  12.619  14.487
24859W        W95459  23.377  31.952  14.474
24860W        W95460  42.840   9.187   1.875
24861W        W95461  25.717  41.540   3.877
24862W        W95462   3.869  11.688   0.257
24863W        W95463   3.272  20.150  12.462
24864W        W95464  40.270  15.296   2.289
24865W        W95465  26.606   2.982  14.374
24866W        W95466  34.985  40.717   1.776
24867W        W95467  20.299  12.188   3.843
24868W        W95468  44.325  27.410   2.483
24869W        W95469  10.018   1.713  11.941
24870W        W95470  29.836  24.050   2.401
24871W        W95471  16.062   7.960  11.173
24872W        W95472  17.408  41.575  10.820
24873W        W95473   1.001   1.390  12.921
24874W        W95474  44.505  25.821  13.291
24875W        W95475  22.791   6.779  10.174
24876W        W95476  10.496  31.545  13.410
24877W        W95477  16.374   7.432  13.760
24878W        W95478  43.495  35.447  14.789
24879W        W95479   5.696  31.819   1.947
24880W        W95480   2.312   6.822  13.404
24881W        W95481  33.880  23.585   0.051
24882W        W95482   1.928  42.298   4.144
24883W        W95483   0.011  31.507   1.818
24884W        W95484  26.180   0.359  10.958
24885W        W95485   4.278   2.222   2.199
24886W        W95486  28.375  37.610  13.446
24887W        W95487  24.932  44.974  12.230
24888W        W95488   7.551  20.587  12.886
24889W        W95489  27.918  34.316  10.770
24890W        W95490  35.867  28.434   0.715
24891W        W95491  30.490  25.701   2.800
24892W        W95492  36.526  18.680   0.828
24893W        W95493  40.035  31.825   2.654
24894W        W95494   7.633  39.278  11.647
24895W        W95495  11.111  35.469  14.690
24896W        W95496  25.155  25.142   3.323
24897W        W95497   1.783  22.482  12.909
24898W        W95498  33.457  30.863   0.983
24899W        W95499  39.078  26.675   3.139
24900W        W95500  18.147  44.179   0.399
24901W        W95501  16.652   4.706  14.748
24902W        W95502   6.658   2.263  11.572
24903W        W95503  19.217  40.404  14.419
24904W        W95504   5.659  35.589   2.147
24905W        W95505  40.646  23.549   0.759
24906W        W95506  22.685  22.647   1.209
24907W        W95507  14.795  25.140  12.900
24908W        W95508  26.475  11.169  11.884
24909W        W95509  40.073  29.102  13.004
24910W        W95510  32.999  18.184   1.969
24911W        W95511  42.332  12.122  14.452
24912W        W95512  36.011  40.811   2.972
24913W        W95513  43.914   6.930  13.636
24914W        W95514  36.838  22.315  12.112
24915W        W95515  38.285  10.620   2.190
24916W        W95516  23.213  39.255   3.334
24917W        W95517  44.184  24.071   4.639
24918W        W95518   0.901  37.087  10.588
24919W        W95519   2.992  37.917  14.880
24920W        W95520   8.754  40.918  14.360
24921W        W95521   2.774  33.613   1.287
24922W        W95522   4.182  31.576   1.749
24923W        W95523  37.395  10.752  13.425
24924W        W95524   3.566  13.220  10.724
24925W        W95525   7.854  39.246   4.094
24926W        W95526  14.903   8.436   2.686
24927W        W95527  40.433  29.408   1.328
24928W        W95528  26.198  27.352  11.601
24929W        W95529  24.563   1.337   2.352
24930W        W95530  35.600   5.605   3.747
24931W        W95531  22.981  42.070  14.273
24932W        W95532  11.158  41.605  12.377
24933W        W95533  21.272  32.816  13.019
24934W        W95534  36.880   8.218   3.539
24935W        W95535   2.713  36.525  10.783
24936W        W95536   9.090   2.732   1.783
24937W        W95537  24.212  31.579  10.499
24938W        W95538  22.880  29.701   4.528
24939W        W95539  43.606   8.788   2.637
24940W        W95540  19.822  32.893   4.142
24941W        W95541  11.565  16.982  14.300
24942W        W95542  26.385  44.648  14.022
24943W        W95543  19.956   8.352  11.479
24944W        W95544  23.204  28.460  11.318
24945W        W95545  11.550  21.586   0.812
24946W        W95546  10.286   9.850  13.009
24947W        W95547   6.372  39.527   3.062
24948W        W95548  15.603  41.824  13.018
24949W        W95549  24.725  29.652   2.875
24950W        W95550   1.504  16.448  13.800
24951W        W95551  23.544  18.279  12.375
24952W        W95552  44.276  18.725   0.291
24953W        W95553  20.268   0.449   2.797
24954W        W95554   8.633  15.295   3.544
24955W        W95555  39.759  10.469  14.917
24956W        W95556  23.172   3.359   4.505
24957W        W95557  39.303  42.951   2.304
24958W        W95558  38.967  31.006   2.325
24959W        W95559  25.971  44.955  14.009
24960W        W95560   8.266  29.155   3.256
24961W        W95561  43.629  27.399  11.191
24962W        W95562  42.097  35.525  14.291
24963W        W95563   1.137  30.855  14.508
24964W        W95564  23.151  18.630   0.087
24965W        W95565  33.895   1.530  12.149
24966W        W95566  28.499  12.655  11.667
24967W        W95567  16.139  40.043  12.867
24968W        W95568  23.332  35.153   3.108
24969W        W95569   4.867  35.602   1.820
24970W        W95570  27.980  43.229  13.522
24971W        W95571  32.470  16.811   2.882
24972W        W95572  33.358  36.754   1.053
24973W        W95573  27.051  44.816   3.971
24974W        W95574  42.507   3.147  12.499
24975W        W95575   6.929   3.478   0.888
24976W        W95576  13.704  16.567   3.713
24977W        W95577  38.871   7.706   0.074
24978W        W95578  29.472   7.965  13.132
24979W        W95579  22.550   2.696  13.879
24980W        W95580   1.467  40.456   1.792
24981W        W95581   5.171  35.977  13.813
24982W        W95582  37.405  44.389   5.101
24983W        W95583   5.138   9.637  13.958
24984W        W95584   9.117  16.873  11.168
24985W        W95585  20.829  33.087   0.170
24986W        W95586   5.994  18.672  11.242
24987W        W95587  38.054   1.408  10.621
24988W        W95588  21.151  42.469  12.195
24989W        W95589  10.308  34.955  14.303
24990W        W95590  28.608  44.342   2.979
24991W        W95591  33.486  29.702  14.620
24992W        W95592  31.649  16.714  13.966
24993W        W95593  16.823   0.915   4.330
24994W        W95594  36.327   9.137   3.194
24995W        W95595  30.118  19.249   2.330
24996W        W95596  43.032  12.797  12.507
24997W        W95597  26.022  41.819  14.007
24998W        W95598   3.375  22.475  11.981
24999W        W95599  35.582   3.627   1.023
25000W        W95600  25.565  30.054   3.312
25001W        W95601  24.634  33.611  13.682
25002W        W95602  24.697  11.025  13.503
25003W        W95603  28.193   1.283   1.363
25004W        W95604  20.463  12.215   4.327
25005W        W95605  19.546   3.500   0.851
25006W        W95606  26.920  36.917   3.742
25007W        W95607  14.252  32.016  11.437
25008W        W95608  35.700  30.881  10.654
25009W        W95609  34.433  23.467  14.394
25010W        W95610  40.335  10.062  13.440
25011W        W95611   9.869  14.866   0.149
25012W        W95612  24.477  17.659  13.328
25013W        W95613  43.867   1.500  10.665
25014W        W95614  20.954  40.518   2.606
25015W        W95615   7.771  10.576   4.543
25016W        W95616  24.449  31.195  14.517
25017W        W95617  44.939  25.711   3.806
25018W        W95618  24.505  26.567   3.750
25019W        W95619  23.607  20.674   4.686
25020W        W95620  18.515  25.197  13.441
25021W        W95621  16.821  33.394   4.653
25022W        W95622  23.366  18.486   3.004
25023W        W95623  37.434  22.061   3.103
25024W        W95624   7.311  15.677   3.855
25025W        W95625  29.229  14.278   0.803
25026W        W95626  18.021  32.886  14.945
25027W        W95627  39.809   6.838   4.153
25028W        W95628  23.170  30.723  14.379
25029W        W95629  16.349  15.725  11.694
25030W        W95630  17.569   4.466   4.599
25031W        W95631  31.839   0.835  12.550
25032W        W95632  21.797  34.955   0.939
25033W        W95633  15.045  37.014   0.288
25034W        W95634  14.816  20.713  14.850
25035W        W95635  34.588  15.419   3.739
25036W        W95636  34.647  40.221   2.699
25037W        W95637   1.777  33.648  13.091
25038W        W95638  37.052  23.229  11.660
25039W        W95639  17.665   7.383  12.826
25040W        W95640  15.713   9.046   1.814
25041W        W95641  37.653  42.378   3.261
25042W        W95642  41.070  28.197   3.467
25043W        W95643  18.238  30.544   1.807
25044W        W95644  25.662  44.373   2.833
25045W        W95645  32.321  30.520  14.946
25046W        W95646  18.096  30.050   1.679
25047W        W95647  26.075  20.815  11.761
25048W        W95648  25.671  38.619  14.882
25049W        W95649  14.119  28.328  13.525
25050W        W95650  35.962  22.537   3.573
25051W        W95651  10.106  13.833   3.248
25052W        W95652   8.592  44.320  10.863
25053W        W95653   0.440  44.733  10.738
25054W        W95654  35.817   3.296   0.715
25055W        W95655   9.014  36.602  12.105
25056W        W95656  34.732  29.064   3.150
25057W        W95657   3.487  16.752   1.371
25058W        W95658  19.615  28.701   5.462
25059W        W95659  24.010  14.967   0.763
25060W        W95660  31.476  37.468  11.546
25061W        W95661  12.750  44.427  14.292
25062W        W95662  30.553   9.976  14.018
25063W        W95663  44.969   1.432   2.782
25064W        W95664  31.227  34.080   2.182
25065W        W95665  24.132  21.884   3.137
25066W        W95666  22.664   1.801   3.892
25067W        W95667  39.577  25.105  11.682
25068W        W95668   8.635   6.534   1.187
25069W        W95669  26.750  26.379  12.105
25070W        W95670   8.267   3.216   1.729
25071W        W95671  27.499  43.445   2.749
25072W        W95672   0.180  28.669   4.076
25073W        W95673   4.321  25.487   0.217
25074W        W95674  30.002   0.018   0.574
25075W        W95675  34.945  35.022   2.248
25076W        W95676  18.811   2.090  12.937
25077W        W95677  18.582  37.850  13.995
25078W        W95678   6.834  14.063   1.495
25079W        W95679  30.385  22.969   1.677
25080W        W95680   4.199  10.394   3.694
25081W        W95681  43.405   4.285  10.535
25082W        W95682  32.616   2.880   1.623
25083W        W95683   3.152  17.061   3.794
25084W        W95684  23.202   9.428   2.187
25085W        W95685  39.350  23.736  11.173
25086W        W95686  13.842   7.323   3.152
25087W        W95687  38.946  29.521  14.546
25088W        W95688  23.791  24.256   4.903
25089W        W95689  33.510   8.433  10.478
25090W        W95690  13.573  11.141   3.841
25091W        W95691   5.250  38.926  14.375
25092W        W95692  41.814  44.582  11.646
25093W        W95693  26.087  17.303   2.795
25094W        W95694  13.519  32.540   3.646
25095W        W95695  15.172  25.740  14.378
25096W        W95696   8.151  42.988  13.900
25097W        W95697  29.142  30.504   1.425
25098W        W95698  16.838  19.781  11.035
25099W        W95699  44.976  40.117  14.417
25100W        W95700   9.131  18.110   2.365
25101W        W95701   1.988   0.321   0.893
25102W        W95702   2.968  32.409   3.374
25103W        W95703  27.560   0.467   1.330
25104W        W95704  23.195  26.727  14.383
25105W        W95705  33.652  32.974  11.319
25106W        W95706  38.553  28.438  10.361
25107W        W95707  33.564   9.642   0.964
25108W        W95708  23.555  32.595   3.760
25109W        W95709  12.797  30.131   4.273
25110W        W95710  12.225  15.923   2.748
25111W        W95711  36.914  13.155   2.779
25112W        W95712  21.980  36.290   1.331
25113W        W95713  38.184  23.369  12.062
25114W        W95714  32.863  26.329  13.244
25115W        W95715  41.463  12.115   2.894
25116W        W95716  41.252  12.404   0.716
25117W        W95717   4.688   0.420   2.465
25118W        W95718  17.953   5.232   0.535
25119W        W95719  30.331  31.042   4.095
25120W        W95720  32.221  37.409  13.549
25121W        W95721  13.907  29.497  11.582
25122W        W95722   0.954  31.720  10.723
25123W        W95723  42.779   6.388   4.226
25124W        W95724  17.180  28.690  11.387
25125W        W95725   7.131  30.958   4.063
25126W        W95726  39.569   9.363   0.400
25127W        W95727  18.992  40.959  14.741
25128W        W95728  29.657  42.969  11.058
25129W        W95729  35.971  15.686   1.236
25130W        W95730  23.188   1.529   5.507
25131W        W95731  28.431  21.309  13.901
25132W        W95732   5.400   5.805   4.410
25133W        W95733  28.975  41.300   2.150
25134W        W95734  29.036  44.880   1.684
25135W        W95735  31.839  41.925  13.964
25136W        W95736   1.985  21.923   3.149
25137W        W95737  35.993  41.362   4.198
25138W        W95738  10.682  34.914   0.973
25139W        W95739  18.533  25.205  14.903
25140W        W95740  25.930  24.951  11.426
25141W        W95741  27.067  35.334   0.159
25142W        W95742  20.281  30.274  12.991
25143W        W95743   4.304  21.274  12.479
25144W        W95744  39.388  25.412  12.950
25145W        W95745   0.815   4.918   4.044
25146W        W95746   4.081  37.648   1.208
25147W        W95747  44.846  10.125   2.350
25148W        W95748   9.474  12.157  11.823
25149W        W95749  37.229  43.465   3.632
25150W        W95750  31.828   2.677  11.100
25151W        W95751   7.239   7.756  13.625
25152W        W95752   3.808  35.570  13.390
25153W        W95753  14.257  31.177   0.288
25154W        W95754  13.635  29.901   3.242
25155W        W95755  33.465  19.502  13.028
25156W        W95756   1.753  40.802   4.274
25157W        W95757  38.927   8.909   3.959
25158W        W95758  33.902  30.935   0.174
25159W        W95759  23.599  30.935   0.205
25160W        W95760  40.005  17.617  12.447
25161W        W95761  35.414  43.962   2.762
25162W        W95762  18.213  15.318   4.252
25163W        W95763   5.494  13.663  11.078
25164W        W95764   2.090  32.841  10.116
25165W        W95765  27.595   7.836  10.484
25166W        W95766  43.613  35.947  13.826
25167W        W95767  27.098   2.149   4.245
25168W        W95768  35.499   8.776  10.708
25169W        W95769  18.334  28.185  13.318
25170W        W95770  39.365  11.110  13.847
25171W        W95771  26.404  29.482   2.327
25172W        W95772  12.927  41.976  11.479
25173W        W95773  42.356  16.182   2.810
25174W        W95774  30.921  24.494   0.930
25175W        W95775  11.229  26.501   1.253
25176W        W95776   8.414   7.782  14.256
25177W        W95777   8.996  34.280   0.255
25178W        W95778  30.578   1.918  13.543
25179W        W95779  23.206  37.156   3.708
25180W        W95780  16.046  36.468  13.307
25181W        W95781  10.174   5.343   2.812
25182W        W95782  25.174   1.974  13.973
25183W        W95783  15.266  15.859  12.615
25184W        W95784  16.236  26.109  11.625
25185W        W95785  17.727  38.994  11.923
25186W        W95786  18.753  24.243  12.165
25187W        W95787  33.065  28.447   4.612
25188W        W95788  37.621  15.014  14.542
25189W        W95789  29.155  11.732   4.617
25190W        W95790   7.046  29.654   2.851
25191W        W95791   2.193  16.359   3.335
25192W        W95792  36.809  20.927   1.220
25193W        W95793  16.775  16.494   2.744
25194W        W95794  18.274  38.076  11.031
25195W        W95795  40.731  10.460   0.195
25196W        W95796  30.578  27.212  14.344
25197W        W95797  37.466  16.630   1.689
25198W        W95798  37.823   4.466   2.786
25199W        W95799  30.655  20.485  12.814
25200W        W95800  39.847  38.041  12.061
25201W        W95801   8.714  14.285   0.825
25202W        W95802  39.848  25.059  14.446
25203W        W95803  42.340   9.185  14.425
25204W        W95804  29.131  26.051   1.387
25205W        W95805   7.881  26.956  13.318
25206W        W95806  36.756  42.839   2.258
25207W        W95807  42.512  15.164   4.085
25208W        W95808  43.933  40.415   3.083
25209W        W95809  33.399  26.029   3.923
25210W        W95810  10.255  41.618   4.541
25211W        W95811  25.542  35.514  10.722
25212W        W95812  20.761  20.657   4.777
25213W        W95813   3.983   7.365   4.169
25214W        W95814  28.587  20.159  10.981
25215W        W95815  14.627  17.578  11.607
25216W        W95816  26.960  29.502   1.942
25217W        W95817   7.677  30.556   1.342
25218W        W95818  29.599  10.644   3.179
25219W        W95819  43.859  40.940  14.671
25220W        W95820  27.965  12.825   1.196
25221W        W95821  13.105  30.559   5.071
25222W        W95822  33.530  30.927  12.384
25223W        W95823  16.544  19.075   0.793
25224W        W95824   5.658  39.926   4.554
25225W        W95825   3.965   8.292   3.685
25226W        W95826   4.672  30.850  14.854
25227W        W95827  19.540  42.340   3.641
25228W        W95828   7.796  11.788  11.166
25229W        W95829  13.657  17.544   2.684
25230W        W95830  20.530  35.565   0.201
25231W        W95831  38.334   3.983  12.005
25232W        W95832  42.275  36.065   3.281
25233W        W95833  17.159  38.817  11.245
25234W        W95834  33.297  40.930  13.491
25235W        W95835  11.784  42.596  14.452
25236W        W95836  21.539  29.634  13.976
25237W        W95837  38.264  40.996   1.904
25238W        W95838   1.373   7.883  14.572
25239W        W95839   0.007  42.879  14.743
25240W        W95840  43.811  27.705  13.224
25241W        W95841  29.748  11.805   1.834
25242W        W95842  39.834  24.613  11.703
25243W        W95843  40.770   1.296   1.237
25244W        W95844  22.960  27.147   2.633
25245W        W95845  34.789  43.003   0.049
25246W        W95846  25.336  12.593   3.209
25247W        W95847   6.132  17.394   0.016
25248W        W95848  24.811  15.093   2.677
25249W        W95849  28.187  34.472  12.579
25250W        W95850  32.266  38.543  11.664
25251W        W95851  42.925  22.889   3.869
25252W        W95852   9.559  10.486   4.583
25253W        W95853   1.259   3.215  12.152
25254W        W95854  34.153   4.173   0.371
25255W        W95855  35.778  24.729  14.284
25256W        W95856  42.840  29.875  14.077
25257W        W95857  11.356  15.875  14.979
25258W        W95858  34.088  44.934   1.215
25259W        W95859  32.491  44.647   3.552
25260W        W95860  15.891  32.524   3.758
25261W        W95861  15.792   7.965   0.723
25262W        W95862  18.803  22.515   1.853
25263W        W95863  24.259  22.305   2.259
25264W        W95864  33.594  44.432   4.362
25265W        W95865  40.808  35.719  11.519
25266W        W95866  27.764  42.779  13.589
25267W        W95867  17.286  15.142   2.524
25268W        W95868   3.765  41.946   3.938
25269W        W95869  18.299  24.197   1.390
25270W        W95870  16.353  29.226  11.612
25271W        W95871  23.667  20.498  11.201
25272W        W95872  28.751  33.341  13.444
25273W        W95873  37.812   1.450   0.069
25274W        W95874  35.082   7.696   0.482
25275W        W95875  17.274  11.634   1.354
25276W        W95876   7.911  37.126  10.903
25277W        W95877   0.684  10.041  11.984
25278W        W95878  10.746  39.107  11.034
25279W        W95879  27.744  24.077  12.433
25280W        W95880  28.230   0.704   5.071
25281W        W95881  40.496  36.093  13.172
25282W        W95882  18.585  10.888  14.792
25283W        W95883   8.438   2.542   3.777
25284W        W95884   0.963   8.231   1.559
25285W        W95885   9.182   4.680  14.176
25286W        W95886  37.071   7.834   0.893
25287W        W95887  26.650  38.122  11.884
25288W        W95888   6.353  44.830  13.298
25289W        W95889   3.507  38.949  11.666
25290W        W95890   3.825  18.783   1.321
25291W        W95891  40.025  41.768  11.966
25292W        W95892  40.070  15.220  14.313
25293W        W95893  16.163  26.667  14.368
25294W        W95894  37.979  23.153  13.660
25295W        W95895   6.515  15.786   0.305
25296W        W95896  13.142   5.134   0.781
25297W        W95897  37.489  44.349  13.425
25298W        W95898  19.918  25.909   3.260
25299W        W95899  16.207   4.846   1.204
25300W        W95900  11.291  32.373   2.736
25301W        W95901  28.667  42.740   2.653
25302W        W95902  20.720  11.812   0.697
25303W        W95903   4.010  13.191   0.607
25304W        W95904  37.632  35.358  12.166
25305W        W95905  43.280  16.502   1.454
25306W        W95906  28.523   5.644  11.054
25307W        W95907  17.539  10.165   2.206
25308W        W95908  40.659  43.271   4.032
25309W        W95909  20.601  28.659   3.791
25310W        W95910  11.987  35.857   1.288
25311W        W95911  24.823  11.386   4.179
25312W        W95912   4.693  33.374   1.938
25313W        W95913  15.049  43.104  10.082
25314W        W95914  39.017  14.802   2.377
25315W        W95915  42.265  32.075  12.955
25316W        W95916  42.265  35.061   2.127
25317W        W95917  19.812  38.793   0.042
25318W        W95918   2.009   7.385  12.558
25319W        W95919  38.342   8.210   0.300
25320W        W95920   9.293  28.182   4.041
25321W        W95921  37.953  20.805  11.475
25322W        W95922  26.509  21.702  12.018
25323W        W95923  36.248  33.281   4.228
25324W        W95924  17.521  32.838  14.028
25325W        W95925  29.136  28.652  11.017
25326W        W95926  41.954  22.198   1.853
25327W        W95927   7.434  16.271  12.937
25328W        W95928  19.519  35.531  12.096
25329W        W95929  34.660  39.235   3.755
25330W        W95930   8.042   4.663  13.818
25331W        W95931  16.505  26.873  11.403
25332W        W95932  39.896  21.411  11.215
25333W        W95933  31.485   7.812  12.943
25334W        W95934  15.903  35.655  14.730
25335W        W95935   1.892  34.537   4.296
25336W        W95936  42.081  36.488   2.719
25337W        W95937  32.800  15.304  11.155
25338W        W95938   8.376   0.690   0.672
25339W        W95939  30.098  13.443   3.314
25340W        W95940  39.927  42.389   4.206
25341W        W95941  37.879  39.461   1.213
25342W        W95942  25.630  22.534  13.039
25343W        W95943   2.697  20.114   3.572
25344W        W95944  24.103   8.358  12.280
25345W        W95945  23.590  33.919   0.428
25346W        W95946  23.703  17.169  10.973
25347W        W95947  44.822  34.572  10.810
25348W        W95948  40.461  29.197   2.640
25349W        W95949  24.677  32.346  11.979
25350W        W95950  39.859  12.805   2.944
25351W        W95951  38.376  15.782   4.643
25352W        W95952  20.255  13.409   2.317
25353W        W95953  21.543  25.692  13.432
25354W        W95954  28.176  43.502  13.913
25355W        W95955  32.089  12.628  14.971
25356W        W95956   5.158   9.372  11.112
25357W        W95957   2.468  14.536   2.849
25358W        W95958  42.597  25.025  10.664
25359W        W95959  37.339  12.133  12.418
25360W        W95960  30.385  18.162  14.660
25361W        W95961  39.302  15.935  13.995
25362W        W95962  42.787  43.585   3.626
25363W        W95963   1.731  36.961   4.932
25364W        W95964   1.983  15.334   4.508
25365W        W95965  13.041  41.643  11.020
25366W        W95966   2.488  30.227   2.252
25367W        W95967  22.686  43.808  11.144
25368W        W95968   6.494  35.321  14.037
25369W        W95969  28.645  11.341  14.023
25370W        W95970  20.866  40.809   3.296
25371W        W95971   5.437  25.553  12.962
25372W        W95972   6.586  16.073   1.240
25373W        W95973  21.645  18.807   3.735
25374W        W95974  15.813   0.351   3.811
25375W        W95975  24.534  10.869  11.630
25376W        W95976   9.098  19.400   3.743
25377W        W95977   5.369  38.456   4.211
25378W        W95978   5.471  34.502  11.245
25379W        W95979  34.862  37.144  14.064
25380W        W95980  21.468  29.945   4.850
25381W        W95981  18.637  16.276   3.568
25382W        W95982  32.631   0.065   3.826
25383W        W95983   7.682   4.449   0.837
25384W        W95984   6.356   4.817  13.786
25385W        W95985  42.743  25.986   4.305
25386W        W95986  43.464  30.684  11.129
25387W        W95987  30.907  26.051   4.258
25388W        W95988  43.691  23.126   4.326
25389W        W95989   1.480  31.409   1.881
25390W        W95990  14.809  27.502  12.526
25391W        W95991  19.945   1.257   0.922
25392W        W95992  29.879  14.981   0.912
25393W        W95993  14.300   1.772   3.343
25394W        W95994  15.229  18.106  14.375
25395W        W95995  27.633   9.859   0.426
25396W        W95996   3.293  27.316   2.389
25397W        W95997  44.468  12.624   2.445
25398W        W95998   8.316  39.446   4.234
25399W        W95999  43.504  28.690   3.146
25400W        W96000   9.112  12.209   3.853
25401W        W96001  14.317   6.296  12.587
25402W        W96002  11.580  15.142  12.536
25403W        W96003  22.822  29.560   0.319
25404W        W96004  42.418  42.761  11.417
25405W        W96005   9.739  15.265  14.825
25406W        W96006  13.430  11.507  14.366
25407W        W96007  32.140  19.533   3.710
25408W        W96008  43.489  44.751  11.056
25409W        W96009  44.559  35.518   0.913
25410W        W96010  17.147  41.446  12.406
25411W        W96011  44.919   0.538   4.578
25412W        W96012  18.239   7.145  14.068
25413W        W96013   9.474  12.786  10.076
25414W        W96014  33.661  11.507   3.794
25415W        W96015  41.876  29.521  10.689
25416W        W96016  29.643  30.698   2.819
25417W        W96017   3.001   2.907  11.576
25418W        W96018  44.884  32.030   1.960
25419W        W96019  22.453  23.586  14.876
25420W        W96020  15.705  26.116   2.726
25421W        W96021   0.790   0.916   2.437
25422W        W96022  27.938  40.548   2.030
25423W        W96023   8.306  41.722  11.662
25424W        W96024  35.320  41.404   2.923
25425W        W96025  33.099  36.819   3.369
25426W        W96026  15.655  20.999  10.421
25427W        W96027  35.101   0.460   3.647
25428W        W96028  26.172  38.981   5.017
25429W        W96029  19.224   2.769   4.327
25430W        W96030  12.936  29.009   0.888
25431W        W96031  32.514  12.166   2.512
25432W        W96032   3.721   9.658   3.686
25433W        W96033   1.945   3.799  14.249
25434W        W96034  30.366  40.519  12.207
25435W        W96035  36.954  16.273   3.878
25436W        W96036  28.488  16.856  12.362
25437W        W96037  17.670  33.132   1.347
25438W        W96038  11.367  21.498  11.656
25439W        W96039  39.255  31.931   0.499
25440W        W96040  37.195  20.228   0.460
25441W        W96041  17.326  10.307   3.161
25442W        W96042  24.065  32.388  13.727
25443W        W96043   4.468  30.919   4.299
25444W        W96044  42.898  13.324   2.730
25445W        W96045  32.898  40.467  11.349
25446W        W96046  24.641  21.433  14.419
25447W        W96047  34.080   1.225  14.943
25448W        W96048   7.314   1.235  12.014
25449W        W96049  40.613  38.603  12.147
25450W        W96050  28.854  39.099   0.286
25451W        W96051  34.438  32.159  12.878
25452W        W96052  34.049  41.119   1.673
25453W        W96053  44.169   3.128  14.312
25454W        W96054  28.826   3.949  11.209
25455W        W96055  38.504  39.621   1.700
25456W        W96056  15.069  24.978   0.115
25457W        W96057  37.804   0.965  11.472
25458W        W96058   6.734  39.047  11.630
25459W        W96059   0.009  10.604  12.086
25460W        W96060   0.469  28.340   4.854
25461W        W96061   3.322  11.541   2.024
25462W        W96062  42.961  41.726  12.478
25463W        W96063  23.584  20.863  11.618
25464W        W96064  44.958  20.505  12.086
25465W        W96065  25.431  10.443   2.174
25466W        W96066   0.716  35.904  11.515
25467W        W96067  42.083   2.863  12.335
25468W        W96068  34.581  11.631   2.235
25469W        W96069  37.501   4.132   4.577
25470W        W96070  28.236  10.374   3.230
25471W        W96071  26.973  17.307   1.207
25472W        W96072  30.602  43.523  14.794
25473W        W96073  28.167   4.549  12.811
25474W        W96074  43.343  30.524  12.007
25475W        W96075  14.970  21.538  10.997
25476W        W96076  41.633  41.809  12.555
25477W        W96077  22.498  13.194   0.434
25478W        W96078  12.954  30.917   1.250
25479W        W96079  10.189  33.524   0.860
25480W        W96080  13.177   7.338  14.852
25481W        W96081  16.193  42.098   2.683
25482W        W96082  42.833  11.751  13.543
25483W        W96083   9.684  38.391   4.707
25484W        W96084   3.448  24.177  14.331
25485W        W96085   0.781  38.522  14.237
25486W        W96086  42.541  17.845  11.962
25487W        W96087  17.214  11.774   3.202
25488W        W96088  36.416  43.030  11.627
25489W        W96089  32.056  14.679   1.034
25490W        W96090  38.505   1.618  14.489
25491W        W96091  31.425  10.665  13.866
25492W        W96092  31.878   8.808  12.866
25493W        W96093  28.435   3.726  13.523
25494W        W96094  19.705  18.801  11.198
25495W        W96095  21.640   6.411   9.897
25496W        W96096  41.468   8.434  13.970
25497W        W96097   3.824  13.584  14.422
25498W        W96098  14.219  18.263  13.818
25499W        W96099   6.875  33.455   3.539
25500W        W96100  39.459  34.617  13.652
25501W        W96101  33.953  37.875   1.169
25502W        W96102  42.681  33.912  11.199
25503W        W96103  26.967  37.419   0.472
25504W        W96104  43.088   3.909  11.666
25505W        W96105   3.343  11.641  13.344
25506W        W96106  28.512   1.413   4.072
25507W        W96107   0.681  12.680  10.354
25508W        W96108  25.270  16.322   1.330
25509W        W96109  25.460  23.746  10.251
25510W        W96110  17.016  23.081  12.547
25511W        W96111  32.968  12.146   1.746
25512W        W96112  10.267   7.957   3.682
25513W        W96113   2.377  25.509   4.682
25514W        W96114   4.648  28.916   1.837
25515W        W96115  32.959  20.132   4.318
25516W        W96116  16.099  41.335  14.322
25517W        W96117  35.683  38.972   2.995
25518W        W96118  23.009  14.281  10.584
25519W        W96119  14.275  28.135   1.922
25520W        W96120   1.881  36.742  14.482
25521W        W96121  41.751  22.659   4.281
25522W        W96122  44.386  32.792   4.694
25523W        W96123  43.454  43.998  13.999
25524W        W96124  30.453   2.370   3.599
25525W        W96125  28.682  44.989  12.412
25526W        W96126  32.493  35.444   4.899
25527W        W96127  30.014  10.168  11.938
25528W        W96128  10.428  23.514  11.379
25529W        W96129   4.841  30.660  14.373
25530W        W96130  24.721  35.506  14.254
25531W        W96131  41.849   2.440   4.294
25532W        W96132   5.286   6.352   2.565
25533W        W96133  36.122  25.823   5.119
25534W        W96134  26.022  34.900   4.531
25535W        W96135  33.528  37.586  14.990
25536W        W96136   1.873  15.134   1.250
25537W        W96137  40.542  43.997  13.128
25538W        W96138  23.194  44.904   2.311
25539W        W96139   6.973  19.647   1.274
25540W        W96140   6.211  44.331  10.989
25541W        W96141   7.907  32.799  14.119
25542W        W96142  26.489  39.585  12.087
25543W        W96143  42.881  15.654  11.976
25544W        W96144  31.562  43.551  11.576
25545W        W96145  20.610  23.556   2.252
25546W        W96146  14.308  17.388   3.181
25547W        W96147   2.503  34.228  14.350
25548W        W96148  40.290  19.380  13.099
25549W        W96149  24.598  30.099  13.915
25550W        W96150  26.441  11.689   3.010
25551W        W96151  26.284  13.288  12.079
25552W        W96152  37.230  31.397   0.758
25553W        W96153  35.154  24.636   3.172
25554W        W96154  18.330   2.956   4.128
25555W        W96155  16.123  17.792  13.033
25556W        W96156  31.721  22.980  10.692
25557W        W96157  21.844  22.592   3.419
25558W        W96158  16.756  44.204  12.831
25559W        W96159  25.448   7.365  14.093
25560W        W96160  11.988  15.463  14.561
25561W        W96161  32.828  10.207   4.205
25562W        W96162  31.202  32.915  13.105
25563W        W96163   5.320  30.497   2.075
25564W        W96164  42.764  44.789   3.496
25565W        W96165  17.135  23.521   1.004
25566W        W96166  10.072  19.366  10.632
25567W        W96167  23.970  19.610  13.224
25568W        W96168  34.158   1.758   0.312
25569W        W96169  17.005  38.771  13.564
25570W        W96170   8.244   2.167   1.687
25571W        W96171  14.183  17.336   0.515
25572W        W96172  12.241  33.901   4.296
25573W        W96173   5.893  33.632   3.689
25574W        W96174  12.023  31.664   0.920
25575W        W96175  25.116   3.807   3.700
25576W        W96176  44.455  28.101  13.862
25577W        W96177  41.075  35.374  12.438
25578W        W96178  19.871  34.267  14.910
25579W        W96179  37.869  29.829   4.947
25580W        W96180   2.844  17.740   1.441
25581W        W96181   2.296   7.439  10.781
25582W        W96182   5.140  25.759   4.326
25583W        W96183  21.067  24.702  14.723
25584W        W96184   2.242  20.137   3.339
25585W        W96185  38.548  10.405  11.197
25586W        W96186   4.543   4.386  14.866
25587W        W96187  40.027  43.800  13.085
25588W        W96188   4.483   6.654   3.269
25589W        W96189  33.085  21.483   3.152
25590W        W96190  30.657  13.309   4.896
25591W        W96191  17.724   9.331   3.815
25592W        W96192  25.634  21.004   0.414
25593W        W96193  27.406   7.678   3.382
25594W        W96194  29.019  41.563   4.128
25595W        W96195  16.059  19.058   0.876
25596W        W96196  19.800  32.962  11.480
25597W        W96197  30.600  44.174   3.333
25598W        W96198   6.081  41.303   4.140
25599W        W96199  36.518  31.262  13.844
25600W        W96200  41.372  28.491  10.935
25601W        W96201  39.251   1.340  12.095
25602W        W96202  34.282  32.679  11.572
25603W        W96203  18.128  19.052  12.961
25604W        W96204  30.964  42.120   5.024
25605W        W96205  20.975  15.127  12.361
25606W        W96206  32.425  21.017  13.330
25607W        W96207  23.780  17.619   2.682
25608W        W96208   1.868  34.903   0.826
25609W        W96209  24.988  32.353  12.881
25610W        W96210  20.942  22.694   0.183
25611W        W96211   9.413  31.957  12.925
25612W        W96212  34.133  39.125   3.871
25613W        W96213  41.471  35.421   3.380
25614W        W96214  35.167  37.873   1.307
25615W        W96215  16.800   8.179   2.743
25616W        W96216  31.942   4.344   0.661
25617W        W96217   4.437  18.881   0.038
25618W        W96218  12.265   0.219  14.948
25619W        W96219  17.569  41.289  13.955
25620W        W96220  38.347  26.055  10.682
25621W        W96221  22.456  16.253  14.407
25622W        W96222  21.163  38.130   1.837
25623W        W96223  15.855  32.654  14.963
25624W        W96224  13.559  42.782  14.051
25625W        W96225  35.858  39.082  14.756
25626W        W96226   8.114  18.213   3.578
25627W        W96227  11.143   1.187  14.890
25628W        W96228  44.199  40.795   2.843
25629W        W96229  10.261  31.876   2.296
25630W        W96230  21.665  44.999   0.288
25631W        W96231  36.781  10.297   1.387
25632W        W96232  17.342  42.950  13.299
25633W        W96233  22.010   4.397   2.315
25634W        W96234   2.045   5.327  12.063
25635W        W96235  30.025  26.489  13.366
25636W        W96236  12.179  13.860  14.273
25637W        W96237  41.477   3.710  10.402
25638W        W96238  40.387  27.358   2.701
25639W        W96239  20.579  26.007   1.738
25640W        W96240   7.120  16.228   3.743
25641W        W96241  12.701  38.909   0.955
25642W        W96242  15.870  14.660  14.877
25643W        W96243  16.790   7.699  10.707
25644W        W96244   1.122   4.056   4.139
25645W        W96245  26.163  10.744  14.421
25646W        W96246   9.188  22.207  12.464
25647W        W96247  16.672  22.058   4.243
25648W        W96248   6.358  19.553  10.450
25649W        W96249  31.595   3.910  13.060
25650W        W96250   7.814  32.153  14.847
25651W        W96251  21.066  19.786   1.168
25652W        W96252  24.076  25.988  12.903
25653W        W96253   0.967  37.151   3.488
25654W        W96254  34.573  14.406   4.286
25655W        W96255   3.977  11.384   2.907
25656W        W96256   8.170  23.733   2.792
25657W        W96257  11.590  35.410  12.637
25658W        W96258  38.729  22.971   4.196
25659W        W96259  40.897  26.740   2.547
25660W        W96260  17.861  37.281  14.290
25661W        W96261  42.509  40.068   0.807
25662W        W96262  44.777  28.741   4.409
25663W        W96263  17.635  31.127  14.703
25664W        W96264  20.350  13.336  11.635
25665W        W96265  15.777  26.505   1.279
25666W        W96266  28.609  22.212  14.712
25667W        W96267  31.361  42.420   2.680
25668W        W96268  31.620  31.797   2.265
25669W        W96269   3.322  23.001  12.026
25670W        W96270  28.567   5.790  14.287
25671W        W96271  28.236  26.155   3.834
25672W        W96272  15.694  32.187   1.734
25673W        W96273  41.926   2.019   4.627
25674W        W96274   3.891   6.257   1.468
25675W        W96275  41.300   1.457   0.682
25676W        W96276  17.862  18.980  11.143
25677W        W96277  23.040  42.097  14.805
25678W        W96278  34.999  14.113  14.867
25679W        W96279  39.271  20.724   2.893
25680W        W96280   9.157  14.031  13.404
25681W        W96281  27.970  30.840  11.191
25682W        W96282  10.433  27.419   3.688
25683W        W96283  40.810  16.657  11.463
25684W        W96284  27.035  41.599   3.682
25685W        W96285  44.589  30.465   2.720
25686W        W96286  23.061  12.157   0.037
25687W        W96287  11.929  32.012  14.540
25688W        W96288  36.930  29.905  10.684
25689W        W96289  32.968  35.947   1.224
25690W        W96290  10.894  24.279   1.244
25691W        W96291  30.027  28.345  14.947
25692W        W96292  28.050  38.272  11.561
25693W        W96293  25.515   0.713  13.947
25694W        W96294  37.494  22.434  12.549
25695W        W96295  19.301  22.163  14.125
25696W        W96296   6.665  33.939   2.840
25697W        W96297  20.205  44.683  14.736
25698W        W96298  17.886   5.884  14.520
25699W        W96299  17.274  17.778   2.816
25700W        W96300  27.767  10.813   3.754
25701W        W96301  34.970   3.853  11.024
25702W        W96302  44.468  18.662   1.316
25703W        W96303  37.385  33.056  12.599
25704W        W96304   0.978  12.350   2.927
25705W        W96305  20.980  27.609   1.810
25706W        W96306  29.326  12.224   4.354
25707W        W96307   2.977  24.731   1.882
25708W        W96308  15.766  21.606  12.561
25709W        W96309  23.800  31.087  11.242
25710W        W96310   7.184  13.499  13.988
25711W        W96311   5.730  40.515   0.057
25712W        W96312   1.265  39.340  14.586
25713W        W96313  41.499  44.308  14.982
25714W        W96314   4.743  28.050   1.822
25715W        W96315  40.627   5.494  11.593
25716W        W96316  37.429   2.187   4.557
25717W        W96317  34.104  42.834  12.465
25718W        W96318  33.481  33.385  12.120
25719W        W96319   8.369  28.156  13.553
25720W        W96320  10.711  38.547   2.603
25721W        W96321  18.202  17.083  11.151
25722W        W96322  36.392   7.451   4.287
25723W        W96323  35.650  41.008  11.939
25724W        W96324  12.101  28.419   3.651
25725W        W96325  23.511   9.412   0.474
25726W        W96326  23.049   8.270   0.929
25727W        W96327  27.743  24.859  13.603
25728W        W96328  13.524  16.048  13.843
25729W        W96329  41.819  24.944   2.372
25730W        W96330  22.477  42.003  12.359
25731W        W96331  23.559   1.795   2.795
25732W        W96332  15.911  12.507  12.364
25733W        W96333  34.848  13.093   1.214
25734W        W96334  36.646  14.676   1.684
25735W        W96335  42.769  27.089   1.170
25736W        W96336  27.999   5.995  12.036
25737W        W96337  39.378  33.093  10.661
25738W        W96338   8.962  24.451   0.370
25739W        W96339  17.667  19.437  11.326
25740W        W96340  35.336   9.901   2.428
25741W        W96341  36.334  35.774   0.326
25742W        W96342  12.985  30.628   4.182
25743W        W96343   5.773  20.181   2.833
25744W        W96344  43.735  15.686  12.393
25745W        W96345  22.699   9.439  11.708
25746W        W96346   6.941  36.762  13.248
25747W        W96347   5.671  12.189   2.474
25748W        W96348  35.399  26.196   3.224
25749W        W96349  42.922  10.393   1.820
25750W        W96350  24.026  18.294  13.331
25751W        W96351  14.144  33.112   1.869
25752W        W96352   6.424  21.533  13.010
25753W        W96353   1.765  27.901   3.708
25754W        W96354   7.226  14.672  12.868
25755W        W96355   6.930  17.346  13.447
25756W        W96356  36.156  17.928   0.235
25757W        W96357   8.789  16.134  10.951
25758W        W96358  28.178   1.908   2.855
25759W        W96359  37.469  25.658  10.399
25760W        W96360  21.747  27.716   2.625
25761W        W96361  10.047  25.726  12.065
25762W        W96362  26.644   2.561  11.547
25763W        W96363   9.919   7.725  11.530
25764W        W96364   3.708  22.513  12.387
25765W        W96365  30.146   5.211  13.943
25766W        W96366  13.388  36.389   5.021
25767W        W96367   2.288  19.196   2.803
25768W        W96368  27.446  10.384   1.839
25769W        W96369   9.353  15.342  11.046
25770W        W96370  26.705  12.095   4.693
25771W        W96371  43.454  20.518   2.697
25772W        W96372  10.716  21.530  11.097
25773W        W96373  16.525  40.829  12.025
25774W        W96374  12.096  10.593   0.363
25775W        W96375   5.173  33.003  13.469
25776W        W96376  22.343   9.070  12.712
25777W        W96377  13.712  15.366  11.819
25778W        W96378  34.505  43.917   1.400
25779W        W96379  10.196  42.769  12.007
25780W        W96380  32.377   8.349  13.474
25781W        W96381  14.619  24.703   0.927
25782W        W96382  23.248   0.256  14.042
25783W        W96383   4.248  26.418  10.425
25784W        W96384  24.606  11.084  11.147
25785W        W96385  33.044  27.952  13.134
25786W        W96386  17.283  43.284   0.506
25787W        W96387  13.274  44.359  13.477
25788W        W96388   2.659   0.971   2.314
25789W        W96389   2.147  24.040   5.174
25790W        W96390  31.944   4.307   3.578
25791W        W96391  34.086  21.742  14.737
25792W        W96392  21.555  37.875  12.576
25793W        W96393  24.624  19.811   0.483
25794W        W96394  14.372  15.396  10.233
25795W        W96395  21.797  35.021   4.225
25796W        W96396  34.756  30.886   0.323
25797W        W96397  21.118  18.285  14.533
25798W        W96398  42.509  32.659  14.559
25799W        W96399   6.664  28.337   3.849
25800W        W96400  30.658  15.863  14.984
25801W        W96401  34.918  33.376  11.258
25802W        W96402  36.178   9.825  14.916
25803W        W96403  13.106  12.270  13.742
25804W        W96404  30.984  11.287  11.327
25805W        W96405  23.319   9.350  13.848
25806W        W96406   1.503  27.198  12.469
25807W        W96407  41.831  36.801   4.517
25808W        W96408  41.066  24.080   4.216
25809W        W96409  32.209  16.091  10.996
25810W        W96410  10.247  26.716  14.486
25811W        W96411  18.341  17.703   1.822
25812W        W96412  35.088   2.450  10.981
25813W        W96413  39.755  16.982   1.979
25814W        W96414  28.512  11.856  14.032
25815W        W96415  29.023  10.663   3.640
25816W        W96416   7.238  19.927  10.796
25817W        W96417  12.832  11.363  14.629
25818W        W96418   1.977   5.406   2.220
25819W        W96419  18.011  36.682  14.897
25820W        W96420  23.044  40.412   4.324
25821W        W96421  27.655  10.511   2.373
25822W        W96422  23.486  22.323  11.118
25823W        W96423   4.201  28.995  14.025
25824W        W96424  19.177  16.177  11.472
25825W        W96425  38.034  29.222   2.761
25826W        W96426  28.010  22.536  10.910
25827W        W96427  14.625  16.174   2.627
25828W        W96428  34.902   3.417   2.216
25829W        W96429   3.484   2.305  11.144
25830W        W96430   5.310  19.949   2.711
25831W        W96431  24.486  16.005   2.980
25832W        W96432  12.388  12.144   4.200
25833W        W96433   2.786   4.961  12.542
25834W        W96434  17.082  39.564  11.668
25835W        W96435   9.479  16.861  12.601
25836W        W96436  17.031  29.965  13.540
25837W        W96437  14.813  20.639   3.882
25838W        W96438  37.818  23.540  13.344
25839W        W96439  25.432  36.058   0.036
25840W        W96440  16.190  28.493   3.647
25841W        W96441   9.819  19.687  12.028
25842W        W96442   4.407  41.546  12.305
25843W        W96443  27.649  16.378  11.602
25844W        W96444  25.613  38.083  14.809
25845W        W96445  15.641  28.947   3.791
25846W        W96446  34.928  44.569  10.933
25847W        W96447  32.157  33.857   1.387
25848W        W96448  28.087  30.303  11.989
25849W        W96449  32.505  24.113  12.983
25850W        W96450  28.153  15.650   0.363
25851W        W96451  11.029   1.895   3.094
25852W        W96452  44.996  31.098  12.485
25853W        W96453  13.035   4.192  13.210
25854W        W96454  31.859  24.126   3.162
25855W        W96455   1.115   8.703   2.123
25856W        W96456   6.935  33.564   4.624
25857W        W96457   0.066  34.449  11.680
25858W        W96458   9.860   5.419   2.344
25859W        W96459   7.555  17.723  11.599
25860W        W96460   2.375  42.918  13.385
25861W        W96461  41.140   6.806   0.039
25862W        W96462  27.719  22.141  11.465
25863W        W96463  10.326  25.125  12.980
25864W        W96464  21.036   4.355  12.132
25865W        W96465  26.645  11.651  14.361
25866W        W96466  19.722   9.604   1.712
25867W        W96467   5.349  43.229   3.109
25868W        W96468  21.100  14.882   0.461
25869W        W96469  40.971  26.047  11.980
25870W        W96470  20.482   6.826   0.954
25871W        W96471  18.330  36.930   2.955
25872W        W96472  23.452  33.467   3.810
25873W        W96473  41.794   1.251  12.433
25874W        W96474  42.465   3.185  14.327
25875W        W96475   8.913   1.135  10.652
25876W        W96476  44.965   1.023  14.078
25877W        W96477   3.830  31.930  11.684
25878W        W96478  32.520  40.417  11.739
25879W        W96479  39.904  16.694   1.075
25880W        W96480   3.835  13.995  11.306
25881W        W96481  14.823  35.605   1.421
25882W        W96482   9.433  40.294  11.552
25883W        W96483   7.284  18.021   3.723
25884W        W96484  27.155   5.003  11.583
25885W        W96485  18.445  33.527  13.378
25886W        W96486  40.678  41.837   1.789
25887W        W96487  17.352  34.056   3.541
25888W        W96488  41.774  18.027  11.613
25889W        W96489  12.726  14.089   9.582
25890W        W96490  40.528  10.797   1.807
25891W        W96491  14.358  35.442   3.224
25892W        W96492  42.811  34.059   0.728
25893W        W96493  40.951  28.962  13.575
25894W        W96494  38.528  44.225   0.152
25895W        W96495  29.690  39.402   0.309
25896W        W96496  34.845  18.622  12.033
25897W        W96497  44.288  11.349   2.239
25898W        W96498  11.431  35.465  12.134
25899W        W96499  26.069  44.889  10.763
25900W        W96500  19.358   0.451  14.912
25901W        W96501  22.501  11.370  11.143
25902W        W96502   8.151   2.436  14.417
25903W        W96503   7.312  14.204   4.407
25904W        W96504   1.297  23.458  11.564
25905W        W96505   3.072  24.617   4.913
25906W        W96506   7.600  32.086  10.755
25907W        W96507  40.982  26.592  11.632
25908W        W96508   6.202  40.588  11.856
25909W        W96509  39.893  35.395  11.668
25910W        W96510  44.415  34.891   2.212
25911W        W96511  31.756  11.537   2.349
25912W        W96512  11.789  12.615  13.426
25913W        W96513  26.535  37.983  13.738
25914W        W96514  32.955  43.029   1.556
25915W        W96515  11.833   0.138   0.462
25916W        W96516  15.598  21.621  14.954
25917W        W96517  31.427  28.895  13.548
25918W        W96518  10.681  31.938  10.467
25919W        W96519  17.705  34.719   2.322
25920W        W96520  34.909  32.492   3.489
25921W        W96521  42.018  20.278   0.012
25922W        W96522  12.361  15.830   0.996
25923W        W96523   8.892  38.001  12.951
25924W        W96524   0.276  37.227  14.391
25925W        W96525  35.520  31.071   4.788
25926W        W96526  34.918   6.123   3.695
25927W        W96527   1.993  17.625   2.374
25928W        W96528  21.798  13.077  11.947
25929W        W96529  14.371   3.928  12.533
25930W        W96530   2.455  27.959   2.681
25931W        W96531  26.892  24.692   2.279
25932W        W96532  28.994   0.395   1.189
25933W        W96533  39.863  39.378  12.872
25934W        W96534   9.700   3.757   2.481
25935W        W96535  14.141  33.951  14.480
25936W        W96536  37.039  43.028   4.205
25937W        W96537  25.101  15.636  11.531
25938W        W96538  27.984  33.245   4.160
25939W        W96539   8.425  20.991  11.746
25940W        W96540  25.452  24.098   1.813
25941W        W96541  39.880  15.691   2.258
25942W        W96542  28.026  28.965   2.225
25943W        W96543  31.081  18.679   4.381
25944W        W96544   8.266  28.227  11.457
25945W        W96545  41.994  35.979  14.490
25946W        W96546   3.234   8.166   2.367
25947W        W96547  12.738  44.063  10.188
25948W        W96548   6.806  43.449  11.635
25949W        W96549   3.322  14.569   0.871
25950W        W96550  38.572  37.464  10.609
25951W        W96551  13.288   4.263   0.950
25952W        W96552   1.419  19.021   1.393
25953W        W96553  18.809  12.392  11.227
25954W        W96554  20.106  25.610   4.479
25955W        W96555   4.212  16.048   4.064
25956W        W96556  36.381  21.772  14.350
25957W        W96557  39.117  26.732  14.919
25958W        W96558  18.902  27.916   2.316
25959W        W96559  40.664  33.966  10.586
25960W        W96560  13.791  41.855  12.966
25961W        W96561  44.266  26.012   2.299
25962W        W96562  17.338  26.689   1.834
25963W        W96563  10.567   0.684   4.286
25964W        W96564   4.016   4.699  12.958
25965W        W96565  42.211   9.491  13.991
25966W        W96566  24.470  22.602   3.771
25967W        W96567  42.890  24.697  11.443
25968W        W96568  25.485  36.531  13.896
25969W        W96569  22.783  13.286   2.841
25970W        W96570  37.214   0.476  11.909
25971W        W96571  43.208   0.771   2.322
25972W        W96572  42.909  17.883  14.432
25973W        W96573  22.726  36.560   0.842
25974W        W96574  34.532  25.394   2.660
25975W        W96575   8.848  29.748  13.961
25976W        W96576  44.734  34.412  11.293
25977W        W96577   0.448  44.936   4.176
25978W        W96578  20.491  15.127   3.252
25979W        W96579  24.209   3.296   2.761
25980W        W96580  31.335  22.648  12.068
25981W        W96581  17.516  32.987  12.076
25982W        W96582   0.777  32.463  14.784
25983W        W96583  14.128  13.397   0.465
25984W        W96584  41.436  11.270   2.865
25985W        W96585   4.197  17.587  13.596
25986W        W96586  29.576  19.625   1.715
25987W        W96587  43.268  32.997  12.948
25988W        W96588  34.380  42.342  14.145
25989W        W96589   9.142  13.068   5.142
25990W        W96590  34.174  28.433   1.946
25991W        W96591  28.702  40.302   0.469
25992W        W96592  10.333  27.565   2.316
25993W        W96593  15.585  27.641  11.185
25994W        W96594  41.869  25.230   1.739
25995W        W96595   5.757   3.132   1.411
25996W        W96596   6.797  38.336  12.105
25997W        W96597   5.045  25.226  11.698
25998W        W96598   1.685  27.526  14.376
25999W        W96599  19.618  44.614  14.114
26000W        W96600  30.320  27.061  13.847
26001W        W96601  34.610  17.130  13.491
26002W        W96602  14.259  36.312   3.031
26003W        W96603  12.558  15.747  12.461
26004W        W96604  20.207  31.579   1.818
26005W        W96605   0.664  30.847  11.909
26006W        W96606   3.537  43.035  10.403
26007W        W96607   9.670  10.696   0.291
26008W        W96608  39.583  37.159   1.332
26009W        W96609  37.583  16.104   3.210
26010W        W96610   3.037   5.750   4.646
26011W        W96611  31.695   1.529   3.308
26012W        W96612  42.545   6.816  14.719
26013W        W96613  32.756  30.161   3.787
26014W        W96614  11.710  19.421  10.904
26015W        W96615   7.157  26.158   2.727
26016W        W96616   0.988  29.691   3.726
26017W        W96617   9.318  17.399   3.049
26018W        W96618   6.435   6.656   1.300
26019W        W96619  10.867  33.149  11.931
26020W        W96620  24.672  11.770   3.870
26021W        W96621  29.200  31.418   4.134
26022W        W96622  38.581  11.947   1.796
26023W        W96623  14.532  30.292   0.461
26024W        W96624   6.548  28.751   1.882
26025W        W96625  25.230  14.723  11.533
26026W        W96626  25.453   6.436   4.112
26027W        W96627  21.266  30.619   0.362
26028W        W96628  25.890  11.305   3.769
26029W        W96629   0.285  34.929  11.525
26030W        W96630  31.260  21.996  14.838
26031W        W96631   2.388  26.919   2.718
26032W        W96632  27.907  22.817   1.266
26033W        W96633  33.644   5.292  11.198
26034W        W96634  34.476  24.969  12.570
26035W        W96635   0.346  20.693   2.148
26036W        W96636  41.873  37.609   2.296
26037W        W96637   9.792   1.972  11.538
26038W        W96638  22.054  31.644   3.629
26039W        W96639  17.796  23.456   1.738
26040W        W96640  28.152  26.475  11.623
26041W        W96641  20.351   0.980   2.718
26042W        W96642  14.258  30.206  11.173
26043W        W96643  31.876  13.916  11.553
26044W        W96644  16.592  19.792   2.336
26045W        W96645  29.477  41.007  14.408
26046W        W96646  11.710  40.773   4.671
26047W        W96647  23.991  26.215  11.097
26048W        W96648  42.006  33.648   2.444
26049W        W96649  29.062  19.054  13.397
26050W        W96650  39.427  40.092  10.651
26051W        W96651  36.761  35.038   4.680
26052W        W96652   9.786  38.384  14.399
26053W        W96653  11.886  18.320  14.875
26054W        W96654  21.364  28.283  14.763
26055W        W96655  24.468  27.686  12.963
26056W        W96656  38.817  40.766  11.624
26057W        W96657  32.645  42.343  13.572
26058W        W96658  30.800  15.299   0.862
26059W        W96659  41.013  32.646   4.507
26060W        W96660  21.101  26.490  14.580
26061W        W96661  10.615  42.847  13.374
26062W        W96662  12.663  11.301   0.109
26063W        W96663  16.364   9.539  11.912
26064W        W96664  27.189   3.113  10.834
26065W        W96665  41.810  44.080   1.685
26066W        W96666  40.122   5.748   2.218
26067W        W96667  24.182  27.345  14.961
26068W        W96668  20.344  42.937   3.656
26069W        W96669  20.807  40.779   4.661
26070W        W96670  41.803  14.076   3.576
26071W        W96671  28.361  42.757  12.369
26072W        W96672  39.528  13.379  10.984
26073W        W96673  40.277  39.956  10.288
26074W        W96674  21.817   1.412   2.004
26075W        W96675  40.728  38.491   3.831
26076W        W96676  40.255  28.029  10.168
26077W        W96677   2.354   6.144  14.442
26078W        W96678  16.265  23.689  10.950
26079W        W96679  14.209  29.895  10.769
26080W        W96680  29.864  41.756   1.682
26081W        W96681  25.040   2.408   3.270
26082W        W96682   9.281   8.928   2.641
26083W        W96683  23.313  41.245   0.890
26084W        W96684   8.284  44.325  13.361
26085W        W96685  32.633  18.800  11.039
26086W        W96686  44.777  17.778  12.009
26087W        W96687  29.050  21.887   1.328
26088W        W96688  40.937  33.779  13.923
26089W        W96689  42.762   0.951  10.936
26090W        W96690   7.070   0.307   0.467
26091W        W96691  42.388  32.651  12.007
26092W        W96692  29.993  41.263   1.583
26093W        W96693  18.954  24.423   2.118
26094W        W96694  15.185   1.150  11.586
26095W        W96695  41.984   6.897   1.790
26096W        W96696   1.237  38.330  10.691
26097W        W96697  20.190  12.344  10.582
26098W        W96698   9.739  41.696   2.836
26099W        W96699  29.238  38.721  12.692
26100W        W96700  19.975  30.323  14.943
26101W        W96701  42.368  33.909  12.572
26102W        W96702  39.338  22.250   2.246
26103W        W96703   3.193  21.624   0.471
26104W        W96704  20.697  12.811  10.869
26105W        W96705  10.579  24.190   1.677
26106W        W96706  37.013   2.218   0.053
26107W        W96707   3.896  20.017   4.382
26108W        W96708  36.665  16.245   1.766
26109W        W96709  37.975  33.123   4.498
26110W        W96710  14.776  41.150   4.133
26111W        W96711   2.780  11.837   0.897
26112W        W96712  39.339  15.557  11.225
26113W        W96713  34.099  40.079   1.782
26114W        W96714  20.002  24.614  11.404
26115W        W96715  12.240  40.794  10.620
26116W        W96716   0.931  44.175  12.573
26117W        W96717  25.867  41.317   3.071
26118W        W96718  42.221  35.070  10.594
26119W        W96719  36.928  24.052  12.295
26120W        W96720  27.879   5.765   4.856
26121W        W96721  27.181  13.505  14.046
26122W        W96722  13.884   5.686  10.567
26123W        W96723  17.293  37.520   2.186
26124W        W96724   1.685  12.633  11.584
26125W        W96725   5.244  15.565  10.736
26126W        W96726  10.286  33.474  12.084
26127W        W96727  18.145  32.144  14.017
26128W        W96728   3.377  29.987   0.699
26129W        W96729  43.517  24.534   1.176
26130W        W96730  23.483  30.473  11.697
26131W        W96731  41.959  16.718  12.021
26132W        W96732  11.723  40.499   4.213
26133W        W96733  20.576  17.559   0.354
26134W        W96734   3.896  41.125   2.704
26135W        W96735  40.965  31.895  13.830
26136W        W96736   2.501  11.717   1.734
26137W        W96737   9.811   7.928   3.200
26138W        W96738  39.957  38.958  11.678
26139W        W96739  33.513  34.591  13.551
26140W        W96740  12.329   6.609  13.895
26141W        W96741   1.494  44.803  13.353
26142W        W96742  27.210  25.252   5.016
26143W        W96743   0.028   8.622   2.906
26144W        W96744  35.730  10.129   4.079
26145W        W96745  15.311  30.170   3.428
26146W        W96746   3.266  22.216   2.865
26147W        W96747  21.264   7.703   2.888
26148W        W96748  22.948   3.081  11.275
26149W        W96749  38.154   0.985   0.448
26150W        W96750  23.611  34.888   0.312
26151W        W96751  23.794  33.031  11.155
26152W        W96752  17.329  14.935  11.236
26153W        W96753  30.114  11.874  13.374
26154W        W96754  39.949  10.236   0.489
26155W        W96755  17.320   8.197  11.389
26156W        W96756  10.242   2.593  11.871
26157W        W96757  19.551  26.466  14.499
26158W        W96758  31.935  16.335   0.071
26159W        W96759  32.097  28.420  13.024
26160W        W96760  42.964  22.140   2.151
26161W        W96761  38.123  40.815   3.202
26162W        W96762   0.888  43.492  13.989
26163W        W96763  44.965   4.830  13.068
26164W        W96764  32.093  13.499  12.360
26165W        W96765  22.524   0.051   3.120
26166W        W96766  44.916  31.845   0.231
26167W        W96767  30.447  14.014   2.994
26168W        W96768   1.190   3.423  10.709
26169W        W96769   3.443  10.633   1.940
26170W        W96770  12.737  35.067  11.154
26171W        W96771  32.874  26.559   0.022
26172W        W96772  40.527  14.837   2.156
26173W        W96773   2.209  28.662  13.783
26174W        W96774   1.353  22.836   4.641
26175W        W96775  33.301   9.329   1.985
26176W        W96776   5.687  15.781  12.139
26177W        W96777  15.109  25.433  14.838
26178W        W96778  20.075  31.490   2.349
26179W        W96779  15.224  13.156  11.447
26180W        W96780  11.681  42.331   0.424
26181W        W96781  33.220  43.390   0.129
26182W        W96782  22.650  19.324   3.785
26183W        W96783  44.524  11.350   1.781
26184W        W96784  10.822  28.553  14.420
26185W        W96785  41.046   3.762  12.990
26186W        W96786   9.130  30.968  13.886
26187W        W96787  11.632  10.259  11.126
26188W        W96788  35.718  10.722  10.692
26189W        W96789  37.397  28.189  13.995
26190W        W96790  16.676  41.373   2.836
26191W        W96791   9.062   3.290  13.383
26192W        W96792  15.098  14.103  12.390
26193W        W96793   4.986   7.236  12.456
26194W        W96794  26.607  16.025   3.298
26195W        W96795  15.711  41.180  11.307
26196W        W96796  37.492  13.824   0.906
26197W        W96797  35.995  21.739  10.516
26198W        W96798   9.888  31.835   1.286
26199W        W96799  24.050  32.918  12.378
26200W        W96800  41.271  15.147  10.815
26201W        W96801   9.321  31.981   2.636
26202W        W96802   2.582  23.461   0.057
26203W        W96803  15.888  31.371   1.930
26204W        W96804  43.454   2.383  10.853
26205W        W96805  14.904   7.846   0.496
26206W        W96806   3.838  23.749  13.996
26207W        W96807  20.689  30.982   3.926
26208W        W96808  28.159   2.384  13.013
26209W        W96809  30.956  33.909   4.552
26210W        W96810  26.419  27.453   3.306
26211W        W96811  27.242  41.112  13.011
26212W        W96812  22.986  17.705  14.005
26213W        W96813   2.997  22.578   1.006
26214W        W96814  38.545  43.350   3.285
26215W        W96815  40.590  24.945  13.850
26216W        W96816  28.136   9.072   2.514
26217W        W96817  31.432   3.130   2.041
26218W        W96818  20.992  37.966  13.900
26219W        W96819   6.390  13.209  14.246
26220W        W96820   6.482  30.047  13.896
26221W        W96821   7.112  11.290   1.456
26222W        W96822   1.027  33.862  11.025
26223W        W96823  13.709  11.116  14.550
26224W        W96824   6.868  31.802  14.342
26225W        W96825  24.415  17.202   3.740
26226W        W96826  27.498  37.384   3.173
26227W        W96827  13.181  13.226   4.433
26228W        W96828  13.937  28.256  10.611
26229W        W96829  10.103   7.185  12.627
26230W        W96830  39.391   8.429  12.488
26231W        W96831  29.836  32.386   1.843
26232W        W96832  43.386  39.743  11.613
26233W        W96833  10.708   8.870  12.376
26234W        W96834  28.509  32.801   3.565
26235W        W96835   6.631  35.832  13.303
26236W        W96836  18.376  12.131  13.591
26237W        W96837   6.216  17.292  13.004
26238W        W96838  41.102  10.884   3.087
26239W        W96839  15.279  31.541   1.365
26240W        W96840   4.459  16.123   3.129
26241W        W96841  21.973  42.184  13.501
26242W        W96842  18.236  36.105  13.141
26243W        W96843  11.452  27.088  12.049
26244W        W96844  42.798  25.475   0.213
26245W        W96845  20.994  21.112   4.496
26246W        W96846  12.270  23.116   4.624
26247W        W96847   8.921  41.428   3.413
26248W        W96848   7.435  41.941   1.994
26249W        W96849   0.839  27.106  10.671
26250W        W96850  31.459  44.341  13.374
26251W        W96851  24.657  25.649   0.301
26252W        W96852  38.536  25.161  10.707
26253W        W96853  44.415  40.781   2.339
26254W        W96854   4.019  28.010  11.083
26255W        W96855  34.155   2.868  13.629
26256W        W96856  18.751  10.969   0.466
26257W        W96857  42.725   8.817  12.460
26258W        W96858  44.345  35.437  13.964
26259W        W96859   3.371  42.222   2.998
26260W        W96860  39.525  20.295  13.411
26261W        W96861   9.664   5.408  10.639
26262W        W96862  13.259  34.951   1.757
26263W        W96863  27.593  14.661  12.084
26264W        W96864   7.584  19.257   2.364
26265W        W96865  24.910  31.983  10.735
26266W        W96866  15.374  37.954   3.182
26267W        W96867   4.346  23.271   1.291
26268W        W96868  29.655  35.575  12.351
26269W        W96869  30.368   9.805   2.684
26270W        W96870  44.475  32.002   4.897
26271W        W96871  37.103   9.790  12.445
26272W        W96872  17.037  24.164   4.631
26273W        W96873  42.998  44.089   2.768
26274W        W96874  34.179   6.077  11.621
26275W        W96875  21.267  38.702   0.361
26276W        W96876  21.710  24.216   3.799
26277W        W96877  19.115  23.042  11.525
26278W        W96878   2.501   6.363   0.897
26279W        W96879   2.475  44.325  10.795
26280W        W96880  19.304  34.599  11.629
26281W        W96881   2.961  25.175  14.975
26282W        W96882   0.397  38.437   3.800
26283W        W96883   8.610  20.183   1.727
26284W        W96884  31.180  35.281   0.339
26285W        W96885  42.240  37.803  12.627
26286W        W96886   7.953  28.706   0.916
26287W        W96887  32.828  40.018   1.020
26288W        W96888  38.998  19.909   4.083
26289W        W96889  11.103  43.820   0.920
26290W        W96890   4.967  14.358   4.214
26291W        W96891  28.077   8.898  12.892
26292W        W96892  26.322   3.970   0.836
26293W        W96893  13.314  35.447   1.055
26294W        W96894  15.081  39.358  13.866
26295W        W96895  37.004  30.339   2.275
26296W        W96896   2.992  11.229  14.947
26297W        W96897  33.134   8.704   0.884
26298W        W96898  40.988   4.193   3.582
26299W        W96899  15.857  26.685   1.814
26300W        W96900   2.849   7.921   3.782
26301W        W96901  32.014  17.250  11.631
26302W        W96902  38.820  35.886   1.433
26303W        W96903  41.111   2.340  13.045
26304W        W96904  25.667  31.929  13.986
26305W        W96905  30.440  29.494  11.983
26306W        W96906   4.670   1.602   4.862
26307W        W96907  37.406  12.428   0.268
26308W        W96908  24.300   9.273  12.445
26309W        W96909  43.756   9.345   4.663
26310W        W96910  42.278  20.981   3.709
26311W        W96911  25.595  12.605   4.148
26312W        W96912  40.904  40.839   0.423
26313W        W96913  44.462  43.459   2.245
26314W        W96914  39.068  24.404   0.929
26315W        W96915  44.370   1.449   3.756
26316W        W96916   3.786   0.945  13.057
26317W        W96917  11.859   0.374  12.888
26318W        W96918   4.871   3.236  11.478
26319W        W96919   2.756  40.907   1.960
26320W        W96920  15.361  31.269  14.606
26321W        W96921   3.970  39.821   3.388
26322W        W96922   9.167  14.584   2.728
26323W        W96923  44.906   5.711   3.773
26324W        W96924  10.075  41.282   4.206
26325W        W96925  29.431   3.832  12.113
26326W        W96926  19.703  22.491   4.701
26327W        W96927  30.400  35.861   3.245
26328W        W96928   4.347   6.880  14.988
26329W        W96929  41.852   2.754  12.777
26330W        W96930  22.609  44.561   0.588
26331W        W96931  21.039  32.670   3.499
26332W        W96932  43.701  23.694  14.506
26333W        W96933  15.418  27.567   5.165
26334W        W96934  31.596   1.864   4.586
26335W        W96935  18.833  25.362   0.316
26336W        W96936  28.503  34.805   1.920
26337W        W96937   6.917   8.163   3.665
26338W        W96938  39.593   6.007  14.519
26339W        W96939   4.315  28.489  14.094
26340W        W96940  39.479  22.326  13.430
26341W        W96941  40.153  12.867   3.364
26342W        W96942   2.964  25.387  11.194
26343W        W96943  42.143  26.632   2.721
26344W        W96944  38.372  42.944   0.106
26345W        W96945   5.704  43.770   2.835
26346W        W96946  40.719   3.244  14.719
26347W        W96947  25.641  16.631  12.496
26348W        W96948  27.856  14.528  12.497
26349W        W96949  42.978  15.160  10.676
26350W        W96950  28.397  13.137  11.530
26351W        W96951   6.472  40.318   1.217
26352W        W96952   8.691  27.282  13.896
26353W        W96953  32.692  40.017  13.844
26354W        W96954  15.116  28.190   2.943
26355W        W96955  37.509  23.959   3.726
26356W        W96956  20.246   9.666  10.677
26357W        W96957   7.153  32.608   0.490
26358W        W96958  35.535   7.931   0.309
26359W        W96959  17.860  33.095   2.748
26360W        W96960  40.602  37.363  11.934
26361W        W96961   5.673  39.438   2.762
26362W        W96962  31.694  28.893  14.466
26363W        W96963   8.862   2.058   4.592
26364W        W96964   4.228  27.649   4.569
26365W        W96965  23.112  14.760  12.155
26366W        W96966   0.882  33.828   2.326
26367W        W96967  30.230   4.748  14.113
26368W        W96968  40.203  32.917   4.635
26369W        W96969  22.951  25.518  12.894
26370W        W96970  24.063  21.465   4.101
26371W        W96971  24.476  22.346   2.711
26372W        W96972  29.239  13.747   2.126
26373W        W96973   4.189  20.341   1.543
26374W        W96974  29.400  35.783   3.201
26375W        W96975  11.966  12.665  14.906
26376W        W96976  15.579  33.923   0.442
26377W        W96977   5.442  36.113  12.109
26378W        W96978  29.446  42.221   2.320
26379W        W96979  43.270  23.568   1.372
26380W        W96980   4.723  40.572  14.129
26381W        W96981  22.154  33.826   2.915
26382W        W96982  27.116   1.732  13.826
26383W        W96983  40.753   9.415   3.163
26384W        W96984  21.946  12.287  14.517
26385W        W96985  37.048   9.143   2.214
26386W        W96986  27.078  42.065   0.829
26387W        W96987  23.910   8.191  13.854
26388W        W96988  11.389   4.642  14.913
26389W        W96989  34.798  20.566   1.330
26390W        W96990  28.222  24.248   4.985
26391W        W96991  22.667   9.779   3.096
26392W        W96992  20.667  13.175  14.340
26393W        W96993  12.201   5.448  13.273
26394W        W96994   4.526   5.668  14.121
26395W        W96995   0.406  32.622  10.757
26396W        W96996  39.328  23.083  11.583
26397W        W96997  36.359  26.574   0.194
26398W        W96998  43.456  37.316  14.911
26399W        W96999  34.976  42.993  14.055
26400W        W97000  20.051  15.220   1.362
26401W        W97001  15.834  23.435  13.407
26402W        W97002  40.698  39.552  13.363
26403W        W97003  19.171  28.089   2.774
26404W        W97004  41.458  24.272  11.706
26405W        W97005  18.535   9.379   3.628
26406W        W97006   0.346  23.226  13.070
26407W        W97007   6.403   9.202   0.765
26408W        W97008  43.423  29.270   0.386
26409W        W97009  34.768  22.971   4.631
26410W        W97010  30.972  15.936   4.188
26411W        W97011  28.508  24.199  14.766
26412W        W97012   3.754  15.269  12.911
26413W        W97013  37.816  39.394  11.685
26414W        W97014  40.005  43.381  10.496
26415W        W97015  25.976  25.446  13.783
26416W        W97016  10.624  22.250  13.918
26417W        W97017  13.926   6.770  13.743
26418W        W97018  23.334  29.550   4.291
26419W        W97019  19.513   7.063  11.149
26420W        W97020  26.474  42.312  10.708
26421W        W97021  14.350  34.372   1.365
26422W        W97022  10.240  31.180   3.219
26423W        W97023  22.650   4.016   2.885
26424W        W97024  27.998  30.401   0.797
26425W        W97025  26.375  41.372   9.804
26426W        W97026   2.713  21.054  12.631
26427W        W97027  42.555  37.123   3.277
26428W        W97028  43.163   7.750   0.829
26429W        W97029  16.597   7.208   0.507
26430W        W97030  12.957  11.457  14.124
26431W        W97031  39.661  19.438  13.076
26432W        W97032   5.198  17.825   0.856
26433W        W97033  39.500  17.563   4.446
26434W        W97034  40.982  33.985  11.918
26435W        W97035   7.728   6.730   4.314
26436W        W97036   4.565   1.488   3.055
26437W        W97037  23.894   5.473   3.077
26438W        W97038   0.757  17.127   3.662
26439W        W97039  31.056  20.455  13.791
26440W        W97040  38.924   5.345  12.048
26441W        W97041  42.013   9.497   0.763
26442W        W97042  30.845  33.786  13.525
26443W        W97043   4.045  31.577   3.200
26444W        W97044  34.553   9.188  11.101
26445W        W97045   3.469  36.094   3.084
26446W        W97046  21.001  16.310  14.507
26447W        W97047  16.210  10.838   1.819
26448W        W97048  39.600  41.946   4.165
26449W        W97049  38.816   4.799  11.205
26450W        W97050  23.063   1.288   0.893
26451W        W97051  44.542  35.050   0.656
26452W        W97052  30.217  13.382   1.290
26453W        W97053  23.056  16.021  10.939
26454W        W97054  14.055  20.358  14.027
26455W        W97055  33.948   3.209  12.663
26456W        W97056   8.046  14.368  10.547
26457W        W97057  27.645  31.004  11.546
26458W        W97058  13.885   6.073   0.371
26459W        W97059   8.601   6.367  11.987
26460W        W97060  23.517   7.174  13.387
26461W        W97061  16.416  17.263  10.689
26462W        W97062  23.786   1.428   1.468
26463W        W97063   0.022  35.101   2.880
26464W        W97064  17.555   4.916   0.359
26465W        W97065  18.292  33.463   0.779
26466W        W97066   0.712  40.494   3.979
26467W        W97067   6.681  32.362   4.807
26468W        W97068   0.291  39.478  10.642
26469W        W97069  28.751  26.564  14.996
26470W        W97070  35.551  44.251  13.371
26471W        W97071   9.795  13.726  11.435
26472W        W97072  40.907   4.389   0.335
26473W        W97073   9.856  44.302   4.515
26474W        W97074  10.658  19.881  12.608
26475W        W97075   5.444  21.822  13.903
26476W        W97076  10.275  17.709  14.910
26477W        W97077  38.472  11.215   0.246
26478W        W97078  40.477  38.496  12.940
26479W        W97079  33.861  23.003  11.475
26480W        W97080  44.863  12.924   2.668
26481W        W97081   6.612  25.979   3.432
26482W        W97082  37.901  40.576   1.793
26483W        W97083  37.228  13.244   3.253
26484W        W97084   1.881  40.966  11.574
26485W        W97085   0.925  35.638   3.682
26486W        W97086  38.533   6.847   3.569
26487W        W97087  25.911  21.295  14.310
26488W        W97088   7.271  22.144   4.142
26489W        W97089  30.341  33.776   4.971
26490W        W97090  22.127  29.285  12.360
26491W        W97091  37.051  19.251   3.210
26492W        W97092  22.907  28.651  12.160
26493W        W97093  39.036  10.791  12.384
26494W        W97094  26.244   1.280  12.857
26495W        W97095  36.939  18.102   4.091
26496W        W97096  35.452  44.639  10.813
26497W        W97097  14.812  37.011  12.987
26498W        W97098  33.441  42.011   0.879
26499W        W97099  19.892  43.859  10.652
26500W        W97100   9.540  20.774   4.914
26501W        W97101  29.646  43.391  10.756
26502W        W97102   7.652  33.135   2.746
26503W        W97103  39.971  15.184   2.727
26504W        W97104  32.442   1.996  14.308
26505W        W97105  39.011  43.753  12.994
26506W        W97106  17.653  24.501  11.521
26507W        W97107  31.129  31.545   4.943
26508W        W97108  17.687  13.019  12.278
26509W        W97109  14.811  19.341   2.262
26510W        W97110  17.142  41.174   2.747
26511W        W97111   7.003   4.958  14.981
26512W        W97112  28.702  43.583  12.033
26513W        W97113  14.403  23.978  14.350
26514W        W97114  37.424  33.469  13.001
26515W        W97115   9.762   0.047  11.577
26516W        W97116  33.357  33.968  11.118
26517W        W97117   6.649  37.762  13.352
26518W        W97118  22.921  25.090   0.959
26519W        W97119  33.556   2.275   2.215
26520W        W97120   0.579  26.245  12.943
26521W        W97121  25.129  32.324  11.030
26522W        W97122  30.656  12.344   2.773
26523W        W97123   4.373  16.706   0.801
26524W        W97124   5.001  42.807  11.130
26525W        W97125  22.805  40.556   3.171
26526W        W97126  34.357  40.380   0.206
26527W        W97127  34.373  17.690   3.853
26528W        W97128  35.551   5.201   4.446
26529W        W97129  39.122  39.339   4.564
26530W        W97130   2.422   3.884  10.469
26531W        W97131   4.231   4.854  10.874
26532W        W97132  33.007  25.783  14.573
26533W        W97133   3.919  37.528   2.915
26534W        W97134   5.541   8.547  11.253
26535W        W97135   8.145  15.026   2.657
26536W        W97136  20.295  12.405  12.887
26537W        W97137  35.646  28.048  11.115
26538W        W97138  17.889  25.521   2.753
26539W        W97139  22.177  14.538  13.910
26540W        W97140  17.353  42.074  10.929
26541W        W97141  23.784  28.888   0.557
26542W        W97142  39.881  37.623   4.895
26543W        W97143  21.620   7.531   2.001
26544W        W97144  29.666  21.635   3.255
26545W        W97145  31.432  12.266  11.119
26546W        W97146  40.525   5.824   3.288
26547W        W97147  29.404   2.243   0.349
26548W        W97148  37.378  18.698  14.859
26549W        W97149   3.981   3.769   3.700
26550W        W97150  10.752  18.825   4.410
26551W        W97151  21.934  41.861   2.327
26552W        W97152  15.729  34.856   3.733
26553W        W97153  26.208  10.479  11.487
26554W        W97154  26.107   7.276  14.870
26555W        W97155  33.175  25.104   1.911
26556W        W97156  43.480  26.118   4.640
26557W        W97157  36.043   0.380  14.434
26558W        W97158  24.482   0.451   2.807
26559W        W97159  21.187  39.953   4.375
26560W        W97160  38.666  24.102   0.728
26561W        W97161   0.599  10.144   3.722
26562W        W97162  23.160  35.605  10.758
26563W        W97163  38.846  38.423  13.405
26564W        W97164  22.637  20.376  12.253
26565W        W97165  40.399  20.872   3.340
26566W        W97166  37.829  33.514  14.373
26567W        W97167  38.531  14.329   4.815
26568W        W97168  35.752  19.126   1.254
26569W        W97169  10.329  25.615  14.081
26570W        W97170  43.364  12.091   4.767
26571W        W97171  40.340  34.264  12.843
26572W        W97172  41.552   2.770   4.012
26573W        W97173  30.154  38.078  11.128
26574W        W97174   0.081   3.057  11.951
26575W        W97175   9.915  18.796   4.751
26576W        W97176   8.459  10.057  14.056
26577W        W97177  18.577  36.970   0.959
26578W        W97178  39.473  13.143  14.068
26579W        W97179   9.690  21.508  13.439
26580W        W97180   1.286  39.896  10.766
26581W        W97181  22.535   2.218   2.137
26582W        W97182   3.630  18.750  12.999
26583W        W97183  22.624   2.242  14.571
26584W        W97184   6.742   6.360   3.433
26585W        W97185   9.290  27.510   4.424
26586W        W97186   7.012  39.856  14.005
26587W        W97187  16.979  36.747   9.682
26588W        W97188  14.867  21.986   3.548
26589W        W97189   5.772  38.286   1.770
26590W        W97190  25.916  40.125  13.485
26591W        W97191  28.535  17.275  10.759
26592W        W97192  37.905  41.272  14.843
26593W        W97193  33.673  12.170  13.014
26594W        W97194  20.559  19.791  11.764
26595W        W97195  32.371  43.922  14.848
26596W        W97196   7.448   4.407  10.891
26597W        W97197  16.119   9.349   3.654
26598W        W97198  16.540   1.474   4.091
26599W        W97199  14.330  36.818   4.763
26600W        W97200  20.249  43.277  11.137
26601W        W97201  23.184   3.180   2.821
26602W        W97202  30.704  35.881  10.734
26603W        W97203  19.012  36.524   4.344
26604W        W97204  28.739   5.919   0.305
26605W        W97205   4.166  12.117   4.585
26606W        W97206  25.662   8.658   4.385
26607W        W97207   8.168   1.393   2.272
26608W        W97208  11.715   2.628  10.863
26609W        W97209  17.427  33.207  10.703
26610W        W97210  33.389  35.507   2.742
26611W        W97211  39.499  15.845   0.045
26612W        W97212   4.902  26.254   1.875
26613W        W97213   5.201   8.889  10.929
26614W        W97214   7.397  31.168   0.406
26615W        W97215   7.764  35.111  11.051
26616W        W97216  22.269  13.808  11.338
26617W        W97217  20.978  35.852  11.154
26618W        W97218  37.835  32.802   3.601
26619W        W97219  11.223  16.065  10.700
26620W        W97220  19.259   2.970   3.833
26621W        W97221  19.224  34.421   1.285
26622W        W97222   7.172  31.846   1.800
26623W        W97223  15.934  44.331   3.192
26624W        W97224  20.198  44.447  12.454
26625W        W97225  28.789   9.458   4.114
26626W        W97226  14.360  43.252   4.605
26627W        W97227  37.198  33.751  13.366
26628W        W97228  29.021  35.759   1.854
26629W        W97229   4.500  40.541   3.278
26630W        W97230  41.337   0.376  11.009
26631W        W97231  42.894  19.443   0.852
26632W        W97232   1.227  38.848  12.228
26633W        W97233   4.673  21.616  13.771
26634W        W97234   7.579  10.221   4.203
26635W        W97235   1.761  19.250  13.609
26636W        W97236  15.151   5.358   2.847
26637W        W97237  10.201   4.749  11.379
26638W        W97238  33.989  15.049   2.763
26639W        W97239  27.087  36.430  14.020
26640W        W97240  20.587  28.195   0.348
26641W        W97241  22.691  21.343  13.481
26642W        W97242  14.081  18.387  11.660
26643W        W97243   2.451   6.756   4.863
26644W        W97244  26.421  34.530   0.327
26645W        W97245  20.098  35.470   1.879
26646W        W97246  32.750  32.315  11.150
26647W        W97247  15.767  28.004  12.869
26648W        W97248  12.886  21.158   1.336
26649W        W97249  22.580   6.651   0.921
26650W        W97250   3.355   9.214   2.360
26651W        W97251  11.534  10.525   2.741
26652W        W97252  42.346  26.861  11.554
26653W        W97253   0.913   5.818  11.624
26654W        W97254  42.282  41.043   4.089
26655W        W97255   6.160   9.203  11.102
26656W        W97256  13.742  36.382  11.900
26657W        W97257  19.523  43.160  14.496
26658W        W97258  17.995  21.559   3.591
26659W        W97259  31.054  21.542   4.798
26660W        W97260  16.550   8.066   3.242
26661W        W97261  11.150  42.866  12.345
26662W        W97262  31.850  25.051  12.958
26663W        W97263  29.045  18.758   3.319
26664W        W97264  38.511  22.989  11.142
26665W        W97265  40.899  28.377  11.167
26666W        W97266  17.623  32.622  14.730
26667W        W97267  34.934  12.350  12.634
26668W        W97268  19.948  20.035   3.587
26669W        W97269   6.113   3.651  14.447
26670W        W97270  40.378  21.144  12.083
26671W        W97271  17.655  27.708  12.980
26672W        W97272  23.180  34.786   1.811
26673W        W97273   8.820  34.674  12.867
26674W        W97274  24.287  30.163   0.971
26675W        W97275  16.898  29.021   3.589
26676W        W97276  39.561  43.188   2.721
26677W        W97277  28.236  44.437  13.531
26678W        W97278  33.514  41.538   0.473
26679W        W97279  25.126   2.312   2.212
26680W        W97280  18.551  32.424  12.981
26681W        W97281  11.841   6.060  14.409
26682W        W97282  17.174  36.860   0.779
26683W        W97283  28.485  42.750  11.877
26684W        W97284  32.107  44.075  13.287
26685W        W97285   5.020  13.716  12.200
26686W        W97286  27.623  11.365  12.906
26687W        W97287  32.624  25.333  13.393
26688W        W97288  33.602  25.058   1.646
26689W        W97289  18.705  34.213   3.618
26690W        W97290  34.373   0.378  10.797
26691W        W97291  37.612  35.917  12.940
26692W        W97292  36.867  32.020   2.339
26693W        W97293  26.967  30.176  14.001
26694W        W97294  27.429  44.027   1.380
26695W        W97295  34.786  17.989   3.681
26696W        W97296  11.962  21.127   3.213
26697W        W97297  25.123  23.790  11.924
26698W        W97298   7.129  20.666  11.209
26699W        W97299  28.848  29.355   4.211
26700W        W97300   0.019  10.509   1.386
26701W        W97301  39.623  10.669  13.041
26702W        W97302  24.441  40.564   4.596
26703W        W97303  22.118   9.120  13.159
26704W        W97304  14.214  42.234  12.936
26705W        W97305  38.497  42.300  10.664
26706W        W97306  40.300  25.168   1.353
26707W        W97307  23.984  13.034  14.421
26708W        W97308   2.932   6.826  10.889
26709W        W97309   8.669  15.567  13.342
26710W        W97310  16.230  15.418   3.262
26711W        W97311  35.523  37.246   3.011
26712W        W97312  39.417   2.391   2.055
26713W        W97313  37.465  10.439   0.366
26714W        W97314  19.187  32.820  14.526
26715W        W97315   1.736  41.607   2.434
26716W        W97316  21.465  14.197  13.909
26717W        W97317   4.832  13.203   2.624
26718W        W97318  37.833  30.665  10.891
26719W        W97319  20.001  30.539  13.879
26720W        W97320   7.621   1.823  11.597
26721W        W97321   1.147   0.476  12.382
26722W        W97322  14.067   5.287   4.276
26723W        W97323   6.114  27.980   0.998
26724W        W97324  39.661  34.988   3.156
26725W        W97325  39.841   9.454   3.177
26726W        W97326  21.504  29.695   1.324
26727W        W97327  23.972   6.213   4.224
26728W        W97328  24.055  12.277   0.926
26729W        W97329  13.184  23.457  13.925
26730W        W97330  44.249  41.321   4.145
26731W        W97331  33.813  12.911  13.363
26732W        W97332  12.864  21.541  12.926
26733W        W97333  30.152   7.404   0.238
26734W        W97334   4.446   2.942  12.521
26735W        W97335  14.217  26.556   4.513
26736W        W97336  10.518  29.159  11.166
26737W        W97337  15.471   8.775  14.069
26738W        W97338  35.980  21.646   4.596
26739W        W97339  39.772  26.220   4.089
26740W        W97340  38.850  35.884  11.533
26741W        W97341  12.713   3.873  11.649
26742W        W97342  20.765  42.866   0.632
26743W        W97343  10.868  10.162   3.392
26744W        W97344  32.431  13.411   1.046
26745W        W97345  26.070  31.547  12.702
26746W        W97346  41.539  12.776  10.463
26747W        W97347  27.512  20.816  14.006
26748W        W97348  35.941  44.382   0.520
26749W        W97349  12.187  13.852  13.311
26750W        W97350  26.293  26.560  13.576
26751W        W97351  42.220  17.688   1.557
26752W        W97352  44.275  16.140   3.191
26753W        W97353  24.511  14.908  11.597
26754W        W97354   6.502  28.775   3.611
26755W        W97355  27.996  27.369   4.422
26756W        W97356  10.309   8.260   4.126
26757W        W97357  21.371  35.477  10.526
26758W        W97358  23.957  44.439  11.609
26759W        W97359  36.594  30.851   2.506
26760W        W97360   6.954   0.385  11.045
26761W        W97361  13.075   1.539  13.899
26762W        W97362   3.424  15.654  12.498
26763W        W97363   6.667  28.454   4.441
26764W        W97364   6.789  38.607  13.086
26765W        W97365  20.153  31.092   4.119
26766W        W97366  32.204  38.029   3.311
26767W        W97367  15.369  30.492  11.532
26768W        W97368  26.470  21.592  10.676
26769W        W97369   8.721  37.324  10.063
26770W        W97370   1.051  42.265  13.464
26771W        W97371  18.743  34.030   4.105
26772W        W97372   6.056  19.010   4.109
26773W        W97373  26.202  13.349  12.586
26774W        W97374  40.570  27.117   4.000
26775W        W97375  22.810  32.371  11.706
26776W        W97376  30.588  24.295   0.467
26777W        W97377  44.266   1.921   0.924
26778W        W97378  33.153  16.128  11.261
26779W        W97379  10.888   0.910  11.571
26780W        W97380   8.792   3.474  12.364
26781W        W97381  30.959  30.629  10.634
26782W        W97382  30.463  23.663  13.248
26783W        W97383  28.778  23.763  14.775
26784W        W97384   4.344  10.764  14.971
26785W        W97385  26.009  24.153   4.415
26786W        W97386  24.488  26.028   4.088
26787W        W97387  30.235  21.119   1.783
26788W        W97388  29.904  35.907   3.113
26789W        W97389  15.137   4.502  12.714
26790W        W97390  11.422  12.557   0.982
26791W        W97391  39.660   2.974  11.705
26792W        W97392  34.110  29.700  12.605
26793W        W97393  17.630  39.288  13.962
26794W        W97394  37.270  42.751   3.112
26795W        W97395  15.184  43.568   0.739
26796W        W97396  38.201   4.221   9.815
26797W        W97397  14.793  38.503   0.380
26798W        W97398  28.547   4.860  12.680
26799W        W97399   4.721  40.264   0.980
26800W        W97400  10.197  25.678  10.749
26801W        W97401  19.680  18.785  14.111
26802W        W97402   0.377  29.695   3.202
26803W        W97403  44.476  31.470  11.619
26804W        W97404   1.300  29.500   1.299
26805W        W97405  26.848   8.069   3.091
26806W        W97406   0.454  35.883   3.706
26807W        W97407  32.578   4.470   1.353
26808W        W97408  37.472  36.531  12.421
26809W        W97409   9.994   9.667   3.846
26810W        W97410  29.640  16.283  11.202
26811W        W97411  12.259   3.996   0.636
26812W        W97412  42.425  30.984  10.905
26813W        W97413  28.450  29.987  13.918
26814W        W97414   7.935  23.268   1.117
26815W        W97415  21.621  40.210  12.482
26816W        W97416   0.449   5.223  12.179
26817W        W97417  14.408  28.954  11.588
26818W        W97418  28.900   3.888   4.200
26819W        W97419  33.481  17.181   4.401
26820W        W97420  30.595  10.921  12.764
26821W        W97421  33.080  29.443  10.863
26822W        W97422   7.542  12.162   2.887
26823W        W97423   2.080  31.527  10.705
26824W        W97424   1.841  25.162  14.469
26825W        W97425  35.796  15.599   1.719
26826W        W97426  15.166  27.572   4.731
26827W        W97427  23.126   0.590   0.030
26828W        W97428   0.402  32.370   0.746
26829W        W97429  24.041   9.406  12.014
26830W        W97430  25.601  13.853   2.871
26831W        W97431  31.906  26.024  12.099
26832W        W97432  22.823   4.259   1.202
26833W        W97433   4.659  28.694   3.776
26834W        W97434  12.833   2.728   2.811
26835W        W97435  19.692  25.974  13.614
26836W        W97436   6.333  38.995  11.029
26837W        W97437  31.713  14.302   3.382
26838W        W97438  39.249  36.642  13.488
26839W        W97439  36.193  32.210   0.812
26840W        W97440  44.964  33.932  10.422
26841W        W97441  13.164  24.112  12.685
26842W        W97442   4.421  26.357   4.385
26843W        W97443   5.352  23.732   2.756
26844W        W97444  43.349  29.892  11.329
26845W        W97445  29.101  17.059   2.757
26846W        W97446   6.336  32.395   3.631
26847W        W97447  32.348  26.424  14.361
26848W        W97448   4.231  39.876  10.221
26849W        W97449  34.401  35.625   4.125
26850W        W97450  23.019  44.286  12.931
26851W        W97451  31.232  42.494  10.664
26852W        W97452  18.067   6.765   3.614
26853W        W97453   9.766  15.674   2.828
26854W        W97454  16.591  36.735  12.547
26855W        W97455   1.492   5.169  12.128
26856W        W97456  35.886   3.227  12.067
26857W        W97457  34.339  30.536   1.780
26858W        W97458  31.504  29.740   1.648
26859W        W97459   4.178  29.188   1.138
26860W        W97460  26.078  37.097  14.057
26861W        W97461   4.807  37.861   3.673
26862W        W97462  39.797  20.454  10.305
26863W        W97463  14.640  32.632  14.445
26864W        W97464  33.301   1.767   4.096
26865W        W97465   5.617   8.835   4.533
26866W        W97466  21.500  14.228  12.356
26867W        W97467   6.787  32.543   3.827
26868W        W97468  41.503  14.274  13.969
26869W        W97469  27.216  43.524  10.670
26870W        W97470  31.560  29.003  12.680
26871W        W97471  16.004  16.229   3.622
26872W        W97472   8.981  34.328  14.439
26873W        W97473  11.149  12.283   0.292
26874W        W97474  18.376  11.032  13.068
26875W        W97475   7.109  24.601  13.493
26876W        W97476  19.440   6.312  12.340
26877W        W97477  44.563  16.756   2.643
26878W        W97478  18.772   4.879   3.618
26879W        W97479  42.981  19.268  12.956
26880W        W97480  16.079  10.376  10.158
26881W        W97481  24.580   1.400  12.185
26882W        W97482  31.926  33.707   2.940
26883W        W97483   4.010  24.576   1.847
26884W        W97484  37.314  10.157   4.103
26885W        W97485  17.152  23.617  12.116
26886W        W97486  30.565   9.999   5.036
26887W        W97487  28.279   1.471   2.216
26888W        W97488   3.878  16.525  11.149
26889W        W97489  39.367  15.777  12.640
26890W        W97490  21.478   0.289   5.051
26891W        W97491  19.563  11.631   2.215
26892W        W97492  35.161  43.511  14.723
26893W        W97493   7.376  15.296  10.506
26894W        W97494   9.823   1.922  12.403
26895W        W97495  11.145  12.860   1.325
26896W        W97496  11.379  28.458   3.252
26897W        W97497  43.449  36.688   0.456
26898W        W97498  15.203  40.603  11.481
26899W        W97499  37.449   3.162  13.935
26900W        W97500  10.919   8.533  14.634
26901W        W97501  14.189  39.602   2.710
26902W        W97502   1.171  25.134   0.894
26903W        W97503   5.448  24.151  12.594
26904W        W97504  17.776   8.193  11.723
26905W        W97505  37.939  22.933   4.612
26906W        W97506  15.941  26.929  11.192
26907W        W97507  10.145  24.210  13.512
26908W        W97508  16.514  11.767  14.510
26909W        W97509  13.374   3.234   0.322
26910W        W97510   7.716  22.261   4.425
26911W        W97511   1.221   2.002  10.472
26912W        W97512  42.256  37.784   1.797
26913W        W97513  15.494  25.428   3.084
26914W        W97514  18.810  26.701   2.760
26915W        W97515  32.764   2.395  10.695
26916W        W97516  42.263  14.512  14.453
26917W        W97517  23.634  37.800   0.520
26918W        W97518  31.953   0.941  11.587
26919W        W97519  24.712  43.488   3.226
26920W        W97520  18.800   6.484  14.259
26921W        W97521  30.107  24.983   1.816
26922W        W97522  13.348  11.198   0.822
26923W        W97523  14.236  20.083  12.634
26924W        W97524  12.574   5.242  12.030
26925W        W97525   3.411  21.323  13.042
26926W        W97526   1.351  36.169   4.134
26927W        W97527   1.437  39.104  14.062
26928W        W97528   1.296  36.596  13.609
26929W        W97529  16.909  19.334   0.562
26930W        W97530  37.497  28.399   2.639
26931W        W97531  17.287   8.985  12.813
26932W        W97532   5.289   6.202  14.592
26933W        W97533  37.285  37.418  14.049
26934W        W97534  31.934  25.534  10.692
26935W        W97535  18.674   1.678  14.081
26936W        W97536  10.292  16.440   3.108
26937W        W97537  20.548  23.131  11.466
26938W        W97538  28.057  21.704  11.961
26939W        W97539  32.025  28.965  13.958
26940W        W97540  23.128  35.038   1.247
26941W        W97541  22.635  12.075  14.314
26942W        W97542  29.142  38.029  11.996
26943W        W97543  24.624   9.880   2.832
26944W        W97544  38.015   1.119   3.083
26945W        W97545   6.426  31.969  12.016
26946W        W97546  31.928  41.940   0.771
26947W        W97547   9.631   7.707   2.754
26948W        W97548  32.626   5.536   0.898
26949W        W97549   9.388  30.215  14.344
26950W        W97550   2.700  21.577   0.340
26951W        W97551  32.147  44.706   3.986
26952W        W97552  26.730  26.799  13.987
26953W        W97553  34.881  25.662   9.895
26954W        W97554  31.715  18.247   1.461
26955W        W97555  22.705  20.686   1.377
26956W        W97556  24.842  29.657  14.028
26957W        W97557  32.060  25.001   0.996
26958W        W97558   8.830  40.331  11.073
26959W        W97559  24.136   4.013  14.266
26960W        W97560  26.672  43.065   2.246
26961W        W97561  31.524  39.738   1.491
26962W        W97562  19.255  10.402   3.544
26963W        W97563  30.155  23.257   2.387
26964W        W97564  34.359  35.000  13.550
26965W        W97565   8.415  35.352   2.172
26966W        W97566  43.015  25.470  12.510
26967W        W97567  30.632  37.994   2.689
26968W        W97568   5.317   1.027   3.581
26969W        W97569  32.516   1.189   1.832
26970W        W97570  26.711  10.959  14.682
26971W        W97571  13.810  36.167   0.652
26972W        W97572  40.725  29.039   3.859
26973W        W97573  15.026  26.044  12.225
26974W        W97574  20.172  29.137  13.498
26975W        W97575   0.095  44.046   3.291
26976W        W97576  30.500   2.959   4.353
26977W        W97577  24.239   5.842  14.719
26978W        W97578   2.521  42.873  13.878
26979W        W97579  33.323  22.604   0.893
26980W        W97580  12.107  33.455   4.078
26981W        W97581   8.705  30.722  13.778
26982W        W97582  40.430  22.113   3.663
26983W        W97583  17.876  40.812   2.589
26984W        W97584  29.565  15.776   0.671
26985W        W97585  36.904  29.903   0.450
26986W        W97586  31.639  36.570  14.438
26987W        W97587  42.479  32.128  13.836
26988W        W97588  28.635   8.679  12.469
26989W        W97589  22.616  35.035   4.061
26990W        W97590  36.820  31.909   4.531
26991W        W97591  33.702  21.680  12.683
26992W        W97592  37.710  33.603  13.436
26993W        W97593  41.878  22.207  13.034
26994W        W97594  35.070  25.378   0.835
26995W        W97595  32.882  11.741  12.981
26996W        W97596  25.983  15.087  12.108
26997W        W97597  38.483  27.562   1.777
26998W        W97598  27.572   6.448  11.487
26999W        W97599  11.239  11.061   1.521
27000W        W97600  34.803  43.067   1.962
27001W        W97601  44.795  40.387   1.362
27002W        W97602   6.274  25.699   1.253
27003W        W97603  13.090  42.966  13.466
27004W        W97604   1.474  39.274   4.555
27005W        W97605  18.752  34.500   2.728
27006W        W97606   4.930  28.067   4.521
27007W        W97607  44.119  17.661   0.042
27008W        W97608   2.717   5.008  11.697
27009W        W97609  25.080  44.899  10.059
27010W        W97610   7.435   0.012  12.532
27011W        W97611  10.845  35.000  13.353
27012W        W97612  20.276  12.107  13.328
27013W        W97613  26.754   5.278   0.498
27014W        W97614   1.024  33.797   0.509
27015W        W97615  30.872  42.808  12.485
27016W        W97616  22.688   6.192   3.024
27017W        W97617   5.312  17.571   0.413
27018W        W97618  38.460  31.964   4.578
27019W        W97619   6.267   8.217   4.294
27020W        W97620  26.509  37.422  11.636
27021W        W97621  37.896  37.904   2.901
27022W        W97622  15.318   3.158   1.733
27023W        W97623  20.331  12.838  10.510
27024W        W97624   5.036   3.697  13.325
27025W        W97625  42.261  17.042   2.604
27026W        W97626  36.843  11.756   0.499
27027W        W97627  39.250  38.836  12.087
27028W        W97628  28.551  33.885   4.972
27029W        W97629  28.811  44.244  10.228
27030W        W97630   8.883   4.826   4.496
27031W        W97631  22.151  31.405  10.655
27032W        W97632  22.478  15.749   4.576
27033W        W97633  41.452   9.943  12.760
27034W        W97634   7.357   3.283   3.289
27035W        W97635  18.803  26.203   1.751
27036W        W97636   5.908  32.687   2.205
27037W        W97637  38.044  40.419   0.851
27038W        W97638  27.800  21.803  14.412
27039W        W97639  37.495   7.142  12.418
27040W        W97640   3.253  12.695   2.834
27041W        W97641  36.232  17.128   4.048
27042W        W97642  17.979   9.436  14.965
27043W        W97643   0.805   6.860   0.268
27044W        W97644  43.995  41.037  12.517
27045W        W97645  27.670  29.137   0.496
27046W        W97646  42.201   5.137   0.462
27047W        W97647  31.838   6.684  12.942
27048W        W97648  12.687  35.562   3.814
27049W        W97649   8.888  31.623  10.775
27050W        W97650  35.578  19.041   0.247
27051W        W97651  18.531  33.454   4.323
27052W        W97652  25.689  43.404   2.232
27053W        W97653   8.261  21.149  13.511
27054W        W97654   7.789  27.019   3.341
27055W        W97655  12.847  33.087  12.015
27056W        W97656   2.843  31.818   1.666
27057W        W97657  33.949   4.777   4.344
27058W        W97658  24.307  30.591  10.320
27059W        W97659  10.488  44.559   0.814
27060W        W97660  28.933   4.580   2.051
27061W        W97661  28.505   4.344  14.998
27062W        W97662   1.610   4.954  11.422
27063W        W97663   7.018  36.162  12.406
27064W        W97664  23.943  23.643   3.328
27065W        W97665   7.445  35.836  10.945
27066W        W97666  12.066  28.125   2.817
27067W        W97667   8.453  42.952  10.481
27068W        W97668  30.937  18.729   3.232
27069W        W97669  17.889   9.417   1.514
27070W        W97670  31.369  33.175  11.567
27071W        W97671  42.867  40.799  10.945
27072W        W97672   4.789  17.546  14.842
27073W        W97673  42.564  28.438   2.834
27074W        W97674  30.068   3.543   4.707
27075W        W97675  35.047  18.377   2.673
27076W        W97676  14.646  43.954   3.073
27077W        W97677  33.220  27.180   0.556
27078W        W97678  23.720  36.727  11.568
27079W        W97679  41.440  21.066   0.975
27080W        W97680  13.076  40.793   1.840
27081W        W97681   4.009   1.907  14.093
27082W        W97682  27.623  39.062   4.347
27083W        W97683  22.540  34.869   0.357
27084W        W97684  31.087   5.791   2.053
27085W        W97685  23.561  21.494  13.662
27086W        W97686  32.127  23.249  14.355
27087W        W97687  27.187  10.789   3.846
27088W        W97688   4.095   4.936   1.355
27089W        W97689  34.121  13.998   4.489
27090W        W97690  10.276   0.930   4.648
27091W        W97691  39.046  14.721  10.387
27092W        W97692  19.300  11.713   2.674
27093W        W97693   7.970   2.277   2.545
27094W        W97694  20.310   0.844  10.155
27095W        W97695   0.724  32.076  13.883
27096W        W97696   4.392   1.936  12.461
27097W        W97697  44.222   3.390   3.605
27098W        W97698  14.404  16.738   1.285
27099W        W97699  15.228  21.996   2.826
27100W        W97700  19.867  44.968  13.822
27101W        W97701  25.723  43.938   0.937
27102W        W97702  41.408  20.112   3.260
27103W        W97703   2.472  36.079   3.197
27104W        W97704   3.478  43.906  13.912
27105W        W97705   7.020  32.224  13.513
27106W        W97706  10.658   6.939   4.078
27107W        W97707  18.753  30.194   4.230
27108W        W97708   3.325  28.725  11.612
27109W        W97709  25.573   0.028   0.193
27110W        W97710  22.331  31.158   0.027
27111W        W97711   8.374  14.018   3.719
27112W        W97712   0.671  23.579  12.665
27113W        W97713   7.912  28.515  14.003
27114W        W97714  28.654   9.518   3.193
27115W        W97715  15.037  32.074   3.400
27116W        W97716  25.756  20.254   0.850
27117W        W97717  35.115   8.960   0.843
27118W        W97718  34.726  21.014  12.130
27119W        W97719  22.062  41.023  14.789
27120W        W97720  20.207  34.827  13.953
27121W        W97721  30.565  22.550  10.474
27122W        W97722  26.464  33.102   0.398
27123W        W97723  10.655   4.668  11.999
27124W        W97724   3.837  22.210  13.906
27125W        W97725  32.124  28.975   4.599
27126W        W97726  33.110  14.347   3.441
27127W        W97727  35.694  18.011   4.088
27128W        W97728   5.428  14.128   4.104
27129W        W97729  21.054  39.676   2.340
27130W        W97730  28.395  37.895  10.622
27131W        W97731  29.773  36.187   1.839
27132W        W97732  35.808  24.692   1.693
27133W        W97733  27.245  33.072  14.686
27134W        W97734  11.887  30.610   2.626
27135W        W97735   8.101  23.507   0.034
27136W        W97736  26.573  44.595   1.421
27137W        W97737   0.048  35.370   0.795
27138W        W97738  40.984  36.936  13.378
27139W        W97739  41.351  23.962  11.276
27140W        W97740  35.665   9.149   3.835
27141W        W97741  30.417  15.698  13.858
27142W        W97742   5.901  22.645  10.639
27143W        W97743  14.121   4.413   2.355
27144W        W97744  13.766  25.618   3.976
27145W        W97745   1.826  23.223   1.443
27146W        W97746   7.792  15.551   0.906
27147W        W97747  38.085  22.143  12.995
27148W        W97748  14.695   8.444   3.695
27149W        W97749  43.024   0.579   0.794
27150W        W97750  14.640  14.335   2.330
27151W        W97751  25.221   0.944  11.749
27152W        W97752  35.882  17.252  13.041
27153W        W97753  38.113  22.542  13.897
27154W        W97754  38.951  33.970  11.413
27155W        W97755  39.431  20.531   3.632
27156W        W97756  14.468   3.840  10.698
27157W        W97757  28.448  14.251   4.566
27158W        W97758  35.821  40.947   3.422
27159W        W97759  42.351  20.158  13.096
27160W        W97760  35.037   6.606   3.570
27161W        W97761  33.072  39.501   3.280
27162W        W97762  18.537  32.970   4.560
27163W        W97763   0.498  33.982   3.802
27164W        W97764  12.604  12.190   4.670
27165W        W97765  17.740   4.154  14.134
27166W        W97766  12.147  15.212   1.260
27167W        W97767  12.666  17.296  12.576
27168W        W97768  28.451   0.458   0.025
27169W        W97769   6.895  31.055  13.163
27170W        W97770  17.784  28.011   3.610
27171W        W97771  32.105  16.851   0.235
27172W        W97772  38.626  39.093   3.130
27173W        W97773   8.916  29.612  10.661
27174W        W97774  43.080  19.190   0.421
27175W        W97775  42.566  33.405   1.825
27176W        W97776   7.288   7.250   0.299
27177W        W97777  18.584  34.139   2.353
27178W        W97778  19.004  16.375  14.860
27179W        W97779  15.328  12.167  12.568
27180W        W97780   8.483  22.084  10.787
27181W        W97781  38.655   7.956   3.218
27182W        W97782  25.699   7.062   1.346
27183W        W97783  21.193   7.090  11.492
27184W        W97784   0.573  33.977  14.883
27185W        W97785  19.460  22.118  10.442
27186W        W97786   8.896  42.874   2.194
27187W        W97787  19.131  43.247  10.716
27188W        W97788  40.444  13.392   0.051
27189W        W97789  16.492  35.850   2.942
27190W        W97790  16.647  25.797  11.532
27191W        W97791   4.375  22.871   0.766
27192W        W97792   8.931  26.259  14.960
27193W        W97793  11.899  19.316  13.563
27194W        W97794  34.645  25.655   2.096
27195W        W97795  10.631  39.948  12.808
27196W        W97796  22.617   9.574   4.555
27197W        W97797  39.830  37.231   4.091
27198W        W97798  31.555  44.489   0.822
27199W        W97799  18.992  29.376  10.254
27200W        W97800  19.811  36.398  14.357
27201W        W97801  20.064  11.377   4.890
27202W        W97802  10.813  44.764  10.615
27203W        W97803  39.047   7.421  12.086
27204W        W97804  20.577   9.321  14.080
27205W        W97805  22.179  32.946   3.680
27206W        W97806  38.952  16.519   2.689
27207W        W97807  28.500  41.773  11.479
27208W        W97808  36.905  34.782  11.657
27209W        W97809  38.413  29.950   0.730
27210W        W97810  40.456  34.870   4.507
27211W        W97811   6.525   5.741  12.989
27212W        W97812  39.684  17.695  13.834
27213W        W97813  24.761  37.132   0.256
27214W        W97814  39.677  36.056   2.803
27215W        W97815  40.525  26.455  14.680
27216W        W97816  42.525   9.635   4.309
27217W        W97817  22.701  44.883  11.405
27218W        W97818   7.747  20.038   4.533
27219W        W97819  10.219  40.479   1.391
27220W        W97820  19.150  35.542   3.064
27221W        W97821  35.577  14.603   4.034
27222W        W97822  18.063  28.388   0.757
27223W        W97823  37.404  21.632   3.387
27224W        W97824  35.856  40.384   3.230
27225W        W97825  18.613  23.497  11.717
27226W        W97826  36.774  27.948  11.975
27227W        W97827   9.800  26.415  14.400
27228W        W97828  23.716  16.261  14.350
27229W        W97829  29.953  35.398   1.817
27230W        W97830  35.029  14.510   0.237
27231W        W97831  38.231  25.333   3.635
27232W        W97832  33.375  31.625  12.094
27233W        W97833   4.344  19.988   4.104
27234W        W97834   5.282  40.341  13.349
27235W        W97835  39.684  14.078  11.641
27236W        W97836  34.477  31.611   3.614
27237W        W97837  37.219  15.561  11.104
27238W        W97838  16.371   2.304   2.806
27239W        W97839   2.663   9.403   3.881
27240W        W97840   1.719  11.521  11.517
27241W        W97841   0.710  11.207  14.171
27242W        W97842  24.254  23.492  12.201
27243W        W97843   4.669   6.644  10.657
27244W        W97844   8.263   7.303  13.017
27245W        W97845  20.509  31.711   1.306
27246W        W97846   9.549  26.528   3.335
27247W        W97847  31.916  21.244  10.671
27248W        W97848  37.521  31.900   1.961
27249W        W97849  40.329  25.505   1.791
27250W        W97850  44.395  30.689  13.015
27251W        W97851  41.055  22.503  12.010
27252W        W97852  41.852  14.144   4.530
27253W        W97853   0.572  15.072  14.282
27254W        W97854  27.621  23.432   0.815
27255W        W97855  11.409  13.615   3.662
27256W        W97856  41.481  30.491   3.435
27257W        W97857  27.147  29.875  11.663
27258W        W97858  26.646  24.164   1.469
27259W        W97859  29.188  16.552  12.882
27260W        W97860   7.086  29.405  14.391
27261W        W97861   1.965  25.159  13.397
27262W        W97862   5.929  17.635  11.651
27263W        W97863  15.283  32.564  13.795
27264W        W97864  13.695  11.245   4.708
27265W        W97865   7.483   8.623   4.114
27266W        W97866   1.496   9.171   2.363
27267W        W97867   3.858  15.654  13.370
27268W        W97868  19.213  17.092  10.706
27269W        W97869  37.338  35.436  14.115
27270W        W97870  30.524  23.881   4.744
27271W        W97871  11.728  31.100  14.350
27272W        W97872  23.017  33.375   2.067
27273W        W97873   6.497  34.593   1.722
27274W        W97874  44.885  39.504   3.560
27275W        W97875   2.785  38.400  12.806
27276W        W97876  40.436  10.286   1.914
27277W        W97877  34.112   3.517   1.271
27278W        W97878  18.514  13.410  12.099
27279W        W97879   4.371  14.775   3.552
27280W        W97880  36.695  39.803   4.555
27281W        W97881  22.578   3.855   3.364
27282W        W97882  23.038   9.149  14.263
27283W        W97883   3.288  18.201   2.849
27284W        W97884   8.276  31.010  10.659
27285W        W97885  15.925  20.874   1.385
27286W        W97886   5.424  12.540  14.520
27287W        W97887  42.806  31.531  12.578
27288W        W97888  15.823  19.225   3.177
27289W        W97889  16.753  40.587   2.087
27290W        W97890  21.474  18.200   2.374
27291W        W97891  23.670  10.940   2.328
27292W        W97892   7.119   6.722  14.990
27293W        W97893  39.632  17.629  11.112
27294W        W97894  12.742  37.470   3.396
27295W        W97895  31.736   8.834  10.353
27296W        W97896  32.473  32.183   3.056
27297W        W97897  43.177  43.018  13.873
27298W        W97898  30.105  22.615   4.733
27299W        W97899  30.920  13.590  13.723
27300W        W97900  43.548  41.400   1.740
27301W        W97901  30.489   2.722  11.124
27302W        W97902   7.451  37.501  13.461
27303W        W97903   5.907  27.429   1.285
27304W        W97904  44.260   9.134   1.457
27305W        W97905  20.053  23.294   1.380
27306W        W97906   2.750  14.584  14.416
27307W        W97907   8.786  36.058  14.895
27308W        W97908   9.667   7.946  14.957
27309W        W97909  11.004   0.937  14.320
27310W        W97910  12.179  36.081  12.888
27311W        W97911  27.261  16.716  13.071
27312W        W97912  14.425  37.391   1.846
27313W        W97913  16.641  33.367  13.051
27314W        W97914  11.909  22.334  12.384
27315W        W97915  38.814  33.656  14.824
27316W        W97916  31.435  15.655  11.167
27317W        W97917  22.199  29.652   3.609
27318W        W97918   4.369  30.420  13.112
27319W        W97919  19.141  15.715   0.490
27320W        W97920  14.313  23.760  14.820
27321W        W97921  22.224   7.171  12.579
27322W        W97922  43.980  15.258  10.744
27323W        W97923  10.301  30.534   1.598
27324W        W97924  44.016  18.589  13.973
27325W        W97925   7.776  28.640  12.000
27326W        W97926  23.374  10.654  14.902
27327W        W97927   9.643  44.295   0.230
27328W        W97928  21.200  13.574   0.860
27329W        W97929   7.487  11.027  14.963
27330W        W97930  41.430  35.701   0.283
27331W        W97931  32.126  36.292   0.380
27332W        W97932  31.423  28.183   0.380
27333W        W97933  10.251   2.814  14.368
27334W        W97934  24.241  31.292   2.227
27335W        W97935  22.497  11.816   4.487
27336W        W97936  30.475  37.148   3.273
27337W        W97937  16.806  39.652   4.636
27338W        W97938   0.251  43.304  13.598
27339W        W97939  11.809  17.488  12.928
27340W        W97940  12.741  23.919  12.933
27341W        W97941  37.827  38.049  10.599
27342W        W97942  28.958  13.770  14.859
27343W        W97943   3.318  39.302   2.764
27344W        W97944  18.367  17.348  13.828
27345W        W97945  19.017  14.832  10.599
27346W        W97946  26.091  11.937   0.809
27347W        W97947  39.339   2.022   4.434
27348W        W97948  30.213   6.819   1.458
27349W        W97949  27.996  43.019  12.087
27350W        W97950  22.265  43.009   2.779
27351W        W97951  11.118  37.522  14.121
27352W        W97952  29.163  18.857   1.020
27353W        W97953  42.313   4.147  12.508
27354W        W97954  30.749  31.821   0.696
27355W        W97955  10.570   7.806   4.085
27356W        W97956  37.957  32.004   3.281
27357W        W97957   0.590  24.431   2.349
27358W        W97958  14.066  36.926   4.342
27359W        W97959  17.132  44.877   1.769
27360W        W97960  17.278  28.964   2.431
27361W        W97961  36.410  41.368  14.431
27362W        W97962  20.605  37.287  13.494
27363W        W97963  32.785   9.837   1.483
27364W        W97964  20.576  30.321   2.062
27365W        W97965  19.128  30.310  10.275
27366W        W97966  43.375  38.531  10.795
27367W        W97967  35.110  13.825   4.371
27368W        W97968   0.272  40.530   0.814
27369W        W97969  25.654  37.478  11.682
27370W        W97970   2.925  27.613  12.940
27371W        W97971  29.626   4.251   0.774
27372W        W97972   2.697  42.988   0.260
27373W        W97973  15.236  24.405  14.507
27374W        W97974  17.670   3.689  13.935
27375W        W97975   2.864  39.815   4.166
27376W        W97976  23.593   5.389   1.290
27377W        W97977  11.278  43.089  11.478
27378W        W97978  36.610  36.813   0.987
27379W        W97979  41.216  15.109  12.953
27380W        W97980  21.906  11.760  10.781
27381W        W97981  38.990  19.704  11.943
27382W        W97982  31.459  28.164  13.165
27383W        W97983  43.951  28.939  12.055
27384W        W97984   2.237  40.980  13.308
27385W        W97985  20.606  24.509   2.094
27386W        W97986  40.989  19.518   4.026
27387W        W97987  20.709  35.823   2.752
27388W        W97988  34.103  42.134   0.329
27389W        W97989  32.909  41.406  12.350
27390W        W97990  26.365  20.653   4.813
27391W        W97991  43.373  13.566  12.994
27392W        W97992  42.880  36.330   4.907
27393W        W97993  35.940   4.377  12.855
27394W        W97994   9.419  32.239  12.486
27395W        W97995   1.630   7.560   0.848
27396W        W97996  26.107   1.152  10.457
27397W        W97997   2.314   9.240   4.783
27398W        W97998  44.473  29.533  14.825
27399W        W97999  22.493  32.052  11.955
27400W        W98000  22.800  12.392   0.475
27401W        W98001  25.703  29.627   3.079
27402W        W98002   9.247  23.653   1.716
27403W        W98003  11.493   6.185   0.655
27404W        W98004  13.063   7.684  13.642
27405W        W98005  12.756  44.515  13.356
27406W        W98006   1.105   7.718  10.625
27407W        W98007  10.939  28.935   0.690
27408W        W98008   7.077  37.531  12.450
27409W        W98009  29.019  38.178  14.437
27410W        W98010  21.259  10.373  11.323
27411W        W98011  39.597  11.338  10.919
27412W        W98012  21.578   2.724   2.512
27413W        W98013   9.725  17.551  10.768
27414W        W98014  14.285  14.830   1.430
27415W        W98015   6.413  32.761   0.771
27416W        W98016   3.757   4.734   0.198
27417W        W98017  14.236   2.865   4.654
27418W        W98018  18.747  22.892  13.828
27419W        W98019   3.266  43.996   4.740
27420W        W98020  28.906   5.361   0.992
27421W        W98021  11.300  13.575  14.868
27422W        W98022  25.982  17.236  14.749
27423W        W98023   8.390  40.897   3.631
27424W        W98024   6.622  12.758   1.452
27425W        W98025   2.396  12.905   3.818
27426W        W98026  10.123  23.644   4.155
27427W        W98027  12.117  29.365  11.165
27428W        W98028  44.485   0.856  11.875
27429W        W98029  24.244  11.840   3.580
27430W        W98030  24.666  31.589   1.871
27431W        W98031  19.606  18.826   4.174
27432W        W98032  22.769  31.741   0.746
27433W        W98033  31.109  43.682  14.919
27434W        W98034  40.421   8.993   2.277
27435W        W98035  22.579  33.592  14.593
27436W        W98036  23.759   7.975   0.484
27437W        W98037   2.168  31.696  13.757
27438W        W98038  39.478  10.013  11.167
27439W        W98039  23.904  21.046   4.927
27440W        W98040  18.135   1.929  10.939
27441W        W98041  27.499  22.934   0.928
27442W        W98042  10.852  35.447   0.240
27443W        W98043  18.303  36.511   0.342
27444W        W98044  41.523  25.634  14.562
27445W        W98045  44.346   0.029   3.620
27446W        W98046  35.959   4.093   4.793
27447W        W98047   9.717  16.896   3.829
27448W        W98048  41.987  36.850   0.365
27449W        W98049  31.441  18.358   1.890
27450W        W98050  40.064  44.887  11.816
27451W        W98051  43.365  23.408  11.069
27452W        W98052  21.732  13.793  13.690
27453W        W98053   0.422  25.913  10.999
27454W        W98054  24.116   7.686  13.870
27455W        W98055  42.685  18.370  14.462
27456W        W98056   3.895  26.374   0.281
27457W        W98057  37.579  26.790  14.926
27458W        W98058   6.900  43.686   0.374
27459W        W98059  15.034  39.443  11.631
27460W        W98060   8.109  32.992   0.325
27461W        W98061  18.145  44.265  13.073
27462W        W98062  14.168  23.944  11.626
27463W        W98063  36.509  29.003   3.628
27464W        W98064  17.126   6.377   5.016
27465W        W98065  10.166  10.754  11.167
27466W        W98066  24.187  27.716   0.833
27467W        W98067  36.858   2.668  13.781
27468W        W98068  22.722  26.709   4.841
27469W        W98069  32.711   5.899   1.309
27470W        W98070   9.962  21.240   0.085
27471W        W98071  30.010  23.609   3.081
27472W        W98072  19.816  13.054   4.125
27473W        W98073  18.130  37.171   2.277
27474W        W98074   8.605  21.206   2.767
27475W        W98075  37.741  22.895  12.596
27476W        W98076  21.080  37.078   3.673
27477W        W98077  10.677   9.816  14.315
27478W        W98078  41.961  35.913  10.727
27479W        W98079   6.016  12.308   0.367
27480W        W98080   9.222  36.799   1.689
27481W        W98081  30.272  36.530  12.144
27482W        W98082  16.728  13.517   0.795
27483W        W98083  43.372  30.200  10.904
27484W        W98084  26.197   3.335   5.019
27485W        W98085  40.034  23.124   3.266
27486W        W98086   8.299  33.625   4.774
27487W        W98087   3.518  19.837  10.785
27488W        W98088  22.661  12.649   1.766
27489W        W98089   3.413  22.053  12.269
27490W        W98090  22.636   7.687   1.817
27491W        W98091   6.251  28.601  14.421
27492W        W98092  10.251  30.436   4.117
27493W        W98093  43.914  21.831   4.398
27494W        W98094  11.170  42.478   3.634
27495W        W98095  38.906  23.088   0.703
27496W        W98096   7.227   8.773   1.340
27497W        W98097  21.580  18.272   3.813
27498W        W98098   2.709  31.705   0.429
27499W        W98099  11.753  35.473   3.422
27500W        W98100  13.242  31.944  13.851
27501W        W98101  23.503  28.812  12.991
27502W        W98102  28.396  44.416   4.661
27503W        W98103  21.792  29.693  12.537
27504W        W98104  30.926   9.389  11.624
27505W        W98105   2.829  11.590   1.361
27506W        W98106  44.183  22.664   3.306
27507W        W98107  38.904  24.249  11.135
27508W        W98108  13.600  12.055   1.863
27509W        W98109   2.700  35.966   1.696
27510W        W98110   5.711  27.506  14.483
27511W        W98111  16.005  34.943   1.903
27512W        W98112  11.823  33.402  12.735
27513W        W98113  26.276  15.634   3.316
27514W        W98114  25.413  35.339  11.199
27515W        W98115  38.914  24.515  11.906
27516W        W98116  43.859   5.812  14.108
27517W        W98117   5.243  19.784   1.549
27518W        W98118   7.914  44.970   0.171
27519W        W98119  34.379  27.551   3.838
27520W        W98120  21.741  43.623   3.913
27521W        W98121  10.636  33.023  12.408
27522W        W98122  11.782  22.311   1.340
27523W        W98123  10.228  42.243   3.212
27524W        W98124  19.103   3.021  13.903
27525W        W98125   1.571  17.356   2.430
27526W        W98126  39.965  42.317   1.447
27527W        W98127   7.615  30.308  14.174
27528W        W98128  11.607  27.917   2.826
27529W        W98129  40.678   2.354   2.749
27530W        W98130  35.335  25.994   1.827
27531W        W98131  16.047  23.727  13.015
27532W        W98132  33.497  15.689  13.365
27533W        W98133  18.697  39.905   3.913
27534W        W98134  44.820  38.766  11.101
27535W        W98135  40.938  14.512  11.381
27536W        W98136  33.480  19.715   0.398
27537W        W98137  39.191  22.858   1.918
27538W        W98138  26.818  34.946  12.471
27539W        W98139  28.234  44.463   0.513
27540W        W98140  18.353  14.097  12.478
27541W        W98141  44.196  10.488   1.675
27542W        W98142   1.162  32.411   2.032
27543W        W98143  28.186  43.993   4.972
27544W        W98144   7.929  16.849   3.619
27545W        W98145  36.601  39.103   4.666
27546W        W98146   2.926  16.642  10.722
27547W        W98147  19.763  33.925   4.360
27548W        W98148  27.269  33.132  11.158
27549W        W98149  34.922  13.702   0.466
27550W        W98150  43.253  38.431  12.088
27551W        W98151  27.719   8.079  13.340
27552W        W98152   2.958   0.410  14.835
27553W        W98153  23.239  22.346   3.170
27554W        W98154  35.243  17.248   4.020
27555W        W98155  39.434  36.358   1.802
27556W        W98156  33.503  25.532   1.786
27557W        W98157  40.342  24.158   1.415
27558W        W98158  41.377  40.560  14.225
27559W        W98159  23.654  23.896  11.207
27560W        W98160  20.651   8.686   0.286
27561W        W98161  33.401  16.229  10.300
27562W        W98162  35.386  25.210   1.279
27563W        W98163  37.488   4.402   5.020
27564W        W98164   6.454   3.948   0.927
27565W        W98165   6.845   8.689  11.529
27566W        W98166  22.237   4.945   2.820
27567W        W98167   5.847  16.787   4.008
27568W        W98168  26.732   8.291  14.959
27569W        W98169   0.276  34.819  10.653
27570W        W98170   1.448   7.925  11.587
27571W        W98171  44.514  20.282  11.378
27572W        W98172  34.899  19.664  12.738
27573W        W98173  30.951  31.249   3.205
27574W        W98174  27.797   7.813   3.687
27575W        W98175  41.403  33.931  12.242
27576W        W98176   9.137  33.293  14.936
27577W        W98177  28.122  41.037  11.844
27578W        W98178  24.274  39.007   2.135
27579W        W98179  27.473  26.843   3.603
27580W        W98180  11.627  25.882   1.796
27581W        W98181  37.112  15.928  13.511
27582W        W98182  39.608   2.165   3.572
27583W        W98183   7.581  16.603   2.303
27584W        W98184  43.908  17.773  10.748
27585W        W98185  41.942  33.899  14.906
27586W        W98186  39.965   5.123   2.864
27587W        W98187  17.702  34.433   0.539
27588W        W98188  42.537  20.358   0.050
27589W        W98189  21.362  18.245  12.799
27590W        W98190   0.632  32.606  13.929
27591W        W98191  20.371  17.937  10.750
27592W        W98192   4.805  11.813  10.593
27593W        W98193  42.569  14.550   1.919
27594W        W98194  24.606  23.799  13.509
27595W        W98195  37.560  16.555   2.947
27596W        W98196  19.201   0.974  11.266
27597W        W98197  39.283  35.862  11.123
27598W        W98198   2.821  28.006  11.245
27599W        W98199  40.299  42.948   1.788
27600W        W98200  33.297  28.065   5.150
27601W        W98201   5.400   1.830  12.038
27602W        W98202  25.659   9.448  14.882
27603W        W98203  38.285  24.536  12.461
27604W        W98204  40.000  38.932  12.610
27605W        W98205  16.346  43.335   3.223
27606W        W98206   9.545  17.079  10.672
27607W        W98207   2.082  27.121  14.274
27608W        W98208  28.966  44.793   2.540
27609W        W98209  15.687  19.037  12.863
27610W        W98210  27.981  40.577  13.510
27611W        W98211  41.386  16.392   0.433
27612W        W98212   3.544  23.734  11.952
27613W        W98213  27.538  36.886   3.440
27614W        W98214  12.290  17.795   2.213
27615W        W98215  33.954  19.710  12.313
27616W        W98216  11.418  29.981   3.818
27617W        W98217  28.942  44.551  10.999
27618W        W98218  17.036  39.436   1.448
27619W        W98219   9.763  26.249  10.460
27620W        W98220  38.116  26.341  14.362
27621W        W98221   3.000   5.450   3.635
27622W        W98222  30.824  12.848   0.158
27623W        W98223  27.248  40.043   0.924
27624W        W98224  10.776  18.217  10.682
27625W        W98225   2.473  29.916  13.450
27626W        W98226  21.861   9.703   1.460
27627W        W98227   4.473  43.606   3.286
27628W        W98228   8.239  38.004   2.723
27629W        W98229   5.848  19.110  11.024
27630W        W98230   3.413  19.814   4.562
27631W        W98231  34.403  26.266   3.217
27632W        W98232  41.592  11.498   4.983
27633W        W98233  42.979  12.159  13.837
27634W        W98234  15.640   6.094   3.087
27635W        W98235  32.508  20.214   2.788
27636W        W98236   7.772  24.618   1.695
27637W        W98237  29.511  23.347   4.601
27638W        W98238   0.404   6.255  13.265
27639W        W98239  33.094  10.779  13.836
27640W        W98240  25.477  20.512   2.310
27641W        W98241  25.047   4.333   3.587
27642W        W98242  16.339  29.660  14.378
27643W        W98243   4.224  40.305   4.655
27644W        W98244   8.184   9.442   0.357
27645W        W98245  21.451  23.548   3.228
27646W        W98246   3.339   6.764  10.589
27647W        W98247  17.349  43.828  13.023
27648W        W98248   2.119   7.368   0.889
27649W        W98249  29.054  34.857  12.356
27650W        W98250   7.662  44.550   0.927
27651W        W98251  39.702  24.128  13.372
27652W        W98252   5.885  10.763   3.878
27653W        W98253   4.714   3.529   2.285
27654W        W98254  39.016  13.316   3.745
27655W        W98255  43.035   9.913   0.348
27656W        W98256  24.869   1.890  10.855
27657W        W98257  29.568  25.090  14.884
27658W        W98258   3.406  29.732  14.545
27659W        W98259  37.349  11.417  10.716
27660W        W98260  22.295  39.034   1.173
27661W        W98261  38.955  17.841   1.396
27662W        W98262   5.258   2.962   3.637
27663W        W98263   8.161  27.287  12.400
27664W        W98264  23.265  31.612  11.516
27665W        W98265  11.740  32.403   4.227
27666W        W98266  34.519  44.818   3.004
27667W        W98267  19.264  22.501  12.515
27668W        W98268  28.492  25.740   2.227
27669W        W98269   8.075  12.244   3.008
27670W        W98270   8.137  15.541   2.886
27671W        W98271  12.061  17.242   4.194
27672W        W98272  34.390  38.988   1.064
27673W        W98273  26.955  23.181   3.097
27674W        W98274  17.846  24.066   2.877
27675W        W98275  33.148  36.063  11.625
27676W        W98276  24.476   7.145  11.549
27677W        W98277  34.396   0.222  12.411
27678W        W98278  42.795  38.139   1.757
27679W        W98279  30.081  21.926  11.926
27680W        W98280  43.814  22.039   1.842
27681W        W98281  38.093  13.878  12.473
27682W        W98282  15.881  29.636  10.580
27683W        W98283  34.251   8.864   1.040
27684W        W98284  31.847  32.124  14.440
27685W        W98285  30.123  29.919   0.955
27686W        W98286  37.371  42.934  10.337
27687W        W98287  20.652  36.339   2.734
27688W        W98288   1.517   4.629  12.228
27689W        W98289   5.960  23.484   0.289
27690W        W98290  19.332  11.830  13.835
27691W        W98291   9.254  23.279   3.242
27692W        W98292   2.023  28.437  11.149
27693W        W98293   6.941  16.117  12.897
27694W        W98294  11.294   6.680  14.010
27695W        W98295   2.388   2.687  11.433
27696W        W98296  38.373  28.230  12.777
27697W        W98297   2.000  42.141   3.221
27698W        W98298  35.313  41.780   3.696
27699W        W98299  36.378  14.904   2.062
27700W        W98300  44.997  20.764  11.134
27701W        W98301  37.040   9.271  14.969
27702W        W98302   6.804  30.424   4.353
27703W        W98303  12.821  43.662   2.281
27704W        W98304   3.765  33.700  14.046
27705W        W98305  11.775  29.147  13.156
27706W        W98306  39.073  41.337   3.812
27707W        W98307  11.392  41.185   3.127
27708W        W98308  41.854  14.029  12.948
27709W        W98309  35.025   9.242   1.288
27710W        W98310  39.275   5.889   5.186
27711W        W98311   7.795   5.214   2.693
27712W        W98312  20.739  28.446  13.146
27713W        W98313  39.596   2.499  13.876
27714W        W98314   9.359  20.471  14.687
27715W        W98315  26.571  27.623   1.033
27716W        W98316   2.874   2.432  11.447
27717W        W98317  24.585  31.046   4.367
27718W        W98318  13.862   2.038   4.072
27719W        W98319  30.346   9.779   0.891
27720W        W98320  21.678  15.647  14.020
27721W        W98321  13.912  35.808  14.450
27722W        W98322  25.707  34.227  12.710
27723W        W98323  37.484  14.698  12.474
27724W        W98324  13.889  17.705   2.207
27725W        W98325  43.551  32.655   3.146
27726W        W98326  28.792   6.193  12.303
27727W        W98327  44.013  11.290   4.649
27728W        W98328  24.919  19.193   1.258
27729W        W98329  27.049  27.202   4.828
27730W        W98330  28.496  37.380  14.524
27731W        W98331   2.052  17.092   0.841
27732W        W98332  32.442  37.824   1.644
27733W        W98333  22.097  44.448   0.819
27734W        W98334  18.635  25.141  12.110
27735W        W98335  40.832  36.066  12.275
27736W        W98336  42.076  11.058   1.722
27737W        W98337  22.083  23.934  12.499
27738W        W98338  26.584  28.187   4.144
27739W        W98339  44.657   2.857  11.161
27740W        W98340  22.509   7.437  12.134
27741W        W98341  14.777   8.299  10.964
27742W        W98342  13.953  39.362   4.334
27743W        W98343  35.574   4.320  14.031
27744W        W98344   8.655   5.891  11.807
27745W        W98345  14.718  24.673   4.467
27746W        W98346  12.064  25.576  11.056
27747W        W98347   1.061  29.572  10.770
27748W        W98348  20.580  36.350  12.158
27749W        W98349  38.027  31.849   3.780
27750W        W98350  12.122  22.736  11.494
27751W        W98351  28.586  27.068   0.237
27752W        W98352  19.196  15.524  12.355
27753W        W98353  17.015   7.331   2.081
27754W        W98354   3.033   2.037   4.168
27755W        W98355  35.754  22.406   0.418
27756W        W98356   8.840  34.659  10.698
27757W        W98357  22.691  35.540   1.873
27758W        W98358  37.602  43.385   1.373
27759W        W98359  44.624  25.892   5.002
27760W        W98360  29.219  39.589  13.430
27761W        W98361   2.275   6.187   2.201
27762W        W98362  17.678  34.988   1.881
27763W        W98363   6.156  40.011  13.597
27764W        W98364  31.317  20.879   3.919
27765W        W98365  19.169   4.333   0.534
27766W        W98366  42.425  37.215   1.384
27767W        W98367  25.171  24.324  11.971
27768W        W98368  42.991  18.745  13.882
27769W        W98369  19.728  17.624   3.773
27770W        W98370  29.978  13.072  14.630
27771W        W98371  28.001  39.341   2.069
27772W        W98372  34.854  22.699  14.712
27773W        W98373  10.583  17.255  12.454
27774W        W98374   4.118  24.034   1.842
27775W        W98375  20.290  16.279  11.636
27776W        W98376  43.784  29.660  11.193
27777W        W98377  26.166  39.398  13.305
27778W        W98378  16.500   2.429  12.163
27779W        W98379  29.128   5.922  10.503
27780W        W98380  42.783  26.879  10.729
27781W        W98381  27.681  12.449   0.302
27782W        W98382  40.219  22.191   4.562
27783W        W98383  24.449  33.054   5.016
27784W        W98384  18.271  12.595  11.534
27785W        W98385  21.502  32.005   3.145
27786W        W98386  36.870  27.463   3.561
27787W        W98387   2.409  17.433   0.641
27788W        W98388  36.311  37.650   0.715
27789W        W98389  31.801   8.432  12.530
27790W        W98390  28.467  32.302  14.812
27791W        W98391  38.991  22.596   0.938
27792W        W98392   5.852  25.983   1.363
27793W        W98393  30.324  32.685  14.059
27794W        W98394   7.303  16.303   4.807
27795W        W98395  21.204   7.127  13.453
27796W        W98396  34.198  26.592  10.861
27797W        W98397   7.258  24.970  13.834
27798W        W98398   2.244  43.845   1.725
27799W        W98399  25.021  19.032   1.741
27800W        W98400  18.168  12.671   3.328
27801W        W98401  13.561  31.533   3.185
27802W        W98402  14.018   4.805  13.924
27803W        W98403  38.762  20.547   0.938
27804W        W98404  14.757  21.185   3.119
27805W        W98405  36.457  32.212  12.898
27806W        W98406   2.810   3.906  12.620
27807W        W98407  11.725   2.054   3.703
27808W        W98408  43.793   2.495   1.390
27809W        W98409  18.742   6.626   4.492
27810W        W98410  20.279  18.249   3.327
27811W        W98411   9.380  13.689  10.569
27812W        W98412   0.550  17.686   2.124
27813W        W98413   4.195   0.382  14.748
27814W        W98414  36.569  23.030  13.519
27815W        W98415  14.532   3.865  11.438
27816W        W98416  37.347  23.197  12.446
27817W        W98417  12.893  31.536   2.814
27818W        W98418  25.695  15.167   2.788
27819W        W98419  14.564  27.708  11.118
27820W        W98420  17.696  42.511   0.409
27821W        W98421  16.712  37.022  14.322
27822W        W98422  19.523  25.574   3.463
27823W        W98423  19.488  10.116  14.884
27824W        W98424  21.712  44.389  12.585
27825W        W98425  30.458   2.119   3.160
27826W        W98426  11.425  21.108   3.138
27827W        W98427  39.122  36.197   4.646
27828W        W98428  15.176  42.446   2.126
27829W        W98429   1.192  27.217   0.388
27830W        W98430   8.993   9.866   3.607
27831W        W98431   8.978  35.791   4.159
27832W        W98432  32.173   5.884  12.509
27833W        W98433  42.384  12.135  12.565
27834W        W98434   7.804  20.637   2.704
27835W        W98435  10.174  31.940   1.768
27836W        W98436  10.208  31.208   4.425
27837W        W98437  13.475  21.044  11.161
27838W        W98438  31.413  29.930   1.025
27839W        W98439   8.302  25.708  13.010
27840W        W98440   5.066  41.475  12.102
27841W        W98441  40.915  38.253   1.812
27842W        W98442  11.840  29.221  11.611
27843W        W98443  12.514  35.730   0.444
27844W        W98444  17.508  35.895   3.529
27845W        W98445   6.850   3.677  13.489
27846W        W98446  22.661  42.695   3.702
27847W        W98447  42.312  11.240  10.792
27848W        W98448   3.501  33.622  11.143
27849W        W98449  18.179  12.602   4.575
27850W        W98450  43.220  16.697   0.986
27851W        W98451   8.552  18.070  14.305
27852W        W98452   1.706  22.637   3.882
27853W        W98453  15.061  20.659  10.724
27854W        W98454  31.259  21.826  11.179
27855W        W98455  21.881  21.189  12.435
27856W        W98456  38.453  34.026   3.344
27857W        W98457  22.730  25.656   4.133
27858W        W98458   0.007  29.671   1.890
27859W        W98459   9.313  18.501  14.099
27860W        W98460  34.262  25.474  13.525
27861W        W98461  41.498  14.984   3.113
27862W        W98462   2.461   4.017  14.623
27863W        W98463  33.802  25.935   2.631
27864W        W98464   2.968  17.041  14.681
27865W        W98465  35.455   5.913   4.728
27866W        W98466   8.818  38.312  12.522
27867W        W98467   3.807  44.265   3.084
27868W        W98468   7.123  25.383   1.045
27869W        W98469  32.935  14.830  11.057
27870W        W98470   2.685  40.811  13.894
27871W        W98471  24.078  44.145   0.284
27872W        W98472  26.778   5.876   1.717
27873W        W98473   1.015  16.158   1.764
27874W        W98474  32.464  35.532  14.273
27875W        W98475  30.027  36.328  12.547
27876W        W98476   0.934  41.085   2.271
27877W        W98477  39.472  21.541  11.901
27878W        W98478  41.315  12.557  13.939
27879W        W98479  18.793  20.575  11.009
27880W        W98480  18.332  40.818   0.521
27881W        W98481  39.135  37.943   3.924
27882W        W98482  42.258  26.550   4.585
27883W        W98483  33.511  37.084  13.592
27884W        W98484  11.091   8.877  13.414
27885W        W98485   5.873  37.582   0.886
27886W        W98486  19.496   0.484   4.868
27887W        W98487   4.207  23.281   0.214
27888W        W98488  31.037   5.241  10.646
27889W        W98489  19.132  30.244   5.358
27890W        W98490  29.403  33.472   4.567
27891W        W98491  13.610  42.837  12.074
27892W        W98492   6.523  23.056   1.711
27893W        W98493  42.769  10.177   0.745
27894W        W98494  37.344  17.193  14.980
27895W        W98495  19.168  29.174   3.609
27896W        W98496   1.579   8.899  14.453
27897W        W98497  37.697  38.472  11.667
27898W        W98498   7.826  40.922   3.636
27899W        W98499  40.125   6.263   4.974
27900W        W98500  40.898  29.170   0.374
27901W        W98501  44.449  21.884   1.507
27902W        W98502   1.209  30.101  12.665
27903W        W98503  31.129  19.793  11.757
27904W        W98504  14.670   9.161   0.012
27905W        W98505  43.014  24.754   3.689
27906W        W98506  36.482   5.231   2.730
27907W        W98507  33.983  32.765   3.071
27908W        W98508  26.521  44.724   5.105
27909W        W98509  28.597   8.026  13.839
27910W        W98510   8.410  38.926  12.150
27911W        W98511   6.738  17.638   4.160
27912W        W98512  20.610  27.473  13.387
27913W        W98513  30.363  44.351   1.600
27914W        W98514  15.991  21.217   3.429
27915W        W98515  33.248  13.650   4.556
27916W        W98516  32.572  22.909   0.423
27917W        W98517  35.388  31.785   4.897
27918W        W98518  23.675  10.329   2.388
27919W        W98519   6.031  44.619  14.591
27920W        W98520   3.690  11.753   2.676
27921W        W98521   7.211  19.849   1.725
27922W        W98522  41.270  41.520  13.716
27923W        W98523  34.337  28.349   2.579
27924W        W98524   0.919  10.033  11.140
27925W        W98525  38.085  32.037  13.450
27926W        W98526  27.931   6.212  11.046
27927W        W98527  16.314  28.505   2.650
27928W        W98528  24.726  37.616  14.343
27929W        W98529   3.810  43.761  13.529
27930W        W98530  31.671   5.849   1.320
27931W        W98531  29.675  36.418  11.475
27932W        W98532  31.085  29.452   1.750
27933W        W98533  43.397  39.326  12.529
27934W        W98534  12.800  35.865   4.192
27935W        W98535  25.216  36.973   2.591
27936W        W98536   0.876  10.108  14.284
27937W        W98537   4.969  34.863   2.345
27938W        W98538  10.611  24.045   2.687
27939W        W98539   9.751  20.999   2.203
27940W        W98540  32.137  18.590  12.787
27941W        W98541  17.420  20.946   3.492
27942W        W98542   0.903  39.382   0.501
27943W        W98543   4.335  28.446   2.309
27944W        W98544  29.155  43.394   1.625
27945W        W98545  44.715  42.974  10.621
27946W        W98546  24.150  21.295   4.574
27947W        W98547  11.712  25.463  14.051
27948W        W98548  31.717   2.527   3.216
27949W        W98549  25.638   5.971  14.198
27950W        W98550  10.072  14.849  11.574
27951W        W98551  10.934  23.596   0.485
27952W        W98552  34.497  24.659  13.323
27953W        W98553  43.866  44.281   4.164
27954W        W98554   8.634  33.889  14.407
27955W        W98555   9.212  22.733   3.292
27956W        W98556  33.679   8.847  12.435
27957W        W98557  40.976  37.917   0.225
27958W        W98558  31.881   6.121  13.073
27959W        W98559  25.620  12.272  10.810
27960W        W98560   2.388  11.281   3.611
27961W        W98561  44.380  20.150   4.058
27962W        W98562  20.323   5.471  14.764
27963W        W98563  29.334  14.219   2.697
27964W        W98564  36.263   8.774   4.153
27965W        W98565   9.047   2.622  11.676
27966W        W98566  13.618  28.469  14.817
27967W        W98567   6.330  40.578   3.626
27968W        W98568   0.196  21.754   0.600
27969W        W98569  26.635  33.368   0.817
27970W        W98570  27.706   8.355   0.266
27971W        W98571  29.180   4.136   2.720
27972W        W98572  41.825  16.154   4.612
27973W        W98573  39.557  44.002  14.297
27974W        W98574  35.483  15.444  11.623
27975W        W98575  23.747   0.240  11.057
27976W        W98576  18.631  40.813  14.394
27977W        W98577  40.016   0.934  10.717
27978W        W98578  20.490  34.140  14.379
27979W        W98579  27.835   1.428   0.420
27980W        W98580  31.951  43.308   3.220
27981W        W98581  13.869   0.266   2.628
27982W        W98582  40.592  41.404   3.799
27983W        W98583  33.957  10.965  11.088
27984W        W98584   3.062   4.394  11.597
27985W        W98585  21.304  28.012   1.734
27986W        W98586  35.714  30.064   1.848
27987W        W98587   2.038   6.904  14.703
27988W        W98588  17.343  39.978  11.484
27989W        W98589  38.347  11.140   1.216
27990W        W98590  19.950  10.716  14.280
27991W        W98591   1.338   1.343   1.457
27992W        W98592   8.066  12.742   1.307
27993W        W98593  27.209  11.193  10.660
27994W        W98594  40.879   8.202  14.790
27995W        W98595  24.752  39.290   3.705
27996W        W98596  12.630  38.362  13.695
27997W        W98597  30.939  42.542   1.379
27998W        W98598  11.638   8.643  10.323
27999W        W98599  12.244   0.568   4.578
28000W        W98600  42.819   3.235  11.198
28001W        W98601  10.893  24.010   2.227
28002W        W98602  24.549  22.485   4.838
28003W        W98603  22.649  10.020   1.209
28004W        W98604   2.860  14.149   2.788
28005W        W98605  25.984  37.183   4.670
28006W        W98606  28.620   0.928  12.518
28007W        W98607   6.635  24.363  13.469
28008W        W98608   5.193  10.271   0.946
28009W        W98609   7.950  36.602  13.267
28010W        W98610  22.684  29.936   2.322
28011W        W98611  42.544  21.867  11.774
28012W        W98612  38.761   3.370  14.775
28013W        W98613  34.126  11.803   3.217
28014W        W98614  43.124  43.189   4.075
28015W        W98615   9.305  42.702  12.911
28016W        W98616  43.487  15.059  10.752
28017W        W98617   1.038  43.401  11.161
28018W        W98618  23.725  28.401  13.931
28019W        W98619  14.819  14.789   0.800
28020W        W98620  38.592  37.998  11.123
28021W        W98621  27.860  11.783   3.759
28022W        W98622  15.275  35.962  12.615
28023W        W98623  12.591  25.520   2.794
28024W        W98624   7.812  13.869   4.209
28025W        W98625   5.325  24.710   1.260
28026W        W98626  40.422  42.309  12.778
28027W        W98627  44.534  36.039  12.189
28028W        W98628  21.262  39.819  12.489
28029W        W98629  15.332  16.698   4.561
28030W        W98630  18.069  24.647   2.741
28031W        W98631  38.011  28.238   3.727
28032W        W98632  24.109  18.269  12.429
28033W        W98633  16.600   5.137  11.872
28034W        W98634  31.488  22.691  13.361
28035W        W98635  41.732   2.992  11.530
28036W        W98636  11.257  23.515  12.372
28037W        W98637  29.966  35.556  14.073
28038W        W98638  27.509  24.152  14.980
28039W        W98639   0.826   6.725   0.780
28040W        W98640  24.228  30.516   2.691
28041W        W98641  34.090  19.121  13.019
28042W        W98642  19.672  17.751  11.162
28043W        W98643  26.051  41.007  14.571
28044W        W98644  34.379  21.113  10.938
28045W        W98645  15.479  18.799   1.968
28046W        W98646  33.529  26.117   3.018
28047W        W98647   6.627   6.345   4.814
28048W        W98648  19.544  18.077  12.408
28049W        W98649  20.467  22.049   4.652
28050W        W98650  14.230  40.940  13.555
28051W        W98651  42.086  18.371   4.124
28052W        W98652  24.006   0.817  11.751
28053W        W98653   5.901  29.137  13.564
28054W        W98654  10.930  16.829  12.283
28055W        W98655   4.229  21.706   1.395
28056W        W98656  24.143  10.396  11.405
28057W        W98657  43.739  22.337  10.726
28058W        W98658  23.451   6.913   3.176
28059W        W98659  17.361  28.996   1.044
28060W        W98660  38.314   8.302   3.893
28061W        W98661   2.243  37.391  11.608
28062W        W98662   2.717  22.343  11.171
28063W        W98663  28.010  34.239   3.240
28064W        W98664  25.069  22.297  12.454
28065W        W98665  25.594  30.076  12.038
28066W        W98666  34.228  41.043  14.413
28067W        W98667  34.812  21.257   2.310
28068W        W98668  12.109  34.986   3.905
28069W        W98669  42.572   1.306  13.547
28070W        W98670  13.263  43.200  14.139
28071W        W98671  39.027   9.913   0.433
28072W        W98672  14.273  20.846  11.053
28073W        W98673  35.049  37.292   2.638
28074W        W98674  11.198  20.647  12.136
28075W        W98675  43.163  14.282  13.530
28076W        W98676   6.784  34.553  12.356
28077W        W98677  34.189  16.677   0.208
28078W        W98678  26.708  21.012  13.619
28079W        W98679  40.580  21.585  10.050
28080W        W98680  17.988  22.241  14.502
28081W        W98681  25.686   9.339   3.775
28082W        W98682  13.616  35.022  13.203
28083W        W98683  17.789   8.484   3.084
28084W        W98684  16.144  13.569  14.082
28085W        W98685   3.368   6.767   0.816
28086W        W98686   3.774  25.207   2.434
28087W        W98687  12.057  28.757  11.658
28088W        W98688  30.684  30.081  12.676
28089W        W98689  41.189  43.129   0.255
28090W        W98690   8.250  26.433   4.237
28091W        W98691  35.497  29.864   3.424
28092W        W98692   2.204  29.444  11.979
28093W        W98693  17.007  44.990   3.737
28094W        W98694  18.642   6.501  14.744
28095W        W98695  38.063  41.501   1.742
28096W        W98696  10.743   8.784  13.802
28097W        W98697  17.253  36.297  14.474
28098W        W98698  36.281  38.676   2.704
28099W        W98699  38.944  11.372   0.437
28100W        W98700  37.455  19.617   0.004
28101W        W98701  25.613   9.689  13.980
28102W        W98702  34.532  31.970   4.017
28103W        W98703   4.990  21.016  13.252
28104W        W98704  44.648  10.961  13.020
28105W        W98705  21.751  12.537  13.557
28106W        W98706  39.117  39.098   3.482
28107W        W98707  21.158   5.809   2.751
28108W        W98708   1.208  25.192   2.720
28109W        W98709   0.922  30.009   2.324
28110W        W98710  32.591   2.824   2.151
28111W        W98711  19.586  37.389   4.351
28112W        W98712  15.457  34.621  12.526
28113W        W98713  28.903   7.727   0.253
28114W        W98714  36.626   7.427  11.637
28115W        W98715  31.605  43.449   0.666
28116W        W98716  14.297  26.499   1.387
28117W        W98717  31.687  26.048  14.574
28118W        W98718  37.864  25.204  11.990
28119W        W98719   9.590  44.175  13.866
28120W        W98720  10.478  30.149  10.519
28121W        W98721  33.487  42.005   4.226
28122W        W98722  31.839  35.564  14.905
28123W        W98723  22.019  15.032  13.061
28124W        W98724   4.491  38.976  11.838
28125W        W98725  39.316  17.349  13.953
28126W        W98726  33.732  31.668   4.124
28127W        W98727  42.912  31.537   4.597
28128W        W98728  14.152   5.569   9.998
28129W        W98729  21.523  33.610   0.917
28130W        W98730  20.125  28.485  14.178
28131W        W98731  33.894  38.346   4.493
28132W        W98732  22.241  31.533   2.824
28133W        W98733   8.494   7.654   1.464
28134W        W98734  36.479  29.654  10.797
28135W        W98735  40.964  16.454   5.026
28136W        W98736   2.831  29.242   3.191
28137W        W98737  21.556  13.333  13.860
28138W        W98738  17.625  31.405  13.913
28139W        W98739  36.481  30.969   1.007
28140W        W98740  34.004  28.190   3.197
28141W        W98741  30.824  13.596  10.690
28142W        W98742  27.180  26.973   3.121
28143W        W98743  20.826  12.442  12.685
28144W        W98744   6.875  19.736   0.249
28145W        W98745  11.225  12.776   2.243
28146W        W98746  37.572  24.874   0.924
28147W        W98747  24.031  30.351   4.347
28148W        W98748  20.646  15.879   0.766
28149W        W98749  16.049  35.563   0.694
28150W        W98750   6.368  42.788   1.901
28151W        W98751  38.686  23.491  12.057
28152W        W98752  24.875   6.341  14.846
28153W        W98753  35.639  30.974   1.185
28154W        W98754  10.119  11.745   9.966
28155W        W98755  13.373  30.471  13.371
28156W        W98756  39.081   5.806   2.387
28157W        W98757  35.881  27.555   0.865
28158W        W98758  44.468  29.712   3.120
28159W        W98759  15.639  38.010   4.648
28160W        W98760  24.235   2.558  12.234
28161W        W98761  24.982  17.084  14.733
28162W        W98762  29.383   2.183  14.508
28163W        W98763  29.870  42.578   4.656
28164W        W98764   0.406   8.331   2.721
28165W        W98765  35.634   9.761  13.564
28166W        W98766  25.502  15.177  11.993
28167W        W98767  41.645   4.870  14.365
28168W        W98768  27.918  32.541   3.204
28169W        W98769   8.774  33.206  10.912
28170W        W98770  34.536   7.844   1.818
28171W        W98771   7.477  36.330  10.725
28172W        W98772  10.893  14.239   3.321
28173W        W98773   2.950  30.661   3.367
28174W        W98774   6.807  33.102   4.385
28175W        W98775  36.970  31.078  14.487
28176W        W98776   8.111  34.522  13.605
28177W        W98777  18.337   8.910   4.321
28178W        W98778  36.874  36.523  11.144
28179W        W98779  19.152   8.216   1.502
28180W        W98780  20.682  14.611   0.332
28181W        W98781  10.828  26.228  11.984
28182W        W98782  29.283  14.820  14.080
28183W        W98783  20.201  34.520  13.484
28184W        W98784  33.418  43.395   1.895
28185W        W98785  23.139  29.375  14.898
28186W        W98786  17.248  39.626  14.432
28187W        W98787  37.512  42.759   4.131
28188W        W98788  29.490  37.341  11.868
28189W        W98789  26.445   8.731  14.834
28190W        W98790  20.260  35.161  14.907
28191W        W98791   4.616   9.154   0.820
28192W        W98792  24.282  28.763   3.884
28193W        W98793  43.919  20.918   3.758
28194W        W98794  28.550  16.668   2.344
28195W        W98795  19.330   8.018   4.871
28196W        W98796  37.314  17.479  14.443
28197W        W98797  35.621   2.367   3.425
28198W        W98798  11.879  44.313   1.177
28199W        W98799  15.801  23.460  10.779
28200W        W98800  27.164  20.571   3.750
28201W        W98801   0.798  43.990  13.032
28202W        W98802   8.130   5.855  12.492
28203W        W98803  10.853  15.635  13.891
28204W        W98804  15.920   0.192   0.454
28205W        W98805   2.287  23.684  11.623
28206W        W98806  36.546  35.046  14.777
28207W        W98807   0.448  17.290   4.560
28208W        W98808  42.866  43.756  13.440
28209W        W98809   6.520  29.957  12.098
28210W        W98810   7.195  13.326  10.508
28211W        W98811  35.438   8.744   4.600
28212W        W98812  35.436   2.551  14.460
28213W        W98813  29.952  17.183   4.689
28214W        W98814  43.074  37.121  10.634
28215W        W98815  25.571   7.919  14.425
28216W        W98816  31.185  36.123   0.267
28217W        W98817  24.499  39.150   0.396
28218W        W98818  43.956  24.542   1.431
28219W        W98819  11.018  41.288  11.099
28220W        W98820  41.774   1.257   0.960
28221W        W98821  35.093  27.402  10.808
28222W        W98822  36.676   7.201  13.404
28223W        W98823  35.600  13.629  13.446
28224W        W98824   4.622  10.961  11.073
28225W        W98825  14.566   9.834   0.999
28226W        W98826   8.905  26.930  13.568
28227W        W98827   1.261   5.488   3.547
28228W        W98828   5.280  16.218  11.478
28229W        W98829   9.747  11.469  13.982
28230W        W98830  19.049  12.488   0.857
28231W        W98831   9.722   4.791   0.936
28232W        W98832   7.951  14.388  12.573
28233W        W98833   3.395  11.432  13.835
28234W        W98834   9.882  16.699  10.699
28235W        W98835   3.971  25.950  14.448
28236W        W98836  30.629  36.335   3.950
28237W        W98837  16.649  33.292  10.939
28238W        W98838   1.711   5.859  13.115
28239W        W98839  23.017  22.608  10.325
28240W        W98840  25.745  11.779  11.696
28241W        W98841   0.228  33.526   1.021
28242W        W98842  43.293  28.654  12.492
28243W        W98843  18.178   9.963  11.663
28244W        W98844  15.845  29.102   0.759
28245W        W98845  31.006  40.235  11.664
28246W        W98846   1.672   1.774   0.760
28247W        W98847  43.907   4.931   3.501
28248W        W98848  36.653   8.881   3.792
28249W        W98849  37.534  22.039   2.049
28250W        W98850  15.896  13.107   1.826
28251W        W98851  22.994  32.966   1.466
28252W        W98852   4.229  36.977  11.544
28253W        W98853  32.461  15.904  13.073
28254W        W98854  17.558  42.490  11.446
28255W        W98855   9.836   7.140   1.779
28256W        W98856  41.906  26.790   0.707
28257W        W98857  39.823  11.085  14.492
28258W        W98858  38.011  30.344   4.627
28259W        W98859  32.801  11.106   4.268
28260W        W98860   3.191  38.840  12.093
28261W        W98861  15.782  21.164   4.576
28262W        W98862  11.452  10.891  14.872
28263W        W98863  44.859  38.245  13.891
28264W        W98864   9.753  43.212  12.333
28265W        W98865  42.424  24.432   0.756
28266W        W98866  43.583  20.013  14.979
28267W        W98867  35.357  25.187   2.456
28268W        W98868  38.534  11.608   4.710
28269W        W98869  31.365  11.210   2.420
28270W        W98870  12.443  25.946   4.964
28271W        W98871  23.961  34.556  11.214
28272W        W98872  22.496  38.268  11.498
28273W        W98873  18.616  37.933  11.676
28274W        W98874  29.558  10.812   4.334
28275W        W98875  14.265   7.267  13.065
28276W        W98876  37.009  24.626   1.658
28277W        W98877  25.391  42.768   2.698
28278W        W98878  37.067   5.792   3.853
28279W        W98879  27.236  19.964  11.282
28280W        W98880  27.504  21.177  12.408
28281W        W98881  34.807  11.264  14.856
28282W        W98882  23.972   2.423  14.344
28283W        W98883  15.847   7.915  12.463
28284W        W98884  15.984  18.740   1.895
28285W        W98885   0.724  33.096  11.400
28286W        W98886  38.860  39.849   4.681
28287W        W98887   3.487  22.144   4.860
28288W        W98888  17.664  29.653   2.610
28289W        W98889   5.776  16.300  11.515
28290W        W98890  33.656  13.758   1.680
28291W        W98891   1.470  22.290   3.569
28292W        W98892  40.858  34.535  14.523
28293W        W98893   8.876  20.206   0.827
28294W        W98894   0.316  26.181  11.426
28295W        W98895  16.082  29.958   4.670
28296W        W98896  31.897  31.205   2.231
28297W        W98897   3.421   8.121   3.160
28298W        W98898   7.220  24.249  11.116
28299W        W98899  19.515   8.456  10.734
28300W        W98900  26.603  27.041  11.673
28301W        W98901  30.041  17.608   0.919
28302W        W98902  40.510   7.738   3.629
28303W        W98903  41.642  10.240   2.260
28304W        W98904  38.017  33.533   4.142
28305W        W98905  17.131  39.424  13.970
28306W        W98906   0.830   6.367  14.217
28307W        W98907  10.830   1.401  10.872
28308W        W98908  42.400  20.627  13.312
28309W        W98909  12.947  40.226  13.498
28310W        W98910   8.356  31.535  10.734
28311W        W98911  14.684   7.339  12.771
28312W        W98912   1.368  37.195   4.334
28313W        W98913  31.124  18.230   3.221
28314W        W98914  41.256  10.758  13.850
28315W        W98915   0.520  17.598   1.153
28316W        W98916  21.845  32.817  11.144
28317W        W98917  38.387   6.341   4.286
28318W        W98918  27.099  36.412  12.918
28319W        W98919  23.481  35.566   2.814
28320W        W98920  17.966  24.478  13.511
28321W        W98921  34.908  22.971  12.787
28322W        W98922  41.048  37.505  11.703
28323W        W98923  20.746  22.777  12.466
28324W        W98924  37.795   3.833  12.053
28325W        W98925   5.911  33.433   0.211
28326W        W98926  12.690  38.363   1.239
28327W        W98927  17.732   3.674  13.050
28328W        W98928  27.052   9.540   1.896
28329W        W98929   6.759   1.736   2.397
28330W        W98930  15.951  11.230   2.250
28331W        W98931  43.517   8.025  11.927
28332W        W98932   6.216  17.218  11.625
28333W        W98933   6.874   6.928   2.889
28334W        W98934  38.050  15.842  11.674
28335W        W98935  25.813  39.556   2.901
28336W        W98936  12.472  18.989  10.771
28337W        W98937  41.506  20.349   2.758
28338W        W98938  18.652  15.157   1.712
28339W        W98939  24.348  26.839  14.081
28340W        W98940  30.594  30.866  14.263
28341W        W98941   2.384   1.744   2.725
28342W        W98942  15.013  37.327   4.294
28343W        W98943   8.372  36.645  12.937
28344W        W98944   6.179  43.256  13.978
28345W        W98945  29.253  24.670  14.871
28346W        W98946  12.282  28.593   0.321
28347W        W98947  13.180  18.604   0.794
28348W        W98948   4.525  31.602  10.614
28349W        W98949  26.232  10.891   3.762
28350W        W98950   2.442  41.487   4.213
28351W        W98951  15.767  30.115   0.920
28352W        W98952  44.809   6.684   2.637
28353W        W98953  24.645  41.750  11.927
28354W        W98954  16.234  15.889  13.572
28355W        W98955  34.825  15.404   0.155
28356W        W98956   9.645  24.922  12.441
28357W        W98957  17.131   4.649   2.237
28358W        W98958  42.354  29.526   0.263
28359W        W98959   1.377  27.759   2.104
28360W        W98960  36.890  23.674   0.364
28361W        W98961  39.665   5.349  12.675
28362W        W98962  15.793  40.762   0.807
28363W        W98963  18.207  35.604   1.680
28364W        W98964  26.933  11.265   3.710
28365W        W98965  44.735  25.459   2.761
28366W        W98966  17.656  40.575   4.671
28367W        W98967   8.419  19.615  13.741
28368W        W98968  29.156  26.670  10.888
28369W        W98969  32.318  20.999   0.291
28370W        W98970  43.935  36.635  14.375
28371W        W98971  21.023   2.450  13.037
28372W        W98972  29.636  10.485  12.107
28373W        W98973  32.365  27.341  12.660
28374W        W98974  24.104  41.033  10.732
28375W        W98975  12.679  22.877  13.043
28376W        W98976   6.885  18.529   1.781
28377W        W98977   1.221  34.457  10.309
28378W        W98978  28.179  24.706   3.170
28379W        W98979   6.523  39.589  12.873
28380W        W98980  23.871  17.145  11.467
28381W        W98981  25.802   0.670   3.041
28382W        W98982  17.771  31.851   4.851
28383W        W98983  24.162  17.202   4.739
28384W        W98984  40.262   7.870  11.671
28385W        W98985  41.480  42.260   1.844
28386W        W98986  39.005  16.825   1.428
28387W        W98987  30.737   2.758   3.408
28388W        W98988  30.383  16.097   2.649
28389W        W98989  16.798  26.716  14.224
28390W        W98990   8.344  31.486  14.502
28391W        W98991  20.734  33.662   1.379
28392W        W98992   4.858  15.858  10.605
28393W        W98993  39.022   7.567   1.032
28394W        W98994  12.685  21.724  11.240
28395W        W98995  17.395  13.818  14.463
28396W        W98996  31.907   5.179   0.627
28397W        W98997  29.611  39.917   1.922
28398W        W98998  42.112  30.450  10.457
28399W        W98999   9.298  31.014  12.943
28400W        W99000  20.667  14.985   4.151
28401W        W99001  17.230  25.239   0.349
28402W        W99002   7.764  42.129   3.754
28403W        W99003  19.667  16.220  11.186
28404W        W99004  11.244  23.157   0.327
28405W        W99005  36.711  11.684   2.218
28406W        W99006   7.419   8.955  12.619
28407W        W99007  38.421   3.708   0.526
28408W        W99008   6.462   7.317   2.307
28409W        W99009  26.795  34.166  14.343
28410W        W99010  17.970  17.058   0.950
28411W        W99011   5.395  34.793  10.796
28412W        W99012  42.301  27.607   3.147
28413W        W99013   1.681   5.788   3.426
28414W        W99014  29.393  43.946  14.403
28415W        W99015  23.031  36.168  12.047
28416W        W99016  10.926  27.596   0.035
28417W        W99017  19.451  31.026   2.961
28418W        W99018  16.053  38.739   3.209
28419W        W99019   0.547   4.706   0.763
28420W        W99020  21.675  19.557   0.224
28421W        W99021  16.185  15.287  11.490
28422W        W99022  20.487  19.245  11.087
28423W        W99023  12.053  27.572  13.378
28424W        W99024  39.472  25.384   1.642
28425W        W99025  11.596  42.073   2.906
28426W        W99026  16.976  13.936   1.949
28427W        W99027  34.298  15.902   1.873
28428W        W99028  24.365  41.080   0.518
28429W        W99029  21.157   4.897   4.645
28430W        W99030  28.114  18.295  12.949
28431W        W99031  18.215   9.151  13.837
28432W        W99032  29.530  22.946  12.599
28433W        W99033  32.398  31.434  14.297
28434W        W99034  38.034   8.138  14.831
28435W        W99035   3.924  30.975   0.738
28436W        W99036  21.601  36.953   0.801
28437W        W99037   5.828  18.766  14.151
28438W        W99038  39.219  16.075  12.122
28439W        W99039   4.738  25.726   0.846
28440W        W99040  40.291  43.330   0.142
28441W        W99041  14.063   7.788  14.441
28442W        W99042  39.767  14.278  11.165
28443W        W99043   4.776  18.477  13.541
28444W        W99044  41.114  34.532   3.181
28445W        W99045  43.312  11.685   4.309
28446W        W99046  40.290  24.666   2.955
28447W        W99047  27.905   3.380  12.924
28448W        W99048  30.432  30.917  12.107
28449W        W99049  11.021   6.988  11.681
28450W        W99050   4.787   1.801  10.475
28451W        W99051   8.653  44.829   0.880
28452W        W99052  20.191  30.897  10.649
28453W        W99053  30.081  30.097   0.460
28454W        W99054   9.716  25.448   2.384
28455W        W99055  39.730  14.626  13.584
28456W        W99056  23.632  34.501   0.825
28457W        W99057  22.244  21.373   2.006
28458W        W99058   2.751  21.617  12.006
28459W        W99059  14.727  36.038  11.966
28460W        W99060   7.326   2.965  14.327
28461W        W99061   5.171  27.214   2.184
28462W        W99062   0.607  42.353  13.197
28463W        W99063  25.788  41.884   4.243
28464W        W99064  17.285   1.889  14.026
28465W        W99065  32.345   6.728   4.033
28466W        W99066  10.287  14.617   5.175
28467W        W99067  40.920  25.142   1.772
28468W        W99068  36.515  12.169   3.850
28469W        W99069  36.831   9.834   0.671
28470W        W99070   6.653  22.474  14.932
28471W        W99071  10.667  40.468   0.541
28472W        W99072  13.151  38.048  11.243
28473W        W99073  20.830   1.171  12.013
28474W        W99074  18.688  40.845   1.915
28475W        W99075  10.732  25.263   3.418
28476W        W99076   6.967   4.824   2.244
28477W        W99077  14.286  31.824   2.173
28478W        W99078  21.419  30.905  13.070
28479W        W99079  26.743  18.617   1.269
28480W        W99080   7.934   6.663   0.474
28481W        W99081   9.074  44.834  14.284
28482W        W99082  37.378   9.082  11.167
28483W        W99083  31.460  26.749   4.904
28484W        W99084  32.348  29.153  10.169
28485W        W99085  39.477  42.552   1.381
28486W        W99086   4.460  32.137   3.162
28487W        W99087  42.944   5.161  13.040
28488W        W99088  36.283  27.684  12.009
28489W        W99089   1.800  36.000   1.387
28490W        W99090   3.089  32.416   2.301
28491W        W99091  23.630  19.901  13.487
28492W        W99092  39.850  32.534   1.868
28493W        W99093   9.041  30.673   2.415
28494W        W99094   0.260  31.048   0.244
28495W        W99095  32.616  14.733  13.479
28496W        W99096  28.755   3.687  13.117
28497W        W99097  37.333  26.084   4.391
28498W        W99098  39.311  39.582  10.607
28499W        W99099   4.020  34.977   1.964
28500W        W99100  30.473   7.757  11.783
28501W        W99101  30.589   7.911  11.323
28502W        W99102  27.688  31.104   0.317
28503W        W99103  35.965  28.843  14.338
28504W        W99104   9.844   9.420  11.259
28505W        W99105  22.691  34.482  13.518
28506W        W99106  22.265  17.552   2.418
28507W        W99107   6.782  38.430  12.600
28508W        W99108  11.600   0.185  11.116
28509W        W99109  12.161  40.319  11.512
28510W        W99110  21.662  33.618  14.132
28511W        W99111   1.893   8.427   2.161
28512W        W99112  39.294  41.725   2.680
28513W        W99113  15.105  38.025   4.683
28514W        W99114  18.986  19.248   5.091
28515W        W99115  15.837  22.523   3.775
28516W        W99116  32.470   3.853  14.504
28517W        W99117  18.114  29.465   2.814
28518W        W99118  29.534  20.785   0.321
28519W        W99119  18.603  11.319   0.089
28520W        W99120  17.091   0.774   0.298
28521W        W99121  20.165  20.127   3.127
28522W        W99122  39.371  19.939   4.470
28523W        W99123  39.774   7.715   4.450
28524W        W99124   2.329  22.458  14.317
28525W        W99125  38.232   8.901  11.415
28526W        W99126   1.598  37.653  12.187
28527W        W99127  24.137  14.257  11.038
28528W        W99128  14.081  16.769   2.606
28529W        W99129  19.540  27.540  14.277
28530W        W99130   8.144  37.588  12.855
28531W        W99131  33.412   5.750  10.482
28532W        W99132  14.269  32.905   3.907
28533W        W99133  24.143  42.249  11.458
28534W        W99134   2.778  12.184   4.079
28535W        W99135  22.076  28.573   0.855
28536W        W99136  38.387  44.333  10.563
28537W        W99137   4.955  42.031   1.664
28538W        W99138  39.631  32.714  14.977
28539W        W99139  21.250  34.493   4.217
28540W        W99140  30.069   9.242   3.993
28541W        W99141  14.116  35.016  13.033
28542W        W99142   1.669   5.509  13.501
28543W        W99143  37.675  16.807  13.489
28544W        W99144   7.864   6.317  11.644
28545W        W99145   5.640  41.378   1.681
28546W        W99146  41.355   2.795  12.920
28547W        W99147  15.361  11.840  10.587
28548W        W99148  26.135   3.356   4.058
28549W        W99149  33.898  15.610  11.593
28550W        W99150  36.380   4.013   1.317
28551W        W99151  19.225  18.160   0.351
28552W        W99152  37.698   9.593   1.881
28553W        W99153   9.754   7.780  12.016
28554W        W99154   9.405   0.481   4.895
28555W        W99155  13.581  25.166   2.688
28556W        W99156  16.683  26.714   1.197
28557W        W99157  39.077   0.484   4.130
28558W        W99158   5.307   0.419   0.618
28559W        W99159  33.847  21.009   0.500
28560W        W99160   9.616   9.000   4.675
28561W        W99161  13.542  36.011  13.175
28562W        W99162   9.758  33.977  13.421
28563W        W99163   2.126  40.366   5.165
28564W        W99164  37.431  23.457  14.275
28565W        W99165  21.504  29.075  14.835
28566W        W99166   6.867  13.352   3.711
28567W        W99167  38.943   1.564  12.421
28568W        W99168  21.558  30.425   4.664
28569W        W99169  38.348  16.758  14.490
28570W        W99170  11.658  38.981  11.041
28571W        W99171   9.642  38.407  12.909
28572W        W99172   8.023  20.821  12.779
28573W        W99173  38.470  20.032  14.944
28574W        W99174   9.220  31.118   3.358
28575W        W99175  14.172  43.563  11.103
28576W        W99176  31.613  18.177  13.404
28577W        W99177   2.404  34.447  13.884
28578W        W99178  12.516  41.080   3.310
28579W        W99179  23.677   0.465  14.482
28580W        W99180  44.204  14.382  13.021
28581W        W99181  29.620  29.775   1.076
28582W        W99182  40.432   7.786  14.312
28583W        W99183   2.323  38.263   4.836
28584W        W99184  41.127  41.313  12.815
28585W        W99185   7.877  10.754  13.365
28586W        W99186   5.614   9.082  11.168
28587W        W99187  37.562   1.245  11.918
28588W        W99188  32.042  17.568   1.905
28589W        W99189  31.987  23.124   3.222
28590W        W99190  33.612  30.610  11.293
28591W        W99191  36.294  29.153  12.953
28592W        W99192  27.523  39.299   0.549
28593W        W99193  41.008  24.452   3.827
28594W        W99194  43.199  44.026   4.463
28595W        W99195  22.963   3.711  14.828
28596W        W99196  21.806  28.030  13.455
28597W        W99197   5.521  41.794   0.016
28598W        W99198  39.851  10.929  14.007
28599W        W99199  37.111  38.099   1.297
28600W        W99200   0.981  23.195   4.686
28601W        W99201  24.689  17.242   4.672
28602W        W99202   9.026  14.084  10.596
28603W        W99203   6.429  22.537   2.386
28604W        W99204  15.600   2.389   3.546
28605W        W99205   3.058  13.975   3.238
28606W        W99206  28.233  37.957  10.015
28607W        W99207  10.300  33.606   3.152
28608W        W99208   9.584  17.751   0.506
28609W        W99209  29.997   8.205  14.838
28610W        W99210   6.186  37.807  11.066
28611W        W99211  17.861  32.075   4.054
28612W        W99212  14.069  32.876   2.375
28613W        W99213  13.297  43.465  13.680
28614W        W99214  10.908  36.180  11.732
28615W        W99215  40.221   1.754   0.013
28616W        W99216  23.405  24.413  13.367
28617W        W99217  30.629  44.977  13.946
28618W        W99218  19.508   7.174  14.165
28619W        W99219  41.559  20.172  13.883
28620W        W99220  30.327  42.035   9.989
28621W        W99221  12.856  44.198   2.409
28622W        W99222  11.956  41.995   3.305
28623W        W99223  23.599   2.374  11.006
28624W        W99224   7.607  19.815   0.826
28625W        W99225  40.817  20.582  10.709
28626W        W99226  35.898   0.332  14.940
28627W        W99227  17.797   7.384   2.403
28628W        W99228  25.280   4.232  12.105
28629W        W99229  15.515  24.321   5.030
28630W        W99230  39.745   5.708  13.053
28631W        W99231  33.042  14.446  12.908
28632W        W99232   0.035  22.311   0.338
28633W        W99233  44.474  24.807   0.702
28634W        W99234  20.049  22.071  13.321
28635W        W99235  38.196  37.852  13.121
28636W        W99236   5.915  29.963   4.243
28637W        W99237  39.922   4.889   0.903
28638W        W99238  43.639  19.514  13.756
28639W        W99239  24.645  26.966  10.926
28640W        W99240  13.082  23.743   3.130
28641W        W99241   9.662  42.351   3.638
28642W        W99242  42.860  17.319   1.280
28643W        W99243   8.219  41.305  14.894
28644W        W99244   8.118  32.048  11.394
28645W        W99245   1.982  25.654  12.692
28646W        W99246  43.631   7.873   1.821
28647W        W99247  32.847  24.909   2.249
28648W        W99248  40.713  29.863  14.890
28649W        W99249  40.840  24.765  10.588
28650W        W99250   9.656   3.401   1.073
28651W        W99251   8.387  15.014   0.282
28652W        W99252  32.206   2.836  11.947
28653W        W99253  32.254  11.743   2.400
28654W        W99254  21.070  14.400  11.974
28655W        W99255  11.700   7.815  13.124
28656W        W99256  11.030   2.263  13.449
28657W        W99257  22.680   2.199  14.048
28658W        W99258  41.521  41.874  14.891
28659W        W99259  12.459   1.192  12.159
28660W        W99260  29.965  33.086  13.154
28661W        W99261  25.862  22.098   3.689
28662W        W99262  23.256  25.642  12.503
28663W        W99263  31.716  16.401  10.578
28664W        W99264   5.390   1.734   4.264
28665W        W99265  36.152  13.827   3.359
28666W        W99266  43.357  13.743  13.883
28667W        W99267  26.452  37.831  12.842
28668W        W99268  13.088  41.473  11.504
28669W        W99269   4.146   5.332  14.151
28670W        W99270   8.022   4.617   4.716
28671W        W99271  20.189  25.722  10.176
28672W        W99272  34.898  43.872   2.769
28673W        W99273  36.034  30.099  13.392
28674W        W99274   9.311  32.027   3.199
28675W        W99275   0.418   0.639  13.325
28676W        W99276  37.066  44.745  12.552
28677W        W99277   1.679  16.190   1.288
28678W        W99278  35.963  30.434  10.687
28679W        W99279  25.027  33.693  12.896
28680W        W99280   6.967  20.105  11.183
28681W        W99281   8.870  44.484  13.428
28682W        W99282   6.924  43.807   2.207
28683W        W99283   8.325  32.635  12.888
28684W        W99284  38.096  32.290  13.937
28685W        W99285  18.234  41.771  13.497
28686W        W99286  20.072  34.525  11.076
28687W        W99287  20.376  19.039  12.081
28688W        W99288  24.984  34.644  13.803
28689W        W99289  12.290  13.379   4.613
28690W        W99290  39.801   5.154   0.346
28691W        W99291  19.576   6.653   2.388
28692W        W99292  44.367  24.956   3.365
28693W        W99293   2.760  10.400   3.987
28694W        W99294  26.668   7.420  12.760
28695W        W99295  34.476  18.066   0.926
28696W        W99296  28.455  24.841   0.223
28697W        W99297   8.254  35.632  12.648
28698W        W99298  29.498  11.183   0.068
28699W        W99299  10.709  41.843   4.601
28700W        W99300  12.610  22.240  11.255
28701W        W99301   8.128  44.534  14.031
28702W        W99302  44.734  12.715  13.929
28703W        W99303  19.073  14.580  11.495
28704W        W99304  16.456  28.032   1.469
28705W        W99305  42.518  23.227   3.726
28706W        W99306  38.486  17.171   2.267
28707W        W99307  28.463   3.656   2.852
28708W        W99308  17.044  23.248   4.795
28709W        W99309   9.253  37.543   1.250
28710W        W99310  33.569  15.384  14.837
28711W        W99311  12.192  21.160   0.444
28712W        W99312  24.149   9.217  13.363
28713W        W99313  31.973  20.452   1.318
28714W        W99314  17.294  32.455   0.775
28715W        W99315  17.356  24.516  14.876
28716W        W99316  35.515   2.365   2.239
28717W        W99317  42.922  25.092   9.950
28718W        W99318  18.359  10.322   3.111
28719W        W99319  44.147  43.893   0.687
28720W        W99320   9.670  24.506  14.062
28721W        W99321  17.188  39.791   0.630
28722W        W99322  31.539   7.717   4.570
28723W        W99323  18.235   8.445  11.891
28724W        W99324  13.191  16.553  10.417
28725W        W99325  43.907  18.011   3.196
28726W        W99326  42.136   7.323   3.077
28727W        W99327   1.250  11.323  10.819
28728W        W99328  28.186   8.205  14.536
28729W        W99329  30.177  43.013   4.572
28730W        W99330  10.164  13.724   1.733
28731W        W99331  42.512   6.511   3.806
28732W        W99332  36.817  19.141   1.853
28733W        W99333  20.504  41.760   3.111
28734W        W99334  30.108   1.346   3.729
28735W        W99335  42.904  39.005   3.268
28736W        W99336  39.838   0.480  13.475
28737W        W99337   1.402  42.822  14.494
28738W        W99338   9.089  27.088   2.409
28739W        W99339  18.068  43.724   0.649
28740W        W99340  44.380  13.291  13.588
28741W        W99341  25.027  12.826  10.788
28742W        W99342   3.522  21.587   2.829
28743W        W99343   6.077  26.150   0.928
28744W        W99344  30.568   7.924   2.389
28745W        W99345   9.525  15.861   1.448
28746W        W99346  40.729  43.847   0.860
28747W        W99347  12.905  10.417   2.325
28748W        W99348  37.838  33.946  13.934
28749W        W99349  15.927   4.324   4.620
28750W        W99350  29.996  26.495   3.991
28751W        W99351   6.674  19.042   2.975
28752W        W99352  44.698  42.298   1.872
28753W        W99353  23.536  22.911   2.811
28754W        W99354  40.805   6.470  11.507
28755W        W99355  16.415  17.632   3.763
28756W        W99356   1.296  27.364  14.691
28757W        W99357  13.496  27.099  13.945
28758W        W99358  22.126  38.068   1.556
28759W        W99359   6.520  19.698   3.563
28760W        W99360  41.709  19.506   1.709
28761W        W99361  30.633  25.474   2.352
28762W        W99362  35.294  21.569  13.792
28763W        W99363  21.319  28.201  13.444
28764W        W99364  15.368  22.501   2.823
28765W        W99365  35.544  38.484  13.298
28766W        W99366  22.175  19.505   4.966
28767W        W99367  24.049  42.908   0.806
28768W        W99368  39.984  32.956   0.978
28769W        W99369  34.916  17.180   3.118
28770W        W99370  43.020   0.974   1.729
28771W        W99371  32.973   4.875  12.412
28772W        W99372  28.179   0.015  13.837
28773W        W99373  10.936  11.780  14.953
28774W        W99374  42.874  36.968   0.685
28775W        W99375  15.759  44.835  11.868
28776W        W99376  20.297  34.110  10.872
28777W        W99377  24.269   3.785  14.717
28778W        W99378   0.266  41.756   3.530
28779W        W99379  40.398  44.357   0.976
28780W        W99380  39.403  37.105   0.498
28781W        W99381  32.075  29.968   0.675
28782W        W99382  41.013  33.168  11.663
28783W        W99383  38.705  15.579   0.700
28784W        W99384  31.466  23.276   1.256
28785W        W99385  15.917  20.789  13.567
28786W        W99386  13.709  43.474   0.906
28787W        W99387   6.861  14.654   3.331
28788W        W99388  17.998   7.721  11.690
28789W        W99389  35.866  22.614  12.083
28790W        W99390   5.895  10.446  10.737
28791W        W99391   8.074   7.769   1.204
28792W        W99392  28.552  29.124   1.468
28793W        W99393  30.749  43.842   2.962
28794W        W99394   6.236  27.658   3.383
28795W        W99395  32.200   4.746  12.876
28796W        W99396  28.626  21.541   3.304
28797W        W99397   7.257  40.001   3.201
28798W        W99398  31.011  43.000   0.426
28799W        W99399  44.476  27.677  12.927
28800W        W99400  40.026  19.738  11.949
28801W        W99401  21.719   2.362  14.177
28802W        W99402   2.128   5.349  13.693
28803W        W99403  20.065  33.620   2.120
28804W        W99404  36.148   6.545   1.847
28805W        W99405   4.899  13.224   0.254
28806W        W99406  36.386  37.466   3.308
28807W        W99407  24.478   1.317  13.916
28808W        W99408  37.380  14.295  13.953
28809W        W99409   2.369   4.746  13.911
28810W        W99410  43.917  33.571   4.550
28811W        W99411   4.745  17.691   2.812
28812W        W99412   2.938  29.958   1.519
28813W        W99413  15.162  29.969  13.389
28814W        W99414  11.626  20.403   0.494
28815W        W99415   4.030  44.001  13.914
28816W        W99416  28.518  42.709  14.062
28817W        W99417  23.913  25.388  13.916
28818W        W99418  13.158  27.501  13.779
28819W        W99419  21.430  26.082  14.729
28820W        W99420  17.468  24.330   0.966
28821W        W99421  39.047  24.494  12.861
28822W        W99422  36.696  19.723  13.398
28823W        W99423  35.624   4.973   0.371
28824W        W99424   8.137   6.899   3.465
28825W        W99425  29.497  12.629   3.297
28826W        W99426   1.764   0.802  13.540
28827W        W99427  10.291  30.497   2.615
28828W        W99428  10.445  22.508   0.453
28829W        W99429  38.945   8.391  13.046
28830W        W99430  22.549  22.263  13.125
28831W        W99431   7.724  37.403  14.870
28832W        W99432  12.812  36.419  11.282
28833W        W99433  30.863  37.919   3.144
28834W        W99434  38.101  33.163  10.454
28835W        W99435  31.087   3.937   3.686
28836W        W99436   6.345  42.537  13.540
28837W        W99437   7.296  41.048  11.311
28838W        W99438  19.295  39.024  13.855
28839W        W99439  27.487  16.440   4.791
28840W        W99440  36.458  16.042   3.678
28841W        W99441  31.612  16.229   2.064
28842W        W99442  18.692  39.180  12.751
28843W        W99443  35.960  20.181  11.156
28844W        W99444  13.654   3.821  14.751
28845W        W99445  14.116  16.254   2.476
28846W        W99446  19.076  32.561  11.279
28847W        W99447  22.925  14.457   3.394
28848W        W99448   9.675  39.437   4.742
28849W        W99449  19.449   9.691   3.153
28850W        W99450  13.036  40.749  13.516
28851W        W99451  21.451   3.626   0.645
28852W        W99452  18.793  15.612   4.734
28853W        W99453  24.589  39.752  12.906
28854W        W99454   8.186  34.663   1.354
28855W        W99455   6.417  33.900   2.295
28856W        W99456   3.201  37.514  14.610
28857W        W99457  28.146   6.816   1.262
28858W        W99458  13.668  31.196   1.909
28859W        W99459  21.332  43.310   2.524
28860W        W99460  21.011   2.897  10.704
28861W        W99461  21.729   6.264   1.613
28862W        W99462  22.277  39.824  10.736
28863W        W99463   9.251  18.881   3.688
28864W        W99464  31.739  10.974   2.163
28865W        W99465  33.615   3.349  11.150
28866W        W99466  12.568  27.513   1.740
28867W        W99467  43.708   9.714   1.882
28868W        W99468  19.715  30.640   1.780
28869W        W99469  38.584  16.721  14.954
28870W        W99470  38.379  42.181  11.763
28871W        W99471   8.832  10.344  13.021
28872W        W99472  21.262  12.665  13.968
28873W        W99473  11.610   7.451  14.449
28874W        W99474   9.766   4.480  10.577
28875W        W99475  31.017   7.647  11.167
28876W        W99476  12.674  15.548   4.336
28877W        W99477  18.589  10.125   4.608
28878W        W99478  34.863  44.123  11.958
28879W        W99479  43.918   3.849   4.219
28880W        W99480  41.942  19.509  13.110
28881W        W99481  44.823   4.353   1.704
28882W        W99482  32.134  31.651   2.250
28883W        W99483  33.595  43.238  11.732
28884W        W99484  22.676   1.125   3.247
28885W        W99485  22.261  28.231  14.828
28886W        W99486  28.926   8.928  11.810
28887W        W99487   7.501  17.503   0.086
28888W        W99488  41.273  19.178  13.382
28889W        W99489  19.183   7.498  14.368
28890W        W99490  18.570  15.053   0.308
28891W        W99491  20.288  30.411   1.418
28892W        W99492  35.137  16.226   4.168
28893W        W99493   0.777  30.623  11.479
28894W        W99494  34.926  27.983   3.335
28895W        W99495  17.137  39.803  10.227
28896W        W99496   8.372  24.171   2.537
28897W        W99497   1.203  41.543  10.785
28898W        W99498  44.013  26.592   2.841
28899W        W99499  24.979  23.489  14.302
28900W        W99500  24.427  27.802   3.470
28901W        W99501  42.941  25.439  14.651
28902W        W99502  35.488  25.377   4.576
28903W        W99503  38.566  42.330   0.396
28904W        W99504  26.169   2.929   0.623
28905W        W99505  22.605  15.238   3.657
28906W        W99506  14.689  19.168   1.193
28907W        W99507   6.384  35.510   4.675
28908W        W99508  32.332  32.419   2.623
28909W        W99509  19.019  41.740  12.904
28910W        W99510  21.237  12.463  13.450
28911W        W99511   2.204  35.152   2.345
28912W        W99512  19.806  21.368  14.374
28913W        W99513   6.101  22.142  11.738
28914W        W99514  16.100  24.746   2.764
28915W        W99515  42.937  30.938   0.873
28916W        W99516  16.209   4.489   0.223
28917W        W99517  13.533   5.442   4.218
28918W        W99518  16.304  19.677   1.914
28919W        W99519  27.693  37.157  12.874
28920W        W99520  17.780  28.919   4.044
28921W        W99521   1.671  12.777   4.443
28922W        W99522   8.689  21.554  11.542
28923W        W99523  44.635  17.516  13.406
28924W        W99524  25.698   6.194  11.013
28925W        W99525  24.545  10.334  14.666
28926W        W99526   0.262  28.673  11.501
28927W        W99527   1.871  30.379   0.360
28928W        W99528  16.666  35.129   3.553
28929W        W99529  32.629  37.821  14.930
28930W        W99530  38.468  44.524   0.594
28931W        W99531  11.879  43.469  14.989
28932W        W99532   1.965  38.841  14.253
28933W        W99533  29.343  42.348   0.050
28934W        W99534   8.699  33.328   4.604
28935W        W99535  38.960  11.925  14.102
28936W        W99536  16.726  36.511  14.474
28937W        W99537  41.520   9.667   0.901
28938W        W99538   6.696  19.805   2.386
28939W        W99539  34.135  20.625   3.354
28940W        W99540  23.552  35.089   1.549
28941W        W99541  25.798  12.378   3.053
28942W        W99542  35.803   4.840  14.858
28943W        W99543   0.260  39.463   2.202
28944W        W99544   5.785  38.576  11.644
28945W        W99545  41.560   7.952   2.294
28946W        W99546  44.369   0.314   1.614
28947W        W99547   8.601  16.698   2.349
28948W        W99548   1.914  29.401   4.958
28949W        W99549  44.670  35.405  11.008
28950W        W99550  22.051  25.695   3.626
28951W        W99551  31.984  32.112   2.933
28952W        W99552  29.908   7.331   2.002
28953W        W99553  39.202   3.171  14.972
28954W        W99554   0.495   8.362   3.757
28955W        W99555  11.795   2.291   4.579
28956W        W99556  32.957   1.274   2.146
28957W        W99557  14.250   9.150   0.372
28958W        W99558  16.207  29.330   1.806
28959W        W99559  21.234  33.783   3.283
28960W        W99560  21.548  32.341  11.162
28961W        W99561  23.956  39.535   4.153
28962W        W99562  36.985  13.058  10.634
28963W        W99563  42.036  13.892   5.045
28964W        W99564  29.705  17.491   4.259
28965W        W99565  18.111  21.119  11.093
28966W        W99566  30.534  31.318  10.656
28967W        W99567   6.896  22.838  13.365
28968W        W99568   4.299  11.699   3.175
28969W        W99569  29.119  26.000   4.742
28970W        W99570   2.731  41.586   2.178
28971W        W99571  18.086  36.474   3.090
28972W        W99572  11.737  11.319  14.794
28973W        W99573  36.008  16.028   3.178
28974W        W99574  11.069  23.034  14.837
28975W        W99575  21.708  14.117  12.828
28976W        W99576   5.684  27.693   0.912
28977W        W99577  12.394   3.143   4.520
28978W        W99578   4.884  15.678   0.217
28979W        W99579   2.745  16.873   4.025
28980W        W99580  14.096  25.698   1.865
28981W        W99581  12.326  24.232  11.681
28982W        W99582  28.613  36.376   1.122
28983W        W99583  21.770  25.568   2.271
28984W        W99584   8.122  19.745   3.685
28985W        W99585  26.093  16.796  14.485
28986W        W99586  11.272  10.489  13.426
28987W        W99587  39.010  38.296   2.961
28988W        W99588  20.210  37.376  14.545
28989W        W99589  34.305  44.401   3.219
28990W        W99590  36.936  28.015   4.384
28991W        W99591  30.734  33.224   3.798
28992W        W99592  40.555  15.133   3.178
28993W        W99593  44.336  39.997   0.743
28994W        W99594  14.589  33.024   0.525
28995W        W99595  38.161  40.124  12.373
28996W        W99596  44.742   8.963  11.466
28997W        W99597  30.650  20.165   2.260
28998W        W99598  30.426  16.772  10.747
28999W        W99599  41.727   0.424   2.316
29000W        W99600  26.644  14.040  11.051
29001W        W99601  35.984  34.286  12.296
29002W        W99602  14.924  32.072  10.476
29003W        W99603  24.578  17.066   2.820
29004W        W99604  44.705   4.730   5.118
29005W        W99605  14.450  25.736  12.588
29006W        W99606   8.974   2.448  12.142
29007W        W99607  14.166  44.032  11.973
29008W        W99608  36.302  10.711   0.732
29009W        W99609   8.190  16.463   4.277
29010W        W99610  34.978  14.755  11.041
29011W        W99611   9.795   9.432   2.062
29012W        W99612  30.367  22.149  11.121
29013W        W99613  40.147   5.349  12.898
29014W        W99614  38.552  21.968  12.076
29015W        W99615  20.312   4.361  14.287
29016W        W99616  16.090  35.469  12.567
29017W        W99617   5.276  32.576   0.026
29018W        W99618  24.102  29.172  12.970
29019W        W99619  16.111  40.461  13.954
29020W        W99620  43.627   1.201   4.956
29021W        W99621  33.487  37.982   4.155
29022W        W99622  15.226  24.983   3.059
29023W        W99623  13.252   9.886   0.583
29024W        W99624  20.900  29.992  14.317
29025W        W99625  22.174  14.371  14.416
29026W        W99626  21.513  42.961  14.315
29027W        W99627  26.719  17.657   0.301
29028W        W99628   4.067  10.639  12.898
29029W        W99629   1.843  27.920   0.798
29030W        W99630   7.930  20.760  10.601
29031W        W99631  21.054  25.248   1.729
29032W        W99632  28.962  35.316  10.504
29033W        W99633   3.820   7.249   4.644
29034W        W99634  36.791  27.787   2.607
29035W        W99635  32.455   0.507  10.420
29036W        W99636  30.392  24.702  11.184
29037W        W99637  42.361  19.790  10.227
29038W        W99638   7.551  25.366   2.880
29039W        W99639  43.949  34.617  11.878
29040W        W99640  22.418  42.436   0.819
29041W        W99641  35.688  20.584   1.722
29042W        W99642  34.125  20.716   1.968
29043W        W99643  19.333  22.986   3.674
29044W        W99644  21.073  24.835   1.356
29045W        W99645  44.292  32.182   4.055
29046W        W99646  44.390  28.974  12.577
29047W        W99647  38.495   2.320  11.525
29048W        W99648  35.369  12.556  14.484
29049W        W99649  19.659  27.714   1.428
29050W        W99650  21.848  41.968  11.594
29051W        W99651  34.170   2.526  11.928
29052W        W99652  14.560  31.996  14.035
29053W        W99653  36.105   8.396  13.337
29054W        W99654  13.986  41.096   3.166
29055W        W99655  29.952  20.641  12.566
29056W        W99656  41.791   3.340  11.162
29057W        W99657  32.887  17.703   1.304
29058W        W99658  21.819   2.025   3.582
29059W        W99659  33.915  14.554  13.962
29060W        W99660  11.404   5.356   2.422
29061W        W99661   4.228  26.606   3.990
29062W        W99662  35.350   1.797  12.091
29063W        W99663  43.033  16.018   1.789
29064W        W99664  14.673   1.208  13.913
29065W        W99665  23.189   6.135   1.880
29066W        W99666  37.868  20.063  12.077
29067W        W99667   0.888  27.480  11.647
29068W        W99668  44.746  11.854  13.675
29069W        W99669   6.015   7.762  14.881
29070W        W99670  31.009  31.867  11.156
29071W        W99671  17.813   6.631  12.363
29072W        W99672   1.238  44.987  12.504
29073W        W99673  33.847  17.310  13.092
29074W        W99674   5.864   7.824   3.097
29075W        W99675  39.445  26.829  13.281
29076W        W99676  40.809  18.887   1.106
29077W        W99677  26.893  20.980   3.540
29078W        W99678   3.283  30.135   2.260
29079W        W99679  19.926   8.119  11.947
29080W        W99680  22.506  10.073  14.088
29081W        W99681  33.548  14.199  12.311
29082W        W99682  24.115  11.266  12.084
29083W        W99683  29.572  17.154  12.200
29084W        W99684  16.022  25.469   0.819
29085W        W99685  28.963  15.076   3.108
29086W        W99686  42.266  39.438   1.455
29087W        W99687  24.060  12.615   4.006
29088W        W99688   6.456   4.692   3.289
29089W        W99689  33.022  35.254  13.600
29090W        W99690  16.627  10.765   1.034
29091W        W99691   0.707  30.380  13.881
29092W        W99692  38.475   2.285  12.561
29093W        W99693  44.928  26.152  11.088
29094W        W99694  29.209  12.622  11.936
29095W        W99695  43.479  40.434  10.783
29096W        W99696  13.700  14.154   1.952
29097W        W99697  22.396  36.520  12.853
29098W        W99698  42.825  27.580   1.292
29099W        W99699   7.202   7.689   1.175
29100W        W99700  22.725  30.030  12.634
29101W        W99701   3.853  42.963  14.336
29102W        W99702  13.069   9.587   4.712
29103W        W99703   2.236  13.223  12.837
29104W        W99704  25.242  40.851  12.049
29105W        W99705  17.317  14.333   0.003
29106W        W99706  19.846  28.096   4.554
29107W        W99707  18.320  12.565  13.349
29108W        W99708  31.591   7.703   2.742
29109W        W99709  28.204  38.482   3.659
29110W        W99710  14.191   7.536  11.172
29111W        W99711  44.575  21.315   3.184
29112W        W99712  36.996  29.964  14.080
29113W        W99713  37.389   8.201   4.318
29114W        W99714  11.702  19.766  14.892
29115W        W99715  21.138  43.623  10.157
29116W        W99716  33.256  23.263  11.640
29117W        W99717  31.950  36.066   3.304
29118W        W99718  33.080  28.431   2.156
29119W        W99719  30.997   4.332   0.350
29120W        W99720  24.479   8.240   4.235
29121W        W99721  15.597  15.083   1.423
29122W        W99722  38.074  41.967  14.318
29123W        W99723   1.261   0.352   4.114
29124W        W99724  12.030  35.083   1.021
29125W        W99725  40.097  10.863   4.110
29126W        W99726  44.683  43.876   2.004
29127W        W99727  33.381  32.980   1.023
29128W        W99728   5.179   9.852  11.692
29129W        W99729  14.536  20.687  10.637
29130W        W99730   8.964   0.485  11.214
29131W        W99731  44.929  21.613   4.437
29132W        W99732  35.174  13.903  13.383
29133W        W99733  12.078  15.704   1.411
29134W        W99734  16.140  35.382  14.349
29135W        W99735  18.392  41.061  10.854
29136W        W99736   9.777   2.774  13.136
29137W        W99737   2.153  17.371   4.919
29138W        W99738  12.777  27.076  13.047
29139W        W99739  13.307  12.898   0.296
29140W        W99740  19.983  38.928  12.097
29141W        W99741  23.426  23.637   3.259
29142W        W99742  23.290  13.807  14.039
29143W        W99743  37.904  44.407  14.898
29144W        W99744  35.002  17.000   3.585
29145W        W99745  11.072  16.281  14.825
29146W        W99746   6.103   9.362   4.132
29147W        W99747   9.174  21.596  14.857
29148W        W99748  18.675  27.794   4.999
29149W        W99749  26.955   5.337   3.599
29150W        W99750  17.522   9.135  11.973
29151W        W99751  42.599  21.630   1.417
29152W        W99752  33.188   1.426  10.725
29153W        W99753  14.403  43.015  11.129
29154W        W99754   3.105  33.990   2.314
29155W        W99755  35.580  19.964   4.631
29156W        W99756  29.657  28.528   1.507
29157W        W99757  34.622  34.318   2.912
29158W        W99758  39.502   5.654  13.520
29159W        W99759   4.232  38.498   4.319
29160W        W99760  41.889  37.619  11.633
29161W        W99761  19.119  14.409   4.884
29162W        W99762  14.049  26.448  11.637
29163W        W99763   4.696  23.033   2.773
29164W        W99764   7.425  32.482  10.444
29165W        W99765   7.272   7.933   1.980
29166W        W99766  37.945  25.654  13.003
29167W        W99767  44.532  38.670   3.747
29168W        W99768  19.992   3.188  14.336
29169W        W99769  27.112  41.303   1.131
29170W        W99770  40.913   8.501   2.726
29171W        W99771  16.157  44.956   2.389
29172W        W99772  30.579  44.719   2.374
29173W        W99773  34.523  20.206  10.762
29174W        W99774  44.814  24.310   3.322
29175W        W99775  41.907  35.117   2.520
29176W        W99776  15.289  38.994  11.534
29177W        W99777  34.589   1.734  11.439
29178W        W99778   0.974  17.650   1.396
29179W        W99779  28.229   5.909   2.176
29180W        W99780   7.408  37.333  13.977
29181W        W99781   4.826   1.999   4.553
29182W        W99782  27.528  17.975   0.240
29183W        W99783  16.957   5.599   0.727
29184W        W99784   6.928   5.898   1.368
29185W        W99785  28.650   6.273   4.096
29186W        W99786  31.784   2.457   1.108
29187W        W99787  31.119  35.024   3.167
29188W        W99788  36.487  19.922  10.457
29189W        W99789  39.807  29.959  13.893
29190W        W99790  19.475  21.645   3.615
29191W        W99791   8.836   7.498  14.297
29192W        W99792  19.230  43.027   1.180
29193W        W99793  21.890  12.296  12.477
29194W        W99794  32.292   6.445  13.127
29195W        W99795  40.928  44.461  12.027
29196W        W99796  20.778  35.832   3.999
29197W        W99797  44.505   2.411   1.689
29198W        W99798   2.808  12.868  14.399
29199W        W99799  25.546  39.671  10.427
29200W        W99800  32.425   2.355  10.309
29201W        W99801  23.035  10.662   3.780
29202W        W99802  42.910   7.978  11.032
29203W        W99803  12.056  24.136  11.258
29204W        W99804   2.980  28.773  14.871
29205W        W99805  24.754   8.838   5.185
29206W        W99806  15.060  38.468   3.930
29207W        W99807  17.367   3.662   2.200
29208W        W99808  17.754  21.256  12.911
29209W        W99809  29.399  14.305   2.189
29210W        W99810  42.711  15.661  12.493
29211W        W99811  34.056  11.799  11.666
29212W        W99812  26.653   2.167  13.871
29213W        W99813  37.891  37.376  14.367
29214W        W99814   4.403  12.397  13.269
29215W        W99815  44.812  11.112   2.120
29216W        W99816  11.049   1.806   3.646
29217W        W99817  43.778  31.884  12.397
29218W        W99818  35.065  18.551  13.358
29219W        W99819   5.994  17.546  13.859
29220W        W99820  32.181  11.174  13.955
29221W        W99821  41.908  35.426   5.015
29222W        W99822  29.876   0.531   0.593
29223W        W99823  20.238  36.086   0.215
29224W        W99824  12.424  36.600  13.861
29225W        W99825   4.751  19.606  11.641
29226W        W99826  12.160   8.380   3.882
29227W        W99827   3.546  14.179   3.166
29228W        W99828  39.041  32.082  11.499
29229W        W99829  35.277  26.380  11.938
29230W        W99830  25.306  32.966  14.905
29231W        W99831  33.981  22.749   3.624
29232W        W99832   1.828  40.968  14.506
29233W        W99833   5.145  35.640   2.277
29234W        W99834   3.983  44.950  12.882
29235W        W99835  32.864   8.508   0.459
29236W        W99836  39.020  11.786   4.792
29237W        W99837  10.772  42.265   3.896
29238W        W99838  36.143  24.635   3.106
29239W        W99839   9.781   5.928   4.335
29240W        W99840  37.199  30.855   0.374
29241W        W99841  31.480  25.236   3.944
29242W        W99842  10.247  17.848   0.986
29243W        W99843  30.898  15.366  12.071
29244W        W99844  43.766   4.259   2.908
29245W        W99845  16.175  32.060  10.350
29246W        W99846  15.453  17.298  12.294
29247W        W99847   7.736  13.500   0.880
29248W        W99848  43.253  20.399  14.855
29249W        W99849  33.489  19.232   1.394
29250W        W99850   4.070  38.025   0.688
29251W        W99851  12.190  39.064   4.359
29252W        W99852  31.772  13.581   2.872
29253W        W99853  14.703  39.855  12.978
29254W        W99854   1.346  26.413  14.978
29255W        W99855  23.421   6.198  14.947
29256W        W99856  39.392  16.711  11.144
29257W        W99857  40.249  29.679   0.931
29258W        W99858   9.427  12.839  10.998
29259W        W99859  26.981  29.445   9.905
29260W        W99860  10.618   3.445  11.434
29261W        W99861  40.325  15.685  12.548
29262W        W99862  18.802  25.478   3.578
29263W        W99863  37.022  44.315   2.275
29264W        W99864  14.162  30.501   2.782
29265W        W99865  42.331  28.122   0.240
29266W        W99866  31.380   1.700   2.138
29267W        W99867   9.740   9.470   3.423
29268W        W99868  16.252  27.347  10.512
29269W        W99869   0.321   0.963   3.228
29270W        W99870  26.547  41.276   0.658
29271W        W99871  41.554   9.753  11.569
29272W        W99872  34.873  36.317  14.469
29273W        W99873  11.566  32.503  11.905
29274W        W99874  10.227   6.489  11.087
29275W        W99875   5.406  40.939   3.426
29276W        W99876  31.097   7.565   4.159
29277W        W99877  29.416  34.004  11.263
29278W        W99878  35.465  23.976  11.678
29279W        W99879   4.392   0.350   4.595
29280W        W99880  14.637  11.623   0.504
29281W        W99881  41.069  24.951  14.696
29282W        W99882  15.321   8.240  14.310
29283W        W99883   5.496   3.821   2.028
29284W        W99884  29.942  20.068  11.298
29285W        W99885   8.717  27.408   1.630
29286W        W99886  15.274  27.523   0.006
29287W        W99887  37.399   1.870  12.159
29288W        W99888  11.679  27.670  10.789
29289W        W99889   1.208  32.057  14.604
29290W        W99890   1.756  18.379   3.735
29291W        W99891  36.403   4.386   2.157
29292W        W99892   1.447  36.957   2.979
29293W        W99893  33.853  28.612   4.115
29294W        W99894   9.279  36.925   4.625
29295W        W99895   8.431  16.538  13.555
29296W        W99896  17.658  22.791   2.280
29297W        W99897  15.867  21.197   4.061
29298W        W99898   8.353  31.858  12.464
29299W        W99899  16.919  14.779  10.149
29300W        W99900  37.864   6.315   2.118
29301W        W99901   1.355  41.307   3.206
29302W        W99902  32.448  19.153  14.433
29303W        W99903   8.771  11.451   4.107
29304W        W99904  24.755  31.872   0.536
29305W        W99905  37.882  10.820   1.026
29306W        W99906  10.786  23.996   4.565
29307W        W99907   1.301  25.038  10.990
29308W        W99908  21.727   3.207   0.818
29309W        W99909  44.518  42.432  14.054
29310W        W99910  42.585  11.144   1.769
29311W        W99911  12.207  26.520   3.644
29312W        W99912  15.505  24.090  14.861
29313W        W99913  17.588  28.962   0.265
29314W        W99914  13.065  25.450   4.603
29315W        W99915  39.021  44.571   4.067
29316W        W99916  32.584  29.501  13.508
29317W        W99917   0.872  17.753   2.760
29318W        W99918  41.807  22.253   3.351
29319W        W99919  25.572  12.722  13.426
29320W        W99920   8.240  40.300  10.834
29321W        W99921  18.066  43.900  14.263
29322W        W99922  18.081   0.705  12.344
29323W        W99923  37.374  25.036   0.206
29324W        W99924  36.517   5.879   0.309
29325W        W99925  40.388  43.885   3.489
29326W        W99926  36.116  14.873  10.853
29327W        W99927  18.817  23.524   4.898
29328W        W99928   6.840  41.242  11.963
29329W        W99929  33.483  14.384   1.049
29330W        W99930  28.079  38.650  13.365
29331W        W99931  29.114   6.275   0.944
29332W        W99932  41.431  27.972   5.133
29333W        W99933  18.970  38.639   4.532
29334W        W99934  28.398  14.030   2.127
29335W        W99935  14.382  10.200   4.510
29336W        W99936  35.463  17.345   3.171
29337W        W99937   5.270  35.845  13.049
29338W        W99938  27.705  24.768   2.944
29339W        W99939   9.819  24.784  10.749
29340W        W99940  11.133  22.227  13.847
29341W        W99941  17.821  35.872  13.928
29342W        W99942  26.164  27.069   0.428
29343W        W99943  41.780  30.268  12.987
29344W        W99944  16.225  34.478   2.056
29345W        W99945  14.415   8.093  13.394
29346W        W99946  14.275  33.415  13.835
29347W        W99947  22.402  25.493  10.621
29348W        W99948  15.238   0.591   3.128
29349W        W99949  21.609  15.676   0.443
29350W        W99950   5.950  30.672  11.431
29351W        W99951  13.720   0.914   0.166
29352W        W99952  35.826  19.511   4.594
29353W        W99953  30.210  11.828   4.727
29354W        W99954  40.452  35.509   1.145
29355W        W99955  10.181  19.339   0.690
29356W        W99956  40.478  30.026  11.522
29357W        W99957  32.828  25.198  11.671
29358W        W99958  36.145  19.497  13.094
29359W        W99959  26.050  33.946  12.454
29360W        W99960   4.395  22.785   4.187
29361W        W99961  34.936  21.131  12.583
29362W        W99962  11.794  22.012  11.864
29363W        W99963  18.358   9.273  13.362
29364W        W99964  16.303  33.369   5.345
29365W        W99965  22.494  10.900   3.793
29366W        W99966  27.206  31.179  14.568
29367W        W99967  33.585  21.685   4.240
29368W        W99968  14.967  33.475   4.108
29369W        W99969  16.318  23.035   1.141
29370W        W99970  44.546  26.756  12.005
29371W        W99971  40.777  28.736   1.719
29372W        W99972  20.235  31.348  11.558
29373W        W99973  30.105  39.750  13.245
29374W        W99974   1.519   9.361  13.910
29375W        W99975  36.407  36.592   1.835
29376W        W99976  33.395  26.976  13.692
29377W        W99977  19.131  21.060   4.306
29378W        W99978  43.234  42.915   0.952
29379W        W99979   2.437   7.917   3.316
29380W        W99980  13.246  40.696  10.233
29381W        W99981  16.113  24.773  13.586
29382W        W99982   0.276   0.881  12.863
29383W        W99983  33.092  26.128  11.557
29384W        W99984  18.732  21.721  11.511
29385W        W99985  11.001  41.290   2.387
29386W        W99986  26.504  21.166  14.887
29387W        W99987  13.885   0.985  12.010
29388W        W99988  29.502  17.501  11.619
29389W        W99989  27.533  40.060   2.276
29390W        W99990  34.695   7.470  11.022
29391W        W99991   1.947  23.375  10.645
29392W        W99992   7.669  36.996   3.583
29393W        W99993  23.286   9.809  14.062
29394W        W99994  15.743   1.359  10.766
29395W        W99995  22.621  12.108  12.216
29396W        W99996  13.195   2.927  12.480
29397W        W99997  10.597  23.376  14.388
29398W        W99998  32.462  31.002  10.606
29399W        W99999  29.007  36.827  14.907
29400W        W    0  31.283  26.154  11.437
29401W        W    1  39.051  25.434   3.293
29402W        W    2  20.675  37.177  11.054
29403W        W    3  23.773  16.106   4.060
29404W        W    4  13.876  13.700  14.482
29405W        W    5  24.550  22.858  10.574
29406W        W    6   9.176  17.615   2.199
29407W        W    7  20.600  18.287  13.807
29408W        W    8  25.616   5.590   3.637
29409W        W    9  26.454  37.033   0.891
29410W        W   10   4.923  14.984   1.243
29411W        W   11   5.186  37.273   2.233
29412W        W   12   7.141  24.004  14.930
29413W        W   13  37.357  11.639  11.188
29414W        W   14   5.386  27.989   4.275
29415W        W   15  22.577  40.087   3.208
29416W        W   16  11.310  10.200  10.727
29417W        W   17  35.810  21.458   0.503
29418W        W   18  18.171  32.065  12.972
29419W        W   19   7.216  37.325   2.405
29420W        W   20  44.900   4.322  12.908
29421W        W   21  35.072  40.376  10.982
29422W        W   22  44.524   6.161  14.027
29423W        W   23  26.101  38.118   2.127
29424W        W   24  41.500  15.523  13.095
29425W        W   25  42.768   2.149   0.247
29426W        W   26   8.159  16.201   1.315
29427W        W   27  21.694  39.528   0.158
29428W        W   28  28.390  14.792   3.275
29429W        W   29   2.344  34.881   2.773
29430W        W   30  13.406  33.392   0.596
29431W        W   31  11.072  11.372   3.843
29432W        W   32  16.969   4.155   2.786
29433W        W   33  33.799  42.887   4.661
29434W        W   34  33.181  28.052  13.997
29435W        W   35  33.090   4.729   1.402
29436W        W   36  10.143  25.185  14.320
29437W        W   37  25.172  39.022  11.799
29438W        W   38  19.423  12.122   4.232
29439W        W   39  44.970   4.527  11.545
29440W        W   40  39.001  16.020   3.627
29441W        W   41   9.114   3.871   2.674
29442W        W   42  37.281  10.835  12.127
29443W        W   43  43.836   1.475   2.209
29444W        W   44  33.401   1.291   2.429
29445W        W   45  44.642  26.569  12.636
29446W        W   46   2.581  29.534  14.286
29447W        W   47  23.068  32.963  12.405
29448W        W   48  43.838  32.383   1.276
29449W        W   49  40.542   0.509  11.174
29450W        W   50  22.136  44.825   0.480
29451W        W   51  27.419  18.075  13.366
29452W        W   52  37.542  44.330  10.808
29453W        W   53  13.277  43.682   3.589
29454W        W   54  31.189   6.379   2.677
29455W        W   55  10.782  44.534   2.072
29456W        W   56  19.614  11.650   4.819
29457W        W   57  31.167   5.736  10.416
29458W        W   58   5.282  41.844   4.902
29459W        W   59  15.472  17.122   3.673
29460W        W   60  24.107   8.343  14.795
29461W        W   61  16.876  21.435  13.440
29462W        W   62  29.686   1.878  13.512
29463W        W   63  17.103  29.658   1.922
29464W        W   64  29.027   6.912  12.533
29465W        W   65  22.172  36.814   0.088
29466W        W   66  43.242  12.328   3.335
29467W        W   67  22.303  33.479  12.479
29468W        W   68   9.960  42.281  11.230
29469W        W   69  32.110  30.465   0.429
29470W        W   70  18.067   3.619   3.322
29471W        W   71  19.651  10.893   0.322
29472W        W   72  36.143  35.100  13.038
29473W        W   73   4.772  24.123  13.900
29474W        W   74  17.997  36.822   3.913
29475W        W   75  38.973  43.955  10.299
29476W        W   76  22.195  19.669  14.132
29477W        W   77   4.608  32.618  12.978
29478W        W   78  43.545  43.918   0.271
29479W        W   79  23.296  11.344  10.746
29480W        W   80  30.226  11.335   4.080
29481W        W   81  23.512  38.474  11.744
29482W        W   82  23.204  41.304  13.060
29483W        W   83   3.262  20.365   5.125
29484W        W   84  19.209  36.293   1.445
29485W        W   85   8.859   4.947  11.413
29486W        W   86  30.755  40.690  12.492
29487W        W   87  23.741  36.423   0.894
29488W        W   88  31.700  42.549  13.441
29489W        W   89   1.451  11.137   1.865
29490W        W   90   3.880  25.510   1.410
29491W        W   91  28.072   8.620  13.345
29492W        W   92  30.623  44.043  11.078
29493W        W   93  10.688  26.481  12.920
29494W        W   94  23.007  43.690   1.827
29495W        W   95  16.226  26.933  13.918
29496W        W   96   0.777  10.802  10.691
29497W        W   97  29.120  24.460  13.497
29498W        W   98  28.463  20.135  11.974
29499W        W   99  43.433   3.182   4.045
29500W        W  100  18.807  13.817   2.778
29501W        W  101  34.068  21.599   4.124
29502W        W  102  41.440  36.053  12.835
29503W        W  103  17.838  21.457  13.659
29504W        W  104  42.995  38.936   0.070
29505W        W  105  16.829  33.770  11.682
29506W        W  106  11.195  16.261  13.312
29507W        W  107  25.496  37.756   0.421
29508W        W  108  37.480  29.190  10.659
29509W        W  109   3.307   7.150   2.225
29510W        W  110  27.912  21.158  13.997
29511W        W  111  41.778  37.109   2.261
29512W        W  112  40.919  23.236  11.043
29513W        W  113   9.146  41.244  12.886
29514W        W  114  32.358   6.860   2.579
29515W        W  115   6.006   2.221   1.368
29516W        W  116   2.790   8.580  14.996
29517W        W  117  43.323  27.863   0.320
29518W        W  118   9.667  12.299  12.705
29519W        W  119  39.515  29.978  13.467
29520W        W  120  35.320  22.658  14.402
29521W        W  121  12.777  36.924   3.242
29522W        W  122  38.929  25.206   2.823
29523W        W  123  37.526  43.467   3.219
29524W        W  124   9.213  17.081  14.145
29525W        W  125  28.629  43.512  12.942
29526W        W  126  19.020  17.011   5.002
29527W        W  127  44.500  44.705   3.147
29528W        W  128   0.213  41.738  12.650
29529W        W  129  24.712  34.107  12.935
29530W        W  130  28.388  39.565  11.690
29531W        W  131  20.192  43.881  11.461
29532W        W  132   2.664  12.975   3.103
29533W        W  133  35.078  16.212  11.241
29534W        W  134  15.901  33.844  14.480
29535W        W  135  27.830  35.039   4.829
29536W        W  136  40.765  31.675   4.646
29537W        W  137  20.649  23.155  12.807
29538W        W  138  28.959  21.449   0.472
29539W        W  139  22.761  43.723  12.931
29540W        W  140  10.832   0.486  11.136
29541W        W  141  36.793  11.770   2.782
29542W        W  142  24.660  28.660   0.018
29543W        W  143  44.818  15.545  12.473
29544W        W  144  42.572  44.904  10.628
29545W        W  145  36.485  44.506  14.700
29546W        W  146  22.026  44.984   2.933
29547W        W  147  43.788  44.398  13.935
29548W        W  148  44.250  22.692   2.169
29549W        W  149   4.858  32.510  12.513
29550W        W  150  13.017  24.577   4.611
29551W        W  151  43.187  31.959  13.074
29552W        W  152  27.174  14.851   3.744
29553W        W  153  17.727  40.582   3.249
29554W        W  154  11.277  39.259  12.539
29555W        W  155   5.809  13.168  12.443
29556W        W  156  13.753  42.530   3.459
29557W        W  157  16.242  40.163   3.322
29558W        W  158  11.765  38.424   0.842
29559W        W  159  40.702   7.766  13.462
29560W        W  160  32.823  22.581   1.238
29561W        W  161  27.910   2.402   0.248
29562W        W  162   7.678  42.094   1.174
29563W        W  163  20.048  23.254  11.479
29564W        W  164  36.836  12.927  11.614
29565W        W  165  10.398  18.172  14.663
29566W        W  166  32.060   6.060   3.616
29567W        W  167  12.935  36.962   0.973
29568W        W  168  34.378   0.845  11.885
29569W        W  169   3.853  32.031   0.868
29570W        W  170   5.872   8.116   2.657
29571W        W  171   4.461   0.826   1.357
29572W        W  172  26.557  24.800   2.696
29573W        W  173   4.401  20.720   4.725
29574W        W  174  17.093  38.991   1.830
29575W        W  175  24.847   7.422   4.764
29576W        W  176  14.757  13.282  14.384
29577W        W  177  37.511   1.647   2.615
29578W        W  178   9.332  12.190  13.183
29579W        W  179  11.227   3.272   3.801
29580W        W  180   9.831   9.177   3.874
29581W        W  181  30.477  22.092  11.617
29582W        W  182  26.228  39.294   4.210
29583W        W  183  18.497  22.137  14.490
29584W        W  184  11.372   6.928  13.221
29585W        W  185  37.084  16.627   3.106
29586W        W  186  42.920   1.304  12.575
29587W        W  187  11.224  37.421  12.594
29588W        W  188  26.813  11.230   9.842
29589W        W  189  34.616  36.353   0.518
29590W        W  190  31.173   9.188  11.234
29591W        W  191   7.896  12.626  14.382
29592W        W  192   3.085  38.403  11.864
29593W        W  193  43.741  23.702  10.671
29594W        W  194   0.133  22.955  11.027
29595W        W  195  17.660  22.240   4.622
29596W        W  196  20.639  42.507  14.469
29597W        W  197  20.727  28.193   3.462
29598W        W  198  18.511  30.932  13.558
29599W        W  199   6.465   7.619  12.988
29600W        W  200  44.218  33.532   4.130
29601W        W  201  22.647  40.473  12.575
29602W        W  202  42.283  44.224   1.843
29603W        W  203   7.321  24.269   1.654
29604W        W  204  38.774  24.758   4.955
29605W        W  205   9.640   5.135   0.534
29606W        W  206  40.833   9.246  11.346
29607W        W  207   0.598  13.367   2.195
29608W        W  208  37.467  44.755   3.808
29609W        W  209  15.460  10.877  12.961
29610W        W  210  16.368   7.133   3.824
29611W        W  211  44.418  19.807  13.743
29612W        W  212  26.782  28.032  13.403
29613W        W  213   4.719  13.931  10.700
29614W        W  214  28.523   4.869  14.827
29615W        W  215  17.750  33.746   2.141
29616W        W  216   6.375  18.834   4.638
29617W        W  217  38.950   3.833  14.025
29618W        W  218  39.752  30.332  11.909
29619W        W  219  27.231  35.637  14.766
29620W        W  220  25.316  17.611   1.758
29621W        W  221  10.226  12.824  13.061
29622W        W  222  22.544  44.796   1.599
29623W        W  223  17.541  33.143  10.198
29624W        W  224  41.240  43.197  13.024
29625W        W  225  17.622  26.706  12.020
29626W        W  226  43.874  21.066  13.432
29627W        W  227   0.045   6.459  12.898
29628W        W  228  24.253  25.535   4.079
29629W        W  229   3.980  18.717  13.895
29630W        W  230  22.258  39.863  12.477
29631W        W  231  39.367  41.496   3.427
29632W        W  232  10.735   2.316  14.790
29633W        W  233  27.419  11.638   3.984
29634W        W  234   6.425   1.606   4.998
29635W        W  235  20.769   4.337   1.712
29636W        W  236   8.897  43.088  12.993
29637W        W  237  42.449   6.453  11.308
29638W        W  238  24.754  33.722   4.303
29639W        W  239   0.381  37.954   0.757
29640W        W  240  41.617  14.257  14.880
29641W        W  241  31.845  17.474  14.402
29642W        W  242  39.624  14.721  12.657
29643W        W  243  24.836  30.087   1.957
29644W        W  244  36.011  21.038  13.026
29645W        W  245  21.707   5.742  11.651
29646W        W  246  11.634  14.800   4.546
29647W        W  247  39.967   0.180   0.375
29648W        W  248  30.699   2.668  12.371
29649W        W  249  23.511   4.202  12.050
29650W        W  250   3.771   1.948   2.943
29651W        W  251  37.050  39.791  11.558
29652W        W  252  10.186   3.967  13.094
29653W        W  253  14.520  25.673  10.408
29654W        W  254   3.502  28.237  13.719
29655W        W  255   3.227  37.792   2.957
29656W        W  256  22.321   6.618  11.520
29657W        W  257  28.022  37.148  14.802
29658W        W  258  24.428  20.194  10.672
29659W        W  259   5.789  22.150  10.799
29660W        W  260   5.960   9.708   0.732
29661W        W  261  44.481  41.138  14.384
29662W        W  262  30.030  24.692   4.511
29663W        W  263  10.339  41.849   4.989
29664W        W  264  10.638  17.762   0.642
29665W        W  265  44.664  27.948  12.502
29666W        W  266  24.017  16.503   3.649
29667W        W  267  33.437   0.921   0.274
29668W        W  268   2.302  38.277  12.996
29669W        W  269   4.258   0.291   2.186
29670W        W  270  28.378  27.025  13.703
29671W        W  271  28.165  39.865  10.230
29672W        W  272   0.296  22.725   2.022
29673W        W  273  10.190  26.178   2.698
29674W        W  274   1.751  44.787  13.829
29675W        W  275  28.210  10.942  14.155
29676W        W  276  36.113  31.127  13.558
29677W        W  277  38.460  18.569   3.283
29678W        W  278  28.503   4.893  11.664
29679W        W  279  31.410  43.911  12.553
29680W        W  280  32.878  15.197  13.403
29681W        W  281   0.386  25.202  12.901
29682W        W  282  15.052   6.674  10.753
29683W        W  283  13.980  17.236   3.641
29684W        W  284  38.904   2.565  12.488
29685W        W  285   7.748   4.414  12.821
29686W        W  286   3.547  18.233   3.313
29687W        W  287  24.900  38.827   2.782
29688W        W  288  37.425  28.134  10.717
29689W        W  289  22.739  26.720  11.148
29690W        W  290  13.138   6.091  12.088
29691W        W  291  27.622  36.334   0.862
29692W        W  292  18.977  29.094  14.837
29693W        W  293  39.467  21.750   2.222
29694W        W  294   4.186   9.320  13.414
29695W        W  295  32.397  19.765   3.071
29696W        W  296  25.186  31.573  13.313
29697W        W  297  10.789  40.018   1.905
29698W        W  298   0.431  33.686  13.058
29699W        W  299  39.812  27.071  14.378
29700W        W  300  21.562  29.079   3.055
29701W        W  301  40.521  32.528   4.551
29702W        W  302  32.128  30.008   0.178
29703W        W  303  31.366   8.871   1.331
29704W        W  304  28.363  18.741   2.064
29705W        W  305  23.459  16.357  12.039
29706W        W  306  24.589  12.681   3.858
29707W        W  307  26.389  35.528  14.424
29708W        W  308  34.731  41.645  13.924
29709W        W  309  30.100   8.375  12.060
29710W        W  310   9.836  29.867  11.575
29711W        W  311  11.620   1.330   3.277
29712W        W  312  12.530  40.365   2.344
29713W        W  313  13.477  19.877   4.208
29714W        W  314  29.523  40.802  12.104
29715W        W  315  15.500   5.483  14.336
29716W        W  316  32.665   6.857   2.166
29717W        W  317  12.628   6.195  11.055
29718W        W  318   0.256  42.944   2.375
29719W        W  319   3.389   8.606   0.443
29720W        W  320  24.995   5.803   2.868
29721W        W  321  32.563  17.821  11.766
29722W        W  322  11.765  27.244   0.371
29723W        W  323  23.351  28.681   0.342
29724W        W  324  24.084  40.627   1.463
29725W        W  325  26.945   1.163   0.942
29726W        W  326  26.019  26.979  14.935
29727W        W  327  22.204   9.982  10.804
29728W        W  328  13.696  32.645  11.870
29729W        W  329  35.556  16.567   0.926
29730W        W  330  29.005   4.825  11.849
29731W        W  331   0.815  23.612   4.449
29732W        W  332  16.615  22.672  14.497
29733W        W  333  21.467   8.373  14.344
29734W        W  334  37.460  23.685   4.164
29735W        W  335  19.299  30.711   1.311
29736W        W  336  21.039  16.628  12.942
29737W        W  337   8.853  20.686   3.867
29738W        W  338  43.744  13.771   0.648
29739W        W  339  14.744  27.026   3.310
29740W        W  340  43.288  11.571  11.843
29741W        W  341  43.717  29.491  10.707
29742W        W  342  28.687  18.439   4.107
29743W        W  343  26.444  30.095   1.223
29744W        W  344  32.905  36.964   1.202
29745W        W  345  36.563  33.172  11.533
29746W        W  346  32.547  12.121  11.587
29747W        W  347  24.011  15.223   3.361
29748W        W  348  23.182  32.363   0.847
29749W        W  349  36.428  10.268  14.841
29750W        W  350  24.686  26.126  12.356
29751W        W  351  40.038  42.486   1.938
29752W        W  352  28.094  27.502   0.258
29753W        W  353  32.977  44.021   4.562
29754W        W  354  37.981  32.823   1.861
29755W        W  355  26.723  30.643   3.371
29756W        W  356  30.094  13.362  13.167
29757W        W  357   8.384   6.077   2.314
29758W        W  358  31.639   0.930  14.552
29759W        W  359  26.839   1.289  13.700
29760W        W  360   2.857   8.086  13.871
29761W        W  361  38.315   0.955  13.482
29762W        W  362   4.346  41.099  10.427
29763W        W  363  31.930  36.655  12.069
29764W        W  364  38.922  44.271   0.522
29765W        W  365  14.318  35.832  14.120
29766W        W  366  41.961  23.877  14.852
29767W        W  367  10.851  32.625   4.413
29768W        W  368  29.997   9.606   4.359
29769W        W  369  37.270  34.374  11.675
29770W        W  370  14.303  20.271  11.086
29771W        W  371  29.605   5.840  13.832
29772W        W  372  27.401  25.470  11.891
29773W        W  373  23.730  22.255   2.260
29774W        W  374  10.053  28.660   0.704
29775W        W  375  20.001  42.401   0.259
29776W        W  376  32.176   3.686   4.754
29777W        W  377   7.951  35.335   1.962
29778W        W  378  38.548  11.638   4.168
29779W        W  379   0.290  16.195  13.756
29780W        W  380   6.244  41.497  13.515
29781W        W  381  19.943  40.394   0.668
29782W        W  382  41.645   2.391  13.071
29783W        W  383  10.084   4.956  13.213
29784W        W  384  11.355  18.512  13.496
29785W        W  385  39.496   4.286   0.254
29786W        W  386  12.154   8.225  14.788
29787W        W  387  25.640  18.693   4.274
29788W        W  388  36.531  38.329  10.673
29789W        W  389  27.749  37.634   1.881
29790W        W  390  10.804  29.244   1.095
29791W        W  391  16.992  43.414   2.397
29792W        W  392  13.708  21.077  14.056
29793W        W  393  10.023  21.602  11.606
29794W        W  394  18.495   8.311  14.881
29795W        W  395  35.343  41.398  12.864
29796W        W  396  20.542  26.270   1.246
29797W        W  397  26.011   7.362   0.997
29798W        W  398  15.307  25.164   0.549
29799W        W  399  38.635  34.865   4.135
29800W        W  400  27.419  17.935   2.737
29801W        W  401  37.503  11.372   0.028
29802W        W  402  42.746   6.467   3.369
29803W        W  403   4.330  42.976  10.453
29804W        W  404   7.293  19.660  13.583
29805W        W  405  29.560  34.854   3.353
29806W        W  406  32.678  16.131  13.532
29807W        W  407  20.774  18.338   3.974
29808W        W  408  43.612   8.255  13.205
29809W        W  409  28.487  18.013   4.316
29810W        W  410  13.476  41.619  13.343
29811W        W  411  14.325  15.196   0.475
29812W        W  412  39.767   3.291   1.070
29813W        W  413  26.987  20.227   3.372
29814W        W  414  24.090   2.788  10.258
29815W        W  415  44.586  38.192  10.007
29816W        W  416  35.233   0.515  10.438
29817W        W  417  11.122  42.137  10.031
29818W        W  418  31.148   4.804  11.232
29819W        W  419  15.376  43.305  11.713
29820W        W  420  36.614  41.323   1.879
29821W        W  421  23.826  13.328   2.873
29822W        W  422  19.812  41.388   2.748
29823W        W  423  41.956  43.715  13.392
29824W        W  424  28.404  36.307  13.398
29825W        W  425  13.850  28.578   4.218
29826W        W  426  41.139  11.900   1.637
29827W        W  427  11.264  33.342   4.587
29828W        W  428  16.027   1.404  11.596
29829W        W  429   2.388  10.336   3.480
29830W        W  430  24.202  41.035   1.836
29831W        W  431   3.804   9.287  11.527
29832W        W  432  29.188  44.249  12.694
29833W        W  433   3.978   6.620  12.064
29834W        W  434  39.031  44.550  13.860
29835W        W  435  40.880   7.592  14.486
29836W        W  436  36.862   6.362   1.151
29837W        W  437  33.860  30.577  12.616
29838W        W  438  13.918  19.576   2.189
29839W        W  439   7.675  28.678  12.852
29840W        W  440  40.609  21.227   1.852
29841W        W  441  33.276  27.611   1.269
29842W        W  442  38.758  31.508  10.796
29843W        W  443  27.104  35.935   4.359
29844W        W  444  31.068  17.768   4.902
29845W        W  445  26.376  25.626   3.072
29846W        W  446  41.009  17.537  12.581
29847W        W  447  19.074  39.527   4.346
29848W        W  448  12.645   3.925   1.826
29849W        W  449  18.344  10.345  12.021
29850W        W  450   1.512  42.025  13.020
29851W        W  451  27.374  16.462  12.066
29852W        W  452   2.410  37.504  12.455
29853W        W  453  20.496  38.415  14.527
29854W        W  454  34.830   1.801  11.913
29855W        W  455  13.068  26.157  13.979
29856W        W  456  18.082  28.594  10.746
29857W        W  457  38.203  37.627  10.989
29858W        W  458  42.853  26.983   0.211
29859W        W  459  19.149   8.651   3.244
29860W        W  460  35.458   7.803   4.667
29861W        W  461  27.915  28.857  11.904
29862W        W  462  44.405  17.090  12.452
29863W        W  463  28.511  17.751   2.709
29864W        W  464  14.841  22.233  11.234
29865W        W  465   2.531   7.232   1.247
29866W        W  466  13.282  24.308   2.914
29867W        W  467  26.288  43.918  14.839
29868W        W  468   5.305  28.408  12.002
29869W        W  469   2.671  23.599   1.189
29870W        W  470  15.629  40.499  14.225
29871W        W  471  15.448  36.898   3.875
29872W        W  472   8.414  38.830   0.776
29873W        W  473  44.991   2.276   1.747
29874W        W  474  36.000  36.903  13.261
29875W        W  475  29.515  40.343   1.319
29876W        W  476   1.296  23.625   4.617
29877W        W  477   9.782  34.126  10.552
29878W        W  478  43.900   6.389  11.382
29879W        W  479  30.526  11.098  14.793
29880W        W  480  43.668  36.447   1.023
29881W        W  481  22.147  27.600   3.960
29882W        W  482  37.404   2.306   4.018
29883W        W  483  44.491   6.327  13.496
29884W        W  484  27.041  36.413   0.378
29885W        W  485  22.431  34.263  11.207
29886W        W  486  13.337  24.671  14.629
29887W        W  487   1.565  39.450   2.822
29888W        W  488  30.387  42.012  10.490
29889W        W  489  29.730  23.080   0.372
29890W        W  490  24.675  35.878  14.959
29891W        W  491  29.536  41.132   0.755
29892W        W  492   9.322  26.152   3.722
29893W        W  493  14.156  35.252  11.578
29894W        W  494  15.228  36.284  14.011
29895W        W  495  44.165  24.218   2.325
29896W        W  496  24.932  31.227   0.301
29897W        W  497  28.402  30.639   4.346
29898W        W  498  30.048  29.401   0.813
29899W        W  499  34.099  15.791  12.031
29900W        W  500  16.035   9.820  11.626
29901W        W  501   9.424   1.789   2.881
29902W        W  502   7.946  31.955   3.284
29903W        W  503   7.869  18.673  10.366
29904W        W  504  34.786  14.112   3.138
29905W        W  505  14.717  10.601  11.826
29906W        W  506   1.749  12.111  10.811
29907W        W  507  30.264  15.815   2.212
29908W        W  508  30.189   0.864  14.378
29909W        W  509   5.009  10.798  13.268
29910W        W  510  43.112  41.583   4.705
29911W        W  511  39.538  31.396  11.120
29912W        W  512  26.167  20.001  13.985
29913W        W  513   6.436  31.416   3.811
29914W        W  514   4.964  13.848   2.218
29915W        W  515   6.663  32.414   0.412
29916W        W  516  10.701  37.104   1.494
29917W        W  517  25.186  25.137  14.244
29918W        W  518  10.721   0.285   4.588
29919W        W  519  22.740  37.548  13.422
29920W        W  520  44.276   7.054   1.711
29921W        W  521  32.065  10.764  14.928
29922W        W  522  41.317  22.669   2.631
29923W        W  523  41.957  40.032   0.839
29924W        W  524  16.679  41.946   4.486
29925W        W  525  27.508  37.544  13.178
29926W        W  526  26.179  35.452  14.955
29927W        W  527  26.770  12.328   1.130
29928W        W  528  28.732  44.465  12.601
29929W        W  529  14.754  19.033   0.254
29930W        W  530  44.969  25.525  11.678
29931W        W  531   4.727  26.546  10.159
29932W        W  532  17.054   5.312   0.306
29933W        W  533  40.937  24.909   3.590
29934W        W  534   3.766  15.277   0.277
29935W        W  535  10.298  28.120   0.871
29936W        W  536  29.068  33.697   4.929
29937W        W  537  34.595   5.065   2.629
29938W        W  538  14.294  42.851  13.263
29939W        W  539  12.028  34.318   1.668
29940W        W  540  28.154  34.001   1.386
29941W        W  541  31.708  41.733   4.156
29942W        W  542  33.999  12.546   1.459
29943W        W  543  36.815  33.507   2.261
29944W        W  544  18.590  15.678  14.325
29945W        W  545  15.116   2.238   3.731
29946W        W  546  34.815  31.504  13.355
29947W        W  547   1.649  24.214  14.354
29948W        W  548   6.262  37.068  13.345
29949W        W  549  42.702   1.504   3.710
29950W        W  550  24.248  13.368  12.657
29951W        W  551  26.523  38.488   3.178
29952W        W  552  37.245   1.366  13.783
29953W        W  553  11.171  26.580  10.726
29954W        W  554  44.574  36.289  11.055
29955W        W  555  28.490  35.835   4.552
29956W        W  556   2.888  13.540   0.192
29957W        W  557  30.828   0.541  11.727
29958W        W  558  32.995  27.859  12.046
29959W        W  559  21.093  25.642  12.006
29960W        W  560  11.485   2.285  11.235
29961W        W  561  29.487  30.118  13.334
29962W        W  562  14.184   9.127  11.234
29963W        W  563  17.655  10.705  11.140
29964W        W  564  30.130  31.539   4.321
29965W        W  565  31.049  14.598   4.768
29966W        W  566   3.332  41.308  12.893
29967W        W  567   7.958   9.313   2.452
29968W        W  568  16.278  38.562   4.528
29969W        W  569  39.492  18.051  11.397
29970W        W  570  15.896   6.761   0.475
29971W        W  571  11.036  42.883   3.347
29972W        W  572   4.296  41.027   0.192
29973W        W  573  15.773  28.259  14.029
29974W        W  574  15.618   9.811  14.948
29975W        W  575  19.801   8.855  12.884
29976W        W  576  37.856  20.382   3.210
29977W        W  577  24.739  24.956   3.068
29978W        W  578  20.745  35.719  12.420
29979W        W  579  32.139   1.268  12.482
29980W        W  580  36.935   5.417   0.906
29981W        W  581  35.307  13.834  12.862
29982W        W  582  20.389  37.525   1.935
29983W        W  583  28.392   3.775   0.828
29984W        W  584  19.386  42.491   1.125
29985W        W  585  16.052  18.730  13.057
29986W        W  586  28.005  24.200  12.861
29987W        W  587  25.936  38.901  13.385
29988W        W  588   1.919   9.077  14.079
29989W        W  589  10.593   7.603   2.825
29990W        W  590  43.219  36.498  10.832
29991W        W  591  43.782  15.748   1.293
29992W        W  592  42.901   3.962  14.492
29993W        W  593  17.349   1.239  13.111
29994W        W  594   2.376  29.086   3.439
29995W        W  595  12.057  39.988   4.798
29996W        W  596   9.238   8.904   0.423
29997W        W  597   2.222  35.130  10.300
29998W        W  598  43.777   7.704  11.060
29999W        W  599  17.712  10.194  14.319
30000W        W  600  30.338  25.899   2.319
30001W        W  601   4.922  32.610   0.392
30002W        W  602  28.542   7.674   1.691
30003W        W  603  33.088   7.804  14.809
30004W        W  604  44.038  18.115   4.313
30005W        W  605  34.011  38.072   2.357
30006W        W  606   2.193  36.062   1.737
30007W        W  607  24.612   1.001  14.396
30008W        W  608  32.231  28.532  12.128
30009W        W  609   7.176  22.510  13.981
30010W        W  610  13.754   6.729   2.770
30011W        W  611  10.413  42.370   1.037
30012W        W  612   6.358   1.898   3.231
30013W        W  613   0.790  27.642  13.372
30014W        W  614  40.559  13.054   0.419
30015W        W  615   3.841  43.228  12.694
30016W        W  616  34.593  15.152  11.592
30017W        W  617  12.920  11.338  13.585
30018W        W  618   0.698  44.328  14.402
30019W        W  619   6.666  20.194  13.947
30020W        W  620  39.949  17.401   1.739
30021W        W  621  18.960  25.090  10.309
30022W        W  622  33.959   9.002  12.813
30023W        W  623   5.502   4.165  14.422
30024W        W  624  35.978   5.204  13.633
30025W        W  625  35.154  32.722   4.965
30026W        W  626  38.392   1.796  10.727
30027W        W  627  39.806  31.490   4.597
30028W        W  628   8.300  31.048   0.407
30029W        W  629  28.862  30.423  11.213
30030W        W  630  37.351  40.240   1.578
30031W        W  631  15.345   7.245   2.462
30032W        W  632  38.580  28.266  11.473
30033W        W  633   1.378  14.750   2.436
30034W        W  634  36.128  14.654   1.653
30035W        W  635  36.529  42.169   2.389
30036W        W  636  13.696  39.993  10.615
30037W        W  637   5.995  12.053  10.624
30038W        W  638   6.721  44.555  11.902
30039W        W  639  26.992   2.645   2.731
30040W        W  640  22.114   7.474   2.803
30041W        W  641  37.282  21.161   1.182
30042W        W  642  36.899  21.234   1.949
30043W        W  643  36.890   2.987   0.251
30044W        W  644  29.039  20.986   1.734
30045W        W  645  43.649  14.794  13.379
30046W        W  646  12.674  30.056  10.596
30047W        W  647  43.690   2.240  11.686
30048W        W  648  44.773  21.531   1.917
30049W        W  649  37.573  11.808   2.658
30050W        W  650  28.057   8.341  11.671
30051W        W  651  32.385  18.906  13.185
30052W        W  652  38.485  34.641  14.982
30053W        W  653  27.228  39.878  12.394
30054W        W  654   3.305  39.801  13.086
30055W        W  655   1.341  31.435   2.845
30056W        W  656  29.440  25.130  11.555
30057W        W  657   5.210  29.897   1.407
30058W        W  658  33.464  21.182  10.171
30059W        W  659  34.482  42.571  10.722
30060W        W  660  42.191  34.311  13.065
30061W        W  661  28.498   1.427  13.059
30062W        W  662   5.354  16.989   2.153
30063W        W  663   5.193  12.396   2.592
30064W        W  664  26.114   6.086  12.438
30065W        W  665  44.323  31.607   4.034
30066W        W  666   0.405  35.126   2.193
30067W        W  667  10.939  13.584   4.564
30068W        W  668  22.495   6.945  11.892
30069W        W  669   5.608   9.295  12.513
30070W        W  670  40.857  15.906  12.581
30071W        W  671  10.032  14.164   1.489
30072W        W  672   4.474  13.452   3.223
30073W        W  673  20.609  41.263  14.804
30074W        W  674   2.953   1.593  10.440
30075W        W  675  35.928  32.298   2.661
30076W        W  676  19.180  16.682   1.300
30077W        W  677   0.764  44.510  13.085
30078W        W  678   7.309  41.428   0.075
30079W        W  679  40.848   0.469  13.589
30080W        W  680   1.898  17.563   3.335
30081W        W  681  17.611  15.479  14.418
30082W        W  682  39.416  26.395  12.943
30083W        W  683  29.887  30.125  14.049
30084W        W  684  42.993   8.271   0.710
30085W        W  685  18.983  25.682  13.897
30086W        W  686  11.650  32.117   2.134
30087W        W  687  33.858  17.715  13.386
30088W        W  688   6.311   4.245  12.454
30089W        W  689  33.649  33.490  10.150
30090W        W  690  25.599  43.581   1.371
30091W        W  691   3.864  42.472  13.095
30092W        W  692   8.755   0.523  10.752
30093W        W  693  42.386  26.926   4.950
30094W        W  694   6.979  11.594   1.056
30095W        W  695  16.180  35.324   2.691
30096W        W  696  10.968   7.736   4.427
30097W        W  697  27.229  23.482   1.801
30098W        W  698   0.473   9.186   3.302
30099W        W  699  35.452  25.633   2.685
30100W        W  700  42.441  24.948   0.783
30101W        W  701   9.711  44.545  11.648
30102W        W  702  13.316   1.728   1.735
30103W        W  703  26.995  28.716  10.642
30104W        W  704  24.462   6.145   0.058
30105W        W  705  39.579   4.384  13.509
30106W        W  706  20.320  19.631  13.911
30107W        W  707  31.887  19.181   1.889
30108W        W  708  15.843  16.259   4.940
30109W        W  709  36.250  26.269   2.922
30110W        W  710  16.677   8.411  12.851
30111W        W  711  32.404   3.219  12.371
30112W        W  712  25.298  31.917   0.940
30113W        W  713  43.301  19.143  14.891
30114W        W  714   1.026  36.621  13.140
30115W        W  715  37.519  35.814  11.960
30116W        W  716  28.494  21.459   2.800
30117W        W  717  27.834  18.652   2.127
30118W        W  718  41.357  28.875   0.499
30119W        W  719  24.783  33.188  11.111
30120W        W  720  12.289  19.728   1.486
30121W        W  721  23.158   9.688   3.286
30122W        W  722  29.334  40.056   2.328
30123W        W  723  13.826  41.851  13.659
30124W        W  724  33.410  17.329  11.468
30125W        W  725  12.193  31.176   3.758
30126W        W  726  11.134   1.837  10.901
30127W        W  727   9.723  12.247   4.672
30128W        W  728  25.181  35.990  12.989
30129W        W  729   2.418  42.371  13.737
30130W        W  730  19.258  34.188  11.955
30131W        W  731   8.457  34.373  12.661
30132W        W  732   8.754  41.255  13.243
30133W        W  733  42.308  41.295  11.220
30134W        W  734  37.555  43.580   2.283
30135W        W  735   1.083   2.680   1.808
30136W        W  736  12.958   5.538   2.131
30137W        W  737   9.823  36.571  14.023
30138W        W  738  41.358  22.644   1.236
30139W        W  739  23.304  31.595   1.927
30140W        W  740  10.574   5.825  13.541
30141W        W  741  17.317   3.519   1.386
30142W        W  742  42.891  19.618   4.982
30143W        W  743  30.443  36.712   3.623
30144W        W  744   6.627  42.643  11.893
30145W        W  745  10.352  32.979   2.281
30146W        W  746   4.943  44.801  10.692
30147W        W  747  12.802   7.232   0.629
30148W        W  748  16.607  13.631   2.191
30149W        W  749  16.500  18.746  13.338
30150W        W  750   0.303   0.748  10.664
30151W        W  751  14.523  23.009   4.104
30152W        W  752  15.519   7.864  14.617
30153W        W  753  21.125   5.388   3.474
30154W        W  754  15.657  26.513   5.153
30155W        W  755  29.788  38.832  13.532
30156W        W  756  13.105  20.056   2.387
30157W        W  757  30.220  44.468  10.976
30158W        W  758  26.901  35.942   1.254
30159W        W  759  35.380  35.955   0.659
30160W        W  760  36.089  14.743   0.426
30161W        W  761  27.158   0.911   0.525
30162W        W  762   2.390  42.706  12.488
30163W        W  763  44.538  16.826  13.902
30164W        W  764  39.593  39.431   2.362
30165W        W  765  23.361   8.911   2.793
30166W        W  766  43.887  39.442  14.746
30167W        W  767  11.471  12.675   4.049
30168W        W  768   3.571   3.037   4.222
30169W        W  769  43.864  13.252   1.399
30170W        W  770   3.804  38.527   1.229
30171W        W  771  33.653  27.889  13.726
30172W        W  772   4.616  36.718   3.138
30173W        W  773  21.704   9.822  11.802
30174W        W  774  29.381   1.712  12.992
30175W        W  775  39.859   7.648   0.356
30176W        W  776   0.648   6.816   4.712
30177W        W  777  12.655  32.882   1.040
30178W        W  778  20.054   6.397  13.813
30179W        W  779  40.325   2.485   3.953
30180W        W  780  40.436  38.590   3.039
30181W        W  781  25.098  23.936   4.065
30182W        W  782  33.035   6.305  14.872
30183W        W  783  36.141  26.721   3.201
30184W        W  784   3.302   8.333  14.813
30185W        W  785  23.239   0.162  11.180
30186W        W  786   6.144   1.760   3.700
30187W        W  787  10.818   1.764   0.396
30188W        W  788  15.140  30.111   4.313
30189W        W  789  17.710  42.318   2.823
30190W        W  790  14.231   6.121   3.028
30191W        W  791  39.873  32.231   2.956
30192W        W  792  16.631  42.504   2.507
30193W        W  793  37.373  10.235  13.471
30194W        W  794   5.429   3.244  13.536
30195W        W  795  29.978  36.552  10.650
30196W        W  796  33.867  24.803   2.627
30197W        W  797  35.152  12.839  12.570
30198W        W  798  37.098  12.893  12.957
30199W        W  799  34.958  42.321  10.646
30200W        W  800  27.488  14.859   3.309
30201W        W  801  35.531  34.453  13.404
30202W        W  802  15.668  28.296  10.977
30203W        W  803   4.873   3.212  10.514
30204W        W  804  11.779  18.159   0.842
30205W        W  805  20.040   1.869  14.323
30206W        W  806  19.383  43.716  10.719
30207W        W  807  31.912   8.508  13.967
30208W        W  808  22.555  21.605  12.984
30209W        W  809  31.851  26.585  14.404
30210W        W  810   5.016  20.021  12.345
30211W        W  811  16.248  17.293   1.403
30212W        W  812  14.593  11.945   1.471
30213W        W  813  35.478  30.892  14.770
30214W        W  814   1.474   5.470   1.151
30215W        W  815  34.245  27.901  12.504
30216W        W  816  30.913  33.545   1.978
30217W        W  817  20.262   0.879   4.631
30218W        W  818  19.089   4.441  12.623
30219W        W  819  11.286   9.877   0.027
30220W        W  820  31.175  35.645  11.562
30221W        W  821   7.924   6.630  12.945
30222W        W  822  35.769  42.064   3.652
30223W        W  823   3.435   4.191  11.244
30224W        W  824  12.280  34.367  10.715
30225W        W  825   9.412   2.788   1.356
30226W        W  826  19.566  25.299  12.153
30227W        W  827  28.329  17.663   3.233
30228W        W  828  29.223  11.643   0.951
30229W        W  829  13.655  31.813   4.224
30230W        W  830  27.061   2.508  13.600
30231W        W  831  12.882   4.584   4.459
30232W        W  832  19.302  15.945  10.004
30233W        W  833  18.986  40.097   0.769
30234W        W  834  25.561  23.969  11.101
30235W        W  835  44.861  15.705  14.892
30236W        W  836  14.008  27.652  11.311
30237W        W  837   3.367  15.016  11.955
30238W        W  838  24.141  41.759  14.923
30239W        W  839  13.881  29.643  14.279
30240W        W  840  27.648  13.350  14.308
30241W        W  841  15.282  19.493  11.462
30242W        W  842  35.803  35.336   1.874
30243W        W  843   9.176  23.215  13.550
30244W        W  844   0.335   3.527   4.131
30245W        W  845  25.721  39.646  13.397
30246W        W  846   4.738  36.958  12.839
30247W        W  847  35.922  12.509  12.997
30248W        W  848  13.575  36.545   3.855
30249W        W  849  33.393  17.521  13.314
30250W        W  850   8.031   1.754   3.739
30251W        W  851  26.678  26.642   1.905
30252W        W  852  22.469  19.017  14.906
30253W        W  853   7.053   8.862   2.350
30254W        W  854  42.291  27.723   1.807
30255W        W  855  20.748   6.904  13.959
30256W        W  856  15.562  13.215   3.718
30257W        W  857  19.708  10.933   1.219
30258W        W  858   4.457   8.223  13.238
30259W        W  859   2.747   1.350   1.367
30260W        W  860  18.602   7.824   0.875
30261W        W  861   5.871  35.326  11.130
30262W        W  862  41.440   4.683  12.631
30263W        W  863  10.264   1.721   3.835
30264W        W  864   8.233  31.002   3.335
30265W        W  865  39.344   0.991   4.723
30266W        W  866  13.549  13.733   2.707
30267W        W  867  34.395  38.483   2.770
30268W        W  868   5.510  27.935  11.526
30269W        W  869  11.264  14.839   4.145
30270W        W  870   3.633  18.628   0.841
30271W        W  871  19.391   2.106   1.320
30272W        W  872   8.367  28.109   1.656
30273W        W  873  23.811  30.874   2.205
30274W        W  874  22.691  14.669  14.012
30275W        W  875   9.290   5.591   2.333
30276W        W  876  23.894  26.385  14.852
30277W        W  877  43.698  11.403   0.154
30278W        W  878  12.450  13.863  12.507
30279W        W  879   3.314  16.180  11.924
30280W        W  880  33.678  25.564  12.928
30281W        W  881   6.913  30.946   0.295
30282W        W  882  22.386  41.779  12.814
30283W        W  883   0.184  16.836  10.801
30284W        W  884   0.458  29.064  13.829
30285W        W  885  36.211   3.767   1.786
30286W        W  886  39.025  21.634  14.361
30287W        W  887  17.655  39.404   4.432
30288W        W  888  41.272  35.150  10.580
30289W        W  889  21.589  32.682  10.737
30290W        W  890  35.817  19.049  12.144
30291W        W  891  19.172   4.925   3.263
30292W        W  892  22.459  25.307  10.108
30293W        W  893  37.398   5.290   2.753
30294W        W  894  34.443  22.761  12.951
30295W        W  895  31.685  20.683  12.134
30296W        W  896  33.026  34.965  14.491
30297W        W  897  12.970  17.065   1.530
30298W        W  898  24.182  29.339   4.498
30299W        W  899  25.011  29.014   3.922
30300W        W  900   4.703  44.256  12.201
30301W        W  901  21.280  29.688  11.421
30302W        W  902   9.160  32.895  11.986
30303W        W  903  16.759   5.186  14.547
30304W        W  904  19.422  37.815  10.699
30305W        W  905  21.116  13.732   1.783
30306W        W  906  36.701   3.007  12.040
30307W        W  907  27.697  34.323  14.254
30308W        W  908   8.851  26.228   2.846
30309W        W  909  11.389  35.522   2.579
30310W        W  910  10.654  42.595  14.370
30311W        W  911   4.913  13.420  13.907
30312W        W  912  31.150   2.911   0.408
30313W        W  913   0.886  15.299   3.639
30314W        W  914  16.762   5.958  12.352
30315W        W  915  26.989  24.542  14.117
30316W        W  916   5.310  38.379   0.493
30317W        W  917   7.839   3.152   2.012
30318W        W  918  22.060  26.557  13.177
30319W        W  919  31.712  24.490  11.286
30320W        W  920   1.436  11.760   3.966
30321W        W  921  14.770  29.634  14.754
30322W        W  922   9.323  31.233   4.529
30323W        W  923  38.630  23.105  14.925
30324W        W  924  16.301  25.579  13.946
30325W        W  925   0.041  35.096   1.817
30326W        W  926  16.704  10.771   2.050
30327W        W  927   9.352   9.599  13.942
30328W        W  928  24.541  33.640  11.736
30329W        W  929  32.932  39.203  13.035
30330W        W  930   7.460   5.289  12.935
30331W        W  931   1.183  34.605   1.415
30332W        W  932  22.978  44.760   3.149
30333W        W  933   8.810  11.325  14.535
30334W        W  934  32.041  35.001   4.512
30335W        W  935  11.416   6.420   4.499
30336W        W  936  19.593  39.316   2.779
30337W        W  937  10.165  41.356  11.257
30338W        W  938  41.985  40.269  13.012
30339W        W  939  29.851   4.087   3.371
30340W        W  940  26.575  43.358  12.319
30341W        W  941  25.089   8.551   2.747
30342W        W  942   9.781  35.189  12.038
30343W        W  943  32.060  29.473   0.849
30344W        W  944  26.112   1.205   2.352
30345W        W  945  27.419   9.256  12.092
30346W        W  946  39.501  41.622  13.107
30347W        W  947   7.791  17.141   1.277
30348W        W  948  31.633  24.894  10.968
30349W        W  949  31.188  39.957   1.858
30350W        W  950   3.414   0.364  14.598
30351W        W  951  39.432  32.880  11.132
30352W        W  952   3.261  26.460  13.909
30353W        W  953  21.151   8.518   0.320
30354W        W  954  11.299   1.841  11.393
30355W        W  955  20.233   8.481   0.564
30356W        W  956  43.699  40.579  11.559
30357W        W  957  11.234  19.074   2.794
30358W        W  958  39.430   7.747  14.072
30359W        W  959  37.969  29.066  13.007
30360W        W  960  34.331   7.991  11.898
30361W        W  961  31.962  14.280   3.847
30362W        W  962  17.754  32.979   0.439
30363W        W  963  22.665  38.558  10.535
30364W        W  964  41.379  37.557   1.424
30365W        W  965   3.996   0.072  11.024
30366W        W  966  36.700  18.159   3.150
30367W        W  967   7.964  39.518  12.004
30368W        W  968  31.559  43.433  12.433
30369W        W  969  25.269  35.001   2.794
30370W        W  970  34.105   5.332  10.998
30371W        W  971  41.820  33.330  11.131
30372W        W  972  39.243  41.556  13.536
30373W        W  973  32.624  38.320   3.192
30374W        W  974   4.167   3.987  14.277
30375W        W  975   9.939  37.746   0.665
30376W        W  976  27.606  16.636   0.346
30377W        W  977  40.962  36.274   0.613
30378W        W  978  43.798  23.520   1.349
30379W        W  979  42.352  34.684   4.456
30380W        W  980  17.251  30.331   3.168
30381W        W  981  16.486  11.742  13.978
30382W        W  982  44.721  36.335  14.840
30383W        W  983  38.485  26.474  11.022
30384W        W  984  17.275  34.444  13.859
30385W        W  985  21.139  31.761   3.824
30386W        W  986  15.517   6.825  10.964
30387W        W  987  31.682  43.071   1.439
30388W        W  988   9.712  31.410   0.397
30389W        W  989   8.783  33.782   4.949
30390W        W  990   2.318   3.720   3.725
30391W        W  991  34.811  38.886  12.326
30392W        W  992  37.692  43.085   2.254
30393W        W  993   6.654  29.921   2.666
30394W        W  994  42.378  41.558  12.548
30395W        W  995   0.738   4.407   4.080
30396W        W  996  33.557   7.728   1.951
30397W        W  997  22.091  32.531  10.755
30398W        W  998  42.986   8.724  14.387
30399W        W  999  23.123  11.379  14.380
30400W        W 1000   5.356  18.470   3.975
30401W        W 1001  19.072  37.614  13.909
30402W        W 1002  15.988  43.987  11.548
30403W        W 1003  20.079  33.567  12.245
30404W        W 1004  15.267  42.554  14.027
30405W        W 1005  10.099  22.182  12.548
30406W        W 1006  23.862   2.813  11.139
30407W        W 1007  33.520  37.256   0.992
30408W        W 1008  19.555   1.445   1.214
30409W        W 1009  19.306  28.677  12.057
30410W        W 1010  43.948  16.840  10.597
30411W        W 1011  29.036   3.396   3.993
30412W        W 1012   5.361  36.316   0.644
30413W        W 1013  13.391  30.624  10.850
30414W        W 1014   2.478  25.479   2.003
30415W        W 1015   2.432   6.308   2.672
30416W        W 1016  28.441   6.347   0.464
30417W        W 1017   3.019   8.627  11.648
30418W        W 1018  22.468  26.500   3.768
30419W        W 1019  31.644  36.958   2.700
30420W        W 1020  30.802  18.171  11.973
30421W        W 1021  27.398  24.903  12.931
30422W        W 1022  41.098   9.270   0.845
30423W        W 1023  19.273  37.090   3.125
30424W        W 1024  16.798   7.675   0.451
30425W        W 1025  10.248   1.481  13.957
30426W        W 1026  20.256  24.991   2.847
30427W        W 1027   2.859   7.612   3.343
30428W        W 1028  36.919   0.975  13.884
30429W        W 1029  44.435  33.414  10.480
30430W        W 1030   6.360  24.548  14.461
30431W        W 1031   6.827  35.326   1.634
30432W        W 1032  24.536  18.832   3.467
30433W        W 1033  18.606  15.894   2.886
30434W        W 1034  17.016   1.375   1.258
30435W        W 1035   2.427  38.802   1.234
30436W        W 1036   4.653  39.998   4.566
30437W        W 1037  43.279  31.683   3.248
30438W        W 1038   7.134  11.380   3.664
30439W        W 1039  41.750  26.446  14.340
30440W        W 1040  27.742  28.107   5.045
30441W        W 1041  40.535   1.512   0.343
30442W        W 1042  28.985  12.813   2.296
30443W        W 1043  35.303  30.182   2.670
30444W        W 1044  23.219   1.059   3.736
30445W        W 1045  17.266  18.044  12.019
30446W        W 1046  14.146  24.972   3.700
30447W        W 1047   8.348  37.189  12.021
30448W        W 1048  12.253  37.779  11.198
30449W        W 1049  13.852  33.963  14.939
30450W        W 1050  25.959  18.632   0.821
30451W        W 1051   4.446   5.438  11.226
30452W        W 1052  17.476  29.147  13.147
30453W        W 1053  34.643  41.364  12.065
30454W        W 1054   9.341  21.966   2.880
30455W        W 1055  38.883  22.204   2.476
30456W        W 1056  16.379  24.545  14.766
30457W        W 1057  40.472   2.557   0.147
30458W        W 1058   6.790   2.238   0.461
30459W        W 1059  39.892  15.977   1.789
30460W        W 1060  38.583  31.061   2.654
30461W        W 1061  11.848   9.313   4.517
30462W        W 1062   2.677  11.881  12.967
30463W        W 1063  10.887   5.231  14.106
30464W        W 1064  26.628   0.986   3.523
30465W        W 1065   1.572  23.561  12.409
30466W        W 1066  30.087  33.704  14.544
30467W        W 1067  12.315   4.989   1.267
30468W        W 1068  12.889   5.402  14.519
30469W        W 1069  19.690  28.073   2.838
30470W        W 1070   6.800  24.384  14.271
30471W        W 1071   4.936   0.628  11.152
30472W        W 1072  37.050   0.304  14.057
30473W        W 1073  31.612  27.417   4.198
30474W        W 1074  12.865  38.348  13.231
30475W        W 1075  37.369  21.014   4.533
30476W        W 1076  31.480  19.150   0.068
30477W        W 1077   0.942  27.909  13.881
30478W        W 1078  40.317  11.166  10.827
30479W        W 1079  37.771  44.860   4.209
30480W        W 1080  28.122  19.059  13.812
30481W        W 1081   9.384  11.424  11.174
30482W        W 1082   6.190  20.778  13.830
30483W        W 1083  42.670  25.587  12.143
30484W        W 1084  32.160  31.855  10.396
30485W        W 1085   9.189  39.627   2.263
30486W        W 1086   8.884   0.059  11.492
30487W        W 1087  29.017  24.715   0.747
30488W        W 1088  26.007  31.014   4.056
30489W        W 1089   5.436   9.806  11.221
30490W        W 1090  42.846  10.369   2.692
30491W        W 1091  12.947  11.713   0.016
30492W        W 1092  33.354  32.397   1.816
30493W        W 1093   7.095   8.004   0.775
30494W        W 1094  37.152  18.725  10.559
30495W        W 1095  42.459  31.582  13.873
30496W        W 1096  25.298   4.467   2.624
30497W        W 1097  12.029   4.318   4.195
30498W        W 1098  17.015  32.375  11.102
30499W        W 1099  44.030  43.995  13.223
30500W        W 1100  28.676  16.123   3.626
30501W        W 1101  12.415  42.131   5.251
30502W        W 1102  43.853  42.790  12.131
30503W        W 1103  26.593  18.190   3.081
30504W        W 1104  20.271  24.988   0.422
30505W        W 1105   1.225  25.407   3.940
30506W        W 1106  34.537  32.571  11.123
30507W        W 1107  10.335  32.984  11.976
30508W        W 1108  44.583  41.380   1.750
30509W        W 1109  30.498  36.468  11.602
30510W        W 1110  16.577  35.545   3.969
30511W        W 1111  16.321   7.710  12.491
30512W        W 1112  22.411  23.411   3.524
30513W        W 1113  27.966  16.645  10.798
30514W        W 1114  16.817  27.761  11.614
30515W        W 1115   8.279  11.379   4.639
30516W        W 1116   9.662  41.609   0.984
30517W        W 1117  31.911   6.315   2.363
30518W        W 1118  19.105   5.357   2.450
30519W        W 1119  40.117  41.063   3.146
30520W        W 1120   0.244   5.707  14.826
30521W        W 1121  34.676  36.112   4.147
30522W        W 1122  37.403   1.831   4.912
30523W        W 1123  37.786  41.452  12.563
30524W        W 1124  24.120  25.978  11.975
30525W        W 1125  13.716  15.984   1.735
30526W        W 1126  31.778   2.298   4.824
30527W        W 1127  37.144   8.418  14.893
30528W        W 1128  19.677  30.469   2.282
30529W        W 1129  21.601  20.339  12.127
30530W        W 1130  21.947  30.607  13.853
30531W        W 1131  11.312  30.783   3.731
30532W        W 1132  40.120  34.236   3.158
30533W        W 1133  11.293  15.528   1.788
30534W        W 1134  12.157  37.421   0.596
30535W        W 1135  28.556  43.371  10.704
30536W        W 1136   7.160  13.642   0.390
30537W        W 1137   6.392  25.075  14.511
30538W        W 1138   7.877  17.950   2.723
30539W        W 1139  29.208  21.175   3.926
30540W        W 1140  30.154   4.342  10.659
30541W        W 1141  14.612  12.258  11.596
30542W        W 1142  23.621  39.680   0.568
30543W        W 1143  20.159  31.071   0.856
30544W        W 1144  34.354  15.561  10.740
30545W        W 1145   8.839  15.492   1.163
30546W        W 1146  42.958  34.821  12.928
30547W        W 1147  29.317  44.265  11.186
30548W        W 1148  38.814  29.112  14.881
30549W        W 1149  36.572  17.864   0.516
30550W        W 1150  33.867   3.530   0.803
30551W        W 1151   4.476   2.521  14.404
30552W        W 1152  43.044  12.138   4.260
30553W        W 1153  30.911  28.857  14.806
30554W        W 1154  40.450   1.057   3.752
30555W        W 1155  13.464  33.589   1.845
30556W        W 1156  19.034  43.415   0.868
30557W        W 1157  32.885  19.687   2.119
30558W        W 1158  35.077  12.856   2.216
30559W        W 1159  31.633  29.132   0.341
30560W        W 1160  15.197  30.582   4.542
30561W        W 1161  13.341  25.150   0.844
30562W        W 1162  42.853   0.683   1.321
30563W        W 1163  25.799  26.716  13.481
30564W        W 1164  32.097   0.317   3.061
30565W        W 1165  42.867   2.795   2.267
30566W        W 1166   3.623  31.750   4.990
30567W        W 1167  24.432   1.682   3.156
30568W        W 1168  36.079  23.482  13.810
30569W        W 1169   8.713  41.629  14.811
30570W        W 1170   8.911   6.200  13.986
30571W        W 1171  21.098  16.614   0.527
30572W        W 1172  36.401  34.499  12.497
30573W        W 1173  38.111   7.079  11.846
30574W        W 1174  36.375  18.231  10.667
30575W        W 1175   7.862  27.205   2.859
30576W        W 1176  14.236   2.182   0.727
30577W        W 1177  34.330  40.567   2.489
30578W        W 1178  17.594  17.678   0.401
30579W        W 1179  31.181  17.795  11.967
30580W        W 1180   9.666  19.095   0.983
30581W        W 1181  35.265  15.207  14.970
30582W        W 1182  18.616  37.435   2.378
30583W        W 1183   1.490   8.840  13.924
30584W        W 1184  17.401  18.096  14.017
30585W        W 1185   8.140  43.897  11.223
30586W        W 1186   7.641  12.252  11.752
30587W        W 1187  19.932  42.546  13.930
30588W        W 1188  14.401  11.349   4.188
30589W        W 1189  27.925  43.087  10.695
30590W        W 1190   8.879  41.172  10.574
30591W        W 1191  44.786  33.552  11.173
30592W        W 1192  20.593  34.023   3.662
30593W        W 1193  43.189  38.946  13.329
30594W        W 1194  20.595  19.200  13.712
30595W        W 1195  18.216  42.854  11.951
30596W        W 1196  34.385   9.680   4.293
30597W        W 1197  11.732  23.229  11.222
30598W        W 1198  10.628  34.898  12.879
30599W        W 1199  15.657  18.447  13.243
30600W        W 1200   2.029  12.515   3.663
30601W        W 1201   6.016   4.153  14.345
30602W        W 1202  31.092  11.965   1.759
30603W        W 1203   5.700   4.723  11.722
30604W        W 1204   8.865  42.404   0.262
30605W        W 1205  15.145  34.299  11.581
30606W        W 1206   1.038   5.604  10.806
30607W        W 1207  31.625  44.865  13.462
30608W        W 1208  16.860  24.895  11.134
30609W        W 1209  12.873  22.050  13.558
30610W        W 1210  17.020  42.880   1.855
30611W        W 1211  25.993  13.390   3.288
30612W        W 1212  30.690  28.129   2.689
30613W        W 1213  42.374  23.558  11.948
30614W        W 1214  15.093   7.953  11.220
30615W        W 1215  31.413  39.428   1.881
30616W        W 1216  26.546  10.669  12.010
30617W        W 1217  37.550  31.465   3.937
30618W        W 1218   0.429   7.039   0.920
30619W        W 1219  30.975  22.614   4.330
30620W        W 1220  43.335  43.164   1.418
30621W        W 1221  29.592  31.831   3.998
30622W        W 1222  21.071  37.055  13.523
30623W        W 1223   8.935  12.106  10.570
30624W        W 1224  39.204  23.606  12.085
30625W        W 1225  30.914   9.890  13.639
30626W        W 1226   7.941  28.684   2.004
30627W        W 1227   6.222   7.095   3.312
30628W        W 1228  23.057  31.679  11.065
30629W        W 1229  33.645  30.399  13.274
30630W        W 1230  25.142   3.728  14.348
30631W        W 1231  18.263   5.207   4.802
30632W        W 1232  10.452   4.947   0.260
30633W        W 1233  43.851  31.125  11.458
30634W        W 1234   7.926  37.655  13.356
30635W        W 1235  17.140  28.357   0.627
30636W        W 1236  12.037  16.240  10.974
30637W        W 1237  33.494  18.646   5.156
30638W        W 1238  38.009  20.686  12.854
30639W        W 1239  25.146  36.808  12.665
30640W        W 1240  34.696  32.100  14.489
30641W        W 1241   1.290  24.301   3.848
30642W        W 1242  21.591  15.225   1.373
30643W        W 1243   7.125  21.709  10.704
30644W        W 1244   7.759   5.250   4.134
30645W        W 1245  40.671  14.323   5.126
30646W        W 1246   4.196  24.390  13.491
30647W        W 1247  42.135  15.374  13.016
30648W        W 1248  24.655  24.399  12.120
30649W        W 1249  34.194  16.539   4.520
30650W        W 1250  17.437  19.012  11.477
30651W        W 1251  34.998   6.404   2.689
30652W        W 1252  16.763   2.952   3.369
30653W        W 1253  42.199  32.853  10.662
30654W        W 1254   9.275  43.502   3.811
30655W        W 1255  41.313  13.317   3.591
30656W        W 1256  12.568  25.469  11.220
30657W        W 1257  14.114   1.776   0.294
30658W        W 1258  33.129  42.253  12.572
30659W        W 1259  40.091  35.296   2.356
30660W        W 1260   2.277  16.616   0.826
30661W        W 1261  27.979  18.594  12.535
30662W        W 1262  16.612  20.567  10.429
30663W        W 1263  22.031  28.110   3.841
30664W        W 1264  40.392  14.197   0.910
30665W        W 1265  26.184  39.305  12.378
30666W        W 1266   0.309   1.726   4.949
30667W        W 1267  33.389  16.482  12.267
30668W        W 1268  11.599  39.086  14.843
30669W        W 1269  31.713   2.171   2.839
30670W        W 1270  43.820   7.179   0.825
30671W        W 1271  32.277  25.540   2.843
30672W        W 1272  19.136  29.444   2.262
30673W        W 1273  32.721  34.306  13.607
30674W        W 1274  11.212  12.254   2.282
30675W        W 1275  23.746   1.672   3.335
30676W        W 1276  26.747  33.269   4.653
30677W        W 1277   7.280  23.509   4.876
30678W        W 1278  32.169  29.638  11.076
30679W        W 1279  40.138  22.607  14.326
30680W        W 1280   7.203   6.107  12.464
30681W        W 1281   0.833  13.224  13.603
30682W        W 1282  21.990   6.800   9.893
30683W        W 1283  25.519  42.916   2.175
30684W        W 1284   6.304  42.357   3.083
30685W        W 1285  22.902  14.882  13.094
30686W        W 1286   4.723  44.072   1.509
30687W        W 1287   3.971   2.833  11.567
30688W        W 1288  34.590  43.129   3.562
30689W        W 1289  20.565  23.547  10.680
30690W        W 1290   7.392  22.627  11.606
30691W        W 1291   7.182   5.027  13.336
30692W        W 1292  20.614  29.528   0.050
30693W        W 1293  31.454   1.892  14.103
30694W        W 1294  18.918  12.005   4.257
30695W        W 1295  14.165  29.695  12.074
30696W        W 1296   9.189  28.090  14.495
30697W        W 1297  30.122  27.678   4.252
30698W        W 1298  27.718  20.518  14.397
30699W        W 1299  30.043  20.523   0.771
30700W        W 1300  42.845   4.471  14.479
30701W        W 1301  17.661  16.618   3.401
30702W        W 1302  14.366  38.009   1.155
30703W        W 1303  22.692  18.572  14.175
30704W        W 1304  40.027  23.326   2.758
30705W        W 1305  43.838  23.145   0.679
30706W        W 1306  17.217   0.523   5.028
30707W        W 1307  29.263  23.491   3.951
30708W        W 1308  22.469  38.485  11.973
30709W        W 1309  17.666   3.456   4.603
30710W        W 1310  23.211  13.384  12.068
30711W        W 1311  37.781  31.330  12.547
30712W        W 1312  42.779   8.395  14.723
30713W        W 1313  31.538   5.389  13.008
30714W        W 1314  44.358  24.867  10.166
30715W        W 1315  31.677  41.422  14.087
30716W        W 1316  14.048   3.845  11.549
30717W        W 1317  33.148  24.749  13.957
30718W        W 1318  36.669  24.092   4.106
30719W        W 1319  21.268   4.030  11.115
30720W        W 1320   9.942   2.925   2.826
30721W        W 1321  41.917  36.079   2.421
30722W        W 1322   6.842  41.581   3.719
30723W        W 1323  26.039  42.069   3.645
30724W        W 1324  25.445  44.118  10.181
30725W        W 1325  36.329  31.692   2.741
30726W        W 1326  31.429  15.734   4.288
30727W        W 1327  12.626  38.188  11.972
30728W        W 1328   2.516   5.696  13.509
30729W        W 1329  14.696   7.880  11.578
30730W        W 1330  31.330  30.088   4.626
30731W        W 1331  13.681  17.533   1.735
30732W        W 1332  11.049  28.426  11.590
30733W        W 1333   3.193  36.081   4.702
30734W        W 1334   6.720   0.539   4.235
30735W        W 1335   4.895  34.906   0.753
30736W        W 1336  37.087  37.060  13.149
30737W        W 1337  43.267  13.931  12.158
30738W        W 1338  25.583  28.083  14.175
30739W        W 1339   8.379  28.627  13.275
30740W        W 1340  43.837  42.006  11.605
30741W        W 1341  10.897  29.158  13.792
30742W        W 1342  40.255  23.993   4.512
30743W        W 1343   4.969  20.100  14.896
30744W        W 1344  29.029  43.741   2.408
30745W        W 1345  37.562  39.853  11.698
30746W        W 1346  17.110  37.550   1.350
30747W        W 1347   6.691  37.966   2.711
30748W        W 1348  14.007  18.182  12.447
30749W        W 1349  20.590  35.984  14.832
30750W        W 1350   9.851  34.413  14.987
30751W        W 1351   2.251  41.624   0.886
30752W        W 1352  34.012  42.719  14.152
30753W        W 1353  44.934   7.197   2.779
30754W        W 1354  41.986  40.929  13.724
30755W        W 1355  29.639   6.840  13.908
30756W        W 1356  37.144   5.404   0.273
30757W        W 1357   4.213  36.077  11.570
30758W        W 1358  42.950  28.181   3.952
30759W        W 1359  12.108   4.824   4.112
30760W        W 1360   7.412  23.007  14.057
30761W        W 1361   6.913  26.258   1.337
30762W        W 1362   1.265  40.849  13.509
30763W        W 1363   6.375   0.856   2.746
30764W        W 1364  31.304  17.187  13.131
30765W        W 1365   8.700  12.944   0.297
30766W        W 1366  17.725  20.978   2.767
30767W        W 1367  14.053  30.222   1.899
30768W        W 1368  11.229  11.175  13.919
30769W        W 1369  15.260  16.354  12.458
30770W        W 1370   2.435   5.749   0.389
30771W        W 1371  34.431  27.826  14.815
30772W        W 1372  16.457  10.605   4.068
30773W        W 1373  15.833   7.809   1.245
30774W        W 1374  18.732  18.086   0.166
30775W        W 1375  30.487  41.877   3.282
30776W        W 1376  16.630   5.135  10.428
30777W        W 1377  20.591   6.673   2.414
30778W        W 1378  29.244   2.409   0.934
30779W        W 1379  11.306  10.789  12.968
30780W        W 1380  39.817  35.035   1.799
30781W        W 1381  12.191  27.492   2.118
30782W        W 1382  36.485  34.047  14.237
30783W        W 1383  41.907   8.754   2.532
30784W        W 1384  12.203  18.289  13.050
30785W        W 1385  30.194  22.883   0.281
30786W        W 1386  36.677  15.257   4.199
30787W        W 1387  32.453  24.989  10.695
30788W        W 1388  19.451  39.997   1.708
30789W        W 1389  22.795  40.206   0.894
30790W        W 1390  33.789  38.966  12.505
30791W        W 1391  13.207  30.565   3.234
30792W        W 1392  22.162   2.679  14.227
30793W        W 1393   7.665  36.401  11.648
30794W        W 1394  14.812   2.735  11.218
30795W        W 1395  18.803  33.001  12.318
30796W        W 1396  13.207  29.090  10.422
30797W        W 1397  43.567  26.889  11.192
30798W        W 1398  35.019  15.496   1.180
30799W        W 1399  30.546  39.002  13.412
30800W        W 1400  35.962   4.871  12.838
30801W        W 1401  40.597   3.255   3.734
30802W        W 1402  11.772  34.565  10.721
30803W        W 1403  31.539  15.414  10.701
30804W        W 1404  19.837  27.536  13.869
30805W        W 1405  25.494  17.089   2.186
30806W        W 1406  39.435  33.123   0.920
30807W        W 1407   5.620  32.951  14.895
30808W        W 1408  18.454  25.146  10.291
30809W        W 1409  40.873   4.507   1.209
30810W        W 1410  16.250  19.111  13.804
30811W        W 1411  43.992  42.528  10.708
30812W        W 1412   4.397  44.759  11.787
30813W        W 1413  10.786   3.188   2.347
30814W        W 1414   3.749  27.624  10.418
30815W        W 1415  21.912  26.991   3.374
30816W        W 1416   0.801  19.757   1.063
30817W        W 1417   0.891  25.595   4.890
30818W        W 1418  37.674  22.937   1.466
30819W        W 1419  30.393  37.927  13.124
30820W        W 1420  36.103  35.781   4.565
30821W        W 1421  10.143  19.550   4.432
30822W        W 1422  28.551  33.530  11.674
30823W        W 1423  20.113  28.560   4.071
30824W        W 1424  45.000  13.830   1.748
30825W        W 1425   3.060  13.644  11.229
30826W        W 1426   7.146  18.079   1.393
30827W        W 1427  25.650   9.814   0.815
30828W        W 1428  32.962  30.260  12.442
30829W        W 1429  21.514  17.326   3.898
30830W        W 1430  31.024  36.960  13.081
30831W        W 1431  13.892  13.742   1.650
30832W        W 1432  39.820  42.927   2.201
30833W        W 1433  27.576  17.763   2.244
30834W        W 1434   3.951  43.818   0.336
30835W        W 1435  22.326  10.436  11.045
30836W        W 1436  26.618  14.064   0.353
30837W        W 1437  40.096  41.905   4.099
30838W        W 1438  15.553  38.939  11.091
30839W        W 1439   0.246   1.351   2.281
30840W        W 1440  43.366  34.423   1.372
30841W        W 1441  35.880   0.910   3.611
30842W        W 1442  31.118  30.719  12.583
30843W        W 1443  43.872  18.702  12.588
30844W        W 1444  15.116  10.784   3.074
30845W        W 1445   1.208  16.167   0.356
30846W        W 1446  33.972  43.060  10.958
30847W        W 1447  23.782  42.356  14.837
30848W        W 1448  23.038  12.076   3.145
30849W        W 1449  43.041  44.357  11.670
30850W        W 1450  22.294  43.459  11.910
30851W        W 1451  26.646  22.040  13.582
30852W        W 1452  24.745  18.731  11.030
30853W        W 1453   9.087  33.297  12.548
30854W        W 1454  41.493  44.399   2.492
30855W        W 1455  22.476  36.999  14.451
30856W        W 1456   6.203  19.842   0.865
30857W        W 1457  28.578  19.387  12.522
30858W        W 1458  34.658  11.114  13.044
30859W        W 1459  39.788   8.935  10.514
30860W        W 1460  12.823  44.649   4.239
30861W        W 1461  11.216   7.968   0.294
30862W        W 1462   4.930   5.889   3.699
30863W        W 1463   6.032   8.705  11.221
30864W        W 1464   5.668  11.676   2.116
30865W        W 1465  44.739  27.974   4.665
30866W        W 1466  37.037   6.457   3.147
30867W        W 1467  44.862  11.311   0.211
30868W        W 1468  13.044  13.763  14.791
30869W        W 1469  43.463  12.566  12.824
30870W        W 1470   1.063   9.665   2.780
30871W        W 1471  32.410  11.219   2.919
30872W        W 1472  19.614  42.814   1.455
30873W        W 1473   0.385  31.037  11.165
30874W        W 1474  32.570  18.164   1.434
30875W        W 1475  31.469  36.408   1.885
30876W        W 1476  40.972  24.352   2.194
30877W        W 1477  41.359  31.125   0.391
30878W        W 1478  27.690  35.077   3.407
30879W        W 1479  43.083  27.165  12.771
30880W        W 1480  19.276  17.344   1.282
30881W        W 1481   8.735  26.000   0.872
30882W        W 1482  44.107   1.231  11.989
30883W        W 1483  22.807  32.526   2.669
30884W        W 1484  12.504  30.566  11.719
30885W        W 1485  17.872  14.107  13.757
30886W        W 1486  26.496   2.464  14.328
30887W        W 1487  14.538  40.637   5.395
30888W        W 1488   1.326  15.593   3.628
30889W        W 1489   3.742  29.005   0.923
30890W        W 1490  14.529  10.592  12.870
30891W        W 1491  18.318  33.428   2.584
30892W        W 1492  41.778  17.687   3.290
30893W        W 1493  20.464   1.957  14.916
30894W        W 1494  31.084  31.503  13.016
30895W        W 1495   1.506  43.569  11.355
30896W        W 1496  23.096  21.680  13.509
30897W        W 1497  32.525  17.250   3.759
30898W        W 1498   5.147  17.092  12.481
30899W        W 1499   6.124  34.344  13.028
30900W        W 1500  44.514  41.341   4.595
30901W        W 1501  25.503  20.941  13.068
30902W        W 1502   9.786   8.308  11.935
30903W        W 1503  20.230  34.773   3.403
30904W        W 1504  32.891  36.523   1.961
30905W        W 1505  11.797  31.562   4.640
30906W        W 1506  21.144  13.840   0.399
30907W        W 1507  20.534  22.674  12.952
30908W        W 1508   3.402  34.428  12.811
30909W        W 1509  36.363  17.815  14.472
30910W        W 1510  28.841   8.344  10.700
30911W        W 1511   8.664  22.947  11.907
30912W        W 1512   5.122  32.595  12.938
30913W        W 1513  36.500  28.302   2.435
30914W        W 1514  30.130  44.471   4.797
30915W        W 1515  39.149   8.102   4.200
30916W        W 1516  44.182  21.542  12.769
30917W        W 1517  20.568   7.821   0.024
30918W        W 1518  26.170  22.242   2.467
30919W        W 1519  28.200  23.208   9.895
30920W        W 1520  35.188   2.565   0.747
30921W        W 1521   8.641  26.367  14.118
30922W        W 1522  35.122  10.913   3.769
30923W        W 1523  16.612  30.901  12.944
30924W        W 1524  17.616   7.371   3.259
30925W        W 1525   5.922   1.917  11.179
30926W        W 1526  13.608   7.630  11.229
30927W        W 1527  44.862  19.540   4.218
30928W        W 1528   7.185  12.524  10.962
30929W        W 1529  20.060   6.507  11.599
30930W        W 1530  29.112   1.392  11.884
30931W        W 1531   0.878  14.535   4.197
30932W        W 1532  35.760   8.636  12.944
30933W        W 1533  20.332  44.060   0.377
30934W        W 1534  20.796  33.313   4.165
30935W        W 1535   3.291  19.753  14.477
30936W        W 1536  10.351  42.398  13.557
30937W        W 1537  36.552   1.635   0.335
30938W        W 1538  13.845  21.192   0.990
30939W        W 1539  16.703  13.185   2.886
30940W        W 1540  40.667  35.703   3.651
30941W        W 1541  25.220  29.396   0.271
30942W        W 1542  12.248   2.174  12.979
30943W        W 1543  14.132  44.380  11.570
30944W        W 1544  43.418  10.728   4.109
30945W        W 1545   7.157  10.309  13.458
30946W        W 1546   0.485   3.439   1.369
30947W        W 1547  26.329  32.156  12.412
30948W        W 1548  39.806   5.257  11.778
30949W        W 1549  14.480   7.486   2.762
30950W        W 1550  21.352   5.172  10.684
30951W        W 1551  25.440  41.318  10.713
30952W        W 1552  10.797  13.098   4.751
30953W        W 1553  38.531  37.345   0.063
30954W        W 1554  42.963  34.117   1.637
30955W        W 1555  25.116  36.751  11.632
30956W        W 1556  36.595  17.110  10.393
30957W        W 1557  19.107  39.178   1.663
30958W        W 1558   9.435  12.602  12.368
30959W        W 1559   3.939  13.317   2.561
30960W        W 1560   8.205  32.559   2.904
30961W        W 1561  17.706   1.562  11.352
30962W        W 1562   6.644  24.960   1.779
30963W        W 1563  39.797  15.117  12.389
30964W        W 1564  33.551  36.832  14.947
30965W        W 1565   4.411  31.538   4.150
30966W        W 1566  37.984  14.311  10.715
30967W        W 1567  43.958  11.399   0.821
30968W        W 1568   3.159  27.937   4.501
30969W        W 1569  33.517  32.939  10.843
30970W        W 1570  17.283  23.607   2.403
30971W        W 1571  31.838  25.849   2.878
30972W        W 1572  13.729  26.112  10.930
30973W        W 1573   9.452  34.979   0.581
30974W        W 1574  15.886  43.940   3.641
30975W        W 1575  21.165  28.077  14.323
30976W        W 1576   4.170  25.217  10.554
30977W        W 1577  29.429  23.843  12.051
30978W        W 1578  39.998  43.357   2.469
30979W        W 1579  44.324  21.558  14.829
30980W        W 1580  38.268  41.463  11.623
30981W        W 1581  35.174   5.849  11.708
30982W        W 1582  21.520  11.822   3.538
30983W        W 1583  14.660  29.140  11.103
30984W        W 1584  20.002  22.755  14.377
30985W        W 1585  20.230  16.218   4.800
30986W        W 1586   0.850  23.141  12.875
30987W        W 1587   2.821  37.553   3.204
30988W        W 1588  35.984  40.716  10.700
30989W        W 1589  43.927  11.560  13.984
30990W        W 1590  35.478   8.926  13.681
30991W        W 1591  25.553  24.990  12.956
30992W        W 1592  23.410  41.155   5.049
30993W        W 1593  20.212  40.301  12.532
30994W        W 1594  42.080  24.745  12.951
30995W        W 1595  37.658  35.104   4.086
30996W        W 1596   4.455  25.693  14.279
30997W        W 1597  37.847   7.855  12.185
30998W        W 1598  12.198  36.380  12.479
30999W        W 1599  35.159  20.868  10.771
31000W        W 1600   7.713  23.019   3.309
31001W        W 1601  25.100  20.106  12.065
31002W        W 1602  38.127  10.273  14.301
31003W        W 1603  38.768   7.625   2.412
31004W        W 1604  41.935   7.896   3.977
31005W        W 1605   3.180  35.388  12.528
31006W        W 1606  26.034  27.441  12.485
31007W        W 1607  18.308  31.529   0.687
31008W        W 1608  34.080   0.499  12.117
31009W        W 1609  40.758  11.435  10.753
31010W        W 1610  28.972  36.728   0.810
31011W        W 1611   0.214  42.159   3.069
31012W        W 1612  13.329  18.924  13.906
31013W        W 1613  44.915  35.831   1.156
31014W        W 1614  26.972   0.375   0.005
31015W        W 1615  17.982  10.693  12.925
31016W        W 1616   4.720  42.405   2.255
31017W        W 1617   0.606   8.294   0.813
31018W        W 1618  15.277  41.448   1.277
31019W        W 1619   3.722  31.656  12.619
31020W        W 1620  34.504  19.054  13.814
31021W        W 1621  36.777   9.414  11.085
31022W        W 1622   8.461  15.772   1.390
31023W        W 1623  27.630  44.090  13.941
31024W        W 1624  12.627   4.691   2.806
31025W        W 1625  22.986  15.019   4.567
31026W        W 1626  30.795  19.190  10.663
31027W        W 1627  37.426   1.272   3.563
31028W        W 1628  18.292  16.512  13.750
31029W        W 1629   0.215  39.007  11.324
31030W        W 1630  21.540  32.117  11.669
31031W        W 1631  16.327   2.798   1.165
31032W        W 1632  29.693  21.063   4.622
31033W        W 1633  36.974   2.541  10.589
31034W        W 1634  32.586   7.754   5.074
31035W        W 1635   1.926  11.895  11.250
31036W        W 1636  10.568  37.588  11.027
31037W        W 1637  23.782  33.613   5.095
31038W        W 1638   4.226  30.328  11.144
31039W        W 1639  39.150  23.461  13.788
31040W        W 1640   6.701   6.769   2.423
31041W        W 1641  21.743  39.794  13.618
31042W        W 1642  43.166  20.090   4.977
31043W        W 1643   4.666  34.899   3.237
31044W        W 1644  22.492   0.521  13.117
31045W        W 1645  34.876  27.449  11.924
31046W        W 1646   5.048   7.707  14.804
31047W        W 1647  12.354  31.453   1.867
31048W        W 1648   5.162  39.281   4.144
31049W        W 1649  36.613  31.720  11.967
31050W        W 1650   7.957  33.969  12.056
31051W        W 1651  35.926  37.867   0.403
31052W        W 1652  21.217  33.624   4.184
31053W        W 1653  28.911  15.217  12.904
31054W        W 1654  17.014  21.146   0.895
31055W        W 1655  38.959  36.619   4.410
31056W        W 1656  39.656  37.442  12.076
31057W        W 1657  25.156  19.878  12.562
31058W        W 1658  32.293  44.298   3.219
31059W        W 1659  28.131  29.177  10.375
31060W        W 1660  34.104  31.859  13.134
31061W        W 1661   7.676  22.749   4.577
31062W        W 1662  37.899   6.180   3.100
31063W        W 1663   5.947  17.747   4.595
31064W        W 1664  44.412   9.889   2.160
31065W        W 1665  41.428  27.717   0.896
31066W        W 1666  25.718   8.434   3.594
31067W        W 1667  39.857  44.229   0.695
31068W        W 1668  36.947  40.498  14.309
31069W        W 1669  31.543  32.649   4.001
31070W        W 1670  33.803  26.619  14.983
31071W        W 1671  38.511  28.456  14.930
31072W        W 1672  23.582  28.947   4.949
31073W        W 1673  21.094  33.359   2.365
31074W        W 1674  11.868  41.363  12.892
31075W        W 1675  30.408   9.698   4.648
31076W        W 1676  26.360  12.881  12.377
31077W        W 1677  35.271  35.099  14.223
31078W        W 1678  41.416   3.633   1.931
31079W        W 1679  36.116  28.214   4.937
31080W        W 1680  21.995  16.030   4.613
31081W        W 1681  17.287  35.201  12.068
31082W        W 1682  36.683  36.161  10.775
31083W        W 1683  41.971   3.738   1.383
31084W        W 1684   4.957  41.745   1.233
31085W        W 1685  29.579  30.461  14.449
31086W        W 1686  26.382  27.912  11.283
31087W        W 1687   3.870  41.654  13.538
31088W        W 1688  14.611  36.817  12.530
31089W        W 1689  16.099   4.679   0.723
31090W        W 1690  39.547   0.292  12.448
31091W        W 1691  14.654  37.386  12.137
31092W        W 1692   5.630  31.209  12.555
31093W        W 1693  43.302   2.405  13.593
31094W        W 1694   0.381  14.408  12.011
31095W        W 1695   1.728   1.510   4.136
31096W        W 1696  32.036   9.585   0.405
31097W        W 1697  35.570  34.991   0.444
31098W        W 1698   5.650   6.374  13.011
31099W        W 1699  28.968   5.811   0.757
31100W        W 1700   8.371  44.005   4.189
31101W        W 1701  32.753  35.369   0.137
31102W        W 1702   0.206   3.821   3.738
31103W        W 1703  28.054  10.349  14.389
31104W        W 1704  25.137  33.162   1.651
31105W        W 1705  32.392  21.085  14.339
31106W        W 1706   4.231  39.138  10.852
31107W        W 1707  24.894   8.907   1.917
31108W        W 1708   2.811   8.233  10.674
31109W        W 1709  26.565   1.896  10.666
31110W        W 1710   9.992  34.836   0.365
31111W        W 1711  23.073  11.226   2.697
31112W        W 1712   8.882  15.098   1.695
31113W        W 1713  27.012  16.728   3.753
31114W        W 1714  10.214  12.100   2.252
31115W        W 1715  26.050  23.284  11.752
31116W        W 1716   0.883  11.401   0.619
31117W        W 1717  29.348  13.771  12.614
31118W        W 1718  16.196   9.260   1.798
31119W        W 1719  39.058   4.709   0.890
31120W        W 1720   2.707   2.384  12.338
31121W        W 1721  18.998   7.886  13.427
31122W        W 1722   6.853  18.618  13.860
31123W        W 1723  25.511  36.242  12.057
31124W        W 1724  36.618   7.378   1.227
31125W        W 1725  29.705  24.637   4.103
31126W        W 1726  11.697  10.016   2.754
31127W        W 1727  40.983   4.780   0.801
31128W        W 1728  27.696  32.129   2.797
31129W        W 1729  15.526  30.653   3.242
31130W        W 1730  23.614  28.169  11.235
31131W        W 1731  43.734  24.906   4.054
31132W        W 1732  36.211  43.453   1.241
31133W        W 1733   1.525  15.603  11.667
31134W        W 1734  25.053   5.407  14.906
31135W        W 1735  13.098  33.824   4.216
31136W        W 1736  31.934  13.639  14.020
31137W        W 1737  34.579   8.356  13.568
31138W        W 1738  26.276   4.734   3.640
31139W        W 1739  38.939   8.033  11.563
31140W        W 1740   8.264  29.046   2.725
31141W        W 1741  41.590  18.446  13.949
31142W        W 1742  16.713  23.188  13.816
31143W        W 1743  43.194  40.691   2.793
31144W        W 1744  20.433  27.928   0.940
31145W        W 1745   8.253  34.585  14.126
31146W        W 1746   5.665  43.525   2.152
31147W        W 1747   0.024  10.355  14.879
31148W        W 1748  17.475  23.501   4.163
31149W        W 1749   1.921  35.514   4.593
31150W        W 1750  34.738   3.747  11.477
31151W        W 1751  31.266  37.853  12.519
31152W        W 1752  38.756  35.316   0.248
31153W        W 1753   0.929  30.580   3.538
31154W        W 1754  42.285  39.284   0.534
31155W        W 1755  26.180   6.470  10.347
31156W        W 1756  19.636   1.873  10.924
31157W        W 1757  21.555   2.042   0.141
31158W        W 1758  23.547   3.803   0.316
31159W        W 1759  40.751  31.051   4.203
31160W        W 1760  42.923  43.806  10.638
31161W        W 1761   3.964  40.376  13.002
31162W        W 1762  16.450  20.113  11.918
31163W        W 1763  21.506   1.391  12.608
31164W        W 1764  38.018  24.531  13.107
31165W        W 1765  43.496  26.072  12.158
31166W        W 1766  14.997   8.847  10.270
31167W        W 1767  44.574   1.233  14.759
31168W        W 1768  16.670  12.407  13.380
31169W        W 1769  21.557   0.781   2.590
31170W        W 1770  22.903  38.553  11.647
31171W        W 1771  37.416   4.757   1.875
31172W        W 1772  11.781  14.497   4.950
31173W        W 1773  36.901  23.713  13.378
31174W        W 1774   0.209  29.063   2.728
31175W        W 1775  17.952   8.864   3.981
31176W        W 1776   5.310  35.934   1.859
31177W        W 1777  35.075  28.123  13.423
31178W        W 1778  37.509  36.531  14.315
31179W        W 1779  24.713  33.902  10.553
31180W        W 1780  37.920   7.187  13.812
31181W        W 1781  29.150  34.344  11.613
31182W        W 1782  12.114  21.208   3.915
31183W        W 1783   3.054  39.068  13.493
31184W        W 1784  13.650   1.218  11.100
31185W        W 1785  32.585  21.100  13.820
31186W        W 1786  42.478  34.597   2.181
31187W        W 1787  42.173  43.956   4.613
31188W        W 1788  17.625  38.358  10.651
31189W        W 1789  34.851  26.831  11.937
31190W        W 1790  14.718   5.136   4.735
31191W        W 1791  17.215  29.763   1.438
31192W        W 1792   9.649  30.686   3.767
31193W        W 1793  38.919   6.747  12.868
31194W        W 1794  26.037  20.504  13.833
31195W        W 1795  12.756  29.481  13.154
31196W        W 1796  28.857  13.668  11.382
31197W        W 1797  41.841  26.130   3.936
31198W        W 1798   0.685  16.141  14.904
31199W        W 1799  22.742  19.530  14.257
31200W        W 1800  33.948  38.426  10.732
31201W        W 1801  34.900   5.927  14.852
31202W        W 1802  19.334  31.656  13.498
31203W        W 1803   4.456  12.435  14.431
31204W        W 1804  25.475  26.049   2.279
31205W        W 1805   2.781  36.474   3.454
31206W        W 1806  21.313  22.535   4.650
31207W        W 1807  40.559  31.042  14.331
31208W        W 1808  40.147   8.569   2.359
31209W        W 1809   2.915  11.910  13.417
31210W        W 1810   3.709  26.343   1.502
31211W        W 1811  16.736  26.115  12.546
31212W        W 1812  15.554   6.061  10.242
31213W        W 1813  28.208  40.367  13.974
31214W        W 1814   6.466   5.629   1.330
31215W        W 1815   4.941  28.509  12.373
31216W        W 1816   3.640   2.838  11.167
31217W        W 1817  33.865  17.200  13.956
31218W        W 1818  16.789   8.725   1.474
31219W        W 1819  16.235  37.446  13.699
31220W        W 1820   1.284  22.138  12.225
31221W        W 1821  10.686  42.253  12.624
31222W        W 1822  13.459  19.490  12.458
31223W        W 1823   3.516  16.850  11.314
31224W        W 1824  14.363   9.219  12.978
31225W        W 1825  31.957  24.989  11.924
31226W        W 1826  29.022   8.379  12.650
31227W        W 1827  40.359   2.940  12.961
31228W        W 1828  31.477  41.535  13.552
31229W        W 1829  18.185  23.228  13.058
31230W        W 1830  24.034  27.946   3.915
31231W        W 1831  32.967  35.033  11.272
31232W        W 1832  34.460  13.416  13.302
31233W        W 1833  31.898  34.937  14.906
31234W        W 1834   8.272   7.195  14.433
31235W        W 1835  42.049   5.216  12.972
31236W        W 1836  43.726  15.013   2.560
31237W        W 1837  23.203  24.938   4.660
31238W        W 1838  36.591  33.529   1.796
31239W        W 1839  34.927  31.984   3.666
31240W        W 1840  19.745  23.006  10.879
31241W        W 1841  28.496  26.433  13.021
31242W        W 1842  38.360  23.491  11.142
31243W        W 1843   2.211  32.539  10.701
31244W        W 1844   2.326  32.652   4.582
31245W        W 1845   1.975  11.340  12.933
31246W        W 1846  37.296   7.325   4.860
31247W        W 1847  27.884   0.888   1.463
31248W        W 1848  33.006   4.098   4.674
31249W        W 1849  15.583   1.627   2.716
31250W        W 1850  31.131  34.913   4.799
31251W        W 1851  26.926  15.796  13.422
31252W        W 1852  33.004  27.336  10.703
31253W        W 1853  30.814  13.747   0.177
31254W        W 1854   8.229  38.046   4.488
31255W        W 1855  31.274  38.236   5.117
31256W        W 1856  16.979  36.282   1.864
31257W        W 1857   4.332  22.958  12.898
31258W        W 1858  38.894  11.797  11.073
31259W        W 1859  15.754  31.777  13.426
31260W        W 1860   4.474  30.903   1.937
31261W        W 1861  35.080  44.374   4.644
31262W        W 1862  19.497  42.927  10.894
31263W        W 1863   4.660  39.435  12.012
31264W        W 1864  37.932  36.583  12.639
31265W        W 1865  41.921  30.580   3.192
31266W        W 1866  20.608  37.836   0.823
31267W        W 1867  35.015  34.087   2.190
31268W        W 1868   2.357   4.527   4.640
31269W        W 1869  18.121  19.392  12.556
31270W        W 1870  26.105  17.193   4.578
31271W        W 1871  11.858  35.340  11.849
31272W        W 1872  24.695  37.013   3.395
31273W        W 1873  42.596  39.522  12.572
31274W        W 1874  38.358  13.778   2.873
31275W        W 1875  18.942  10.264   1.748
31276W        W 1876  26.393  44.370  11.443
31277W        W 1877   5.753  40.231   2.306
31278W        W 1878  40.352  35.644  10.802
31279W        W 1879  14.228  36.425  11.187
31280W        W 1880  40.252  38.499  12.467
31281W        W 1881   6.171  35.905   0.732
31282W        W 1882   5.896  23.464   4.019
31283W        W 1883  44.508  42.382  11.489
31284W        W 1884  25.886  10.278  14.474
31285W        W 1885   2.872  18.272  14.154
31286W        W 1886  10.133   9.814   0.591
31287W        W 1887  21.804   4.999  13.184
31288W        W 1888  40.517   7.967   3.174
31289W        W 1889  15.701  36.757   2.567
31290W        W 1890  14.122  40.553  12.448
31291W        W 1891  35.114   4.871  13.245
31292W        W 1892   4.709  38.614  13.885
31293W        W 1893  34.013  24.294  13.921
31294W        W 1894  17.151  20.827   1.753
31295W        W 1895   3.825   5.195   0.491
31296W        W 1896  10.130  29.440   0.653
31297W        W 1897  33.449   7.195   3.742
31298W        W 1898   8.502   1.082   5.017
31299W        W 1899  25.556  42.612   3.181
31300W        W 1900   7.904   3.930   4.903
31301W        W 1901   5.680  28.027  10.772
31302W        W 1902  38.757  12.843   3.874
31303W        W 1903  28.535   7.688  12.891
31304W        W 1904  39.904  34.874   0.683
31305W        W 1905  24.138  17.793  12.945
31306W        W 1906   1.181   7.606   4.119
31307W        W 1907  31.940  12.784  11.080
31308W        W 1908  35.950  30.364   2.195
31309W        W 1909  41.013  21.484  12.916
31310W        W 1910  16.894  16.774   2.298
31311W        W 1911   4.278  41.497   3.882
31312W        W 1912  10.720   7.866   3.364
31313W        W 1913  26.507  15.748   3.768
31314W        W 1914  17.190  32.952   3.143
31315W        W 1915  24.430  36.216   0.235
31316W        W 1916  40.334   9.236  11.434
31317W        W 1917  32.410  11.617   3.786
31318W        W 1918   8.706   0.478  14.218
31319W        W 1919   0.310  30.197   3.117
31320W        W 1920  19.637  30.867   0.807
31321W        W 1921  36.015   2.178   1.773
31322W        W 1922  12.319  42.326   0.957
31323W        W 1923  35.779  12.014   3.626
31324W        W 1924  40.929  40.168   4.213
31325W        W 1925  11.338   6.844   3.740
31326W        W 1926  23.450  22.428   3.641
31327W        W 1927   8.700  17.799   2.293
31328W        W 1928  42.961   7.502   1.311
31329W        W 1929  30.044   1.899  12.385
31330W        W 1930  36.906  17.777  12.982
31331W        W 1931  23.636  37.417   2.330
31332W        W 1932  25.125  13.358   3.898
31333W        W 1933  27.060  27.720  13.014
31334W        W 1934  22.569  15.074  14.935
31335W        W 1935  35.314  43.123   1.221
31336W        W 1936  37.382  15.225   3.709
31337W        W 1937   9.282   3.733  11.584
31338W        W 1938  30.747  34.774  13.712
31339W        W 1939  34.133  40.431  10.778
31340W        W 1940  44.405   3.705   0.024
31341W        W 1941  31.584  17.371  12.451
31342W        W 1942  34.202  19.243  12.508
31343W        W 1943  12.980  23.612  11.228
31344W        W 1944  29.307  44.427  12.217
31345W        W 1945  31.752  12.040   4.685
31346W        W 1946   1.425  19.445  11.243
31347W        W 1947  30.173  12.540  12.943
31348W        W 1948  39.561  22.703   2.255
31349W        W 1949  40.535  42.335   1.901
31350W        W 1950   5.286   7.032  10.841
31351W        W 1951  30.329  27.222   4.086
31352W        W 1952  14.791  29.575   1.851
31353W        W 1953  27.690   0.693  13.625
31354W        W 1954  32.812  34.466   0.021
31355W        W 1955  44.293  19.166   3.794
31356W        W 1956  39.872  43.450  14.247
31357W        W 1957  41.312  23.169   1.181
31358W        W 1958  41.815   2.514  14.547
31359W        W 1959  29.517  44.833   0.773
31360W        W 1960  18.074   3.427   2.220
31361W        W 1961  11.412   0.989   3.611
31362W        W 1962   5.949  24.166  11.687
31363W        W 1963  20.811  27.546  12.933
31364W        W 1964  29.550  21.836   4.179
31365W        W 1965  16.664  35.421  10.828
31366W        W 1966  30.450  25.106   0.941
31367W        W 1967   7.347  44.825   4.520
31368W        W 1968  33.372  11.792   4.101
31369W        W 1969   9.324   8.718   1.174
31370W        W 1970   8.500  41.733   2.897
31371W        W 1971  22.728  21.205  12.667
31372W        W 1972   4.344  12.835   3.858
31373W        W 1973  21.208  24.334   1.263
31374W        W 1974  33.896  22.716   0.047
31375W        W 1975  33.360  16.616  13.414
31376W        W 1976  27.600  17.060  11.546
31377W        W 1977  16.241   1.374  10.625
31378W        W 1978  43.351   0.440   1.513
31379W        W 1979  39.832   3.662  14.536
31380W        W 1980  35.792  35.330  13.893
31381W        W 1981  38.100  42.184   2.168
31382W        W 1982  29.910  14.738  12.760
31383W        W 1983  11.768   3.527  13.829
31384W        W 1984   1.994  27.713   2.800
31385W        W 1985  24.171  36.510   1.878
31386W        W 1986  20.887   4.684   0.511
31387W        W 1987  17.000  10.154  13.068
31388W        W 1988   0.131  41.100  11.298
31389W        W 1989  22.182   8.004   2.709
31390W        W 1990   8.756  35.994   1.791
31391W        W 1991  38.479  31.944   4.046
31392W        W 1992  44.350  20.198   2.310
31393W        W 1993  43.994  19.670  12.388
31394W        W 1994  32.704   8.597  12.350
31395W        W 1995  20.683  20.929   1.282
31396W        W 1996  44.065  21.276   0.350
31397W        W 1997   3.098  11.184  12.573
31398W        W 1998  35.677  13.706  12.518
31399W        W 1999  40.013   2.663   0.359
31400W        W 2000  39.265  36.795   2.703
31401W        W 2001  31.076   9.425   4.533
31402W        W 2002   1.787  36.044  11.622
31403W        W 2003  29.178  32.102   1.286
31404W        W 2004  25.708   3.353   1.374
31405W        W 2005  11.344   0.165  14.896
31406W        W 2006  35.041  28.533   0.744
31407W        W 2007  32.177  27.731  10.202
31408W        W 2008   4.733  23.281  12.990
31409W        W 2009  43.815  27.152  11.588
31410W        W 2010  20.452   4.737   1.925
31411W        W 2011   8.774  25.427  14.457
31412W        W 2012  13.604   1.686   2.182
31413W        W 2013   3.940  30.887   4.219
31414W        W 2014   1.885  31.085   0.540
31415W        W 2015   2.557  34.441  12.424
31416W        W 2016  25.061   9.889  13.015
31417W        W 2017  19.933  12.703   2.654
31418W        W 2018  27.027  27.902   4.059
31419W        W 2019  37.479  27.806  11.115
31420W        W 2020  39.175  35.099   3.275
31421W        W 2021   5.911   1.674  14.288
31422W        W 2022   0.035  10.175   0.917
31423W        W 2023  43.495  11.726   0.516
31424W        W 2024   0.406  40.878   3.457
31425W        W 2025   7.614  13.752  11.558
31426W        W 2026  25.148   9.906   4.636
31427W        W 2027   3.305  34.964   0.072
31428W        W 2028  13.808  31.096   4.558
31429W        W 2029  25.210   4.390   5.066
31430W        W 2030  34.419  31.975   9.978
31431W        W 2031   3.884   1.109   0.811
31432W        W 2032   1.802  33.650  13.609
31433W        W 2033  27.697  37.824  11.179
31434W        W 2034  28.456  23.272   5.215
31435W        W 2035  20.588  28.001  12.877
31436W        W 2036  22.183  39.521  13.471
31437W        W 2037   0.947  17.348   0.981
31438W        W 2038  28.871  27.744  13.829
31439W        W 2039  31.165  38.459   1.431
31440W        W 2040  17.723  10.120   4.531
31441W        W 2041   0.298  23.812   2.920
31442W        W 2042  19.921  14.578  11.091
31443W        W 2043  43.971  16.304   1.920
31444W        W 2044  18.251  27.216   1.322
31445W        W 2045  35.217  19.584   2.846
31446W        W 2046  13.396  41.913  11.279
31447W        W 2047  44.782  15.582   4.558
31448W        W 2048  35.826  23.466  14.801
31449W        W 2049   8.783  17.076  12.062
31450W        W 2050  17.076  20.816  14.623
31451W        W 2051  10.315   2.179  12.203
31452W        W 2052  15.449  31.842  11.600
31453W        W 2053  39.354  28.636   1.930
31454W        W 2054   2.808   6.373  14.337
31455W        W 2055  26.024  22.566   1.226
31456W        W 2056  44.962   1.834   1.494
31457W        W 2057  20.281  33.236   5.155
31458W        W 2058   8.200  38.741  10.656
31459W        W 2059   9.269  39.972  13.527
31460W        W 2060  19.080  12.281  11.649
31461W        W 2061  23.901  13.952   0.925
31462W        W 2062  21.756  40.506  10.736
31463W        W 2063  42.470  35.043  12.072
31464W        W 2064  11.708  15.857  10.826
31465W        W 2065  39.347  22.702  12.110
31466W        W 2066  40.823  42.444  11.602
31467W        W 2067  33.419  27.933  11.045
31468W        W 2068   3.398  29.976   1.752
31469W        W 2069  15.147   3.926   4.595
31470W        W 2070  34.710  19.624  11.082
31471W        W 2071  38.600  25.493   0.341
31472W        W 2072  26.551  24.133  12.048
31473W        W 2073  36.878  30.335  13.320
31474W        W 2074  24.483  12.302   2.302
31475W        W 2075  31.294  34.603   3.430
31476W        W 2076  36.518  24.060  12.610
31477W        W 2077  33.384  15.177  13.403
31478W        W 2078   8.791  39.067   0.447
31479W        W 2079   1.493  31.235  14.342
31480W        W 2080  19.780  21.535  13.058
31481W        W 2081  35.674  44.926  14.713
31482W        W 2082  20.186   2.260  10.870
31483W        W 2083   6.378   4.889   0.942
31484W        W 2084  32.273  41.334   3.767
31485W        W 2085  40.532  10.673   4.300
31486W        W 2086  12.857  34.607   4.483
31487W        W 2087  25.233  30.630  12.596
31488W        W 2088  26.495  18.751   1.706
31489W        W 2089  36.910  10.867  14.328
31490W        W 2090  40.361  32.197   2.768
31491W        W 2091   6.385  21.026  10.574
31492W        W 2092  31.311  40.511  13.388
31493W        W 2093  38.049  11.885   1.808
31494W        W 2094  13.753  37.948  12.499
31495W        W 2095  13.248  37.650   2.229
31496W        W 2096  10.434  24.680  14.353
31497W        W 2097  40.943  35.261   3.661
31498W        W 2098   6.489  37.041  11.821
31499W        W 2099  26.917  42.912   1.790
31500W        W 2100  19.783  30.592   0.351
31501W        W 2101  26.533   8.365   2.272
31502W        W 2102  38.522  32.411   4.314
31503W        W 2103  27.221  38.468  12.311
31504W        W 2104   1.756  17.150   1.245
31505W        W 2105  24.905  29.686  12.198
31506W        W 2106  20.281  22.106  11.941
31507W        W 2107   9.412  12.754  13.381
31508W        W 2108  22.163  31.972  12.979
31509W        W 2109  19.644  31.986  14.705
31510W        W 2110  39.437  12.127  14.001
31511W        W 2111  17.627  44.530  14.324
31512W        W 2112  44.722   6.564  12.460
31513W        W 2113  25.431  41.308  14.793
31514W        W 2114  23.179  40.823  13.892
31515W        W 2115  30.515  26.970   4.545
31516W        W 2116   8.882  40.616   0.975
31517W        W 2117  11.741  17.027   2.248
31518W        W 2118  39.860  23.168  14.210
31519W        W 2119  36.890  10.852  13.418
31520W        W 2120  11.954  23.666   2.898
31521W        W 2121  42.324  25.373  11.184
31522W        W 2122  33.160  10.244   1.317
31523W        W 2123   7.495   2.464   2.704
31524W        W 2124  19.245  28.648  14.853
31525W        W 2125  36.942  39.631  13.870
31526W        W 2126  21.069   5.397  11.628
31527W        W 2127  16.562  31.066   2.903
31528W        W 2128  30.169  20.971  13.782
31529W        W 2129  31.587   7.773  10.936
31530W        W 2130  25.080  41.790  14.017
31531W        W 2131  19.291  37.872   4.185
31532W        W 2132  28.092  37.580  12.106
31533W        W 2133  34.405  36.551  14.569
31534W        W 2134   6.795  31.908   4.568
31535W        W 2135  22.193  26.193   0.943
31536W        W 2136  28.141  31.281   2.628
31537W        W 2137  20.539  11.560  12.848
31538W        W 2138  34.572  32.768  14.650
31539W        W 2139   1.408  41.361  14.381
31540W        W 2140   5.185  24.202  10.763
31541W        W 2141  37.496  33.499   4.043
31542W        W 2142   0.562  42.927  13.885
31543W        W 2143  37.558  27.600   1.304
31544W        W 2144  12.476   6.123   2.632
31545W        W 2145  33.904   3.689   0.307
31546W        W 2146  28.329   1.976   5.028
31547W        W 2147   1.657   5.721  11.027
31548W        W 2148  16.946  35.821   2.650
31549W        W 2149  18.470  27.409   1.763
31550W        W 2150   3.417   5.376   3.289
31551W        W 2151   1.901  39.676   0.291
31552W        W 2152  21.000  11.057  12.091
31553W        W 2153  18.225   4.362   4.200
31554W        W 2154  20.369  30.670   3.091
31555W        W 2155   5.119  43.180   1.547
31556W        W 2156  25.529  16.128  14.432
31557W        W 2157  17.612   3.921  12.629
31558W        W 2158  37.089  19.024  13.858
31559W        W 2159   6.361   6.716  14.044
31560W        W 2160   7.151  41.025   3.223
31561W        W 2161  24.199  43.449   3.211
31562W        W 2162   9.699  39.381   0.987
31563W        W 2163  20.583   5.684   1.358
31564W        W 2164  40.042  11.337  14.876
31565W        W 2165   1.814  29.408   1.204
31566W        W 2166  31.912  43.507  12.830
31567W        W 2167   5.132  20.618   1.930
31568W        W 2168  17.827  34.049   2.892
31569W        W 2169   6.666  25.491   1.762
31570W        W 2170  26.760  13.508   3.431
31571W        W 2171  23.698  34.936   3.393
31572W        W 2172   5.009   3.247  13.835
31573W        W 2173  41.102  15.712   4.051
31574W        W 2174  11.334  31.817   3.653
31575W        W 2175  30.418  37.023  12.951
31576W        W 2176   8.976  20.377  12.048
31577W        W 2177  14.646  17.975  13.933
31578W        W 2178   9.885   4.470   1.341
31579W        W 2179  13.331  40.382  10.672
31580W        W 2180   0.015  31.382  14.297
31581W        W 2181  40.801  41.299  13.775
31582W        W 2182  35.376   6.174  14.918
31583W        W 2183   2.945  25.090  13.529
31584W        W 2184  33.220  15.371   4.629
31585W        W 2185   5.257  37.893   0.348
31586W        W 2186  42.833  25.642   0.815
31587W        W 2187   1.518  13.523  12.441
31588W        W 2188  10.720  36.302   1.080
31589W        W 2189  11.713   6.469  14.703
31590W        W 2190  15.580  44.852  14.235
31591W        W 2191  37.819   2.848   3.499
31592W        W 2192  23.212   3.339  10.324
31593W        W 2193   3.695  27.545   3.710
31594W        W 2194   4.417  24.231   3.873
31595W        W 2195  13.082   1.288   2.910
31596W        W 2196   5.444   0.884  12.457
31597W        W 2197   1.062  14.909  11.862
31598W        W 2198  17.345  13.576  11.126
31599W        W 2199  16.934   4.449   0.088
31600W        W 2200   3.345  13.938   3.664
31601W        W 2201  13.793  11.199   3.326
31602W        W 2202  32.534  31.195  13.772
31603W        W 2203   5.656  30.353   3.876
31604W        W 2204   9.255  24.220  12.057
31605W        W 2205  34.411   4.393  14.010
31606W        W 2206  42.327  17.230  11.005
31607W        W 2207  22.048  21.606  13.100
31608W        W 2208  36.703  30.645   0.298
31609W        W 2209  44.895  44.567  12.332
31610W        W 2210  26.050  27.539   0.259
31611W        W 2211  28.499  17.651   1.138
31612W        W 2212  27.473  41.545  13.061
31613W        W 2213  14.135  42.259   4.562
31614W        W 2214  42.967  19.641  14.304
31615W        W 2215  23.172   1.159   4.480
31616W        W 2216  20.532  15.113   0.292
31617W        W 2217  37.256  11.854  14.148
31618W        W 2218  22.276  10.449   4.658
31619W        W 2219  37.076  24.969   2.766
31620W        W 2220  26.416  28.958   2.333
31621W        W 2221   2.552  38.446   2.052
31622W        W 2222  11.523  33.010   4.110
31623W        W 2223  39.052  33.149  13.971
31624W        W 2224   4.724  29.593  12.834
31625W        W 2225  18.514  16.022   1.246
31626W        W 2226  19.780   5.867  10.170
31627W        W 2227  35.448  30.105   1.389
31628W        W 2228  42.939  24.236  13.135
31629W        W 2229  39.319  16.498  10.690
31630W        W 2230  42.068  35.445  12.520
31631W        W 2231  31.446   5.717  13.983
31632W        W 2232   0.840   2.026   1.311
31633W        W 2233  33.374  30.282   2.722
31634W        W 2234  18.647   3.818   0.861
31635W        W 2235  25.394   9.780  11.117
31636W        W 2236  26.624   7.697   4.579
31637W        W 2237  33.728  39.380   5.059
31638W        W 2238  16.354  35.583  13.911
31639W        W 2239  33.640  12.243   4.100
31640W        W 2240  23.661   0.635  13.992
31641W        W 2241   2.809  39.467   3.310
31642W        W 2242   6.298   1.085   4.995
31643W        W 2243  36.287  26.501   3.646
31644W        W 2244  16.382  19.537   4.855
31645W        W 2245  40.503  28.049  14.960
31646W        W 2246  21.909   2.061   4.080
31647W        W 2247  15.655   9.081  10.741
31648W        W 2248  15.140  30.237   0.321
31649W        W 2249  34.125  20.700   1.023
31650W        W 2250  33.323  40.816   0.228
31651W        W 2251  21.537  40.787  14.871
31652W        W 2252  43.374  37.628  12.017
31653W        W 2253   3.511  24.640  13.031
31654W        W 2254   4.952  43.847   3.267
31655W        W 2255   6.932  14.384   1.917
31656W        W 2256   1.265  20.521   1.384
31657W        W 2257   7.307  11.920  12.390
31658W        W 2258  18.668   2.017  14.491
31659W        W 2259  43.478  39.062  14.407
31660W        W 2260   9.730  25.464   1.861
31661W        W 2261   0.715   5.901  11.103
31662W        W 2262  30.570  35.617  11.166
31663W        W 2263   1.756  43.148  11.503
31664W        W 2264  44.334  35.113  13.312
31665W        W 2265   7.622   5.022  11.093
31666W        W 2266  27.891  42.580   4.786
31667W        W 2267   6.914  13.335   1.735
31668W        W 2268  24.691   2.874  13.111
31669W        W 2269  35.123  25.213  10.648
31670W        W 2270   1.887  31.067  10.770
31671W        W 2271  33.400  39.944  13.472
31672W        W 2272  17.663   4.481   3.313
31673W        W 2273  30.400  13.027  12.921
31674W        W 2274  41.552   6.058   4.974
31675W        W 2275  19.370  14.116  14.912
31676W        W 2276   3.207  31.531  13.578
31677W        W 2277   1.826  20.242   3.809
31678W        W 2278  10.845   3.917  11.518
31679W        W 2279   9.105   8.421   2.808
31680W        W 2280  36.587  17.885  12.603
31681W        W 2281   7.789   3.781   3.861
31682W        W 2282  28.140  22.241  12.681
31683W        W 2283  14.360   0.841  11.767
31684W        W 2284  26.666   1.713  13.452
31685W        W 2285  24.945   5.999  10.631
31686W        W 2286  39.930   7.822  14.854
31687W        W 2287   5.928  23.277  14.408
31688W        W 2288   8.481  41.064   0.269
31689W        W 2289  19.098  17.138   3.238
31690W        W 2290  31.100  29.961  13.860
31691W        W 2291  19.655  10.666  11.465
31692W        W 2292  19.738  17.774  13.583
31693W        W 2293   3.947  35.500   3.593
31694W        W 2294   4.678  27.731  12.011
31695W        W 2295  16.827  17.167  10.993
31696W        W 2296  11.584  41.840  14.944
31697W        W 2297   6.284  27.698   3.878
31698W        W 2298  24.108  18.540  11.944
31699W        W 2299  28.023  44.527   1.331
31700W        W 2300  27.431  38.427   1.721
31701W        W 2301   8.706  24.587   4.285
31702W        W 2302   7.191  27.474   2.711
31703W        W 2303  14.840  15.237   0.482
31704W        W 2304  43.811  41.433   3.147
31705W        W 2305  39.257   8.624   4.249
31706W        W 2306  16.021   8.323   4.091
31707W        W 2307  14.294  19.940   0.958
31708W        W 2308  23.537  23.570  10.802
31709W        W 2309   1.964  12.408  12.020
31710W        W 2310  21.542  15.111  11.071
31711W        W 2311  41.278  13.690  10.619
31712W        W 2312  23.502   6.617  13.452
31713W        W 2313  12.167  29.252   1.331
31714W        W 2314   1.718  12.092  11.689
31715W        W 2315   3.947   5.623  13.323
31716W        W 2316   1.198   1.489   4.159
31717W        W 2317  43.239  25.756   1.711
31718W        W 2318  23.628  33.583  11.895
31719W        W 2319  13.694  25.233   3.614
31720W        W 2320  24.028  40.464   4.347
31721W        W 2321  29.372  14.839   2.265
31722W        W 2322  30.059   1.306   1.923
31723W        W 2323  20.500  16.168  14.425
31724W        W 2324  31.172  38.048   1.814
31725W        W 2325  43.946  32.682   0.833
31726W        W 2326  33.431  22.782  13.639
31727W        W 2327  20.180   2.189  11.407
31728W        W 2328   4.031  22.981  14.334
31729W        W 2329  20.232  42.487  13.521
31730W        W 2330   3.521  35.632   4.828
31731W        W 2331  33.506  35.154  10.588
31732W        W 2332  39.921  19.045  13.264
31733W        W 2333  23.535  44.845  12.645
31734W        W 2334  10.595  22.287   2.748
31735W        W 2335  41.905   5.392  13.433
31736W        W 2336  17.146  32.646   0.322
31737W        W 2337  40.564  30.385  13.975
31738W        W 2338   2.396  24.635  11.491
31739W        W 2339  19.198  34.234   2.710
31740W        W 2340   3.338  11.443   4.581
31741W        W 2341  36.659  29.865   2.986
31742W        W 2342  11.190   2.086  12.317
31743W        W 2343   3.062   4.522   3.207
31744W        W 2344  17.734  39.020  10.404
31745W        W 2345  15.355  31.867  10.675
31746W        W 2346  37.638  16.108  14.385
31747W        W 2347  15.225  25.043  11.946
31748W        W 2348  30.668  37.953   5.622
31749W        W 2349   5.425  30.218  13.957
31750W        W 2350  11.310  40.560  12.187
31751W        W 2351  19.400  19.293   4.198
31752W        W 2352  25.453  17.749   4.583
31753W        W 2353   2.719  44.069   3.825
31754W        W 2354  35.087   5.548   0.721
31755W        W 2355  12.360  43.866  14.474
31756W        W 2356  28.427   7.227   1.956
31757W        W 2357  10.849   3.517   5.095
31758W        W 2358  20.137   3.877   2.843
31759W        W 2359  19.775  11.650   1.733
31760W        W 2360  30.958   2.352   3.815
31761W        W 2361  11.714  15.375  12.101
31762W        W 2362  14.761  15.324   2.365
31763W        W 2363  22.777  19.292   0.890
31764W        W 2364  44.984   7.378  13.821
31765W        W 2365  20.623  16.842   2.775
31766W        W 2366  21.052  25.163   2.352
31767W        W 2367  23.175  19.357  13.776
31768W        W 2368  11.612  29.583  12.936
31769W        W 2369  41.374  36.462  14.788
31770W        W 2370   2.805  39.539  11.609
31771W        W 2371  34.695  35.324  11.950
31772W        W 2372  40.514  17.295  10.789
31773W        W 2373   3.894  17.180  11.493
31774W        W 2374  12.678   0.944  13.322
31775W        W 2375  38.860  35.447  13.694
31776W        W 2376   1.242  33.079  12.500
31777W        W 2377  39.704  15.634   0.919
31778W        W 2378  10.905  27.062   0.166
31779W        W 2379   4.746  37.491  12.046
31780W        W 2380  39.143  39.361   0.912
31781W        W 2381   7.473  12.178  13.563
31782W        W 2382  42.410  22.245  14.318
31783W        W 2383  12.710  38.841   1.472
31784W        W 2384  18.391  42.863   2.663
31785W        W 2385  39.967  36.599  11.173
31786W        W 2386   1.688   9.413  14.405
31787W        W 2387  10.675  10.678  11.114
31788W        W 2388  19.667  23.950   4.086
31789W        W 2389   4.608  20.059   1.397
31790W        W 2390  34.163   8.532   3.679
31791W        W 2391   4.071  32.034  13.496
31792W        W 2392   5.171  29.570   2.714
31793W        W 2393  12.289  34.429   4.675
31794W        W 2394   6.689  37.811   1.718
31795W        W 2395  33.864   5.690   4.319
31796W        W 2396  29.697  26.416  12.950
31797W        W 2397  22.229  24.519  14.906
31798W        W 2398   4.494  26.918  14.953
31799W        W 2399   8.461   4.146  13.073
31800W        W 2400  42.451  25.499  14.805
31801W        W 2401  23.405   1.435   0.550
31802W        W 2402  34.038  39.030   4.376
31803W        W 2403  17.772  20.253   0.004
31804W        W 2404  25.088  33.846   3.873
31805W        W 2405  37.454  28.411   4.864
31806W        W 2406  20.152  42.748  12.175
31807W        W 2407   1.348  35.399   2.682
31808W        W 2408  29.277   4.244   4.093
31809W        W 2409   1.504  44.194   2.368
31810W        W 2410  21.745   9.675   0.597
31811W        W 2411  38.394  12.992   4.232
31812W        W 2412  10.762   2.841   3.290
31813W        W 2413  19.057  14.087  13.871
31814W        W 2414  43.995   7.581   4.784
31815W        W 2415  23.830   6.432  13.072
31816W        W 2416  16.109  21.718  12.174
31817W        W 2417  30.510   7.031   0.244
31818W        W 2418   8.782  39.109   1.869
31819W        W 2419  16.977  10.877   3.285
31820W        W 2420  17.193  23.073   2.211
31821W        W 2421  34.432  25.637   1.600
31822W        W 2422  11.120  44.962  11.017
31823W        W 2423   8.261  28.874  10.683
31824W        W 2424  33.596  37.584   1.400
31825W        W 2425   4.677  34.101  14.239
31826W        W 2426   2.354  27.450   4.074
31827W        W 2427  21.826  14.312  10.807
31828W        W 2428  10.885  35.917   1.399
31829W        W 2429   0.253  34.152   1.537
31830W        W 2430  39.052  13.697   4.150
31831W        W 2431  37.716  25.997  14.352
31832W        W 2432   7.905  17.775  14.360
31833W        W 2433  10.885  41.295  13.835
31834W        W 2434   9.962  15.888  13.820
31835W        W 2435  44.830  25.930  14.105
31836W        W 2436   0.298   1.842  11.246
31837W        W 2437  34.622  13.430   1.916
31838W        W 2438  19.030  14.627  13.085
31839W        W 2439  32.929   9.631   2.292
31840W        W 2440  39.495   7.296   2.636
31841W        W 2441   9.762   7.944   1.419
31842W        W 2442  41.895   7.312   0.841
31843W        W 2443   1.516  23.041   4.170
31844W        W 2444  35.115  38.437   4.115
31845W        W 2445  25.517  23.285   3.376
31846W        W 2446  43.373   6.117   0.297
31847W        W 2447  13.087  26.335  12.976
31848W        W 2448   0.553  39.007   0.344
31849W        W 2449  38.329   1.480  11.807
31850W        W 2450   9.392  43.039  10.729
31851W        W 2451   8.406  34.240  12.138
31852W        W 2452   2.367  29.642   5.031
31853W        W 2453  10.130  23.178   2.549
31854W        W 2454  21.720  12.572   1.844
31855W        W 2455  13.203  29.630   3.216
31856W        W 2456   5.190  10.543   0.480
31857W        W 2457  27.969  11.261   2.827
31858W        W 2458   5.001  35.407  13.126
31859W        W 2459  17.910  33.293   2.278
31860W        W 2460  19.034  15.119   2.705
31861W        W 2461   2.356  10.860  13.894
31862W        W 2462  25.130  28.681   1.000
31863W        W 2463  12.847  18.115  10.754
31864W        W 2464  23.758  31.513  12.938
31865W        W 2465  19.727  41.970   4.985
31866W        W 2466  22.160  31.110  11.911
31867W        W 2467  44.747  24.607   4.167
31868W        W 2468  24.608  13.481   1.329
31869W        W 2469  36.503  39.693  12.562
31870W        W 2470  40.275  11.680  10.714
31871W        W 2471   7.014  41.947  10.443
31872W        W 2472  37.708  16.539  13.053
31873W        W 2473  37.912  16.640   2.593
31874W        W 2474  44.929   1.308   0.753
31875W        W 2475  38.223  39.834   1.316
31876W        W 2476  12.840  37.754   2.536
31877W        W 2477  17.966  13.286  14.775
31878W        W 2478   5.929   2.557  12.008
31879W        W 2479  31.206   2.758  12.287
31880W        W 2480   6.458   2.184   3.759
31881W        W 2481  26.261  29.473  12.843
31882W        W 2482   9.077  19.916   3.857
31883W        W 2483  35.922  42.532   1.920
31884W        W 2484  20.831  26.389   0.808
31885W        W 2485  38.846  44.699  12.949
31886W        W 2486  27.008   1.336  14.178
31887W        W 2487  26.198   6.853  13.964
31888W        W 2488  27.865   1.236  14.522
31889W        W 2489  10.626   4.449   1.815
31890W        W 2490  36.031   2.357  12.030
31891W        W 2491   9.680  24.969  14.343
31892W        W 2492  10.101  34.394  13.564
31893W        W 2493  23.483  33.813  13.538
31894W        W 2494  35.974  26.304  10.746
31895W        W 2495  18.316   9.471  14.219
31896W        W 2496  43.060  34.980   4.542
31897W        W 2497  32.142   8.241   3.192
31898W        W 2498  10.027  43.034   0.697
31899W        W 2499   7.800  23.638   0.443
31900W        W 2500  19.720  42.480  10.704
31901W        W 2501  23.236  21.624   3.627
31902W        W 2502   9.230  27.093  13.963
31903W        W 2503  17.734  29.781  10.021
31904W        W 2504  12.398  12.763  13.980
31905W        W 2505  24.616   1.501  11.102
31906W        W 2506   7.456   6.847  14.037
31907W        W 2507  25.451  15.093  14.315
31908W        W 2508  44.783  42.428   4.577
31909W        W 2509  28.418  19.272   1.877
31910W        W 2510  13.503  29.882   2.008
31911W        W 2511   4.984  30.093  12.026
31912W        W 2512  30.425   3.232   1.807
31913W        W 2513  20.014   9.218  14.984
31914W        W 2514  30.124  28.160  12.357
31915W        W 2515   5.371  21.770   4.763
31916W        W 2516  19.316  26.255   0.837
31917W        W 2517  30.692  15.579  12.952
31918W        W 2518  44.366  13.721  13.877
31919W        W 2519  12.629   3.451  10.684
31920W        W 2520   3.676  40.651   2.790
31921W        W 2521  30.154   1.555  12.862
31922W        W 2522  33.966   9.369   0.240
31923W        W 2523   9.066   0.710  10.380
31924W        W 2524  22.092  28.410   1.532
31925W        W 2525   1.966  24.944   4.234
31926W        W 2526  18.294  40.453  12.454
31927W        W 2527  23.453  40.238  10.677
31928W        W 2528  33.076  22.664  11.622
31929W        W 2529  23.051  16.267   4.480
31930W        W 2530  12.927  24.545  13.746
31931W        W 2531  20.967  32.244   3.959
31932W        W 2532  26.562  43.770   0.362
31933W        W 2533  31.053   9.353   0.450
31934W        W 2534  21.955  27.055  10.723
31935W        W 2535  38.299  18.816   4.722
31936W        W 2536  22.618  31.102   3.144
31937W        W 2537   6.672  11.788   4.056
31938W        W 2538  38.276  40.487  14.023
31939W        W 2539  28.477  29.213  13.395
31940W        W 2540  44.820  26.451   1.334
31941W        W 2541  17.827   5.483   4.695
31942W        W 2542   0.345  34.107  13.479
31943W        W 2543  11.240   4.767   0.429
31944W        W 2544  32.716  26.701  11.998
31945W        W 2545  12.733  44.510   1.383
31946W        W 2546   1.731  41.854  11.721
31947W        W 2547   3.751  15.242  14.747
31948W        W 2548  20.688   4.746  13.231
31949W        W 2549  14.282  43.276  12.598
31950W        W 2550  36.746  29.437   0.287
31951W        W 2551  24.487  21.697  13.339
31952W        W 2552  37.525  28.117   3.622
31953W        W 2553  21.233   2.274   0.494
31954W        W 2554   1.764  40.946  14.003
31955W        W 2555  14.270  27.493  13.349
31956W        W 2556  22.443  30.586   0.833
31957W        W 2557  12.299  18.891   3.250
31958W        W 2558   0.848   1.433  13.412
31959W        W 2559   5.939  29.499   2.262
31960W        W 2560   3.877  18.563   4.924
31961W        W 2561  11.872  19.528  14.039
31962W        W 2562  37.040  29.968  12.141
31963W        W 2563  41.683  41.384  14.916
31964W        W 2564  33.530   7.410   4.194
31965W        W 2565  11.059  36.999  10.416
31966W        W 2566  23.934  22.151  11.316
31967W        W 2567  12.297  13.901   1.742
31968W        W 2568   4.800  32.372  10.668
31969W        W 2569   6.667   7.371  14.089
31970W        W 2570  25.488   1.266   0.810
31971W        W 2571   8.740  26.225  10.650
31972W        W 2572   4.548  44.970   1.277
31973W        W 2573   0.433  37.532  11.912
31974W        W 2574  13.573  17.528  11.750
31975W        W 2575  21.289  32.178  14.705
31976W        W 2576  39.790  35.839   0.716
31977W        W 2577  28.624  28.895   4.218
31978W        W 2578  12.868  24.141   1.737
31979W        W 2579  43.181  30.825   1.797
31980W        W 2580   6.324   7.677   1.201
31981W        W 2581  17.250  39.903   3.486
31982W        W 2582  40.504   8.372   4.454
31983W        W 2583  37.762  28.087   1.312
31984W        W 2584  40.909  39.861   3.590
31985W        W 2585  30.546  25.831  13.627
31986W        W 2586  24.590  33.137  11.567
31987W        W 2587  43.905  36.832   0.732
31988W        W 2588  35.220  14.125   0.500
31989W        W 2589   2.622  11.054  14.298
31990W        W 2590  40.033  13.242   3.717
31991W        W 2591   0.363  21.353   4.066
31992W        W 2592  11.353  29.070   4.098
31993W        W 2593  23.905  26.726  11.166
31994W        W 2594  34.557  33.864   2.174
31995W        W 2595  42.302  15.071   2.620
31996W        W 2596  44.948   4.770  14.646
31997W        W 2597  28.518  19.870   0.718
31998W        W 2598  35.432  13.660  11.560
31999W        W 2599  16.056  28.003   3.755
32000W        W 2600  25.070  29.917   4.134
32001W        W 2601  13.863   0.862   3.800
32002W        W 2602  44.447  31.680  13.657
32003W        W 2603  16.487  36.014   4.994
32004W        W 2604   4.377  24.876   3.179
32005W        W 2605   8.088   8.929   1.658
32006W        W 2606  37.015  39.121  13.860
32007W        W 2607  40.925   8.235  13.303
32008W        W 2608   3.530   9.455   1.183
32009W        W 2609   2.549   4.319  11.596
32010W        W 2610  18.213  24.718   0.440
32011W        W 2611  43.956  25.622  11.669
32012W        W 2612  16.318  21.296   4.282
32013W        W 2613  44.502  15.153   4.623
32014W        W 2614  42.969   5.662   0.009
32015W        W 2615  21.378  40.290  14.959
32016W        W 2616  25.281  30.527  12.091
32017W        W 2617   8.810  11.411  12.135
32018W        W 2618  20.324   8.921   5.431
32019W        W 2619  37.803  21.629   1.833
32020W        W 2620  30.266  17.930  12.909
32021W        W 2621  15.514  10.575  10.930
32022W        W 2622  16.092  35.891  14.296
32023W        W 2623  34.976  33.080   4.632
32024W        W 2624  30.803   8.047   1.920
32025W        W 2625  11.157   8.201   1.215
32026W        W 2626  33.245  17.763   0.216
32027W        W 2627  25.466  18.877  10.604
32028W        W 2628  33.167  30.582  12.022
32029W        W 2629  20.672   7.358   5.031
32030W        W 2630  10.425  40.399   1.923
32031W        W 2631  37.290  27.949  12.045
32032W        W 2632   1.373  19.984  11.218
32033W        W 2633  14.315   8.847   1.207
32034W        W 2634  13.349   5.641  10.721
32035W        W 2635   9.955   0.165  14.666
32036W        W 2636   1.593  11.659   1.818
32037W        W 2637   6.591  26.890  14.010
32038W        W 2638  22.251  36.159  10.762
32039W        W 2639  12.628  33.032   4.447
32040W        W 2640  35.677  17.656  13.907
32041W        W 2641  36.826  16.072  11.668
32042W        W 2642  22.934  40.799  11.346
32043W        W 2643   6.213   4.505  11.080
32044W        W 2644   7.431   9.903   5.063
32045W        W 2645  29.901  10.432  14.389
32046W        W 2646  21.709  17.307   0.882
32047W        W 2647   7.262  33.962  10.875
32048W        W 2648  33.104  43.934  14.465
32049W        W 2649  19.083  43.581   2.861
32050W        W 2650  17.300  35.066  11.590
32051W        W 2651   7.079  18.022   4.357
32052W        W 2652   0.719  20.968  10.626
32053W        W 2653   9.076  27.459   0.690
32054W        W 2654  34.844  41.394   4.578
32055W        W 2655  39.380  21.541  14.739
32056W        W 2656  34.017  13.373   2.376
32057W        W 2657  22.703   8.184   1.899
32058W        W 2658  19.799  32.164  12.455
32059W        W 2659  11.860  37.670  14.857
32060W        W 2660   5.247  27.536   2.587
32061W        W 2661  24.931   5.269   0.393
32062W        W 2662  21.129  33.020  11.648
32063W        W 2663  10.099  15.121   3.748
32064W        W 2664  12.274  14.088  14.771
32065W        W 2665  21.546  14.346   3.216
32066W        W 2666  25.691   9.649  12.555
32067W        W 2667  33.066   7.253   4.916
32068W        W 2668  37.132  36.779   0.884
32069W        W 2669  36.665   4.858  12.116
32070W        W 2670  36.671  19.276   0.338
32071W        W 2671  35.588  15.756   0.432
32072W        W 2672  14.946   1.364  11.193
32073W        W 2673  27.175  36.449   4.353
32074W        W 2674  23.343  37.003  10.820
32075W        W 2675  23.127  31.946  12.524
32076W        W 2676   1.023  44.746  14.361
32077W        W 2677  43.004  33.692  14.391
32078W        W 2678  17.119  36.606  14.868
32079W        W 2679   5.701  21.565   3.983
32080W        W 2680   2.265  16.805   4.146
32081W        W 2681  12.639  44.969  12.088
32082W        W 2682  14.687  33.207   0.982
32083W        W 2683   5.396  28.085   1.095
32084W        W 2684  41.319  19.906   0.453
32085W        W 2685  36.997  20.446   4.081
32086W        W 2686  15.625  37.374   5.056
32087W        W 2687  12.591  17.568   3.370
32088W        W 2688  37.426  30.003  14.352
32089W        W 2689  25.685  22.039  10.984
32090W        W 2690  41.883  44.757   4.995
32091W        W 2691   1.840  24.909   2.270
32092W        W 2692  14.038  38.518  14.078
32093W        W 2693  14.373  19.354  11.459
32094W        W 2694   0.361   5.982   4.974
32095W        W 2695  24.465  39.834  13.471
32096W        W 2696  37.933  40.942  12.707
32097W        W 2697  41.479  37.834   0.976
32098W        W 2698   2.040   3.435   2.828
32099W        W 2699   6.174  25.400   1.677
32100W        W 2700  28.078  14.040   1.731
32101W        W 2701  28.445  26.026  10.917
32102W        W 2702  19.287  10.437  11.150
32103W        W 2703   9.593  24.270   3.139
32104W        W 2704  33.101  25.031  13.452
32105W        W 2705  26.370  32.969   4.899
32106W        W 2706  33.898  20.241   1.014
32107W        W 2707  35.621  22.979   3.617
32108W        W 2708  19.044  28.708   2.629
32109W        W 2709  12.793  12.232  13.350
32110W        W 2710   3.625  28.095  12.511
32111W        W 2711  24.157  14.355  14.016
32112W        W 2712   2.089  34.515  13.320
32113W        W 2713  11.567  27.223   4.052
32114W        W 2714  11.512   0.815  14.345
32115W        W 2715  22.656   3.462   3.700
32116W        W 2716  18.791  22.049   2.185
32117W        W 2717   6.997  26.570  13.097
32118W        W 2718  29.361  41.386   2.470
32119W        W 2719   4.745  15.688  12.995
32120W        W 2720   2.299  12.975  10.831
32121W        W 2721  28.305   5.186   3.674
32122W        W 2722  41.933  19.073  14.858
32123W        W 2723  36.073   9.519   2.952
32124W        W 2724   7.849  10.800   2.674
32125W        W 2725  29.529  16.506  14.508
32126W        W 2726  10.225  32.096  11.632
32127W        W 2727  19.091  35.441  11.750
32128W        W 2728  26.490  27.437   2.386
32129W        W 2729  29.190   9.766  12.998
32130W        W 2730  28.116  38.369  10.642
32131W        W 2731  20.481  13.706  12.238
32132W        W 2732  32.833  19.973   3.848
32133W        W 2733  41.543  22.078  14.879
32134W        W 2734  14.434  27.001   4.697
32135W        W 2735  20.283  31.385  13.775
32136W        W 2736  39.385  26.102   0.467
32137W        W 2737  32.077  15.569  13.787
32138W        W 2738  12.037  20.135   4.147
32139W        W 2739  39.078  44.702   2.065
32140W        W 2740  40.418  42.560   1.465
32141W        W 2741  14.310  31.970   0.941
32142W        W 2742  22.655  41.602  11.884
32143W        W 2743   9.168  30.369   4.939
32144W        W 2744  33.662  34.702  12.399
32145W        W 2745   7.138   0.413  11.509
32146W        W 2746   0.220  42.949  11.521
32147W        W 2747  11.377  28.536  11.965
32148W        W 2748   2.671   1.484   2.353
32149W        W 2749  17.413   4.689  10.819
32150W        W 2750  24.686   7.959  10.600
32151W        W 2751  39.499  43.248   4.610
32152W        W 2752   9.420  27.060   1.751
32153W        W 2753  10.785   3.072  10.506
32154W        W 2754  11.149  27.683   2.826
32155W        W 2755  35.541  31.641  11.136
32156W        W 2756  37.446   9.575  11.164
32157W        W 2757  33.200  26.992  14.582
32158W        W 2758  40.364  15.762   2.076
32159W        W 2759   3.697  36.032  11.628
32160W        W 2760   9.586  32.824   2.803
32161W        W 2761  16.625   6.316   0.401
32162W        W 2762  18.315  43.989  11.884
32163W        W 2763  21.616  31.238   4.069
32164W        W 2764  24.758   8.757   3.692
32165W        W 2765  36.141  31.899  14.551
32166W        W 2766   6.732  35.689   4.310
32167W        W 2767  22.637  19.127  10.584
32168W        W 2768  28.437   5.796   1.697
32169W        W 2769   5.646  32.017  11.594
32170W        W 2770  23.967  28.698   2.332
32171W        W 2771  37.426  17.736  10.750
32172W        W 2772  18.679  41.342   2.869
32173W        W 2773  12.616  15.296  13.354
32174W        W 2774  26.069   5.212   0.743
32175W        W 2775  10.386  20.551   3.760
32176W        W 2776  34.629  10.239  13.023
32177W        W 2777  41.183  43.922   3.578
32178W        W 2778  11.710  24.925   2.717
32179W        W 2779   3.983   9.706   1.804
32180W        W 2780  22.861  21.580   1.424
32181W        W 2781  10.950  36.800   1.147
32182W        W 2782  11.352   4.333  12.672
32183W        W 2783   6.766   2.211   3.294
32184W        W 2784  12.168  34.966   4.999
32185W        W 2785  44.473   8.145   3.238
32186W        W 2786  22.491  17.642   4.137
32187W        W 2787  24.970  28.926  12.410
32188W        W 2788  40.695  15.895   0.698
32189W        W 2789  35.780  43.352  10.680
32190W        W 2790  38.906   3.879  12.490
32191W        W 2791  34.430  42.965  11.640
32192W        W 2792   0.993   3.308  11.546
32193W        W 2793  12.395  39.414   0.160
32194W        W 2794   9.882  29.130   3.789
32195W        W 2795  27.103   8.915   3.622
32196W        W 2796  42.997  27.315   4.418
32197W        W 2797  30.449  32.272  11.647
32198W        W 2798  39.659  40.664   4.278
32199W        W 2799   2.478  10.552  14.328
32200W        W 2800  12.326   5.943  13.319
32201W        W 2801  29.215  14.406  13.333
32202W        W 2802  26.028   3.759   4.347
32203W        W 2803  39.927  29.994   3.993
32204W        W 2804   1.252   5.790   4.355
32205W        W 2805  29.085  41.099  12.083
32206W        W 2806  14.472  42.588  14.396
32207W        W 2807  29.255  10.308   0.748
32208W        W 2808  10.538  11.813   0.897
32209W        W 2809  32.062  27.507   4.491
32210W        W 2810  31.588   2.186  11.487
32211W        W 2811  39.000  20.856  12.967
32212W        W 2812  43.502  11.853   3.400
32213W        W 2813  39.195  38.488  10.671
32214W        W 2814   9.612   7.178  14.494
32215W        W 2815  32.953  32.949  13.955
32216W        W 2816  34.405  19.705  10.655
32217W        W 2817  30.281  37.097  14.337
32218W        W 2818  17.007  10.374  12.083
32219W        W 2819   6.726  23.071  11.173
32220W        W 2820   0.602   2.478   4.198
32221W        W 2821  14.742   3.233  14.490
32222W        W 2822  41.066  23.984  13.024
32223W        W 2823  43.042  24.626   1.391
32224W        W 2824   9.869  43.665  12.100
32225W        W 2825   8.199  10.886   4.530
32226W        W 2826  36.089   7.304  10.675
32227W        W 2827  11.565  39.376   0.309
32228W        W 2828  34.568  35.738   2.001
32229W        W 2829  26.772  18.892   2.169
32230W        W 2830  20.177  11.329   0.483
32231W        W 2831  22.704  34.839   2.100
32232W        W 2832  23.982  42.302   3.736
32233W        W 2833  21.971  13.886  10.397
32234W        W 2834  26.231  23.219   2.274
32235W        W 2835  41.611  41.163  13.443
32236W        W 2836  41.967  35.953   1.392
32237W        W 2837  29.093  11.694   3.273
32238W        W 2838   1.381  44.960  10.690
32239W        W 2839  39.836  34.728  12.371
32240W        W 2840  12.219  42.219  14.500
32241W        W 2841  23.479   5.625  13.389
32242W        W 2842  41.855  22.964  14.760
32243W        W 2843   6.108  11.858   3.270
32244W        W 2844  22.560  22.948   2.400
32245W        W 2845  35.848   0.970   3.108
32246W        W 2846  37.519  26.412   4.994
32247W        W 2847  25.679  10.745   0.707
32248W        W 2848  12.438  13.877   4.583
32249W        W 2849  21.200  17.815   1.365
32250W        W 2850  38.762   3.876   2.361
32251W        W 2851  24.403  36.985  14.911
32252W        W 2852  24.563   3.394  13.387
32253W        W 2853   0.101  26.177   3.675
32254W        W 2854   4.028  37.113   1.254
32255W        W 2855  35.600   0.336   3.684
32256W        W 2856  10.301  36.057   4.572
32257W        W 2857  32.296  26.049   2.767
32258W        W 2858  19.043  19.183   4.580
32259W        W 2859  37.356  26.570   2.450
32260W        W 2860  29.689  35.492  11.456
32261W        W 2861  28.442  43.494   2.907
32262W        W 2862  16.870  30.619   1.729
32263W        W 2863   1.035  42.956   1.677
32264W        W 2864  16.420   9.151   1.338
32265W        W 2865  38.661  11.673  13.760
32266W        W 2866  18.055  31.706  13.743
32267W        W 2867  37.905  28.969  13.516
32268W        W 2868  42.293  23.043  12.066
32269W        W 2869  15.202  31.589   3.574
32270W        W 2870  32.479  18.544  13.682
32271W        W 2871  13.535  19.014  12.686
32272W        W 2872   5.442  38.355  13.590
32273W        W 2873  27.615  40.891   1.828
32274W        W 2874  40.726  32.313  11.511
32275W        W 2875  10.316   0.333   3.997
32276W        W 2876  37.571   4.274  10.748
32277W        W 2877   0.858  34.779  12.395
32278W        W 2878   2.297  21.243   0.426
32279W        W 2879  38.036  33.959   0.936
32280W        W 2880  44.550  19.559  10.142
32281W        W 2881   1.094  27.403   2.616
32282W        W 2882  31.556  12.869   4.779
32283W        W 2883  31.360   5.904   4.670
32284W        W 2884  17.265   8.392   2.856
32285W        W 2885  23.685  33.603   0.844
32286W        W 2886  20.400   2.194   3.752
32287W        W 2887   0.546  29.083   1.255
32288W        W 2888  31.640  16.685   2.318
32289W        W 2889  25.617   7.245   5.348
32290W        W 2890  19.181  31.908  14.995
32291W        W 2891  36.388  42.558  10.679
32292W        W 2892  20.392  17.742  14.916
32293W        W 2893  25.772   1.014   3.613
32294W        W 2894  12.186  24.699  14.433
32295W        W 2895  39.969  15.586  10.677
32296W        W 2896  25.140  30.676  14.354
32297W        W 2897   1.177  40.399   4.247
32298W        W 2898  41.550  18.202   1.658
32299W        W 2899  31.059  38.008  12.062
32300W        W 2900   4.865  24.993  10.984
32301W        W 2901  39.621  37.680   1.364
32302W        W 2902  31.177  30.108   2.319
32303W        W 2903  40.433   5.774  12.072
32304W        W 2904  42.973  32.551  14.351
32305W        W 2905  41.496  44.065   2.929
32306W        W 2906  22.267  37.368   2.152
32307W        W 2907  17.338   6.227   3.677
32308W        W 2908  35.036  39.412   2.195
32309W        W 2909  16.282  28.960  14.031
32310W        W 2910  37.005   4.810  11.405
32311W        W 2911  35.336  19.359  11.001
32312W        W 2912  28.873  30.395  12.066
32313W        W 2913  14.704   6.924   0.090
32314W        W 2914  34.164  36.989  10.586
32315W        W 2915  28.123  12.138  13.319
32316W        W 2916  18.738  14.166   1.788
32317W        W 2917  12.401  16.716   0.350
32318W        W 2918   0.517  18.338   0.271
32319W        W 2919  28.047   3.059  13.520
32320W        W 2920   8.601   5.320  14.453
32321W        W 2921  17.743  38.029  11.059
32322W        W 2922   5.204  17.064  14.108
32323W        W 2923  36.872  44.201   4.624
32324W        W 2924  14.791   2.513   0.009
32325W        W 2925  16.710  40.888   1.616
32326W        W 2926  18.551   3.396   2.429
32327W        W 2927  38.613  15.788   1.704
32328W        W 2928  37.112  20.153   5.077
32329W        W 2929  10.253  40.858  14.979
32330W        W 2930  38.919  33.593   2.367
32331W        W 2931   5.300  23.716  10.974
32332W        W 2932  31.081  11.667  13.115
32333W        W 2933  38.561  28.914   4.752
32334W        W 2934   7.754  19.338   3.729
32335W        W 2935  40.378  33.881  11.928
32336W        W 2936  40.372  15.449   4.544
32337W        W 2937   4.394   1.103  11.541
32338W        W 2938  31.917  43.693  10.821
32339W        W 2939  36.882   7.654   4.846
32340W        W 2940  30.444   7.415  13.922
32341W        W 2941  24.576  37.877   3.409
32342W        W 2942  35.616   6.911   3.068
32343W        W 2943  28.053  25.387   4.312
32344W        W 2944   7.547   7.463  12.294
32345W        W 2945  44.473   1.710  14.562
32346W        W 2946  14.554  35.160   9.885
32347W        W 2947   6.486  29.608   0.086
32348W        W 2948  21.174  18.624   3.843
32349W        W 2949  28.512  14.434  14.021
32350W        W 2950  44.095  24.770   2.952
32351W        W 2951   6.801  32.508  10.718
32352W        W 2952  24.910   0.886   3.040
32353W        W 2953  39.262  41.809   1.721
32354W        W 2954  21.587   4.209  12.286
32355W        W 2955   4.959  12.799  11.593
32356W        W 2956  13.768  10.701   0.337
32357W        W 2957  17.916  18.066  13.980
32358W        W 2958  17.020   8.923  10.361
32359W        W 2959  23.051  21.120  11.635
32360W        W 2960  35.313  35.929  11.881
32361W        W 2961  12.260  25.268  13.331
32362W        W 2962   8.145  16.728  12.638
32363W        W 2963   0.105  41.613  11.326
32364W        W 2964  35.523  20.550  10.586
32365W        W 2965  32.868  14.961   2.206
32366W        W 2966  36.856  20.536   0.870
32367W        W 2967  38.148  44.684   3.385
32368W        W 2968  34.921  10.150   1.692
32369W        W 2969  12.241   4.757  14.284
32370W        W 2970  27.398  41.327   1.594
32371W        W 2971  40.930   6.121   3.371
32372W        W 2972  25.160  44.674   0.238
32373W        W 2973   1.547  25.880  12.449
32374W        W 2974  12.400  21.706  14.762
32375W        W 2975   6.959  10.870  13.340
32376W        W 2976  44.693  14.771  11.645
32377W        W 2977   5.439  38.938   1.298
32378W        W 2978  15.040  41.475  11.429
32379W        W 2979  32.103  32.406  12.452
32380W        W 2980   9.703  14.707   2.170
32381W        W 2981  33.100  27.478  14.373
32382W        W 2982  12.159  28.559  13.821
32383W        W 2983  19.296  33.619   0.837
32384W        W 2984  35.989  42.475   0.458
32385W        W 2985  40.345  41.876  13.068
32386W        W 2986   7.779   4.888   1.092
32387W        W 2987   5.219  29.426   4.855
32388W        W 2988   2.252  24.237  12.885
32389W        W 2989  23.571  41.097  12.389
32390W        W 2990  33.061  38.726  11.169
32391W        W 2991   6.763   1.708  14.392
32392W        W 2992  31.427  23.654   3.545
32393W        W 2993  35.182  29.949   4.260
32394W        W 2994   9.772  32.996   3.794
32395W        W 2995   2.527  19.436   0.914
32396W        W 2996   5.411  14.176  12.894
32397W        W 2997  14.256  38.347  11.080
32398W        W 2998  24.667  11.436   2.855
32399W        W 2999   0.986   1.273   4.597
32400W        W 3000  24.604  29.278   1.609
32401W        W 3001   1.731  23.220   3.183
32402W        W 3002  38.723  15.408   1.188
32403W        W 3003  37.730  18.161   1.686
32404W        W 3004  21.874  32.874   4.117
32405W        W 3005  21.079  30.241  13.383
32406W        W 3006  25.046   3.804  10.679
32407W        W 3007  15.755  40.632  14.762
32408W        W 3008   7.185   6.890  13.555
32409W        W 3009   9.397  30.180  12.638
32410W        W 3010  29.802  32.054  12.610
32411W        W 3011  10.897  38.388   1.114
32412W        W 3012  21.909  30.270  13.474
32413W        W 3013  11.277  37.924   2.224
32414W        W 3014   6.914  34.781   3.812
32415W        W 3015  11.960  16.745   4.105
32416W        W 3016  33.147  23.268  12.459
32417W        W 3017   7.077  33.946   1.470
32418W        W 3018  30.168  43.282  12.782
32419W        W 3019  42.948  12.383   4.741
32420W        W 3020  34.089  20.535  12.588
32421W        W 3021  25.920   8.290  13.581
32422W        W 3022  16.353  39.494  12.085
32423W        W 3023   6.708  12.358   4.546
32424W        W 3024  29.819  27.041  14.520
32425W        W 3025  19.693   8.597   0.760
32426W        W 3026  18.053  44.091  11.450
32427W        W 3027  17.104  16.715  12.640
32428W        W 3028  14.548  37.096   0.528
32429W        W 3029  20.424  11.071  12.091
32430W        W 3030   4.632  15.051   0.813
32431W        W 3031  33.181  19.307  12.580
32432W        W 3032  36.025   1.323  11.197
32433W        W 3033   7.217  32.848  12.455
32434W        W 3034  22.657  15.746  10.487
32435W        W 3035  14.166  43.874  12.897
32436W        W 3036  31.087  19.670   1.787
32437W        W 3037  32.899  38.865   2.498
32438W        W 3038  16.709  27.875   4.515
32439W        W 3039  17.826  25.464   3.617
32440W        W 3040  44.821  25.744  14.675
32441W        W 3041  13.061   2.308  14.366
32442W        W 3042  29.693   8.106   3.186
32443W        W 3043   7.422   3.264  14.746
32444W        W 3044  26.551  38.112  14.787
32445W        W 3045  23.330  23.041  11.628
32446W        W 3046  15.288  27.083   3.468
32447W        W 3047  22.702   5.960   4.262
32448W        W 3048  14.708  41.696  12.229
32449W        W 3049   6.413  28.397  13.596
32450W        W 3050   1.798  37.999  14.090
32451W        W 3051   8.670   9.273  14.497
32452W        W 3052  31.226  19.113  13.982
32453W        W 3053  33.847   0.324  10.767
32454W        W 3054  21.659  38.633   4.024
32455W        W 3055   9.102   9.817   1.782
32456W        W 3056  39.386  18.514  11.595
32457W        W 3057   5.037  15.276   3.498
32458W        W 3058  13.900   0.960  14.655
32459W        W 3059  13.576  12.191   0.332
32460W        W 3060   1.076  42.231  11.387
32461W        W 3061   4.731   0.738  14.009
32462W        W 3062  14.885  39.541   0.496
32463W        W 3063   0.896  11.655   4.640
32464W        W 3064  31.111   2.713   1.946
32465W        W 3065   2.424  29.227   1.351
32466W        W 3066  35.496  41.542  10.745
32467W        W 3067  23.653   3.474   3.871
32468W        W 3068  10.333  24.970  11.655
32469W        W 3069  14.280  12.667   2.151
32470W        W 3070  42.533  15.802  10.717
32471W        W 3071  26.031  42.744   2.259
32472W        W 3072  30.226  30.065  11.214
32473W        W 3073  17.353  23.078   0.357
32474W        W 3074  19.070  39.701   1.573
32475W        W 3075  11.596  41.730   1.426
32476W        W 3076  16.555  32.484   1.914
32477W        W 3077  10.389  16.735   3.555
32478W        W 3078  37.825  12.270   2.071
32479W        W 3079  31.161  42.912   2.824
32480W        W 3080  14.243  21.302   0.267
32481W        W 3081  21.728  24.952  11.563
32482W        W 3082  16.171  42.387   2.254
32483W        W 3083  15.046   3.822   2.761
32484W        W 3084  37.799  24.728  10.378
32485W        W 3085  43.505  12.917  13.525
32486W        W 3086  22.445  18.572  13.729
32487W        W 3087  32.105  34.880   1.323
32488W        W 3088  34.370  35.475   2.820
32489W        W 3089  16.790   0.545   2.318
32490W        W 3090  10.793   5.334   0.035
32491W        W 3091  37.767  33.054   4.039
32492W        W 3092  35.908  27.251   0.428
32493W        W 3093  26.991  18.648   4.680
32494W        W 3094  24.350   0.808   5.411
32495W        W 3095  23.858   9.304  10.327
32496W        W 3096  42.725   8.223  13.114
32497W        W 3097  44.922  36.392  13.302
32498W        W 3098  27.225  13.761   4.161
32499W        W 3099  43.454  19.186  13.399
32500W        W 3100   8.564  17.272  14.838
32501W        W 3101  10.212  43.379   4.622
32502W        W 3102  22.223  33.024   1.832
32503W        W 3103  39.032  25.274  13.299
32504W        W 3104  29.371  11.182   1.099
32505W        W 3105  33.327  26.509  14.762
32506W        W 3106   0.884  41.803  13.373
32507W        W 3107  25.102  39.796  12.953
32508W        W 3108  41.455  20.958   1.964
32509W        W 3109  35.296  38.648   2.810
32510W        W 3110  34.585  21.566  14.691
32511W        W 3111  43.527  16.671  13.839
32512W        W 3112   3.937  27.640  13.914
32513W        W 3113  10.831   1.848   4.578
32514W        W 3114   2.227  33.465   0.049
32515W        W 3115  22.200   3.192   2.767
32516W        W 3116   6.366  38.816   1.318
32517W        W 3117   9.733  13.698   3.838
32518W        W 3118  22.786  35.016  13.562
32519W        W 3119  44.797  28.885  11.771
32520W        W 3120  11.843  17.532  13.455
32521W        W 3121  17.532  31.497   3.862
32522W        W 3122  13.548  26.006  13.889
32523W        W 3123  34.961   8.968   4.534
32524W        W 3124  23.222  30.123   0.421
32525W        W 3125  39.394  10.360   2.688
32526W        W 3126  27.185  42.506   3.727
32527W        W 3127   8.286  19.980   0.295
32528W        W 3128  12.258  42.476  11.599
32529W        W 3129  35.824   6.204   2.288
32530W        W 3130  41.713  34.955   1.570
32531W        W 3131   1.321  15.826   4.082
32532W        W 3132  28.316  19.621   9.991
32533W        W 3133  17.285  37.883   5.002
32534W        W 3134   7.243  14.163  11.535
32535W        W 3135  32.392  12.693  10.742
32536W        W 3136  30.524  10.506  14.077
32537W        W 3137   6.441  43.957   2.239
32538W        W 3138  39.248  21.505   2.628
32539W        W 3139  31.428  44.515   3.413
32540W        W 3140  27.128  18.208   4.948
32541W        W 3141  44.877  13.430   1.098
32542W        W 3142  25.134  34.904  13.370
32543W        W 3143   5.285  10.133  14.031
32544W        W 3144  33.870  43.239  14.390
32545W        W 3145  12.287  31.671   3.884
32546W        W 3146  17.882   9.859  13.513
32547W        W 3147  42.371  35.555   1.338
32548W        W 3148  16.324  32.345   0.653
32549W        W 3149  25.812  39.466  14.222
32550W        W 3150   4.914  19.711  13.517
32551W        W 3151  17.598  37.606   4.244
32552W        W 3152  30.190  30.598  12.584
32553W        W 3153  36.916  26.926   0.476
32554W        W 3154   7.372  26.518  11.717
32555W        W 3155  18.702  35.073   0.939
32556W        W 3156  15.117  44.806  12.448
32557W        W 3157  15.653  26.635  11.924
32558W        W 3158  39.164  29.743   3.261
32559W        W 3159  22.556  42.158  11.884
32560W        W 3160   6.057   7.666   0.756
32561W        W 3161   4.768  12.908   1.431
32562W        W 3162  34.803  27.469   2.127
32563W        W 3163   2.328   9.301   1.679
32564W        W 3164  12.694   8.101   0.839
32565W        W 3165  37.591  25.724  12.503
32566W        W 3166  28.743  25.315   1.418
32567W        W 3167  30.018   9.650   3.010
32568W        W 3168  41.305   5.213   0.202
32569W        W 3169  41.883  14.138   0.859
32570W        W 3170  36.247  40.911   0.141
32571W        W 3171  33.312  30.661   3.573
32572W        W 3172   5.225  23.790  14.002
32573W        W 3173  30.536  38.263   4.302
32574W        W 3174  36.559  12.745  10.461
32575W        W 3175   9.332   1.442   2.175
32576W        W 3176  27.608  20.184   2.059
32577W        W 3177  24.447  32.293  12.817
32578W        W 3178   6.804  34.136  11.435
32579W        W 3179   3.633  10.695  13.156
32580W        W 3180  34.794   2.031   4.004
32581W        W 3181   6.450  44.467   1.299
32582W        W 3182   5.799  39.077  11.608
32583W        W 3183  34.612  20.767   0.176
32584W        W 3184  38.477   1.447   1.295
32585W        W 3185  43.250  22.574   3.603
32586W        W 3186  26.971  34.706  11.625
32587W        W 3187  20.236  28.583  14.695
32588W        W 3188   1.256  36.930  14.475
32589W        W 3189  27.197  10.916  11.457
32590W        W 3190  42.328  32.156  12.123
32591W        W 3191   7.127  19.019   2.398
32592W        W 3192  26.333  34.979  14.819
32593W        W 3193  36.830  14.375   3.235
32594W        W 3194  11.887  30.140   4.832
32595W        W 3195  20.097   3.156  10.352
32596W        W 3196   1.219  36.321   0.756
32597W        W 3197   2.009  13.586   4.552
32598W        W 3198   0.924  43.887  12.099
32599W        W 3199   8.220   0.772  14.847
32600W        W 3200  13.463   8.484   3.299
32601W        W 3201  25.536  43.592  13.791
32602W        W 3202  24.695  38.362  13.860
32603W        W 3203  14.842  34.163  11.178
32604W        W 3204  34.402   5.211  10.585
32605W        W 3205  28.051  28.418  12.140
32606W        W 3206  29.064  19.539  11.427
32607W        W 3207  29.591  24.479   1.680
32608W        W 3208  10.497  31.937   5.103
32609W        W 3209  34.149  27.131  14.777
32610W        W 3210   8.747  34.505   2.837
32611W        W 3211  14.344  44.430  13.482
32612W        W 3212  30.548  22.077   0.840
32613W        W 3213  42.863  26.920   4.729
32614W        W 3214  39.275  10.914  10.859
32615W        W 3215  10.862  44.042   0.279
32616W        W 3216  16.376  43.388  13.899
32617W        W 3217  25.942   4.912  12.130
32618W        W 3218  27.798  18.288   2.771
32619W        W 3219  23.099   3.246   1.053
32620W        W 3220   9.170   4.755  13.114
32621W        W 3221   6.149  29.063  11.086
32622W        W 3222  14.513  19.850   4.238
32623W        W 3223  21.975   4.724   3.242
32624W        W 3224  14.389  18.175  10.815
32625W        W 3225  35.386  12.095  10.573
32626W        W 3226  43.260  23.488   0.460
32627W        W 3227  41.339  16.838  13.897
32628W        W 3228  37.614  22.944   0.015
32629W        W 3229  33.359  37.321  10.730
32630W        W 3230  30.073  21.773   2.218
32631W        W 3231  40.500  16.990   3.261
32632W        W 3232  33.463  34.562   3.185
32633W        W 3233   1.503  38.562  11.890
32634W        W 3234  13.782  37.307   0.084
32635W        W 3235  23.062  15.951  12.974
32636W        W 3236  28.935  41.095   2.678
32637W        W 3237   5.638  39.581   1.823
32638W        W 3238  39.582   1.955   0.598
32639W        W 3239  10.721  32.958  14.305
32640W        W 3240  41.305   0.809   3.626
32641W        W 3241  22.439  20.302   3.701
32642W        W 3242  19.172  34.035  12.449
32643W        W 3243  11.151  24.057   2.689
32644W        W 3244  25.111  16.552   0.007
32645W        W 3245  10.720  23.953  11.239
32646W        W 3246  25.621  22.720   1.874
32647W        W 3247  25.489   2.938  13.743
32648W        W 3248  22.463  14.136  14.030
32649W        W 3249  11.397   9.928  12.557
32650W        W 3250   2.488   6.645  10.686
32651W        W 3251  13.741  18.950  13.595
32652W        W 3252  40.379  30.651  14.916
32653W        W 3253  28.277  40.820   0.695
32654W        W 3254  30.403  17.705  10.793
32655W        W 3255  33.329   0.330  14.609
32656W        W 3256  25.661   1.285   3.178
32657W        W 3257   1.669  17.708  13.442
32658W        W 3258  11.201  23.049   4.526
32659W        W 3259  28.109  29.913   1.855
32660W        W 3260  29.903   4.300  13.459
32661W        W 3261  21.413  37.434   2.382
32662W        W 3262   3.125  35.816   2.751
32663W        W 3263  44.075  36.296  11.073
32664W        W 3264  15.528  37.319   4.208
32665W        W 3265  36.115  35.335  13.498
32666W        W 3266  26.549  38.600  11.038
32667W        W 3267  17.679   5.635   1.440
32668W        W 3268   7.330  10.843   3.244
32669W        W 3269   2.355   2.739  14.698
32670W        W 3270  15.089  20.554  12.835
32671W        W 3271  17.192  16.078   1.357
32672W        W 3272  14.171  13.689  12.524
32673W        W 3273  27.586  34.341   0.831
32674W        W 3274  36.168   8.271   4.721
32675W        W 3275  30.077  29.072  13.479
32676W        W 3276  43.230  14.261  11.398
32677W        W 3277  14.630  16.868  10.786
32678W        W 3278  18.327  22.075  14.020
32679W        W 3279  29.024  28.861  14.198
32680W        W 3280  42.785  26.266   3.862
32681W        W 3281  33.804  43.799   0.167
32682W        W 3282  10.349  24.057  10.511
32683W        W 3283  39.866  36.951  12.479
32684W        W 3284  13.635  37.358   4.204
32685W        W 3285   4.778   4.112  11.739
32686W        W 3286   3.591  38.498  11.928
32687W        W 3287  28.282  11.280  10.848
32688W        W 3288   8.329   7.904   3.369
32689W        W 3289  41.863  39.472   2.242
32690W        W 3290   0.446  26.528  11.957
32691W        W 3291   6.777  29.917   4.529
32692W        W 3292  21.437  14.925   0.041
32693W        W 3293   3.782  22.289   3.742
32694W        W 3294   2.769  16.824  12.483
32695W        W 3295  22.445  41.009  11.179
32696W        W 3296  24.507  27.092   1.743
32697W        W 3297  25.193   7.868   0.404
32698W        W 3298  22.642  15.629  11.545
32699W        W 3299  44.306   9.659   1.304
32700W        W 3300  11.685  18.540  13.078
32701W        W 3301  13.186  41.300   2.802
32702W        W 3302  31.386  19.621   2.215
32703W        W 3303  25.364   0.036   1.572
32704W        W 3304  13.459  41.413  10.774
32705W        W 3305   7.725  35.944  14.233
32706W        W 3306  31.208  10.889  11.070
32707W        W 3307  39.522  14.065   4.081
32708W        W 3308  22.791  10.740  10.347
32709W        W 3309  16.401  16.903  10.331
32710W        W 3310  11.698   4.420   1.812
32711W        W 3311  27.290  40.029  14.488
32712W        W 3312  41.769  14.045  10.213
32713W        W 3313  15.294  35.781  13.945
32714W        W 3314  12.429   2.471   0.856
32715W        W 3315  10.756  31.405   0.230
32716W        W 3316  43.219  27.922  14.408
32717W        W 3317  18.288  13.643   1.475
32718W        W 3318  42.376  13.600  12.601
32719W        W 3319  29.731  35.134  12.687
32720W        W 3320  38.789  38.943   0.829
32721W        W 3321  39.097  16.276   3.159
32722W        W 3322  32.115  23.766  14.431
32723W        W 3323   5.169  29.817  14.376
32724W        W 3324  34.392  25.988  11.955
32725W        W 3325  26.871  21.182  14.484
32726W        W 3326  15.341   5.646  10.590
32727W        W 3327   8.916  27.463  10.964
32728W        W 3328  13.972   1.642  11.169
32729W        W 3329  43.630   8.172  10.915
32730W        W 3330   0.000  16.003  10.605
32731W        W 3331  41.875  15.816  13.375
32732W        W 3332  11.569  42.259   9.826
32733W        W 3333  40.590  14.173  13.990
32734W        W 3334  24.560   1.787   2.642
32735W        W 3335  27.721  11.872   0.127
32736W        W 3336  11.833   5.011  10.779
32737W        W 3337   8.788  38.032  14.845
32738W        W 3338   7.005  23.382  13.355
32739W        W 3339  28.354   9.057   3.058
32740W        W 3340  34.014  15.763  13.465
32741W        W 3341  23.982  24.963   0.066
32742W        W 3342   3.142  40.865   3.269
32743W        W 3343  20.387  23.633  11.710
32744W        W 3344   6.400  10.584   5.109
32745W        W 3345  40.833  20.740   0.357
32746W        W 3346  30.224  43.644   0.920
32747W        W 3347  34.539  32.517  13.818
32748W        W 3348   9.862  22.726   1.296
32749W        W 3349   8.272   7.358   0.492
32750W        W 3350   6.681  21.822   4.126
32751W        W 3351  39.281  42.731  14.979
32752W        W 3352  23.481  42.778   4.153
32753W        W 3353  37.597  18.581   3.162
32754W        W 3354   3.000  17.004   1.873
32755W        W 3355  15.200  22.289   3.266
32756W        W 3356   3.259  43.444   3.572
32757W        W 3357  33.132  41.329  10.301
32758W        W 3358   2.322  31.871   4.735
32759W        W 3359  14.263  27.131  14.445
32760W        W 3360  28.486  12.094  11.093
32761W        W 3361  35.846  28.196   3.294
32762W        W 3362  40.401   7.990  12.512
32763W        W 3363  13.284   5.937  14.802
32764W        W 3364  41.987   0.976   4.361
32765W        W 3365  20.115  36.572   0.020
32766W        W 3366  40.894  31.894   0.018
32767W        W 3367  31.929  39.505   1.169
32768W        W 3368   7.350  16.143   2.946
32769W        W 3369  22.041   2.843   4.641
32770W        W 3370  34.479  33.609  14.900
32771W        W 3371  10.818  24.703  11.525
32772W        W 3372  13.793  23.782  14.769
32773W        W 3373  26.416   9.791   2.520
32774W        W 3374  14.922  33.351  12.441
32775W        W 3375  24.219   1.011  14.779
32776W        W 3376  22.174  12.242  12.952
32777W        W 3377  15.333  38.610   0.949
32778W        W 3378  31.169  13.230   4.827
32779W        W 3379   3.762  16.203  12.414
32780W        W 3380  39.350  24.052   3.677
32781W        W 3381  38.409  15.725   2.904
32782W        W 3382   1.952   5.940  10.658
32783W        W 3383   0.990  42.986   4.885
32784W        W 3384  13.206  37.805  10.794
32785W        W 3385  25.049  41.497  13.405
32786W        W 3386  11.167  38.438   2.355
32787W        W 3387   4.478  42.312   1.790
32788W        W 3388   4.280  36.639  12.903
32789W        W 3389  33.392   8.234   2.111
32790W        W 3390  30.181  17.284   4.259
32791W        W 3391  32.392  10.910   1.276
32792W        W 3392  17.552  23.015  12.496
32793W        W 3393  15.218  36.257   3.084
32794W        W 3394  35.918  41.431  12.496
32795W        W 3395  17.144  27.943   2.336
32796W        W 3396  43.954  40.628   1.571
32797W        W 3397   5.422   7.290   3.963
32798W        W 3398  18.853  44.367  13.517
32799W        W 3399  11.532  42.356  10.463
32800W        W 3400  15.821   1.647  10.347
32801W        W 3401  13.226  18.545  13.551
32802W        W 3402   8.921  39.032  12.948
32803W        W 3403   4.643  20.224   3.250
32804W        W 3404   3.032  34.608  12.509
32805W        W 3405  20.221  26.357  14.058
32806W        W 3406   6.665  14.644  11.995
32807W        W 3407  32.222  23.267   2.182
32808W        W 3408  36.842  15.744   3.394
32809W        W 3409   7.864   4.462  13.344
32810W        W 3410  28.030  43.718  13.434
32811W        W 3411  26.286  37.282  12.086
32812W        W 3412  31.914  13.579  13.509
32813W        W 3413  36.348  40.344  10.731
32814W        W 3414  18.988  42.415   0.120
32815W        W 3415  14.203   3.243   3.033
32816W        W 3416  18.802   5.440  13.270
32817W        W 3417  22.666  29.479  12.385
32818W        W 3418  44.064  33.973   2.652
32819W        W 3419   7.747  30.009  14.591
32820W        W 3420   9.070   9.679   2.282
32821W        W 3421   9.267  28.566   3.522
32822W        W 3422  42.557  32.962  11.488
32823W        W 3423  28.214  31.480  14.547
32824W        W 3424  11.452  36.362   4.107
32825W        W 3425  15.080  43.074   2.727
32826W        W 3426  18.140  16.587  11.072
32827W        W 3427  24.158   6.928   3.667
32828W        W 3428  43.901  29.367   4.218
32829W        W 3429   5.315   4.018   3.745
32830W        W 3430  37.223  26.658   1.929
32831W        W 3431  41.501  36.188  13.799
32832W        W 3432  25.505   5.248   1.968
32833W        W 3433   8.019  44.764   3.844
32834W        W 3434  31.361  22.982   2.712
32835W        W 3435   6.222  10.838  14.182
32836W        W 3436  29.374  27.726  13.907
32837W        W 3437   7.283  10.902   3.748
32838W        W 3438  41.414  18.155   2.164
32839W        W 3439  19.683  32.500  14.410
32840W        W 3440  16.090  18.672  10.838
32841W        W 3441  43.675  23.197  12.070
32842W        W 3442  15.627  24.681  14.748
32843W        W 3443  32.011  23.684  11.938
32844W        W 3444  37.940  43.445   0.290
32845W        W 3445  36.498   4.675   4.269
32846W        W 3446  13.747   5.717   1.614
32847W        W 3447  11.859  36.412   4.911
32848W        W 3448   0.748  37.832   4.023
32849W        W 3449  42.852  31.075  10.620
32850W        W 3450  18.897  21.210  11.593
32851W        W 3451  40.122  16.227  14.395
32852W        W 3452   1.848  26.687  13.335
32853W        W 3453  42.403  23.107  14.047
32854W        W 3454   1.454   6.950  13.847
32855W        W 3455  23.828  34.764   1.875
32856W        W 3456  23.657  10.116  14.258
32857W        W 3457  30.619  16.678  13.980
32858W        W 3458  11.675  15.482  11.235
32859W        W 3459   6.806  21.900   2.371
32860W        W 3460   0.947  20.190   4.865
32861W        W 3461   7.671  35.362   0.957
32862W        W 3462  19.063  37.085   3.663
32863W        W 3463  40.888  32.079  13.047
32864W        W 3464  12.298  10.366   3.517
32865W        W 3465  20.163  13.234  14.488
32866W        W 3466   3.829  25.660  12.119
32867W        W 3467  21.908  31.007  12.897
32868W        W 3468  41.386  21.142   3.298
32869W        W 3469  37.881  30.869   4.592
32870W        W 3470  38.906  34.631   5.084
32871W        W 3471  37.115  24.497  13.027
32872W        W 3472  31.981   4.943   9.924
32873W        W 3473  16.145  19.599  14.476
32874W        W 3474  18.097  26.438  13.431
32875W        W 3475  15.352  18.682  10.195
32876W        W 3476  30.595  28.205   1.787
32877W        W 3477   1.409  41.016   0.761
32878W        W 3478  43.784  42.349  14.860
32879W        W 3479  38.804  41.888  11.129
32880W        W 3480  13.855  30.514   3.897
32881W        W 3481  15.190  36.943   1.701
32882W        W 3482   8.995  14.379   0.387
32883W        W 3483  32.134   8.797  12.321
32884W        W 3484  13.979  25.247  11.189
32885W        W 3485  44.246  10.782   0.407
32886W        W 3486   9.973  43.815   4.612
32887W        W 3487  26.671  21.845   4.964
32888W        W 3488  22.159  27.910   0.221
32889W        W 3489   9.509  19.153  12.297
32890W        W 3490  35.368  18.388   4.160
32891W        W 3491  44.577  21.801  10.500
32892W        W 3492  28.031  19.876   1.615
32893W        W 3493  36.967  37.465   2.722
32894W        W 3494  11.408  18.278   1.927
32895W        W 3495  27.694  22.044   2.409
32896W        W 3496  11.743  25.424   2.777
32897W        W 3497  26.111  16.370  12.505
32898W        W 3498  33.396  32.114  13.729
32899W        W 3499   4.061  25.065  11.480
32900W        W 3500  10.099   4.026   0.609
32901W        W 3501   0.732   7.412   1.109
32902W        W 3502  13.798  30.721  12.600
32903W        W 3503  33.441  12.585  12.051
32904W        W 3504  13.586  35.069   1.311
32905W        W 3505   1.200  22.139   0.945
32906W        W 3506  22.991  31.575   2.385
32907W        W 3507   7.256   7.369   4.255
32908W        W 3508  20.191   4.030  12.064
32909W        W 3509  19.074  36.512  14.022
32910W        W 3510  14.323  10.391  11.218
32911W        W 3511  15.188  23.268  10.674
32912W        W 3512  10.153   1.502  14.811
32913W        W 3513  32.229  14.338   4.277
32914W        W 3514   3.304   3.440  11.936
32915W        W 3515  10.680  18.179  12.874
32916W        W 3516  34.104  36.064  13.515
32917W        W 3517  15.600   7.464   2.865
32918W        W 3518  40.314  12.080   2.853
32919W        W 3519  10.537  14.136   5.172
32920W        W 3520  33.948  39.840   4.977
32921W        W 3521  14.860   8.877   1.154
32922W        W 3522   7.088  19.672  12.093
32923W        W 3523  16.704  15.241   5.364
32924W        W 3524   2.898  24.765  12.187
32925W        W 3525  16.012  24.597   0.588
32926W        W 3526  13.634   2.067  13.944
32927W        W 3527  14.422  18.621   0.322
32928W        W 3528  28.678   9.196  11.141
32929W        W 3529  43.501  43.963   2.766
32930W        W 3530  40.416  33.953   2.844
32931W        W 3531   7.380  11.435  14.676
32932W        W 3532  29.451  10.923   2.750
32933W        W 3533  31.056  36.716   1.356
32934W        W 3534  44.843  39.122   1.741
32935W        W 3535  25.176  33.819  11.949
32936W        W 3536  44.766  15.325  13.835
32937W        W 3537  39.759   2.074  13.572
32938W        W 3538   0.648  33.534   3.577
32939W        W 3539   5.979  14.807   2.336
32940W        W 3540  31.505  44.014  14.908
32941W        W 3541  38.567  14.775   2.905
32942W        W 3542  22.111  18.832   3.536
32943W        W 3543   4.035  14.561   0.482
32944W        W 3544   3.877   5.313   3.510
32945W        W 3545  23.181   1.817  10.329
32946W        W 3546  37.357  23.090  12.970
32947W        W 3547  26.009  35.139  12.326
32948W        W 3548  16.357  28.185   3.293
32949W        W 3549  34.035  20.169   4.389
32950W        W 3550   3.579  12.340  10.996
32951W        W 3551   4.858  39.259   1.142
32952W        W 3552  15.601   9.474  12.456
32953W        W 3553  36.060  41.383   3.677
32954W        W 3554   1.684  10.372   2.889
32955W        W 3555   4.438   2.522   5.161
32956W        W 3556   7.819  12.365   0.371
32957W        W 3557  18.703  10.805   2.776
32958W        W 3558  39.437  44.413   2.290
32959W        W 3559   6.351   7.775   2.096
32960W        W 3560  27.689  17.448   0.382
32961W        W 3561  20.052  41.571  11.579
32962W        W 3562   6.126  41.790   2.705
32963W        W 3563   0.684  33.227   0.971
32964W        W 3564  25.213  10.494  13.872
32965W        W 3565  42.576  11.213  11.663
32966W        W 3566  36.597  20.128   2.779
32967W        W 3567  21.523  17.803   4.099
32968W        W 3568  31.069  40.232  14.559
32969W        W 3569  23.763   4.703   3.427
32970W        W 3570   0.346  43.745   0.120
32971W        W 3571  16.578   6.232  10.711
32972W        W 3572  10.441  18.785  13.516
32973W        W 3573  38.336   4.581  12.973
32974W        W 3574  24.544  42.518   1.602
32975W        W 3575   3.672  13.677  13.085
32976W        W 3576  14.041   8.539  13.943
32977W        W 3577   8.227  30.458   1.342
32978W        W 3578  23.628  12.811   1.703
32979W        W 3579   2.753  33.628  12.719
32980W        W 3580  26.801   8.281  12.542
32981W        W 3581  37.740  27.239  10.776
32982W        W 3582  40.448  32.516   0.469
32983W        W 3583  17.757  43.384   1.789
32984W        W 3584  19.636  32.477   4.672
32985W        W 3585  21.209   3.340   3.634
32986W        W 3586  13.116  21.761  10.759
32987W        W 3587  16.224  21.259  10.463
32988W        W 3588   3.371  43.790  11.985
32989W        W 3589   1.245  40.404   2.801
32990W        W 3590  11.750  25.243   9.857
32991W        W 3591  35.061  39.575   1.256
32992W        W 3592  39.817  37.765   3.175
32993W        W 3593  13.603   9.107   2.394
32994W        W 3594  15.200   5.916   4.633
32995W        W 3595   7.297  32.457  14.869
32996W        W 3596  18.174  35.558  12.393
32997W        W 3597   6.322  37.185   9.933
32998W        W 3598  40.329   2.441   0.743
32999W        W 3599   0.312  42.676   2.839
33000W        W 3600  24.458  35.033  10.695
33001W        W 3601   6.732  35.174  14.875
33002W        W 3602  18.591  33.746  10.985
33003W        W 3603   9.946  13.151   2.167
33004W        W 3604   8.331   2.795  12.402
33005W        W 3605  19.468   5.890   3.167
33006W        W 3606  33.556  35.454   0.338
33007W        W 3607  38.820  18.131  12.160
33008W        W 3608   1.934   1.260   3.725
33009W        W 3609   4.715   7.153  10.738
33010W        W 3610  20.208  15.769  13.891
33011W        W 3611  43.266  39.431   0.331
33012W        W 3612  36.053  23.909  12.432
33013W        W 3613   1.807  10.924   2.263
33014W        W 3614  23.772   9.311  12.455
33015W        W 3615  15.618  22.587   1.965
33016W        W 3616   9.168  20.591   2.216
33017W        W 3617   7.632  14.990  11.222
33018W        W 3618  14.167  35.047   0.415
33019W        W 3619  23.614  27.233   1.400
33020W        W 3620  12.002  10.112  11.972
33021W        W 3621   0.072  42.400   4.102
33022W        W 3622   6.294   6.971  13.544
33023W        W 3623  36.623  31.212  13.037
33024W        W 3624   8.705  40.065  10.661
33025W        W 3625  10.427  14.537  12.562
33026W        W 3626   0.245  10.342   2.685
33027W        W 3627  26.710   1.925   3.903
33028W        W 3628   3.875  23.736   2.207
33029W        W 3629  12.244   1.375  14.367
33030W        W 3630   1.709   7.156   3.312
33031W        W 3631  22.753  11.883  10.349
33032W        W 3632   5.680  41.953   0.496
33033W        W 3633  32.317  41.556  10.698
33034W        W 3634  27.882   8.626  14.773
33035W        W 3635  43.472   5.000  12.453
33036W        W 3636   4.518  37.399  11.597
33037W        W 3637  11.376  34.552   2.456
33038W        W 3638  18.496  36.538   4.128
33039W        W 3639  42.018  25.613   1.406
33040W        W 3640  23.172  26.789  13.505
33041W        W 3641  22.937   5.762  12.436
33042W        W 3642  34.478  27.435  14.496
33043W        W 3643  39.070  33.625   0.850
33044W        W 3644  37.859  10.761  10.859
33045W        W 3645  39.325  14.346  14.651
33046W        W 3646   8.633   6.331  13.577
33047W        W 3647   5.678  31.496  14.985
33048W        W 3648  27.291  33.917  13.421
33049W        W 3649  21.046  25.127   3.195
33050W        W 3650  20.512  16.769  13.797
33051W        W 3651  29.076  41.418   3.069
33052W        W 3652  32.472  16.622   2.051
33053W        W 3653   3.808  22.642  14.814
33054W        W 3654  37.830  14.306   0.765
33055W        W 3655  34.444  39.710   3.495
33056W        W 3656  12.382  35.395  11.970
33057W        W 3657   4.492  37.991  12.895
33058W        W 3658  44.904  14.904  11.204
33059W        W 3659  19.138  39.541   3.835
33060W        W 3660  42.709  14.484   3.311
33061W        W 3661  29.877  11.847  13.846
33062W        W 3662   1.952  35.587  11.397
33063W        W 3663  26.042  18.787   2.588
33064W        W 3664   8.014   9.836   3.220
33065W        W 3665  34.064  14.214  12.161
33066W        W 3666  10.181  30.669   5.043
33067W        W 3667  15.438  42.372   0.036
33068W        W 3668  39.727  23.614  13.557
33069W        W 3669  35.327  40.042   4.705
33070W        W 3670  32.422  23.069  11.427
33071W        W 3671  28.133  41.052   1.150
33072W        W 3672  11.643  37.886   3.961
33073W        W 3673   2.693  22.192  14.749
33074W        W 3674  34.565  43.883   4.201
33075W        W 3675  33.818  35.976   0.893
33076W        W 3676  29.929   9.072   1.283
33077W        W 3677   3.381  34.968   1.012
33078W        W 3678  23.499  44.413  14.459
33079W        W 3679  19.913  13.084  12.820
33080W        W 3680  19.306  42.475   4.104
33081W        W 3681  13.874  33.479  14.513
33082W        W 3682   5.331  31.678   0.984
33083W        W 3683  17.216   0.414  13.077
33084W        W 3684  41.394  14.408   0.894
33085W        W 3685  13.029  23.367   0.352
33086W        W 3686  35.084   0.563  11.695
33087W        W 3687  37.130  39.359  13.380
33088W        W 3688  23.186   3.697  10.698
33089W        W 3689  35.514  25.554  14.195
33090W        W 3690   7.288  39.872   4.461
33091W        W 3691   0.195  19.309  11.387
33092W        W 3692  18.744  32.321  12.083
33093W        W 3693  34.702   3.332  14.484
33094W        W 3694  10.652  43.452  12.879
33095W        W 3695  10.607  25.558   1.514
33096W        W 3696   9.371  21.007  10.780
33097W        W 3697  34.089  18.476  13.606
33098W        W 3698   3.933  14.663   1.383
33099W        W 3699  40.619  10.374   1.048
33100W        W 3700  36.801  32.231  14.079
33101W        W 3701  33.107  35.355   3.208
33102W        W 3702  21.282   4.924  11.483
33103W        W 3703   5.896  44.460  12.272
33104W        W 3704   6.198  29.118  11.616
33105W        W 3705  11.630  21.571  13.524
33106W        W 3706   9.280  12.384   0.750
33107W        W 3707  44.304   8.847   1.995
33108W        W 3708  36.918  36.782   3.302
33109W        W 3709   4.720  10.167   1.748
33110W        W 3710  44.706   1.083   5.050
33111W        W 3711  35.385  36.154   3.580
33112W        W 3712  40.074  27.345  11.070
33113W        W 3713  42.588  15.267  14.861
33114W        W 3714   0.759  43.259  13.514
33115W        W 3715  33.323  32.441   2.771
33116W        W 3716  28.758  19.505   4.922
33117W        W 3717   7.026   2.350   1.269
33118W        W 3718  38.957   5.961   1.905
33119W        W 3719   0.285  32.103   3.175
33120W        W 3720  15.545  44.042  11.226
33121W        W 3721  22.218   1.052  11.998
33122W        W 3722   1.769   4.493  13.114
33123W        W 3723  14.532  12.223   2.310
33124W        W 3724  25.027  42.686  11.074
33125W        W 3725   3.681  27.983   1.991
33126W        W 3726   6.276  15.169  14.939
33127W        W 3727  36.771  27.448  11.897
33128W        W 3728  13.257  13.636   4.753
33129W        W 3729  14.400  40.605  13.912
33130W        W 3730  18.632  22.401  12.912
33131W        W 3731  28.581  22.558  14.324
33132W        W 3732   3.089  36.032   0.746
33133W        W 3733  36.933  39.878  13.419
33134W        W 3734  41.299  11.507   2.407
33135W        W 3735   5.235  13.772  10.650
33136W        W 3736  17.845  38.966   4.162
33137W        W 3737  30.533  20.987  12.866
33138W        W 3738  35.122   9.659   2.865
33139W        W 3739  36.378   4.964  13.871
33140W        W 3740  35.642  29.051  13.554
33141W        W 3741  24.710  20.593  10.405
33142W        W 3742   8.075   3.818  11.061
33143W        W 3743  13.781  37.103  10.748
33144W        W 3744  15.615  16.692  10.567
33145W        W 3745  12.873  36.339   5.080
33146W        W 3746  19.351  35.058  11.969
33147W        W 3747  16.864  30.647   2.887
33148W        W 3748  39.975  37.215  13.828
33149W        W 3749   6.874  33.023  10.747
33150W        W 3750  11.291  29.960  13.847
33151W        W 3751   6.141   8.544   3.782
33152W        W 3752   8.557  11.353   3.644
33153W        W 3753  31.952  23.997   4.109
33154W        W 3754   5.417  33.454   0.038
33155W        W 3755  11.318  44.467  14.417
33156W        W 3756   2.911  38.842  11.100
33157W        W 3757   0.924   4.341   0.782
33158W        W 3758   8.859  25.683  10.712
33159W        W 3759   9.184  40.228   2.838
33160W        W 3760  15.088  20.061   3.337
33161W        W 3761  26.238  11.255   0.279
33162W        W 3762  20.814  14.151  13.421
33163W        W 3763  32.690  40.460   0.780
33164W        W 3764  17.737   0.366  10.861
33165W        W 3765  19.528   6.756  10.736
33166W        W 3766  38.231  11.507  13.989
33167W        W 3767  22.696   2.926   3.498
33168W        W 3768  18.180  23.238  11.626
33169W        W 3769  43.920  40.144  13.840
33170W        W 3770  33.727   5.671  10.877
33171W        W 3771   8.968  34.780   4.095
33172W        W 3772  30.072  20.996   0.290
33173W        W 3773  35.801  16.293  14.555
33174W        W 3774   1.400  32.466   0.853
33175W        W 3775  34.660  37.916  14.625
33176W        W 3776  35.057   1.839   1.817
33177W        W 3777  24.200  29.884   3.135
33178W        W 3778   2.753  11.134   4.464
33179W        W 3779  38.857  16.676  10.941
33180W        W 3780  17.101   4.396  14.613
33181W        W 3781  27.297  34.080  14.470
33182W        W 3782   5.372  17.187   3.148
33183W        W 3783  13.683  39.622  11.424
33184W        W 3784  16.848  22.893   0.436
33185W        W 3785  43.173  19.850   0.721
33186W        W 3786  10.753  33.984   4.129
33187W        W 3787  26.164   9.815  14.506
33188W        W 3788  19.337  42.691  14.728
33189W        W 3789  38.985  33.041  13.459
33190W        W 3790   4.640  40.938  12.606
33191W        W 3791  21.839   5.228  14.831
33192W        W 3792   2.236  33.615   0.548
33193W        W 3793  18.989  37.755   2.871
33194W        W 3794  37.347  25.641  14.319
33195W        W 3795  24.777  13.140   2.620
33196W        W 3796  15.181   5.163   4.125
33197W        W 3797  29.917  44.464   3.571
33198W        W 3798  44.755  12.241  10.747
33199W        W 3799  16.053   4.362  13.573
33200W        W 3800  16.342  19.173   3.268
33201W        W 3801  29.444   0.345   3.877
33202W        W 3802  12.626  14.752   3.067
33203W        W 3803  42.931  30.389  13.401
33204W        W 3804  27.465  29.965   4.739
33205W        W 3805  11.609  15.560   3.231
33206W        W 3806  10.495  43.359   1.397
33207W        W 3807  31.745   3.952   2.320
33208W        W 3808  44.440  20.583   3.662
33209W        W 3809  15.232   4.819   1.239
33210W        W 3810  26.552  38.525  11.560
33211W        W 3811   0.310  16.290  12.819
33212W        W 3812  36.200  44.200  11.036
33213W        W 3813  39.003  18.990   0.768
33214W        W 3814  12.423  42.546   2.349
33215W        W 3815  16.332   2.788   1.689
33216W        W 3816   0.284  18.649  12.044
33217W        W 3817  13.584  16.585  11.643
33218W        W 3818  41.016  11.867  11.013
33219W        W 3819   9.330   0.860   4.519
33220W        W 3820  29.671   2.402   2.388
33221W        W 3821  20.829  16.153   0.350
33222W        W 3822  30.438  38.101   0.433
33223W        W 3823  23.726  42.402  14.323
33224W        W 3824   3.925  35.265   2.799
33225W        W 3825  35.372   6.299  10.611
33226W        W 3826  43.579  39.450   3.050
33227W        W 3827  31.078  38.037  10.656
33228W        W 3828  22.791  34.510   3.907
33229W        W 3829  34.896  36.590   4.128
33230W        W 3830  25.636  26.996   3.196
33231W        W 3831  29.400  13.036  10.620
33232W        W 3832  44.389  23.315  13.991
33233W        W 3833  29.247  36.053   3.630
33234W        W 3834   5.542  11.859   1.666
33235W        W 3835  26.236  11.596   1.754
33236W        W 3836  17.303  17.629  11.703
33237W        W 3837  44.892   6.914  11.638
33238W        W 3838  38.139  28.137   9.988
33239W        W 3839   9.786  31.575   1.794
33240W        W 3840   9.999  38.035  14.823
33241W        W 3841  10.235  44.389   3.535
33242W        W 3842  26.425  43.131  14.815
33243W        W 3843  32.980  21.941  10.444
33244W        W 3844   1.673  34.775  14.750
33245W        W 3845   3.188  31.461   0.767
33246W        W 3846  25.695  21.938   2.240
33247W        W 3847  39.832  44.007   1.181
33248W        W 3848  43.867  20.036   4.096
33249W        W 3849  41.037  30.166   3.392
33250W        W 3850  28.937  18.301  13.135
33251W        W 3851  26.150  40.307  11.209
33252W        W 3852  35.196  28.162  14.279
33253W        W 3853  43.142  11.664   1.319
33254W        W 3854  39.496  12.362   3.628
33255W        W 3855  41.356  11.146  14.226
33256W        W 3856  12.775  12.639  13.039
33257W        W 3857  36.162  33.948  13.287
33258W        W 3858  13.448  21.174   3.127
33259W        W 3859  10.239  43.908  14.694
33260W        W 3860  10.225  33.795   4.173
33261W        W 3861  20.067  31.624  14.187
33262W        W 3862   4.732  22.049  10.659
33263W        W 3863  41.193   8.700  12.344
33264W        W 3864   3.243  24.180  12.001
33265W        W 3865  33.615  33.594  13.072
33266W        W 3866  22.254  43.798   2.293
33267W        W 3867   8.387   4.790  14.776
33268W        W 3868  11.804  22.600   0.888
33269W        W 3869  40.442   7.320  13.352
33270W        W 3870  17.633  15.304  11.586
33271W        W 3871   2.140  36.617  12.023
33272W        W 3872  25.204  30.836  11.185
33273W        W 3873  29.396   0.202  13.524
33274W        W 3874  40.047  26.441  14.478
33275W        W 3875  34.915  38.973  13.696
33276W        W 3876  26.931  10.888   4.872
33277W        W 3877  17.159  19.778  10.618
33278W        W 3878   9.152   0.854  14.360
33279W        W 3879  21.961   5.736   3.180
33280W        W 3880  37.884  25.721   3.756
33281W        W 3881  10.220  22.277   4.225
33282W        W 3882  21.198  27.623   0.473
33283W        W 3883  13.359  40.611  14.552
33284W        W 3884  42.767   6.447   0.491
33285W        W 3885  13.609   8.255   4.329
33286W        W 3886   1.810  40.460   3.898
33287W        W 3887  31.121  40.306   0.074
33288W        W 3888  13.089   3.696   0.438
33289W        W 3889  11.273   9.425   4.518
33290W        W 3890  37.116  43.896  13.945
33291W        W 3891   2.113   9.156  13.616
33292W        W 3892  38.879  21.048   2.655
33293W        W 3893  40.014   1.212   3.596
33294W        W 3894  38.255  10.730   3.842
33295W        W 3895  29.405   9.175  11.618
33296W        W 3896  14.634  27.891   1.165
33297W        W 3897   8.895  21.108   0.929
33298W        W 3898  42.086  29.325   9.995
33299W        W 3899  26.701  36.054  12.932
33300W        W 3900   1.380  23.790   3.713
33301W        W 3901  12.135  26.472  12.045
33302W        W 3902  24.198  40.811  13.995
33303W        W 3903   6.389  33.828  12.700
33304W        W 3904   2.508  44.545   3.882
33305W        W 3905  35.214   5.664   1.280
33306W        W 3906  37.953  11.168   0.231
33307W        W 3907  11.813  24.554  14.785
33308W        W 3908   9.685  24.069  12.250
33309W        W 3909  36.621  26.123   3.633
33310W        W 3910  34.518  14.409  14.851
33311W        W 3911  14.507  18.907   0.761
33312W        W 3912  33.935  42.336   0.817
33313W        W 3913  11.844  34.320  13.038
33314W        W 3914   7.429   6.454  13.736
33315W        W 3915   4.701  18.218   4.972
33316W        W 3916  21.507   7.526  13.348
33317W        W 3917   7.177  15.577  14.697
33318W        W 3918  36.609  27.068   2.175
33319W        W 3919  42.520  15.273   0.806
33320W        W 3920  30.537  42.469  11.218
33321W        W 3921  18.427  35.855  11.577
33322W        W 3922  24.644  16.325  13.422
33323W        W 3923  33.396   0.587  11.609
33324W        W 3924  26.238  23.243   1.366
33325W        W 3925  16.953  34.365  14.254
33326W        W 3926  15.495   5.156  10.605
33327W        W 3927  10.202  36.942   2.642
33328W        W 3928  19.606   5.082   1.167
33329W        W 3929   6.226  41.891  11.816
33330W        W 3930  36.447  41.596   4.046
33331W        W 3931   6.379  11.335   4.120
33332W        W 3932  27.408   8.132   3.171
33333W        W 3933  33.396   7.358   2.856
33334W        W 3934   7.345  18.212  14.886
33335W        W 3935  15.528  42.903  12.471
33336W        W 3936  24.627  24.565  11.128
33337W        W 3937   9.139  14.805  11.878
33338W        W 3938   2.710  16.222   2.221
33339W        W 3939  41.468  14.540   2.164
33340W        W 3940   3.292  35.240  12.038
33341W        W 3941  33.510  10.640  12.523
33342W        W 3942  10.092  24.220   2.666
33343W        W 3943  18.994  21.874   2.699
33344W        W 3944   3.431  23.031  13.614
33345W        W 3945  26.096  44.313   1.247
33346W        W 3946  41.871  16.368  14.679
33347W        W 3947  28.791  41.564  12.969
33348W        W 3948   5.122  16.642  10.010
33349W        W 3949  14.573  19.779  11.706
33350W        W 3950   7.668  35.514  14.526
33351W        W 3951   3.822  10.790  12.451
33352W        W 3952  43.424   9.867  11.652
33353W        W 3953  41.410  29.433  13.053
33354W        W 3954  31.666   0.617   0.006
33355W        W 3955  28.209  24.491  11.662
33356W        W 3956  32.410   1.310   0.945
33357W        W 3957  33.463  42.508  10.464
33358W        W 3958  23.493  21.855  14.525
33359W        W 3959  29.484  18.687  12.096
33360W        W 3960   7.413  32.554  13.361
33361W        W 3961   2.756  31.641   4.556
33362W        W 3962   1.737   0.733   1.876
33363W        W 3963  16.341  41.618  11.989
33364W        W 3964  30.565  26.688   1.919
33365W        W 3965  10.009  43.502  11.611
33366W        W 3966   0.315  19.841  13.445
33367W        W 3967   6.287  25.978  14.022
33368W        W 3968   6.314   2.313  13.794
33369W        W 3969  35.650   1.361  12.083
33370W        W 3970  27.044  25.681  11.611
33371W        W 3971  24.210  32.211   3.376
33372W        W 3972  42.372  30.422   4.591
33373W        W 3973  12.979  14.135  12.072
33374W        W 3974  33.473  18.721   0.311
33375W        W 3975  39.937   8.368   1.947
33376W        W 3976   9.096  20.136  14.338
33377W        W 3977  37.332  33.341  14.351
33378W        W 3978   3.001  44.493   1.485
33379W        W 3979  42.875  22.206  14.875
33380W        W 3980  30.842  44.187  14.342
33381W        W 3981  19.456  24.490  10.659
33382W        W 3982   4.849   3.370   4.136
33383W        W 3983  17.088   1.445   2.275
33384W        W 3984  38.577  33.320  12.960
33385W        W 3985  26.791   0.704  12.483
33386W        W 3986  28.597  21.178  14.363
33387W        W 3987  40.306  27.647   3.185
33388W        W 3988  23.801  11.260  13.373
33389W        W 3989   9.347  25.036  13.109
33390W        W 3990  30.129   9.108   4.498
33391W        W 3991  43.890   4.627  13.012
33392W        W 3992  26.060   2.398   0.586
33393W        W 3993   1.339   2.520   3.286
33394W        W 3994  23.638  28.195  12.127
33395W        W 3995  35.474  37.398  14.728
33396W        W 3996  19.816  11.700   2.831
33397W        W 3997  31.529   6.671   2.939
33398W        W 3998  17.178   9.182   4.505
33399W        W 3999   0.442  19.415   1.316
33400W        W 4000   7.580   7.700   3.390
33401W        W 4001  36.043  41.251   4.793
33402W        W 4002  31.811  15.152  11.999
33403W        W 4003  41.763  10.138   4.785
33404W        W 4004  20.576   0.240   1.333
33405W        W 4005  18.228  35.673   4.489
33406W        W 4006  40.476  18.642   3.905
33407W        W 4007  15.338   8.770  12.476
33408W        W 4008  28.128  35.888  11.273
33409W        W 4009  12.428  16.686   2.125
33410W        W 4010   1.345  27.458  11.931
33411W        W 4011  31.524   5.182  13.999
33412W        W 4012   9.297   9.195  13.027
33413W        W 4013   0.680   6.225  13.726
33414W        W 4014  21.885   3.351   3.165
33415W        W 4015   0.944   4.086  11.267
33416W        W 4016   9.837   5.353   0.963
33417W        W 4017  20.774  19.325   1.331
33418W        W 4018  34.780  38.801   4.957
33419W        W 4019  42.481  42.508   1.357
33420W        W 4020  10.840  35.994  10.718
33421W        W 4021  24.096   5.480  10.297
33422W        W 4022  26.304   1.759  13.078
33423W        W 4023   0.867  11.313  13.698
33424W        W 4024  17.201   9.944  11.595
33425W        W 4025  20.062  21.809  14.368
33426W        W 4026  14.721  23.049  10.834
33427W        W 4027  18.824  12.381  13.433
33428W        W 4028  39.389   1.512   0.383
33429W        W 4029  31.176  31.005  11.126
33430W        W 4030   2.294  28.915  12.437
33431W        W 4031  38.402  42.423  13.277
33432W        W 4032   9.052  18.820   3.225
33433W        W 4033  31.946  22.226  14.446
33434W        W 4034  23.858  25.322  11.019
33435W        W 4035  15.668  23.568   1.034
33436W        W 4036  17.520  20.226  12.975
33437W        W 4037  10.010  41.296   2.358
33438W        W 4038  26.483  32.673  11.136
33439W        W 4039  14.036   1.962  10.778
33440W        W 4040  44.491  15.332  14.902
33441W        W 4041   8.953  17.733   3.180
33442W        W 4042  35.844  37.572  11.664
33443W        W 4043  17.339   9.134   0.345
33444W        W 4044  18.563  21.351  12.466
33445W        W 4045  35.340   3.146  12.066
33446W        W 4046  28.979  40.459  13.744
33447W        W 4047  37.081   7.296  14.312
33448W        W 4048  25.654  16.207   4.849
33449W        W 4049  31.835   2.771  13.230
33450W        W 4050   4.472  21.132  13.864
33451W        W 4051  10.245  41.099   4.642
33452W        W 4052  35.409  15.673   2.753
33453W        W 4053   8.835   1.516  12.447
33454W        W 4054   7.385  14.867   1.348
33455W        W 4055  41.051  28.179   2.922
33456W        W 4056  15.140  10.874   4.514
33457W        W 4057  38.886  12.234   3.139
33458W        W 4058  20.568  30.546  12.163
33459W        W 4059  10.587   8.262  14.978
33460W        W 4060  33.994  37.306   1.232
33461W        W 4061  43.386  39.575  14.517
33462W        W 4062  28.450  23.034  12.084
33463W        W 4063  17.504  24.008  14.880
33464W        W 4064  39.315  30.736  13.488
33465W        W 4065  33.629  15.350  10.689
33466W        W 4066  15.829   5.462  13.939
33467W        W 4067   2.464  17.317   4.130
33468W        W 4068  20.654  21.298   0.916
33469W        W 4069   3.761  10.326  14.329
33470W        W 4070  30.497  36.888  14.796
33471W        W 4071   5.334  43.946   0.803
33472W        W 4072   3.158  25.034  14.006
33473W        W 4073  30.851  19.633  10.917
33474W        W 4074  17.321  40.845  14.081
33475W        W 4075  33.999  20.791   0.062
33476W        W 4076  43.849  41.621  13.912
33477W        W 4077   5.437  23.263   3.169
33478W        W 4078  14.313  26.752   3.186
33479W        W 4079  14.653   3.134   3.271
33480W        W 4080   5.285  41.696  12.979
33481W        W 4081  38.478  28.472   0.877
33482W        W 4082  44.525  16.840  12.986
33483W        W 4083  18.994  29.101  12.141
33484W        W 4084   8.747  42.391   2.302
33485W        W 4085  15.082  35.983  14.403
33486W        W 4086   3.615  35.687   2.656
33487W        W 4087  40.496   3.349  14.265
33488W        W 4088  44.937   9.815  10.378
33489W        W 4089  39.953   9.714   0.463
33490W        W 4090  37.030   0.408   2.249
33491W        W 4091  33.124  21.222  13.728
33492W        W 4092   2.519   2.345   3.695
33493W        W 4093  27.061  12.049   0.774
33494W        W 4094  16.769  34.825   3.127
33495W        W 4095  40.793   7.721   1.265
33496W        W 4096  12.106  25.909   0.622
33497W        W 4097  20.244  11.154  13.013
33498W        W 4098   7.215  27.539   0.233
33499W        W 4099  44.346  33.566   3.637
33500W        W 4100  16.525   6.753   2.172
33501W        W 4101  26.128  29.593   3.820
33502W        W 4102  37.963  38.533  14.813
33503W        W 4103  18.574  14.430  10.517
33504W        W 4104  26.027  10.913   4.609
33505W        W 4105  32.993  13.364   1.699
33506W        W 4106  32.396  13.190  12.041
33507W        W 4107  24.073  23.884  11.913
33508W        W 4108  21.553  21.245  12.032
33509W        W 4109   2.344  43.259  10.834
33510W        W 4110   5.523  36.628  14.327
33511W        W 4111  10.602  30.522  12.878
33512W        W 4112   0.114   5.328   2.800
33513W        W 4113  24.438  41.018  14.999
33514W        W 4114  25.242  33.718   0.747
33515W        W 4115  42.335  44.504  13.877
33516W        W 4116  35.945  24.445  11.067
33517W        W 4117  28.084  39.399   1.192
33518W        W 4118  13.727  17.995  11.624
33519W        W 4119  37.229  25.082   1.749
33520W        W 4120  31.938   2.983   2.753
33521W        W 4121  38.623   4.859   2.746
33522W        W 4122  41.330  39.090  11.404
33523W        W 4123  38.304  14.192  12.844
33524W        W 4124  15.121  28.781   4.170
33525W        W 4125  33.228  39.715   0.852
33526W        W 4126  27.509  34.552  12.987
33527W        W 4127  27.170   2.705  14.495
33528W        W 4128  18.109  31.034  10.570
33529W        W 4129  13.804  44.573   4.174
33530W        W 4130  24.558  36.883   4.350
33531W        W 4131   9.218  28.723   1.717
33532W        W 4132  31.345  21.878  13.892
33533W        W 4133  14.546  42.969   4.196
33534W        W 4134  32.921  18.884  14.431
33535W        W 4135   1.033  29.611  12.750
33536W        W 4136  40.998  25.613   3.816
33537W        W 4137   4.276  38.702   1.934
33538W        W 4138  20.161   5.937   4.689
33539W        W 4139   4.389  17.278  12.065
33540W        W 4140  15.688  30.640  14.502
33541W        W 4141  12.239  40.741   3.040
33542W        W 4142   8.583  33.335   5.106
33543W        W 4143   6.200  42.379  11.658
33544W        W 4144   6.934  29.485  10.565
33545W        W 4145  40.186  38.550  13.919
33546W        W 4146   1.460  26.612   3.065
33547W        W 4147   8.062   8.248   1.007
33548W        W 4148  24.054  19.787  14.855
33549W        W 4149  36.651  39.198  13.407
33550W        W 4150  34.133  10.334  14.383
33551W        W 4151  41.392  40.561  14.743
33552W        W 4152  38.695  23.645  13.967
33553W        W 4153  17.412  22.205  13.981
33554W        W 4154   4.456  37.008  12.014
33555W        W 4155  40.809  26.520  12.925
33556W        W 4156  23.658   4.644   2.932
33557W        W 4157  28.167  43.541   1.347
33558W        W 4158  39.259  16.847   1.893
33559W        W 4159  42.436  19.235  14.538
33560W        W 4160  27.433  13.651  12.418
33561W        W 4161  22.374  10.010   0.765
33562W        W 4162  34.469  18.804   1.316
33563W        W 4163  38.742  10.634  13.216
33564W        W 4164  22.722  37.920  12.840
33565W        W 4165  22.682  30.150   1.152
33566W        W 4166  44.769  15.095  12.106
33567W        W 4167  39.358  42.369   3.309
33568W        W 4168  15.151  42.067  13.876
33569W        W 4169  30.127  16.623  12.820
33570W        W 4170  10.313   3.562  14.053
33571W        W 4171  41.156  38.886   0.610
33572W        W 4172   6.031  36.538  10.724
33573W        W 4173  33.516  21.679  12.119
33574W        W 4174  20.472  28.905  11.450
33575W        W 4175  35.311  35.214   0.921
33576W        W 4176  34.098  39.372  14.877
33577W        W 4177  43.991  35.119   1.486
33578W        W 4178  12.463  29.100  14.096
33579W        W 4179  17.827  31.425  13.368
33580W        W 4180  22.576  42.278  14.841
33581W        W 4181  41.412  32.983   2.750
33582W        W 4182  43.352  41.615   3.891
33583W        W 4183  17.194  41.846   4.546
33584W        W 4184   6.824   4.203  13.534
33585W        W 4185  38.382   0.502   0.540
33586W        W 4186  32.569   7.944  13.231
33587W        W 4187  10.157  43.467   0.399
33588W        W 4188  22.284  16.310   1.754
33589W        W 4189  13.549  28.442  12.404
33590W        W 4190   1.307  39.232  12.575
33591W        W 4191  42.508   8.282  11.201
33592W        W 4192  18.706   6.413   1.318
33593W        W 4193  12.700  18.827   2.928
33594W        W 4194  33.675  26.272  13.356
33595W        W 4195   4.462  10.024  11.036
33596W        W 4196   2.343  30.204   4.917
33597W        W 4197  37.653  23.616  13.824
33598W        W 4198  13.365   3.494   4.067
33599W        W 4199  30.341  41.095  12.504
33600W        W 4200  16.233  27.518  14.927
33601W        W 4201  20.493  13.154  11.190
33602W        W 4202  40.026  22.862  12.164
33603W        W 4203  37.081  17.795   3.242
33604W        W 4204  17.611  27.546   3.411
33605W        W 4205   8.401  42.657   0.375
33606W        W 4206  37.299  10.948   4.557
33607W        W 4207  28.032   1.817   0.719
33608W        W 4208  44.510  11.865  10.478
33609W        W 4209  21.683  29.477  12.996
33610W        W 4210  17.173  44.899   3.249
33611W        W 4211  33.957  34.577  14.369
33612W        W 4212  16.631  25.424   3.195
33613W        W 4213  29.047  34.226   0.749
33614W        W 4214   2.469  24.012  14.375
33615W        W 4215  26.933  31.104  12.986
33616W        W 4216  14.043  41.407  11.580
33617W        W 4217  34.548  19.329  12.919
33618W        W 4218  44.244  44.095   3.866
33619W        W 4219  20.821   0.105   3.524
33620W        W 4220  22.257  30.305   0.426
33621W        W 4221  41.676  34.326  11.998
33622W        W 4222  22.477   3.040   4.419
33623W        W 4223  35.665  32.574  12.437
33624W        W 4224   0.468  18.905   1.161
33625W        W 4225  15.069   9.206   3.697
33626W        W 4226  32.956  12.575  12.427
33627W        W 4227  16.297   1.876   2.412
33628W        W 4228  20.712  10.682  11.872
33629W        W 4229   5.253  34.357   2.742
33630W        W 4230  28.557  18.787  13.924
33631W        W 4231  22.725   9.692  13.800
33632W        W 4232  32.351   2.815  13.056
33633W        W 4233  44.423  21.239  10.966
33634W        W 4234  25.222  32.233   3.387
33635W        W 4235  30.482  40.004  13.506
33636W        W 4236   8.708   1.036  13.466
33637W        W 4237  44.277   8.754  11.238
33638W        W 4238  35.651  36.071  13.380
33639W        W 4239  32.905  21.281   2.169
33640W        W 4240  40.349   6.980   2.237
33641W        W 4241  28.551  39.056   3.354
33642W        W 4242   6.644  28.452  10.654
33643W        W 4243   9.232   4.327  11.618
33644W        W 4244  36.924   3.903  10.489
33645W        W 4245  21.692  15.727  11.507
33646W        W 4246  39.937  34.229  12.500
33647W        W 4247  18.482  38.148  13.478
33648W        W 4248  18.177   2.954  13.923
33649W        W 4249  41.139  10.665   2.626
33650W        W 4250  33.103  31.251  12.375
33651W        W 4251   0.840  22.102   4.684
33652W        W 4252  20.235  20.766  12.903
33653W        W 4253  30.201  36.826   0.266
33654W        W 4254  44.306  40.367   4.410
33655W        W 4255  26.122  12.699   4.337
33656W        W 4256  36.777  22.285   1.755
33657W        W 4257  29.081  31.983  11.056
33658W        W 4258  16.785   6.471  14.923
33659W        W 4259  26.023   2.391   2.361
33660W        W 4260  15.207  33.833   1.373
33661W        W 4261  22.507  21.287  14.398
33662W        W 4262  34.477  11.873   2.818
33663W        W 4263  12.800  17.768   3.820
33664W        W 4264   0.171  31.126   2.108
33665W        W 4265   6.034   4.967   3.121
33666W        W 4266  30.397  11.406   3.189
33667W        W 4267  34.261  23.120   1.365
33668W        W 4268  40.313  41.582  14.461
33669W        W 4269  38.586   8.598   2.317
33670W        W 4270   1.920  43.619  12.065
33671W        W 4271  28.884  35.049  14.414
33672W        W 4272   2.236  42.101   0.062
33673W        W 4273  39.847  25.618  11.631
33674W        W 4274  23.499  35.789   0.486
33675W        W 4275  41.344   7.421  11.644
33676W        W 4276  36.831   8.200  10.746
33677W        W 4277  40.535   1.422   1.743
33678W        W 4278  33.213  14.649   0.091
33679W        W 4279  44.345  44.479   1.248
33680W        W 4280  29.968  38.273   4.913
33681W        W 4281  44.974   9.242  12.458
33682W        W 4282  26.613  28.804  11.769
33683W        W 4283  44.875  17.005  12.639
33684W        W 4284  19.723  25.999   0.671
33685W        W 4285  13.018  17.570   1.426
33686W        W 4286  24.989  17.312  11.456
33687W        W 4287  10.897   8.382  14.131
33688W        W 4288   8.415   2.154   0.768
33689W        W 4289  12.561   0.056   3.987
33690W        W 4290   0.432  38.008  12.097
33691W        W 4291  44.513  32.408  10.205
33692W        W 4292  38.086  22.548   2.175
33693W        W 4293  22.615  41.691  10.496
33694W        W 4294   7.317  20.889   0.453
33695W        W 4295  15.043   4.367   2.969
33696W        W 4296  26.716  42.788  10.706
33697W        W 4297   4.461  25.650  10.833
33698W        W 4298  39.457  30.839  14.839
33699W        W 4299  36.026  15.137  14.549
33700W        W 4300   0.456  11.499   0.330
33701W        W 4301  40.392  36.260   4.826
33702W        W 4302  13.140  13.847   4.276
33703W        W 4303   4.224  38.403  13.007
33704W        W 4304  14.220  38.071  14.823
33705W        W 4305  36.451  15.035  13.642
33706W        W 4306  36.053  34.870   3.673
33707W        W 4307  18.773  30.943   3.739
33708W        W 4308  34.381  22.889  11.430
33709W        W 4309  28.646   8.267  14.296
33710W        W 4310  34.860   3.949  10.508
33711W        W 4311   0.869  11.667  10.257
33712W        W 4312  10.077  35.943   2.590
33713W        W 4313  13.072  37.640  14.563
33714W        W 4314  11.707   7.219  10.778
33715W        W 4315  25.735   9.218   2.999
33716W        W 4316  28.556  44.378   1.302
33717W        W 4317  29.536  40.165   3.515
33718W        W 4318  34.334  35.437   3.657
33719W        W 4319  36.193  16.565  12.920
33720W        W 4320  22.972  42.854   0.941
33721W        W 4321  33.677  24.957   4.123
33722W        W 4322  29.031  35.589   1.304
33723W        W 4323  40.341  23.253  14.383
33724W        W 4324  28.078   9.012  10.898
33725W        W 4325   4.217  24.415   0.960
33726W        W 4326  22.524  23.731  12.872
33727W        W 4327  23.767   5.744  12.120
33728W        W 4328  12.641   7.680  11.590
33729W        W 4329  38.865   7.605   1.517
33730W        W 4330  12.685  39.254   2.277
33731W        W 4331   6.288  44.824  11.165
33732W        W 4332   5.372  20.939   3.261
33733W        W 4333  24.604  14.277   0.916
33734W        W 4334  14.362  43.812  14.006
33735W        W 4335  33.771  33.031  14.867
33736W        W 4336  39.421  13.274  13.558
33737W        W 4337  18.967   9.632  11.043
33738W        W 4338  21.968  28.082  12.524
33739W        W 4339  22.642   5.381   4.663
33740W        W 4340   8.117  36.923   3.837
33741W        W 4341  20.354   3.006  12.486
33742W        W 4342  39.951  14.611  14.495
33743W        W 4343  33.709  12.196   2.254
33744W        W 4344   0.690   6.800  13.944
33745W        W 4345  29.384  23.092   3.642
33746W        W 4346  33.402  29.466  13.012
33747W        W 4347   8.377  26.070  12.610
33748W        W 4348  42.068  13.622   3.646
33749W        W 4349  28.777  30.452   1.769
33750W        W 4350  40.037  11.299   3.805
33751W        W 4351  24.177  12.276   2.766
33752W        W 4352  20.556  40.401   1.351
33753W        W 4353  39.224  41.587  10.443
33754W        W 4354   5.606   7.674   2.604
33755W        W 4355  26.107  10.750  10.665
33756W        W 4356  37.858  23.206   3.827
33757W        W 4357  17.547  39.160  12.885
33758W        W 4358  24.159   9.733  10.521
33759W        W 4359  13.916  24.744   4.114
33760W        W 4360  40.188  38.515  11.488
33761W        W 4361  13.149   1.683  12.615
33762W        W 4362  37.404   6.246   3.785
33763W        W 4363  23.190   6.736   4.093
33764W        W 4364  29.087  26.617  14.631
33765W        W 4365  19.764   8.903  10.620
33766W        W 4366  21.289   0.901  12.049
33767W        W 4367   8.754   0.319   0.805
33768W        W 4368  11.045  16.185  13.805
33769W        W 4369  34.560  14.708   0.354
33770W        W 4370   4.089  29.274   2.624
33771W        W 4371   2.656  35.528   4.314
33772W        W 4372   3.194   8.881   2.749
33773W        W 4373  29.222  22.431   2.202
33774W        W 4374  41.510  31.152   2.142
33775W        W 4375  27.844  27.534  11.847
33776W        W 4376  31.624  32.130  13.929
33777W        W 4377  11.881  28.432  12.025
33778W        W 4378  20.470  27.675   1.863
33779W        W 4379   3.690  39.987  11.087
33780W        W 4380   4.675   1.063   9.913
33781W        W 4381  33.542  20.825   4.565
33782W        W 4382  34.585   7.851   2.733
33783W        W 4383  17.561   0.189   0.856
33784W        W 4384  18.055   7.605   1.817
33785W        W 4385   7.217  17.567   1.462
33786W        W 4386  12.813   5.932   3.190
33787W        W 4387   7.034  34.573   1.742
33788W        W 4388  16.760  15.704   0.922
33789W        W 4389  42.550   6.306  14.550
33790W        W 4390   7.821   6.449   1.248
33791W        W 4391  25.448  18.310  10.587
33792W        W 4392  10.085   7.650  14.918
33793W        W 4393  16.545  23.022   3.310
33794W        W 4394  34.919  10.292  13.849
33795W        W 4395   0.784  16.139  13.984
33796W        W 4396  10.012  39.639  11.488
33797W        W 4397  24.165  11.349   2.664
33798W        W 4398  13.343  38.341  13.384
33799W        W 4399  36.039  33.330  12.434
33800W        W 4400   8.667  21.977   4.116
33801W        W 4401   3.185  38.038  12.520
33802W        W 4402   6.375  25.233   2.442
33803W        W 4403   8.956  25.559   0.695
33804W        W 4404  17.005  41.861   1.795
33805W        W 4405  26.504  33.354  14.541
33806W        W 4406  17.695  35.081  14.354
33807W        W 4407  44.483  10.764  13.533
33808W        W 4408  17.616  32.147   1.070
33809W        W 4409  42.660  23.607  10.660
33810W        W 4410  34.592  42.790  11.205
33811W        W 4411  17.417  12.149  11.356
33812W        W 4412  29.910   9.702   2.484
33813W        W 4413   0.225  43.853  11.122
33814W        W 4414  36.289  30.439   2.619
33815W        W 4415  12.847  34.566  12.404
33816W        W 4416  24.253  39.100   4.127
33817W        W 4417  44.670   1.404   4.177
33818W        W 4418  13.111  28.694   2.852
33819W        W 4419  42.680  21.142   2.881
33820W        W 4420   8.292  18.974  11.095
33821W        W 4421  35.723  30.137  13.801
33822W        W 4422  30.517   0.861  13.327
33823W        W 4423  32.796  43.527  13.077
33824W        W 4424  16.195   6.279   3.752
33825W        W 4425  14.910  44.789  11.584
33826W        W 4426  31.505  11.347   2.926
33827W        W 4427  13.311  16.223   4.929
33828W        W 4428   7.270  31.523   3.268
33829W        W 4429  29.588  36.977  11.155
33830W        W 4430  30.466   5.775  11.582
33831W        W 4431  19.598   1.453  13.157
33832W        W 4432   4.671  39.382   1.849
33833W        W 4433  37.073  27.971  12.998
33834W        W 4434  22.315  14.867  14.299
33835W        W 4435  29.655  22.352   4.816
33836W        W 4436  35.198  33.320   5.036
33837W        W 4437   7.883  12.141   3.888
33838W        W 4438  16.360  13.861   1.411
33839W        W 4439  22.692  21.672   1.911
33840W        W 4440  27.079  43.590   3.176
33841W        W 4441   0.736  28.507  13.275
33842W        W 4442   9.928  23.762   0.398
33843W        W 4443  40.130  10.819   3.043
33844W        W 4444  37.601  36.982  13.046
33845W        W 4445   9.575  18.468  14.975
33846W        W 4446  26.051   1.390  13.791
33847W        W 4447   6.818  35.702  13.798
33848W        W 4448   0.193  36.907   0.369
33849W        W 4449   5.916   0.202  11.053
33850W        W 4450  17.189   2.217   4.399
33851W        W 4451  43.110  23.647  11.444
33852W        W 4452  30.030   6.805  12.630
33853W        W 4453  27.748  26.462   2.680
33854W        W 4454  22.613  35.863  13.967
33855W        W 4455  40.864  11.904  13.256
33856W        W 4456  35.279  38.637  11.462
33857W        W 4457  30.470  38.272   4.825
33858W        W 4458  14.589  43.576  12.987
33859W        W 4459  34.536  30.584  12.365
33860W        W 4460  22.574  20.507  13.964
33861W        W 4461   5.736   4.273   2.621
33862W        W 4462   2.785  32.347  14.303
33863W        W 4463  34.299  42.957   4.544
33864W        W 4464   0.744  32.200  10.670
33865W        W 4465   3.897  34.117   1.921
33866W        W 4466  15.141  29.692   3.615
33867W        W 4467  20.686  43.838   9.972
33868W        W 4468  28.865  17.159  13.956
33869W        W 4469  15.166  32.537   0.646
33870W        W 4470  13.498   7.761   2.210
33871W        W 4471  43.827  23.036   2.091
33872W        W 4472  22.172  39.691  11.666
33873W        W 4473  28.018   1.308   4.553
33874W        W 4474  40.113  17.112   4.157
33875W        W 4475  36.574  14.201  14.108
33876W        W 4476  29.379   7.216  11.613
33877W        W 4477   6.865  13.937  13.647
33878W        W 4478   1.225  16.842  12.518
33879W        W 4479  25.352  20.748  13.540
33880W        W 4480  33.682  11.602   2.346
33881W        W 4481   1.101  28.727  11.912
33882W        W 4482  36.800  10.693  10.714
33883W        W 4483   9.377   7.907  12.346
33884W        W 4484   5.329  16.120   2.258
33885W        W 4485   8.943  35.813   1.227
33886W        W 4486  15.311   8.521  12.937
33887W        W 4487   3.768   2.183  11.583
33888W        W 4488  12.571  33.160   2.115
33889W        W 4489  41.814  34.700  12.951
33890W        W 4490  12.472  24.071   1.378
33891W        W 4491  37.758   2.394   1.239
33892W        W 4492  22.305  11.195  13.378
33893W        W 4493  26.525  34.966  11.644
33894W        W 4494   0.229  29.056   3.727
33895W        W 4495  38.770  43.845   1.226
33896W        W 4496  11.830  29.992  13.852
33897W        W 4497  10.723  23.320   3.801
33898W        W 4498   8.903  12.818   0.746
33899W        W 4499  33.803  40.982  13.503
33900W        W 4500  22.142  19.259  10.721
33901W        W 4501  34.037  23.092  12.896
33902W        W 4502  26.735  40.441   3.266
33903W        W 4503   4.867  14.686  13.486
33904W        W 4504   6.864  15.289  10.673
33905W        W 4505   1.276  11.328  12.229
33906W        W 4506  24.976   4.662  12.003
33907W        W 4507  43.444  34.545  11.209
33908W        W 4508  35.193  31.175   4.399
33909W        W 4509  29.557  29.161  14.929
33910W        W 4510   0.481   7.821  11.926
33911W        W 4511  29.100  23.290  13.485
33912W        W 4512  33.286  31.115  12.848
33913W        W 4513   9.582  33.397  14.611
33914W        W 4514  44.385   9.382  10.565
33915W        W 4515   6.866  30.077   1.359
33916W        W 4516  35.176  16.661   3.194
33917W        W 4517  21.780  11.530   0.264
33918W        W 4518   6.100  12.655  13.495
33919W        W 4519  13.448   7.889  12.171
33920W        W 4520  17.344  36.508   3.806
33921W        W 4521  41.495  24.307   3.339
33922W        W 4522  25.148  19.657  14.289
33923W        W 4523  25.007  17.724   4.307
33924W        W 4524   6.253  44.223   3.199
33925W        W 4525  36.553  31.237   2.845
33926W        W 4526  42.618  43.356   4.085
33927W        W 4527  25.049  13.770   4.931
33928W        W 4528  15.681  30.760   4.584
33929W        W 4529   8.892   2.845  13.643
33930W        W 4530  12.599  15.742   2.435
33931W        W 4531  40.854  24.646   4.332
33932W        W 4532  38.723  31.125   3.147
33933W        W 4533  33.400  19.739   2.196
33934W        W 4534  17.091  22.006  14.346
33935W        W 4535  27.149   2.442  13.086
33936W        W 4536  10.490  11.236  13.391
33937W        W 4537  19.486  41.962  13.874
33938W        W 4538  25.256  14.374  13.072
33939W        W 4539  35.370  27.345  12.149
33940W        W 4540  19.144  13.873   1.976
33941W        W 4541  13.376  15.043   2.479
33942W        W 4542  23.898   0.758   9.511
33943W        W 4543   4.534  37.801   4.191
33944W        W 4544  24.622  24.255  12.630
33945W        W 4545  17.740  13.784   0.936
33946W        W 4546  33.578  10.985   1.698
33947W        W 4547  38.203  24.235   4.171
33948W        W 4548  33.484  17.550  12.770
33949W        W 4549  40.234  43.184   3.760
33950W        W 4550  29.470  12.956   3.705
33951W        W 4551  10.865   0.446   3.597
33952W        W 4552  10.402  37.870  12.059
33953W        W 4553   3.976   5.447   4.492
33954W        W 4554  44.435  41.078   0.875
33955W        W 4555  16.869  31.336  13.099
33956W        W 4556  24.198   9.032   2.924
33957W        W 4557  40.851   3.860  13.487
33958W        W 4558  29.781   4.053  13.032
33959W        W 4559  31.398  22.503  14.708
33960W        W 4560  31.850  10.835  14.460
33961W        W 4561  10.727  39.145   0.914
33962W        W 4562  19.267  23.000   0.820
33963W        W 4563  34.457  39.797  10.765
33964W        W 4564  41.944  22.926  14.213
33965W        W 4565  28.694   2.835   0.410
33966W        W 4566   5.246  30.783  13.096
33967W        W 4567  37.753  33.476   3.230
33968W        W 4568  14.573  17.518   2.759
33969W        W 4569  11.739  32.935   0.353
33970W        W 4570   2.994  13.688  12.674
33971W        W 4571  33.139  37.931   0.039
33972W        W 4572  14.621   0.811   3.132
33973W        W 4573  13.554   5.790   2.083
33974W        W 4574  25.430  28.542  14.421
33975W        W 4575  37.512   7.368   0.339
33976W        W 4576  11.182  43.487  12.929
33977W        W 4577  17.608  41.787   2.683
33978W        W 4578  33.227   8.145   4.427
33979W        W 4579  26.626  12.455   2.510
33980W        W 4580  31.054  28.423   1.689
33981W        W 4581  17.165  25.147   1.328
33982W        W 4582  13.106  40.675   4.811
33983W        W 4583   5.322   2.770   0.332
33984W        W 4584  11.213   2.869   2.354
33985W        W 4585  16.308   6.392  13.032
33986W        W 4586  43.944  30.912   4.401
33987W        W 4587   4.492  28.519   0.953
33988W        W 4588  14.479  41.906   5.352
33989W        W 4589   3.045   4.432  13.455
33990W        W 4590  32.569  19.841   4.528
33991W        W 4591  33.535   5.058   3.594
33992W        W 4592  14.099  34.935  10.138
33993W        W 4593  10.746  11.790   4.323
33994W        W 4594  41.258  34.931   1.797
33995W        W 4595  16.755  40.505   4.755
33996W        W 4596  40.436  27.179  14.918
33997W        W 4597  22.547  40.033   0.463
33998W        W 4598  33.448  30.620   4.083
33999W        W 4599  22.985   1.395  12.451
34000W        W 4600   1.550  23.023  11.654
34001W        W 4601  36.474   5.149   0.801
34002W        W 4602  41.541   0.095   2.674
34003W        W 4603  26.056  26.053   4.185
34004W        W 4604  27.580  43.376   1.335
34005W        W 4605   4.808  37.710   1.304
34006W        W 4606  42.680  10.280  14.034
34007W        W 4607  43.134  28.086   1.854
34008W        W 4608   1.399  34.867   1.041
34009W        W 4609  26.082  37.790  14.812
34010W        W 4610  26.534  35.372  10.669
34011W        W 4611  21.009   4.364  12.957
34012W        W 4612  13.700  14.053   0.861
34013W        W 4613  35.243   7.828  12.256
34014W        W 4614  44.243  41.603  14.594
34015W        W 4615   0.460  35.419  13.536
34016W        W 4616  15.900   6.108  13.145
34017W        W 4617  39.598   5.714   2.252
34018W        W 4618   5.171  33.545   3.157
34019W        W 4619   1.284   7.976  14.076
34020W        W 4620  33.089   2.338   3.375
34021W        W 4621   4.283  10.589   1.796
34022W        W 4622  35.851  28.603  13.394
34023W        W 4623   5.199   8.434  13.969
34024W        W 4624   0.462  35.900   1.751
34025W        W 4625  17.176   0.953  12.045
34026W        W 4626  13.046  20.612   0.303
34027W        W 4627  27.723   7.274   3.316
34028W        W 4628  30.220  12.608   2.785
34029W        W 4629  31.665  22.498  12.901
34030W        W 4630  44.998  25.215   3.709
34031W        W 4631  15.161   0.965  13.844
34032W        W 4632   0.673  12.996  11.614
34033W        W 4633  39.377  37.116   4.830
34034W        W 4634  20.103   3.026   4.827
34035W        W 4635  31.973  11.351   4.157
34036W        W 4636  28.755   6.672  11.116
34037W        W 4637  30.116  21.593  13.049
34038W        W 4638  22.284   0.278  13.514
34039W        W 4639  37.355  21.522  10.587
34040W        W 4640  39.421   8.903   3.815
34041W        W 4641  14.607  15.243  11.330
34042W        W 4642   7.407   2.468  12.984
34043W        W 4643  30.088  26.164   4.804
34044W        W 4644   2.801  19.711  13.060
34045W        W 4645  38.644  18.158  14.806
34046W        W 4646  21.160  24.680  12.504
34047W        W 4647   5.926  27.388  12.215
34048W        W 4648   8.465  43.031   0.781
34049W        W 4649  40.800  36.643   0.278
34050W        W 4650  14.522  34.647   9.966
34051W        W 4651   0.556  19.001   3.384
34052W        W 4652  32.914   3.276   0.038
34053W        W 4653  37.810   9.162  12.582
34054W        W 4654  44.936  21.606   2.826
34055W        W 4655  37.924  33.842   1.433
34056W        W 4656   6.839  15.151   0.092
34057W        W 4657  23.449  28.552   3.266
34058W        W 4658  23.556  42.384   2.635
34059W        W 4659  23.650  39.018  10.586
34060W        W 4660  34.465  26.581  11.735
34061W        W 4661  30.679  36.441   4.478
34062W        W 4662  29.374  33.488  12.470
34063W        W 4663  43.077   6.369  14.496
34064W        W 4664  34.124  39.241   2.120
34065W        W 4665  31.165  29.335   4.141
34066W        W 4666  28.415  39.606  14.684
34067W        W 4667  22.902  41.786   0.225
34068W        W 4668  32.374   9.365  12.569
34069W        W 4669  28.499   5.145   4.643
34070W        W 4670  16.636  43.992   4.345
34071W        W 4671  39.948  36.537   4.747
34072W        W 4672  24.596  16.624  12.403
34073W        W 4673  34.651  30.294  14.737
34074W        W 4674  41.385  41.385  12.392
34075W        W 4675   6.768  27.984   2.555
34076W        W 4676  13.195  38.862  11.881
34077W        W 4677   2.921  19.324  12.038
34078W        W 4678  24.627  42.027  11.496
34079W        W 4679   2.420  17.408  11.875
34080W        W 4680  14.509  39.814   5.021
34081W        W 4681  39.298   7.749  11.795
34082W        W 4682  35.864  15.665   4.148
34083W        W 4683  15.595  24.971  12.411
34084W        W 4684   6.518  28.724  13.995
34085W        W 4685   2.145  27.169  12.019
34086W        W 4686  43.750  10.840   2.751
34087W        W 4687  28.067  17.686   2.412
34088W        W 4688  19.499  40.966   3.709
34089W        W 4689  35.633   7.485  14.454
34090W        W 4690  38.822  14.062   2.885
34091W        W 4691   9.161  23.614   0.714
34092W        W 4692  30.970  22.673  13.423
34093W        W 4693   5.253   2.939   1.206
34094W        W 4694  40.271  35.201   0.762
34095W        W 4695  15.683  28.201  14.959
34096W        W 4696   8.127  22.453   2.682
34097W        W 4697  28.225  27.306  11.578
34098W        W 4698  17.716  24.923  10.799
34099W        W 4699  25.381  24.629  11.584
34100W        W 4700   1.755  31.123   2.779
34101W        W 4701   9.115  28.887   0.870
34102W        W 4702  35.441  35.609  10.958
34103W        W 4703  17.467  40.525   0.885
34104W        W 4704  20.703   3.896  13.845
34105W        W 4705   3.857  30.762   3.573
34106W        W 4706  26.933  26.503   3.247
34107W        W 4707  15.294   5.131   2.336
34108W        W 4708  43.315  32.913  14.414
34109W        W 4709  11.699   3.216   0.001
34110W        W 4710  20.572  27.218  11.186
34111W        W 4711  28.189  34.716   2.330
34112W        W 4712  22.147  35.842   4.122
34113W        W 4713  21.223  11.539  12.125
34114W        W 4714  24.613  16.185   2.514
34115W        W 4715  35.898  40.917  12.382
34116W        W 4716  31.603  17.795   2.634
34117W        W 4717  10.184  37.672  10.109
34118W        W 4718  41.862  38.459   0.673
34119W        W 4719  13.115  16.738  14.291
34120W        W 4720  42.887  33.599   0.941
34121W        W 4721  22.531  33.433   1.839
34122W        W 4722  37.513  26.466  10.980
34123W        W 4723  33.575   2.789  14.372
34124W        W 4724   1.241  29.137   2.358
34125W        W 4725  13.395  11.136   4.317
34126W        W 4726  13.027   4.194   1.442
34127W        W 4727  11.366  38.943  13.034
34128W        W 4728   2.823  30.111   1.035
34129W        W 4729   9.951  38.893   2.922
34130W        W 4730  14.381  13.629   2.532
34131W        W 4731  43.768   8.816   1.987
34132W        W 4732  37.534  11.377   2.348
34133W        W 4733  16.713  29.188  10.598
34134W        W 4734  25.406  21.548   4.613
34135W        W 4735  19.489  37.169   2.348
34136W        W 4736  26.508  44.073   2.286
34137W        W 4737   7.924  16.776  11.529
34138W        W 4738  23.091  13.847   2.681
34139W        W 4739   1.064  11.763  13.823
34140W        W 4740   2.932  11.583  10.776
34141W        W 4741  28.584  27.465  10.758
34142W        W 4742  23.105  43.763   0.518
34143W        W 4743  33.093  22.022  11.018
34144W        W 4744   4.373   3.208   0.345
34145W        W 4745  14.981  43.867   1.748
34146W        W 4746   7.933  28.121   2.654
34147W        W 4747  25.867  34.490   3.195
34148W        W 4748  21.968   3.169   4.149
34149W        W 4749   5.322   5.735  14.314
34150W        W 4750  17.773  14.525  13.404
34151W        W 4751  29.550  27.676  12.093
34152W        W 4752   5.838  42.678  10.949
34153W        W 4753  36.001   5.378   1.699
34154W        W 4754  19.480  29.050  12.964
34155W        W 4755  28.767  24.127  13.650
34156W        W 4756   6.437  12.863   4.560
34157W        W 4757  25.660  20.365   1.730
34158W        W 4758  29.812  20.652  13.954
34159W        W 4759  11.706  35.413   1.290
34160W        W 4760  16.295  21.878  14.066
34161W        W 4761   3.368  15.764  13.541
34162W        W 4762  14.788   8.649  14.854
34163W        W 4763   4.225   3.387   4.929
34164W        W 4764  12.278  38.682   1.264
34165W        W 4765   8.146  23.690   0.839
34166W        W 4766  33.509  15.594   0.794
34167W        W 4767  35.998   9.027   2.784
34168W        W 4768  32.509   5.413  13.007
34169W        W 4769  33.092  20.234   0.051
34170W        W 4770  43.541  44.019  13.017
34171W        W 4771  30.387  15.524   0.313
34172W        W 4772  43.380  19.077  13.892
34173W        W 4773  15.043  24.464  11.607
34174W        W 4774   5.381   4.977   3.662
34175W        W 4775   0.006  41.559  13.520
34176W        W 4776  11.428  20.140   1.896
34177W        W 4777  14.285  30.188   4.616
34178W        W 4778  11.901   9.908  13.796
34179W        W 4779  20.079  10.169  11.533
34180W        W 4780  26.300  13.443  13.532
34181W        W 4781  17.241  17.250  12.562
34182W        W 4782  37.478  20.789  13.975
34183W        W 4783  17.705   3.168  13.965
34184W        W 4784  42.899  18.450  12.671
34185W        W 4785   6.212  44.074   0.823
34186W        W 4786  27.565  30.815   1.225
34187W        W 4787   5.429  15.016   0.253
34188W        W 4788   1.447  26.099   3.202
34189W        W 4789  29.694  20.621  13.009
34190W        W 4790  41.345   1.522   3.827
34191W        W 4791  35.094  35.644   2.942
34192W        W 4792  26.945  10.114  11.634
34193W        W 4793  43.897   5.572   3.440
34194W        W 4794   0.706  17.267   2.800
34195W        W 4795  36.085  37.522  12.541
34196W        W 4796  27.880  24.648  12.197
34197W        W 4797  23.022  39.290  14.076
34198W        W 4798  10.647  31.242   4.125
34199W        W 4799  29.542  33.548  11.439
34200W        W 4800  39.424  36.664   1.388
34201W        W 4801   4.232   1.796   2.809
34202W        W 4802  21.224  12.698  12.914
34203W        W 4803  23.236   2.230   2.817
34204W        W 4804  42.196  43.028   4.077
34205W        W 4805   6.468   5.139   0.492
34206W        W 4806  12.336   0.904   2.841
34207W        W 4807  16.246  24.119   1.877
34208W        W 4808  26.603   3.754  12.489
34209W        W 4809  42.184  13.980  10.532
34210W        W 4810   5.821   6.281  13.481
34211W        W 4811   5.905  14.922  11.183
34212W        W 4812  17.040   2.623  11.194
34213W        W 4813   6.415  44.782   4.756
34214W        W 4814  17.096   2.448  12.034
34215W        W 4815  11.584  14.407  10.654
34216W        W 4816  31.559  36.909   1.151
34217W        W 4817  42.211  28.837   2.853
34218W        W 4818  12.776  15.442   0.741
34219W        W 4819  30.159  26.461   1.631
34220W        W 4820  17.245   6.153  13.056
34221W        W 4821  35.894  15.558  12.880
34222W        W 4822  27.027  20.534   4.247
34223W        W 4823  42.279  28.952   4.583
34224W        W 4824  14.871  32.940  13.461
34225W        W 4825  11.673   3.139   3.453
34226W        W 4826  34.624  22.830   4.115
34227W        W 4827   9.265  26.022  10.494
34228W        W 4828   8.398  21.264   0.927
34229W        W 4829  25.471  22.511   0.355
34230W        W 4830   6.761  23.165  14.757
34231W        W 4831  43.372  10.113   1.784
34232W        W 4832  30.472  10.471  10.057
34233W        W 4833   6.730  15.162   3.337
34234W        W 4834  29.969   5.892  12.116
34235W        W 4835  26.003   5.718   2.771
34236W        W 4836  27.886  12.715   4.736
34237W        W 4837   1.280   4.768  11.786
34238W        W 4838  43.522  10.812   3.235
34239W        W 4839  30.944  16.021  12.723
34240W        W 4840  32.989  33.968  14.495
34241W        W 4841   9.913  16.173   2.708
34242W        W 4842  43.292   2.186   3.728
34243W        W 4843  34.365   7.575  12.941
34244W        W 4844  21.555  24.710  13.156
34245W        W 4845  36.128  23.218   2.502
34246W        W 4846  20.056   2.577   2.441
34247W        W 4847  36.854   6.445  10.975
34248W        W 4848  15.355  43.958  13.889
34249W        W 4849  28.873  36.950  14.022
34250W        W 4850   9.795  31.952   3.018
34251W        W 4851  22.529  19.680   0.659
34252W        W 4852   5.283  28.894  12.199
34253W        W 4853  23.186  18.635  14.100
34254W        W 4854  15.906   7.893   3.747
34255W        W 4855   7.874  32.598  11.603
34256W        W 4856   7.368  38.312   2.808
34257W        W 4857  30.502  18.624  14.454
34258W        W 4858  39.252   8.892   4.741
34259W        W 4859  28.130   3.978   2.037
34260W        W 4860   7.598  10.803   0.790
34261W        W 4861  31.683  35.995   1.667
34262W        W 4862  22.156  29.251  11.437
34263W        W 4863  37.797  31.866  13.891
34264W        W 4864   4.440  40.134  10.628
34265W        W 4865  32.543  44.557  10.289
34266W        W 4866   1.842  29.667  14.845
34267W        W 4867  41.943  23.828  12.044
34268W        W 4868   1.592  30.301  13.964
34269W        W 4869  25.709  24.111   2.737
34270W        W 4870  31.105  22.544  14.293
34271W        W 4871  16.357  23.182  13.392
34272W        W 4872   8.905   1.407   5.002
34273W        W 4873  17.217   6.274  13.555
34274W        W 4874  15.210  17.389   4.136
34275W        W 4875   2.329  34.049   0.868
34276W        W 4876  10.897  27.977  10.861
34277W        W 4877   6.522  39.142   2.202
34278W        W 4878  24.918  14.252   2.312
34279W        W 4879  38.493  43.468   4.596
34280W        W 4880  38.845  40.568   1.709
34281W        W 4881  12.843   1.524   2.213
34282W        W 4882  16.657  19.709  14.511
34283W        W 4883  21.607  36.974  13.843
34284W        W 4884  20.494  10.427  13.909
34285W        W 4885  40.505  38.618  11.103
34286W        W 4886   1.870  14.291  13.512
34287W        W 4887   7.333  25.029  11.584
34288W        W 4888   1.495  33.128  12.045
34289W        W 4889  34.792   9.280  12.432
34290W        W 4890   7.326  38.217  10.425
34291W        W 4891  35.655  11.877   1.470
34292W        W 4892  37.977  21.968  10.485
34293W        W 4893  43.838  44.048  10.646
34294W        W 4894   9.340  13.751  14.296
34295W        W 4895  42.694  35.074   0.832
34296W        W 4896  36.226  38.424   1.284
34297W        W 4897  18.617  27.606  14.057
34298W        W 4898  26.869   1.403  12.015
34299W        W 4899  40.863  39.054  13.112
34300W        W 4900  37.825  21.461  12.046
34301W        W 4901  21.303  27.678   3.550
34302W        W 4902  41.847  41.338  14.430
34303W        W 4903  39.995  34.387   0.860
34304W        W 4904   9.361   4.841   0.180
34305W        W 4905  15.083  26.474  14.862
34306W        W 4906  39.417   9.133   4.303
34307W        W 4907  20.433   0.257  12.152
34308W        W 4908  26.035  34.562  10.627
34309W        W 4909  26.897  34.472  10.839
34310W        W 4910  26.968  20.605   4.852
34311W        W 4911  27.028   0.396   4.570
34312W        W 4912  12.771  40.328   1.397
34313W        W 4913  40.991  15.213   4.147
34314W        W 4914  16.674  35.447  14.376
34315W        W 4915  21.285  40.577   2.193
34316W        W 4916  38.127   9.866   0.568
34317W        W 4917  16.319   2.629  11.228
34318W        W 4918  14.026  24.404  12.570
34319W        W 4919   3.485  19.494  13.499
34320W        W 4920   2.830   3.724   0.924
34321W        W 4921  41.847  18.775   0.355
34322W        W 4922  11.481  39.770   1.256
34323W        W 4923  37.937   6.702   4.334
34324W        W 4924   0.093  30.411  11.952
34325W        W 4925  44.329   7.079  13.921
34326W        W 4926   8.305  30.259  12.547
34327W        W 4927  41.509  35.978   1.649
34328W        W 4928  44.068  39.534   2.899
34329W        W 4929  43.009  44.372   9.816
34330W        W 4930   6.362  24.550  12.997
34331W        W 4931  32.438   9.100   1.873
34332W        W 4932   9.989  17.312   2.234
34333W        W 4933  29.986  16.751   2.426
34334W        W 4934  37.035  11.303   2.292
34335W        W 4935  37.827  11.891  11.119
34336W        W 4936  37.998   6.687  14.353
34337W        W 4937  18.339  19.195   3.439
34338W        W 4938  41.256  12.115   0.267
34339W        W 4939   3.343   3.041   1.191
34340W        W 4940   4.976   4.176  13.532
34341W        W 4941  13.627  34.094   4.807
34342W        W 4942  34.323  39.879   1.336
34343W        W 4943  37.585   3.730   1.824
34344W        W 4944   4.683   7.776   2.256
34345W        W 4945  14.242  21.519   4.692
34346W        W 4946  44.688  31.332   2.287
34347W        W 4947  12.063  39.964  11.856
34348W        W 4948  37.493  27.484   2.264
34349W        W 4949   7.926  23.203   1.641
34350W        W 4950   6.411  22.490   1.220
34351W        W 4951   6.246  28.764  12.920
34352W        W 4952  31.513  30.698  10.938
34353W        W 4953  30.497   8.089   3.703
34354W        W 4954   9.985   2.447  11.433
34355W        W 4955  32.658  23.726   3.762
34356W        W 4956   7.337  36.481   4.238
34357W        W 4957  13.622   4.979   3.377
34358W        W 4958  16.754   4.480  12.533
34359W        W 4959   0.348  12.762   2.781
34360W        W 4960  32.474  27.538  13.521
34361W        W 4961  25.147  24.175   0.490
34362W        W 4962  13.953  37.409  10.361
34363W        W 4963  25.102  30.169  12.398
34364W        W 4964  39.871  13.095  11.914
34365W        W 4965  27.017  22.890   4.667
34366W        W 4966  37.884  10.411   1.447
34367W        W 4967  35.372  17.255   2.209
34368W        W 4968  39.024  37.992   3.404
34369W        W 4969  12.781   9.114   3.902
34370W        W 4970  11.181  18.768   4.115
34371W        W 4971  33.816  38.314  13.100
34372W        W 4972  28.341  24.346   0.236
34373W        W 4973  33.949  23.083   0.498
34374W        W 4974  27.107  13.989   0.502
34375W        W 4975  44.903   6.063  12.644
34376W        W 4976   9.893  31.988  12.386
34377W        W 4977  22.337  17.313   1.960
34378W        W 4978   4.935  20.671   4.625
34379W        W 4979  22.346  34.241   4.090
34380W        W 4980  41.353  40.351  11.580
34381W        W 4981  19.373  38.849   3.145
34382W        W 4982  33.486  35.460  13.569
34383W        W 4983  10.507  32.363  14.565
34384W        W 4984  21.524   9.410   3.493
34385W        W 4985  42.984  29.435   4.103
34386W        W 4986  13.712  27.946   4.886
34387W        W 4987  43.591   5.774   4.051
34388W        W 4988  22.910  41.501   0.664
34389W        W 4989  37.828  30.806  12.617
34390W        W 4990  40.344  21.118  11.173
34391W        W 4991  26.616  23.718   4.373
34392W        W 4992  21.875  25.220  12.006
34393W        W 4993  38.061  18.545   2.683
34394W        W 4994   8.195  41.297   2.241
34395W        W 4995  43.356  22.364   2.637
34396W        W 4996  12.259  14.737   4.926
34397W        W 4997  37.741  11.802  12.467
34398W        W 4998   8.732   5.997   1.179
34399W        W 4999  13.407  26.684   5.110
34400W        W 5000  36.768  15.892  14.473
34401W        W 5001  40.376   6.839  10.658
34402W        W 5002  24.033  39.931   3.542
34403W        W 5003  43.729  39.925  14.268
34404W        W 5004  34.046   6.713  12.090
34405W        W 5005  29.435  19.479  10.313
34406W        W 5006  16.215  33.923   1.443
34407W        W 5007  29.559  19.834  14.855
34408W        W 5008  30.934   6.268   1.287
34409W        W 5009  44.283   7.410  14.888
34410W        W 5010  33.541  25.025  13.746
34411W        W 5011  36.627  30.011  12.609
34412W        W 5012  14.032   8.821  13.091
34413W        W 5013  34.091   4.916  10.245
34414W        W 5014  16.059  16.847   5.343
34415W        W 5015  23.696   2.461  11.536
34416W        W 5016  21.707  26.110  10.428
34417W        W 5017   2.297   2.809   2.352
34418W        W 5018   0.773  30.094  12.971
34419W        W 5019  30.416  28.085  10.746
34420W        W 5020  40.526  38.930  12.612
34421W        W 5021  30.800   5.147  11.102
34422W        W 5022  26.009  44.860   0.844
34423W        W 5023  20.161   4.432  12.403
34424W        W 5024  39.329   6.316  11.306
34425W        W 5025  11.666  22.492   3.249
34426W        W 5026  32.704  17.614  12.227
34427W        W 5027  32.547  34.372   4.643
34428W        W 5028  24.139  25.546  14.392
34429W        W 5029  17.631  34.587   1.497
34430W        W 5030  29.637  32.373  12.098
34431W        W 5031  13.027  31.324  14.061
34432W        W 5032   9.682  37.032   4.936
34433W        W 5033   0.283  10.589  11.604
34434W        W 5034  14.948  25.605  10.681
34435W        W 5035  32.398  37.259   4.568
34436W        W 5036   8.509  25.277   2.861
34437W        W 5037   3.524  44.913  11.194
34438W        W 5038  39.417  28.796   2.720
34439W        W 5039  18.425   0.230   1.392
34440W        W 5040  19.210  29.012   4.811
34441W        W 5041   4.174  32.234  12.988
34442W        W 5042   2.942  23.361  11.219
34443W        W 5043  21.997  41.838   0.463
34444W        W 5044  43.216  29.909   4.276
34445W        W 5045  19.839  29.905   0.956
34446W        W 5046  28.540  12.656   0.977
34447W        W 5047  34.433   9.089   3.221
34448W        W 5048  41.518  25.198  14.849
34449W        W 5049  15.320  23.024  13.393
34450W        W 5050  16.235  41.849   2.190
34451W        W 5051   0.088   1.289  11.697
34452W        W 5052  21.366  42.888  11.614
34453W        W 5053   6.405   7.171   1.241
34454W        W 5054  32.061  12.792   4.107
34455W        W 5055  11.747  24.875  13.945
34456W        W 5056  44.239  17.162   1.494
34457W        W 5057  40.400   7.258  14.732
34458W        W 5058  16.551   9.189   2.770
34459W        W 5059   0.922  12.775  12.037
34460W        W 5060  31.557  16.492   4.626
34461W        W 5061  39.706   6.161   3.598
34462W        W 5062   2.003  38.894  12.729
34463W        W 5063   0.323  39.593   4.305
34464W        W 5064  33.106  26.090  14.975
34465W        W 5065  14.351  36.499  14.904
34466W        W 5066  18.676  29.378  13.395
34467W        W 5067  16.263  44.840  14.134
34468W        W 5068  26.032  39.382   2.380
34469W        W 5069   3.874  22.051   1.196
34470W        W 5070  22.269   3.147  12.535
34471W        W 5071  36.659   9.647   1.485
34472W        W 5072  18.906   3.339  11.589
34473W        W 5073   1.636  13.682   0.364
34474W        W 5074  24.660   1.851  13.889
34475W        W 5075  43.987  33.970  11.032
34476W        W 5076   5.363   8.673  12.113
34477W        W 5077   5.384   7.177  12.122
34478W        W 5078  30.753   3.129   9.946
34479W        W 5079  27.372   3.906   0.929
34480W        W 5080   4.798  38.742   1.264
34481W        W 5081  23.126   4.183   4.160
34482W        W 5082  39.561   9.782   1.185
34483W        W 5083   0.172  30.144   1.410
34484W        W 5084  14.902  19.404  10.301
34485W        W 5085  38.980   7.978   2.801
34486W        W 5086  12.242   6.931   0.397
34487W        W 5087  31.779  38.115   0.598
34488W        W 5088  20.323  32.963  14.986
34489W        W 5089   2.516  39.039   3.839
34490W        W 5090  32.170   2.646  14.757
34491W        W 5091   2.868  25.902  11.339
34492W        W 5092   7.543   8.243  14.326
34493W        W 5093  41.812  19.959   2.978
34494W        W 5094  10.376   8.716   3.159
34495W        W 5095  44.457   2.819  13.462
34496W        W 5096  40.867  13.495   3.772
34497W        W 5097  38.582  33.885  12.276
34498W        W 5098  42.370  23.771   3.316
34499W        W 5099  44.050  30.560  12.621
34500W        W 5100  39.401  21.198   1.328
34501W        W 5101  32.061  17.133  12.692
34502W        W 5102  13.336   6.547   0.422
34503W        W 5103  15.268  28.848  14.418
34504W        W 5104  26.217  44.469  10.514
34505W        W 5105  27.514  23.157  13.798
34506W        W 5106  30.695  26.591  12.058
34507W        W 5107   2.228  34.146   3.598
34508W        W 5108   8.867  17.250   0.282
34509W        W 5109  18.969  10.094  14.818
34510W        W 5110   0.179  36.104   0.154
34511W        W 5111   2.492   7.240   4.690
34512W        W 5112  21.631  18.481   0.188
34513W        W 5113  42.333  29.481   4.525
34514W        W 5114  18.715  26.268  10.795
34515W        W 5115  28.432  11.254  11.411
34516W        W 5116  35.633  40.341   1.033
34517W        W 5117  35.931  36.574  11.406
34518W        W 5118  31.989  26.954   1.763
34519W        W 5119  37.526   8.610  11.051
34520W        W 5120  42.629  36.072  11.923
34521W        W 5121   1.126   7.690   0.857
34522W        W 5122  40.364   3.713  13.363
34523W        W 5123  11.900  33.178  10.985
34524W        W 5124  36.061  10.032   2.833
34525W        W 5125  18.340  27.970  12.414
34526W        W 5126  26.109  16.598  11.150
34527W        W 5127  26.639   7.754  13.594
34528W        W 5128  21.206   6.851  14.727
34529W        W 5129  37.775  20.597   5.197
34530W        W 5130  43.860  19.339  14.532
34531W        W 5131   4.395  35.484   4.578
34532W        W 5132  14.376  38.128  12.192
34533W        W 5133  26.832  23.345   3.639
34534W        W 5134  28.926   6.712   4.103
34535W        W 5135  37.561  12.259   2.919
34536W        W 5136  34.233   9.910  11.844
34537W        W 5137  13.619  28.678  10.670
34538W        W 5138  10.614  15.586   3.249
34539W        W 5139  40.406  13.088   4.554
34540W        W 5140  41.622  16.098  10.562
34541W        W 5141   8.697  42.808  12.075
34542W        W 5142  17.702  29.391  11.416
34543W        W 5143  20.214  39.930   3.406
34544W        W 5144  25.629  28.601  14.908
34545W        W 5145  44.502  23.436  10.225
34546W        W 5146   4.848  41.836  14.897
34547W        W 5147  32.727   5.890  14.811
34548W        W 5148  36.731  42.926   1.446
34549W        W 5149  36.572  17.513   1.340
34550W        W 5150  15.316  14.643  10.887
34551W        W 5151  16.042  25.106  10.835
34552W        W 5152   8.138   8.596  11.015
34553W        W 5153  10.095  27.150  10.785
34554W        W 5154   2.809  43.697   3.481
34555W        W 5155  41.337  23.220  12.535
34556W        W 5156  10.576  17.668  12.122
34557W        W 5157  41.751  20.986   3.664
34558W        W 5158   2.267  41.915  10.730
34559W        W 5159   9.663  11.302  11.649
34560W        W 5160  34.896   2.389  11.824
34561W        W 5161  11.022   8.222  13.070
34562W        W 5162   0.478   1.565  10.416
34563W        W 5163  28.928  11.343  12.348
34564W        W 5164  28.255  22.722  10.062
34565W        W 5165  17.887  28.455  11.880
34566W        W 5166   6.784  14.392   2.880
34567W        W 5167  17.737   0.887  14.429
34568W        W 5168  36.566  27.809   3.323
34569W        W 5169   7.654  10.322  14.780
34570W        W 5170  33.872   0.734  12.564
34571W        W 5171  44.325   6.785   3.822
34572W        W 5172  10.417   8.678  10.861
34573W        W 5173  15.361  14.114   3.977
34574W        W 5174  44.831  39.104  14.435
34575W        W 5175  37.469  19.376   3.920
34576W        W 5176   6.181  29.696  14.112
34577W        W 5177  38.941  25.927   3.412
34578W        W 5178  39.476  32.232  14.851
34579W        W 5179  12.274  33.207   0.888
34580W        W 5180  28.069  10.715   2.652
34581W        W 5181  43.089  32.028  14.485
34582W        W 5182  16.838  37.209   1.014
34583W        W 5183  34.564   9.761   3.797
34584W        W 5184  19.069  41.898   0.534
34585W        W 5185  14.333  35.411  10.266
34586W        W 5186  17.763  43.307   0.775
34587W        W 5187  24.490  21.238  13.031
34588W        W 5188  42.101   1.338  12.035
34589W        W 5189  17.932  32.859  11.796
34590W        W 5190   0.842  23.879  11.762
34591W        W 5191  29.437  20.094   4.207
34592W        W 5192   8.707  26.769  12.507
34593W        W 5193   1.493  20.857   3.131
34594W        W 5194  42.871  40.088  13.355
34595W        W 5195  34.208  27.429  12.962
34596W        W 5196  10.387  40.283  11.193
34597W        W 5197  25.219  38.412  13.968
34598W        W 5198  13.425  22.908   5.230
34599W        W 5199  31.804  34.094   4.013
34600W        W 5200  26.433  21.655  13.052
34601W        W 5201  38.053  24.187   2.198
34602W        W 5202  10.465   6.002   4.360
34603W        W 5203  29.629  21.980   1.034
34604W        W 5204   8.848  38.932  11.856
34605W        W 5205  21.323  26.115  12.033
34606W        W 5206  21.490  28.258  12.458
34607W        W 5207  30.152   9.281  12.060
34608W        W 5208  33.031   5.676   3.273
34609W        W 5209  42.721  10.645  12.548
34610W        W 5210  16.314  38.079  12.094
34611W        W 5211  27.106  14.819  12.032
34612W        W 5212  39.324  33.477   1.324
34613W        W 5213   6.265  12.588  11.141
34614W        W 5214  40.139   3.557   2.186
34615W        W 5215  29.112  28.957   0.212
34616W        W 5216  23.238   7.823   1.162
34617W        W 5217  11.964  29.416   9.946
34618W        W 5218   5.412   8.897  11.618
34619W        W 5219  20.293  22.521  13.392
34620W        W 5220   0.479  21.446   0.937
34621W        W 5221  34.990  31.097  14.894
34622W        W 5222  22.053  25.655   2.715
34623W        W 5223  30.103  41.985  14.292
34624W        W 5224  17.654  24.063  13.448
34625W        W 5225  28.574  35.314   4.579
34626W        W 5226   3.781   5.278  12.575
34627W        W 5227  44.441   9.513  13.471
34628W        W 5228  11.535  11.374  11.667
34629W        W 5229   1.869  27.999  11.703
34630W        W 5230  12.301  24.068   3.672
34631W        W 5231  34.115  37.591   4.068
34632W        W 5232  40.799   8.278   1.843
34633W        W 5233  25.959   0.289   2.175
34634W        W 5234  41.617  32.002   4.992
34635W        W 5235  16.252  20.515  12.648
34636W        W 5236   2.609   4.273   1.459
34637W        W 5237  15.347  16.355   4.952
34638W        W 5238   4.497  18.033  13.569
34639W        W 5239  20.681   6.607   3.814
34640W        W 5240  40.440  35.436   0.269
34641W        W 5241  18.289  20.214   2.458
34642W        W 5242  28.891   9.038   2.990
34643W        W 5243  17.323   8.091   3.794
34644W        W 5244  24.896   5.455  12.618
34645W        W 5245  37.185  32.188   4.266
34646W        W 5246  24.634  38.869  13.958
34647W        W 5247   9.764  43.491  14.424
34648W        W 5248  31.043  34.268  11.124
34649W        W 5249   2.309  25.617   0.010
34650W        W 5250  19.192  25.486   2.146
34651W        W 5251  25.660  25.357  14.232
34652W        W 5252  40.270  25.028  13.420
34653W        W 5253   8.263  34.887  12.789
34654W        W 5254  25.001  18.633  14.044
34655W        W 5255   8.358   8.601  11.489
34656W        W 5256  37.262  27.051   0.862
34657W        W 5257  10.551  11.323   3.969
34658W        W 5258  20.039  18.300   3.770
34659W        W 5259  19.701  36.124   3.030
34660W        W 5260   2.605  29.849   4.640
34661W        W 5261  14.159  19.208   1.294
34662W        W 5262   9.828  18.926   2.021
34663W        W 5263   7.616  11.658  14.283
34664W        W 5264  38.939  29.626  11.273
34665W        W 5265  23.728  25.677   3.208
34666W        W 5266  27.694  42.490   3.782
34667W        W 5267   8.741  34.287   4.159
34668W        W 5268  37.909   0.067   0.056
34669W        W 5269  11.313  40.954  13.934
34670W        W 5270  25.684  19.555   2.270
34671W        W 5271   9.426  26.962  14.947
34672W        W 5272  40.763  24.589   1.792
34673W        W 5273   2.084  11.530  10.433
34674W        W 5274  16.691  41.445   4.314
34675W        W 5275  38.389   5.959  12.987
34676W        W 5276  12.361  28.361   3.167
34677W        W 5277   9.613  35.522   2.611
34678W        W 5278  26.198  35.846   1.934
34679W        W 5279  22.466  25.889  14.910
34680W        W 5280  13.325  41.065   9.835
34681W        W 5281  39.542  29.854   3.672
34682W        W 5282  11.633  20.011  14.008
34683W        W 5283  29.407  11.135  12.377
34684W        W 5284  35.071  34.968   3.763
34685W        W 5285  16.546  28.946  12.027
34686W        W 5286  26.657  42.753   3.053
34687W        W 5287  17.275  37.336  11.664
34688W        W 5288  12.207  15.391   0.761
34689W        W 5289  15.914  16.694   0.261
34690W        W 5290  33.641   1.448  13.920
34691W        W 5291   8.656  21.495  13.384
34692W        W 5292  24.692   7.791   0.479
34693W        W 5293  10.124  40.478   3.292
34694W        W 5294  35.137  27.355   4.989
34695W        W 5295   7.179  31.214   4.518
34696W        W 5296  13.229   3.287  11.672
34697W        W 5297  11.680  20.677   3.372
34698W        W 5298  36.086  23.791  11.582
34699W        W 5299  33.498   3.971   2.420
34700W        W 5300  33.881   7.311  10.876
34701W        W 5301  21.189  14.898  11.838
34702W        W 5302   8.761  28.596   3.628
34703W        W 5303  38.307  11.865   1.348
34704W        W 5304   0.218  22.665  11.458
34705W        W 5305  35.390  17.660  10.809
34706W        W 5306  14.556  40.667   4.084
34707W        W 5307  16.594  30.593  10.980
34708W        W 5308  18.501  36.383  12.206
34709W        W 5309  32.645  15.403  13.951
34710W        W 5310   3.297   8.708  12.103
34711W        W 5311  31.036  30.876  14.808
34712W        W 5312   7.409  22.003  13.889
34713W        W 5313  43.154   8.497  13.176
34714W        W 5314  42.068   8.866  11.924
34715W        W 5315  17.626  12.434   1.649
34716W        W 5316  19.617  32.714   2.231
34717W        W 5317   5.478   4.917  14.925
34718W        W 5318  32.174  11.266  13.448
34719W        W 5319  24.842  38.670  11.100
34720W        W 5320  20.115  24.489   0.338
34721W        W 5321  44.845  17.262   3.681
34722W        W 5322  21.844  24.180  14.799
34723W        W 5323  40.259   8.065   2.220
34724W        W 5324  42.822  37.094  11.486
34725W        W 5325  44.468   1.887   4.079
34726W        W 5326  42.338  25.171   2.572
34727W        W 5327  32.936  44.036  11.716
34728W        W 5328  26.430   9.685   3.271
34729W        W 5329  11.295  13.794   2.318
34730W        W 5330  23.031  42.384   2.659
34731W        W 5331  44.473  25.603  11.518
34732W        W 5332  18.409  13.105   3.587
34733W        W 5333   5.227  16.733   3.391
34734W        W 5334  18.172  30.641  11.689
34735W        W 5335  40.336  16.496   4.534
34736W        W 5336  23.854  27.749   1.867
34737W        W 5337  39.084  10.072   1.884
34738W        W 5338   8.327  10.821   0.756
34739W        W 5339  18.206   1.911   2.013
34740W        W 5340  23.173  30.417   2.743
34741W        W 5341  33.767  33.604   0.514
34742W        W 5342  20.619  22.548  10.306
34743W        W 5343  34.740   6.360   0.786
34744W        W 5344  42.475  39.361  13.973
34745W        W 5345   8.105  15.648  10.918
34746W        W 5346  39.504   7.419   1.247
34747W        W 5347  22.172   2.533  14.718
34748W        W 5348  37.362   5.691   1.215
34749W        W 5349  30.522  13.129   0.878
34750W        W 5350  17.180   8.167  12.366
34751W        W 5351  11.174   3.792  12.908
34752W        W 5352   0.415  38.236   1.379
34753W        W 5353   1.117   5.524  12.058
34754W        W 5354  19.300   8.284  13.608
34755W        W 5355  19.587  32.942   3.191
34756W        W 5356  40.120  37.955   0.906
34757W        W 5357  31.144  35.101   2.252
34758W        W 5358  31.520  26.002  13.220
34759W        W 5359  16.333  37.489  11.435
34760W        W 5360  27.480  34.659  11.626
34761W        W 5361  36.040  31.974  13.157
34762W        W 5362  41.429   0.907   2.124
34763W        W 5363  38.587  34.941  11.574
34764W        W 5364  37.024  36.387   2.816
34765W        W 5365  43.828  12.502  12.467
34766W        W 5366  38.845  41.240  14.900
34767W        W 5367   6.229  30.133   2.896
34768W        W 5368  22.504   5.881   1.848
34769W        W 5369  31.637  34.655   1.365
34770W        W 5370  25.977  44.312  14.674
34771W        W 5371  21.027  39.968  12.907
34772W        W 5372  35.144  25.166   1.732
34773W        W 5373   0.731   5.743   3.475
34774W        W 5374  31.605  15.450  11.611
34775W        W 5375  44.257  18.552   1.794
34776W        W 5376   4.448  14.759   1.395
34777W        W 5377  34.337   8.880  14.364
34778W        W 5378  31.105   3.795  12.950
34779W        W 5379  40.694   9.324  11.823
34780W        W 5380   3.845  38.807  14.393
34781W        W 5381  38.356  39.993   0.775
34782W        W 5382  12.649  36.915  11.158
34783W        W 5383  33.549  43.472   0.998
34784W        W 5384  19.245   2.562  11.210
34785W        W 5385   4.765  22.104   3.155
34786W        W 5386  44.481  22.254   2.329
34787W        W 5387   1.767  13.755   3.651
34788W        W 5388  29.875  39.471   0.903
34789W        W 5389  35.366  12.231   1.231
34790W        W 5390   8.838  13.721   1.955
34791W        W 5391  37.868   9.894   1.495
34792W        W 5392   8.970  19.679   2.902
34793W        W 5393  18.660  44.322   5.038
34794W        W 5394   1.345  10.182  14.484
34795W        W 5395  37.120  30.504   3.240
34796W        W 5396  20.410  33.221   0.446
34797W        W 5397   5.268  21.592   4.267
34798W        W 5398  39.588  30.752  10.766
34799W        W 5399   0.962  29.848   1.055
34800W        W 5400  18.087  37.315  12.014
34801W        W 5401  13.738  27.897   1.298
34802W        W 5402  24.404  44.734   0.778
34803W        W 5403  18.429  10.024   5.093
34804W        W 5404  42.782  27.213   3.975
34805W        W 5405  16.101  26.540  10.110
34806W        W 5406  25.165  32.978   2.735
34807W        W 5407  13.344   0.981   0.814
34808W        W 5408  10.209  17.773   4.586
34809W        W 5409  44.866  23.414  12.821
34810W        W 5410   8.621   0.902  11.073
34811W        W 5411   6.375  23.908   5.133
34812W        W 5412   3.562   8.172   0.732
34813W        W 5413  19.537  23.046   2.273
34814W        W 5414  11.876  18.785  13.525
34815W        W 5415   0.976  40.867   0.247
34816W        W 5416  34.527   5.723  14.511
34817W        W 5417  18.201   8.620  11.332
34818W        W 5418  31.820  37.267   1.967
34819W        W 5419  32.534  12.397  11.125
34820W        W 5420  14.863  30.476  11.633
34821W        W 5421  20.520  40.392  13.974
34822W        W 5422  30.469  21.077  11.945
34823W        W 5423  10.919  10.192   0.283
34824W        W 5424  26.869   3.498  14.343
34825W        W 5425  37.765  13.223   3.272
34826W        W 5426  16.209  10.359   3.681
34827W        W 5427  44.531  22.422   4.239
34828W        W 5428  10.709   9.709   3.178
34829W        W 5429   3.700  22.110  12.688
34830W        W 5430  43.829  40.365  12.014
34831W        W 5431  38.524  36.989   2.399
34832W        W 5432  30.380  33.608   2.086
34833W        W 5433  38.426  25.034  12.561
34834W        W 5434   8.686  17.804   4.572
34835W        W 5435  37.444  15.103  12.103
34836W        W 5436   4.638  42.775   3.111
34837W        W 5437  11.538  42.490   4.559
34838W        W 5438  31.972  14.291  12.976
34839W        W 5439   0.006   4.244   3.532
34840W        W 5440  40.337  41.830  11.211
34841W        W 5441   2.151  27.501   0.506
34842W        W 5442  17.412  11.339   1.767
34843W        W 5443   2.425  11.163  11.454
34844W        W 5444   9.172   4.179   4.632
34845W        W 5445  40.112  31.426  12.815
34846W        W 5446   0.929  44.083  10.666
34847W        W 5447  26.219   7.816  11.615
34848W        W 5448  18.277  32.120   0.344
34849W        W 5449  12.109  39.046  10.262
34850W        W 5450  22.546  15.368   0.524
34851W        W 5451  42.556  15.163  11.547
34852W        W 5452   1.448  24.997   1.307
34853W        W 5453  25.059  39.939   4.496
34854W        W 5454  20.400  39.959  13.714
34855W        W 5455  24.104   5.082  12.900
34856W        W 5456  16.064  13.094   3.192
34857W        W 5457   4.176  14.127  13.231
34858W        W 5458  35.439  29.526   4.116
34859W        W 5459  43.500  10.797   4.830
34860W        W 5460  31.891  25.563   1.755
34861W        W 5461  37.333   7.368  11.544
34862W        W 5462   1.392  43.442   3.330
34863W        W 5463  14.241  38.111  13.179
34864W        W 5464  18.664  40.214  14.481
34865W        W 5465  24.144  15.228   1.956
34866W        W 5466  38.945  35.177   5.026
34867W        W 5467  43.250  15.008   2.367
34868W        W 5468  36.500  40.602  11.154
34869W        W 5469  15.135  21.478   2.869
34870W        W 5470  11.754   2.496  14.756
34871W        W 5471   7.292   2.440  14.233
34872W        W 5472  12.853   8.131  11.505
34873W        W 5473   0.582  12.301   0.794
34874W        W 5474  30.679  17.652  11.998
34875W        W 5475  11.030  14.444  13.387
34876W        W 5476  42.985  34.029  14.778
34877W        W 5477  41.345  21.463   1.991
34878W        W 5478  16.576  22.068  11.550
34879W        W 5479  20.157  36.574   2.736
34880W        W 5480   4.559  13.866   1.241
34881W        W 5481  42.581  41.074  10.577
34882W        W 5482  31.610  24.373  12.561
34883W        W 5483  27.148   4.210   2.124
34884W        W 5484  32.694  13.624  11.921
34885W        W 5485  18.149  34.170  11.645
34886W        W 5486   6.188  41.533   3.327
34887W        W 5487  26.467   4.846   2.245
34888W        W 5488  32.105  10.889  11.036
34889W        W 5489  29.683  20.226   1.035
34890W        W 5490  21.586  25.063   3.171
34891W        W 5491  32.944  25.513  10.895
34892W        W 5492  28.539  35.122   2.347
34893W        W 5493  35.678  12.403  11.491
34894W        W 5494  23.884  37.382   2.815
34895W        W 5495  29.398  41.467   0.362
34896W        W 5496  33.379  33.280  11.623
34897W        W 5497  26.505   4.746   3.167
34898W        W 5498  26.036  36.662   4.758
34899W        W 5499  22.665  29.116   0.593
34900W        W 5500  22.688  19.999   3.186
34901W        W 5501   3.283  13.811   1.370
34902W        W 5502  15.774  16.591   2.378
34903W        W 5503  34.957  10.753   4.859
34904W        W 5504  28.989  43.796   4.372
34905W        W 5505   7.249  35.357   1.304
34906W        W 5506  31.201  39.335  11.196
34907W        W 5507  27.979  23.269  12.908
34908W        W 5508  33.924  11.727   0.218
34909W        W 5509  12.996  24.848  13.307
34910W        W 5510  13.161  36.954  12.023
34911W        W 5511   9.719  43.411   4.835
34912W        W 5512  14.045  25.442  12.481
34913W        W 5513  44.279   1.138   1.563
34914W        W 5514  40.369  38.117  12.106
34915W        W 5515   4.446  30.397   4.962
34916W        W 5516   0.933  11.726  14.322
34917W        W 5517  35.914  14.221   4.149
34918W        W 5518  32.579  38.535  14.579
34919W        W 5519  36.903   5.874   1.453
34920W        W 5520  30.965  39.849   0.283
34921W        W 5521   2.190  15.189   0.318
34922W        W 5522   8.850  15.165   4.531
34923W        W 5523   3.612   6.724   2.246
34924W        W 5524   3.947   0.770  11.962
34925W        W 5525  34.375  29.549  11.849
34926W        W 5526  10.601   8.753   4.491
34927W        W 5527  11.667  14.706   0.180
34928W        W 5528  36.807  11.325   0.814
34929W        W 5529  13.931  39.543   0.410
34930W        W 5530  38.337  12.750  11.468
34931W        W 5531  20.300  23.109   1.800
34932W        W 5532  39.094   9.259  12.818
34933W        W 5533  40.579   3.729   4.953
34934W        W 5534  16.717  23.955   2.946
34935W        W 5535  41.965  26.743   4.173
34936W        W 5536  37.403  36.554   1.720
34937W        W 5537  16.223  21.838  12.663
34938W        W 5538   4.240  10.727  13.814
34939W        W 5539  34.130  31.730  11.115
34940W        W 5540   5.480  19.197   1.314
34941W        W 5541   8.089  44.332  14.986
34942W        W 5542  19.284  32.947  11.531
34943W        W 5543  13.027   1.204  12.391
34944W        W 5544   8.442   5.200   1.272
34945W        W 5545  44.287  33.336   4.842
34946W        W 5546  21.459  27.570   3.066
34947W        W 5547  41.378   9.888  13.730
34948W        W 5548   3.523  30.533  14.948
34949W        W 5549  34.130  11.431   3.588
34950W        W 5550  30.374  39.528  11.532
34951W        W 5551  21.008  25.741   1.769
34952W        W 5552   0.301  17.550  14.843
34953W        W 5553  26.587   0.520  11.667
34954W        W 5554  26.097  42.996   4.772
34955W        W 5555  23.174  10.883   0.776
34956W        W 5556  39.397  31.911  12.881
34957W        W 5557  37.435   4.940   3.348
34958W        W 5558  42.823  20.287   2.297
34959W        W 5559  36.412  33.631  12.941
34960W        W 5560   1.725  21.930  11.020
34961W        W 5561  32.633  31.708   3.130
34962W        W 5562  17.682   1.694   0.758
34963W        W 5563  38.048  40.021   3.632
34964W        W 5564  44.228  13.857   4.607
34965W        W 5565  19.484   3.313   2.469
34966W        W 5566  23.267  18.322   2.221
34967W        W 5567  25.700   9.110  12.375
34968W        W 5568   2.867  43.754  13.355
34969W        W 5569  44.941   4.722  12.568
34970W        W 5570  26.810  33.652   1.240
34971W        W 5571  26.439  35.806   3.188
34972W        W 5572  12.138  17.360   3.250
34973W        W 5573  38.656  23.626  10.725
34974W        W 5574   1.555  22.746  13.416
34975W        W 5575  41.836   9.595   2.109
34976W        W 5576   2.293  29.110  14.526
34977W        W 5577   6.796   1.603   3.339
34978W        W 5578  33.867  16.155  11.523
34979W        W 5579   8.309  40.442   2.945
34980W        W 5580  41.545  32.421  14.956
34981W        W 5581  33.338  15.562  11.080
34982W        W 5582  25.677  28.147  13.660
34983W        W 5583   2.983   0.368   4.890
34984W        W 5584  44.424  15.294   1.832
34985W        W 5585  22.421  14.661  13.058
34986W        W 5586  35.007  32.599   1.470
34987W        W 5587  31.862  19.222  10.803
34988W        W 5588  34.887  35.620   4.259
34989W        W 5589  40.848   6.996  11.553
34990W        W 5590  43.120  19.572  13.363
34991W        W 5591  17.297   6.485   2.817
34992W        W 5592  26.412  11.370   3.745
34993W        W 5593  30.913  35.422  13.093
34994W        W 5594   6.926   1.661  13.449
34995W        W 5595  12.233  35.453  13.250
34996W        W 5596  16.036  32.452   2.738
34997W        W 5597  11.332   5.828  10.722
34998W        W 5598  18.223   6.206  13.568
34999W        W 5599  16.298  16.138  14.399
35000W        W 5600  30.755  11.579   1.050
35001W        W 5601  38.355  14.365   2.013
35002W        W 5602  33.521  26.451  13.823
35003W        W 5603  23.625  23.151   1.342
35004W        W 5604  19.321  41.830  12.166
35005W        W 5605   6.665  21.797   3.251
35006W        W 5606  44.254  37.929  10.958
35007W        W 5607  44.048  11.729  12.195
35008W        W 5608  44.293   0.501   3.895
35009W        W 5609  23.204  42.457  12.434
35010W        W 5610  39.785  31.430   2.408
35011W        W 5611   2.017  12.409  14.413
35012W        W 5612  11.901   2.300   0.377
35013W        W 5613   7.369  35.475  14.112
35014W        W 5614  14.080   1.698   0.825
35015W        W 5615  35.509  18.537   2.880
35016W        W 5616  17.233  17.494   4.209
35017W        W 5617  34.852   5.293  12.647
35018W        W 5618   0.260   5.850  12.943
35019W        W 5619  17.307  33.479  11.547
35020W        W 5620  16.625   9.796  12.936
35021W        W 5621  26.557   2.681  12.448
35022W        W 5622   4.762  26.533  14.731
35023W        W 5623  26.698  22.470   2.414
35024W        W 5624  22.121  24.322   1.572
35025W        W 5625  27.220  40.855  10.673
35026W        W 5626  10.150  35.920   4.101
35027W        W 5627  11.630   6.738   1.855
35028W        W 5628  22.987  42.541   5.011
35029W        W 5629  28.514  38.298  10.303
35030W        W 5630  44.326  32.895  11.770
35031W        W 5631  21.184   9.672  10.717
35032W        W 5632  32.830  33.463   1.839
35033W        W 5633  29.512  28.548   0.996
35034W        W 5634  37.446  24.433  10.650
35035W        W 5635  10.365  20.977  14.071
35036W        W 5636  25.928  35.382  11.072
35037W        W 5637   6.311  35.135   4.236
35038W        W 5638  33.863  34.479  14.869
35039W        W 5639   7.787  41.581  12.450
35040W        W 5640  10.700  16.032   2.264
35041W        W 5641  34.945  35.569  14.102
35042W        W 5642  34.151  12.718   4.033
35043W        W 5643  11.617  16.151  11.237
35044W        W 5644  35.768  42.560   4.554
35045W        W 5645  11.519  44.173  10.968
35046W        W 5646  24.908  22.946  12.120
35047W        W 5647  13.593  33.898   2.272
35048W        W 5648  14.773  44.423   3.255
35049W        W 5649  22.650   5.255   1.211
35050W        W 5650  42.840  20.560  14.208
35051W        W 5651  39.948  12.800   4.498
35052W        W 5652  36.591  10.795   2.724
35053W        W 5653  44.864  36.616  12.834
35054W        W 5654  35.395  28.127  14.747
35055W        W 5655  17.154  15.700   1.711
35056W        W 5656  18.711  44.322   1.267
35057W        W 5657  42.447  13.708   2.401
35058W        W 5658  44.572   2.764  14.223
35059W        W 5659  43.389  32.646  13.879
35060W        W 5660  32.530  38.499   1.025
35061W        W 5661  24.441  25.441  13.976
35062W        W 5662   2.761  43.795   2.810
35063W        W 5663  27.473  34.433   2.747
35064W        W 5664   0.832  39.878  11.094
35065W        W 5665   1.894  25.344   0.403
35066W        W 5666  30.469  37.951   1.304
35067W        W 5667  27.874  10.279  11.580
35068W        W 5668  21.525   2.749  11.446
35069W        W 5669  21.793  26.043   0.118
35070W        W 5670   6.215   9.422   1.767
35071W        W 5671  27.198  15.076   4.236
35072W        W 5672  11.296  36.314   3.610
35073W        W 5673  19.292  11.312  12.062
35074W        W 5674  28.499  22.149   2.850
35075W        W 5675  33.110  18.915  11.145
35076W        W 5676  43.230  36.850  14.862
35077W        W 5677  42.537   0.418   0.986
35078W        W 5678  28.327  41.562   1.912
35079W        W 5679  21.937  33.865  12.488
35080W        W 5680   4.802  24.527  13.563
35081W        W 5681  20.817  23.121   1.748
35082W        W 5682  26.590  32.038   2.831
35083W        W 5683  41.876  30.240   4.649
35084W        W 5684  24.384  14.190   1.868
35085W        W 5685  39.371  13.071   4.035
35086W        W 5686  16.840  39.540   1.906
35087W        W 5687  10.846  21.786  13.862
35088W        W 5688  13.438  37.885   3.827
35089W        W 5689   3.030  40.488   1.195
35090W        W 5690  18.291  34.280   2.853
35091W        W 5691  33.218  13.813  14.787
35092W        W 5692   9.742  39.993  13.283
35093W        W 5693  35.513  14.163  11.286
35094W        W 5694   4.524   8.473   2.484
35095W        W 5695  19.154  34.526  14.110
35096W        W 5696   6.630   6.239  13.170
35097W        W 5697  15.555   6.729  12.157
35098W        W 5698  32.114  34.818   9.935
35099W        W 5699  33.986  20.605   2.459
35100W        W 5700  34.239  27.679   1.534
35101W        W 5701  25.244  36.811   4.014
35102W        W 5702   5.869   4.173  14.848
35103W        W 5703  14.326  36.366   1.274
35104W        W 5704  20.249  39.765  10.771
35105W        W 5705  15.186  39.291  11.135
35106W        W 5706  28.284  15.987  13.077
35107W        W 5707  35.178   3.031   3.961
35108W        W 5708  25.093  30.869   4.365
35109W        W 5709  35.434   7.376   4.949
35110W        W 5710  25.882   7.605   5.091
35111W        W 5711  17.808   2.682  13.025
35112W        W 5712  17.992  29.259  13.955
35113W        W 5713  41.117   5.893   2.375
35114W        W 5714  44.297   2.872   3.596
35115W        W 5715   1.239  23.540  10.638
35116W        W 5716  18.700  42.830   0.315
35117W        W 5717  44.388  25.703   0.982
35118W        W 5718   6.317  33.622  10.928
35119W        W 5719  31.883   9.365   2.452
35120W        W 5720  44.462  16.716   1.201
35121W        W 5721   8.771  42.607  12.984
35122W        W 5722   0.045  25.396  13.263
35123W        W 5723  37.184  22.151  14.348
35124W        W 5724  29.284  10.644  11.675
35125W        W 5725   1.501  43.947   3.133
35126W        W 5726   1.436  31.617   1.316
35127W        W 5727  41.204   3.665   4.176
35128W        W 5728  12.137  27.577   0.249
35129W        W 5729  24.580   7.435  12.340
35130W        W 5730  41.752  37.059   3.683
35131W        W 5731   3.279  28.930  14.274
35132W        W 5732   9.457   8.393  13.136
35133W        W 5733  36.997  18.503  12.087
35134W        W 5734  33.112  24.671  13.005
35135W        W 5735  37.941  15.035   0.389
35136W        W 5736  29.459   4.987  12.448
35137W        W 5737   2.932   3.267   4.664
35138W        W 5738   1.500   6.207   0.708
35139W        W 5739  32.044  28.710   3.173
35140W        W 5740  14.790  26.114   4.343
35141W        W 5741  21.807  24.864  13.576
35142W        W 5742  19.067  40.349   1.819
35143W        W 5743  32.057  30.295   3.303
35144W        W 5744  30.941  27.515  13.382
35145W        W 5745  27.623  23.610  13.064
35146W        W 5746   0.684  18.138  10.299
35147W        W 5747  42.813  25.508   4.130
35148W        W 5748  13.275  22.249   1.827
35149W        W 5749   7.700  44.463  10.742
35150W        W 5750  38.182   6.919  11.189
35151W        W 5751  32.447  30.424   0.890
35152W        W 5752  12.406  29.709  12.359
35153W        W 5753   4.791  10.360   2.256
35154W        W 5754   3.102  18.870  13.076
35155W        W 5755  26.780  38.165   0.656
35156W        W 5756  44.046   3.654  11.409
35157W        W 5757  21.087  37.766  14.920
35158W        W 5758  30.669  20.265   4.746
35159W        W 5759  34.648  17.439   0.377
35160W        W 5760  15.704  42.275   4.139
35161W        W 5761   6.255  35.961   0.218
35162W        W 5762   7.173   4.880  12.798
35163W        W 5763   1.770  11.386   4.137
35164W        W 5764   4.722  35.342   2.312
35165W        W 5765  17.967  23.693   0.638
35166W        W 5766  41.479  12.764   1.988
35167W        W 5767   7.540  16.948   3.213
35168W        W 5768  31.823  37.446  11.921
35169W        W 5769  22.917  43.847   4.544
35170W        W 5770  19.203  17.524   3.846
35171W        W 5771   0.765   4.354  14.549
35172W        W 5772  11.827  17.264   2.743
35173W        W 5773  21.626  31.834  14.888
35174W        W 5774  20.852   9.718   2.286
35175W        W 5775  27.132   3.461  13.886
35176W        W 5776  16.660  25.528   1.868
35177W        W 5777   4.868  11.467   1.441
35178W        W 5778  41.488  40.017  13.805
35179W        W 5779   1.010  39.151   3.644
35180W        W 5780  20.501  40.799  13.102
35181W        W 5781  39.569  30.092  14.340
35182W        W 5782  35.038   5.989  10.322
35183W        W 5783  39.884   2.356   2.310
35184W        W 5784   9.837  36.379  10.454
35185W        W 5785  18.262   4.005  14.252
35186W        W 5786  30.155  11.102   2.728
35187W        W 5787  41.742  11.706   0.350
35188W        W 5788  26.521  12.042  11.187
35189W        W 5789  27.573  13.692  12.927
35190W        W 5790  30.077   8.994  14.476
35191W        W 5791  24.138  42.881  10.744
35192W        W 5792   1.098   9.324  11.618
35193W        W 5793  19.610  29.896  13.589
35194W        W 5794  21.654  10.299  11.611
35195W        W 5795  26.694  12.587  13.765
35196W        W 5796  21.509   1.537  13.842
35197W        W 5797   5.009  19.142   3.189
35198W        W 5798  23.103  23.810  11.996
35199W        W 5799   7.388  26.715  14.431
35200W        W 5800  40.674  20.142  12.155
35201W        W 5801   4.446  40.280   4.197
35202W        W 5802  12.609  31.021   4.045
35203W        W 5803  28.004  22.618   5.065
35204W        W 5804  30.659  11.143   0.285
35205W        W 5805  35.070  39.569  14.332
35206W        W 5806   1.406  18.992  12.085
35207W        W 5807   7.802  22.678  11.901
35208W        W 5808  43.418  12.264   2.827
35209W        W 5809  25.576   6.056   1.411
35210W        W 5810  31.289   0.574   1.777
35211W        W 5811  41.467   6.260   2.188
35212W        W 5812  35.136  42.839  10.365
35213W        W 5813  29.054  27.090   3.608
35214W        W 5814  27.116  22.457  11.078
35215W        W 5815  22.987  14.701   1.540
35216W        W 5816  28.144   9.714   0.469
35217W        W 5817  11.742  10.142   1.713
35218W        W 5818  16.651  31.667   4.174
35219W        W 5819  31.907  25.258   5.164
35220W        W 5820  32.438  39.687  14.797
35221W        W 5821   8.803  19.306   2.247
35222W        W 5822  28.446   0.380  12.145
35223W        W 5823   6.153  25.049   3.288
35224W        W 5824  26.531  22.020   2.183
35225W        W 5825  21.061  37.026   0.739
35226W        W 5826   0.451  10.792  11.113
35227W        W 5827  26.845   4.052   1.721
35228W        W 5828  36.401  38.190   2.799
35229W        W 5829   8.111  23.876   4.120
35230W        W 5830  37.677  41.348   2.048
35231W        W 5831   5.907  31.905  12.030
35232W        W 5832  40.017  39.368  11.990
35233W        W 5833  15.835  30.020   2.198
35234W        W 5834  39.424   6.252  12.582
35235W        W 5835  38.352  37.928   4.280
35236W        W 5836  44.957  12.304   1.907
35237W        W 5837   2.659   8.271   4.203
35238W        W 5838  35.141   1.331   0.944
35239W        W 5839  20.272   9.005   2.329
35240W        W 5840  34.914  11.149   1.640
35241W        W 5841   2.811  23.035  14.814
35242W        W 5842  17.218  32.435   4.540
35243W        W 5843   9.413  24.521  11.662
35244W        W 5844  40.507  44.475   0.389
35245W        W 5845  13.537  23.212   0.348
35246W        W 5846  24.718  41.501  12.454
35247W        W 5847  31.443  26.202  11.937
35248W        W 5848  37.029  16.523  11.919
35249W        W 5849   7.121  38.912   0.565
35250W        W 5850  33.117  25.755   4.288
35251W        W 5851  36.827  35.452  14.950
35252W        W 5852  32.571  26.217   1.126
35253W        W 5853  19.621   8.799  12.410
35254W        W 5854  21.390  16.782  14.827
35255W        W 5855  36.836  24.923  11.123
35256W        W 5856  12.086   1.090   3.257
35257W        W 5857  11.241  11.692  13.954
35258W        W 5858  41.439  19.709  13.088
35259W        W 5859  39.345  23.558   1.300
35260W        W 5860   4.764  24.140   0.041
35261W        W 5861  42.935   1.446   1.932
35262W        W 5862  18.018   1.823   4.732
35263W        W 5863   4.726   6.137   4.096
35264W        W 5864  20.870  12.910  10.387
35265W        W 5865  26.024  18.571  13.682
35266W        W 5866  35.759   4.488   3.937
35267W        W 5867  37.260  39.850   4.581
35268W        W 5868  29.015  33.100   2.287
35269W        W 5869  44.200  22.160  10.603
35270W        W 5870   4.942  34.872  10.183
35271W        W 5871  33.552   4.243   4.613
35272W        W 5872  29.537   6.808  10.919
35273W        W 5873  42.416   7.027   3.840
35274W        W 5874   0.432  29.721  11.435
35275W        W 5875  24.503  38.056  12.384
35276W        W 5876  22.415   3.657  13.423
35277W        W 5877  37.360  29.680  13.007
35278W        W 5878  41.031   8.920   4.964
35279W        W 5879  22.171  23.079   1.129
35280W        W 5880  44.719   1.388   2.328
35281W        W 5881  40.554  30.711  10.898
35282W        W 5882   1.028   0.178  11.829
35283W        W 5883   0.470  41.290  12.646
35284W        W 5884   8.901  25.636   3.073
35285W        W 5885  27.353  34.883   2.478
35286W        W 5886  25.197  27.166  11.617
35287W        W 5887  31.114  13.776   1.743
35288W        W 5888  29.018   0.494  13.761
35289W        W 5889  22.196  17.273   0.089
35290W        W 5890  17.556   7.967   3.188
35291W        W 5891   6.381   1.768   0.628
35292W        W 5892  19.467  16.596  11.506
35293W        W 5893  35.243  11.274  11.747
35294W        W 5894  32.809  30.383   0.063
35295W        W 5895  24.835  17.305  13.432
35296W        W 5896  40.813  22.764  11.633
35297W        W 5897   1.386   5.932   3.838
35298W        W 5898  29.989  39.323  13.518
35299W        W 5899  40.504  44.171  11.904
35300W        W 5900  14.573  20.365   1.770
35301W        W 5901  17.927  34.112  12.484
35302W        W 5902   1.526  36.304  11.249
35303W        W 5903   1.788   7.603  11.369
35304W        W 5904  38.702  18.325  13.052
35305W        W 5905  13.666  25.438   3.131
35306W        W 5906  10.741  12.695  13.101
35307W        W 5907  17.466  19.135   2.767
35308W        W 5908   7.486  19.386   5.057
35309W        W 5909  39.561  16.081   2.179
35310W        W 5910  35.115  44.321  14.867
35311W        W 5911  16.297  11.254  11.629
35312W        W 5912  36.631  22.950   0.148
35313W        W 5913  14.713  25.170   3.148
35314W        W 5914   2.255  16.569   4.614
35315W        W 5915   2.727  21.549  13.288
35316W        W 5916   9.403  34.542   3.211
35317W        W 5917  38.030   4.068  13.468
35318W        W 5918  29.343  23.181  11.303
35319W        W 5919   5.961  29.117   4.720
35320W        W 5920  11.210  27.006   1.318
35321W        W 5921   8.160  37.406  14.541
35322W        W 5922  43.259  44.738   2.316
35323W        W 5923  21.783   7.461   1.293
35324W        W 5924   8.615  27.278  12.675
35325W        W 5925  14.395  14.656   2.701
35326W        W 5926   5.240   9.135   4.235
35327W        W 5927  19.737   6.316  10.887
35328W        W 5928   2.741  35.621   3.040
35329W        W 5929   2.558  21.114   3.206
35330W        W 5930  27.800  42.409  13.249
35331W        W 5931  20.778   1.007   4.595
35332W        W 5932  38.554  44.058  12.920
35333W        W 5933  17.702   4.292  12.269
35334W        W 5934  44.748   7.160  14.229
35335W        W 5935  17.669  44.765   3.093
35336W        W 5936  20.639  38.066  14.903
35337W        W 5937   0.957  31.842  12.002
35338W        W 5938  21.358  32.414   0.756
35339W        W 5939  14.425  18.465   1.916
35340W        W 5940  38.423  20.575   2.349
35341W        W 5941  43.687  30.123  14.024
35342W        W 5942  14.013  26.835   5.131
35343W        W 5943   0.150  26.491  13.975
35344W        W 5944  12.167  39.897   0.258
35345W        W 5945  17.989  24.790   5.275
35346W        W 5946   8.237  32.361  12.422
35347W        W 5947  24.667  11.913   4.358
35348W        W 5948   0.968  34.012  10.203
35349W        W 5949  34.947   7.648   1.411
35350W        W 5950  29.630  38.480   2.103
35351W        W 5951   0.942  21.353   2.462
35352W        W 5952  16.666  20.313  11.065
35353W        W 5953   0.175  21.724  14.528
35354W        W 5954  30.638  31.185  14.678
35355W        W 5955   0.792  27.153  13.136
35356W        W 5956  33.620   1.925   5.035
35357W        W 5957  25.366   7.399  11.140
35358W        W 5958  23.593  25.224   2.320
35359W        W 5959  11.116  21.988  12.463
35360W        W 5960   1.243  32.841   1.767
35361W        W 5961  34.353  12.628   1.840
35362W        W 5962  44.302   6.889  12.533
35363W        W 5963  12.690  15.315  10.343
35364W        W 5964  36.733  29.708   5.084
35365W        W 5965  28.007  19.863  11.991
35366W        W 5966  14.354  30.320   2.316
35367W        W 5967  25.182  31.562  10.655
35368W        W 5968  16.163  27.100  11.703
35369W        W 5969  11.980  11.786  14.843
35370W        W 5970   1.089  27.849  12.963
35371W        W 5971   7.957   9.103   1.177
35372W        W 5972  21.477  42.788  13.447
35373W        W 5973  34.445  32.168   3.545
35374W        W 5974  31.125  37.369   5.139
35375W        W 5975   2.862  18.728   2.236
35376W        W 5976  31.210  33.614  10.627
35377W        W 5977  28.210  35.621   2.754
35378W        W 5978  25.716   1.747   0.776
35379W        W 5979  30.358  44.955   4.688
35380W        W 5980  43.952   9.634  10.748
35381W        W 5981  44.214  16.649   1.638
35382W        W 5982  20.673  24.137  14.265
35383W        W 5983  34.530  32.061   4.895
35384W        W 5984  15.263  44.309   1.940
35385W        W 5985  38.069   9.311  12.994
35386W        W 5986  34.562  19.104   2.044
35387W        W 5987  17.838  17.731  11.701
35388W        W 5988   2.034  15.625   1.327
35389W        W 5989  10.590   6.393   0.802
35390W        W 5990  31.872  34.093   0.968
35391W        W 5991   5.685  42.757   4.552
35392W        W 5992  29.916   5.486  12.614
35393W        W 5993  22.684  17.284   0.318
35394W        W 5994   3.528  38.546  11.000
35395W        W 5995   5.085  37.342  11.682
35396W        W 5996  23.464   0.951   2.600
35397W        W 5997  27.553  27.077  12.601
35398W        W 5998  25.011  18.647  10.474
35399W        W 5999  27.968  39.440  14.849
35400W        W 6000  29.565  26.514  10.593
35401W        W 6001  18.254  34.132   3.351
35402W        W 6002  40.773  15.817  14.317
35403W        W 6003  43.299  19.161   1.416
35404W        W 6004  39.371  34.656  13.138
35405W        W 6005   9.359  26.395  11.686
35406W        W 6006  32.478   4.816  10.126
35407W        W 6007  32.050  13.530   3.707
35408W        W 6008  42.416  12.821   3.482
35409W        W 6009  32.320  44.482  12.941
35410W        W 6010  18.609  31.082  11.730
35411W        W 6011  44.768  18.004  12.495
35412W        W 6012   9.620  12.773   2.252
35413W        W 6013  36.609  37.766  13.435
35414W        W 6014   5.099  14.925   2.855
35415W        W 6015   8.830  18.222   1.909
35416W        W 6016   5.814   4.943  14.534
35417W        W 6017  43.804   2.783  10.725
35418W        W 6018  37.022  37.340  10.879
35419W        W 6019  42.796  39.137   2.067
35420W        W 6020  35.208  24.306   3.579
35421W        W 6021   1.991  10.855   0.897
35422W        W 6022  10.735   4.350   0.971
35423W        W 6023  10.158   0.728   3.252
35424W        W 6024  17.295   2.814   2.137
35425W        W 6025   7.899  14.734   1.745
35426W        W 6026  23.447  31.762  11.983
35427W        W 6027   3.931   6.826  14.683
35428W        W 6028  39.518  19.310  13.546
35429W        W 6029   6.322  38.297  12.429
35430W        W 6030   1.828  29.941  11.522
35431W        W 6031  19.748  37.063   1.325
35432W        W 6032  20.549   3.226   4.992
35433W        W 6033  23.357  31.841   3.275
35434W        W 6034  12.524  22.462  11.708
35435W        W 6035  22.113  24.536  13.342
35436W        W 6036   4.908  22.276  11.070
35437W        W 6037   0.463   0.851  12.040
35438W        W 6038  27.342  40.987  11.553
35439W        W 6039  38.873  18.254  10.743
35440W        W 6040   7.404  36.555   3.722
35441W        W 6041   5.951  40.901  13.157
35442W        W 6042  33.866  11.262   3.189
35443W        W 6043  36.486  41.530   1.382
35444W        W 6044  20.323  21.063   2.178
35445W        W 6045  25.572  17.380   0.910
35446W        W 6046  39.615  38.462   1.856
35447W        W 6047   0.023  13.810  12.501
35448W        W 6048  43.296  13.172   4.946
35449W        W 6049  24.012  10.720   4.396
35450W        W 6050  37.737  25.296   3.495
35451W        W 6051  19.636  33.027  14.358
35452W        W 6052  42.113   8.879  13.398
35453W        W 6053  12.753  27.782  11.870
35454W        W 6054  16.659   1.818   4.923
35455W        W 6055   2.689  40.975   2.902
35456W        W 6056  11.552  36.375  13.269
35457W        W 6057  31.467  25.579   3.542
35458W        W 6058  11.117   6.574   0.760
35459W        W 6059  36.496  19.065   4.653
35460W        W 6060  39.594  34.390  12.046
35461W        W 6061  18.297  39.551   2.736
35462W        W 6062   0.914  29.537  12.264
35463W        W 6063  42.225  26.525   1.798
35464W        W 6064   7.197  22.589  13.034
35465W        W 6065   0.741  12.772   1.025
35466W        W 6066  39.807   0.950   3.200
35467W        W 6067   1.339  15.781   0.022
35468W        W 6068  15.390  22.502  13.449
35469W        W 6069  34.570  30.155  12.001
35470W        W 6070  36.366  22.542  12.143
35471W        W 6071  41.480  13.981  11.492
35472W        W 6072   4.372   5.334  13.290
35473W        W 6073  21.752  16.280   2.007
35474W        W 6074  39.475  37.623   0.428
35475W        W 6075   1.816  43.942  12.799
35476W        W 6076  13.597  28.306  14.313
35477W        W 6077  27.522  30.113   0.403
35478W        W 6078   2.234  10.129  14.507
35479W        W 6079  21.763  38.538  12.155
35480W        W 6080  26.430  39.856   1.328
35481W        W 6081   9.529  31.658  14.240
35482W        W 6082  14.692   9.423   2.420
35483W        W 6083  27.117  11.253  14.789
35484W        W 6084  31.213  39.104  14.096
35485W        W 6085  41.917  31.091   3.299
35486W        W 6086  33.862  24.995   1.224
35487W        W 6087  33.079  38.144   3.818
35488W        W 6088  36.453  30.527   0.748
35489W        W 6089  34.438  40.346   1.510
35490W        W 6090  39.221   3.121   3.687
35491W        W 6091  36.588  19.575   0.978
35492W        W 6092  28.060  12.228  14.918
35493W        W 6093  28.254  26.502  11.113
35494W        W 6094  36.989  15.461   1.254
35495W        W 6095  41.077  23.801  11.700
35496W        W 6096  10.155  15.996  12.017
35497W        W 6097  33.011   7.140  12.505
35498W        W 6098   7.250  37.153  13.112
35499W        W 6099  22.020  31.650  13.538
35500W        W 6100   7.327   8.081  11.147
35501W        W 6101   8.294  13.741  13.288
35502W        W 6102  18.669  40.506   0.301
35503W        W 6103   8.759   9.151   3.063
35504W        W 6104  37.057  18.037   0.689
35505W        W 6105  25.139   7.341  10.672
35506W        W 6106  39.481  16.625   4.783
35507W        W 6107   7.694  17.521   0.569
35508W        W 6108  42.844  29.037  13.830
35509W        W 6109  13.801  42.332   1.385
35510W        W 6110  28.143  15.156   0.574
35511W        W 6111  12.172  15.591   4.528
35512W        W 6112  30.466  35.112  11.249
35513W        W 6113   4.368  20.998  11.143
35514W        W 6114  18.204   6.274  13.045
35515W        W 6115   7.718  41.563   2.819
35516W        W 6116  44.679  36.056   2.465
35517W        W 6117  34.915  37.378   0.338
35518W        W 6118   7.742   0.282  14.258
35519W        W 6119  11.811  26.640   3.297
35520W        W 6120  38.878  17.544   0.460
35521W        W 6121  12.203  17.552  12.551
35522W        W 6122  35.446  14.750  14.822
35523W        W 6123   6.574  21.217   2.789
35524W        W 6124  14.399  37.733   0.210
35525W        W 6125  20.192  19.797   1.796
35526W        W 6126   9.379  27.764  13.360
35527W        W 6127  16.563  32.620   1.393
35528W        W 6128  11.724  14.088  14.238
35529W        W 6129   6.302  15.250   4.816
35530W        W 6130  18.381  20.048  13.966
35531W        W 6131   4.236  23.491  12.921
35532W        W 6132  28.727  24.625   4.445
35533W        W 6133  24.710  40.997  14.129
35534W        W 6134  33.389  34.523   2.668
35535W        W 6135  10.223  19.078   0.237
35536W        W 6136  17.175  15.342   3.230
35537W        W 6137  37.867  19.637   2.277
35538W        W 6138  42.369  32.146  14.763
35539W        W 6139  28.858  25.586   3.801
35540W        W 6140  41.067  25.467  13.789
35541W        W 6141   1.851  18.088   3.305
35542W        W 6142  29.543  35.706   1.871
35543W        W 6143  35.032   8.401   3.736
35544W        W 6144  32.404  27.099   2.736
35545W        W 6145  32.533   5.028   3.899
35546W        W 6146  39.862  41.484   4.296
35547W        W 6147  39.972  16.639  14.046
35548W        W 6148  36.032  31.480  12.893
35549W        W 6149  39.704  14.671   0.968
35550W        W 6150  20.295  37.845   1.489
35551W        W 6151  24.404  21.830   2.693
35552W        W 6152  11.857  38.999  13.878
35553W        W 6153   1.428  26.390   4.037
35554W        W 6154  19.693  31.468  11.653
35555W        W 6155   6.838  17.858  14.277
35556W        W 6156  10.148  35.751   4.994
35557W        W 6157  18.122  24.152   1.907
35558W        W 6158  31.744  36.475   4.615
35559W        W 6159   0.701   6.829   4.187
35560W        W 6160  26.526   4.692  11.030
35561W        W 6161  21.032   9.394  12.472
35562W        W 6162  29.861  20.214  12.286
35563W        W 6163   1.946  32.948  11.895
35564W        W 6164  11.837  13.137  14.735
35565W        W 6165  42.746   2.010   0.751
35566W        W 6166  34.350  16.123  14.246
35567W        W 6167  28.052  27.734  10.643
35568W        W 6168  25.159  37.085   3.091
35569W        W 6169  35.566  13.513  14.321
35570W        W 6170  10.688  13.776   1.014
35571W        W 6171  26.540  38.462  13.442
35572W        W 6172  14.790  23.664   2.298
35573W        W 6173  17.200  37.313   4.126
35574W        W 6174   7.041   2.836  12.959
35575W        W 6175  27.421   0.384  12.927
35576W        W 6176  34.355  18.235  12.838
35577W        W 6177   9.319   6.914   0.486
35578W        W 6178   6.615   8.639   2.191
35579W        W 6179  37.495  44.691  14.717
35580W        W 6180  32.190  16.072   4.368
35581W        W 6181  37.248   1.970   2.924
35582W        W 6182  28.950  40.395   2.240
35583W        W 6183  31.140  28.608   3.639
35584W        W 6184  43.796  30.109  12.629
35585W        W 6185   4.650  40.960   2.310
35586W        W 6186  33.424  30.347   0.888
35587W        W 6187  14.312  31.480   2.602
35588W        W 6188  39.346  18.595   1.394
35589W        W 6189   4.818   1.195  12.034
35590W        W 6190   1.449  31.590  14.765
35591W        W 6191  40.083  12.122  12.865
35592W        W 6192  27.415  11.531   4.480
35593W        W 6193  13.110  36.060  13.932
35594W        W 6194  34.041   6.200   4.291
35595W        W 6195  42.041  35.144  11.179
35596W        W 6196  41.324  34.921  13.387
35597W        W 6197  28.505  12.216   0.679
35598W        W 6198   2.415  29.153  11.549
35599W        W 6199   0.963  31.285  13.542
35600W        W 6200  20.978  32.007   1.696
35601W        W 6201  32.539  21.728  11.175
35602W        W 6202  17.140  20.717  11.652
35603W        W 6203  42.003  33.823  13.944
35604W        W 6204  32.626  11.616  11.467
35605W        W 6205  14.348  10.320  10.705
35606W        W 6206  42.152   9.338   2.958
35607W        W 6207  19.468  27.036  12.008
35608W        W 6208  28.668  23.268  11.658
35609W        W 6209   8.795  22.710   1.398
35610W        W 6210  39.007  18.994   1.891
35611W        W 6211  25.179  28.008  12.408
35612W        W 6212  44.776  22.789  10.710
35613W        W 6213  37.678   6.346  13.392
35614W        W 6214  27.221  15.766  14.506
35615W        W 6215  33.969   6.222   3.254
35616W        W 6216  27.105  35.945  12.639
35617W        W 6217  28.010  26.718  13.890
35618W        W 6218  37.630  43.241  14.171
35619W        W 6219  32.236  19.342  13.986
35620W        W 6220  13.360  13.818   1.706
35621W        W 6221   2.501  16.138   0.892
35622W        W 6222  30.108  29.901   1.978
35623W        W 6223  23.578   3.154  12.084
35624W        W 6224  13.789  26.519   4.809
35625W        W 6225  39.540  41.918   3.208
35626W        W 6226   9.629  19.083  10.765
35627W        W 6227  42.366  20.068   1.406
35628W        W 6228  20.757  34.321   4.202
35629W        W 6229  28.563  10.353   3.652
35630W        W 6230  35.170  34.208   0.761
35631W        W 6231  40.061  41.947   3.260
35632W        W 6232  21.502   2.334  13.181
35633W        W 6233  21.294  33.433   2.906
35634W        W 6234  10.329  44.950  13.861
35635W        W 6235  40.989  20.416   9.870
35636W        W 6236  24.472  12.370  13.393
35637W        W 6237  37.880  44.224  13.819
35638W        W 6238  15.158  35.924   1.719
35639W        W 6239  18.318  23.260   1.445
35640W        W 6240  10.253  38.466   2.872
35641W        W 6241  21.229  18.720  11.886
35642W        W 6242  37.032  10.725   0.145
35643W        W 6243   7.295  43.307  11.645
35644W        W 6244  41.271  41.931  11.144
35645W        W 6245  10.783  37.547   4.166
35646W        W 6246  28.953  44.449  11.495
35647W        W 6247  22.692  27.561  12.621
35648W        W 6248  31.074  36.968   3.955
35649W        W 6249  22.311   9.593   3.798
35650W        W 6250  18.034  38.480   4.790
35651W        W 6251  40.139  32.987  11.723
35652W        W 6252  21.662  23.148  12.727
35653W        W 6253  19.810   5.419  14.909
35654W        W 6254  15.289   4.179  10.985
35655W        W 6255  24.096  29.144   0.875
35656W        W 6256  38.041   5.938  10.930
35657W        W 6257  15.899  43.278  11.725
35658W        W 6258  10.610   3.465  12.539
35659W        W 6259  30.762  28.804  12.464
35660W        W 6260  14.389   5.760   0.842
35661W        W 6261  32.971  36.475   2.464
35662W        W 6262  24.238   2.066   2.208
35663W        W 6263  37.919   2.742   2.214
35664W        W 6264   4.078   4.840  14.335
35665W        W 6265  31.384  38.223  11.016
35666W        W 6266  15.881  14.302   0.335
35667W        W 6267  40.820  22.499  13.808
35668W        W 6268   0.431   2.250  11.966
35669W        W 6269  27.955  23.446   3.837
35670W        W 6270  23.344  38.663  13.947
35671W        W 6271  16.321   9.439  10.926
35672W        W 6272  16.228   7.269   0.122
35673W        W 6273  37.684  15.722  10.418
35674W        W 6274  33.739  37.223   9.934
35675W        W 6275  44.521  32.198  11.059
35676W        W 6276  11.161  35.407  14.181
35677W        W 6277  21.392  26.917  14.473
35678W        W 6278  42.584  40.817   1.458
35679W        W 6279   5.241   8.719  10.438
35680W        W 6280  38.095  10.235   4.688
35681W        W 6281  33.586   3.981  13.023
35682W        W 6282  28.315   9.220   4.154
35683W        W 6283  17.148  19.771  11.555
35684W        W 6284   7.378  33.611   3.823
35685W        W 6285  16.935  16.837   1.005
35686W        W 6286  23.675  10.635  12.105
35687W        W 6287  44.673  33.878   2.315
35688W        W 6288  35.090  26.649  12.343
35689W        W 6289  32.091  15.158  14.830
35690W        W 6290  11.178   1.404   2.159
35691W        W 6291  26.993  27.269  13.915
35692W        W 6292  26.492  40.228  13.966
35693W        W 6293  31.022  42.790   1.834
35694W        W 6294  22.986  15.946   0.023
35695W        W 6295  15.899  41.446  10.340
35696W        W 6296  17.059  34.353   1.844
35697W        W 6297  35.339  23.611  14.991
35698W        W 6298  26.621  10.185   4.203
35699W        W 6299  28.809   5.982  13.780
35700W        W 6300  23.652  13.024  13.893
35701W        W 6301   5.405   4.120   0.093
35702W        W 6302  41.019  12.550   3.714
35703W        W 6303  19.898   1.102   5.090
35704W        W 6304  23.497  42.913   3.313
35705W        W 6305  15.242   7.879   4.321
35706W        W 6306   1.670   9.404  12.940
35707W        W 6307   0.590  21.978   1.824
35708W        W 6308  32.551   0.199   0.282
35709W        W 6309   9.758  43.167  13.962
35710W        W 6310  27.538  27.042   4.721
35711W        W 6311  26.557  21.811   1.339
35712W        W 6312   0.315   9.818  10.742
35713W        W 6313  39.037  21.303   2.214
35714W        W 6314  19.079  16.054   2.651
35715W        W 6315  26.859  32.788   4.856
35716W        W 6316  28.621  31.052  13.770
35717W        W 6317   9.234   0.570   2.307
35718W        W 6318  29.024  16.395   0.247
35719W        W 6319  39.400  19.199   0.528
35720W        W 6320  33.921  11.692   0.749
35721W        W 6321  25.109  38.376   0.451
35722W        W 6322   8.223  18.932  14.276
35723W        W 6323  20.729   2.491  11.659
35724W        W 6324  42.841  40.771   3.746
35725W        W 6325   4.419  13.148  12.223
35726W        W 6326  44.963  21.889  13.097
35727W        W 6327  18.249   1.742  14.358
35728W        W 6328  23.493  36.913   4.044
35729W        W 6329  16.804  32.613  12.695
35730W        W 6330  26.607  22.594   4.533
35731W        W 6331   5.713  35.736  10.849
35732W        W 6332  32.862  13.694  11.453
35733W        W 6333   5.186   8.762   0.166
35734W        W 6334  38.926  30.447  10.653
35735W        W 6335  22.632   0.542   4.147
35736W        W 6336  12.293   6.164   4.711
35737W        W 6337  37.982   7.699   0.784
35738W        W 6338  24.949  30.910  12.071
35739W        W 6339  16.546   9.878  10.794
35740W        W 6340   0.076  39.612   1.724
35741W        W 6341  25.163  12.878  13.149
35742W        W 6342   8.856  31.052  12.647
35743W        W 6343  43.826  35.588  11.778
35744W        W 6344  14.285   2.420  12.097
35745W        W 6345   6.182   9.922  11.586
35746W        W 6346   2.455   7.811   4.657
35747W        W 6347  15.663  35.438  13.508
35748W        W 6348  40.893  23.528   3.316
35749W        W 6349   4.782  37.898  11.019
35750W        W 6350  23.273  10.661  13.941
35751W        W 6351   4.635  17.387   3.837
35752W        W 6352   5.235  40.067  10.511
35753W        W 6353  42.999  31.111   4.089
35754W        W 6354  32.382  28.979   5.082
35755W        W 6355  10.697  19.469   3.603
35756W        W 6356   6.958   4.922   3.869
35757W        W 6357  31.174  11.648   2.187
35758W        W 6358  14.394  29.716   3.960
35759W        W 6359  19.142  10.932  13.582
35760W        W 6360  22.675   7.197   4.257
35761W        W 6361  32.484  38.620  12.480
35762W        W 6362  36.918   8.883   2.785
35763W        W 6363  34.984  41.276  10.692
35764W        W 6364  22.024  24.683  12.016
35765W        W 6365  23.008  39.059   3.762
35766W        W 6366  43.361  16.974   2.391
35767W        W 6367  11.296   4.448   2.425
35768W        W 6368   6.451   9.308   3.277
35769W        W 6369   6.712  20.257  10.767
35770W        W 6370  28.753  35.440  11.684
35771W        W 6371   9.376  18.002   2.832
35772W        W 6372  39.395  27.518   3.667
35773W        W 6373  29.856  32.022   0.408
35774W        W 6374  25.526  34.482  10.770
35775W        W 6375  20.191  36.828   1.396
35776W        W 6376  27.238  42.021  11.956
35777W        W 6377  29.874  27.772  11.669
35778W        W 6378  13.360  19.671  13.606
35779W        W 6379   4.725   4.752   4.228
35780W        W 6380  19.558  16.900  13.802
35781W        W 6381  24.659  40.595  13.819
35782W        W 6382   2.079  39.627   0.793
35783W        W 6383  44.227  10.460   0.808
35784W        W 6384  33.013   4.524   0.895
35785W        W 6385  33.511  36.209  10.816
35786W        W 6386  21.023  42.114  11.239
35787W        W 6387   8.160  39.459  13.910
35788W        W 6388  38.012  32.078  14.654
35789W        W 6389  41.498  41.444   4.493
35790W        W 6390  25.564  29.133  13.055
35791W        W 6391  38.568   6.770  12.408
35792W        W 6392  42.404  42.947  13.475
35793W        W 6393  30.386  24.695  12.412
35794W        W 6394   9.108  37.539   0.740
35795W        W 6395  20.785  34.884   1.675
35796W        W 6396  29.612  27.152  14.999
35797W        W 6397  11.846   4.387  14.146
35798W        W 6398   2.181  26.546  10.530
35799W        W 6399   0.090  11.915   1.320
35800W        W 6400   1.220  25.646   4.475
35801W        W 6401  39.490  32.542   3.502
35802W        W 6402  37.449  40.971  13.812
35803W        W 6403  42.314  14.103   3.533
35804W        W 6404  28.032  39.442  10.530
35805W        W 6405  38.759   6.230   2.337
35806W        W 6406  15.080   0.861  10.551
35807W        W 6407  13.687  28.420   1.255
35808W        W 6408  23.063  38.795   0.439
35809W        W 6409  35.576  26.577   0.792
35810W        W 6410  31.367  10.442   1.370
35811W        W 6411  41.065   5.877   1.044
35812W        W 6412  24.636  31.976  11.628
35813W        W 6413  14.765  33.830  14.876
35814W        W 6414   1.196  15.132   3.236
35815W        W 6415  35.547   1.289   3.363
35816W        W 6416   0.005  25.599   4.805
35817W        W 6417  39.475  38.141   0.376
35818W        W 6418  30.636  14.745   3.634
35819W        W 6419  17.305  31.540  13.521
35820W        W 6420  41.552  29.554  13.941
35821W        W 6421  41.422  28.504  12.345
35822W        W 6422  24.204  31.387   1.283
35823W        W 6423  14.800  21.494   0.352
35824W        W 6424  36.512  42.979   0.749
35825W        W 6425  39.300  10.585  13.825
35826W        W 6426  19.603  29.201  14.211
35827W        W 6427  17.086  43.418  12.090
35828W        W 6428  40.829  38.538   0.794
35829W        W 6429   3.431   7.719  12.437
35830W        W 6430   0.969  24.373  11.670
35831W        W 6431   4.638  17.072  12.479
35832W        W 6432  40.311  20.198  13.642
35833W        W 6433   4.681  44.758  13.840
35834W        W 6434  17.682  30.012  10.537
35835W        W 6435  18.713  42.963  12.049
35836W        W 6436  43.748  28.686  14.841
35837W        W 6437  20.077  26.501  14.517
35838W        W 6438  15.360  44.300  12.635
35839W        W 6439   4.055   3.230   3.648
35840W        W 6440  10.785  41.790  13.761
35841W        W 6441  27.431  41.623  13.898
35842W        W 6442   0.419   5.656   1.262
35843W        W 6443  14.348  23.481  11.512
35844W        W 6444  18.567  34.584   0.549
35845W        W 6445  22.398  38.447   3.620
35846W        W 6446  42.436  27.192  13.448
35847W        W 6447   4.186  18.698  13.007
35848W        W 6448  16.244   3.886   3.720
35849W        W 6449  30.864  24.562  11.040
35850W        W 6450  13.898  34.968  14.520
35851W        W 6451  15.780  16.792   2.839
35852W        W 6452  12.016  19.887  12.445
35853W        W 6453  31.936  16.549   2.782
35854W        W 6454   0.743  42.339   2.864
35855W        W 6455  24.013  29.595  13.969
35856W        W 6456  11.193  12.209  14.794
35857W        W 6457   6.749  22.758   3.278
35858W        W 6458  21.657   5.612   2.760
35859W        W 6459  22.473  26.149   4.190
35860W        W 6460  40.014  17.652  13.430
35861W        W 6461  35.510   1.346  11.602
35862W        W 6462  41.951  34.622  14.405
35863W        W 6463   2.390  18.063   2.776
35864W        W 6464  21.719  21.050   1.918
35865W        W 6465   3.059  13.568  13.334
35866W        W 6466  23.637  11.620  12.194
35867W        W 6467  41.426  29.666  12.587
35868W        W 6468  34.521  23.353  11.219
35869W        W 6469  11.118  33.144  10.696
35870W        W 6470  13.228   6.458   1.636
35871W        W 6471  26.657  27.573  11.670
35872W        W 6472   3.678  34.596   2.020
35873W        W 6473  13.818  27.727   3.653
35874W        W 6474   5.397   7.242   0.355
35875W        W 6475  21.050  40.866   3.796
35876W        W 6476  43.949   4.800  12.503
35877W        W 6477  43.017   1.961  11.489
35878W        W 6478  30.734   5.839  14.797
35879W        W 6479  10.913  20.429   2.539
35880W        W 6480  43.823   5.894   4.500
35881W        W 6481  16.698   3.174   1.818
35882W        W 6482  13.686  26.010   1.721
35883W        W 6483  37.832   5.792   1.463
35884W        W 6484   6.037  21.252  10.247
35885W        W 6485  25.093  25.751   2.077
35886W        W 6486  43.947  14.704   0.231
35887W        W 6487   3.369   1.716   0.864
35888W        W 6488  36.510  18.066  14.016
35889W        W 6489   0.994  44.767  13.476
35890W        W 6490  22.908  19.217  12.397
35891W        W 6491  18.407  25.202   5.208
35892W        W 6492   8.103  11.802  14.235
35893W        W 6493  33.855  14.491   0.702
35894W        W 6494  35.473  41.731  12.489
35895W        W 6495  16.096  20.520  14.466
35896W        W 6496  29.148  26.035   3.754
35897W        W 6497  30.436   1.477  13.771
35898W        W 6498  22.622  40.064  13.698
35899W        W 6499   1.371  37.308  10.520
35900W        W 6500  38.746   1.294  12.040
35901W        W 6501  35.803  10.602  12.113
35902W        W 6502  35.924  32.901  12.717
35903W        W 6503  40.796  28.693   4.641
35904W        W 6504   8.297  16.356  14.748
35905W        W 6505  23.180  14.749  10.766
35906W        W 6506  16.728  18.034  14.479
35907W        W 6507   3.831  12.758  10.781
35908W        W 6508  17.831  35.836  12.982
35909W        W 6509  10.861  12.386  13.520
35910W        W 6510   0.515  41.683  14.882
35911W        W 6511  27.529  20.285  13.980
35912W        W 6512  33.643   9.423  14.016
35913W        W 6513  19.626  44.214   3.297
35914W        W 6514   0.264  41.787  12.138
35915W        W 6515  17.791  22.431   3.724
35916W        W 6516  20.248   2.509   4.162
35917W        W 6517  17.745  12.101   0.716
35918W        W 6518  14.001   5.301   0.244
35919W        W 6519  40.859  35.483  10.684
35920W        W 6520  43.063   5.441  14.541
35921W        W 6521  11.385  22.626   3.657
35922W        W 6522  42.348  33.367   3.197
35923W        W 6523  24.148  25.246  10.292
35924W        W 6524  18.678   5.803   4.252
35925W        W 6525  43.734  35.823   1.938
35926W        W 6526  16.139   4.821  14.804
35927W        W 6527  22.252  20.028   0.940
35928W        W 6528   8.372   1.227   4.530
35929W        W 6529   3.750  24.267  12.066
35930W        W 6530  15.102  11.384  10.606
35931W        W 6531  18.727  30.638  14.425
35932W        W 6532   4.931  40.832   3.275
35933W        W 6533  39.093   8.525  11.568
35934W        W 6534  38.477  38.825   1.238
35935W        W 6535  16.317  20.412   4.631
35936W        W 6536  10.639   7.159  12.937
35937W        W 6537  32.843  31.168  11.199
35938W        W 6538  12.158  35.135  14.762
35939W        W 6539  42.130   5.676   2.213
35940W        W 6540  38.895  36.833  11.381
35941W        W 6541  11.200  11.823   4.055
35942W        W 6542  31.592  44.781   1.247
35943W        W 6543  23.948  32.197   4.660
35944W        W 6544  24.790  26.179   3.648
35945W        W 6545  28.458  36.650  13.811
35946W        W 6546   4.087  10.127   2.781
35947W        W 6547  30.791   1.351  12.142
35948W        W 6548  13.248  21.593   3.685
35949W        W 6549  40.831  30.691   0.266
35950W        W 6550  24.384  17.318   4.257
35951W        W 6551  12.774  41.045  11.450
35952W        W 6552   9.864  23.672  13.110
35953W        W 6553  27.122  11.917  12.044
35954W        W 6554  37.025   6.418   4.526
35955W        W 6555  35.905   6.153  12.085
35956W        W 6556  41.419  42.448  10.738
35957W        W 6557  36.500  29.905  11.264
35958W        W 6558   7.744  27.669   1.822
35959W        W 6559   3.953  40.451   1.627
35960W        W 6560   4.288  43.694   2.810
35961W        W 6561  38.975  12.379   3.616
35962W        W 6562  24.673  44.703  13.906
35963W        W 6563  36.391   1.022   3.725
35964W        W 6564  25.144  43.242  13.056
35965W        W 6565  25.333  37.595   3.705
35966W        W 6566  19.795   9.885   0.351
35967W        W 6567  35.158  11.777   1.386
35968W        W 6568  16.565   1.020  10.849
35969W        W 6569  25.701  41.331  14.359
35970W        W 6570  14.885  30.144  12.009
35971W        W 6571  13.630  23.101   3.344
35972W        W 6572   9.946  19.968   1.866
35973W        W 6573  18.493  42.359   3.751
35974W        W 6574  29.188   9.880   4.102
35975W        W 6575  41.807  24.650   1.005
35976W        W 6576   1.207  30.940  13.236
35977W        W 6577  10.210  34.896   2.673
35978W        W 6578   9.881  44.833   3.372
35979W        W 6579  10.542  27.186   4.194
35980W        W 6580  19.193  16.803  12.770
35981W        W 6581   3.657  19.592   4.154
35982W        W 6582  44.216  31.563   2.254
35983W        W 6583  11.611   1.945   4.193
35984W        W 6584   0.377   1.651  14.523
35985W        W 6585  18.030  21.203  11.586
35986W        W 6586  38.758   5.733  12.691
35987W        W 6587   8.671  38.813   1.449
35988W        W 6588  11.250  42.464   1.848
35989W        W 6589   9.327   7.455  14.160
35990W        W 6590  10.709   9.545  13.042
35991W        W 6591  18.281   2.825  12.927
35992W        W 6592   9.677  37.354  13.553
35993W        W 6593  34.093  23.868  11.663
35994W        W 6594  28.104   3.433  12.081
35995W        W 6595  36.531  10.256   0.660
35996W        W 6596  24.235  25.637   3.177
35997W        W 6597  26.587  40.304  13.384
35998W        W 6598  16.110  26.491  14.933
35999W        W 6599  23.339  11.188  13.555
36000W        W 6600  27.053  26.139   2.481
36001W        W 6601  36.034  37.104   2.272
36002W        W 6602  15.440  34.825  14.237
36003W        W 6603  11.718  31.842   3.289
36004W        W 6604  40.830  25.945   2.846
36005W        W 6605  28.569  21.355   0.883
36006W        W 6606  22.953  36.546   1.287
36007W        W 6607  33.497  11.830  14.902
36008W        W 6608  30.573  13.706   4.582
36009W        W 6609  44.763  28.489  14.856
36010W        W 6610  10.407   7.782  14.547
36011W        W 6611  15.222  21.091  11.175
36012W        W 6612  35.583  32.076  12.507
36013W        W 6613  33.623  34.296  10.254
36014W        W 6614  25.114  26.483   1.779
36015W        W 6615  28.639  33.048   4.492
36016W        W 6616  25.612  39.822   1.704
36017W        W 6617  17.623   5.376   0.138
36018W        W 6618   1.708  19.582   0.296
36019W        W 6619  35.560  13.119  13.386
36020W        W 6620  12.119   2.031  13.712
36021W        W 6621  19.741  24.329  12.082
36022W        W 6622   9.747  14.055  10.805
36023W        W 6623  24.362  30.584   1.775
36024W        W 6624  37.323  43.257  14.744
36025W        W 6625  28.912  13.378   4.222
36026W        W 6626   0.756  43.833  11.106
36027W        W 6627   4.732  28.529   4.697
36028W        W 6628  41.986   4.712  12.945
36029W        W 6629  28.754  13.083  12.979
36030W        W 6630  29.585  11.460  12.035
36031W        W 6631  10.146   9.672  12.455
36032W        W 6632  10.766  15.414   4.615
36033W        W 6633  17.343  14.666   0.910
36034W        W 6634  33.012  25.066  12.120
36035W        W 6635  34.032  11.156  13.150
36036W        W 6636  35.174  39.045   3.121
36037W        W 6637  36.011  38.537   2.245
36038W        W 6638   2.687  10.365   0.355
36039W        W 6639  35.093   1.088   3.610
36040W        W 6640  22.216  26.086  12.886
36041W        W 6641   8.886  40.002  14.785
36042W        W 6642  35.279  24.755  14.433
36043W        W 6643  20.298  37.039   0.462
36044W        W 6644  38.155  31.564  14.854
36045W        W 6645  11.689  22.853   0.305
36046W        W 6646  11.211  16.263   2.203
36047W        W 6647  28.061   5.422   1.919
36048W        W 6648  38.951  29.570   0.581
36049W        W 6649  37.282  38.595   0.836
36050W        W 6650  30.422   4.767   0.235
36051W        W 6651   9.389  33.750   2.807
36052W        W 6652  20.560  21.704  10.774
36053W        W 6653  20.628  14.887   2.167
36054W        W 6654  29.222  24.937  14.417
36055W        W 6655  43.938  15.574  11.937
36056W        W 6656  31.875  13.694   0.258
36057W        W 6657  24.565   4.902   4.651
36058W        W 6658   4.879  30.417  13.872
36059W        W 6659   9.748  14.286   0.768
36060W        W 6660   0.343  44.805   1.177
36061W        W 6661  20.654  41.208   2.379
36062W        W 6662   2.559  21.329  14.908
36063W        W 6663  35.138  15.708  14.172
36064W        W 6664  19.671  12.787   1.826
36065W        W 6665  16.982   0.913   0.935
36066W        W 6666   3.960  33.271   3.667
36067W        W 6667  27.662  17.483   2.679
36068W        W 6668  24.440  14.164   3.751
36069W        W 6669  12.281  15.245  11.899
36070W        W 6670  16.040  30.599  12.853
36071W        W 6671   7.957  10.013  13.855
36072W        W 6672  12.279   3.415  13.873
36073W        W 6673  40.295   7.520   2.235
36074W        W 6674  19.713  16.846   2.649
36075W        W 6675  27.688  24.628  14.888
36076W        W 6676  31.067  43.256  12.302
36077W        W 6677   7.725  16.666   4.116
36078W        W 6678   5.481  44.018  13.667
36079W        W 6679  27.175  30.931   3.106
36080W        W 6680  37.607  12.356  11.056
36081W        W 6681  16.398  12.685   4.650
36082W        W 6682  11.711  34.393   1.280
36083W        W 6683   6.414  40.915   1.878
36084W        W 6684  15.235  35.444   1.880
36085W        W 6685   5.978  20.042  14.882
36086W        W 6686   7.293   5.792  14.536
36087W        W 6687  39.364   3.483  14.603
36088W        W 6688  40.274  14.578  13.587
36089W        W 6689  41.808  18.675   1.781
36090W        W 6690  32.878  28.016   2.419
36091W        W 6691  38.341  42.441   4.440
36092W        W 6692  24.340   4.149   2.818
36093W        W 6693  27.777   5.208  11.396
36094W        W 6694   8.349  10.151  13.083
36095W        W 6695  39.011   2.189  11.485
36096W        W 6696  41.255   9.218   3.680
36097W        W 6697  27.943  30.525  10.789
36098W        W 6698   5.554  26.145   3.626
36099W        W 6699  19.804  32.092  11.214
36100W        W 6700  43.914  33.017   4.637
36101W        W 6701  18.198  10.674  10.422
36102W        W 6702   5.204  41.555  13.466
36103W        W 6703   7.368  20.385   0.689
36104W        W 6704  15.564  28.465   2.861
36105W        W 6705   9.603  38.391   1.204
36106W        W 6706  43.264  42.297  14.827
36107W        W 6707  23.748  39.007   2.206
36108W        W 6708  20.067  37.104   4.569
36109W        W 6709  27.169  32.188  11.835
36110W        W 6710   4.932   2.406   0.421
36111W        W 6711  22.593  16.620  13.407
36112W        W 6712   9.645  35.965   2.881
36113W        W 6713   0.909  26.468  14.115
36114W        W 6714  41.887  15.571  13.860
36115W        W 6715  29.449  23.959   0.787
36116W        W 6716  15.274  13.344  14.358
36117W        W 6717   1.713   2.776   3.725
36118W        W 6718   5.654  25.723   4.146
36119W        W 6719  20.763  22.071  11.080
36120W        W 6720   4.873   3.238   9.875
36121W        W 6721   3.485  34.870  14.558
36122W        W 6722  37.563  23.813   1.622
36123W        W 6723  25.155   9.946  10.669
36124W        W 6724  20.061  39.570   2.691
36125W        W 6725   7.257  13.314   4.564
36126W        W 6726  20.019  33.385   0.047
36127W        W 6727  14.291  31.831   3.573
36128W        W 6728   7.236  10.579   1.757
36129W        W 6729   6.609  23.005   2.565
36130W        W 6730   4.533  12.786  13.575
36131W        W 6731  37.002  16.392   4.908
36132W        W 6732  31.579  35.862   2.150
36133W        W 6733   2.953  32.364  13.384
36134W        W 6734   4.438   8.293   3.107
36135W        W 6735  36.911  12.268   0.429
36136W        W 6736  26.917  23.137  13.024
36137W        W 6737  18.841  38.700  10.443
36138W        W 6738  17.111  23.009   4.308
36139W        W 6739  24.404  28.317  11.910
36140W        W 6740  13.644   8.297  11.901
36141W        W 6741  17.380  35.142   2.285
36142W        W 6742  29.033  31.455  11.194
36143W        W 6743  21.599   6.822   2.879
36144W        W 6744  29.066   1.737  12.471
36145W        W 6745  11.357   3.479   3.148
36146W        W 6746  19.734  29.015  12.069
36147W        W 6747  13.814  40.083   2.111
36148W        W 6748   5.884  43.291   3.073
36149W        W 6749  25.523  16.029  13.345
36150W        W 6750  42.729  12.566   4.290
36151W        W 6751  24.053  13.566   0.627
36152W        W 6752  33.087  40.079  11.627
36153W        W 6753  38.784  15.291   5.324
36154W        W 6754   2.207  10.394   2.965
36155W        W 6755  18.012  22.083  12.480
36156W        W 6756  13.055   6.853   2.435
36157W        W 6757   1.944  30.647  12.104
36158W        W 6758   8.688  10.087   1.622
36159W        W 6759   1.660  35.585  12.342
36160W        W 6760  10.932  10.123  13.929
36161W        W 6761   6.807  10.744   2.009
36162W        W 6762  24.106   8.215  11.215
36163W        W 6763   2.400  11.315   1.201
36164W        W 6764   6.367  36.431  11.118
36165W        W 6765  29.583   9.953  11.224
36166W        W 6766  18.229   0.158  14.491
36167W        W 6767  34.588  27.189   0.065
36168W        W 6768   1.333  36.774  11.426
36169W        W 6769  10.293  21.590   5.067
36170W        W 6770  25.114  38.128  13.545
36171W        W 6771  34.888  22.266   0.868
36172W        W 6772  24.976  41.605   1.342
36173W        W 6773  35.251  42.640   4.519
36174W        W 6774  26.399  24.005  11.553
36175W        W 6775  37.826   9.669  11.505
36176W        W 6776  14.775   0.789   1.177
36177W        W 6777   2.178   3.310  12.531
36178W        W 6778  12.747   9.449  14.046
36179W        W 6779   6.318   7.766   0.315
36180W        W 6780  43.421  32.615   3.629
36181W        W 6781   7.709  29.539   0.547
36182W        W 6782  40.866  42.903   2.336
36183W        W 6783  28.104  40.625  12.171
36184W        W 6784  19.842  36.592  12.592
36185W        W 6785   9.419  37.935   0.623
36186W        W 6786  12.338  13.614  11.192
36187W        W 6787  22.629  30.998  11.727
36188W        W 6788   1.806  15.278  13.451
36189W        W 6789  35.117  44.884   1.411
36190W        W 6790  39.819  29.642   4.900
36191W        W 6791  35.470  20.773   1.248
36192W        W 6792  16.618  16.549   3.241
36193W        W 6793  16.627  44.702   0.949
36194W        W 6794  43.561  28.763   0.326
36195W        W 6795  34.780  41.600  12.859
36196W        W 6796  27.939  43.250   1.705
36197W        W 6797  10.576  29.530   3.787
36198W        W 6798  44.461  13.897   1.877
36199W        W 6799   2.957  12.333  11.976
36200W        W 6800  28.439  40.874  10.905
36201W        W 6801   7.803  43.054  13.499
36202W        W 6802  36.412  21.067   4.997
36203W        W 6803  27.380  33.514  14.453
36204W        W 6804  43.988  12.440   1.655
36205W        W 6805  12.773  31.976   4.357
36206W        W 6806  43.535  12.970  12.007
36207W        W 6807  41.353  17.271  11.597
36208W        W 6808  17.610  22.727  12.069
36209W        W 6809   0.775  15.680   1.848
36210W        W 6810  19.205  20.243  12.685
36211W        W 6811  29.587  27.999  12.497
36212W        W 6812  30.610  36.815   4.122
36213W        W 6813  35.785  44.012   1.833
36214W        W 6814   6.366  38.920  14.774
36215W        W 6815  35.063  26.557   1.713
36216W        W 6816  37.050  32.183   1.874
36217W        W 6817   8.433  20.510  12.765
36218W        W 6818  14.060   9.750   2.278
36219W        W 6819  37.923  40.865   2.282
36220W        W 6820  23.882  32.053   3.772
36221W        W 6821  16.298  34.157  13.898
36222W        W 6822  20.127  25.087  11.547
36223W        W 6823   6.263   0.715  12.222
36224W        W 6824  31.065  14.360   1.797
36225W        W 6825  30.914  21.089   5.008
36226W        W 6826  43.351  17.056   4.620
36227W        W 6827  43.015  11.397   3.197
36228W        W 6828  34.381  37.526  11.581
36229W        W 6829  11.344  23.460   0.792
36230W        W 6830  13.181   8.622  10.710
36231W        W 6831  42.903   0.290  12.013
36232W        W 6832  36.212  35.001   1.985
36233W        W 6833  41.942  24.416   4.157
36234W        W 6834   5.767   2.458   4.362
36235W        W 6835  40.316  37.551   0.626
36236W        W 6836  36.055  27.587   1.782
36237W        W 6837  42.529   0.477  12.359
36238W        W 6838  22.208  27.551   2.180
36239W        W 6839  17.379  16.397  11.213
36240W        W 6840  43.472   8.870  13.059
36241W        W 6841  15.414   6.230  12.961
36242W        W 6842  27.997   4.845  14.887
36243W        W 6843  35.089  39.621  14.853
36244W        W 6844   8.154  34.657   3.688
36245W        W 6845  30.243  27.577   1.248
36246W        W 6846  14.862  17.004  14.045
36247W        W 6847  14.749   4.996   2.915
36248W        W 6848  15.368  31.393   1.881
36249W        W 6849  14.371  34.156  14.894
36250W        W 6850  26.399  29.949  13.038
36251W        W 6851  19.725  35.899  11.097
36252W        W 6852  40.347  34.153   0.442
36253W        W 6853  37.526  31.017   0.931
36254W        W 6854   9.349   2.603  13.877
36255W        W 6855  21.586  17.613  12.601
36256W        W 6856  13.714  30.850  12.086
36257W        W 6857  35.508  42.528   3.648
36258W        W 6858   2.245  35.830   0.342
36259W        W 6859  40.904  25.164   2.638
36260W        W 6860   0.485  20.780  14.482
36261W        W 6861  39.751  17.454   2.234
36262W        W 6862  23.240  41.443   1.385
36263W        W 6863  26.791  16.560  12.991
36264W        W 6864  28.664  37.493   1.727
36265W        W 6865  15.108  13.504   2.040
36266W        W 6866   0.236  14.623  13.406
36267W        W 6867   4.426  32.356  11.172
36268W        W 6868  23.074  40.851  11.831
36269W        W 6869  39.946   9.773   4.791
36270W        W 6870  27.401  23.973   0.897
36271W        W 6871  42.212   1.272  13.118
36272W        W 6872  32.355  19.850  11.612
36273W        W 6873  32.389  43.427   4.554
36274W        W 6874  30.927  16.911   2.729
36275W        W 6875  23.586  29.613  14.859
36276W        W 6876  33.190  12.154   0.228
36277W        W 6877   9.273  30.320  12.148
36278W        W 6878  39.851  28.678  11.330
36279W        W 6879  28.188  18.661  13.484
36280W        W 6880  34.131  15.696  14.477
36281W        W 6881  28.936  18.210  11.631
36282W        W 6882  14.653   2.032  14.786
36283W        W 6883  12.348   2.691  13.061
36284W        W 6884  14.083   5.466  14.281
36285W        W 6885  21.262   0.336   2.699
36286W        W 6886   6.401  28.356   2.711
36287W        W 6887  33.622  35.850  11.661
36288W        W 6888  41.373  32.034  12.072
36289W        W 6889  36.672  20.835   3.967
36290W        W 6890  21.278  14.247   1.359
36291W        W 6891   5.776  26.285  14.730
36292W        W 6892  44.538   1.871  10.267
36293W        W 6893  38.518  27.461   2.374
36294W        W 6894  10.102  25.992  13.384
36295W        W 6895  20.253  15.722   3.567
36296W        W 6896  31.903  11.768  12.887
36297W        W 6897   5.840  23.430  11.999
36298W        W 6898  43.844  39.066   3.282
36299W        W 6899  37.368  22.922   3.822
36300W        W 6900   5.415  16.986  13.348
36301W        W 6901   4.375   9.718  13.717
36302W        W 6902  19.959  33.173  11.050
36303W        W 6903  15.624   4.778  12.939
36304W        W 6904  11.870  13.021   4.123
36305W        W 6905   3.296   5.440   2.275
36306W        W 6906  22.211  28.744  12.423
36307W        W 6907  44.211  30.948  13.415
36308W        W 6908  27.766  17.768  14.575
36309W        W 6909  35.723  23.495   2.716
36310W        W 6910  27.083  21.594   0.695
36311W        W 6911  10.535   8.881   0.242
36312W        W 6912   3.753   7.349   2.422
36313W        W 6913  26.531  14.863  14.925
36314W        W 6914  23.562  42.807  10.596
36315W        W 6915  42.312  31.371   3.103
36316W        W 6916  20.766  42.030   2.734
36317W        W 6917   0.459   6.373   4.166
36318W        W 6918  22.523  28.352   3.254
36319W        W 6919  19.524  21.094   4.652
36320W        W 6920  26.492  15.223   3.591
36321W        W 6921  24.120  27.029   1.378
36322W        W 6922  22.242  35.273   2.591
36323W        W 6923  20.443   5.373   0.947
36324W        W 6924  30.075  36.903  11.004
36325W        W 6925   9.065  17.684   0.479
36326W        W 6926  24.150  39.566  13.095
36327W        W 6927  25.996  37.631   2.238
36328W        W 6928  20.248  24.166  11.551
36329W        W 6929   0.910  28.632   1.848
36330W        W 6930   9.211   5.672  10.559
36331W        W 6931  18.932   7.368  12.971
36332W        W 6932   5.260  39.604   4.698
36333W        W 6933  35.438  18.103  14.002
36334W        W 6934   9.876  29.893   0.532
36335W        W 6935   6.926  34.225  13.960
36336W        W 6936  15.336  21.782  10.012
36337W        W 6937  28.362   9.229  14.457
36338W        W 6938  10.945  16.977  11.022
36339W        W 6939  25.707  30.371  12.468
36340W        W 6940  23.906   1.674   0.241
36341W        W 6941   4.681  43.225  11.085
36342W        W 6942  10.492  31.002  10.680
36343W        W 6943  33.197  10.647   1.642
36344W        W 6944   8.090  41.100  10.777
36345W        W 6945  35.807   8.272  11.539
36346W        W 6946  28.885  30.649   4.509
36347W        W 6947   5.382  13.216   3.194
36348W        W 6948   3.368   6.673  11.145
36349W        W 6949  33.467   0.468  10.055
36350W        W 6950  28.100   4.206   0.852
36351W        W 6951  22.118  20.231  13.960
36352W        W 6952  13.701  26.297  14.340
36353W        W 6953  40.900  22.666   1.925
36354W        W 6954  42.357   7.010  14.294
36355W        W 6955  19.732   0.889   4.619
36356W        W 6956  27.076  28.881  11.527
36357W        W 6957  14.341  35.892  13.604
36358W        W 6958  18.322   9.266  12.491
36359W        W 6959  34.873  30.902  11.429
36360W        W 6960   1.824   2.301  14.708
36361W        W 6961  24.498  14.761  14.051
36362W        W 6962  16.938  21.745  14.766
36363W        W 6963  24.599  29.146   4.722
36364W        W 6964   1.764  19.274   4.419
36365W        W 6965  37.016  27.837  14.092
36366W        W 6966   6.323  41.651   3.817
36367W        W 6967  44.570  14.300  14.888
36368W        W 6968   4.849   5.935  14.439
36369W        W 6969  34.513  17.737   2.365
36370W        W 6970  10.698  11.450  10.735
36371W        W 6971  44.374   9.034  13.307
36372W        W 6972  21.653  41.547  10.950
36373W        W 6973  25.938  36.977   1.059
36374W        W 6974  21.494  11.115  11.900
36375W        W 6975  11.657  10.588  10.686
36376W        W 6976  23.138  22.651   0.815
36377W        W 6977  33.883  14.276  13.479
36378W        W 6978   3.558  31.743   3.184
36379W        W 6979  40.902  39.317   0.709
36380W        W 6980  39.828  38.333   0.702
36381W        W 6981  42.041  39.389  13.024
36382W        W 6982  40.094  43.950  14.369
36383W        W 6983  12.758  19.296   2.708
36384W        W 6984  44.743   3.825  12.171
36385W        W 6985  33.595  20.888   3.742
36386W        W 6986  42.379  11.105  14.290
36387W        W 6987  16.413  22.631  13.498
36388W        W 6988   8.207  27.283   3.242
36389W        W 6989  42.071   0.192   2.742
36390W        W 6990  11.660   5.218  14.956
36391W        W 6991   1.405  32.584   1.352
36392W        W 6992  22.570   5.524  10.710
36393W        W 6993   9.245   5.361  11.778
36394W        W 6994   0.458  33.807   2.746
36395W        W 6995  22.027   9.597  11.124
36396W        W 6996  14.267  19.619  13.552
36397W        W 6997  43.296  20.333   3.146
36398W        W 6998   2.262  24.614  14.743
36399W        W 6999  39.367  20.643   0.103
36400W        W 7000  15.777   6.323  11.112
36401W        W 7001  17.866  35.976   1.858
36402W        W 7002  30.488  31.457   3.274
36403W        W 7003  25.581  16.359  14.907
36404W        W 7004   0.242  25.113   3.251
36405W        W 7005  35.604   7.812  12.632
36406W        W 7006  26.119   4.410   3.184
36407W        W 7007  15.298   3.212  13.317
36408W        W 7008  32.681  35.026   1.621
36409W        W 7009  43.361  25.926  13.756
36410W        W 7010   4.342  29.558  10.623
36411W        W 7011  38.760  18.048   4.452
36412W        W 7012   1.773   5.793   0.879
36413W        W 7013  14.243   3.906   2.448
36414W        W 7014  27.239  14.181   1.512
36415W        W 7015   1.659  24.650  11.012
36416W        W 7016  34.362  21.122  11.430
36417W        W 7017   4.446  23.949  11.012
36418W        W 7018  25.001  18.998  13.676
36419W        W 7019  10.476  20.506   2.799
36420W        W 7020   1.448   8.120  10.694
36421W        W 7021  13.177  20.459   2.811
36422W        W 7022   2.395  33.231  11.974
36423W        W 7023  25.423  42.986  14.889
36424W        W 7024  24.715  28.669  13.259
36425W        W 7025   7.226  27.886  10.409
36426W        W 7026  42.241  42.693  14.025
36427W        W 7027  18.754  23.803  12.661
36428W        W 7028   5.818  18.573   4.213
36429W        W 7029   5.337  26.939  14.323
36430W        W 7030  21.723  32.610  12.515
36431W        W 7031  26.486   9.658  11.974
36432W        W 7032  23.196   3.441   1.515
36433W        W 7033   4.562   8.145   0.693
36434W        W 7034  26.400  26.116  11.274
36435W        W 7035  30.056   5.699  14.034
36436W        W 7036  31.300  43.512   2.300
36437W        W 7037  44.360   4.729   3.353
36438W        W 7038  23.251   7.646  13.933
36439W        W 7039  36.104  25.540   1.282
36440W        W 7040  32.430  28.895   0.711
36441W        W 7041  31.314   1.871   3.226
36442W        W 7042  34.672  27.524   4.721
36443W        W 7043  41.812  27.976  14.325
36444W        W 7044  30.440  24.735   3.598
36445W        W 7045  14.840  28.675  10.917
36446W        W 7046  39.227  23.648   2.001
36447W        W 7047   0.824  28.087   4.148
36448W        W 7048  35.310   0.399   4.130
36449W        W 7049   7.585   1.301  11.551
36450W        W 7050  12.046  38.327   2.094
36451W        W 7051  15.874  42.286   0.921
36452W        W 7052  39.878  35.397   0.453
36453W        W 7053  25.376  18.714  14.996
36454W        W 7054   1.308  44.195  12.004
36455W        W 7055  26.595   0.109   1.450
36456W        W 7056  33.019  40.467   1.193
36457W        W 7057   7.613  27.308   2.286
36458W        W 7058  11.102   2.819   4.134
36459W        W 7059  10.236  26.168  14.512
36460W        W 7060  37.336  20.539   2.978
36461W        W 7061  12.801  39.199   3.705
36462W        W 7062  11.139  23.073   3.686
36463W        W 7063  22.390  21.043   1.187
36464W        W 7064  25.243  15.376   4.915
36465W        W 7065  40.436  26.355   3.636
36466W        W 7066  37.478  20.041   1.752
36467W        W 7067  10.847  25.445   2.928
36468W        W 7068  19.866  16.579   4.630
36469W        W 7069   5.945  21.850   0.024
36470W        W 7070  23.412   0.049   0.840
36471W        W 7071   3.762  26.225  14.819
36472W        W 7072  17.023   3.175  12.807
36473W        W 7073   6.130  11.127  13.757
36474W        W 7074  14.143  39.769  10.417
36475W        W 7075  39.949  31.976  12.018
36476W        W 7076  34.072  38.588  14.332
36477W        W 7077  29.526  24.502   0.774
36478W        W 7078  35.627  10.177  12.807
36479W        W 7079  40.328   3.777  10.371
36480W        W 7080  14.977  17.353  10.989
36481W        W 7081  42.598  12.625  11.151
36482W        W 7082  18.443  34.831  13.578
36483W        W 7083  31.156  32.341  11.052
36484W        W 7084  16.593  35.967  14.170
36485W        W 7085  33.339  16.278   1.802
36486W        W 7086  14.024  25.505   2.752
36487W        W 7087  10.832  32.173  12.883
36488W        W 7088  40.891   9.810   2.393
36489W        W 7089   1.346  44.491   1.955
36490W        W 7090   1.912  25.817   3.238
36491W        W 7091  44.307  36.288  14.493
36492W        W 7092  29.166  40.107  13.279
36493W        W 7093  30.365  11.424  13.539
36494W        W 7094  21.212  32.918   1.781
36495W        W 7095   4.093  10.924  13.348
36496W        W 7096  11.738   9.867  12.936
36497W        W 7097   8.925   3.033   0.540
36498W        W 7098  12.127  20.797   3.613
36499W        W 7099  33.023  36.934   0.663
36500W        W 7100  21.904  14.147  12.038
36501W        W 7101   6.163  39.290   2.605
36502W        W 7102   1.952  10.048   1.189
36503W        W 7103   5.866  32.413  14.241
36504W        W 7104  21.706  19.088   1.911
36505W        W 7105  25.977  37.790   2.726
36506W        W 7106  21.023   1.836   1.271
36507W        W 7107   4.825  30.841  11.610
36508W        W 7108   3.417  43.056   0.739
36509W        W 7109   4.289  34.375   2.645
36510W        W 7110  38.348  37.939  10.613
36511W        W 7111  16.296  31.335   1.568
36512W        W 7112  37.465  29.228   3.245
36513W        W 7113  42.125  19.610   9.778
36514W        W 7114  10.869  30.987  12.941
36515W        W 7115  37.965   9.263   3.141
36516W        W 7116   6.680  32.006   3.662
36517W        W 7117   2.555  26.870  11.827
36518W        W 7118   4.773   8.755  10.655
36519W        W 7119  26.678   2.541   2.268
36520W        W 7120  24.112  28.260  12.401
36521W        W 7121  42.448  26.492   3.146
36522W        W 7122  30.997  25.145  10.426
36523W        W 7123   9.327   8.696  11.521
36524W        W 7124  12.218  16.073  13.391
36525W        W 7125  11.120   6.247   0.307
36526W        W 7126  41.376   6.258   1.195
36527W        W 7127  12.717  15.565  12.905
36528W        W 7128  26.129  23.015  12.228
36529W        W 7129  41.824   0.115   1.791
36530W        W 7130   0.488  19.151   0.715
36531W        W 7131  43.040  36.765  14.378
36532W        W 7132  10.270  34.107   3.224
36533W        W 7133  28.392  28.720  11.567
36534W        W 7134  41.204  32.159  13.455
36535W        W 7135   2.797   8.409   2.360
36536W        W 7136   7.780  14.379   4.122
36537W        W 7137  40.527  28.499  14.697
36538W        W 7138   8.179  37.209  13.203
36539W        W 7139  32.909  35.833  14.900
36540W        W 7140  36.486   3.809  14.514
36541W        W 7141  36.612   5.787   4.747
36542W        W 7142   1.526  21.722  12.457
36543W        W 7143  31.578   6.490  11.446
36544W        W 7144  13.489   7.196   4.960
36545W        W 7145  31.911  32.946  12.503
36546W        W 7146  34.817  32.591   3.997
36547W        W 7147   8.459   0.381  11.218
36548W        W 7148  37.884  12.388   4.660
36549W        W 7149  10.826   1.247   0.361
36550W        W 7150  43.411  32.611  11.069
36551W        W 7151  11.427  20.695   4.765
36552W        W 7152  35.509  16.834   1.790
36553W        W 7153  33.484  27.118  10.574
36554W        W 7154   7.132  15.560  11.671
36555W        W 7155  11.907   5.699  12.372
36556W        W 7156   4.301  23.433  11.014
36557W        W 7157  19.626  23.631   4.487
36558W        W 7158  27.148   6.868  14.990
36559W        W 7159  34.024   8.934  12.061
36560W        W 7160   9.545  11.722   1.805
36561W        W 7161   5.085  26.732   1.979
36562W        W 7162  40.593  28.664  11.966
36563W        W 7163  13.237  22.663   2.160
36564W        W 7164  12.387  21.476   4.269
36565W        W 7165  20.716   2.239  12.120
36566W        W 7166  25.960  31.905   3.961
36567W        W 7167  15.008  18.322  14.812
36568W        W 7168  31.444   9.317  10.775
36569W        W 7169  38.382  35.633   2.675
36570W        W 7170  30.035  13.677   4.600
36571W        W 7171   1.260  39.632   3.659
36572W        W 7172  13.108  34.050  12.398
36573W        W 7173   3.802  13.555  10.404
36574W        W 7174  31.345  24.256   3.310
36575W        W 7175  22.395  20.217   2.796
36576W        W 7176  23.385   4.958   0.599
36577W        W 7177  26.782  36.107   2.844
36578W        W 7178  12.076  12.534  11.934
36579W        W 7179  21.108   4.040  12.542
36580W        W 7180  25.424  10.701   4.315
36581W        W 7181  42.296  17.796   0.133
36582W        W 7182   8.141  29.199   0.907
36583W        W 7183  38.772   9.343  12.411
36584W        W 7184  30.709  42.325   3.199
36585W        W 7185  44.693  29.921   1.265
36586W        W 7186  40.407  22.641   2.248
36587W        W 7187  23.259  15.659   1.887
36588W        W 7188  44.803   8.122   2.834
36589W        W 7189  18.319  14.333  12.035
36590W        W 7190  21.603   1.226  11.630
36591W        W 7191  12.827  10.478  13.994
36592W        W 7192  30.361  38.610   0.523
36593W        W 7193   6.896  11.887   1.477
36594W        W 7194  21.018  34.490   1.919
36595W        W 7195  15.660   2.367   1.210
36596W        W 7196  12.125   0.556   3.182
36597W        W 7197  15.569  43.243  13.507
36598W        W 7198  12.209  27.189  12.439
36599W        W 7199  27.549  34.748  14.471
36600W        W 7200  13.092  32.478  11.556
36601W        W 7201   6.248  19.140   0.277
36602W        W 7202  13.066  18.180  11.207
36603W        W 7203  15.683  31.992  10.216
36604W        W 7204  19.786  13.224  10.441
36605W        W 7205  30.108  18.128   0.096
36606W        W 7206  18.507  18.694  12.971
36607W        W 7207  41.063   3.336  13.900
36608W        W 7208   6.629  20.583  12.040
36609W        W 7209  31.585   4.137   4.565
36610W        W 7210  40.782  30.962  11.676
36611W        W 7211  29.859  34.600  10.646
36612W        W 7212  20.925   3.307  10.312
36613W        W 7213  17.072  19.979  14.708
36614W        W 7214  19.871  39.920   4.700
36615W        W 7215  18.555  19.615  11.828
36616W        W 7216  26.942  40.424  10.621
36617W        W 7217  12.843  26.441   0.354
36618W        W 7218  24.387   1.005   4.938
36619W        W 7219  34.296   8.153  14.554
36620W        W 7220  16.803   5.893   2.106
36621W        W 7221  14.843  39.742   0.972
36622W        W 7222  29.049  16.863  11.515
36623W        W 7223  10.830   6.243  11.245
36624W        W 7224  29.006  25.022   2.679
36625W        W 7225  10.213  11.993  12.496
36626W        W 7226   8.708  17.486  12.526
36627W        W 7227  25.653  15.325  12.989
36628W        W 7228  13.321   6.457   2.655
36629W        W 7229  40.994  34.701   2.179
36630W        W 7230  27.503  15.304  12.390
36631W        W 7231  38.732  34.002   4.322
36632W        W 7232  14.587   4.889   4.251
36633W        W 7233  23.117   0.491  12.111
36634W        W 7234  17.216  24.702   0.374
36635W        W 7235   3.338   8.321  13.256
36636W        W 7236  40.119  21.167  13.031
36637W        W 7237  14.096  36.470   3.494
36638W        W 7238  20.410   4.377   0.331
36639W        W 7239  23.654   5.324   2.211
36640W        W 7240  39.884  37.912   4.471
36641W        W 7241   2.915  29.485   3.995
36642W        W 7242   0.272  17.677  12.064
36643W        W 7243  40.818   2.415   4.161
36644W        W 7244  15.122  15.511   2.694
36645W        W 7245  33.342  18.815  11.611
36646W        W 7246  16.317  37.042  13.992
36647W        W 7247  40.861  13.259   4.789
36648W        W 7248  32.344  21.719   1.616
36649W        W 7249  36.907   3.961   2.742
36650W        W 7250   5.966  36.943   0.210
36651W        W 7251   8.800   4.405   0.295
36652W        W 7252  10.253  40.876   2.069
36653W        W 7253  17.376  16.637   2.115
36654W        W 7254  29.532  36.386  10.457
36655W        W 7255  27.629   0.994  14.926
36656W        W 7256  41.064  43.116   1.500
36657W        W 7257  38.590  17.326  11.987
36658W        W 7258  39.369  15.881   0.565
36659W        W 7259   8.236  11.844   1.456
36660W        W 7260  17.247  38.273   0.651
36661W        W 7261   0.702  17.764   4.439
36662W        W 7262  23.306   1.601   3.626
36663W        W 7263   5.355  31.394  14.548
36664W        W 7264   1.883  40.545   2.438
36665W        W 7265  44.002   4.814   1.849
36666W        W 7266  12.298  11.503  11.211
36667W        W 7267  38.025  11.799   2.908
36668W        W 7268  21.019  19.795  11.990
36669W        W 7269  13.296  25.081  12.934
36670W        W 7270  28.195  25.231  12.760
36671W        W 7271  33.702  29.672   2.477
36672W        W 7272  38.045  20.751  10.830
36673W        W 7273  28.343  25.211   3.895
36674W        W 7274   0.688  30.815  14.246
36675W        W 7275  11.780  25.022  14.468
36676W        W 7276  11.692  21.533  10.132
36677W        W 7277  40.715  11.885   2.583
36678W        W 7278   3.218  44.249  12.899
36679W        W 7279  38.772  43.315   0.208
36680W        W 7280  33.085   0.457   1.771
36681W        W 7281  24.149  16.160  11.752
36682W        W 7282  34.360  17.173  11.994
36683W        W 7283  21.047  13.354   1.309
36684W        W 7284  12.740   9.089  13.112
36685W        W 7285   5.059  33.870   1.204
36686W        W 7286  42.305  39.360   1.969
36687W        W 7287  30.769  21.182   3.121
36688W        W 7288  32.845  39.743   1.497
36689W        W 7289  13.913  12.517   2.470
36690W        W 7290  28.986   9.731   4.547
36691W        W 7291  35.836  14.376   1.270
36692W        W 7292  40.685  25.506  14.573
36693W        W 7293  21.116  17.683  13.927
36694W        W 7294   4.823  11.375   0.027
36695W        W 7295  31.318  36.986  14.277
36696W        W 7296   9.639  42.249  11.619
36697W        W 7297  34.038  19.316   4.287
36698W        W 7298  33.969  27.596  13.410
36699W        W 7299  20.680  31.066   3.432
36700W        W 7300  34.462  22.958  14.446
36701W        W 7301  22.416  32.099   4.664
36702W        W 7302   4.350  10.004   2.135
36703W        W 7303  12.842   8.747   2.145
36704W        W 7304  43.281  34.273  13.796
36705W        W 7305   3.258  39.316  10.737
36706W        W 7306  37.914  11.129   4.192
36707W        W 7307  39.631   6.477  14.327
36708W        W 7308  43.836  18.802  13.122
36709W        W 7309  25.452  22.548  12.201
36710W        W 7310  21.277  37.848   3.212
36711W        W 7311  20.880  19.785   4.939
36712W        W 7312   4.481   5.111  14.613
36713W        W 7313  15.678  41.860   4.446
36714W        W 7314  16.352  34.633   1.127
36715W        W 7315   7.417  21.504   4.586
36716W        W 7316  43.507  28.261  11.656
36717W        W 7317   1.931  27.915   0.262
36718W        W 7318  23.189   0.266  12.609
36719W        W 7319   7.634   1.557  12.446
36720W        W 7320   0.801  16.544   3.074
36721W        W 7321   7.185   2.392   4.488
36722W        W 7322  19.472   8.937   3.586
36723W        W 7323  34.161   3.617   1.801
36724W        W 7324  11.904  14.084  13.761
36725W        W 7325  24.150  30.612   3.921
36726W        W 7326  31.667  43.057   4.522
36727W        W 7327  37.949  37.384  13.216
36728W        W 7328   3.896   8.353   0.373
36729W        W 7329  37.826  31.834  12.711
36730W        W 7330  10.701  35.657  14.420
36731W        W 7331   3.823  30.138   0.919
36732W        W 7332  24.172   2.431   4.636
36733W        W 7333  37.056  24.625  14.389
36734W        W 7334   0.411  34.326  12.978
36735W        W 7335   9.093  15.054   3.671
36736W        W 7336  44.528  29.007  13.653
36737W        W 7337   8.094  20.515   2.109
36738W        W 7338   1.013  20.489  12.079
36739W        W 7339  25.861   4.189   0.691
36740W        W 7340  34.098   8.400  11.181
36741W        W 7341  27.485  27.143  13.838
36742W        W 7342  21.884  21.640  12.081
36743W        W 7343  39.702  39.880   3.638
36744W        W 7344   2.013   6.253   0.769
36745W        W 7345  20.501   0.259   2.373
36746W        W 7346  28.620  16.624  13.575
36747W        W 7347   5.233   3.704   4.264
36748W        W 7348  30.950   4.739  10.766
36749W        W 7349  13.686   7.628   1.294
36750W        W 7350  34.978  10.854   1.186
36751W        W 7351  29.656  14.669   4.844
36752W        W 7352  38.091  13.259   1.465
36753W        W 7353  35.623  34.621  11.024
36754W        W 7354  42.297  34.997  13.636
36755W        W 7355  19.752  23.622  13.474
36756W        W 7356  32.589   3.736   1.925
36757W        W 7357  15.332  29.632  10.631
36758W        W 7358  35.984   8.683   0.453
36759W        W 7359  13.807  36.546   1.925
36760W        W 7360  28.771   0.870   2.739
36761W        W 7361  21.106  29.331  12.094
36762W        W 7362  21.227   2.418  14.744
36763W        W 7363   3.732   4.726  11.150
36764W        W 7364   9.960  39.904   0.203
36765W        W 7365  24.685  18.146  14.833
36766W        W 7366  30.241  44.238  13.290
36767W        W 7367  11.546   9.443  12.361
36768W        W 7368   8.566  22.746   0.899
36769W        W 7369  17.465  41.940   3.144
36770W        W 7370  40.970  29.140  13.086
36771W        W 7371  10.840   7.654  11.714
36772W        W 7372  13.736  32.959  14.510
36773W        W 7373  28.841   3.023  11.956
36774W        W 7374  11.929  29.969  13.026
36775W        W 7375  31.938   5.475  13.897
36776W        W 7376  10.626   5.317   3.189
36777W        W 7377  29.006  38.969   3.641
36778W        W 7378  24.422   4.473  14.272
36779W        W 7379  12.726   6.405  12.463
36780W        W 7380  39.014  20.622   0.495
36781W        W 7381  35.517  16.047   0.872
36782W        W 7382  34.358  31.028   2.406
36783W        W 7383   7.108  18.289  12.434
36784W        W 7384  14.123  10.532   3.755
36785W        W 7385   5.769  26.735  10.977
36786W        W 7386  40.796  35.545   2.713
36787W        W 7387  13.692   4.501  12.985
36788W        W 7388  25.148  44.322   2.839
36789W        W 7389   1.804  36.667   2.754
36790W        W 7390  44.731  28.989   3.636
36791W        W 7391  15.096  28.076   4.650
36792W        W 7392  26.906  13.110   0.300
36793W        W 7393  43.349  42.628  12.964
36794W        W 7394  24.828  12.654   3.381
36795W        W 7395   7.127  10.603  11.320
36796W        W 7396  31.611  41.999   2.861
36797W        W 7397  29.421  35.796  11.120
36798W        W 7398  14.572  40.554  10.432
36799W        W 7399  41.298   2.355   0.330
36800W        W 7400  42.087   8.373   1.270
36801W        W 7401   1.697  36.294   0.977
36802W        W 7402  17.461  35.275   5.590
36803W        W 7403  21.540  26.009   4.715
36804W        W 7404  26.094   9.839  12.840
36805W        W 7405  30.908   9.399   2.123
36806W        W 7406  14.239  39.010   1.183
36807W        W 7407  42.072  12.610  14.404
36808W        W 7408  33.575  31.438  13.145
36809W        W 7409  20.551  38.834  13.801
36810W        W 7410   3.944  36.182  10.340
36811W        W 7411  20.992  31.588   0.323
36812W        W 7412  37.347  30.689  12.476
36813W        W 7413  26.519  20.274   1.725
36814W        W 7414   5.424  17.575  11.707
36815W        W 7415  19.706  34.862   4.491
36816W        W 7416   9.319   0.867   3.638
36817W        W 7417  41.743   2.478   4.810
36818W        W 7418   6.842   1.789   4.710
36819W        W 7419   7.252  12.505   1.976
36820W        W 7420   3.751  17.640   3.917
36821W        W 7421  37.358  17.512  12.919
36822W        W 7422  21.860  19.352  13.860
36823W        W 7423  18.450  21.798   3.598
36824W        W 7424  41.842  31.398  13.996
36825W        W 7425  13.810   3.676   2.205
36826W        W 7426  19.127  17.860   1.254
36827W        W 7427  15.674  12.530   4.723
36828W        W 7428  33.604  43.316  11.229
36829W        W 7429  11.205  26.677  14.939
36830W        W 7430  22.109  43.007  12.130
36831W        W 7431  16.223  20.055  12.376
36832W        W 7432  40.594  12.258   4.942
36833W        W 7433  41.347  11.277   0.931
36834W        W 7434  44.831   4.810   1.465
36835W        W 7435  20.121  42.392  13.031
36836W        W 7436  34.758  25.663  13.661
36837W        W 7437   7.715  24.197   4.255
36838W        W 7438  25.553  34.803  14.479
36839W        W 7439   6.319  41.222   1.416
36840W        W 7440   4.787   0.412   2.951
36841W        W 7441  23.603   2.294   0.356
36842W        W 7442  23.269  12.634  13.343
36843W        W 7443   6.866  29.415   4.417
36844W        W 7444  27.582  15.890   1.764
36845W        W 7445  43.996  43.857   2.685
36846W        W 7446   1.857  34.542  13.768
36847W        W 7447  39.769  42.573   0.091
36848W        W 7448  34.153  32.964  11.980
36849W        W 7449  15.539  30.134   1.756
36850W        W 7450  28.141  36.065  12.190
36851W        W 7451   3.225   7.154  13.825
36852W        W 7452  17.326  40.728  13.562
36853W        W 7453  16.077  24.953  12.666
36854W        W 7454  23.969  21.357  10.182
36855W        W 7455  26.412  43.383  14.356
36856W        W 7456  36.697  35.824  13.511
36857W        W 7457   5.474  16.206   2.802
36858W        W 7458  38.105  31.971  10.406
36859W        W 7459  23.573  11.984  13.898
36860W        W 7460  37.130  22.898   1.454
36861W        W 7461  13.533  35.006   3.132
36862W        W 7462  38.401  34.493   2.453
36863W        W 7463  37.965  39.363   0.317
36864W        W 7464  29.871  17.596   3.036
36865W        W 7465  24.692  15.819   1.740
36866W        W 7466   6.586  20.232   2.979
36867W        W 7467  41.859  43.998  12.977
36868W        W 7468   1.270  39.588  14.119
36869W        W 7469  39.366  36.080   0.178
36870W        W 7470   2.917  44.249   1.916
36871W        W 7471  10.328  18.178   4.287
36872W        W 7472  25.713  39.634   3.399
36873W        W 7473  14.976   8.975  14.042
36874W        W 7474  16.400  21.549  13.674
36875W        W 7475   0.228  35.606   4.082
36876W        W 7476  38.017  18.053  13.863
36877W        W 7477  21.311  39.009  11.622
36878W        W 7478  21.034   8.935   0.009
36879W        W 7479   8.376  41.078   4.132
36880W        W 7480  22.739   4.915   2.727
36881W        W 7481  36.477   5.749   2.673
36882W        W 7482  12.145  10.012   2.472
36883W        W 7483   7.115  13.652  11.662
36884W        W 7484  22.829  18.491   1.430
36885W        W 7485  40.499  26.246   0.367
36886W        W 7486   7.156   2.803  13.857
36887W        W 7487  16.682  32.742   2.388
36888W        W 7488   5.185  23.113  11.601
36889W        W 7489   5.993  18.079  11.912
36890W        W 7490  32.924  16.072  11.720
36891W        W 7491   8.808   5.825   3.278
36892W        W 7492  21.205  19.803   1.667
36893W        W 7493   8.868  31.862   3.420
36894W        W 7494   7.326  15.616   0.193
36895W        W 7495  20.651  22.267   0.002
36896W        W 7496   9.325  32.495  10.668
36897W        W 7497  27.153   8.356  12.933
36898W        W 7498  40.764  10.309   2.391
36899W        W 7499  32.448  11.651   1.257
36900W        W 7500  39.281   3.184   0.926
36901W        W 7501  23.440  19.959   1.273
36902W        W 7502  10.430   9.225   4.337
36903W        W 7503   8.069  43.138   4.041
36904W        W 7504   6.346  22.163  13.879
36905W        W 7505  39.466  38.140   3.178
36906W        W 7506  37.856  12.081   0.221
36907W        W 7507  37.484  34.896  14.773
36908W        W 7508  38.378  11.128  12.934
36909W        W 7509  15.960  18.600  14.070
36910W        W 7510   9.338  43.535   0.780
36911W        W 7511  28.561  10.039  12.379
36912W        W 7512  37.512  43.773   3.920
36913W        W 7513   7.796  16.006  11.169
36914W        W 7514  25.657   7.698   5.574
36915W        W 7515  18.533  12.872   1.820
36916W        W 7516   6.259   9.719   2.226
36917W        W 7517  44.816  20.355  14.513
36918W        W 7518   3.974  30.507  11.673
36919W        W 7519  25.459  39.016  10.491
36920W        W 7520  32.215  41.176  10.269
36921W        W 7521  23.205  18.212   0.708
36922W        W 7522  11.235  31.613  14.809
36923W        W 7523  25.833  14.517  12.650
36924W        W 7524  12.060   3.363   1.183
36925W        W 7525  17.824  40.365   4.229
36926W        W 7526  24.530   5.175  14.045
36927W        W 7527  36.359   6.954   3.441
36928W        W 7528  17.056  28.993  12.056
36929W        W 7529  40.498  36.145  11.535
36930W        W 7530  26.629  25.552  13.364
36931W        W 7531  36.600  43.997   3.386
36932W        W 7532  16.390  23.092  14.276
36933W        W 7533   0.418  11.403   4.721
36934W        W 7534  32.624  21.687   3.087
36935W        W 7535  22.640  21.514   2.394
36936W        W 7536  13.832  24.805  14.478
36937W        W 7537   0.799  18.158   4.104
36938W        W 7538   3.925  31.334   5.010
36939W        W 7539  40.796  42.778  13.947
36940W        W 7540  11.281  44.742  11.978
36941W        W 7541  18.150  28.238  11.474
36942W        W 7542  24.445  17.180  13.072
36943W        W 7543  18.800  22.300  14.100
36944W        W 7544  33.782  20.193  13.637
36945W        W 7545  14.832  16.517   0.354
36946W        W 7546  13.403   8.423   0.317
36947W        W 7547  22.286   6.884  10.312
36948W        W 7548  19.767   3.488   4.617
36949W        W 7549  32.596   8.821   4.152
36950W        W 7550   1.745  34.895   2.297
36951W        W 7551  28.932   5.388  14.293
36952W        W 7552  37.906   9.220   0.774
36953W        W 7553  39.555  23.644   2.422
36954W        W 7554  30.601   0.209  12.991
36955W        W 7555  25.124  33.376   4.080
36956W        W 7556   9.674  44.880   1.715
36957W        W 7557  44.886  42.850   0.798
36958W        W 7558  35.104  31.478   0.894
36959W        W 7559   9.895   2.275   1.829
36960W        W 7560   8.931  17.369  11.063
36961W        W 7561   6.292   5.486   2.719
36962W        W 7562   2.741  41.817   0.841
36963W        W 7563  38.575  30.654   2.325
36964W        W 7564  31.581  14.646   0.696
36965W        W 7565  43.990  20.977  11.075
36966W        W 7566  26.000  42.989  11.176
36967W        W 7567  29.847  21.575  11.139
36968W        W 7568   0.937  22.880   0.415
36969W        W 7569  44.998  31.053   3.262
36970W        W 7570  29.094   8.370  13.163
36971W        W 7571  23.408   7.680  12.127
36972W        W 7572  38.456  40.605   0.575
36973W        W 7573  12.165  39.358  14.040
36974W        W 7574  42.379   3.296   1.884
36975W        W 7575  40.405  30.343   4.510
36976W        W 7576  18.092  39.316  11.567
36977W        W 7577   9.234  16.670   0.839
36978W        W 7578   1.930   3.474   0.998
36979W        W 7579   5.478  21.547   1.658
36980W        W 7580   0.519  12.285   2.692
36981W        W 7581  35.084  17.205  12.584
36982W        W 7582  27.976  16.358   2.994
36983W        W 7583  30.866  38.465   1.900
36984W        W 7584  21.746  24.671  14.978
36985W        W 7585  29.830  36.250   4.951
36986W        W 7586   3.437  37.299   3.022
36987W        W 7587  33.319  16.070  14.335
36988W        W 7588  27.992  12.398  13.993
36989W        W 7589   1.744  21.913   0.040
36990W        W 7590  43.292  24.118   3.658
36991W        W 7591  34.131  11.884   2.280
36992W        W 7592  39.391  17.499  10.630
36993W        W 7593  43.109   1.436  11.185
36994W        W 7594  27.132  33.559   0.849
36995W        W 7595  41.453  19.093   1.898
36996W        W 7596  44.396   5.612  10.890
36997W        W 7597  27.416  13.688   1.432
36998W        W 7598  26.912   0.762  10.720
36999W        W 7599  40.891  40.355   0.855
37000W        W 7600   5.837  16.168  13.739
37001W        W 7601  36.427   2.519   1.808
37002W        W 7602  36.130  14.099   2.729
37003W        W 7603   7.698  42.901   0.229
37004W        W 7604  25.617  29.089   1.790
37005W        W 7605  12.296  35.563  13.733
37006W        W 7606  21.274  14.415  11.518
37007W        W 7607  20.574  32.781   4.607
37008W        W 7608   3.965  16.281   4.536
37009W        W 7609  40.325  29.934  13.827
37010W        W 7610  21.740  24.701  11.087
37011W        W 7611  33.689  15.352   1.229
37012W        W 7612  31.222  37.133   2.431
37013W        W 7613  41.047   4.361  14.797
37014W        W 7614  22.547  33.518  13.090
37015W        W 7615  12.776  15.045  12.018
37016W        W 7616   3.916  13.030   3.139
37017W        W 7617  24.806  29.600   3.813
37018W        W 7618  30.072  25.442   2.403
37019W        W 7619   4.242  15.258   2.302
37020W        W 7620   5.857   8.331  10.893
37021W        W 7621   6.077  43.048  12.485
37022W        W 7622   3.700  17.673  11.594
37023W        W 7623  13.660  20.911  13.053
37024W        W 7624   0.893   6.472  13.304
37025W        W 7625  28.023   3.907  11.103
37026W        W 7626  13.304  27.166  13.423
37027W        W 7627  43.850  33.114  13.787
37028W        W 7628  21.916  10.233   3.417
37029W        W 7629  28.043  22.585  13.599
37030W        W 7630  19.212   2.508   1.701
37031W        W 7631   8.196   1.705  11.082
37032W        W 7632  27.301  22.737  14.909
37033W        W 7633  26.251   4.725   1.757
37034W        W 7634  10.104  36.473   3.277
37035W        W 7635  35.468  36.357  12.088
37036W        W 7636  27.729  20.810  13.522
37037W        W 7637  41.456  15.299  13.984
37038W        W 7638  43.002  13.273  12.729
37039W        W 7639  20.316   7.601  12.436
37040W        W 7640  28.412  44.514  12.208
37041W        W 7641  33.938   1.401  13.490
37042W        W 7642  41.032  11.156   0.125
37043W        W 7643   7.780  11.421  12.937
37044W        W 7644  25.385  22.545  14.407
37045W        W 7645   2.028  16.642  12.047
37046W        W 7646   4.202  36.321  13.748
37047W        W 7647  27.213  43.846   3.619
37048W        W 7648  44.819  36.358  11.931
37049W        W 7649  35.912  10.840   3.905
37050W        W 7650  18.036  34.116  12.968
37051W        W 7651  18.436  32.846  12.000
37052W        W 7652  43.377  15.524   0.371
37053W        W 7653  39.318   8.304  14.368
37054W        W 7654  31.879   8.160   4.557
37055W        W 7655  13.748  17.135   0.882
37056W        W 7656  19.160   9.284   0.385
37057W        W 7657  10.759  33.656  12.080
37058W        W 7658  25.044  28.712  14.118
37059W        W 7659  31.624  24.007  13.560
37060W        W 7660  30.601  23.658   4.230
37061W        W 7661  44.205  43.329   2.704
37062W        W 7662   5.778   2.124  10.713
37063W        W 7663  19.167  35.788   1.628
37064W        W 7664  20.845  18.139  12.857
37065W        W 7665   6.683  30.426   2.830
37066W        W 7666  14.805  22.510   0.278
37067W        W 7667  16.685  31.018   4.760
37068W        W 7668   3.437  27.636  13.702
37069W        W 7669   3.812  21.813  12.025
37070W        W 7670   2.040  10.142  13.460
37071W        W 7671   4.580  12.152  12.517
37072W        W 7672  42.515  30.749  11.904
37073W        W 7673   6.690   8.318   0.773
37074W        W 7674  40.836  32.079  14.304
37075W        W 7675  35.823  35.946  12.092
37076W        W 7676   0.846  13.105   4.145
37077W        W 7677   8.032  10.258  11.664
37078W        W 7678  17.863  44.929   1.207
37079W        W 7679   7.722  24.455  12.986
37080W        W 7680   6.148  22.618  14.775
37081W        W 7681  33.118  44.028  11.243
37082W        W 7682  25.429  42.720  11.969
37083W        W 7683   2.943  38.571   1.266
37084W        W 7684   2.553  35.420   1.316
37085W        W 7685   5.281  33.016   0.328
37086W        W 7686  18.798  21.598  13.439
37087W        W 7687   4.317  39.481   2.308
37088W        W 7688  35.900  19.625   0.247
37089W        W 7689   6.008  36.063  12.551
37090W        W 7690  34.132  44.853  13.075
37091W        W 7691  10.377  39.368  10.721
37092W        W 7692  22.435   1.990  10.859
37093W        W 7693  17.776  43.792  10.547
37094W        W 7694  35.211  29.198  12.083
37095W        W 7695  25.617  24.491   4.550
37096W        W 7696  40.536  27.573   1.239
37097W        W 7697  32.081  40.641  12.369
37098W        W 7698  27.727  11.029   2.413
37099W        W 7699  31.007  44.308   3.638
37100W        W 7700  10.212  31.203  12.589
37101W        W 7701  41.833  34.997  13.400
37102W        W 7702  36.666  13.959   3.488
37103W        W 7703  13.725  15.666  14.136
37104W        W 7704  24.428  37.375  11.965
37105W        W 7705   7.525  27.675  13.397
37106W        W 7706  32.004   4.975   4.232
37107W        W 7707   9.610   8.788  12.012
37108W        W 7708  10.398  10.217  11.909
37109W        W 7709   8.986  25.650  11.255
37110W        W 7710   6.081  20.956  12.956
37111W        W 7711   9.846  21.172  10.686
37112W        W 7712  42.107  18.691  14.007
37113W        W 7713  41.535   6.712  12.099
37114W        W 7714  13.271  10.956  13.510
37115W        W 7715  35.912  30.941   5.104
37116W        W 7716  38.485  41.092   4.152
37117W        W 7717  31.745  33.881   2.410
37118W        W 7718  16.650   7.185   2.445
37119W        W 7719  21.081  16.198   4.803
37120W        W 7720  29.215  26.563   4.654
37121W        W 7721   5.025  10.536   1.390
37122W        W 7722  10.290  20.166   0.448
37123W        W 7723   4.316   5.943  11.075
37124W        W 7724  11.787   2.973  11.810
37125W        W 7725  21.306  25.946  10.750
37126W        W 7726  29.374   5.723  11.527
37127W        W 7727   3.001  36.999   4.640
37128W        W 7728  20.544  18.702  13.485
37129W        W 7729  10.246   2.650  12.417
37130W        W 7730  30.988  12.811  11.981
37131W        W 7731  41.529  21.165   0.061
37132W        W 7732   6.562  33.946   1.408
37133W        W 7733   7.419  32.982  14.026
37134W        W 7734  12.147   2.765  11.086
37135W        W 7735  28.491   0.221   0.503
37136W        W 7736  39.794  36.818   3.317
37137W        W 7737  21.762   2.845  10.694
37138W        W 7738  29.872  35.837   1.483
37139W        W 7739  22.085  22.049  14.557
37140W        W 7740  42.426  38.856   4.601
37141W        W 7741  27.687  22.522   3.366
37142W        W 7742  11.109  17.258  10.597
37143W        W 7743  24.255  19.314  12.352
37144W        W 7744   9.780  40.587  11.131
37145W        W 7745   3.014   0.279  12.881
37146W        W 7746  31.822  34.149  13.157
37147W        W 7747  18.052  19.273  10.758
37148W        W 7748   7.034  18.263  11.165
37149W        W 7749   0.302   0.857   4.367
37150W        W 7750  21.273  31.470  13.942
37151W        W 7751  34.191   1.858   2.377
37152W        W 7752   0.990   5.359   1.243
37153W        W 7753  43.966  41.282  14.307
37154W        W 7754  23.730   9.615  10.763
37155W        W 7755  35.797   7.362  14.935
37156W        W 7756   1.911  38.480   2.962
37157W        W 7757  36.566  23.396   2.705
37158W        W 7758  28.409  42.890   0.795
37159W        W 7759  20.899  26.029  14.504
37160W        W 7760  44.370  23.472   2.784
37161W        W 7761  42.684  20.178  14.584
37162W        W 7762  38.464  33.166  12.472
37163W        W 7763  22.944  15.848  10.068
37164W        W 7764  24.927   0.239   1.321
37165W        W 7765  22.620   4.002  13.793
37166W        W 7766   4.980  32.989   0.751
37167W        W 7767  25.976  38.670  14.362
37168W        W 7768  40.412  40.112   0.851
37169W        W 7769   4.403  30.953  14.430
37170W        W 7770  24.308  23.097  11.502
37171W        W 7771  23.561  16.172   2.186
37172W        W 7772  21.462  27.440  12.108
37173W        W 7773   7.383  41.372  14.566
37174W        W 7774  21.531   3.186  13.209
37175W        W 7775  32.975  29.522  11.352
37176W        W 7776  13.095  31.827   5.001
37177W        W 7777  16.943  37.913   2.797
37178W        W 7778  32.668  28.894  14.421
37179W        W 7779  25.098  37.116  11.257
37180W        W 7780  25.662  17.118   1.331
37181W        W 7781  35.389  39.128  10.733
37182W        W 7782   3.833   5.714   0.756
37183W        W 7783  23.214  26.201  12.414
37184W        W 7784  37.068   4.240   4.331
37185W        W 7785  26.535  24.669   1.343
37186W        W 7786  25.267  30.061   1.645
37187W        W 7787  23.587  10.915   4.163
37188W        W 7788  37.545  17.020  11.255
37189W        W 7789  25.278  42.291   4.887
37190W        W 7790   6.426  36.217  14.250
37191W        W 7791   4.356   4.166   1.399
37192W        W 7792  16.769   0.231   1.888
37193W        W 7793  39.906  41.902  14.394
37194W        W 7794  41.928  16.271   1.359
37195W        W 7795   3.257  10.224  14.446
37196W        W 7796  39.746  33.562   0.332
37197W        W 7797   7.974  22.552  11.031
37198W        W 7798  17.639  28.051   4.576
37199W        W 7799  13.729  35.399   1.875
37200W        W 7800  12.833  11.539  10.718
37201W        W 7801   7.476  40.896   0.183
37202W        W 7802  39.442   7.278   3.165
37203W        W 7803  11.657  23.578   1.847
37204W        W 7804  12.522  33.837  11.510
37205W        W 7805   1.736  41.918  10.808
37206W        W 7806  33.000   9.152   4.187
37207W        W 7807   9.349   1.959   3.807
37208W        W 7808  33.167  17.334   1.046
37209W        W 7809   4.969  29.078   2.972
37210W        W 7810  35.594  33.705   1.811
37211W        W 7811  10.140  32.831   2.743
37212W        W 7812  30.424  37.562  13.539
37213W        W 7813  32.132  42.258  13.500
37214W        W 7814  21.976  42.006  13.018
37215W        W 7815  23.702  35.832  10.736
37216W        W 7816  42.297  24.123   2.153
37217W        W 7817   1.901   0.168  10.711
37218W        W 7818  11.867  20.841  13.876
37219W        W 7819  24.845  43.977  12.558
37220W        W 7820  31.979  37.491  14.998
37221W        W 7821  27.528  27.085   2.227
37222W        W 7822   2.520  41.050   3.889
37223W        W 7823  32.529  17.137  12.429
37224W        W 7824  17.852  24.459   3.671
37225W        W 7825  32.039   6.253  13.545
37226W        W 7826  20.295  13.209   0.439
37227W        W 7827   3.419  14.314   0.424
37228W        W 7828  36.641  18.602   2.869
37229W        W 7829  16.890   2.334   2.633
37230W        W 7830   6.830  36.619  11.096
37231W        W 7831  13.810  39.381  12.161
37232W        W 7832  33.451  25.462  10.938
37233W        W 7833  11.209  13.859  11.457
37234W        W 7834  26.730  19.037  13.006
37235W        W 7835  15.036  21.116   4.626
37236W        W 7836  40.549  27.529  10.929
37237W        W 7837  32.297   1.798   0.941
37238W        W 7838  17.233  32.605  14.394
37239W        W 7839  43.796   8.761  11.013
37240W        W 7840  24.713   2.765  12.091
37241W        W 7841  24.854  30.615   4.770
37242W        W 7842  30.456  22.790  12.678
37243W        W 7843   2.502  32.114  13.841
37244W        W 7844  14.132  15.365   1.437
37245W        W 7845  32.432   1.752   2.872
37246W        W 7846  37.292  17.753   2.210
37247W        W 7847  11.337  29.106  10.726
37248W        W 7848  13.661  23.033  10.520
37249W        W 7849  37.069  31.806   1.062
37250W        W 7850   9.620  41.307  12.210
37251W        W 7851  34.097  44.978  14.507
37252W        W 7852  12.147  20.146  10.775
37253W        W 7853   4.025   0.977   3.615
37254W        W 7854  24.200  41.766  11.632
37255W        W 7855   2.246   7.061  12.009
37256W        W 7856   8.814  31.929   3.975
37257W        W 7857  19.033  37.369  14.913
37258W        W 7858   7.683  44.242  14.097
37259W        W 7859   5.464  31.478  11.652
37260W        W 7860  44.872  32.946  12.965
37261W        W 7861  16.036  40.398   2.402
37262W        W 7862  39.779  11.373   2.813
37263W        W 7863  19.638  22.966   3.165
37264W        W 7864  15.721  12.099   4.458
37265W        W 7865   1.935  13.320   1.792
37266W        W 7866  29.864   8.767  14.944
37267W        W 7867  31.192  38.711   5.412
37268W        W 7868  19.430  41.493   5.044
37269W        W 7869  43.831  35.597   1.359
37270W        W 7870  44.485  32.318   4.512
37271W        W 7871  37.626   0.722   2.714
37272W        W 7872  13.322  25.752   1.453
37273W        W 7873  40.332  25.198  12.133
37274W        W 7874  29.049  27.510   3.286
37275W        W 7875  22.832   2.629  11.444
37276W        W 7876  19.564  28.837  11.606
37277W        W 7877  39.985  23.287   1.707
37278W        W 7878   8.281  34.992  13.817
37279W        W 7879  27.416  21.673  12.727
37280W        W 7880  31.334  16.227   1.638
37281W        W 7881  13.542  16.757  14.590
37282W        W 7882  19.640  38.516   3.842
37283W        W 7883  32.448  16.846  11.611
37284W        W 7884   1.788  44.071  12.296
37285W        W 7885   4.388  15.906  12.657
37286W        W 7886  23.715  37.080  12.909
37287W        W 7887  40.450  35.782   3.199
37288W        W 7888   1.319  37.978   2.397
37289W        W 7889   8.630   9.610   2.542
37290W        W 7890  27.552  37.916  14.914
37291W        W 7891  10.602   7.754   0.019
37292W        W 7892  39.794  29.766  10.749
37293W        W 7893  40.359  19.299  14.489
37294W        W 7894   5.459   9.293   5.254
37295W        W 7895  10.544  30.100  12.015
37296W        W 7896   1.238  21.627  13.817
37297W        W 7897  24.922  24.408  11.533
37298W        W 7898  39.709   1.514  13.561
37299W        W 7899  34.847   8.665  11.802
37300W        W 7900  29.186   5.034  11.102
37301W        W 7901  20.978  26.743   0.031
37302W        W 7902  18.974  36.539  11.224
37303W        W 7903  38.887  28.010  13.476
37304W        W 7904   1.195  23.117  14.990
37305W        W 7905  17.601  21.851  14.357
37306W        W 7906  34.651  39.367  13.396
37307W        W 7907   9.429  20.136  12.088
37308W        W 7908  18.745  11.049  12.657
37309W        W 7909  24.953  36.832  13.504
37310W        W 7910  40.459  34.029   4.331
37311W        W 7911  19.096  37.023   4.565
37312W        W 7912  26.180  33.694   0.897
37313W        W 7913  44.637  19.196   1.324
37314W        W 7914  10.114   1.188  11.970
37315W        W 7915  19.942  16.197  13.719
37316W        W 7916  33.838   8.150   2.810
37317W        W 7917   7.151  14.610   4.710
37318W        W 7918  44.558  26.093   3.751
37319W        W 7919  40.750  43.159  14.306
37320W        W 7920  37.909   7.916   0.326
37321W        W 7921  24.450  35.501   0.804
37322W        W 7922  39.561  27.265   4.154
37323W        W 7923   3.437  25.925  14.428
37324W        W 7924   6.771  14.099  10.768
37325W        W 7925  24.019  41.792   1.388
37326W        W 7926  43.914  19.703  12.884
37327W        W 7927  13.063  15.386  11.269
37328W        W 7928  33.866  28.900  14.582
37329W        W 7929   5.416  43.006   1.017
37330W        W 7930   4.926   9.802   2.685
37331W        W 7931  42.035  38.490  12.961
37332W        W 7932   3.408  26.202   3.214
37333W        W 7933  23.110  17.224   3.147
37334W        W 7934   4.031   8.311  11.919
37335W        W 7935  13.352  31.596   0.713
37336W        W 7936  38.556  39.359   2.193
37337W        W 7937  25.017  23.343   2.770
37338W        W 7938  35.620   5.230  12.968
37339W        W 7939  37.821  18.212   0.269
37340W        W 7940  17.150   8.074   1.801
37341W        W 7941   1.357   2.828  14.965
37342W        W 7942  44.906   8.211  13.442
37343W        W 7943  18.898  27.101   1.888
37344W        W 7944  23.734   6.872  13.815
37345W        W 7945  23.093   5.523  11.992
37346W        W 7946  31.099   4.353   4.600
37347W        W 7947  33.056  13.307  14.735
37348W        W 7948  14.141   9.397  12.554
37349W        W 7949  41.745  43.416  14.403
37350W        W 7950  18.996  39.264  11.940
37351W        W 7951   0.505   2.688  14.595
37352W        W 7952  12.235   5.124  12.885
37353W        W 7953   8.313  14.704  13.163
37354W        W 7954   9.849   7.707  10.659
37355W        W 7955  21.252  18.222  11.987
37356W        W 7956  12.633  37.982  11.484
37357W        W 7957  42.391  29.747  14.342
37358W        W 7958   1.834  12.770   1.906
37359W        W 7959  19.261  37.946   3.264
37360W        W 7960  29.084  39.161   1.228
37361W        W 7961  13.227  27.867   4.681
37362W        W 7962   4.907  12.449  11.171
37363W        W 7963  25.192  21.477  13.864
37364W        W 7964  43.882  44.467  13.051
37365W        W 7965  38.891   6.304   4.359
37366W        W 7966  42.603  28.168   1.814
37367W        W 7967  26.225  34.796  13.433
37368W        W 7968  23.164  29.916   2.523
37369W        W 7969  21.535   0.768  13.437
37370W        W 7970  22.077  13.733  14.920
37371W        W 7971  36.266   7.525  12.025
37372W        W 7972  22.203   9.698  11.619
37373W        W 7973  30.343   3.282   0.527
37374W        W 7974  29.758  29.264  14.030
37375W        W 7975   1.880  43.380   0.534
37376W        W 7976  13.365   8.728   2.130
37377W        W 7977  37.172  21.211   0.275
37378W        W 7978  33.351  17.818  11.526
37379W        W 7979  10.577  13.967   4.623
37380W        W 7980  31.057  31.911  14.926
37381W        W 7981   5.872  19.021  11.585
37382W        W 7982   0.307  14.066   4.110
37383W        W 7983  27.428  10.049  11.441
37384W        W 7984  13.283  11.481   1.275
37385W        W 7985  38.319  21.102  13.518
37386W        W 7986   2.686  13.811  13.082
37387W        W 7987  15.819  36.937   1.012
37388W        W 7988  44.904  22.775  14.449
37389W        W 7989  20.208   4.740   4.086
37390W        W 7990  19.094  21.510  14.667
37391W        W 7991  20.270   4.734  13.563
37392W        W 7992   3.493  33.452   0.255
37393W        W 7993  13.752  29.107   3.850
37394W        W 7994  26.178   7.265   2.445
37395W        W 7995  15.612  19.611   0.229
37396W        W 7996  44.928  25.241   2.339
37397W        W 7997  14.004  30.549  10.214
37398W        W 7998  29.444   4.860  12.944
37399W        W 7999   5.216  34.117  13.519
37400W        W 8000  28.601  33.713   1.125
37401W        W 8001  30.510  17.235   2.792
37402W        W 8002   9.676  25.098   0.214
37403W        W 8003   7.378  30.476   4.081
37404W        W 8004  24.959  25.740   2.562
37405W        W 8005  12.977  12.260  14.243
37406W        W 8006  43.423  40.293  13.949
37407W        W 8007  11.562  11.936   1.720
37408W        W 8008  31.618  10.628   0.940
37409W        W 8009  41.474  22.068  14.342
37410W        W 8010  40.902   0.135  11.207
37411W        W 8011  31.049   0.471  12.928
37412W        W 8012  41.518   9.188   2.201
37413W        W 8013  38.034  15.806  13.612
37414W        W 8014  25.819  12.709   2.283
37415W        W 8015  30.976  44.062  13.426
37416W        W 8016  26.656  13.586  11.921
37417W        W 8017  27.138  36.124   0.814
37418W        W 8018   8.746  20.251   4.676
37419W        W 8019  37.847   4.400  12.930
37420W        W 8020  30.222   7.754   2.022
37421W        W 8021  17.329  31.094  12.618
37422W        W 8022  29.257   6.268   4.674
37423W        W 8023  42.405  31.849  12.530
37424W        W 8024  12.688   9.193   3.407
37425W        W 8025  43.854  26.491   3.304
37426W        W 8026   7.353  24.963   2.288
37427W        W 8027  24.112  29.871   4.494
37428W        W 8028  14.354  18.073  13.355
37429W        W 8029  10.601  21.739   0.930
37430W        W 8030  18.997  35.366  11.252
37431W        W 8031  34.570  18.708  11.148
37432W        W 8032   9.289  43.049   2.857
37433W        W 8033  15.877  29.140   4.978
37434W        W 8034   8.913  38.283   5.094
37435W        W 8035   0.472  20.576   2.698
37436W        W 8036  22.641  18.308  10.206
37437W        W 8037  33.370  43.079   3.698
37438W        W 8038   9.230  36.052   0.841
37439W        W 8039  27.596  23.683  14.088
37440W        W 8040  11.157  38.445   1.833
37441W        W 8041  12.170  13.642   4.187
37442W        W 8042  25.481  17.611   2.269
37443W        W 8043  26.551  43.431   4.472
37444W        W 8044  44.372  39.671   3.772
37445W        W 8045  18.251  13.085  13.412
37446W        W 8046   6.223  23.541  13.175
37447W        W 8047  36.308  35.580  13.916
37448W        W 8048  16.328  12.840   1.303
37449W        W 8049  20.018  34.518   2.343
37450W        W 8050  12.844  35.373   1.804
37451W        W 8051  35.417  13.009  14.245
37452W        W 8052  21.397  39.899  10.305
37453W        W 8053  26.894  10.825   4.327
37454W        W 8054  39.970  13.028  14.296
37455W        W 8055  11.561  31.517  11.967
37456W        W 8056  37.764  26.154  12.166
37457W        W 8057  12.371  18.880  11.253
37458W        W 8058  13.685   9.159  11.416
37459W        W 8059  10.897   5.312   2.325
37460W        W 8060   6.508  40.010  14.003
37461W        W 8061   9.694  29.085  13.949
37462W        W 8062  21.720  42.187  14.817
37463W        W 8063  18.060  31.074   2.774
37464W        W 8064  11.726  32.106   2.836
37465W        W 8065  37.373  33.938   0.320
37466W        W 8066  17.183  12.452  12.948
37467W        W 8067  42.489  23.535   4.665
37468W        W 8068   0.264  18.014   3.516
37469W        W 8069  32.462   6.027   0.773
37470W        W 8070   7.165   1.235   3.256
37471W        W 8071  12.129  32.542   3.915
37472W        W 8072  31.182  12.713  12.892
37473W        W 8073  21.797  17.101   1.810
37474W        W 8074   1.108  13.932  14.803
37475W        W 8075  29.333  38.899   2.340
37476W        W 8076  29.502  28.639  12.918
37477W        W 8077  17.030   6.811   2.065
37478W        W 8078   3.862  33.828   3.137
37479W        W 8079   4.867  26.122   0.529
37480W        W 8080   5.606  10.322  10.331
37481W        W 8081   7.786  27.568  14.002
37482W        W 8082   9.732  26.023   3.403
37483W        W 8083  37.236  41.274   1.081
37484W        W 8084  10.303   1.954   0.501
37485W        W 8085  25.051  37.544  12.932
37486W        W 8086  25.690  24.024   0.367
37487W        W 8087  30.667   6.778   1.237
37488W        W 8088  25.373   8.694   1.838
37489W        W 8089   7.313  30.135   0.387
37490W        W 8090  40.550  24.352  11.260
37491W        W 8091  22.618  26.152   0.330
37492W        W 8092  40.471   9.341  14.976
37493W        W 8093  18.967   6.717   3.629
37494W        W 8094  20.184  25.398  13.839
37495W        W 8095  14.513  43.543   3.358
37496W        W 8096   5.834  39.492  14.944
37497W        W 8097  34.915  37.931  13.377
37498W        W 8098  23.827  23.001  11.387
37499W        W 8099  11.900  43.064  13.000
37500W        W 8100  17.600   2.088  11.575
37501W        W 8101  21.774  35.335  11.316
37502W        W 8102  30.524   6.994   2.666
37503W        W 8103  38.326  40.333   3.953
37504W        W 8104  25.957  23.600  10.388
37505W        W 8105  26.637   7.212  13.229
37506W        W 8106   6.920  10.356  10.635
37507W        W 8107  10.599  36.595   1.480
37508W        W 8108  16.058   4.186   0.690
37509W        W 8109  16.653   5.399   4.023
37510W        W 8110  13.584  22.046  10.732
37511W        W 8111   2.516  15.965  11.487
37512W        W 8112  32.428  12.707  14.539
37513W        W 8113  30.897  20.668   3.177
37514W        W 8114   9.822  40.848   4.322
37515W        W 8115  23.569  21.106  10.394
37516W        W 8116  16.796   6.300   2.844
37517W        W 8117   0.254  13.492   1.435
37518W        W 8118   0.961  40.441  13.551
37519W        W 8119  13.115  20.336  12.591
37520W        W 8120   8.844  37.885  10.395
37521W        W 8121  16.343  33.965   1.955
37522W        W 8122  24.716  13.348   0.811
37523W        W 8123  23.458  35.514  13.764
37524W        W 8124  30.568   1.787   2.432
37525W        W 8125  34.312   2.853  14.934
37526W        W 8126  42.123  32.082  11.643
37527W        W 8127   0.981  29.629  11.446
37528W        W 8128  13.122  28.613  14.858
37529W        W 8129  12.252   2.571   4.690
37530W        W 8130  35.870  28.237   0.230
37531W        W 8131  31.877  16.588  13.387
37532W        W 8132  36.011  26.193   1.447
37533W        W 8133   6.498   1.034  12.593
37534W        W 8134   4.417  17.068   4.160
37535W        W 8135  29.156   1.919  13.416
37536W        W 8136  44.237  21.473  11.815
37537W        W 8137  40.558  38.553   4.321
37538W        W 8138  23.047  39.004  11.420
37539W        W 8139  41.015  20.117   4.212
37540W        W 8140   3.442  18.073  13.323
37541W        W 8141  31.323  42.836   0.028
37542W        W 8142  23.683  33.599   1.356
37543W        W 8143   6.677  41.328   3.241
37544W        W 8144  43.740  18.780  10.383
37545W        W 8145  20.215   3.439   0.150
37546W        W 8146  11.871  28.714  11.185
37547W        W 8147  42.246  24.517  10.898
37548W        W 8148   2.714  38.955   0.820
37549W        W 8149  22.685  13.953  11.610
37550W        W 8150  44.889  17.538  10.671
37551W        W 8151   8.334  28.781   4.580
37552W        W 8152  39.920   4.458   1.829
37553W        W 8153  26.741  12.063  13.567
37554W        W 8154  21.076   1.833   0.728
37555W        W 8155  38.316  31.848  13.859
37556W        W 8156  36.961   3.481  13.363
37557W        W 8157  37.822   6.243   2.613
37558W        W 8158   9.273   3.355  14.332
37559W        W 8159  32.532   3.754  13.885
37560W        W 8160  24.167  29.659  12.755
37561W        W 8161  34.415   7.391   2.764
37562W        W 8162  11.787  27.003  12.977
37563W        W 8163  25.242   2.165   4.094
37564W        W 8164  33.688  30.787   4.513
37565W        W 8165  23.173  33.124   0.608
37566W        W 8166  40.024  39.218   4.703
37567W        W 8167  13.172  31.212   2.102
37568W        W 8168  10.740   4.437   4.035
37569W        W 8169  10.627   9.809  12.122
37570W        W 8170  16.372   3.892  14.284
37571W        W 8171  41.079  10.062   3.774
37572W        W 8172  12.528  38.840   3.967
37573W        W 8173  31.686  36.013   0.157
37574W        W 8174  11.610  38.469   2.926
37575W        W 8175   4.921  37.507   4.068
37576W        W 8176  39.774  30.027  14.819
37577W        W 8177  42.818   9.237   0.239
37578W        W 8178  20.526  31.895  10.779
37579W        W 8179  11.215  21.055  11.844
37580W        W 8180   4.891   7.441   2.782
37581W        W 8181  33.261   8.060   3.457
37582W        W 8182  34.975   1.575  12.398
37583W        W 8183  42.939  35.277  11.125
37584W        W 8184  33.563  44.874   4.083
37585W        W 8185   8.307  21.066   4.892
37586W        W 8186  35.670  23.351   4.453
37587W        W 8187  37.636  16.904   1.251
37588W        W 8188  10.620  21.114  12.577
37589W        W 8189   2.999  40.535  11.601
37590W        W 8190  20.721  29.644   3.303
37591W        W 8191  18.627  19.900   0.422
37592W        W 8192   7.282  36.162  14.919
37593W        W 8193   6.611  27.966  12.237
37594W        W 8194   3.650  12.587   3.142
37595W        W 8195   5.787  34.792  10.433
37596W        W 8196  30.594  12.323  10.729
37597W        W 8197  22.530   8.223   1.009
37598W        W 8198  22.774  18.101  12.926
37599W        W 8199  32.681  34.126   3.330
37600W        W 8200  19.259  42.739  12.048
37601W        W 8201  19.423  44.399  12.746
37602W        W 8202  28.395  10.771  13.311
37603W        W 8203  36.611  15.015  13.141
37604W        W 8204  14.559  19.445  12.116
37605W        W 8205  11.306  41.295   1.316
37606W        W 8206   9.666   6.649   2.679
37607W        W 8207   6.739   4.848  12.533
37608W        W 8208   6.639  44.994  14.745
37609W        W 8209  15.568  30.069   4.669
37610W        W 8210   4.666  33.046   1.179
37611W        W 8211   5.236   0.387  10.663
37612W        W 8212   9.656  15.182  11.638
37613W        W 8213   4.667  15.497  14.784
37614W        W 8214  42.589  18.543  10.863
37615W        W 8215  15.267  41.100  13.907
37616W        W 8216  29.083  30.454  13.397
37617W        W 8217  41.062   5.428   1.365
37618W        W 8218   9.827  17.688  13.108
37619W        W 8219  29.471  23.438   0.727
37620W        W 8220  33.167  28.959   2.160
37621W        W 8221  24.023  14.353   2.219
37622W        W 8222   0.418   4.921   3.699
37623W        W 8223  43.022   3.879   3.254
37624W        W 8224  22.349  39.355   1.892
37625W        W 8225   2.011  19.158  12.946
37626W        W 8226  18.203  19.530   1.897
37627W        W 8227   2.858   2.738  14.452
37628W        W 8228  30.217   3.225   9.897
37629W        W 8229   0.271  43.238   0.071
37630W        W 8230  26.963  22.227   2.025
37631W        W 8231   7.875   8.212  11.199
37632W        W 8232  14.269   7.249   0.825
37633W        W 8233  33.660   4.497   3.643
37634W        W 8234   7.354  13.019  14.140
37635W        W 8235  39.077   4.190  13.397
37636W        W 8236   3.215  37.584   2.120
37637W        W 8237  33.078  21.062  11.460
37638W        W 8238  32.436  32.123   2.172
37639W        W 8239  14.582   4.012   2.820
37640W        W 8240  25.643  42.886   4.011
37641W        W 8241  24.548   1.102   1.795
37642W        W 8242  18.222  43.820   1.708
37643W        W 8243  29.604  23.019  13.486
37644W        W 8244  41.541  38.505  13.032
37645W        W 8245  18.365  25.912   1.615
37646W        W 8246  12.666   4.896   4.828
37647W        W 8247  16.570  22.599  12.261
37648W        W 8248  37.201   1.658  12.786
37649W        W 8249   5.949  21.267   0.196
37650W        W 8250   2.859  35.518  14.283
37651W        W 8251  25.329  39.071   0.023
37652W        W 8252  36.449  42.501   2.003
37653W        W 8253   3.100   6.297  14.759
37654W        W 8254  37.804  13.599  12.128
37655W        W 8255  19.023  24.435  11.494
37656W        W 8256  15.143  26.455  11.934
37657W        W 8257   9.863   0.962  11.535
37658W        W 8258  30.345  16.390  11.685
37659W        W 8259  33.589  44.471   1.993
37660W        W 8260  35.852  27.487   2.271
37661W        W 8261  20.595   2.873   1.449
37662W        W 8262  14.995  12.760  12.720
37663W        W 8263   3.084  34.590  14.798
37664W        W 8264  15.358  27.061  11.960
37665W        W 8265  24.870  11.896  12.964
37666W        W 8266   8.415  29.569  14.830
37667W        W 8267  32.002   8.184   3.731
37668W        W 8268  27.823  24.162  13.986
37669W        W 8269  31.653  38.388  10.618
37670W        W 8270  42.237  43.783   0.772
37671W        W 8271  14.304  16.446   2.940
37672W        W 8272  43.045   0.040  14.889
37673W        W 8273  32.913   9.698   3.103
37674W        W 8274   0.637   8.276  11.710
37675W        W 8275  24.879  40.978  13.441
37676W        W 8276   8.167  22.327  12.484
37677W        W 8277  31.862   1.620   2.357
37678W        W 8278   8.278  37.115   0.525
37679W        W 8279   0.827  26.569  10.740
37680W        W 8280   7.854   8.681  11.457
37681W        W 8281  29.683  34.657  12.463
37682W        W 8282  13.882  33.205  12.267
37683W        W 8283  42.911  36.761  12.141
37684W        W 8284  21.273  14.693   2.769
37685W        W 8285  36.073  33.611   3.021
37686W        W 8286   2.292  16.761  13.450
37687W        W 8287   8.921  14.038  11.629
37688W        W 8288  19.709  40.397   4.600
37689W        W 8289   7.303  18.452   0.578
37690W        W 8290  38.932  38.695  14.848
37691W        W 8291  19.303  16.343   2.271
37692W        W 8292  18.618  33.936  11.849
37693W        W 8293   5.359   8.850  12.601
37694W        W 8294  31.981  27.451   1.805
37695W        W 8295  42.049   3.478  14.494
37696W        W 8296  29.480  13.101  14.750
37697W        W 8297  11.669   5.952   4.545
37698W        W 8298  21.144  26.129   2.421
37699W        W 8299   9.707  36.006  10.862
37700W        W 8300  44.039  41.433  13.459
37701W        W 8301  17.520  35.555   5.138
37702W        W 8302  24.475   0.781  10.675
37703W        W 8303  44.831  29.927  14.763
37704W        W 8304  17.781  13.416  10.893
37705W        W 8305   8.828   9.094   1.826
37706W        W 8306  18.099  21.720   2.688
37707W        W 8307  44.353  21.449  12.298
37708W        W 8308  25.916  35.925  14.791
37709W        W 8309  44.483   4.347  11.525
37710W        W 8310  25.157  36.153   4.812
37711W        W 8311  18.233  16.836   2.120
37712W        W 8312   2.016  41.790   4.077
37713W        W 8313  15.445   7.160  11.554
37714W        W 8314  31.317   6.738  14.702
37715W        W 8315  35.149  38.362   0.448
37716W        W 8316  34.203  38.077  14.408
37717W        W 8317  28.974  15.788  13.470
37718W        W 8318  16.784  19.325   5.111
37719W        W 8319  33.800  18.269   3.881
37720W        W 8320  28.112  31.347  12.054
37721W        W 8321  20.741  10.905  13.916
37722W        W 8322  21.461  26.943  10.573
37723W        W 8323   6.484  27.490  13.375
37724W        W 8324  26.789  15.516  12.977
37725W        W 8325   5.665  44.836  14.959
37726W        W 8326  11.678  35.619  11.470
37727W        W 8327  35.160  43.914   3.210
37728W        W 8328  28.988  12.067  13.434
37729W        W 8329  13.242  13.786   0.803
37730W        W 8330  10.407  24.052  12.060
37731W        W 8331  29.661   1.985  14.920
37732W        W 8332  39.059  39.454  14.244
37733W        W 8333   4.223  38.008  13.385
37734W        W 8334  30.385  19.812  11.172
37735W        W 8335  27.207  13.108  14.465
37736W        W 8336  31.378   3.506  11.089
37737W        W 8337  23.122  29.141   0.374
37738W        W 8338   7.852   5.929   1.396
37739W        W 8339  30.739   4.023  13.809
37740W        W 8340  12.763  13.377  11.045
37741W        W 8341   6.778  38.009  11.648
37742W        W 8342  39.257  32.934   1.351
37743W        W 8343  25.729  12.276   2.542
37744W        W 8344  23.273   5.779   3.604
37745W        W 8345   7.782   5.916  14.361
37746W        W 8346  35.814  30.382   3.617
37747W        W 8347   1.066  39.296  12.025
37748W        W 8348  38.404  33.657   0.163
37749W        W 8349  19.472  43.890  12.946
37750W        W 8350  22.620   7.674   2.767
37751W        W 8351  37.503  28.576   3.863
37752W        W 8352   8.954  43.978   4.567
37753W        W 8353  42.417  17.175   4.369
37754W        W 8354  41.055  22.158   1.790
37755W        W 8355  24.740  41.977   0.905
37756W        W 8356  39.317  11.649  13.815
37757W        W 8357   1.953  39.824   4.324
37758W        W 8358   2.307   9.810  12.536
37759W        W 8359  13.862   1.155   1.337
37760W        W 8360  28.030  34.595   0.687
37761W        W 8361   0.472   1.359  13.048
37762W        W 8362  27.423   6.760   4.126
37763W        W 8363  29.968  44.499   3.055
37764W        W 8364  23.791  12.512  12.108
37765W        W 8365   5.953  43.376   0.256
37766W        W 8366  16.723  24.771   3.939
37767W        W 8367   2.715   7.567  13.801
37768W        W 8368  43.298   5.850   4.620
37769W        W 8369  17.747  22.511  13.384
37770W        W 8370   9.843  38.791  10.912
37771W        W 8371  29.635   4.015  12.539
37772W        W 8372   9.661   7.192   2.677
37773W        W 8373   0.524  43.434   0.497
37774W        W 8374  15.313  23.547  13.475
37775W        W 8375  28.940   9.240   1.929
37776W        W 8376  31.001  29.062   4.549
37777W        W 8377   2.145  34.074  13.618
37778W        W 8378  22.994  27.957   4.420
37779W        W 8379  34.393  24.063   1.624
37780W        W 8380   4.395   6.220  13.476
37781W        W 8381  16.311  18.828   0.400
37782W        W 8382  21.050  33.202   5.066
37783W        W 8383   1.285  15.246   0.509
37784W        W 8384  27.583   1.980   4.892
37785W        W 8385  33.239  38.481   2.322
37786W        W 8386   8.429  25.601   1.683
37787W        W 8387   3.762  20.544  13.280
37788W        W 8388   7.719  38.188  14.827
37789W        W 8389  22.076   9.502   2.671
37790W        W 8390  36.847  42.260   1.763
37791W        W 8391  24.121  25.928  14.033
37792W        W 8392  41.551  21.614   1.096
37793W        W 8393  29.177  42.805  13.430
37794W        W 8394  15.242   8.435  11.114
37795W        W 8395   7.305  35.303  12.503
37796W        W 8396  10.905  22.607  13.397
37797W        W 8397  28.551  23.123  14.899
37798W        W 8398  36.158  35.869  13.488
37799W        W 8399  33.149  31.889   0.381
37800W        W 8400  17.663  24.957   3.685
37801W        W 8401  17.674  25.769   3.146
37802W        W 8402  10.895  25.208   3.909
37803W        W 8403  24.601  24.173  13.131
37804W        W 8404   9.154  42.488   3.786
37805W        W 8405  13.172  37.416  13.463
37806W        W 8406   5.842  10.412  14.830
37807W        W 8407   5.904  15.073  13.825
37808W        W 8408  21.036  40.552   0.427
37809W        W 8409  13.837  19.870  12.323
37810W        W 8410   9.874  26.258   1.331
37811W        W 8411  14.664  17.222   2.340
37812W        W 8412  10.162  36.609   1.789
37813W        W 8413  36.873   4.032   0.315
37814W        W 8414  25.016  20.102   1.363
37815W        W 8415  41.893  10.009   0.714
37816W        W 8416  12.258  11.087   0.345
37817W        W 8417  29.029  39.283   3.236
37818W        W 8418  38.872  31.946  12.959
37819W        W 8419   1.389  12.842   0.207
37820W        W 8420   8.087   8.703   4.955
37821W        W 8421   0.333  17.707  13.092
37822W        W 8422   4.686  41.137  12.140
37823W        W 8423  32.649  18.297   4.455
37824W        W 8424   0.434   7.759  12.913
37825W        W 8425   7.597  39.818   2.349
37826W        W 8426   1.645  30.547   0.815
37827W        W 8427   2.715  34.883  13.885
37828W        W 8428  20.261  44.900   2.688
37829W        W 8429   9.305  33.063  14.337
37830W        W 8430   4.922  20.554  13.986
37831W        W 8431  14.538  23.973   0.239
37832W        W 8432  13.755  37.755   2.262
37833W        W 8433  37.677  38.306  13.873
37834W        W 8434  20.707   9.885  10.806
37835W        W 8435  37.466  18.244  12.060
37836W        W 8436  19.907  20.992   0.027
37837W        W 8437  32.038  38.973   1.421
37838W        W 8438   1.021  44.975  12.981
37839W        W 8439  29.380  39.484   3.567
37840W        W 8440  44.816  18.799  14.004
37841W        W 8441  20.263  42.513   3.404
37842W        W 8442  37.460  14.637   4.875
37843W        W 8443   1.422  26.646   3.581
37844W        W 8444  14.815  25.482  11.174
37845W        W 8445  41.203  14.587   3.183
37846W        W 8446  29.046   1.901   0.982
37847W        W 8447  10.579   4.921  12.471
37848W        W 8448  34.464  37.892  13.617
37849W        W 8449  12.535   5.624   0.215
37850W        W 8450  12.059  23.247   1.337
37851W        W 8451  24.669  27.910   0.716
37852W        W 8452  10.817  29.107  12.873
37853W        W 8453  27.491   2.840   1.819
37854W        W 8454  33.819  44.488  12.851
37855W        W 8455  20.163  27.216  13.426
37856W        W 8456  14.341  22.089   4.536
37857W        W 8457  11.197   7.191  10.683
37858W        W 8458  34.322   1.691  11.884
37859W        W 8459  18.132  44.500   2.575
37860W        W 8460  34.063  39.406   2.614
37861W        W 8461   0.384  13.681  10.386
37862W        W 8462   2.426   2.351  13.600
37863W        W 8463   3.909  30.418  13.960
37864W        W 8464  23.962   1.592  11.545
37865W        W 8465   2.342  17.568  12.338
37866W        W 8466  10.902  17.261  12.013
37867W        W 8467   1.191  26.758  12.494
37868W        W 8468  38.686  43.966   4.579
37869W        W 8469  22.829  19.521   3.356
37870W        W 8470  18.290   5.702  14.808
37871W        W 8471  26.069  35.454  14.033
37872W        W 8472  20.152  39.862  11.549
37873W        W 8473  23.596  11.637   1.751
37874W        W 8474  31.425   7.840  11.404
37875W        W 8475  30.065   9.153  13.087
37876W        W 8476  23.629  26.366   3.123
37877W        W 8477   4.291  16.465   1.800
37878W        W 8478   8.924  10.258  10.288
37879W        W 8479   2.649  20.038  13.778
37880W        W 8480   6.135  10.852  14.700
37881W        W 8481  17.579   3.266   3.223
37882W        W 8482  15.692  23.062  11.249
37883W        W 8483  39.960   4.348   3.368
37884W        W 8484  30.963  32.934  14.767
37885W        W 8485  20.568  39.035   3.903
37886W        W 8486  26.068  39.506   0.700
37887W        W 8487  36.477   0.366  11.726
37888W        W 8488  31.148  26.709  12.999
37889W        W 8489  41.314   0.842  12.578
37890W        W 8490   8.621  40.380  13.099
37891W        W 8491  43.270  16.802   1.920
37892W        W 8492   4.853  33.238  11.628
37893W        W 8493  27.617  18.975   3.193
37894W        W 8494  36.953  17.482  14.813
37895W        W 8495  11.848  43.540  11.131
37896W        W 8496  30.785   3.798   1.416
37897W        W 8497  16.768  34.240  11.478
37898W        W 8498  27.216   1.923   1.394
37899W        W 8499   8.764   6.761   2.848
37900W        W 8500  17.111   3.534  11.488
37901W        W 8501  17.740  23.114  13.389
37902W        W 8502  27.007  19.673   0.914
37903W        W 8503  36.406   8.974   0.366
37904W        W 8504  27.072  38.502   2.442
37905W        W 8505  24.488  42.392   3.828
37906W        W 8506  37.925  24.073  13.362
37907W        W 8507  42.062  14.882   4.160
37908W        W 8508   1.451  12.893  12.816
37909W        W 8509   6.929   5.516  13.836
37910W        W 8510   0.246   0.716   1.384
37911W        W 8511   3.842  14.502  13.157
37912W        W 8512  10.362  41.316   0.365
37913W        W 8513  23.865  41.812   2.552
37914W        W 8514  23.707  37.630   0.052
37915W        W 8515  11.352  34.527  13.968
37916W        W 8516  44.446  20.568   2.697
37917W        W 8517  23.261  34.335   4.095
37918W        W 8518  44.254   5.251   1.719
37919W        W 8519  43.653   1.952  14.529
37920W        W 8520   4.520   0.094   3.264
37921W        W 8521   2.162  17.085   0.002
37922W        W 8522   3.211   8.042  12.073
37923W        W 8523  33.635  18.828   4.666
37924W        W 8524   2.064  40.487   0.870
37925W        W 8525  17.740  38.102  14.547
37926W        W 8526  44.485  29.484   4.628
37927W        W 8527   0.485  14.495   3.881
37928W        W 8528  33.318  25.055   3.780
37929W        W 8529  14.360  16.123   0.783
37930W        W 8530   2.862  10.222  12.630
37931W        W 8531   3.554   8.399  11.082
37932W        W 8532  10.735  28.412   3.775
37933W        W 8533  21.634  42.988   0.468
37934W        W 8534   6.105  20.435  11.235
37935W        W 8535  27.795  41.159  12.204
37936W        W 8536  10.244  10.645  12.210
37937W        W 8537  42.386  35.016   0.388
37938W        W 8538  26.175  34.396   4.603
37939W        W 8539   3.497  26.242   4.132
37940W        W 8540  32.110  29.536  14.105
37941W        W 8541  39.477  19.716   4.019
37942W        W 8542  44.272  15.938  10.332
37943W        W 8543  37.393   1.379  14.292
37944W        W 8544  40.230  19.506   3.649
37945W        W 8545  15.450  12.645  12.519
37946W        W 8546  42.659  28.945  13.117
37947W        W 8547  34.556   5.736   3.767
37948W        W 8548  29.166   8.348   3.883
37949W        W 8549  24.659  30.006   0.213
37950W        W 8550  36.825  11.814   3.693
37951W        W 8551  27.241  34.932  13.680
37952W        W 8552  22.493  15.342  14.451
37953W        W 8553  33.046  22.381   1.641
37954W        W 8554  28.068  19.347   1.489
37955W        W 8555   2.246  28.182   1.342
37956W        W 8556  44.204  25.941   0.005
37957W        W 8557  41.198  41.008   1.466
37958W        W 8558  12.342  11.955  13.449
37959W        W 8559  18.242  13.539  14.233
37960W        W 8560  28.399  31.065   3.930
37961W        W 8561   2.896  26.403  11.487
37962W        W 8562  26.052  35.626  10.615
37963W        W 8563  35.690   6.292   0.758
37964W        W 8564   8.671  41.746  13.395
37965W        W 8565   8.394  41.055  11.202
37966W        W 8566  26.371  36.929  10.776
37967W        W 8567   0.559  40.805  14.279
37968W        W 8568  35.462   1.510  12.530
37969W        W 8569  31.109  24.128  11.215
37970W        W 8570  25.498  24.517   0.290
37971W        W 8571  14.303  36.511  13.046
37972W        W 8572   7.668   9.928  10.746
37973W        W 8573   7.154   4.200  13.918
37974W        W 8574  31.527  21.577   2.250
37975W        W 8575   6.000   2.474  11.155
37976W        W 8576  26.016  38.596   0.292
37977W        W 8577  28.905  18.207   3.679
37978W        W 8578   9.716  26.346  13.406
37979W        W 8579  19.069  40.823  12.097
37980W        W 8580   4.357   0.556   3.553
37981W        W 8581  18.258  23.993  12.481
37982W        W 8582  37.285  12.603   4.096
37983W        W 8583  33.480  26.008  14.597
37984W        W 8584  22.557  26.633  11.946
37985W        W 8585  11.816  24.977   1.816
37986W        W 8586  36.887  16.947   2.756
37987W        W 8587  41.841  18.617   3.718
37988W        W 8588  12.740  31.511  11.586
37989W        W 8589  36.999  42.479   1.313
37990W        W 8590  15.140  12.601   4.596
37991W        W 8591  18.146  15.090  13.905
37992W        W 8592  13.061  12.453   0.284
37993W        W 8593   3.745  19.382  10.832
37994W        W 8594   5.806  30.159   4.833
37995W        W 8595  35.015  25.457  11.926
37996W        W 8596  42.864   1.482  11.622
37997W        W 8597   0.297  44.267  13.887
37998W        W 8598   3.258  17.199   2.707
37999W        W 8599  26.954  37.278   2.179
38000W        W 8600  13.801  10.723   2.854
38001W        W 8601  36.234   9.708   4.892
38002W        W 8602  41.950  25.557  11.686
38003W        W 8603  19.839  35.071  12.155
38004W        W 8604  22.506  40.245  12.127
38005W        W 8605  15.117  41.959   1.907
38006W        W 8606  38.448  30.616  12.127
38007W        W 8607  44.295  29.665  12.956
38008W        W 8608   5.246  15.233  13.065
38009W        W 8609  42.454   2.411  13.927
38010W        W 8610  11.860  15.793   0.922
38011W        W 8611  19.184  28.979   5.360
38012W        W 8612  27.265   5.208  10.839
38013W        W 8613   3.679  43.015   2.616
38014W        W 8614  15.380  30.644   1.592
38015W        W 8615  22.055  25.305  12.859
38016W        W 8616  19.245  10.699   1.876
38017W        W 8617   4.928  43.457   4.161
38018W        W 8618  34.903  39.174  14.659
38019W        W 8619  16.393  24.955   3.165
38020W        W 8620   2.454  29.229   3.947
38021W        W 8621  20.079  39.281  10.771
38022W        W 8622  43.800  37.271  10.573
38023W        W 8623  17.934  38.345  11.465
38024W        W 8624  42.530  38.413   4.852
38025W        W 8625  31.555  12.955   2.808
38026W        W 8626  21.974  27.478  12.037
38027W        W 8627  13.140   4.078   3.312
38028W        W 8628  44.201  14.607  11.605
38029W        W 8629  30.954  38.432  14.813
38030W        W 8630   0.800  22.222  12.523
38031W        W 8631  20.610  13.743   4.888
38032W        W 8632  16.133  32.693  11.150
38033W        W 8633  33.540   4.487   2.298
38034W        W 8634  19.447  38.412  12.632
38035W        W 8635  16.301  13.397   0.437
38036W        W 8636  32.179  44.718   1.135
38037W        W 8637  34.608  39.878   4.234
38038W        W 8638   6.626   5.139   4.213
38039W        W 8639  23.335  10.441  10.691
38040W        W 8640  13.572  26.494  13.089
38041W        W 8641  39.630  41.493  10.755
38042W        W 8642  13.773   9.221  12.887
38043W        W 8643  37.910  10.845   2.462
38044W        W 8644  39.096  16.200  14.415
38045W        W 8645  43.577  39.530  12.070
38046W        W 8646  18.600  28.706   2.357
38047W        W 8647  17.165   4.039  11.380
38048W        W 8648  41.832   8.774  10.668
38049W        W 8649  38.480  27.422  12.175
38050W        W 8650  36.105  44.425   3.604
38051W        W 8651  12.230  24.777   1.484
38052W        W 8652  23.107   2.952  12.216
38053W        W 8653  11.795  20.777   2.867
38054W        W 8654  43.346  29.591  12.112
38055W        W 8655  23.216  44.483  13.552
38056W        W 8656   9.432  35.443  10.434
38057W        W 8657   9.595  39.531  13.828
38058W        W 8658  31.731  19.238  14.005
38059W        W 8659  30.919  12.600  13.347
38060W        W 8660  25.244  43.836   1.694
38061W        W 8661  28.605  34.212   2.745
38062W        W 8662  15.770   3.357  12.429
38063W        W 8663  40.417  23.095   1.494
38064W        W 8664  22.629   5.708   0.424
38065W        W 8665  14.324  17.294  12.912
38066W        W 8666  15.568  42.886  14.848
38067W        W 8667  18.020  11.873  12.187
38068W        W 8668  26.688  34.084   0.300
38069W        W 8669  38.567  22.151   1.919
38070W        W 8670   4.731  42.854   0.289
38071W        W 8671  13.103  25.993   3.675
38072W        W 8672   6.881  29.703  12.979
38073W        W 8673  37.456  16.981   2.654
38074W        W 8674  21.670  19.149   3.372
38075W        W 8675  25.655  38.483  12.082
38076W        W 8676  27.033   8.853  14.303
38077W        W 8677  42.439   6.894   0.642
38078W        W 8678  12.457   8.930  11.377
38079W        W 8679  44.897  19.280  13.101
38080W        W 8680   8.058  26.461  13.370
38081W        W 8681  34.606  23.027   3.608
38082W        W 8682   6.846  26.514   1.804
38083W        W 8683  20.135  20.063  14.631
38084W        W 8684  18.091  22.085   3.355
38085W        W 8685  16.055  29.078   4.467
38086W        W 8686  17.582   0.774  13.068
38087W        W 8687   7.946  12.817  13.056
38088W        W 8688  41.149  14.878   0.768
38089W        W 8689   0.814  33.165   3.883
38090W        W 8690   6.762  22.966   0.770
38091W        W 8691  19.909  12.831   1.353
38092W        W 8692  18.832  17.569  13.882
38093W        W 8693  34.063  31.243   3.278
38094W        W 8694   8.973  10.846   1.277
38095W        W 8695  17.090  44.298  10.556
38096W        W 8696   0.333   2.484  10.693
38097W        W 8697  25.108  22.573  12.938
38098W        W 8698  34.498  44.697  12.362
38099W        W 8699  17.190  25.702  11.261
38100W        W 8700  44.643  34.127  14.071
38101W        W 8701  39.560  40.336  13.043
38102W        W 8702   1.714  37.554   4.165
38103W        W 8703   9.210  11.613  12.407
38104W        W 8704   5.978   0.973  12.575
38105W        W 8705   8.674   1.852  11.099
38106W        W 8706   8.679  21.487  14.700
38107W        W 8707  25.574   6.168  12.898
38108W        W 8708   9.650  36.543  11.160
38109W        W 8709  41.989   4.207  13.086
38110W        W 8710  15.109  28.280  12.130
38111W        W 8711  31.845   8.671   1.333
38112W        W 8712   7.845  13.151  14.379
38113W        W 8713  40.339  40.552  11.517
38114W        W 8714  38.449  15.272   4.472
38115W        W 8715   5.823   6.807  11.988
38116W        W 8716  35.849  38.456  11.340
38117W        W 8717   3.943  17.130  13.775
38118W        W 8718  28.125  34.597   0.172
38119W        W 8719  19.142  39.072   2.717
38120W        W 8720  23.433  31.927   0.357
38121W        W 8721  39.419  39.435   0.023
38122W        W 8722  35.553  25.760   4.217
38123W        W 8723  28.490  32.549  13.830
38124W        W 8724   8.871  37.338  14.365
38125W        W 8725  10.181  44.918   1.806
38126W        W 8726  44.403  29.704  10.787
38127W        W 8727   0.946   1.990   4.235
38128W        W 8728  17.865  28.104  12.268
38129W        W 8729   7.136  10.938  14.565
38130W        W 8730  43.908  26.709   1.909
38131W        W 8731  24.929  37.483   4.541
38132W        W 8732  23.085   3.877   3.205
38133W        W 8733  22.539  34.027  14.314
38134W        W 8734  24.023  35.401   1.135
38135W        W 8735  36.255  42.645  14.408
38136W        W 8736  40.113  24.919   0.401
38137W        W 8737  41.203  17.498  10.345
38138W        W 8738   8.178  10.299   3.402
38139W        W 8739  31.556   1.243  11.503
38140W        W 8740  25.224  18.738  13.277
38141W        W 8741  22.122  19.251   0.496
38142W        W 8742  41.340  21.528  12.405
38143W        W 8743  27.082   6.203  11.973
38144W        W 8744   1.044  41.975  14.301
38145W        W 8745  26.608  31.118   4.271
38146W        W 8746   2.910  17.791  13.971
38147W        W 8747  39.396  30.348   0.856
38148W        W 8748  44.471  40.867   0.243
38149W        W 8749  36.565  43.204   0.274
38150W        W 8750  17.176  34.987  13.802
38151W        W 8751  37.263  11.430   0.533
38152W        W 8752  23.912  23.452  13.112
38153W        W 8753  29.656  28.800  13.391
38154W        W 8754  43.942  20.602  13.620
38155W        W 8755   7.669  37.622   2.290
38156W        W 8756  29.856  12.611   3.704
38157W        W 8757  23.808   7.980  11.970
38158W        W 8758   1.907  14.334   1.986
38159W        W 8759  31.524  24.720   4.660
38160W        W 8760   3.247  38.188  13.513
38161W        W 8761  19.545  40.578  11.908
38162W        W 8762  21.969  41.427  12.215
38163W        W 8763  22.368   7.575   4.564
38164W        W 8764  38.829  43.435  13.402
38165W        W 8765  33.882  41.598  11.363
38166W        W 8766  21.763   0.546   3.597
38167W        W 8767  14.336   0.362  13.451
38168W        W 8768   5.080   7.993   0.659
38169W        W 8769  21.153  18.332   1.385
38170W        W 8770  12.850  33.964   0.294
38171W        W 8771  44.808   3.433  14.858
38172W        W 8772  34.161  31.590  13.947
38173W        W 8773   9.171  32.377   0.056
38174W        W 8774  24.675  35.864  12.897
38175W        W 8775  39.475  34.860  14.148
38176W        W 8776   0.814   9.870  12.470
38177W        W 8777  18.028  40.443  12.906
38178W        W 8778  35.115  28.365   4.534
38179W        W 8779  24.998  34.318   2.765
38180W        W 8780  20.271  21.223  11.682
38181W        W 8781  17.259  16.688   0.095
38182W        W 8782  38.709   5.823  11.994
38183W        W 8783   9.182  35.794   2.613
38184W        W 8784  44.441  29.840   5.026
38185W        W 8785  17.985   4.181   1.407
38186W        W 8786  14.767   4.362   1.394
38187W        W 8787  26.761  26.041  12.499
38188W        W 8788   5.867  21.647   4.982
38189W        W 8789  16.268  16.792  10.822
38190W        W 8790  11.258  38.919   2.126
38191W        W 8791   2.165   4.252   0.510
38192W        W 8792  43.083  21.258   3.215
38193W        W 8793  25.747  20.256  11.070
38194W        W 8794  24.713  37.015   4.828
38195W        W 8795  35.535  24.371   4.415
38196W        W 8796  41.135  20.974  12.882
38197W        W 8797  16.159  35.958   3.401
38198W        W 8798  16.503  30.179   4.870
38199W        W 8799  13.688  16.109  11.792
38200W        W 8800  34.337  40.084   3.137
38201W        W 8801  42.230  11.704   2.593
38202W        W 8802  29.362  41.832   1.736
38203W        W 8803  31.634  34.887   3.143
38204W        W 8804  23.721  14.682   2.713
38205W        W 8805  14.662  29.556   2.721
38206W        W 8806  18.147  14.615   1.360
38207W        W 8807  38.066  42.491  10.936
38208W        W 8808  43.106  24.352  11.125
38209W        W 8809   9.755  39.970  11.780
38210W        W 8810  36.096   5.022  10.453
38211W        W 8811  24.289   1.795  11.923
38212W        W 8812  41.582  39.334  14.339
38213W        W 8813  31.039  15.785  11.728
38214W        W 8814   9.511  44.154   1.831
38215W        W 8815  40.217  17.604   0.722
38216W        W 8816  11.870  14.168   3.092
38217W        W 8817   4.857  15.776  12.491
38218W        W 8818  22.993  39.419  14.993
38219W        W 8819  12.399  14.447   3.796
38220W        W 8820  25.153  27.165  13.455
38221W        W 8821  39.321  37.924   2.698
38222W        W 8822   0.773   3.909   0.423
38223W        W 8823  27.891  11.744   1.344
38224W        W 8824  36.532  13.921  12.307
38225W        W 8825  14.644  34.700   3.593
38226W        W 8826   7.730   7.901  13.474
38227W        W 8827  32.451  44.862   2.043
38228W        W 8828  35.331   8.812   5.082
38229W        W 8829  28.630  14.603  12.092
38230W        W 8830   3.477  36.521   4.717
38231W        W 8831  11.861  42.555  10.125
38232W        W 8832  37.785  38.665  13.446
38233W        W 8833  37.878   8.316   4.178
38234W        W 8834   9.642  39.399   3.738
38235W        W 8835   0.022  20.276  10.990
38236W        W 8836   4.011  20.783   3.964
38237W        W 8837   7.672  10.625   0.217
38238W        W 8838   4.196  18.977   4.236
38239W        W 8839  37.101  20.284  14.532
38240W        W 8840  30.426   6.322   1.360
38241W        W 8841  16.261  42.073  14.778
38242W        W 8842  11.164   1.441  13.975
38243W        W 8843  24.060   2.952  14.334
38244W        W 8844  29.482   0.958   0.014
38245W        W 8845  26.479  13.562   3.875
38246W        W 8846  29.947  16.682  11.369
38247W        W 8847  28.500  43.182   4.450
38248W        W 8848  44.109  20.010   1.378
38249W        W 8849   4.448  39.828  13.495
38250W        W 8850  22.559  30.435  13.063
38251W        W 8851  21.081  25.871   3.639
38252W        W 8852  34.026  34.559  13.429
38253W        W 8853  26.822   3.546   0.022
38254W        W 8854  15.844   1.974   1.513
38255W        W 8855  21.182   3.781  10.340
38256W        W 8856   5.639  10.387   1.660
38257W        W 8857  22.791  24.238  12.027
38258W        W 8858  13.731  20.649   2.766
38259W        W 8859  35.843  39.892   4.747
38260W        W 8860  40.571  32.508  14.458
38261W        W 8861   1.666  42.613  11.345
38262W        W 8862  30.711  37.074   2.355
38263W        W 8863  30.778  13.823   1.336
38264W        W 8864   0.334  20.350  10.589
38265W        W 8865  30.376  19.957   1.447
38266W        W 8866  14.333  40.948   2.202
38267W        W 8867  39.432   3.894  14.270
38268W        W 8868  25.095  13.094  11.648
38269W        W 8869  28.567   9.255  13.129
38270W        W 8870   5.855   0.622  14.294
38271W        W 8871  41.972  14.030  13.991
38272W        W 8872  20.967  26.693  10.684
38273W        W 8873  38.207  35.855  12.396
38274W        W 8874   1.115  35.523  14.355
38275W        W 8875  12.735  25.424   4.182
38276W        W 8876   3.509   7.579   1.264
38277W        W 8877  32.683  31.444   0.813
38278W        W 8878  24.032  18.948  14.411
38279W        W 8879   3.944  24.979  13.356
38280W        W 8880  25.685  30.511  13.430
38281W        W 8881  33.912  12.394  12.352
38282W        W 8882  38.126  16.788   2.148
38283W        W 8883  36.894   7.772   3.811
38284W        W 8884   9.967  15.475   2.353
38285W        W 8885  20.128  30.024  11.149
38286W        W 8886   6.420  14.549  12.437
38287W        W 8887  43.049  33.594   4.771
38288W        W 8888   5.664  21.634   0.430
38289W        W 8889  27.349  24.611   1.701
38290W        W 8890  25.985   6.984   0.302
38291W        W 8891  10.807  27.939  13.422
38292W        W 8892   3.245  28.022   1.734
38293W        W 8893  26.455  28.477   0.510
38294W        W 8894   3.366  44.357   0.759
38295W        W 8895   5.488  23.054  12.045
38296W        W 8896  23.118   9.152  11.660
38297W        W 8897   6.855  11.642   0.551
38298W        W 8898   9.025  17.670   2.680
38299W        W 8899  27.602  28.745   2.859
38300W        W 8900  17.700  17.220   1.352
38301W        W 8901  20.700  35.097  13.961
38302W        W 8902  18.084  39.917   0.583
38303W        W 8903  20.001  17.523  10.694
38304W        W 8904  17.517   0.177  14.912
38305W        W 8905  36.430   8.715   1.386
38306W        W 8906   7.085  30.910   0.794
38307W        W 8907  39.944  28.590   4.345
38308W        W 8908   8.024  28.772  11.558
38309W        W 8909  22.537   6.668   2.873
38310W        W 8910  14.653  27.092  11.589
38311W        W 8911   6.535  23.996  13.858
38312W        W 8912  44.394   7.663   3.367
38313W        W 8913   1.857   3.403  14.592
38314W        W 8914  29.387   5.294   3.749
38315W        W 8915   2.428  23.275  13.897
38316W        W 8916  37.346  15.798   0.402
38317W        W 8917  20.006  17.081  14.335
38318W        W 8918  19.847  42.955   2.358
38319W        W 8919  12.285  22.386  13.977
38320W        W 8920  17.288  19.050   0.336
38321W        W 8921  26.914  16.665  14.041
38322W        W 8922  14.738  42.390   2.371
38323W        W 8923   6.139  42.496   2.302
38324W        W 8924  17.312  31.543  11.485
38325W        W 8925  24.059   0.380  12.054
38326W        W 8926   0.055  37.666   0.387
38327W        W 8927   6.665  15.653  12.838
38328W        W 8928  16.185   4.182  11.204
38329W        W 8929  36.861  43.578  13.602
38330W        W 8930  34.615  43.798   2.344
38331W        W 8931  38.446  43.783  11.496
38332W        W 8932  26.502  37.527  13.439
38333W        W 8933  22.584  32.308  10.756
38334W        W 8934  40.728  42.549   5.008
38335W        W 8935  28.720  29.942   3.353
38336W        W 8936  12.120  28.751   1.749
38337W        W 8937  13.100  39.511  14.035
38338W        W 8938   9.402  30.261   3.615
38339W        W 8939  31.833   5.278  11.394
38340W        W 8940  40.873   2.995  14.293
38341W        W 8941  43.480   3.889  14.056
38342W        W 8942  35.869   9.727   0.392
38343W        W 8943  44.010  17.149   0.421
38344W        W 8944  19.470  20.260  10.601
38345W        W 8945  24.919  37.430  13.877
38346W        W 8946  16.901   5.698  14.464
38347W        W 8947  23.208  16.007   4.890
38348W        W 8948   2.312  34.497  12.870
38349W        W 8949  22.312  38.448  13.938
38350W        W 8950   1.007   5.954  12.581
38351W        W 8951  14.050   9.928   3.303
38352W        W 8952  20.436  39.572  11.201
38353W        W 8953  43.842   0.216   1.704
38354W        W 8954   7.321  33.194   5.140
38355W        W 8955  26.745   3.033   2.473
38356W        W 8956  37.620  44.780   1.324
38357W        W 8957  15.260  15.990   1.404
38358W        W 8958  28.150  35.406  11.091
38359W        W 8959  40.310  19.716   2.814
38360W        W 8960  33.964  39.266  10.171
38361W        W 8961  16.300   7.688   0.697
38362W        W 8962  44.308  30.411   1.454
38363W        W 8963  23.100  42.256   0.291
38364W        W 8964  13.280  39.599  12.927
38365W        W 8965   8.119  30.193   4.570
38366W        W 8966  14.671  26.916  13.763
38367W        W 8967   8.105  12.769  11.259
38368W        W 8968  11.323  42.375  13.779
38369W        W 8969  17.139  40.467  12.903
38370W        W 8970  20.510  31.318   2.154
38371W        W 8971   8.399  10.108   3.894
38372W        W 8972   1.362  34.372   0.986
38373W        W 8973   0.912   1.170  11.704
38374W        W 8974  23.103   7.145   0.421
38375W        W 8975  26.388  12.234   3.754
38376W        W 8976  31.451  21.357   2.705
38377W        W 8977  13.886   1.701   1.318
38378W        W 8978  29.897  33.172   3.974
38379W        W 8979  33.401  38.781   0.832
38380W        W 8980  34.878  17.078   2.227
38381W        W 8981  42.369  23.218   0.413
38382W        W 8982  28.114   3.633   4.541
38383W        W 8983  17.044  24.614   0.852
38384W        W 8984  21.151  41.309  12.761
38385W        W 8985  13.469  11.780   0.015
38386W        W 8986  42.105  39.437  11.915
38387W        W 8987   7.944  42.442   0.264
38388W        W 8988  40.434   1.655  11.965
38389W        W 8989  31.902   5.161  12.741
38390W        W 8990  23.591  42.401   0.313
38391W        W 8991  24.139  24.413  11.936
38392W        W 8992   6.193  19.564  14.979
38393W        W 8993  10.685  40.830   4.872
38394W        W 8994  38.323  38.897   3.514
38395W        W 8995  16.168   5.322   2.664
38396W        W 8996   3.219  34.838  14.092
38397W        W 8997  33.662  32.646  13.475
38398W        W 8998   0.743   6.827   3.136
38399W        W 8999  42.345  17.723   3.569
38400W        W 9000  35.320  30.823  11.001
38401W        W 9001  23.162  32.595  11.424
38402W        W 9002  15.839  34.141  13.625
38403W        W 9003   9.417   2.846   3.966
38404W        W 9004  25.019  21.722   3.357
38405W        W 9005  30.165  37.478  13.016
38406W        W 9006  36.568  22.493  11.671
38407W        W 9007  42.322  21.438  12.465
38408W        W 9008  36.550   5.818   3.577
38409W        W 9009  23.570   3.368  10.714
38410W        W 9010  25.539  22.152   2.684
38411W        W 9011  38.919  18.591  14.989
38412W        W 9012  28.523  15.691  11.696
38413W        W 9013  15.341   0.239   1.776
38414W        W 9014  25.589  36.410   4.875
38415W        W 9015  32.630  20.047  10.981
38416W        W 9016  11.219   9.557   3.998
38417W        W 9017  20.685  26.600  12.363
38418W        W 9018  27.944  36.057   2.739
38419W        W 9019  39.030  43.570   3.330
38420W        W 9020   5.857  41.539  11.854
38421W        W 9021  30.854   9.393  12.508
38422W        W 9022  19.758  11.185   4.074
38423W        W 9023  24.137  10.852  13.387
38424W        W 9024  40.007  41.772   1.284
38425W        W 9025  38.095  32.351   2.638
38426W        W 9026   9.119  18.567   0.243
38427W        W 9027  18.431  35.985  10.732
38428W        W 9028  28.891   2.220   2.686
38429W        W 9029  23.352  32.102   3.711
38430W        W 9030   8.896   2.376  11.243
38431W        W 9031  10.287   7.688   2.357
38432W        W 9032  19.734  24.042  11.646
38433W        W 9033  14.706  15.190   1.428
38434W        W 9034  39.406  13.549  14.899
38435W        W 9035  29.271  19.828  13.475
38436W        W 9036   8.195  31.642   1.043
38437W        W 9037  19.557  10.230  12.591
38438W        W 9038  41.372  16.233  12.498
38439W        W 9039  39.205  27.922   1.203
38440W        W 9040   3.883  26.607   2.419
38441W        W 9041  35.787  27.518   3.757
38442W        W 9042  32.899  43.886   1.922
38443W        W 9043  38.044  31.242  14.466
38444W        W 9044  13.395  35.799  11.259
38445W        W 9045  14.885  16.912   1.403
38446W        W 9046  40.627  34.318  12.106
38447W        W 9047  10.198  41.554   1.489
38448W        W 9048  39.459   5.177   1.964
38449W        W 9049  10.312  32.256  10.253
38450W        W 9050  35.786  18.950   1.755
38451W        W 9051  44.312  33.015   2.929
38452W        W 9052  17.190  30.052  11.730
38453W        W 9053  29.368  44.148  13.563
38454W        W 9054  30.911  43.561   4.065
38455W        W 9055  21.200   9.646  12.037
38456W        W 9056  31.782  25.390   0.808
38457W        W 9057  37.499  36.237  13.332
38458W        W 9058   9.964  40.353  12.533
38459W        W 9059  32.599  20.135   2.221
38460W        W 9060  30.563  27.217   1.665
38461W        W 9061  34.441  40.628  13.134
38462W        W 9062  44.780  32.098   3.231
38463W        W 9063  23.022  31.411   3.226
38464W        W 9064  10.895  11.011   3.149
38465W        W 9065  23.534   0.772   4.628
38466W        W 9066   5.671  37.117   0.945
38467W        W 9067  30.190  42.063  12.744
38468W        W 9068   6.219   2.995   0.590
38469W        W 9069  37.545  31.307   4.433
38470W        W 9070  14.265   3.392   4.608
38471W        W 9071  32.501  28.561  14.848
38472W        W 9072  19.847  32.012   4.637
38473W        W 9073  13.554   3.477  10.949
38474W        W 9074   3.464  25.981   1.039
38475W        W 9075  24.182  24.897  12.997
38476W        W 9076   7.468  42.009   4.751
38477W        W 9077   7.411  39.134  12.107
38478W        W 9078   9.119   4.375   3.686
38479W        W 9079  30.418  23.045  14.856
38480W        W 9080  33.863   5.287  10.545
38481W        W 9081   5.870  32.073  12.952
38482W        W 9082  17.125  16.949   4.074
38483W        W 9083  35.906  29.604  12.328
38484W        W 9084   3.356  24.289  13.825
38485W        W 9085   0.053  35.610   1.679
38486W        W 9086  34.426  28.311  14.649
38487W        W 9087  26.948  11.222   1.888
38488W        W 9088  20.149  16.090  10.967
38489W        W 9089  13.248  25.553  13.104
38490W        W 9090   4.974  43.048   2.798
38491W        W 9091  21.605  36.312   4.688
38492W        W 9092  43.607  11.260   4.086
38493W        W 9093  25.438  23.889  13.527
38494W        W 9094   3.349  34.316  11.786
38495W        W 9095   9.709   1.187   3.567
38496W        W 9096   3.093  42.455   3.796
38497W        W 9097   2.514  13.584  12.569
38498W        W 9098  13.356  37.441   1.755
38499W        W 9099  23.900  29.490  11.981
38500W        W 9100  27.583  44.825   4.034
38501W        W 9101  35.969  11.362   0.187
38502W        W 9102  41.468  22.290   3.747
38503W        W 9103  16.932   1.868   1.868
38504W        W 9104  16.866  22.526  11.440
38505W        W 9105   6.781  16.277   0.423
38506W        W 9106  38.619  36.042  14.800
38507W        W 9107  29.410   4.366  12.817
38508W        W 9108  32.922  36.491   2.977
38509W        W 9109   4.722  31.569  12.286
38510W        W 9110  13.838  10.257   4.694
38511W        W 9111  27.584  24.043   2.432
38512W        W 9112  26.614   4.771   5.047
38513W        W 9113  15.641   0.811   4.491
38514W        W 9114  30.370  35.408   4.287
38515W        W 9115   8.162  39.240  11.634
38516W        W 9116   6.510  20.498   4.458
38517W        W 9117  34.211  28.965  12.153
38518W        W 9118  37.369   8.854  10.178
38519W        W 9119  22.384   8.664  13.427
38520W        W 9120  31.428  15.369  13.467
38521W        W 9121  36.233  41.398   3.188
38522W        W 9122  42.216   6.193  12.662
38523W        W 9123  42.803  20.673  14.713
38524W        W 9124  41.995  33.019   0.813
38525W        W 9125  44.451  24.941  11.055
38526W        W 9126  27.882  30.571   4.290
38527W        W 9127  14.261   8.583  13.474
38528W        W 9128  36.588  14.642   0.365
38529W        W 9129   1.914  35.610   3.720
38530W        W 9130  36.024  34.611  11.916
38531W        W 9131  31.069  21.752  10.706
38532W        W 9132  24.620  10.405   2.836
38533W        W 9133  15.875  14.566  14.027
38534W        W 9134   0.242  19.541  14.806
38535W        W 9135  15.791   9.991  12.503
38536W        W 9136  26.826  28.133  10.135
38537W        W 9137   1.818  23.278  14.559
38538W        W 9138   1.297  29.132   0.401
38539W        W 9139  25.857  16.872  12.936
38540W        W 9140  10.553   0.021  14.495
38541W        W 9141   2.460  25.736   3.369
38542W        W 9142  37.561   9.746  13.406
38543W        W 9143  10.166  16.781  14.893
38544W        W 9144  11.882  37.289   4.559
38545W        W 9145   2.455  15.755  11.993
38546W        W 9146  35.071  38.789   1.807
38547W        W 9147   9.408  18.988   0.544
38548W        W 9148  35.112  22.675   4.214
38549W        W 9149  40.014  11.119   0.333
38550W        W 9150   5.169  40.055   0.795
38551W        W 9151  30.086  23.774   3.550
38552W        W 9152   1.886  28.544  12.927
38553W        W 9153   7.276   3.722  13.829
38554W        W 9154  23.088  29.993   3.524
38555W        W 9155  32.134  11.854   4.160
38556W        W 9156  12.239  41.710   2.639
38557W        W 9157  35.122  30.918   1.586
38558W        W 9158  12.213  16.584  12.676
38559W        W 9159  31.762  30.365   0.796
38560W        W 9160  32.476  33.166  14.092
38561W        W 9161  33.493  39.369   0.519
38562W        W 9162  19.633  24.792  14.126
38563W        W 9163  37.994  18.138   1.227
38564W        W 9164  28.458  39.407   2.753
38565W        W 9165  25.676  12.853   4.598
38566W        W 9166  24.769  25.266  12.337
38567W        W 9167  18.128  17.730   0.294
38568W        W 9168  29.021  30.890  13.019
38569W        W 9169  18.594   1.121   5.501
38570W        W 9170   8.283  32.446  13.409
38571W        W 9171   1.329  33.901  13.736
38572W        W 9172  26.041  14.458  11.068
38573W        W 9173  30.585  40.888  12.926
38574W        W 9174  10.725  12.328   0.990
38575W        W 9175  35.046  18.337  11.674
38576W        W 9176  27.081  21.100  14.000
38577W        W 9177  29.494   6.705  11.889
38578W        W 9178  31.424   4.341  14.260
38579W        W 9179  15.548  36.402  13.587
38580W        W 9180  42.353  31.163   3.580
38581W        W 9181   9.378  13.858  11.937
38582W        W 9182  32.679   4.269  11.529
38583W        W 9183  24.548  28.267   2.395
38584W        W 9184  21.807  33.431  12.228
38585W        W 9185   6.716   2.554   4.227
38586W        W 9186  39.678   9.943  12.497
38587W        W 9187  20.109  11.850   4.634
38588W        W 9188  27.327  40.585  14.348
38589W        W 9189   2.357  40.316   2.337
38590W        W 9190  32.698   2.443  11.534
38591W        W 9191  37.683   6.851  11.128
38592W        W 9192  17.297  23.469   1.897
38593W        W 9193  29.995  42.219  11.218
38594W        W 9194  40.584  25.082  14.871
38595W        W 9195  17.665  15.593   3.212
38596W        W 9196   0.907  26.550   4.530
38597W        W 9197  13.895   6.077   1.287
38598W        W 9198  33.511  13.129  12.976
38599W        W 9199   7.743  10.725   3.575
38600W        W 9200  23.283  19.384   3.185
38601W        W 9201   7.999  40.909   0.163
38602W        W 9202  44.947  13.656  10.709
38603W        W 9203   0.220  43.233   1.927
38604W        W 9204  27.441  33.433   0.454
38605W        W 9205  10.475   8.849   4.988
38606W        W 9206   8.876   8.914   1.332
38607W        W 9207  44.541  11.314  14.781
38608W        W 9208   1.672  21.276  12.659
38609W        W 9209  25.407   5.775   4.084
38610W        W 9210  32.661  44.269  11.246
38611W        W 9211  33.933  20.448  11.213
38612W        W 9212  13.269   9.657   4.223
38613W        W 9213  17.782  22.544  14.887
38614W        W 9214   0.508  36.071  11.090
38615W        W 9215  16.889  34.330   3.998
38616W        W 9216  15.692   2.470  11.613
38617W        W 9217  33.985   5.813  13.368
38618W        W 9218  30.996  15.843  12.227
38619W        W 9219  20.585  42.408  11.566
38620W        W 9220  41.713  11.671   2.701
38621W        W 9221  42.949  21.217  13.770
38622W        W 9222  31.056  17.763   4.387
38623W        W 9223  17.469   9.223   1.249
38624W        W 9224  17.302  27.999   3.354
38625W        W 9225  27.118   2.797   0.104
38626W        W 9226  29.526  10.151  12.485
38627W        W 9227  43.225  36.012  13.466
38628W        W 9228  18.812  28.338   1.360
38629W        W 9229  37.778  20.457  11.141
38630W        W 9230  10.211   9.168   2.190
38631W        W 9231  10.928  38.853  10.040
38632W        W 9232  42.338   5.491  11.193
38633W        W 9233   1.559  24.543   0.234
38634W        W 9234  30.982  11.365  14.765
38635W        W 9235  20.713   6.389   0.797
38636W        W 9236  28.733  37.480  11.585
38637W        W 9237   0.858   8.595  12.499
38638W        W 9238  34.564  27.468  13.990
38639W        W 9239  23.034  20.734  12.460
38640W        W 9240   8.438   1.221  14.991
38641W        W 9241  23.702  22.061  13.765
38642W        W 9242  18.980  35.578  13.608
38643W        W 9243  16.533  31.479  10.965
38644W        W 9244  22.105  19.400   2.667
38645W        W 9245  40.756  25.244  13.409
38646W        W 9246  31.673   1.051   4.198
38647W        W 9247  36.503  43.260  11.186
38648W        W 9248  37.831   7.256  11.439
38649W        W 9249  32.385  30.719  13.904
38650W        W 9250  43.517   9.923   4.602
38651W        W 9251   9.373  26.722  13.542
38652W        W 9252  44.438  18.128  12.132
38653W        W 9253   7.156  40.060   0.712
38654W        W 9254  26.587  21.575   0.855
38655W        W 9255  31.155  27.051   3.740
38656W        W 9256   2.854  25.082  14.445
38657W        W 9257  14.658   2.620   3.097
38658W        W 9258  40.390  26.977  11.221
38659W        W 9259  41.975  24.207  11.711
38660W        W 9260   3.763  19.304   5.083
38661W        W 9261  17.029  29.774  12.118
38662W        W 9262  15.139  29.288  12.025
38663W        W 9263  24.407  16.827   4.445
38664W        W 9264   2.905   9.153   4.939
38665W        W 9265  21.997  29.775  13.375
38666W        W 9266  15.359  26.385   1.804
38667W        W 9267  15.850   0.384  10.863
38668W        W 9268  35.378  25.259  11.127
38669W        W 9269  15.730   6.745  11.423
38670W        W 9270   7.418   5.126   1.372
38671W        W 9271   0.815  33.700  10.585
38672W        W 9272  42.881  12.148   1.174
38673W        W 9273   2.284  21.052  11.527
38674W        W 9274  23.459  39.470  13.822
38675W        W 9275  43.285  19.664   0.244
38676W        W 9276  42.784  14.307  13.128
38677W        W 9277   1.222  33.378   4.244
38678W        W 9278  13.673  42.958   0.944
38679W        W 9279  32.442  20.511   0.451
38680W        W 9280  14.327  26.762   0.390
38681W        W 9281  36.829  21.915   1.358
38682W        W 9282  10.444  12.665  12.534
38683W        W 9283  10.310  20.789  13.594
38684W        W 9284  35.329   4.356  10.768
38685W        W 9285  25.610   6.714  11.536
38686W        W 9286   1.298   9.230   0.867
38687W        W 9287   9.158  28.017   9.799
38688W        W 9288  36.365  40.725  12.483
38689W        W 9289   3.725   7.899  11.957
38690W        W 9290  23.346   6.647   2.627
38691W        W 9291   7.596  26.091  11.093
38692W        W 9292   3.666  36.132  14.406
38693W        W 9293   9.840   6.063   1.792
38694W        W 9294   2.790   1.817  11.536
38695W        W 9295  25.352   3.536   0.958
38696W        W 9296   9.746  16.492  11.980
38697W        W 9297  38.348  28.471  12.313
38698W        W 9298  31.850  33.511  14.433
38699W        W 9299  13.521  23.646   4.703
38700W        W 9300  24.119  41.511   0.369
38701W        W 9301  36.391  14.223   1.788
38702W        W 9302  14.124   5.921  12.912
38703W        W 9303   2.891  14.824   3.155
38704W        W 9304   9.806  21.540   2.192
38705W        W 9305  40.277  22.465  10.959
38706W        W 9306   0.834  44.725  11.671
38707W        W 9307  29.644  44.681  14.824
38708W        W 9308  23.118   8.347  12.928
38709W        W 9309   0.468  35.837  14.817
38710W        W 9310   6.697  12.750  12.113
38711W        W 9311  24.427  44.690  11.565
38712W        W 9312  26.766  34.826  13.440
38713W        W 9313  44.026  22.695   1.304
38714W        W 9314  44.577   5.416   4.059
38715W        W 9315  24.548  26.448   0.980
38716W        W 9316  13.746  40.277  12.959
38717W        W 9317  27.256  12.120   3.354
38718W        W 9318  15.294  25.324   2.301
38719W        W 9319  33.857   7.420   3.548
38720W        W 9320   2.796  33.212   0.379
38721W        W 9321  12.610  41.365  11.081
38722W        W 9322   3.534  23.948  12.425
38723W        W 9323   1.507  33.605   3.121
38724W        W 9324  13.157  42.710  11.854
38725W        W 9325  31.177  23.088  13.646
38726W        W 9326  10.656  43.764   0.656
38727W        W 9327  38.313  28.274   0.401
38728W        W 9328  42.698   2.085   1.262
38729W        W 9329  23.464  25.714   3.654
38730W        W 9330  16.519  10.600   3.272
38731W        W 9331  33.935  28.692  12.522
38732W        W 9332  12.199  39.387   2.443
38733W        W 9333  42.435  32.469   1.456
38734W        W 9334  19.060  34.106   0.867
38735W        W 9335  44.413  31.184   1.023
38736W        W 9336  21.783  31.568  14.001
38737W        W 9337  22.859  23.859  14.693
38738W        W 9338  14.602   2.274  14.320
38739W        W 9339  13.220  41.143   5.001
38740W        W 9340   4.981  30.649   1.191
38741W        W 9341   2.780   1.213   1.882
38742W        W 9342  38.935  14.460   1.453
38743W        W 9343  19.196  30.201  13.460
38744W        W 9344  19.167  44.192  10.748
38745W        W 9345   8.826  29.429  12.364
38746W        W 9346   7.171  19.836  11.590
38747W        W 9347  30.894  29.164   3.726
38748W        W 9348  11.933  26.495  12.861
38749W        W 9349   9.937  43.930   1.981
38750W        W 9350  36.328  20.713  14.304
38751W        W 9351  22.484  20.228  11.142
38752W        W 9352  10.164  34.138   1.701
38753W        W 9353  13.302  17.000  13.361
38754W        W 9354  40.959  29.488   2.456
38755W        W 9355   2.266  15.212   0.864
38756W        W 9356   4.876  29.166   0.477
38757W        W 9357  23.950   8.350   1.337
38758W        W 9358  37.816   2.009  11.881
38759W        W 9359  33.869  19.984  13.164
38760W        W 9360  23.671  34.125   1.335
38761W        W 9361  15.258  20.525  11.554
38762W        W 9362  32.361  12.623   0.425
38763W        W 9363  36.930   8.308  12.478
38764W        W 9364  22.670   1.972   0.799
38765W        W 9365  10.897  16.832  14.313
38766W        W 9366  15.341  39.494  12.982
38767W        W 9367   5.239  18.769  14.538
38768W        W 9368  33.344   6.151  13.013
38769W        W 9369  11.739  13.693   3.269
38770W        W 9370  24.447  17.644   0.850
38771W        W 9371   3.752   8.654   0.812
38772W        W 9372  29.760  26.006  10.670
38773W        W 9373  20.495  15.283  12.399
38774W        W 9374   0.883  15.527   4.134
38775W        W 9375  25.232  29.113  10.789
38776W        W 9376   4.904   9.063  12.784
38777W        W 9377  19.355  13.173   3.675
38778W        W 9378  12.206  17.661   4.837
38779W        W 9379  37.468  24.635   1.915
38780W        W 9380  10.092  33.397  14.482
38781W        W 9381   8.142  17.368   0.374
38782W        W 9382  15.331  38.143  11.773
38783W        W 9383  41.533  33.051  13.968
38784W        W 9384  41.103  15.946   0.384
38785W        W 9385   9.982  30.012  10.543
38786W        W 9386  10.083  15.247   2.819
38787W        W 9387  14.476  30.666   4.512
38788W        W 9388  28.002  17.058   4.594
38789W        W 9389  18.745  41.866  14.645
38790W        W 9390  38.841  28.565   1.743
38791W        W 9391  41.301  39.822   2.824
38792W        W 9392  10.739  37.650  12.471
38793W        W 9393   4.776   6.229   2.590
38794W        W 9394  24.251  35.680   0.174
38795W        W 9395  37.926  16.746   3.800
38796W        W 9396  35.665  31.341  11.972
38797W        W 9397   9.578  39.123  10.620
38798W        W 9398  15.336  22.611  14.685
38799W        W 9399  22.080  30.941   4.033
38800W        W 9400  11.853  34.123   2.800
38801W        W 9401  22.062  26.556   2.185
38802W        W 9402   6.327  19.069  11.186
38803W        W 9403  15.649  27.144   1.904
38804W        W 9404  31.130  41.076  12.986
38805W        W 9405  28.652  24.494   3.063
38806W        W 9406  21.000  28.054  13.831
38807W        W 9407  36.439  14.158   3.922
38808W        W 9408  28.682  34.076   0.254
38809W        W 9409   0.425  42.732  12.873
38810W        W 9410  14.514  16.975   2.864
38811W        W 9411  40.925  31.447  11.870
38812W        W 9412  25.283   1.756  12.680
38813W        W 9413  10.245  17.239   0.200
38814W        W 9414  15.751  21.135   2.703
38815W        W 9415   6.137  12.288  13.880
38816W        W 9416  44.018  24.664   3.602
38817W        W 9417  39.320  42.756   3.645
38818W        W 9418  44.328  36.853   3.654
38819W        W 9419   3.662   3.288   1.541
38820W        W 9420  13.495  24.696  13.258
38821W        W 9421  26.932  18.514   1.806
38822W        W 9422  15.373  43.818  11.643
38823W        W 9423  15.050  19.188   2.797
38824W        W 9424   8.185  37.911  10.737
38825W        W 9425   6.324  19.622  12.526
38826W        W 9426  16.527   3.025  11.484
38827W        W 9427   4.842  33.643  12.070
38828W        W 9428  10.134  32.122  14.947
38829W        W 9429  34.637   0.960  13.835
38830W        W 9430  24.203  21.153  12.032
38831W        W 9431  42.515   2.630  13.446
38832W        W 9432   9.261  39.459  10.868
38833W        W 9433   1.739  38.613  14.924
38834W        W 9434  13.807   7.867   1.774
38835W        W 9435  20.513  11.659   3.664
38836W        W 9436  27.129   3.503   0.755
38837W        W 9437  10.584  28.731   1.791
38838W        W 9438   2.878  42.300   4.240
38839W        W 9439  28.302  24.001  11.809
38840W        W 9440  26.525  21.807  14.013
38841W        W 9441   8.801  43.348   2.387
38842W        W 9442  10.677  41.345   4.712
38843W        W 9443  32.777  17.891  14.425
38844W        W 9444   6.189  25.904   1.752
38845W        W 9445   3.463  27.591   1.404
38846W        W 9446  19.646  13.734   3.809
38847W        W 9447  32.000  42.079  12.022
38848W        W 9448  37.909   1.709   2.158
38849W        W 9449  21.149  19.243  13.021
38850W        W 9450  27.637  41.966   4.222
38851W        W 9451   2.271  32.456  11.735
38852W        W 9452  15.746  40.303  10.766
38853W        W 9453  30.069  16.027  12.566
38854W        W 9454  14.207  38.425  13.590
38855W        W 9455  40.828   0.115   2.772
38856W        W 9456   9.726   9.902  11.415
38857W        W 9457  21.226   3.412  14.955
38858W        W 9458  11.379  34.309   0.336
38859W        W 9459  41.918   5.510  12.562
38860W        W 9460   6.247   0.539  14.961
38861W        W 9461  31.290  33.356  11.088
38862W        W 9462   1.279  20.020   1.217
38863W        W 9463  14.362   5.168  12.544
38864W        W 9464  17.586  32.685   2.939
38865W        W 9465  11.233   8.310   3.900
38866W        W 9466  40.051  11.520   0.937
38867W        W 9467   4.659  13.390   2.150
38868W        W 9468  39.960  32.027   1.644
38869W        W 9469   1.307  42.071   1.791
38870W        W 9470  19.491   2.376   0.445
38871W        W 9471  18.738  13.886  12.162
38872W        W 9472  15.197  32.395   4.532
38873W        W 9473  30.557   0.699  12.831
38874W        W 9474  21.098  12.834   1.366
38875W        W 9475   3.381  28.073  12.994
38876W        W 9476   3.284   1.996  13.567
38877W        W 9477   4.992  41.027   3.762
38878W        W 9478  21.095  10.758   2.461
38879W        W 9479   8.764  21.075  14.342
38880W        W 9480  30.320  20.538  14.016
38881W        W 9481  37.346  22.610   4.253
38882W        W 9482  10.293  23.737  13.401
38883W        W 9483   0.306  43.517  14.623
38884W        W 9484  32.019   4.455  12.474
38885W        W 9485  42.968  26.597   2.359
38886W        W 9486  37.908   1.180   4.460
38887W        W 9487  40.834   5.230  14.297
38888W        W 9488  26.178  44.271   3.758
38889W        W 9489  25.435   5.347   4.434
38890W        W 9490   2.619  29.165  14.958
38891W        W 9491  38.051  34.808   2.719
38892W        W 9492   6.768  25.765   1.322
38893W        W 9493  41.459  17.282   3.496
38894W        W 9494  33.556  44.672  11.597
38895W        W 9495  29.505  33.995  14.916
38896W        W 9496  43.511  29.539   1.866
38897W        W 9497   2.105  39.117  13.184
38898W        W 9498   0.399  43.376  14.106
38899W        W 9499  37.324  37.323   1.279
38900W        W 9500  22.176  40.384   3.012
38901W        W 9501  21.678  41.573  10.439
38902W        W 9502  35.951  19.611  14.276
38903W        W 9503   4.859  36.924   4.738
38904W        W 9504  38.002  17.715   1.547
38905W        W 9505  11.372   5.734   4.145
38906W        W 9506  30.130  22.264   2.510
38907W        W 9507  18.124   0.953  14.804
38908W        W 9508   3.999  35.610  11.652
38909W        W 9509  38.418  23.469  12.501
38910W        W 9510  31.487  30.898   2.309
38911W        W 9511  42.185  42.990   2.296
38912W        W 9512  42.101  12.022  13.039
38913W        W 9513  14.709  13.236  11.557
38914W        W 9514   7.511   6.454   2.250
38915W        W 9515  10.895  22.746   2.768
38916W        W 9516  15.606  38.878  13.410
38917W        W 9517   7.114  22.562  10.726
38918W        W 9518   4.081  13.686   4.636
38919W        W 9519  20.631  19.140  13.206
38920W        W 9520   4.253  11.850   3.672
38921W        W 9521  30.242   3.776  13.224
38922W        W 9522   7.297  15.873   3.370
38923W        W 9523  17.740  37.175   2.628
38924W        W 9524  19.448  15.714  13.648
38925W        W 9525  13.597   6.971   4.146
38926W        W 9526  35.465  13.726   4.743
38927W        W 9527  31.428  41.804   3.323
38928W        W 9528  13.252  29.655   0.937
38929W        W 9529  24.838  27.443   4.301
38930W        W 9530  28.756  27.579   0.240
38931W        W 9531  14.589  24.213  14.774
38932W        W 9532  21.019  23.130  13.635
38933W        W 9533  17.086  18.649  14.963
38934W        W 9534  32.828  23.621   0.003
38935W        W 9535  35.177  35.459  12.047
38936W        W 9536  39.375   8.319   4.652
38937W        W 9537  20.534  32.441  12.077
38938W        W 9538  37.917   8.143  11.670
38939W        W 9539  11.441  11.407   4.227
38940W        W 9540   3.694  10.571  11.064
38941W        W 9541  34.533   5.702  12.468
38942W        W 9542  41.806  17.327   1.662
38943W        W 9543   5.476  18.499  11.359
38944W        W 9544  32.642  17.338  12.914
38945W        W 9545   1.603  31.915  11.293
38946W        W 9546  12.526  34.076  13.554
38947W        W 9547  33.428  17.977  13.051
38948W        W 9548  32.961  24.894   4.525
38949W        W 9549  12.641  21.983  10.798
38950W        W 9550  44.901  27.407  13.111
38951W        W 9551  42.833  37.765   4.538
38952W        W 9552   8.269  44.314   2.381
38953W        W 9553  13.146  18.668  11.972
38954W        W 9554   3.807  28.494  13.363
38955W        W 9555  18.762   5.539  14.661
38956W        W 9556  21.682  17.658   1.241
38957W        W 9557  24.018  23.516  11.058
38958W        W 9558   2.114  24.421   4.635
38959W        W 9559   4.252  28.723  11.208
38960W        W 9560   2.418   6.903   3.181
38961W        W 9561   1.459  24.702   0.745
38962W        W 9562   8.694  35.078   3.693
38963W        W 9563  24.174  10.823  11.103
38964W        W 9564  34.026  24.037   3.217
38965W        W 9565   2.152   4.225  13.778
38966W        W 9566  23.005  44.207   1.769
38967W        W 9567  22.224  30.396   1.264
38968W        W 9568  12.872  29.962  12.925
38969W        W 9569   6.323  25.642  12.754
38970W        W 9570  29.353  34.400   1.477
38971W        W 9571  25.343  44.961  13.412
38972W        W 9572  38.991  22.162  14.400
38973W        W 9573  28.076  15.521  14.071
38974W        W 9574  36.549   1.333  13.765
38975W        W 9575   8.085  35.097  11.528
38976W        W 9576  33.535  40.639  13.842
38977W        W 9577   8.661   3.925  12.122
38978W        W 9578  14.063  39.054   0.671
38979W        W 9579  19.780   2.219   3.276
38980W        W 9580  43.001  31.874   3.646
38981W        W 9581  26.123  26.466   2.726
38982W        W 9582   2.704  35.206  11.155
38983W        W 9583   9.663   8.002  12.879
38984W        W 9584  26.836  34.955  14.791
38985W        W 9585  40.921  10.442   1.824
38986W        W 9586  35.296  44.890   0.070
38987W        W 9587  37.771  17.200  13.784
38988W        W 9588  17.773  43.024  13.585
38989W        W 9589   9.890  44.699   4.826
38990W        W 9590  14.315   6.576  14.983
38991W        W 9591  35.138  30.909   3.961
38992W        W 9592  18.765   0.297  12.490
38993W        W 9593   7.335  19.678   2.591
38994W        W 9594  21.890  39.440   1.603
38995W        W 9595  18.136   1.972   3.957
38996W        W 9596   4.787  43.492  10.157
38997W        W 9597  12.136  44.484   1.617
38998W        W 9598  29.861  21.636  14.810
38999W        W 9599  31.440  11.847  12.094
39000W        W 9600  10.615   1.477  13.534
39001W        W 9601  42.024  25.405   2.228
39002W        W 9602  26.958  41.531  13.132
39003W        W 9603  41.061  29.700   1.276
39004W        W 9604  19.863   2.875   1.613
39005W        W 9605   0.795  44.409  12.143
39006W        W 9606  28.906  22.305   2.584
39007W        W 9607  29.982  30.995   0.552
39008W        W 9608  33.044  15.651   3.427
39009W        W 9609  22.022  14.174   3.400
39010W        W 9610   4.741   3.702  11.326
39011W        W 9611  19.298  19.439  14.838
39012W        W 9612  33.945  19.926  14.055
39013W        W 9613  17.792  40.236  11.001
39014W        W 9614   5.027  25.449   2.208
39015W        W 9615  19.235   5.061  11.159
39016W        W 9616   3.249  13.393   3.772
39017W        W 9617  10.917   0.775  12.987
39018W        W 9618  10.456  25.118  13.909
39019W        W 9619  32.229  40.460  11.327
39020W        W 9620  15.107  30.695  12.925
39021W        W 9621  43.226  36.865   4.601
39022W        W 9622  36.973  22.821   3.159
39023W        W 9623   2.709  15.178  10.417
39024W        W 9624  32.115  34.583  12.410
39025W        W 9625  22.516  26.448  10.770
39026W        W 9626  30.650  44.536   4.831
39027W        W 9627  12.337  42.429   3.278
39028W        W 9628  18.816  38.501  11.602
39029W        W 9629  31.417  23.940  14.045
39030W        W 9630  37.411  29.650  12.472
39031W        W 9631  33.637  19.217   0.388
39032W        W 9632   0.660  15.779  11.201
39033W        W 9633  10.649  39.004  12.515
39034W        W 9634   3.723   7.701  12.880
39035W        W 9635  34.387  38.738  10.674
39036W        W 9636  40.338  24.309  12.827
39037W        W 9637  12.260   1.949  12.511
39038W        W 9638  44.207  44.434  10.733
39039W        W 9639  14.146   4.815  11.616
39040W        W 9640  23.217  33.288  13.140
39041W        W 9641  33.031  36.833  14.013
39042W        W 9642  38.398  19.909   1.689
39043W        W 9643  26.586  32.872  11.914
39044W        W 9644  22.914  11.347   0.779
39045W        W 9645  34.281   3.030   2.864
39046W        W 9646  41.197  10.659  10.834
39047W        W 9647  41.970  39.135  13.916
39048W        W 9648  34.451   4.810   3.564
39049W        W 9649  34.305  34.949  14.081
39050W        W 9650  41.826   1.438   3.180
39051W        W 9651  14.420  40.038   1.780
39052W        W 9652  14.665  39.146   4.505
39053W        W 9653  30.044  44.370  14.949
39054W        W 9654   1.588  31.887   1.723
39055W        W 9655   6.752   0.070  10.677
39056W        W 9656  11.392  38.934   3.122
39057W        W 9657  28.118  42.328   0.751
39058W        W 9658  33.339  40.050  14.789
39059W        W 9659   6.347  19.329   1.827
39060W        W 9660  23.092   6.964  13.577
39061W        W 9661  27.716  28.569   1.968
39062W        W 9662  16.948  21.336  11.909
39063W        W 9663   1.469  18.300  14.089
39064W        W 9664  41.265   2.816  11.946
39065W        W 9665   9.850  12.724   4.674
39066W        W 9666  22.691  14.381  14.446
39067W        W 9667   7.844  12.985   5.099
39068W        W 9668   4.280   1.098  10.271
39069W        W 9669   7.651  23.690  11.552
39070W        W 9670  12.684  13.240   0.284
39071W        W 9671  37.007  42.739  12.435
39072W        W 9672  43.669   1.880   3.571
39073W        W 9673  14.608  39.660   3.695
39074W        W 9674  40.386  37.828   2.375
39075W        W 9675  44.505  39.357  10.769
39076W        W 9676  11.521   8.606   4.221
39077W        W 9677  37.964  15.408   4.723
39078W        W 9678  42.145   2.272  14.905
39079W        W 9679   2.761  19.383   2.937
39080W        W 9680  44.019  28.438  12.125
39081W        W 9681  18.264  40.911  13.767
39082W        W 9682  32.132  16.031   0.844
39083W        W 9683  25.189  43.099  12.575
39084W        W 9684  19.127  24.947   2.130
39085W        W 9685  31.475   1.240   2.416
39086W        W 9686   8.063  38.306   1.588
39087W        W 9687  33.551  18.086  12.564
39088W        W 9688  28.768   6.469   4.561
39089W        W 9689  19.987  28.995  14.974
39090W        W 9690  17.577  36.403   4.553
39091W        W 9691  13.759  12.844  10.252
39092W        W 9692  43.526  39.538  10.613
39093W        W 9693  42.950   8.511  11.064
39094W        W 9694   4.794  38.182   0.440
39095W        W 9695  36.577  31.432  11.084
39096W        W 9696  24.086  32.005   2.899
39097W        W 9697  37.283  35.059   2.811
39098W        W 9698  44.324  40.920   1.833
39099W        W 9699  11.656  39.049  10.519
39100W        W 9700   5.475   3.321  14.047
39101W        W 9701  24.621  27.702   2.612
39102W        W 9702  19.864  39.086   0.485
39103W        W 9703  28.773   0.939  13.028
39104W        W 9704  44.460  43.728  14.895
39105W        W 9705  32.347   3.505   2.891
39106W        W 9706  31.518  38.536  14.623
39107W        W 9707   0.339   3.755  13.844
39108W        W 9708  42.854  14.354  11.069
39109W        W 9709  17.617   5.766   1.928
39110W        W 9710  26.738  22.820  12.517
39111W        W 9711  27.344   1.296   0.237
39112W        W 9712  35.168   2.782   2.876
39113W        W 9713  44.705   3.772   3.618
39114W        W 9714  34.428  38.860  11.953
39115W        W 9715  11.320   6.336  14.399
39116W        W 9716  18.742  25.703  14.372
39117W        W 9717  19.289  31.449   3.301
39118W        W 9718  24.099  32.894  13.850
39119W        W 9719  39.161  16.531   9.966
39120W        W 9720   8.530  14.653  11.008
39121W        W 9721  31.052  10.225   3.204
39122W        W 9722   6.069  13.123   2.478
39123W        W 9723  43.121  34.898  14.188
39124W        W 9724   0.637   5.256   2.699
39125W        W 9725  20.922  40.457   1.760
39126W        W 9726  25.181  36.553   2.902
39127W        W 9727   0.993  38.913   2.252
39128W        W 9728   3.896   0.510   3.814
39129W        W 9729   4.185   7.637  12.064
39130W        W 9730  18.839  26.569  11.206
39131W        W 9731  27.354   5.361   3.214
39132W        W 9732  30.405  26.334  14.554
39133W        W 9733  17.750   1.782   1.261
39134W        W 9734  20.046  37.874   2.296
39135W        W 9735  32.522  32.077  11.539
39136W        W 9736  35.972   8.963  10.856
39137W        W 9737  42.237  33.401  11.507
39138W        W 9738   0.338  44.399   1.710
39139W        W 9739  24.141  13.669   3.723
39140W        W 9740  19.929   4.491  13.893
39141W        W 9741  42.369  41.773   2.700
39142W        W 9742   6.305  40.437   1.724
39143W        W 9743  44.928  23.776  14.199
39144W        W 9744  33.909   4.893   0.975
39145W        W 9745  37.524  20.726   3.403
39146W        W 9746  36.026  11.106  13.733
39147W        W 9747  20.586   2.039   1.832
39148W        W 9748  16.831  39.137  11.495
39149W        W 9749  35.321   2.391  11.452
39150W        W 9750  34.336   1.215   1.944
39151W        W 9751  27.198  22.128  12.909
39152W        W 9752  33.524   6.827  12.061
39153W        W 9753  23.618  28.007  14.396
39154W        W 9754  10.111   2.238  13.527
39155W        W 9755   0.546   2.199  12.875
39156W        W 9756  11.181  22.450  10.509
39157W        W 9757  35.820  26.630  12.999
39158W        W 9758  38.413  36.522   2.670
39159W        W 9759  21.205  37.800   4.075
39160W        W 9760  11.382  18.256  14.787
39161W        W 9761   6.268  15.388   3.439
39162W        W 9762  26.741  33.338   1.637
39163W        W 9763  44.463  30.943  14.283
39164W        W 9764  15.656  37.624   2.875
39165W        W 9765  10.761   4.156  10.597
39166W        W 9766  41.180  42.423  11.215
39167W        W 9767   4.897  24.731   4.219
39168W        W 9768  37.164  31.048   1.353
39169W        W 9769   5.842  38.757   2.036
39170W        W 9770  44.470  35.008  12.815
39171W        W 9771  31.414  21.968   3.295
39172W        W 9772  15.471  28.192   0.426
39173W        W 9773  35.054   6.176   1.369
39174W        W 9774  41.525  12.097  13.802
39175W        W 9775  16.683   4.569   2.891
39176W        W 9776  14.117  30.475   0.867
39177W        W 9777  28.516  24.401   3.555
39178W        W 9778  15.503  16.030  13.043
39179W        W 9779  38.021   8.412   2.129
39180W        W 9780   2.001  13.810   3.186
39181W        W 9781  37.317  21.027  12.588
39182W        W 9782  25.945  30.452  14.741
39183W        W 9783  41.901  15.051  13.852
39184W        W 9784  28.143  42.914   3.265
39185W        W 9785  12.728  21.814   2.435
39186W        W 9786   0.495  32.856  13.492
39187W        W 9787  25.062   9.505   1.174
39188W        W 9788  36.205  42.268  12.107
39189W        W 9789  37.825  43.814   3.500
39190W        W 9790  43.394   6.012   2.066
39191W        W 9791  12.182  42.455   1.894
39192W        W 9792  22.888  22.713  11.150
39193W        W 9793   9.198  31.769   0.039
39194W        W 9794   0.331  23.360   4.014
39195W        W 9795  12.327  31.992   1.326
39196W        W 9796  26.945  31.143   0.802
39197W        W 9797  20.170   5.877  11.533
39198W        W 9798  14.713  42.558   1.374
39199W        W 9799  42.008  32.501   4.328
39200W        W 9800  36.088  13.602  14.515
39201W        W 9801  28.842  17.321   1.395
39202W        W 9802  43.440  32.406  11.544
39203W        W 9803  44.030  40.408  10.695
39204W        W 9804   5.656  13.104   3.758
39205W        W 9805  24.635  13.619  10.993
39206W        W 9806  16.767  42.986   4.195
39207W        W 9807  14.888  17.147  14.564
39208W        W 9808   2.508  32.344  10.297
39209W        W 9809   8.319  38.869  11.143
39210W        W 9810  22.502  25.352  14.871
39211W        W 9811   6.746   2.151  13.474
39212W        W 9812   3.190   4.246  13.930
39213W        W 9813  43.589  42.697   3.100
39214W        W 9814   0.756   7.969   2.624
39215W        W 9815  15.553  37.880  10.997
39216W        W 9816   7.323  43.413   5.028
39217W        W 9817  25.633  32.998   1.716
39218W        W 9818  33.581   5.431  12.181
39219W        W 9819  10.681  37.997   4.771
39220W        W 9820  37.642  27.503   2.797
39221W        W 9821   9.735  38.092  13.965
39222W        W 9822  12.896  33.062  14.503
39223W        W 9823  20.545   4.290  10.672
39224W        W 9824   1.712   0.805   4.608
39225W        W 9825  39.426  29.037   3.171
39226W        W 9826  44.092  19.794  10.083
39227W        W 9827  42.362  24.054  14.073
39228W        W 9828  16.802  12.946   4.964
39229W        W 9829  26.511  11.118   4.609
39230W        W 9830   3.010  33.416   2.288
39231W        W 9831  14.053  14.673   3.578
39232W        W 9832   4.149  29.063   0.616
39233W        W 9833  37.616  34.944  13.835
39234W        W 9834   2.829  37.796   3.698
39235W        W 9835   6.814  13.569   0.894
39236W        W 9836   7.206  32.073  11.138
39237W        W 9837  15.782  33.546   5.485
39238W        W 9838   1.246  21.025   1.590
39239W        W 9839  32.945   4.699   4.659
39240W        W 9840  23.763  36.463   3.269
39241W        W 9841  12.730   8.904  14.947
39242W        W 9842  28.856   7.251  11.694
39243W        W 9843  13.300  32.683   1.741
39244W        W 9844  11.469   8.449   0.289
39245W        W 9845  20.310  32.924  11.417
39246W        W 9846  17.263  12.635  11.444
39247W        W 9847  16.121  39.477   4.562
39248W        W 9848  33.497   8.604  14.250
39249W        W 9849  36.072  42.231  13.463
39250W        W 9850  34.591  36.527  11.543
39251W        W 9851  14.274  36.056   4.047
39252W        W 9852  35.484   9.269  14.714
39253W        W 9853  10.096  18.250   1.319
39254W        W 9854  37.025   2.636   2.357
39255W        W 9855  34.830  29.659  12.068
39256W        W 9856  33.133  11.541   2.348
39257W        W 9857  41.431  24.761   3.602
39258W        W 9858   2.666  42.009   4.612
39259W        W 9859  33.401   9.475   4.286
39260W        W 9860   6.952  43.541  12.599
39261W        W 9861  36.128  37.371  13.454
39262W        W 9862  17.275  32.969   1.706
39263W        W 9863  18.947  39.908   4.899
39264W        W 9864  14.278  20.524   3.679
39265W        W 9865  41.256  20.709   0.033
39266W        W 9866  34.491   7.504   4.589
39267W        W 9867  27.255  21.516   1.725
39268W        W 9868  28.833  32.729   1.967
39269W        W 9869  10.650  38.780   0.061
39270W        W 9870  31.409  23.673   4.669
39271W        W 9871  11.148   2.460   4.805
39272W        W 9872  13.670  12.042  12.850
39273W        W 9873  38.019  10.746  14.472
39274W        W 9874  38.093  44.721   4.594
39275W        W 9875  25.793  14.817   1.882
39276W        W 9876   4.285  39.970   0.959
39277W        W 9877  33.682  18.711  13.246
39278W        W 9878   5.354   0.195  12.001
39279W        W 9879  34.245   2.174  13.993
39280W        W 9880  39.978  14.805   1.399
39281W        W 9881  15.081  38.845   1.814
39282W        W 9882  28.701  36.303  10.716
39283W        W 9883  16.753   0.850  11.705
39284W        W 9884   3.032   9.196   1.229
39285W        W 9885  41.342  26.497   2.393
39286W        W 9886  34.230  39.525  11.127
39287W        W 9887  33.377  15.058  11.172
39288W        W 9888  16.239  25.667   0.398
39289W        W 9889  44.293  39.936  13.553
39290W        W 9890   0.423  15.758  14.033
39291W        W 9891  24.249  42.354  14.258
39292W        W 9892  30.548  43.410   4.793
39293W        W 9893  19.968  12.266  11.971
39294W        W 9894  22.507  36.541   3.688
39295W        W 9895   7.918  28.067  10.227
39296W        W 9896   9.184  20.033  12.527
39297W        W 9897  44.786  32.994   3.139
39298W        W 9898  36.089  32.583   4.486
39299W        W 9899  11.306  20.611  11.605
39300W        W 9900   2.429  29.930  11.130
39301W        W 9901  25.285  29.118   1.364
39302W        W 9902  37.538  31.074   2.748
39303W        W 9903   4.680  14.618   2.812
39304W        W 9904  15.147  31.388  10.643
39305W        W 9905   7.888  17.672  13.331
39306W        W 9906  26.889  38.587   4.943
39307W        W 9907  32.942  40.453  13.990
39308W        W 9908   0.103  16.051  13.296
39309W        W 9909   5.693  22.083   2.826
39310W        W 9910  25.414   5.211   0.268
39311W        W 9911  26.411  21.563  14.471
39312W        W 9912  27.250  19.525   4.315
39313W        W 9913   3.403  24.616   1.137
39314W        W 9914   0.111  12.930   3.614
39315W        W 9915  20.838  32.427   0.891
39316W        W 9916  31.006  20.339  11.611
39317W        W 9917  17.207  31.690   1.928
39318W        W 9918  18.428  14.841   4.202
39319W        W 9919  42.473  34.561  14.464
39320W        W 9920  41.586   1.783  12.485
39321W        W 9921   5.339   7.742  13.375
39322W        W 9922   3.979  36.615  13.328
39323W        W 9923  39.017  26.481  10.927
39324W        W 9924  41.325  17.856  10.731
39325W        W 9925  16.948   8.703  13.530
39326W        W 9926  37.266  39.388   3.932
39327W        W 9927  40.925  38.842  13.624
39328W        W 9928  33.535   7.122  14.527
39329W        W 9929  26.495  30.396   4.649
39330W        W 9930  39.359  10.355  13.358
39331W        W 9931  25.404  39.856   1.220
39332W        W 9932  30.448  23.506  11.968
39333W        W 9933  12.714   2.014  10.898
39334W        W 9934  24.739  43.173  12.275
39335W        W 9935  13.645   8.838  14.837
39336W        W 9936  25.141  44.643   2.401
39337W        W 9937  29.569   8.237   1.360
39338W        W 9938  18.118   7.961  13.167
39339W        W 9939  40.985  38.790  11.650
39340W        W 9940  26.451   2.062   2.271
39341W        W 9941  31.974  14.894  14.384
39342W        W 9942  43.272  16.462   2.374
39343W        W 9943  16.162  37.153   1.395
39344W        W 9944   9.717   8.187  11.433
39345W        W 9945   6.080  27.112  12.657
39346W        W 9946  22.593  21.001  13.117
39347W        W 9947  14.152  19.583   3.514
39348W        W 9948   1.693   8.136  13.801
39349W        W 9949  44.977  38.985   2.237
39350W        W 9950   3.839  31.558   9.776
39351W        W 9951   9.332  31.905  10.722
39352W        W 9952  29.017  39.100  13.522
39353W        W 9953   5.888  44.028   4.213
39354W        W 9954  33.171  36.849   1.664
39355W        W 9955  20.619  42.811  13.557
39356W        W 9956   8.403   9.865  13.583
39357W        W 9957  36.138  23.332   3.010
39358W        W 9958  43.762  19.823   0.958
39359W        W 9959  37.360  37.105   2.574
39360W        W 9960  22.294  31.512  13.981
39361W        W 9961  33.771  37.611  14.425
39362W        W 9962  30.275   4.466  11.872
39363W        W 9963  43.369   5.863   2.568
39364W        W 9964  30.486   6.910  13.847
39365W        W 9965  16.282  11.337  12.553
39366W        W 9966  23.971  12.208  11.689
39367W        W 9967  37.933  15.785   4.360
39368W        W 9968  18.300   7.266  11.550
39369W        W 9969  15.391  36.144  14.798
39370W        W 9970   1.725  32.785  14.681
39371W        W 9971  15.926   9.590   4.051
39372W        W 9972   9.837  10.179   3.865
39373W        W 9973  38.510  35.057  12.480
39374W        W 9974  32.667  25.880   4.531
39375W        W 9975  44.267   7.267  14.394
39376W        W 9976  32.857  17.705   0.796
39377W        W 9977  25.841   2.434  13.754
39378W        W 9978  42.325  43.816  11.546
39379W        W 9979  19.046  20.124  10.876
39380W        W 9980  34.885  18.595   2.144
39381W        W 9981  44.298  18.159  14.408
39382W        W 9982  44.466  15.495   5.006
39383W        W 9983  12.736  38.226   4.642
39384W        W 9984  31.454   5.755  12.121
39385W        W 9985  22.909  31.001  10.753
39386W        W 9986   2.359   5.141  12.800
39387W        W 9987   3.984  17.578  11.192
39388W        W 9988  35.202  18.868  11.765
39389W        W 9989   5.468  15.106  14.564
39390W        W 9990   2.141   3.438   0.372
39391W        W 9991  41.607  43.025   4.075
39392W        W 9992   3.871  14.772   2.278
39393W        W 9993  23.564  16.548   3.213
39394W        W 9994  37.598  15.580   4.035
39395W        W 9995   1.030   2.230  14.003
39396W        W 9996  41.449   7.900  13.886
39397W        W 9997   1.215  43.236  11.624
39398W        W 9998  32.958  14.776  11.998
39399W        W 9999  39.918  12.347   2.649
39400W        W10000  30.003   5.745   3.843
39401W        W10001  20.948   5.365   1.021
39402W        W10002  17.131  15.733  14.291
39403W        W10003  32.109  17.187  13.555
39404W        W10004   3.955  21.165   1.829
39405W        W10005  37.583   5.933  11.667
39406W        W10006  42.375   1.860   4.846
39407W        W10007  37.063   7.927  11.149
39408W        W10008  14.676  26.673   0.755
39409W        W10009  24.091   9.205   4.129
39410W        W10010  34.396   4.743  12.027
39411W        W10011  31.675  11.795  11.210
39412W        W10012  38.828  22.972  11.541
39413W        W10013  33.945  14.215   4.951
39414W        W10014   6.879  32.205  12.504
39415W        W10015  37.894  18.329  12.430
39416W        W10016  38.892  34.451   2.668
39417W        W10017   4.218  21.206  11.588
39418W        W10018  40.819  17.028  12.518
39419W        W10019  18.309  37.897   3.797
39420W        W10020  40.267  12.840   0.789
39421W        W10021  14.878  21.954  12.966
39422W        W10022  43.819   4.294  14.547
39423W        W10023  42.994   5.398   0.467
39424W        W10024  25.880  43.586   1.788
39425W        W10025  44.900   7.855  13.014
39426W        W10026   0.448  22.342   4.399
39427W        W10027  13.594  44.694   1.214
39428W        W10028  22.036  17.536   1.599
39429W        W10029  32.096  17.852   3.219
39430W        W10030  37.949  31.351   3.628
39431W        W10031   8.653  41.363  11.528
39432W        W10032  10.652  32.595   1.133
39433W        W10033  44.349  18.548   3.620
39434W        W10034  19.027   7.752  11.272
39435W        W10035   6.340  39.616   2.220
39436W        W10036  39.373  35.650   0.966
39437W        W10037  13.379   7.660   4.706
39438W        W10038  31.160  10.809  12.087
39439W        W10039   0.975  33.357  12.079
39440W        W10040  23.634  33.965   4.761
39441W        W10041  29.653  16.198   0.956
39442W        W10042  39.776  16.591  11.553
39443W        W10043  25.479   2.844  14.280
39444W        W10044  10.800  35.845  14.897
39445W        W10045   7.364   9.560   2.899
39446W        W10046  10.815   4.661   1.381
39447W        W10047   3.943  37.966  12.921
39448W        W10048  22.741  24.811   4.456
39449W        W10049  11.884  26.428  11.572
39450W        W10050   4.952  31.023   4.505
39451W        W10051   4.270  34.601   1.279
39452W        W10052   3.348  44.548   0.282
39453W        W10053   2.205  17.031   2.887
39454W        W10054  34.403   5.925   3.187
39455W        W10055   7.790  38.185   0.762
39456W        W10056   8.306  12.288   1.176
39457W        W10057  25.617  44.250   0.508
39458W        W10058   4.286  37.541   0.553
39459W        W10059  14.009   4.807   0.853
39460W        W10060  33.891  17.076   3.041
39461W        W10061  14.567  27.983   4.603
39462W        W10062   1.394  35.404   3.655
39463W        W10063  19.400  12.878  10.418
39464W        W10064  41.872   1.679   3.650
39465W        W10065  10.422   0.288  12.076
39466W        W10066  44.203  21.862   0.235
39467W        W10067  26.590  17.767  10.542
39468W        W10068   7.956  24.197   0.803
39469W        W10069  35.614  33.384   1.417
39470W        W10070   4.369  18.802  12.525
39471W        W10071  32.139  20.187   4.575
39472W        W10072  34.910  33.049  12.607
39473W        W10073  38.383  11.166   2.885
39474W        W10074  32.150  14.194   2.933
39475W        W10075  27.178  24.466  13.153
39476W        W10076  37.125  16.200  14.271
39477W        W10077  10.502  28.416  11.523
39478W        W10078   6.675  34.136   1.881
39479W        W10079   9.147  21.800  11.610
39480W        W10080  23.867   3.255  13.937
39481W        W10081   3.167   8.281  12.538
39482W        W10082   5.733  30.380  12.276
39483W        W10083   6.736  39.991   4.504
39484W        W10084  11.936   8.881  11.315
39485W        W10085  42.843   0.933   2.665
39486W        W10086  35.869  16.333   2.335
39487W        W10087  29.132  10.875   3.161
39488W        W10088  14.093  16.449  11.953
39489W        W10089  20.653  13.564   1.632
39490W        W10090  27.418  25.544   1.899
39491W        W10091   5.358   6.689  11.234
39492W        W10092   6.689  14.809  11.511
39493W        W10093  12.758  25.399   1.717
39494W        W10094  38.631  32.667   0.749
39495W        W10095  20.739  36.242   3.714
39496W        W10096   8.555  21.160  12.199
39497W        W10097  43.992  39.788  12.887
39498W        W10098  21.019  16.815  13.817
39499W        W10099  35.596  40.469  14.782
39500W        W10100  27.480  10.156  11.999
39501W        W10101   0.229   1.909  15.000
39502W        W10102  33.144  30.804   4.568
39503W        W10103  18.177  44.574  11.572
39504W        W10104   7.655  32.839  11.190
39505W        W10105  10.603  18.019   3.294
39506W        W10106  14.189  29.185  12.017
39507W        W10107   8.220   4.174   2.622
39508W        W10108  16.184  31.882   4.100
39509W        W10109  33.668  17.985   2.186
39510W        W10110  28.153  33.019  12.161
39511W        W10111   8.788  12.275  11.052
39512W        W10112  23.090  25.782   1.168
39513W        W10113  37.287  20.873   4.037
39514W        W10114  30.833  16.392   5.145
39515W        W10115  18.545  35.548  12.048
39516W        W10116  38.574  13.100  12.050
39517W        W10117   9.703  44.381   3.528
39518W        W10118  33.222   8.865   3.796
39519W        W10119  19.743  16.199   0.618
39520W        W10120  38.711  17.791  13.102
39521W        W10121   4.815  42.428   4.862
39522W        W10122  14.147  18.869  11.393
39523W        W10123   5.804   3.316  11.548
39524W        W10124  22.182  13.174  14.076
39525W        W10125   6.627  27.067  12.554
39526W        W10126   3.919  40.531  11.908
39527W        W10127  14.554  34.429  12.542
39528W        W10128  16.742  30.186   3.098
39529W        W10129  23.168  43.649   0.012
39530W        W10130  19.138  40.824   0.208
39531W        W10131  25.463  28.457   2.284
39532W        W10132  38.608  10.357   4.581
39533W        W10133   4.292   8.422  11.484
39534W        W10134  35.493   4.691   0.841
39535W        W10135  11.759  15.704   2.741
39536W        W10136  13.763   3.835   4.198
39537W        W10137   6.809  44.677  13.024
39538W        W10138  42.319  28.626   1.942
39539W        W10139  29.891  19.976  11.817
39540W        W10140  16.849  34.890  12.807
39541W        W10141   9.682  35.378  14.760
39542W        W10142  27.021  33.532  10.890
39543W        W10143  38.827   7.161   3.842
39544W        W10144  22.770  37.438   0.706
39545W        W10145  30.982   9.148   4.096
39546W        W10146  15.604  35.921  13.004
39547W        W10147  12.874  30.671   2.859
39548W        W10148  40.067  30.416  13.804
39549W        W10149  10.105  12.539  14.797
39550W        W10150  24.601  38.870   3.240
39551W        W10151  33.972  28.903  13.053
39552W        W10152  42.097  32.259  14.274
39553W        W10153  38.616  33.022  11.991
39554W        W10154  20.725   3.386  13.811
39555W        W10155  26.794   4.799   3.612
39556W        W10156  40.934  19.168   4.524
39557W        W10157   7.958   5.824   0.451
39558W        W10158   8.555  42.013   1.199
39559W        W10159   9.241  14.382   1.813
39560W        W10160  16.800  40.532  12.500
39561W        W10161  28.435  27.277   1.270
39562W        W10162  34.944   2.235   0.415
39563W        W10163  27.746  43.338  11.684
39564W        W10164  20.039  28.148  11.074
39565W        W10165  36.985  26.587  12.346
39566W        W10166  28.874  28.078  11.621
39567W        W10167  41.512  16.417   4.294
39568W        W10168  21.521  21.083   4.593
39569W        W10169  12.169  15.211  10.395
39570W        W10170  25.086  18.219  10.186
39571W        W10171  18.926  30.903  13.061
39572W        W10172  21.257  36.416   5.054
39573W        W10173  34.384   3.395   2.277
39574W        W10174  36.757   7.844  13.649
39575W        W10175   7.404   3.711   0.888
39576W        W10176  36.601  41.947  12.273
39577W        W10177  27.058   5.354   0.925
39578W        W10178  24.125   8.314  11.723
39579W        W10179  40.415  24.970   2.558
39580W        W10180  38.906   1.694  10.715
39581W        W10181  21.320  13.731  14.075
39582W        W10182  18.086   4.730  12.923
39583W        W10183   5.888  16.694  14.557
39584W        W10184  27.082  15.651   4.704
39585W        W10185  12.206  15.688  14.153
39586W        W10186  44.385   6.466   0.016
39587W        W10187  10.327   9.904   2.763
39588W        W10188  12.183  35.022   2.355
39589W        W10189  42.359   1.063   2.507
39590W        W10190  26.163  31.787  13.912
39591W        W10191  28.108  37.525   0.899
39592W        W10192  13.367  39.839   4.349
39593W        W10193  21.968   6.457   4.096
39594W        W10194  26.747  35.976   4.919
39595W        W10195  36.444  35.626   2.814
39596W        W10196   2.608   6.660   3.614
39597W        W10197  21.560  23.038   2.262
39598W        W10198  10.339  21.626   1.991
39599W        W10199   2.938  37.271   3.637
39600W        W10200  44.262   9.452   4.563
39601W        W10201  40.098  43.665  13.802
39602W        W10202  25.150   3.219  14.536
39603W        W10203  43.880  43.883  13.693
39604W        W10204   6.379  13.094  11.144
39605W        W10205   5.611  21.076  14.409
39606W        W10206  14.794  10.623  13.313
39607W        W10207   9.293   7.363   4.020
39608W        W10208  29.423  42.310  11.492
39609W        W10209  15.723   1.277   1.084
39610W        W10210  13.215  19.181  14.492
39611W        W10211  24.817  15.616   3.154
39612W        W10212  14.692  14.066  12.041
39613W        W10213  35.988  28.924   0.736
39614W        W10214  15.332  25.628  12.097
39615W        W10215  22.728  43.320  10.976
39616W        W10216  15.522  34.764   1.503
39617W        W10217  12.892  43.472   1.277
39618W        W10218   2.674  10.544   4.686
39619W        W10219   6.176  27.556  12.975
39620W        W10220  35.400  32.626  14.380
39621W        W10221  26.464   6.250  14.586
39622W        W10222  28.078   8.521  10.768
39623W        W10223  16.473  20.068  12.812
39624W        W10224   1.767  34.399  12.029
39625W        W10225   5.343  40.991   1.486
39626W        W10226  15.080  18.192   4.563
39627W        W10227   4.579  37.391   3.711
39628W        W10228  29.910  30.200   4.856
39629W        W10229   7.658  44.948  14.660
39630W        W10230  30.986  15.052  13.467
39631W        W10231   2.879  44.868   4.410
39632W        W10232  19.564  42.085   1.989
39633W        W10233  44.943  27.528  14.992
39634W        W10234  40.412  39.878  11.293
39635W        W10235  14.419  35.842   2.891
39636W        W10236  38.508  26.252   3.337
39637W        W10237   4.487   7.300  11.165
39638W        W10238  44.100  11.130  14.979
39639W        W10239   0.850  43.770   4.875
39640W        W10240   7.500  18.496  13.556
39641W        W10241   8.881   6.253   1.591
39642W        W10242   4.313  24.903   0.771
39643W        W10243   0.314  40.367  12.179
39644W        W10244  22.493  22.770  13.069
39645W        W10245   4.379  40.379  13.399
39646W        W10246  15.425  15.588   4.118
39647W        W10247  16.343  17.340  13.819
39648W        W10248  44.855  16.578  10.452
39649W        W10249  12.590  42.914  14.156
39650W        W10250  27.594  40.314   1.724
39651W        W10251   7.347  10.395   3.769
39652W        W10252  13.714  38.492   3.743
39653W        W10253  29.747  16.245   3.789
39654W        W10254   7.825   3.413   4.700
39655W        W10255  19.017  20.212  10.362
39656W        W10256  31.062  20.502   3.635
39657W        W10257  11.656  25.925   4.801
39658W        W10258  39.422  27.464   0.043
39659W        W10259  25.181  30.329  11.179
39660W        W10260  13.626  10.547  11.852
39661W        W10261   3.743   3.752  14.437
39662W        W10262  17.595   3.201  14.942
39663W        W10263  40.470  25.848   4.521
39664W        W10264   1.506  22.152   2.225
39665W        W10265  30.938  30.351  14.775
39666W        W10266  21.596  39.088   3.699
39667W        W10267   8.126  30.234  14.048
39668W        W10268  38.024  37.031   3.312
39669W        W10269  32.026  23.599   0.406
39670W        W10270  28.944  44.350   4.685
39671W        W10271  38.423   1.173  10.909
39672W        W10272  24.339   7.111  10.345
39673W        W10273  11.393  16.876  10.777
39674W        W10274   3.445  27.288  11.468
39675W        W10275  34.517   3.227  10.639
39676W        W10276  19.909  29.118  12.550
39677W        W10277  41.587  25.123  10.715
39678W        W10278  37.965  34.066  10.511
39679W        W10279  29.449  33.969   2.257
39680W        W10280  23.147  27.504  12.906
39681W        W10281   1.291  34.865   4.467
39682W        W10282  41.507  32.327   0.931
39683W        W10283  42.693   5.927   1.398
39684W        W10284  31.339  44.736  11.088
39685W        W10285  25.244  15.626  12.042
39686W        W10286  38.924  20.884   4.339
39687W        W10287  34.942  11.071   0.705
39688W        W10288  26.692   1.901   3.384
39689W        W10289   3.685  17.870  14.416
39690W        W10290  34.305  13.607  12.849
39691W        W10291  22.709  20.136  11.608
39692W        W10292   6.038  20.777   0.363
39693W        W10293  26.226   6.756  14.853
39694W        W10294   2.787   4.286  12.978
39695W        W10295  16.128   0.104   4.171
39696W        W10296   7.860  36.414  12.780
39697W        W10297  30.195  38.111   1.717
39698W        W10298  15.290   3.354  10.702
39699W        W10299  11.623   0.822   3.154
39700W        W10300  25.404  10.319   0.795
39701W        W10301  35.219   2.926  13.022
39702W        W10302  20.696   0.102   2.857
39703W        W10303  29.574  20.114   2.250
39704W        W10304  34.901  26.028   4.379
39705W        W10305  16.250  36.092  13.801
39706W        W10306  21.113  40.407   3.101
39707W        W10307  24.531   6.907   4.585
39708W        W10308  12.043  27.908   3.682
39709W        W10309  31.472  35.630  11.143
39710W        W10310  10.077   5.830   2.669
39711W        W10311   0.841  37.303  13.606
39712W        W10312  15.299  41.415   0.243
39713W        W10313  35.994  25.568  14.364
39714W        W10314  41.805   0.729  12.510
39715W        W10315  16.236  39.656   3.231
39716W        W10316  20.538  24.097  12.381
39717W        W10317  25.435  36.101   2.772
39718W        W10318  32.154  18.146  13.518
39719W        W10319  22.011  20.263  14.810
39720W        W10320  22.078   5.715  14.883
39721W        W10321  18.773   2.758  11.056
39722W        W10322  39.924  43.045   3.366
39723W        W10323  24.662   7.241   0.542
39724W        W10324  13.425  37.913  12.091
39725W        W10325  39.431  36.978  12.093
39726W        W10326  25.016  38.106   3.148
39727W        W10327  40.273   1.386  11.339
39728W        W10328  17.103  32.232   1.201
39729W        W10329  27.227  37.385  14.195
39730W        W10330  35.866   9.203  13.876
39731W        W10331  17.814   2.723   0.856
39732W        W10332  17.647  15.072   3.176
39733W        W10333  16.768  32.541   0.875
39734W        W10334  20.669  26.885  13.331
39735W        W10335  29.509  33.519   4.068
39736W        W10336  38.868  26.236   2.967
39737W        W10337  30.004  12.210   0.090
39738W        W10338  29.964   6.807   1.890
39739W        W10339  40.023  26.235  12.446
39740W        W10340   3.072  14.730   0.393
39741W        W10341   8.796  30.446  12.343
39742W        W10342  14.895  41.593   2.243
39743W        W10343  21.737  13.816   2.238
39744W        W10344   4.700  28.860   2.374
39745W        W10345  23.543  39.282   3.745
39746W        W10346  42.345  19.599   3.540
39747W        W10347  31.977  15.182   1.086
39748W        W10348  31.396  12.624  14.312
39749W        W10349  17.798  16.646   1.855
39750W        W10350  23.931  32.180  12.787
39751W        W10351  18.607  28.725   2.890
39752W        W10352  25.437  15.527  13.523
39753W        W10353  19.643  19.914   3.162
39754W        W10354  41.135  38.291  11.735
39755W        W10355  20.590  43.015  12.327
39756W        W10356   3.397  27.649  10.010
39757W        W10357   7.966  42.409  11.167
39758W        W10358  13.673  10.660  14.309
39759W        W10359  25.170   2.560  12.957
39760W        W10360  31.562   0.073  14.958
39761W        W10361   2.975  18.341  12.284
39762W        W10362  18.671  39.981   0.354
39763W        W10363  39.188   1.516   3.112
39764W        W10364  28.073  19.213   3.174
39765W        W10365  17.320  13.139   1.341
39766W        W10366   7.624  23.113   4.218
39767W        W10367   4.790  13.676   2.850
39768W        W10368  42.429  42.839  12.438
39769W        W10369  12.581   6.863  13.119
39770W        W10370  10.473  27.625   0.909
39771W        W10371  26.578  24.795   4.572
39772W        W10372  41.291  27.549   4.835
39773W        W10373  26.300   7.011   0.736
39774W        W10374   7.127   0.354  13.924
39775W        W10375  27.929  14.569   3.384
39776W        W10376  17.818  32.925   3.881
39777W        W10377  15.092  40.557  12.424
39778W        W10378  23.658   1.261  12.882
39779W        W10379   6.949  36.785   3.197
39780W        W10380  12.801  32.536  11.138
39781W        W10381  36.469   3.870   2.234
39782W        W10382  32.124  42.212   2.173
39783W        W10383  41.381  25.243   0.356
39784W        W10384  15.487  29.970   0.071
39785W        W10385   6.752  12.394  11.247
39786W        W10386  29.128  44.787   0.422
39787W        W10387  24.709  39.947  10.954
39788W        W10388  36.381  25.070   3.265
39789W        W10389   2.382  43.714   2.215
39790W        W10390   1.871   7.713  14.842
39791W        W10391  22.096  34.432   1.670
39792W        W10392  28.684  18.245  14.959
39793W        W10393  10.185  36.554   4.613
39794W        W10394  11.626  33.858   3.189
39795W        W10395  15.118   6.538  13.372
39796W        W10396  42.420  34.475   0.346
39797W        W10397  23.345  27.678   2.747
39798W        W10398  19.120  43.947  14.238
39799W        W10399  35.840  43.056   1.917
39800W        W10400   6.458  40.352   4.099
39801W        W10401  10.563  35.228   2.875
39802W        W10402  43.872   5.912  14.614
39803W        W10403  20.552  43.053   0.179
39804W        W10404   7.658   5.738   2.727
39805W        W10405  40.476  16.873   1.205
39806W        W10406  33.416  42.210  13.021
39807W        W10407  35.943  20.573  13.971
39808W        W10408   6.461   7.191   4.758
39809W        W10409   1.323  33.578   2.247
39810W        W10410  20.635  28.619  14.149
39811W        W10411  32.982   8.176  12.511
39812W        W10412  37.526  33.475  11.602
39813W        W10413   1.247  29.096  14.462
39814W        W10414  38.524  44.469  11.035
39815W        W10415  27.534  40.993   3.899
39816W        W10416  35.592  34.115   2.838
39817W        W10417  31.610  26.033  12.689
39818W        W10418  30.011  13.649  13.987
39819W        W10419   9.232  42.282   2.464
39820W        W10420   3.784   6.269   1.995
39821W        W10421   9.877  41.047  10.926
39822W        W10422  24.683  10.644   3.311
39823W        W10423   3.417  33.152  12.881
39824W        W10424  29.562  31.760   3.492
39825W        W10425  24.729  36.881   2.907
39826W        W10426   4.524  19.292  12.403
39827W        W10427  30.187   5.967  11.194
39828W        W10428  20.151   8.682  13.224
39829W        W10429  27.695  37.853   0.450
39830W        W10430  33.040  19.180   4.752
39831W        W10431   4.798  10.676   1.840
39832W        W10432   1.538  38.368   1.990
39833W        W10433  24.179  36.162   3.260
39834W        W10434   5.090  38.458  10.855
39835W        W10435  43.755  25.073  14.103
39836W        W10436  34.072   0.697  14.929
39837W        W10437   4.895   2.303   2.825
39838W        W10438   6.203  12.655   2.753
39839W        W10439  34.946  13.071   1.721
39840W        W10440  35.682  30.990   2.620
39841W        W10441  18.972  10.069   4.227
39842W        W10442  39.223  17.057   2.949
39843W        W10443  15.045  14.815   0.282
39844W        W10444  43.540   1.012  13.397
39845W        W10445  38.539  28.417   2.337
39846W        W10446  36.086  40.256  13.785
39847W        W10447  36.945   4.505   0.487
39848W        W10448  43.918   1.955   4.167
39849W        W10449   9.180  40.614  14.318
39850W        W10450  15.771  29.653   1.847
39851W        W10451  43.575  23.045   1.276
39852W        W10452  26.580  30.864   2.333
39853W        W10453  26.249  30.586  13.448
39854W        W10454   7.667  14.183  14.345
39855W        W10455  42.237  29.587   2.366
39856W        W10456  29.545   2.376  13.484
39857W        W10457  20.161  23.036   0.488
39858W        W10458  30.682  22.746   0.372
39859W        W10459  42.707  29.811   2.468
39860W        W10460  44.408  31.233   4.394
39861W        W10461  20.196  44.420  10.671
39862W        W10462   3.005   2.799   0.886
39863W        W10463  15.228   0.686   5.492
39864W        W10464  12.715  30.955  10.865
39865W        W10465  21.345   6.975   2.143
39866W        W10466  25.433  17.159  12.982
39867W        W10467  27.176  18.987   1.840
39868W        W10468  44.885  30.495   3.144
39869W        W10469   2.751  30.787  11.820
39870W        W10470  33.149   9.402   0.751
39871W        W10471  21.092  29.385   1.214
39872W        W10472  24.924  37.058  13.048
39873W        W10473  37.090   0.524   3.501
39874W        W10474  19.897  39.750  11.997
39875W        W10475   9.007   6.315   0.841
39876W        W10476  10.681  17.226   2.857
39877W        W10477   9.309  21.271  11.214
39878W        W10478  15.234   9.498   4.525
39879W        W10479  14.253  30.568  12.848
39880W        W10480  43.746  14.551   4.709
39881W        W10481  20.118   2.354   2.901
39882W        W10482   1.381  34.878   2.711
39883W        W10483  30.628  38.924   2.690
39884W        W10484   3.234  15.750  14.554
39885W        W10485  36.474  33.996   0.814
39886W        W10486  27.041   0.388   1.417
39887W        W10487  43.979  31.204   3.957
39888W        W10488  36.333  31.548  14.242
39889W        W10489  41.018  26.405  13.969
39890W        W10490  42.252  39.784   2.416
39891W        W10491  41.020  37.106  12.121
39892W        W10492  26.207  18.666  14.457
39893W        W10493  15.621  23.634  13.912
39894W        W10494  38.061   7.985  14.020
39895W        W10495  30.605   1.472   4.580
39896W        W10496  24.455  39.435  11.665
39897W        W10497  21.727  24.347   2.844
39898W        W10498   4.164  14.310   2.266
39899W        W10499  12.382  34.505  12.165
39900W        W10500  24.466  32.351   4.590
39901W        W10501  16.355   4.760  13.436
39902W        W10502  25.671  16.102  12.463
39903W        W10503   1.313  33.061   2.227
39904W        W10504   2.330  33.874   2.765
39905W        W10505   9.518  36.595  13.001
39906W        W10506  10.733   7.980  12.716
39907W        W10507  36.208  15.091   3.338
39908W        W10508  38.604   9.889   0.777
39909W        W10509  21.173  17.215   4.546
39910W        W10510  16.783   6.314  13.290
39911W        W10511  22.513  37.460  13.900
39912W        W10512  11.329  42.952   1.782
39913W        W10513  35.609  32.762   3.751
39914W        W10514   4.996  19.454   0.733
39915W        W10515   9.251   1.432   3.692
39916W        W10516  39.117  35.979  12.946
39917W        W10517  18.895  44.939  13.958
39918W        W10518  18.441   3.509  11.646
39919W        W10519   0.680  39.814   0.271
39920W        W10520  33.409   2.945   0.805
39921W        W10521  22.688  29.142   0.038
39922W        W10522  41.593   9.875  14.216
39923W        W10523  18.380  22.581  13.997
39924W        W10524  40.711  30.237  12.438
39925W        W10525  12.788  13.513   4.609
39926W        W10526  43.576   4.150   5.084
39927W        W10527  34.390  16.245  12.905
39928W        W10528  15.438   9.727   4.067
39929W        W10529  10.798  23.262  10.700
39930W        W10530  12.090  12.575   1.193
39931W        W10531  20.057  21.061  13.639
39932W        W10532  20.313   6.825   3.553
39933W        W10533   6.354  33.012   3.582
39934W        W10534  29.050  41.239  14.272
39935W        W10535   5.073  30.206  11.139
39936W        W10536  38.049  28.149  14.968
39937W        W10537  43.790  34.471  13.066
39938W        W10538  30.050  23.588  14.474
39939W        W10539  36.579  26.251   0.911
39940W        W10540  41.601  41.827  10.776
39941W        W10541  40.757  27.238  12.516
39942W        W10542  40.900  40.573   2.788
39943W        W10543   3.356  39.018   2.320
39944W        W10544  24.106  43.895   1.172
39945W        W10545  44.438  16.485  12.130
39946W        W10546  18.330   4.477  11.028
39947W        W10547  14.342  33.143   3.456
39948W        W10548  23.532   7.955   2.959
39949W        W10549   9.112   6.147   4.213
39950W        W10550  37.468  42.041  11.988
39951W        W10551  24.403  31.993  10.764
39952W        W10552   8.427   0.406   2.030
39953W        W10553  38.926  20.786   2.163
39954W        W10554  38.010   0.353  11.255
39955W        W10555  40.385  40.004   4.716
39956W        W10556   0.218   8.757   2.461
39957W        W10557   3.369   2.542  11.584
39958W        W10558  29.924  14.703   0.466
39959W        W10559   1.779  14.690   3.688
39960W        W10560  31.620  32.336  14.867
39961W        W10561  14.342  41.002  11.730
39962W        W10562  41.895  44.353  12.084
39963W        W10563  41.015   2.242   0.949
39964W        W10564  27.053  22.642  12.915
39965W        W10565  33.783  25.774  13.399
39966W        W10566  31.840   9.154  11.703
39967W        W10567  21.715  39.004  11.229
39968W        W10568   9.543  22.339   2.536
39969W        W10569   5.425  33.004  13.018
39970W        W10570   9.603  13.887  13.660
39971W        W10571  43.336  24.611  10.751
39972W        W10572  26.622  42.574   2.064
39973W        W10573  11.308  40.039   2.709
39974W        W10574  27.512  33.031  14.246
39975W        W10575  16.095  32.417   1.100
39976W        W10576   4.257  11.076  14.230
39977W        W10577  18.764  33.039  14.236
39978W        W10578  17.515   8.387  12.726
39979W        W10579   4.748   9.344  13.775
39980W        W10580  10.122  31.383   0.988
39981W        W10581  27.834  42.344  14.863
39982W        W10582  41.899  21.630   2.601
39983W        W10583   6.537  36.802   0.869
39984W        W10584  28.585  10.857  13.805
39985W        W10585  43.742  17.918   2.062
39986W        W10586  34.956  22.505   1.648
39987W        W10587  25.151  21.698  11.002
39988W        W10588  19.747  38.061  14.640
39989W        W10589   6.626   0.397  13.836
39990W        W10590  34.612  17.621   3.312
39991W        W10591   8.987   3.054  10.455
39992W        W10592  16.199  15.771   1.891
39993W        W10593  37.536  25.596  10.913
39994W        W10594  28.580  31.795   2.157
39995W        W10595  17.082  24.713  13.510
39996W        W10596   4.214  14.242   1.346
39997W        W10597   7.845   1.263   3.657
39998W        W10598  40.946  10.633  11.796
39999W        W10599  35.303  12.187   3.819
40000W        W10600   1.774  29.876   0.313
40001W        W10601  24.458  44.960   2.650
40002W        W10602  14.395  37.425   3.170
40003W        W10603   5.986  34.430   3.069
40004W        W10604   0.629  34.457  10.302
40005W        W10605  10.236  42.234   4.532
40006W        W10606  29.905   6.650  13.094
40007W        W10607   6.659  16.748   2.010
40008W        W10608  37.403  20.686   2.480
40009W        W10609  19.198   3.039  11.062
40010W        W10610  33.417  24.571  11.492
40011W        W10611   5.726  43.443  12.492
40012W        W10612  12.080   1.855   4.022
40013W        W10613  34.234  26.684  13.966
40014W        W10614  30.942   9.646   0.928
40015W        W10615  32.655  25.501  14.291
40016W        W10616  42.303   6.319   1.428
40017W        W10617  35.406  29.097  11.617
40018W        W10618   4.804  40.609  13.588
40019W        W10619  19.352  32.382   0.699
40020W        W10620  38.854  39.695  12.852
40021W        W10621   0.034  14.325   0.902
40022W        W10622  33.147  34.414  13.893
40023W        W10623  23.910   5.793   0.753
40024W        W10624  21.173   3.306  11.986
40025W        W10625  17.639  32.662  12.766
40026W        W10626  36.136  30.246   3.224
40027W        W10627  18.941  15.585   2.461
40028W        W10628  23.686  13.184   0.664
40029W        W10629  35.150  32.452  13.338
40030W        W10630  13.635  12.473   3.682
40031W        W10631  30.452  42.371   1.341
40032W        W10632  37.364  14.587  13.526
40033W        W10633  25.402  43.142  10.669
40034W        W10634  13.997  11.225  12.162
40035W        W10635  25.208  27.267  14.932
40036W        W10636  15.476  23.996  12.574
40037W        W10637  22.609  21.852  13.433
40038W        W10638  11.432  42.216   2.272
40039W        W10639  35.025   6.713  13.060
40040W        W10640   7.284  11.852   3.223
40041W        W10641  10.857  10.073  13.045
40042W        W10642  39.036  39.604   3.685
40043W        W10643  37.044  22.211   0.364
40044W        W10644  17.044  11.740  14.416
40045W        W10645  36.593  10.414   9.616
40046W        W10646   9.991  43.952   3.657
40047W        W10647  21.670   9.858  13.980
40048W        W10648  30.234  22.211  13.780
40049W        W10649   7.384  18.072  10.809
40050W        W10650  19.572   2.460   4.696
40051W        W10651  31.957   6.527  13.982
40052W        W10652  44.371   6.814  13.409
40053W        W10653  12.562  18.247   3.819
40054W        W10654  30.125  37.285   5.102
40055W        W10655  33.098  12.359  13.378
40056W        W10656  15.716  25.425  11.063
40057W        W10657  11.314  31.806   4.562
40058W        W10658  22.627   6.463  14.260
40059W        W10659  21.656   4.749  12.162
40060W        W10660   6.303  15.965   4.050
40061W        W10661  14.844  14.338   3.898
40062W        W10662  11.861   4.894   9.691
40063W        W10663  34.017  30.666  13.532
40064W        W10664  16.119   6.003  14.730
40065W        W10665   7.253  15.667   4.779
40066W        W10666  32.485   7.318   2.335
40067W        W10667  12.833   2.066  10.408
40068W        W10668  31.492  24.688   1.622
40069W        W10669   1.995  11.103  10.722
40070W        W10670  17.163   1.575  14.935
40071W        W10671  42.176  44.341  14.353
40072W        W10672  16.339  39.514   1.898
40073W        W10673  38.406  20.096   4.818
40074W        W10674  33.045  21.558   2.642
40075W        W10675   3.315  34.410  14.365
40076W        W10676  24.684  17.100  11.109
40077W        W10677  22.232  11.835  14.515
40078W        W10678   0.271  30.732  11.561
40079W        W10679  10.043   6.700   3.345
40080W        W10680  25.351  42.249  12.152
40081W        W10681   9.929  24.317   4.520
40082W        W10682  30.635  28.564  10.669
40083W        W10683   5.378  12.349   3.304
40084W        W10684  44.513  26.477  11.050
40085W        W10685  36.723  37.079   4.669
40086W        W10686  21.999  17.763   4.274
40087W        W10687  14.407  34.916  10.967
40088W        W10688  22.041  41.708   3.234
40089W        W10689   1.799  25.919   1.277
40090W        W10690   4.254   5.902  12.099
40091W        W10691   1.809   8.475  12.967
40092W        W10692  24.537  22.263  14.713
40093W        W10693  18.592   4.226   1.248
40094W        W10694  35.307  16.102  13.824
40095W        W10695  36.069  10.753   3.340
40096W        W10696  23.747   9.910  13.517
40097W        W10697  31.028  15.713   4.641
40098W        W10698  34.596  23.105  14.944
40099W        W10699  15.228  28.641   3.694
40100W        W10700  28.962   9.032  12.316
40101W        W10701  29.913   5.451   4.346
40102W        W10702   2.676  44.984  12.560
40103W        W10703  40.583  34.296  11.129
40104W        W10704   1.933  36.512   0.067
40105W        W10705  43.351  24.420   4.129
40106W        W10706  22.205   1.278   3.150
40107W        W10707   0.208  22.239  10.581
40108W        W10708  36.609  12.053  11.798
40109W        W10709  40.550  15.541  13.430
40110W        W10710   2.159  31.228   2.384
40111W        W10711  13.635  10.620  12.827
40112W        W10712   3.350  15.726   4.017
40113W        W10713  28.864  35.277   1.703
40114W        W10714  42.804  25.427   1.814
40115W        W10715  29.258  26.071  12.674
40116W        W10716  26.384  18.777  12.721
40117W        W10717  33.482   0.820  14.769
40118W        W10718   6.922  27.073   3.910
40119W        W10719  29.466  35.373   4.769
40120W        W10720  12.575   6.697  11.682
40121W        W10721  30.046  20.639   1.664
40122W        W10722  37.636  26.957  11.729
40123W        W10723   9.899   4.046  10.919
40124W        W10724  22.110  33.321   4.179
40125W        W10725  20.847  13.294  12.164
40126W        W10726  36.864  20.712  10.778
40127W        W10727  40.773  22.628   4.203
40128W        W10728  36.916  11.225  10.884
40129W        W10729  30.149  16.191  11.244
40130W        W10730  39.918  19.073   0.760
40131W        W10731  29.584  31.934   2.200
40132W        W10732  16.186  32.617   2.255
40133W        W10733   0.475   8.027  13.576
40134W        W10734   2.471  18.684  11.585
40135W        W10735   2.380  19.118  14.227
40136W        W10736  23.519  21.251   1.802
40137W        W10737   9.226  26.201  13.562
40138W        W10738  40.518  23.048   4.867
40139W        W10739   9.085  28.536  11.599
40140W        W10740   5.683  13.769  14.048
40141W        W10741   8.911  18.314   4.722
40142W        W10742  32.784  29.343   2.266
40143W        W10743  34.954  36.115  14.983
40144W        W10744  25.425  26.396   1.033
40145W        W10745  23.975  10.374   1.692
40146W        W10746  34.407  18.259   0.397
40147W        W10747  14.535  43.282  13.406
40148W        W10748  31.075  18.783  12.039
40149W        W10749  34.080   4.838  10.757
40150W        W10750   9.807   0.707   4.617
40151W        W10751   5.162   7.435  13.883
40152W        W10752   5.419   0.799   0.937
40153W        W10753  38.623  12.757  13.253
40154W        W10754  18.263  29.965   0.834
40155W        W10755   9.599  39.647   0.485
40156W        W10756   9.142  40.607   2.485
40157W        W10757  38.505   8.387  13.320
40158W        W10758  42.391  44.244   2.378
40159W        W10759  37.869  18.003  13.348
40160W        W10760  11.377  35.852   3.341
40161W        W10761  38.254  13.806   3.772
40162W        W10762  29.534  40.444   3.071
40163W        W10763  44.805  18.810   0.384
40164W        W10764  24.168   5.017  14.778
40165W        W10765  29.645  12.578  12.915
40166W        W10766  28.085   4.095   0.321
40167W        W10767  27.668  10.114  12.475
40168W        W10768  41.848  20.164   5.287
40169W        W10769   5.299   5.664  13.471
40170W        W10770  37.253  16.595  11.232
40171W        W10771   3.434   1.948  14.970
40172W        W10772   4.163  13.586   1.391
40173W        W10773  37.055  18.140   4.630
40174W        W10774  39.825   2.359   4.200
40175W        W10775   0.027  24.531   2.911
40176W        W10776  26.738  37.895   3.446
40177W        W10777  10.674   7.597   1.455
40178W        W10778  16.962  35.852  13.208
40179W        W10779  44.049  18.204  10.991
40180W        W10780  38.624  10.438   0.762
40181W        W10781  13.103  21.925   4.040
40182W        W10782  22.281   5.643   4.403
40183W        W10783  33.668   9.705   1.855
40184W        W10784  17.373  19.813  11.098
40185W        W10785  30.746  42.346  10.675
40186W        W10786  19.003  19.038   2.681
40187W        W10787  13.107  36.635  12.512
40188W        W10788   9.009  21.410  11.916
40189W        W10789   0.119   2.968  10.967
40190W        W10790  23.508  42.305   1.754
40191W        W10791  21.586  13.069   2.998
40192W        W10792   8.317   9.757   1.304
40193W        W10793  44.802  19.134  12.148
40194W        W10794  30.678  10.431  12.604
40195W        W10795  26.734  32.147   1.873
40196W        W10796  30.213  28.002   0.840
40197W        W10797  10.173  29.020  14.860
40198W        W10798  15.905  22.941  13.332
40199W        W10799  25.527  38.300  12.984
40200W        W10800  31.581  23.288   0.295
40201W        W10801  27.318  20.752   2.815
40202W        W10802  30.903  37.102   2.857
40203W        W10803  18.425  27.263  10.786
40204W        W10804   0.464  10.889  13.192
40205W        W10805  15.066  31.451  14.987
40206W        W10806  23.563   7.386   2.189
40207W        W10807  32.306  26.958  14.420
40208W        W10808  14.847   1.249   1.431
40209W        W10809  27.546  31.492  12.975
40210W        W10810  37.679  23.737  12.890
40211W        W10811  44.970  20.306   2.066
40212W        W10812  35.981  11.811  12.626
40213W        W10813   0.923  34.647   0.922
40214W        W10814  12.935  41.186  11.930
40215W        W10815  43.598  38.087   4.984
40216W        W10816  17.188   6.967  10.474
40217W        W10817  23.349  12.862   3.544
40218W        W10818   8.166  12.360   3.515
40219W        W10819  42.805   3.395   0.472
40220W        W10820  29.413  26.936   2.235
40221W        W10821  16.501   0.727  13.644
40222W        W10822  10.678  28.651  12.567
40223W        W10823  10.437  13.627  11.051
40224W        W10824   3.769  40.459   0.682
40225W        W10825   2.903  38.437  14.237
40226W        W10826   2.043   0.397   4.684
40227W        W10827  25.944  29.711  11.880
40228W        W10828  11.793  11.664   2.611
40229W        W10829  37.896  12.684   2.390
40230W        W10830  15.182  14.365   1.136
40231W        W10831   3.206  28.078  14.474
40232W        W10832  32.044  34.132   4.504
40233W        W10833  18.512   5.894  10.630
40234W        W10834  16.973  27.382  12.888
40235W        W10835  34.389   4.502  11.127
40236W        W10836  26.593  27.778  10.810
40237W        W10837   2.104  16.230  14.961
40238W        W10838  12.029  43.998  11.011
40239W        W10839  22.988  11.658   2.089
40240W        W10840  38.207  17.999  11.079
40241W        W10841  32.255  43.785   4.124
40242W        W10842  28.387  37.016  14.195
40243W        W10843  38.281  29.306  12.638
40244W        W10844  41.895   9.236  13.686
40245W        W10845  21.251  25.446  10.828
40246W        W10846  33.976   4.415   1.346
40247W        W10847  15.844  32.110   0.759
40248W        W10848  43.454  19.414   0.789
40249W        W10849  19.618  14.267   2.625
40250W        W10850  13.274   7.343   1.413
40251W        W10851   6.373   2.790  12.146
40252W        W10852   4.836   6.985  14.244
40253W        W10853  32.605  39.557   1.929
40254W        W10854  31.960  23.455   3.770
40255W        W10855   2.704  33.392  13.181
40256W        W10856  44.453  37.471   5.056
40257W        W10857  44.878  39.087  13.569
40258W        W10858  15.579  15.335  13.587
40259W        W10859  34.840  25.875  12.882
40260W        W10860  23.451   2.840  10.805
40261W        W10861  22.794  20.677  10.977
40262W        W10862  42.517  13.737   3.904
40263W        W10863   3.251  24.655   0.612
40264W        W10864  25.459  14.125   1.513
40265W        W10865  27.482  35.423  14.351
40266W        W10866  24.497  15.818  13.431
40267W        W10867   1.685  42.955   2.813
40268W        W10868  36.429   2.981   4.769
40269W        W10869  39.715  39.201   0.918
40270W        W10870  33.062  36.344  13.856
40271W        W10871  41.495   2.711  14.933
40272W        W10872  42.324  30.010  12.014
40273W        W10873   0.789  31.724   3.658
40274W        W10874  20.991   4.280   2.181
40275W        W10875  20.273  41.203   0.436
40276W        W10876  17.064   4.650   3.721
40277W        W10877   8.601  31.883   0.787
40278W        W10878  42.282  24.244   0.047
40279W        W10879  41.384   2.093   1.820
40280W        W10880  38.331  10.189   4.182
40281W        W10881  35.386   4.796  14.090
40282W        W10882  10.137  40.927  13.365
40283W        W10883   7.851  24.126   2.687
40284W        W10884  33.793   0.225  11.575
40285W        W10885  26.663  26.975   3.319
40286W        W10886  22.096  18.170  12.000
40287W        W10887  32.384  23.989   3.196
40288W        W10888  39.855  32.154  11.501
40289W        W10889  37.482  17.927   1.290
40290W        W10890   9.145   0.938  11.050
40291W        W10891  32.531  26.377   3.093
40292W        W10892   2.369  20.913   4.598
40293W        W10893  40.642  16.322  14.393
40294W        W10894  39.353  13.808   1.486
40295W        W10895   7.532  12.356   4.227
40296W        W10896  29.978  31.601   2.189
40297W        W10897  15.418  24.279  10.703
40298W        W10898   1.273  31.719  14.229
40299W        W10899  25.291  22.138  13.302
40300W        W10900  32.183  15.394   3.352
40301W        W10901  32.058  18.264  10.657
40302W        W10902  19.060   6.855  14.875
40303W        W10903  31.220  44.037   4.100
40304W        W10904  43.416  19.830  10.713
40305W        W10905  22.855  23.379   3.883
40306W        W10906  40.559   6.837  11.163
40307W        W10907   0.249  17.786  14.382
40308W        W10908   7.656   5.772   4.132
40309W        W10909  25.167  10.390  12.927
40310W        W10910  31.641  27.508  14.793
40311W        W10911  19.734  20.783   0.472
40312W        W10912  28.370  29.467  13.875
40313W        W10913  34.883  33.374  13.102
40314W        W10914  16.064  30.831  14.828
40315W        W10915  37.132   7.141  11.973
40316W        W10916  22.699   7.070  10.590
40317W        W10917  32.377  39.391   1.453
40318W        W10918  34.409  42.057  11.573
40319W        W10919  41.001  31.898  10.755
40320W        W10920  32.770  28.933  12.630
40321W        W10921  32.874   2.243  11.999
40322W        W10922  30.575  37.384   1.924
40323W        W10923   6.359   7.779  10.646
40324W        W10924  31.244  41.533   4.253
40325W        W10925  15.570   4.444  13.351
40326W        W10926   0.396  32.920   4.053
40327W        W10927  35.402   3.334   4.648
40328W        W10928  23.178  25.203   3.790
40329W        W10929   4.274  14.031  11.862
40330W        W10930  12.384  21.649   3.784
40331W        W10931  41.237   3.314  11.138
40332W        W10932  32.912   2.411  12.605
40333W        W10933  39.854  24.220   3.584
40334W        W10934  21.490   9.159  12.408
40335W        W10935  42.742  28.635   4.177
40336W        W10936  30.924  39.935  13.256
40337W        W10937  36.013   2.824  13.772
40338W        W10938  34.212   4.118   1.729
40339W        W10939  43.086   2.269  13.144
40340W        W10940  26.581  42.902   0.676
40341W        W10941  15.245  20.538   3.576
40342W        W10942  19.678  29.609  12.405
40343W        W10943  22.092  14.285  12.508
40344W        W10944  37.456  13.234  13.106
40345W        W10945   6.414  27.196   4.070
40346W        W10946  36.743  38.363  11.555
40347W        W10947  35.169   6.683   3.080
40348W        W10948   4.358  27.041   1.458
40349W        W10949  41.354  41.258  11.626
40350W        W10950  13.313  35.058   2.658
40351W        W10951  12.300  37.460   2.604
40352W        W10952  32.884  17.602   2.721
40353W        W10953  38.522  21.723  11.617
40354W        W10954  20.063  34.491   1.762
40355W        W10955  27.998  40.550   1.470
40356W        W10956  23.421  40.536   1.467
40357W        W10957   7.658  42.212  13.882
40358W        W10958   3.577  16.092  14.788
40359W        W10959  24.235  25.134   4.692
40360W        W10960  16.553   5.488  11.436
40361W        W10961  32.951  42.822   0.277
40362W        W10962  43.204  30.185  14.297
40363W        W10963  43.367  43.947  11.404
40364W        W10964   7.590  37.371   2.765
40365W        W10965  43.271  10.768   0.072
40366W        W10966  11.893  36.799   4.123
40367W        W10967  16.154  32.162  13.879
40368W        W10968  21.568   8.716   2.464
40369W        W10969  33.004  18.665  13.926
40370W        W10970  35.731  19.624  12.792
40371W        W10971  32.580  29.743  13.976
40372W        W10972  31.370  30.214   2.810
40373W        W10973  16.928  13.277   9.835
40374W        W10974  42.946  35.223  13.786
40375W        W10975   6.829  15.527  11.132
40376W        W10976   8.492   0.531  13.504
40377W        W10977   7.880  37.299  12.501
40378W        W10978  25.214  41.327  11.198
40379W        W10979  22.002  36.817  14.597
40380W        W10980  10.157  36.570  14.866
40381W        W10981  44.886  43.593  12.769
40382W        W10982  20.223  36.084   2.916
40383W        W10983  32.953   8.623  10.595
40384W        W10984  27.339  39.462   3.541
40385W        W10985  43.324  25.030   1.260
40386W        W10986  28.868  29.583  10.406
40387W        W10987  26.655   1.933   4.423
40388W        W10988  27.923  12.929  14.003
40389W        W10989  24.594  42.464  11.239
40390W        W10990   6.539  12.402   0.271
40391W        W10991  39.827  40.195   0.313
40392W        W10992  30.663  19.786   0.576
40393W        W10993  17.749   8.012  10.799
40394W        W10994  38.548   3.344  11.220
40395W        W10995  19.605  26.694  11.640
40396W        W10996  23.584  37.822   2.842
40397W        W10997   8.677  44.971   1.809
40398W        W10998  23.028  21.417  13.058
40399W        W10999  17.468  25.716  14.921
40400W        W11000   6.122   7.180  13.087
40401W        W11001  18.062   2.795   1.385
40402W        W11002  40.096  29.663  12.958
40403W        W11003  36.456  14.232  10.665
40404W        W11004  21.062   2.445   2.645
40405W        W11005  17.255  42.890  14.249
40406W        W11006  20.330  39.504   3.118
40407W        W11007  16.752  28.682  12.451
40408W        W11008  39.753  41.706   1.727
40409W        W11009  37.908  33.304  12.420
40410W        W11010  27.169  23.223   2.253
40411W        W11011  20.757  24.000  11.412
40412W        W11012  43.462  14.610   1.619
40413W        W11013  33.792   9.365  12.417
40414W        W11014  11.187  37.698   0.628
40415W        W11015  14.692  28.659   2.925
40416W        W11016   8.315  34.126   4.627
40417W        W11017  28.896  41.063   3.982
40418W        W11018  19.057  14.049  11.327
40419W        W11019  20.674  10.277  12.998
40420W        W11020   9.357  35.052   2.392
40421W        W11021  38.372  35.609   3.748
40422W        W11022  14.107  30.115   4.132
40423W        W11023  23.504  37.925  12.544
40424W        W11024   0.024   4.226  11.970
40425W        W11025  37.348  40.579   5.123
40426W        W11026  26.296  43.801   3.626
40427W        W11027  21.582  34.381   1.733
40428W        W11028  37.644  11.449   3.700
40429W        W11029  34.470  35.702  12.814
40430W        W11030   7.142  33.052   2.580
40431W        W11031  31.940  40.768   0.487
40432W        W11032  37.361  31.456  10.683
40433W        W11033  22.608  24.075   0.456
40434W        W11034  34.610  22.096   1.718
40435W        W11035   3.681  14.781  13.549
40436W        W11036  20.513  18.691   3.702
40437W        W11037  43.539  29.643  12.580
40438W        W11038  31.880  34.608   0.911
40439W        W11039  37.486  10.187  12.924
40440W        W11040  25.164  33.904  13.370
40441W        W11041  18.328  44.034  12.397
40442W        W11042  27.418  42.559  13.900
40443W        W11043  34.358  25.251  11.188
40444W        W11044  38.940  27.655   2.121
40445W        W11045  42.701  34.007   0.225
40446W        W11046  40.296  13.186   1.785
40447W        W11047  19.546   0.747   3.637
40448W        W11048  22.462  29.473   3.181
40449W        W11049  19.496  38.607   4.580
40450W        W11050  18.666  41.021   0.166
40451W        W11051  28.187  26.065   3.324
40452W        W11052  40.946  22.980  13.718
40453W        W11053  33.174  36.662   0.261
40454W        W11054  37.193   9.699  14.737
40455W        W11055  10.090   8.372   1.700
40456W        W11056  35.357   5.656  14.797
40457W        W11057  17.651   6.864  14.834
40458W        W11058   8.598  16.069  13.333
40459W        W11059  31.540  32.896   0.542
40460W        W11060   3.445   1.556   2.218
40461W        W11061  15.685  41.662   0.010
40462W        W11062  10.623  14.300  11.159
40463W        W11063  29.958  25.829  14.044
40464W        W11064  13.192  35.428  11.595
40465W        W11065  10.332  14.835  10.052
40466W        W11066   9.539  14.150   3.663
40467W        W11067  12.802   3.221   2.363
40468W        W11068  25.135  44.133   0.328
40469W        W11069  31.043  22.227  11.928
40470W        W11070  39.575   8.204  14.968
40471W        W11071  26.023  24.665   1.357
40472W        W11072  26.456  40.243   0.466
40473W        W11073  41.359  36.226   2.312
40474W        W11074   7.857  28.135  14.342
40475W        W11075   6.880  34.846  11.053
40476W        W11076  26.054   6.603   1.669
40477W        W11077  33.497  22.089  12.447
40478W        W11078  12.624  10.703   0.320
40479W        W11079  25.138  25.333   2.851
40480W        W11080  25.964  40.474   3.762
40481W        W11081  15.286  42.563  12.155
40482W        W11082  17.180  17.095   4.567
40483W        W11083  14.199  29.571   1.003
40484W        W11084  32.723  11.612   3.359
40485W        W11085  19.272  10.420   0.970
40486W        W11086  16.811  44.379  11.462
40487W        W11087  18.614  21.558  10.698
40488W        W11088  30.065  41.430   2.077
40489W        W11089  20.223  37.334  13.164
40490W        W11090  27.069  28.674  12.006
40491W        W11091   9.849  20.630  11.930
40492W        W11092  38.191  33.554   0.675
40493W        W11093  34.451   4.868   4.068
40494W        W11094  30.598  36.618  13.179
40495W        W11095  18.610  26.474  13.368
40496W        W11096   0.787  18.546  10.642
40497W        W11097  13.384  25.067  14.292
40498W        W11098  21.549  37.658  13.071
40499W        W11099  28.334  16.612   3.363
40500W        W11100  43.133  37.264  14.497
40501W        W11101  42.777  40.467  14.941
40502W        W11102  33.543  32.740   4.179
40503W        W11103   5.538   5.942  13.845
40504W        W11104  14.852   5.784   1.305
40505W        W11105   0.906   8.705  14.729
40506W        W11106  14.256  37.873   0.683
40507W        W11107  14.628  18.159   0.111
40508W        W11108  35.989   2.834   3.537
40509W        W11109   6.202   4.250  12.953
40510W        W11110  22.044   6.779  14.841
40511W        W11111  22.714  37.985   0.421
40512W        W11112  15.455  18.551  14.235
40513W        W11113   2.832  42.508  14.033
40514W        W11114  18.170  12.193   0.425
40515W        W11115  14.127  18.831  14.931
40516W        W11116  19.492  12.769  12.605
40517W        W11117   0.727   4.305  12.554
40518W        W11118  33.923  24.265   3.672
40519W        W11119   9.647   9.686   4.233
40520W        W11120  42.042  43.451  11.009
40521W        W11121  16.817   1.766   0.805
40522W        W11122  16.292  24.623  10.425
40523W        W11123  35.915  17.330   0.796
40524W        W11124  32.284   0.485   1.516
40525W        W11125  22.339   6.402  13.044
40526W        W11126  30.226  44.455   2.083
40527W        W11127   4.739  40.062  11.226
40528W        W11128  29.525  19.841   0.734
40529W        W11129  31.550   2.996   0.052
40530W        W11130  22.084  16.607   3.542
40531W        W11131  12.134  28.895  12.886
40532W        W11132  38.248  39.940  13.740
40533W        W11133  13.283  40.859   0.844
40534W        W11134  23.760   9.688  11.697
40535W        W11135  38.777  41.262   0.739
40536W        W11136   1.240  40.578  14.874
40537W        W11137  10.111  30.773  13.444
40538W        W11138  25.782  14.664   2.788
40539W        W11139  27.932   9.079   0.818
40540W        W11140   5.438  42.306   1.681
40541W        W11141  24.867  34.978   4.102
40542W        W11142   2.981  12.712  13.922
40543W        W11143  19.771  35.617  13.947
40544W        W11144   8.331  36.125  12.363
40545W        W11145  33.500   8.949   4.257
40546W        W11146  22.119   3.002  13.838
40547W        W11147   6.356  26.399   3.628
40548W        W11148   2.838   5.408  10.737
40549W        W11149   9.083  32.643   0.520
40550W        W11150  21.000  42.094   1.116
40551W        W11151  43.213  39.278   1.275
40552W        W11152  33.936   3.457   3.678
40553W        W11153  32.458  22.687  11.082
40554W        W11154  41.874  25.969   0.291
40555W        W11155  44.342   3.259  11.219
40556W        W11156   1.849  21.353  12.172
40557W        W11157  36.981   5.566  14.439
40558W        W11158  35.426  32.992  12.657
40559W        W11159   5.656  38.558  12.510
40560W        W11160  24.698   5.982  13.801
40561W        W11161  20.677  18.199  13.324
40562W        W11162  12.873  13.007   4.057
40563W        W11163   8.402  37.964   1.777
40564W        W11164  19.753  28.965   4.092
40565W        W11165  15.835   3.235  13.840
40566W        W11166  17.862   6.467  11.066
40567W        W11167  30.999  11.485   1.560
40568W        W11168  25.464  15.708   3.653
40569W        W11169  26.526   0.774   1.725
40570W        W11170   8.952  25.930   1.428
40571W        W11171  23.265  14.689   4.283
40572W        W11172  30.602   7.545   4.429
40573W        W11173  20.596  20.384   0.427
40574W        W11174   7.276  34.481  13.679
40575W        W11175  29.896  32.032   3.147
40576W        W11176   8.385   8.560   3.989
40577W        W11177  23.769   3.031  14.790
40578W        W11178  24.709  24.139   4.367
40579W        W11179  20.216  20.639   4.622
40580W        W11180   0.199  40.513   2.712
40581W        W11181  38.893  35.913   0.423
40582W        W11182   8.966  42.133  12.991
40583W        W11183   7.729  39.980   4.710
40584W        W11184  20.178   6.853  14.919
40585W        W11185   2.756  38.044   2.901
40586W        W11186  39.676  30.508   1.687
40587W        W11187  12.918   6.139   1.316
40588W        W11188  12.019  21.174   0.941
40589W        W11189  26.093  14.642  10.439
40590W        W11190  17.566  27.445  14.381
40591W        W11191   8.344   2.699  13.895
40592W        W11192  28.485  29.225   3.835
40593W        W11193  15.046  33.297   0.565
40594W        W11194  21.128   2.788   2.253
40595W        W11195  37.379  19.710   2.477
40596W        W11196  12.287  29.642   2.865
40597W        W11197  13.572  44.228  12.986
40598W        W11198  17.351  34.644  13.403
40599W        W11199  14.056  44.225  13.888
40600W        W11200  20.278  10.717   2.848
40601W        W11201  33.375  14.672   0.623
40602W        W11202   6.327  11.376   3.240
40603W        W11203  43.721  18.219  12.341
40604W        W11204  34.482  43.823   4.735
40605W        W11205  15.031  24.384   0.963
40606W        W11206  13.337  28.695  13.011
40607W        W11207   1.335  20.399   4.559
40608W        W11208   0.563  15.031  13.429
40609W        W11209  21.748   1.249  12.133
40610W        W11210  20.316   8.594   9.770
40611W        W11211  22.172  41.506   1.261
40612W        W11212  25.248  35.303  11.743
40613W        W11213   0.912  19.637  12.315
40614W        W11214   5.234  27.705  12.774
40615W        W11215  20.351  19.940   5.081
40616W        W11216  32.309  37.343   1.749
40617W        W11217  37.202  17.178   5.027
40618W        W11218  38.922  36.635  14.086
40619W        W11219  32.907  16.307  12.163
40620W        W11220  13.584  39.161   0.426
40621W        W11221  19.543  18.511   0.119
40622W        W11222   1.225   0.515   0.395
40623W        W11223  31.335  36.903   3.120
40624W        W11224  20.486   2.592   9.962
40625W        W11225   0.534  36.704   1.251
40626W        W11226  19.482  34.907  14.740
40627W        W11227   0.518  26.194  10.539
40628W        W11228   9.328   4.011   2.221
40629W        W11229  12.829   1.413  13.052
40630W        W11230  33.523   2.212   4.095
40631W        W11231   6.253  19.818   1.721
40632W        W11232  11.725  39.550   2.227
40633W        W11233   6.129  17.098  12.494
40634W        W11234  10.218  29.885   0.932
40635W        W11235  33.956  13.169   0.644
40636W        W11236  38.390  42.472   1.652
40637W        W11237  31.090  34.349  13.743
40638W        W11238  15.787   5.497  10.863
40639W        W11239  18.474   0.978   1.709
40640W        W11240  17.659  29.734   3.615
40641W        W11241  36.323   8.317  11.607
40642W        W11242  17.495  10.232   1.669
40643W        W11243  17.923  38.823  12.974
40644W        W11244  18.124   8.648   2.672
40645W        W11245  15.994  33.636   0.279
40646W        W11246  29.851  18.762  10.769
40647W        W11247  21.998  24.496  11.517
40648W        W11248   7.509   8.940   0.934
40649W        W11249  36.275  11.502   2.028
40650W        W11250  18.208  12.538  14.393
40651W        W11251  14.003  30.995   3.740
40652W        W11252  30.920  13.830  11.143
40653W        W11253  20.454  20.715  11.649
40654W        W11254  35.954  11.709  14.383
40655W        W11255  10.406  32.547  14.039
40656W        W11256  19.185   1.458   4.018
40657W        W11257   5.354  12.184  11.156
40658W        W11258  34.108  38.614   4.103
40659W        W11259   6.611   7.220  12.669
40660W        W11260  34.614  33.407   4.490
40661W        W11261   5.421  31.402  11.157
40662W        W11262  30.722  38.567  13.632
40663W        W11263   6.173  39.589   3.583
40664W        W11264  22.406  22.994  14.828
40665W        W11265  28.196   1.902   3.728
40666W        W11266  44.511  28.626   1.782
40667W        W11267  40.985  10.904   3.599
40668W        W11268  44.420  16.342  13.768
40669W        W11269   8.450  40.846  14.791
40670W        W11270  20.457   0.405   4.478
40671W        W11271  12.171   7.828  13.401
40672W        W11272  23.348  22.359  12.008
40673W        W11273  37.541  14.697   1.555
40674W        W11274  39.406   4.246  10.699
40675W        W11275  33.480  27.375   4.275
40676W        W11276  35.124   0.784  13.903
40677W        W11277  12.673  44.887   3.534
40678W        W11278  20.153  11.905   3.184
40679W        W11279  21.062  21.254  14.350
40680W        W11280  12.562  28.625   3.753
40681W        W11281  40.432  29.440  11.115
40682W        W11282  30.853   2.743  11.888
40683W        W11283  29.422  22.153  14.380
40684W        W11284  13.300  30.288   0.338
40685W        W11285  29.556  25.006   1.751
40686W        W11286  19.680  21.961   3.221
40687W        W11287  42.788  17.253  11.210
40688W        W11288  27.196  28.417   1.902
40689W        W11289  27.067  31.687  11.878
40690W        W11290  22.755  44.265   3.635
40691W        W11291   4.463  10.325  12.886
40692W        W11292   5.949  34.490  11.728
40693W        W11293  37.679  24.247   4.149
40694W        W11294   7.113  39.038  12.547
40695W        W11295  22.768  24.946   3.959
40696W        W11296  18.245   3.315   0.308
40697W        W11297  16.684  33.618  10.166
40698W        W11298  21.619  23.358   4.655
40699W        W11299  21.715  24.054   0.278
40700W        W11300  23.140  44.658  11.238
40701W        W11301   5.086  26.605  11.508
40702W        W11302  28.406  21.529  13.426
40703W        W11303  36.883  37.593   3.605
40704W        W11304  25.320  32.280   0.557
40705W        W11305  36.759   8.852   3.281
40706W        W11306   9.332  24.010  10.775
40707W        W11307   3.960   1.669  11.589
40708W        W11308  43.176  29.956   1.203
40709W        W11309  28.007   0.448  14.076
40710W        W11310  34.539  44.607  13.278
40711W        W11311   5.194   5.288  12.528
40712W        W11312  26.643  32.852   0.836
40713W        W11313   4.617  25.642  14.801
40714W        W11314   3.063  37.027  13.435
40715W        W11315  31.177  20.710  11.965
40716W        W11316   1.621  32.419   1.794
40717W        W11317   0.367   3.652   0.660
40718W        W11318   4.334  17.832  14.907
40719W        W11319   7.183  19.449   0.829
40720W        W11320  19.203  14.672   1.335
40721W        W11321  35.091  42.279   4.060
40722W        W11322  23.544  22.654  10.692
40723W        W11323  17.606  41.016   3.561
40724W        W11324  14.732  27.573   1.801
40725W        W11325  31.150  18.334  12.552
40726W        W11326  31.868  44.918   0.786
40727W        W11327  14.425  41.328   1.797
40728W        W11328  12.711   4.220   2.405
40729W        W11329  41.586  30.703  11.252
40730W        W11330  26.707   8.744  13.360
40731W        W11331   7.688  28.224   0.861
40732W        W11332  21.034  11.964  12.581
40733W        W11333  41.107  24.574   1.418
40734W        W11334  26.088  24.280  13.572
40735W        W11335  31.498  11.630  14.845
40736W        W11336   6.313  16.006  12.537
40737W        W11337  28.254  16.102   3.340
40738W        W11338  17.603  41.282  12.605
40739W        W11339  41.591  12.934  12.569
40740W        W11340   7.543  26.946   1.351
40741W        W11341  37.118  44.888   2.197
40742W        W11342  44.683   9.378  11.820
40743W        W11343   5.831   4.371   4.621
40744W        W11344  43.467   2.743  14.650
40745W        W11345  14.613   9.265  11.492
40746W        W11346  43.820  28.894   0.753
40747W        W11347   3.384  29.598   4.223
40748W        W11348   7.061   0.418   2.882
40749W        W11349  31.687  33.650  11.685
40750W        W11350  30.456  42.567   0.315
40751W        W11351   7.125  36.820   2.275
40752W        W11352  22.604  16.217   4.799
40753W        W11353  20.364  44.328   2.543
40754W        W11354  36.775  28.861  10.762
40755W        W11355  14.082  31.208  10.855
40756W        W11356  32.402  30.510  10.772
40757W        W11357  36.154   3.840  13.527
40758W        W11358  15.784  20.682   4.146
40759W        W11359  14.633  26.028   2.499
40760W        W11360  41.881  19.764  11.696
40761W        W11361  16.314   1.426   4.950
40762W        W11362   0.094  25.466  10.649
40763W        W11363  15.711  17.779   2.099
40764W        W11364  41.854  36.319   4.801
40765W        W11365   9.643  40.884  13.513
40766W        W11366  22.828  40.437  14.038
40767W        W11367  32.977  26.296   3.765
40768W        W11368  30.625   0.265   2.498
40769W        W11369  34.182  30.943   2.890
40770W        W11370  30.049  16.227   0.251
40771W        W11371  39.356  40.400   2.396
40772W        W11372  16.802   0.375  13.410
40773W        W11373  36.587  27.143  11.550
40774W        W11374   2.279  30.177  10.704
40775W        W11375  29.284   7.193   0.557
40776W        W11376  12.674  16.271   3.803
40777W        W11377  42.123   1.701  12.431
40778W        W11378  35.111  17.157   1.755
40779W        W11379   3.705  24.516  13.493
40780W        W11380  13.641  13.702  12.833
40781W        W11381  40.836  21.737  11.488
40782W        W11382  39.582   2.831   2.310
40783W        W11383   4.048  39.460   0.648
40784W        W11384  27.556  38.776   0.402
40785W        W11385  11.046  35.466  13.448
40786W        W11386   0.669  31.374   0.299
40787W        W11387  21.133  12.549  14.889
40788W        W11388  35.520  21.280  13.121
40789W        W11389  32.393  27.850   2.344
40790W        W11390  22.998  12.178   2.284
40791W        W11391   6.188  24.116  13.432
40792W        W11392  11.738  42.068  14.488
40793W        W11393  26.488  26.919   2.396
40794W        W11394  41.041  21.056  10.721
40795W        W11395   0.938  40.883   4.251
40796W        W11396   8.811   7.580   3.187
40797W        W11397  35.175  18.090   4.532
40798W        W11398  31.200   5.818   0.551
40799W        W11399  42.797  18.664   2.648
40800W        W11400  35.370  14.620   2.172
40801W        W11401  20.072  32.710  11.950
40802W        W11402  41.882  35.560   1.716
40803W        W11403  16.783   3.709  12.127
40804W        W11404  35.767  27.472  14.542
40805W        W11405  43.272  32.919   2.797
40806W        W11406   7.442  18.042  13.307
40807W        W11407  26.675   4.750  13.369
40808W        W11408  23.431  23.078   0.753
40809W        W11409  16.193  26.151  12.947
40810W        W11410  36.559  38.484   2.321
40811W        W11411  29.495  34.886   1.401
40812W        W11412   8.522   7.274  13.468
40813W        W11413  42.288  37.541  10.710
40814W        W11414  22.020  18.878  13.679
40815W        W11415  21.473   6.623   4.306
40816W        W11416  11.306  15.116   2.450
40817W        W11417   5.277  26.989   0.654
40818W        W11418  31.072  30.469  13.029
40819W        W11419   7.766  12.584   4.661
40820W        W11420   3.730  32.494  14.812
40821W        W11421   7.675  39.205   3.162
40822W        W11422   5.717  24.157  10.799
40823W        W11423   6.385  43.324   3.293
40824W        W11424  16.049   9.439   0.357
40825W        W11425  23.614  22.587  11.604
40826W        W11426  23.765  30.356  12.102
40827W        W11427  21.352  22.082  12.012
40828W        W11428  29.566   6.852   2.228
40829W        W11429  21.623  39.863   2.741
40830W        W11430   5.340   6.692  13.312
40831W        W11431  42.188  41.391  14.870
40832W        W11432  35.795  16.378  10.822
40833W        W11433  21.612  33.478  13.139
40834W        W11434  10.720  34.633   1.431
40835W        W11435  26.716  29.463  11.021
40836W        W11436  30.098  24.537   2.114
40837W        W11437  20.362  14.080   4.192
40838W        W11438  18.758  25.732   4.419
40839W        W11439  17.424  23.642   9.914
40840W        W11440  40.054  30.637  11.640
40841W        W11441   2.945   9.465   2.101
40842W        W11442  10.347  37.500   3.911
40843W        W11443  25.297   7.075   4.125
40844W        W11444   0.789   3.991  13.824
40845W        W11445   3.958  32.852  13.816
40846W        W11446  37.629  13.149  11.179
40847W        W11447  10.694   6.605  10.920
40848W        W11448  32.719  38.074   0.364
40849W        W11449  24.775  10.758  13.958
40850W        W11450  10.535  12.214  13.886
40851W        W11451   6.828  15.261  13.975
40852W        W11452  24.080   8.974   5.457
40853W        W11453  10.236  44.327   1.218
40854W        W11454  22.949  25.615   3.625
40855W        W11455  23.063   4.501   0.686
40856W        W11456  32.014  17.793  11.616
40857W        W11457  12.204  17.261   2.363
40858W        W11458  42.264  38.048  13.111
40859W        W11459  24.772  25.606   4.085
40860W        W11460  27.898  27.962   1.167
40861W        W11461  10.238  38.006  12.528
40862W        W11462   1.460   3.313  13.996
40863W        W11463  14.811  38.304  12.529
40864W        W11464   3.618  17.308  12.845
40865W        W11465  16.044   0.625   4.189
40866W        W11466   3.333  32.990   2.320
40867W        W11467  26.215   8.304   1.817
40868W        W11468   9.400  35.561  10.942
40869W        W11469   1.938  18.829   2.158
40870W        W11470   4.365  13.205  13.853
40871W        W11471   0.948  19.737  11.331
40872W        W11472   3.547   1.969   4.198
40873W        W11473  11.318   7.393  11.907
40874W        W11474   8.536  35.462   1.144
40875W        W11475  38.286  23.229  10.714
40876W        W11476  27.681  37.625  14.080
40877W        W11477  15.585  30.926   1.964
40878W        W11478   0.932  25.975  10.772
40879W        W11479  43.832   0.510  10.674
40880W        W11480  17.161  24.234  13.317
40881W        W11481   0.311   7.436  10.626
40882W        W11482  29.917  13.805  14.763
40883W        W11483  40.992  14.562   0.300
40884W        W11484  28.073  14.144   4.935
40885W        W11485  19.560  40.493   2.959
40886W        W11486  16.384  30.574  11.441
40887W        W11487  13.405  42.529   3.098
40888W        W11488   8.060  25.135  12.576
40889W        W11489  42.837   4.472   0.426
40890W        W11490  26.227  22.707   2.252
40891W        W11491  43.992  24.682   0.908
40892W        W11492   6.059  40.086   0.946
40893W        W11493  34.466  22.549   4.540
40894W        W11494  37.825   5.275   1.403
40895W        W11495  18.545   8.600  14.408
40896W        W11496  16.223  21.325  12.802
40897W        W11497  10.869  44.599   3.294
40898W        W11498  35.678  28.693   3.195
40899W        W11499  19.228  32.896  12.595
40900W        W11500  11.772  17.510   2.105
40901W        W11501  44.643  39.327   2.762
40902W        W11502  42.198  11.191  13.810
40903W        W11503  30.385   8.274   0.673
40904W        W11504  31.613  21.762   4.239
40905W        W11505  24.948  14.734  14.424
40906W        W11506  44.231  31.493   1.380
40907W        W11507  34.043  20.500   0.534
40908W        W11508   2.817  32.483  14.812
40909W        W11509  21.074   6.349  14.834
40910W        W11510  38.089   7.797  11.308
40911W        W11511  30.640  19.763  13.483
40912W        W11512   3.294  21.524   2.317
40913W        W11513   2.933   8.891   0.397
40914W        W11514  19.757  32.594   2.773
40915W        W11515  40.898  42.259  14.135
40916W        W11516  25.009   2.329   0.657
40917W        W11517  34.401  27.661   0.291
40918W        W11518   4.239  31.516  13.472
40919W        W11519  16.876  19.574  14.983
40920W        W11520   4.945  41.076   0.597
40921W        W11521   0.470  40.086   3.753
40922W        W11522  19.119  20.113   0.371
40923W        W11523  40.433  19.533   0.449
40924W        W11524   9.784   8.474   2.381
40925W        W11525   3.807  39.530   4.186
40926W        W11526  28.806  16.611  11.084
40927W        W11527  34.055   7.098  11.680
40928W        W11528   3.795  26.536  11.108
40929W        W11529  16.310   3.241   1.418
40930W        W11530  14.348  27.241  11.190
40931W        W11531  17.388   8.310   2.277
40932W        W11532   2.072   6.326  11.562
40933W        W11533  30.146   7.963  14.346
40934W        W11534  44.571  17.613   1.608
40935W        W11535  41.228  30.566   1.360
40936W        W11536  40.408  34.567  10.735
40937W        W11537  33.308   5.320   3.977
40938W        W11538  24.518  34.537   3.927
40939W        W11539   3.505  16.325  11.443
40940W        W11540  28.014  38.769   4.120
40941W        W11541   0.937  36.907   2.311
40942W        W11542  27.968  44.254   3.455
40943W        W11543  44.925  16.395  12.442
40944W        W11544  38.377  23.246  11.586
40945W        W11545  33.021   2.877   4.039
40946W        W11546  31.068  30.615  14.351
40947W        W11547  39.733  17.654   0.870
40948W        W11548  11.901  18.608   0.290
40949W        W11549  34.587   6.430  11.435
40950W        W11550   5.247  28.514   4.531
40951W        W11551  42.954  29.925  10.993
40952W        W11552  24.044  11.530  10.582
40953W        W11553  31.167  35.327   2.720
40954W        W11554  31.423  26.583  13.440
40955W        W11555  19.683  14.587   1.794
40956W        W11556  24.095  34.355   1.656
40957W        W11557   6.188   3.287  14.793
40958W        W11558   6.380  24.756   0.319
40959W        W11559  30.448  19.110  14.228
40960W        W11560   9.593  14.807  12.149
40961W        W11561  42.981   1.783  12.864
40962W        W11562   3.989  19.464  13.397
40963W        W11563   6.705  31.164  12.704
40964W        W11564  24.592  37.386   2.234
40965W        W11565  23.263  38.108  12.106
40966W        W11566  37.891   0.532   0.296
40967W        W11567  24.947  40.384   2.731
40968W        W11568  36.060  10.035   0.774
40969W        W11569  28.082   0.078   3.146
40970W        W11570  23.154  43.514   2.701
40971W        W11571  41.784  31.860  12.963
40972W        W11572  30.331   0.541  11.565
40973W        W11573   6.470   6.716  12.879
40974W        W11574  38.537  18.929  10.161
40975W        W11575   8.242  18.753  12.504
40976W        W11576   7.977  10.174   2.212
40977W        W11577  13.769  21.703   1.516
40978W        W11578  14.367   8.792   2.106
40979W        W11579   8.698  16.522   4.280
40980W        W11580  29.880  40.585   3.490
40981W        W11581  21.594  12.720   1.297
40982W        W11582  10.819  39.772   3.295
40983W        W11583  38.989  39.836  13.848
40984W        W11584   2.155  22.212  14.944
40985W        W11585  19.222  20.880  13.897
40986W        W11586   5.373  20.962   0.948
40987W        W11587  11.894  37.908   0.924
40988W        W11588  35.371  39.979   1.288
40989W        W11589  19.004  26.147  11.951
40990W        W11590   5.769  27.640   2.675
40991W        W11591   3.459  17.376  14.499
40992W        W11592  31.041  26.827   4.564
40993W        W11593  42.621  31.256  11.946
40994W        W11594  40.021  29.084   3.225
40995W        W11595  17.352  31.094  11.127
40996W        W11596  27.026  34.736  12.988
40997W        W11597  19.204  12.731  13.622
40998W        W11598  25.566  28.380   0.955
40999W        W11599  37.435  12.819  10.837
41000W        W11600  15.236  40.570  13.885
41001W        W11601  28.788  27.186  11.701
41002W        W11602  38.465  27.969  12.310
41003W        W11603  33.878  32.593   0.322
41004W        W11604  43.319  12.852   3.802
41005W        W11605  39.237  24.557   3.184
41006W        W11606   2.110   1.095  13.790
41007W        W11607  35.545  33.348  13.886
41008W        W11608  27.209  40.632  12.833
41009W        W11609  26.411   7.413   9.916
41010W        W11610  11.426  23.645   2.894
41011W        W11611  44.854  40.964   3.542
41012W        W11612   5.638  25.701   2.759
41013W        W11613   4.636  27.721   5.077
41014W        W11614  38.766  12.317   2.282
41015W        W11615  17.331  29.123  11.641
41016W        W11616  14.085  44.724  12.559
41017W        W11617  15.715  38.057   1.418
41018W        W11618  16.518  26.237  12.069
41019W        W11619  40.111  39.083   1.215
41020W        W11620  44.312  23.648   1.265
41021W        W11621  26.270  30.047   2.511
41022W        W11622  33.111  39.416  10.411
41023W        W11623  19.946  23.065  12.309
41024W        W11624  43.991  22.132   2.310
41025W        W11625  34.442  32.637   3.314
41026W        W11626  24.735  39.613   2.909
41027W        W11627   2.991   9.519   3.333
41028W        W11628  38.193   7.259   4.599
41029W        W11629  11.108  40.366  10.736
41030W        W11630  25.174  32.441  10.527
41031W        W11631  17.627  18.765  13.048
41032W        W11632  27.080  21.376   0.221
41033W        W11633  23.304  33.667  13.998
41034W        W11634  44.365  43.842  13.918
41035W        W11635  15.952   7.409  10.474
41036W        W11636  18.084   9.640   3.615
41037W        W11637  27.644   9.749   1.330
41038W        W11638  11.157  43.362   4.145
41039W        W11639  14.320   5.326   2.147
41040W        W11640  15.702  12.229  14.087
41041W        W11641   3.410   6.262  13.540
41042W        W11642   3.323   3.294   0.226
41043W        W11643  19.869  25.761  11.884
41044W        W11644   8.822  27.158  11.695
41045W        W11645  42.728  11.920   2.605
41046W        W11646   8.726   7.392  12.842
41047W        W11647  38.139  44.207   2.246
41048W        W11648  26.024   8.331  11.992
41049W        W11649  21.121  19.759  13.033
41050W        W11650  13.247  19.950  14.042
41051W        W11651  18.302  16.506  14.278
41052W        W11652  41.021  21.861  13.433
41053W        W11653  29.708   7.747   3.995
41054W        W11654  29.913  37.660  10.383
41055W        W11655  24.384  22.501  10.905
41056W        W11656  28.183   3.273  10.781
41057W        W11657  11.147  22.166   3.618
41058W        W11658  23.003  22.112   2.769
41059W        W11659  28.704   8.529   4.530
41060W        W11660  24.086   5.256   1.330
41061W        W11661  10.246   3.609  12.169
41062W        W11662  20.618  11.383   4.084
41063W        W11663  41.736  14.801   0.736
41064W        W11664   1.460  11.760  14.278
41065W        W11665  34.489  20.908  13.407
41066W        W11666  29.548  14.295  12.565
41067W        W11667  38.360  32.126   2.252
41068W        W11668  21.310  41.919  11.671
41069W        W11669  11.818   8.715   3.102
41070W        W11670  24.106  33.834   3.824
41071W        W11671  25.043   4.105  11.143
41072W        W11672   4.264  26.697  10.902
41073W        W11673   3.935  20.275   3.934
41074W        W11674  34.119  42.412   3.156
41075W        W11675   5.011   8.375  14.497
41076W        W11676  20.819  22.613   1.895
41077W        W11677  44.926   6.089  13.303
41078W        W11678  18.469  20.723  14.368
41079W        W11679  43.442  43.704   1.399
41080W        W11680  14.747  11.222   4.576
41081W        W11681  10.078  39.292  13.898
41082W        W11682  26.969  22.583  11.944
41083W        W11683  10.448  19.804  13.537
41084W        W11684   0.690  27.867  14.408
41085W        W11685  43.842  13.457   3.954
41086W        W11686  31.938  31.045   1.722
41087W        W11687  19.566  41.596   1.842
41088W        W11688  25.711  39.900   0.797
41089W        W11689  42.664  19.785   1.737
41090W        W11690  32.447  26.885   0.287
41091W        W11691  23.748  18.336   4.178
41092W        W11692  29.007  29.109  10.204
41093W        W11693  15.156   2.648   1.674
41094W        W11694   1.720  17.456   4.655
41095W        W11695   3.317  40.504   0.278
41096W        W11696  14.765  13.277   3.280
41097W        W11697  33.862  24.685  14.541
41098W        W11698  14.024  38.074  10.707
41099W        W11699  11.977  32.502   1.358
41100W        W11700  42.347  15.783  11.192
41101W        W11701  14.078  36.903  11.107
41102W        W11702  42.767  14.986   3.215
41103W        W11703   2.797  36.507  12.605
41104W        W11704   2.697   6.122  13.047
41105W        W11705  40.406   0.982   1.966
41106W        W11706  21.280  43.318   3.034
41107W        W11707  17.300  31.956  11.178
41108W        W11708   6.731  26.047  14.316
41109W        W11709  10.687  21.251   4.971
41110W        W11710  41.971   1.484   4.522
41111W        W11711  41.298  28.048  14.504
41112W        W11712  42.686  23.674  12.377
41113W        W11713  40.231  13.602  13.201
41114W        W11714  21.980  27.105  12.415
41115W        W11715   1.992  37.336   0.348
41116W        W11716  42.170   7.738   0.872
41117W        W11717  39.886   0.196  11.480
41118W        W11718  23.534  11.840   0.220
41119W        W11719   2.812  23.460   0.708
41120W        W11720  31.755  20.424   1.783
41121W        W11721  37.406   7.725   1.318
41122W        W11722  25.801  11.263   0.011
41123W        W11723   0.636   2.351   0.933
41124W        W11724  13.840  16.759   2.140
41125W        W11725  34.466  11.283   1.864
41126W        W11726  39.547  30.398  13.142
41127W        W11727  18.648  37.102   3.336
41128W        W11728  10.744  26.433   4.622
41129W        W11729   2.508   2.917   0.915
41130W        W11730  10.834  33.926   0.696
41131W        W11731  18.749  25.964   1.293
41132W        W11732  36.095  31.723   0.916
41133W        W11733   1.375  12.641  14.237
41134W        W11734  35.026  28.912  14.811
41135W        W11735  29.061  40.308   3.287
41136W        W11736  22.249  23.275  14.045
41137W        W11737   1.448  28.160   0.179
41138W        W11738   0.370  43.141   9.997
41139W        W11739  37.243  25.537  12.918
41140W        W11740  12.390  17.001  12.929
41141W        W11741  25.990  40.799  14.060
41142W        W11742  35.994   6.627   3.285
41143W        W11743  27.447  27.220  11.675
41144W        W11744  21.170  11.607   4.089
41145W        W11745  22.138  31.922   2.501
41146W        W11746  31.847  18.567   0.258
41147W        W11747  36.865   6.964   2.362
41148W        W11748  27.583  32.849  10.443
41149W        W11749  11.661   5.818   3.693
41150W        W11750   3.255  36.870   2.786
41151W        W11751   7.852  11.239   0.945
41152W        W11752  18.539   3.441   3.288
41153W        W11753  32.498  30.221  12.990
41154W        W11754   5.087  20.307   2.350
41155W        W11755  34.021  44.431  14.479
41156W        W11756  22.468   8.046  11.912
41157W        W11757  14.620  31.882   0.403
41158W        W11758  23.847  37.588   5.016
41159W        W11759  23.774  17.288   0.213
41160W        W11760  43.196  29.968   2.638
41161W        W11761  40.643  10.786  13.111
41162W        W11762  44.364   6.127  10.162
41163W        W11763  42.825  39.850  12.918
41164W        W11764  14.781  10.937   4.147
41165W        W11765   2.211  11.610  11.650
41166W        W11766  21.005  42.785  10.767
41167W        W11767  11.887  26.715   0.454
41168W        W11768  37.040  43.196  10.645
41169W        W11769  33.973  33.364  12.259
41170W        W11770  28.634  28.437  12.842
41171W        W11771  22.214   4.914  12.881
41172W        W11772   0.422  21.774   4.671
41173W        W11773  28.952   6.732  11.641
41174W        W11774  13.547  44.249  13.936
41175W        W11775  42.422  16.009   2.316
41176W        W11776  11.340  25.706  13.738
41177W        W11777  24.949  26.590   2.774
41178W        W11778   4.704   3.795   1.015
41179W        W11779  30.580  28.835  11.091
41180W        W11780  31.388  33.003  12.531
41181W        W11781  13.306   2.775  14.347
41182W        W11782  21.616  40.533   4.867
41183W        W11783  32.895  21.235  13.279
41184W        W11784  15.306  29.108  12.586
41185W        W11785  20.573  10.913   0.373
41186W        W11786  14.248  31.600   3.109
41187W        W11787  25.546   4.331  11.157
41188W        W11788  21.128  37.107   2.700
41189W        W11789  16.227  27.986  12.604
41190W        W11790   7.813  42.796   2.448
41191W        W11791  17.668  31.488  12.476
41192W        W11792  28.525  37.375  10.717
41193W        W11793  24.014  29.771  14.593
41194W        W11794  23.724  40.927  11.903
41195W        W11795  12.148  26.608  13.303
41196W        W11796  31.793  44.540  14.397
41197W        W11797   3.962  12.186  14.429
41198W        W11798  20.666  44.555  14.512
41199W        W11799  43.001   9.879   3.431
41200W        W11800  14.163  24.262   1.516
41201W        W11801  15.586  22.191   1.152
41202W        W11802   6.256  43.062   0.595
41203W        W11803  10.582  30.503   4.754
41204W        W11804  44.089  25.214  13.731
41205W        W11805  22.178  12.371  12.035
41206W        W11806  11.199  23.819  11.051
41207W        W11807  38.511  17.865  13.890
41208W        W11808  13.120  30.371   4.602
41209W        W11809   3.196  44.739  10.838
41210W        W11810   4.476  27.447   4.143
41211W        W11811  31.035   5.051  14.862
41212W        W11812  44.469  14.626   0.282
41213W        W11813  17.159  43.787  13.864
41214W        W11814  13.203  42.734  14.458
41215W        W11815  15.733  40.712   3.652
41216W        W11816  37.460  13.872   2.720
41217W        W11817   5.944  26.171   3.989
41218W        W11818  33.467  44.262   2.947
41219W        W11819   8.461  36.549  12.031
41220W        W11820  23.932  43.854   3.404
41221W        W11821  20.597  14.890  14.841
41222W        W11822  28.670   2.464  13.908
41223W        W11823  14.694  23.724  10.509
41224W        W11824  15.796  32.168  10.706
41225W        W11825   1.414  25.489   0.581
41226W        W11826  16.835  24.650   4.613
41227W        W11827   5.825  21.594   3.040
41228W        W11828   9.714  19.711   2.278
41229W        W11829  33.645  25.578   2.955
41230W        W11830  42.400  26.679  13.495
41231W        W11831  44.946  32.126  14.799
41232W        W11832   7.123  39.369   4.502
41233W        W11833  17.339  24.276   3.766
41234W        W11834  25.147   5.571  12.175
41235W        W11835  19.247   8.536   2.250
41236W        W11836  23.054   2.563  13.819
41237W        W11837  35.369  10.104   1.944
41238W        W11838   2.804   1.918   4.653
41239W        W11839  44.056  19.503  11.918
41240W        W11840   4.005  27.581   0.163
41241W        W11841  38.345  17.212  12.933
41242W        W11842  10.941  12.720   3.978
41243W        W11843  42.871  32.658  12.597
41244W        W11844  26.950  10.307   1.810
41245W        W11845  23.742  22.145   5.091
41246W        W11846  34.013  25.802  13.862
41247W        W11847   0.206  33.934   3.191
41248W        W11848   6.226  21.441   4.613
41249W        W11849   8.811  16.778   0.478
41250W        W11850  20.212  31.169   3.617
41251W        W11851  12.554  15.935  14.453
41252W        W11852  41.889  39.050   1.928
41253W        W11853   0.757  21.280  13.340
41254W        W11854  40.752  11.549   0.373
41255W        W11855  30.419  39.020  11.550
41256W        W11856  24.537   5.848  11.568
41257W        W11857  15.543  11.340   0.420
41258W        W11858  33.500  20.243   2.208
41259W        W11859  38.055  33.127  10.963
41260W        W11860  34.989   6.127  11.142
41261W        W11861  17.175   5.466   4.121
41262W        W11862  19.410   6.898  13.518
41263W        W11863  22.312  37.888  11.796
41264W        W11864  33.248  34.454   3.682
41265W        W11865   7.696  10.608  11.801
41266W        W11866  34.358  29.980  11.542
41267W        W11867  34.001  11.255  11.520
41268W        W11868   8.195  32.647  12.000
41269W        W11869  30.711   4.738  14.291
41270W        W11870   3.435  36.186  10.421
41271W        W11871   1.804  44.477  11.475
41272W        W11872  12.184   9.994   1.948
41273W        W11873  42.883  35.884   0.469
41274W        W11874   2.167  17.746  10.671
41275W        W11875  41.581  33.144  13.412
41276W        W11876  14.585  35.327   4.994
41277W        W11877  11.691  40.336  13.874
41278W        W11878  15.163   5.087  14.829
41279W        W11879   4.255  39.525   3.797
41280W        W11880  33.201   2.396  11.567
41281W        W11881   3.946   9.838  13.452
41282W        W11882  27.331   2.987  14.064
41283W        W11883  41.817  10.265   0.218
41284W        W11884  22.234  24.046   0.123
41285W        W11885  23.376  23.960   4.601
41286W        W11886  33.342  24.854   0.625
41287W        W11887  20.160   8.904  11.876
41288W        W11888  14.795  38.071   1.416
41289W        W11889  31.679  31.894  11.842
41290W        W11890  39.264  15.253  13.004
41291W        W11891   8.780  25.872  13.311
41292W        W11892  30.561   8.448   2.189
41293W        W11893   3.768   4.461   3.112
41294W        W11894  19.591  39.044   1.775
41295W        W11895  41.903   4.180  14.012
41296W        W11896  16.302  40.700   4.577
41297W        W11897  36.535  40.472  13.948
41298W        W11898   6.361  38.507   3.834
41299W        W11899  12.531  13.900  10.097
41300W        W11900  32.163  13.821  13.120
41301W        W11901  25.407  19.777   0.098
41302W        W11902  10.334  23.488  10.890
41303W        W11903  29.505  44.308   0.839
41304W        W11904  31.978   2.932  10.667
41305W        W11905  13.103  37.862   0.423
41306W        W11906  27.658   3.289  10.614
41307W        W11907  25.897  13.980   4.039
41308W        W11908  24.637  14.718   3.841
41309W        W11909  23.712  11.824   0.818
41310W        W11910   6.407   8.899   4.119
41311W        W11911   5.855  12.597   3.775
41312W        W11912  16.513  22.589   0.898
41313W        W11913  11.329  32.132  13.144
41314W        W11914  22.698  22.616   4.318
41315W        W11915  27.974  43.271  14.348
41316W        W11916  14.306   8.631   3.357
41317W        W11917   5.287  22.578   0.380
41318W        W11918   0.332  39.255   1.421
41319W        W11919  41.892  29.096   3.188
41320W        W11920  36.483  14.545   4.599
41321W        W11921  33.491  44.255   1.346
41322W        W11922  11.184  18.819   3.223
41323W        W11923  25.002  29.068  11.537
41324W        W11924   5.785  35.809  13.018
41325W        W11925  18.998  43.727  12.910
41326W        W11926  28.408  12.764  12.559
41327W        W11927   5.731   7.367   4.373
41328W        W11928   1.936  30.588   3.105
41329W        W11929  26.035  38.572   1.861
41330W        W11930  34.376  35.975   4.545
41331W        W11931   8.005   1.177   0.841
41332W        W11932  36.110  31.349   3.740
41333W        W11933  37.487  25.567  11.970
41334W        W11934  27.962  12.732  14.815
41335W        W11935  22.494  27.540   0.060
41336W        W11936  29.752  38.328  13.371
41337W        W11937  33.855  20.406   2.908
41338W        W11938  43.712   6.101  10.743
41339W        W11939  42.554  27.186  11.081
41340W        W11940  13.564  33.158  12.647
41341W        W11941  37.497   3.917   3.156
41342W        W11942  30.509  22.638  11.504
41343W        W11943  23.266  14.057   4.889
41344W        W11944  14.772  20.255  11.610
41345W        W11945   1.427  36.799  11.963
41346W        W11946   2.290  38.599   0.787
41347W        W11947  32.577   8.600   1.682
41348W        W11948  43.982   5.528   1.339
41349W        W11949  22.972  18.044   3.782
41350W        W11950   0.020   1.373  12.790
41351W        W11951  15.117   6.268  12.001
41352W        W11952  43.875  20.059  10.720
41353W        W11953  13.593  26.025   3.098
41354W        W11954  18.597  18.012  12.517
41355W        W11955  43.360   4.528   2.336
41356W        W11956  17.990  23.220   4.369
41357W        W11957   3.219  22.645  12.458
41358W        W11958  15.132  41.447   4.593
41359W        W11959  35.180  42.941  12.608
41360W        W11960  33.390   0.671  12.438
41361W        W11961  19.080  20.089   4.650
41362W        W11962  41.553  13.850   4.833
41363W        W11963   1.984  18.366   2.728
41364W        W11964  38.609  36.830  10.141
41365W        W11965  17.892  38.497  14.249
41366W        W11966  35.562  25.045   1.989
41367W        W11967  44.646  31.255  10.441
41368W        W11968  24.489   3.526   0.120
41369W        W11969   9.492  24.016   0.925
41370W        W11970   4.340  21.944   0.956
41371W        W11971  20.058  30.182   4.884
41372W        W11972  30.738  12.766   1.687
41373W        W11973  34.133  18.185  14.851
41374W        W11974  38.823  17.266  13.080
41375W        W11975  36.563  24.877   2.405
41376W        W11976  11.285  41.433  14.774
41377W        W11977  42.990  36.485  13.441
41378W        W11978   4.698  21.418   0.468
41379W        W11979   2.022  31.668   1.940
41380W        W11980  16.571  24.177  13.953
41381W        W11981  41.106  26.628  10.213
41382W        W11982   4.297  43.586  11.030
41383W        W11983   0.049  37.871   4.923
41384W        W11984  40.382   5.490  13.388
41385W        W11985   3.378   7.658   0.501
41386W        W11986   2.723  10.540   1.672
41387W        W11987  19.783  26.436   1.682
41388W        W11988  43.802  18.478   0.205
41389W        W11989  16.624  39.155   1.636
41390W        W11990  37.872   6.225   4.145
41391W        W11991  30.571  10.289  10.642
41392W        W11992  33.793  39.829   1.341
41393W        W11993  21.618   9.724  12.334
41394W        W11994   0.930  11.280  13.196
41395W        W11995  42.485  35.357  11.352
41396W        W11996  29.893  37.551  12.115
41397W        W11997   7.364  36.192  12.927
41398W        W11998  17.560  34.389   1.954
41399W        W11999  15.777  22.156   4.190
41400W        W12000  11.211   3.730   3.578
41401W        W12001  40.304  25.667  11.931
41402W        W12002  31.479  36.330   3.849
41403W        W12003  40.497  27.717  14.211
41404W        W12004  16.779  10.344  14.821
41405W        W12005  43.387  29.423   4.460
41406W        W12006  31.425   5.874  13.017
41407W        W12007  18.543  24.442  11.703
41408W        W12008   8.393  42.768   3.888
41409W        W12009  23.041  28.763   4.755
41410W        W12010  42.252  22.023   2.475
41411W        W12011  19.352   1.940  11.807
41412W        W12012  25.058  33.376   3.566
41413W        W12013  38.253  13.604  13.394
41414W        W12014  15.966  44.872   3.706
41415W        W12015  16.805   1.900   2.374
41416W        W12016  13.711  26.132  12.703
41417W        W12017  33.925  31.451   0.278
41418W        W12018  19.004  18.152   3.178
41419W        W12019  29.268  22.033   4.572
41420W        W12020  17.167   3.964  11.880
41421W        W12021  32.015  17.288   0.521
41422W        W12022   7.195  35.313   2.230
41423W        W12023   8.846  44.490  14.599
41424W        W12024  21.671  23.829   2.835
41425W        W12025  15.223  10.196  10.770
41426W        W12026  11.851  33.687  10.875
41427W        W12027  37.187  26.560   4.644
41428W        W12028  19.087  36.030  13.351
41429W        W12029  13.565  13.689  11.530
41430W        W12030  40.328  32.002  14.436
41431W        W12031  21.005  22.251  10.634
41432W        W12032  10.614   9.219  13.530
41433W        W12033   7.868  34.636  11.637
41434W        W12034  26.969  40.482   2.809
41435W        W12035  32.031  10.274   3.512
41436W        W12036  14.395  40.531   1.862
41437W        W12037  20.132  41.929   1.457
41438W        W12038  35.333  42.508  13.008
41439W        W12039  36.932  38.920  14.931
41440W        W12040   2.918  29.363  11.411
41441W        W12041  42.943  15.730  12.963
41442W        W12042  19.989  11.353  12.000
41443W        W12043  19.584  17.862   4.203
41444W        W12044   3.197  26.041   4.592
41445W        W12045  20.066  36.493   4.249
41446W        W12046  41.360   3.809   3.699
41447W        W12047  14.404  20.864   1.671
41448W        W12048  40.502   8.343  11.677
41449W        W12049  21.019   3.991   3.438
41450W        W12050  44.263  24.356  13.507
41451W        W12051  38.771  21.565   0.791
41452W        W12052  21.070  28.393  12.223
41453W        W12053  27.891  21.184   2.371
41454W        W12054  35.198  39.957  11.230
41455W        W12055  21.097  13.259  12.645
41456W        W12056  10.668  14.484   4.816
41457W        W12057   3.762  35.927  10.762
41458W        W12058  14.423  27.786  12.390
41459W        W12059   4.498  12.547   1.195
41460W        W12060  39.535   9.178  14.924
41461W        W12061   9.632  12.774  11.477
41462W        W12062  15.523   4.712  12.036
41463W        W12063  23.471   5.670  14.359
41464W        W12064   3.411  20.962  13.426
41465W        W12065   1.025  31.365  14.527
41466W        W12066   5.894   5.776   3.563
41467W        W12067   3.358   7.311   4.882
41468W        W12068  32.514  11.661  11.995
41469W        W12069  35.992  11.565  11.227
41470W        W12070  37.376  17.970  14.414
41471W        W12071  27.428  41.591  12.179
41472W        W12072   0.769  27.646   3.730
41473W        W12073  39.047  32.455   4.981
41474W        W12074  21.790  43.995   2.108
41475W        W12075  31.556  21.668   1.314
41476W        W12076  12.866  30.485  12.114
41477W        W12077  44.916   3.233   4.163
41478W        W12078  26.708   7.192   3.252
41479W        W12079  13.359   7.918  12.702
41480W        W12080  41.597  34.720   3.297
41481W        W12081  14.371  11.963  10.585
41482W        W12082  28.019   2.765  14.860
41483W        W12083  24.387  13.287  13.429
41484W        W12084  34.054  26.900  11.814
41485W        W12085  25.446  29.560   1.636
41486W        W12086  21.567  28.062   4.076
41487W        W12087   4.664  40.151   3.714
41488W        W12088   1.800  33.436  11.727
41489W        W12089  17.157  22.378   3.418
41490W        W12090  17.360  26.393   0.040
41491W        W12091  15.170  21.007   3.381
41492W        W12092  15.054  43.321  13.011
41493W        W12093  18.309   4.031   3.578
41494W        W12094  18.504   6.581   2.183
41495W        W12095  34.665  24.533  12.873
41496W        W12096  33.195  11.518   3.577
41497W        W12097   4.935  18.250   4.136
41498W        W12098  40.814   5.873  13.933
41499W        W12099  28.025  31.072  10.737
41500W        W12100  42.545  31.804   4.122
41501W        W12101   7.209  20.341  11.613
41502W        W12102  40.880   6.360  13.774
41503W        W12103  12.573  34.409   0.374
41504W        W12104  11.260  25.144   2.867
41505W        W12105  37.643   1.862  12.587
41506W        W12106  39.120  10.793  11.379
41507W        W12107  41.378  30.327  13.474
41508W        W12108  11.927   7.469  12.517
41509W        W12109   9.953  29.867   1.373
41510W        W12110   4.229  14.255  14.758
41511W        W12111  16.823  12.075  12.460
41512W        W12112  28.149  20.153  12.478
41513W        W12113  24.683  28.667   3.598
41514W        W12114  36.844   6.758  10.510
41515W        W12115  11.562  30.299   0.732
41516W        W12116   9.681  44.763  13.489
41517W        W12117  17.211   7.582  12.967
41518W        W12118  19.498  26.452  13.623
41519W        W12119  35.176  17.609   0.208
41520W        W12120  11.842   7.180  11.584
41521W        W12121  29.266  43.715  10.484
41522W        W12122  20.403  35.851   3.587
41523W        W12123  40.381   4.495   0.358
41524W        W12124  14.300  15.890  14.836
41525W        W12125  22.926  18.201   0.283
41526W        W12126  40.452  10.896   1.110
41527W        W12127   1.285  37.867   1.356
41528W        W12128  17.280  22.423  11.858
41529W        W12129   1.807  43.483  13.023
41530W        W12130   2.324  38.321  10.655
41531W        W12131  32.412  11.132  11.956
41532W        W12132  20.655   3.967   3.031
41533W        W12133   0.464  15.247   4.231
41534W        W12134  27.201  26.176  11.621
41535W        W12135  30.786  22.042   1.720
41536W        W12136  36.826  24.500  12.581
41537W        W12137  22.785   8.299  11.102
41538W        W12138  10.151   5.695  10.151
41539W        W12139   4.024  18.242   3.078
41540W        W12140  26.560   2.367   4.126
41541W        W12141  19.735  44.510  14.914
41542W        W12142  33.154  27.537   1.769
41543W        W12143  16.839  31.135   3.353
41544W        W12144  31.957   8.292  14.431
41545W        W12145  33.029  20.724  13.435
41546W        W12146  44.923  14.834  13.810
41547W        W12147  27.432  12.706  11.597
41548W        W12148  27.108  10.569   0.525
41549W        W12149  25.525   0.522   0.354
41550W        W12150   1.254  25.067   3.568
41551W        W12151  30.553  21.996  12.117
41552W        W12152  36.448   2.995  14.973
41553W        W12153  28.188   9.415  12.376
41554W        W12154   6.894  43.451  10.546
41555W        W12155   1.876  38.398  12.725
41556W        W12156   8.747  27.985  12.128
41557W        W12157  27.491  40.231  12.658
41558W        W12158   4.898  34.755   9.662
41559W        W12159   3.904  21.260  10.246
41560W        W12160  41.223  14.330   1.468
41561W        W12161  11.274  24.719  13.785
41562W        W12162  14.194   5.442   1.636
41563W        W12163  37.064  25.643   0.759
41564W        W12164  29.748  22.769  12.064
41565W        W12165  34.034  20.765  11.625
41566W        W12166   1.115  42.543  13.033
41567W        W12167   4.950   8.782  11.800
41568W        W12168  32.119  19.911  10.346
41569W        W12169  34.600   0.123  13.345
41570W        W12170  44.392  16.902  10.308
41571W        W12171   8.336  21.521  13.854
41572W        W12172  37.352  27.954   4.079
41573W        W12173   7.369  22.276   0.805
41574W        W12174   6.199  21.539  14.585
41575W        W12175   3.275  10.461   0.808
41576W        W12176  35.775  28.636   2.657
41577W        W12177  13.583   9.808  14.695
41578W        W12178  17.765  10.376  13.373
41579W        W12179  25.855  21.156  11.127
41580W        W12180  22.000  15.294  14.286
41581W        W12181  36.921  21.749  12.407
41582W        W12182  13.670  33.892  14.273
41583W        W12183   8.673  33.411   2.170
41584W        W12184   4.346  12.105  14.783
41585W        W12185  15.844   8.214   4.915
41586W        W12186  36.592  25.750  12.127
41587W        W12187  21.635  30.621  11.694
41588W        W12188  40.373  13.625   3.706
41589W        W12189  19.639  30.477   3.612
41590W        W12190  23.264  18.417   1.171
41591W        W12191  36.319  19.192  14.368
41592W        W12192  31.577  20.311  14.397
41593W        W12193  43.052  10.275   4.112
41594W        W12194  34.848  22.709  14.213
41595W        W12195  26.171  22.791  13.533
41596W        W12196  35.630   2.533  13.975
41597W        W12197  16.377  44.939   0.553
41598W        W12198  35.969  29.591   1.724
41599W        W12199  29.945  32.307  10.841
41600W        W12200  24.529  21.105   1.780
41601W        W12201  11.633   8.075   0.801
41602W        W12202  12.828   5.955  13.306
41603W        W12203  11.393  29.493  12.473
41604W        W12204  42.603  35.424  14.443
41605W        W12205  39.989  32.162  14.790
41606W        W12206  15.707  21.713   1.405
41607W        W12207  20.711  25.542  14.430
41608W        W12208  23.029  12.332  11.654
41609W        W12209  22.775  16.309   3.753
41610W        W12210  18.476  10.483   0.534
41611W        W12211  38.453  37.562  11.419
41612W        W12212   8.472   0.677  12.399
41613W        W12213  30.543   2.245   1.223
41614W        W12214  18.136  30.681   3.735
41615W        W12215  15.175  27.984   1.875
41616W        W12216  15.117  35.623  10.741
41617W        W12217  30.337  39.388   2.697
41618W        W12218   5.881  19.310  13.409
41619W        W12219  23.825  14.109  11.702
41620W        W12220  10.324  10.322  10.909
41621W        W12221  35.879   6.639   0.362
41622W        W12222   0.674  24.097  12.998
41623W        W12223   7.930  20.298  11.947
41624W        W12224  38.026  34.453  12.013
41625W        W12225   5.367  42.452  11.064
41626W        W12226  16.109  23.167   4.437
41627W        W12227  39.434  16.614  12.838
41628W        W12228  38.186  21.274   1.939
41629W        W12229  34.399   3.317  12.440
41630W        W12230  16.598  15.696  14.481
41631W        W12231  17.191  19.292   1.885
41632W        W12232  27.558   1.515   4.666
41633W        W12233  43.874  23.675   2.760
41634W        W12234  35.642  16.139   4.341
41635W        W12235  16.087   4.491   2.714
41636W        W12236  27.472  42.940  12.559
41637W        W12237  32.431  21.036  12.191
41638W        W12238  41.358  12.738  11.390
41639W        W12239  24.645  19.215  13.056
41640W        W12240   1.460  38.923  10.818
41641W        W12241  41.204  14.876   4.520
41642W        W12242  42.781  24.561  10.777
41643W        W12243  14.052  22.097  11.593
41644W        W12244  33.879  11.073  13.644
41645W        W12245  10.503  33.838   4.966
41646W        W12246  29.036  23.319  14.816
41647W        W12247  42.877  18.440  13.498
41648W        W12248  13.217  40.735  12.100
41649W        W12249  44.464  26.964   1.746
41650W        W12250   5.371  41.833   1.939
41651W        W12251   0.405  34.616  14.355
41652W        W12252  35.129   1.913  10.208
41653W        W12253  30.154  34.565   2.429
41654W        W12254  19.263   6.968  13.038
41655W        W12255  29.662  22.225  13.849
41656W        W12256  27.461  26.552  14.921
41657W        W12257  34.618  39.353  12.584
41658W        W12258  14.741  27.779  12.974
41659W        W12259  25.072  10.685   2.985
41660W        W12260  11.705  15.329  14.987
41661W        W12261   1.224  23.150   3.205
41662W        W12262  31.136  34.789  11.179
41663W        W12263  21.731  39.055   3.200
41664W        W12264  34.703  11.778   5.344
41665W        W12265  36.216  43.975  11.589
41666W        W12266  13.126  39.068   1.249
41667W        W12267   4.761  44.497   0.997
41668W        W12268   6.218  21.066   5.016
41669W        W12269  40.929  33.940   1.646
41670W        W12270  12.973  41.340   2.336
41671W        W12271  28.010  33.876  14.882
41672W        W12272  26.555  14.537  11.193
41673W        W12273  17.402  18.536   5.264
41674W        W12274  27.212  26.400  13.410
41675W        W12275  28.054  28.721  10.597
41676W        W12276   6.583  17.146  14.965
41677W        W12277   3.704  44.433  13.947
41678W        W12278  40.742  10.084  14.202
41679W        W12279   2.783   1.789   3.745
41680W        W12280   6.220  13.225  13.216
41681W        W12281  27.976  36.065  13.580
41682W        W12282   6.756  28.912   2.327
41683W        W12283  33.566  43.201  13.251
41684W        W12284  30.418  34.039  12.037
41685W        W12285  38.209  23.059   4.179
41686W        W12286   6.342  12.764  13.037
41687W        W12287   4.776  43.382  13.989
41688W        W12288  20.152  21.754  12.485
41689W        W12289  34.313  43.846  13.712
41690W        W12290  41.263   7.299   3.547
41691W        W12291  29.034  19.662   0.863
41692W        W12292  29.136  30.105   2.217
41693W        W12293  27.213  28.059   3.152
41694W        W12294  15.393  29.135   1.032
41695W        W12295  22.144  19.605  11.093
41696W        W12296  38.120   0.866   4.049
41697W        W12297  44.413   5.162   0.437
41698W        W12298  21.789  19.767  11.451
41699W        W12299  38.720  22.301   1.439
41700W        W12300  21.574  17.603  14.128
41701W        W12301  25.713  33.961  10.780
41702W        W12302  11.415  43.802  12.597
41703W        W12303   5.314  34.605  12.558
41704W        W12304  41.331  36.327   3.278
41705W        W12305  32.464  32.319  11.990
41706W        W12306  26.156  17.175   4.077
41707W        W12307  13.354  37.639   0.018
41708W        W12308  21.059  42.847   1.795
41709W        W12309   8.206  19.278   2.810
41710W        W12310  17.597  44.448   1.296
41711W        W12311  12.165  34.019   3.792
41712W        W12312  29.535   5.861   2.564
41713W        W12313  40.405   4.920  12.693
41714W        W12314  10.499  37.912  14.856
41715W        W12315  13.899  38.432  12.384
41716W        W12316  21.083  29.191  13.385
41717W        W12317  41.039  29.454  13.927
41718W        W12318  13.655  18.794   4.506
41719W        W12319  34.645  18.147  12.000
41720W        W12320  36.518  41.794  11.177
41721W        W12321   4.207  12.682  11.820
41722W        W12322   2.708  35.916  14.634
41723W        W12323  33.652   2.989  12.020
41724W        W12324  21.760   1.885  13.017
41725W        W12325   3.495  16.055   2.700
41726W        W12326  43.474  39.359   1.984
41727W        W12327  30.591  43.890  13.130
41728W        W12328  15.655   2.433   1.728
41729W        W12329  36.588   7.235  10.676
41730W        W12330  13.719  13.242   2.676
41731W        W12331  29.523  20.344  14.965
41732W        W12332  28.861   4.422  10.955
41733W        W12333  14.677  33.978   1.317
41734W        W12334  23.502  31.586  12.482
41735W        W12335   9.098   9.378   1.463
41736W        W12336   3.860  15.664  11.600
41737W        W12337  11.188  19.034   4.606
41738W        W12338   9.832   5.544   1.481
41739W        W12339  41.827  28.739  12.547
41740W        W12340   6.163  40.091   3.758
41741W        W12341  14.550  23.024  11.651
41742W        W12342  24.610   9.578   3.267
41743W        W12343  44.219   7.307  13.473
41744W        W12344  16.345  22.153  12.052
41745W        W12345   1.907  26.689   0.602
41746W        W12346  14.250   7.806  12.988
41747W        W12347  32.878  36.328   3.900
41748W        W12348  11.674  27.197   1.364
41749W        W12349  41.931  29.552   4.168
41750W        W12350  21.254  31.567   1.744
41751W        W12351   6.338  42.093   0.896
41752W        W12352  14.963   7.737  12.023
41753W        W12353  18.149  14.795   3.274
41754W        W12354  44.492  22.994   3.035
41755W        W12355  27.887  29.621  14.828
41756W        W12356  30.581   5.915   2.184
41757W        W12357  19.829  35.649  12.493
41758W        W12358  18.644  28.006   3.038
41759W        W12359  32.100  34.565   4.809
41760W        W12360  26.144  40.438  13.125
41761W        W12361  25.590  25.976  11.085
41762W        W12362   4.474  23.518   3.192
41763W        W12363  19.744  42.935  10.423
41764W        W12364  32.835   3.284  10.657
41765W        W12365  12.109  24.075   1.008
41766W        W12366  19.131  18.826  14.285
41767W        W12367  11.611  19.507   1.986
41768W        W12368  39.549   7.679   3.983
41769W        W12369  28.988  15.252   0.897
41770W        W12370  19.223  10.958   3.371
41771W        W12371  17.781   7.321  11.922
41772W        W12372  35.394  40.741  12.288
41773W        W12373   3.729  17.799  13.643
41774W        W12374  42.722  39.903   3.316
41775W        W12375  36.862  38.129  14.276
41776W        W12376  34.074  36.169   0.492
41777W        W12377  18.630   4.395  11.869
41778W        W12378  43.632  44.369   3.638
41779W        W12379  35.213  40.961   0.290
41780W        W12380   6.441   2.073  11.140
41781W        W12381  27.654  17.225   1.951
41782W        W12382   2.866   2.236   1.704
41783W        W12383  32.024   5.617  12.970
41784W        W12384  30.970   7.869  11.655
41785W        W12385  26.385  34.735   4.904
41786W        W12386  40.278  12.111  14.492
41787W        W12387  17.980   6.633   0.799
41788W        W12388  36.989  16.633  14.773
41789W        W12389   4.847  10.417  14.796
41790W        W12390   7.931  32.441   1.630
41791W        W12391   4.921   2.675   0.914
41792W        W12392  43.311  44.942  11.958
41793W        W12393  43.893  43.003   1.243
41794W        W12394  27.237   8.338   2.400
41795W        W12395  11.226  25.120   3.494
41796W        W12396  26.118   4.980  10.826
41797W        W12397  32.602  42.510   3.325
41798W        W12398  18.227  20.603   0.746
41799W        W12399  31.975  22.115  13.448
41800W        W12400   3.911  17.548  14.743
41801W        W12401  36.291   5.308   2.200
41802W        W12402  36.923  34.512   0.976
41803W        W12403  29.597  37.959   0.338
41804W        W12404  40.643  37.030   3.679
41805W        W12405  29.154  43.036   2.241
41806W        W12406  35.513   7.774   4.152
41807W        W12407   3.220  18.693   2.620
41808W        W12408  25.908  18.335   2.817
41809W        W12409   0.701  26.512  12.519
41810W        W12410  44.513  38.245   0.994
41811W        W12411   8.170  18.066   1.405
41812W        W12412  34.294  10.355  10.591
41813W        W12413  27.180  42.917   2.243
41814W        W12414  13.718  35.693   0.824
41815W        W12415  18.265  36.563   1.218
41816W        W12416  18.729  24.524   3.300
41817W        W12417  34.997  33.442  14.834
41818W        W12418  14.296  22.570  11.630
41819W        W12419  12.166  16.794   3.269
41820W        W12420  26.805  35.125  13.869
41821W        W12421  28.596  20.114  10.457
41822W        W12422   5.814  40.461  13.936
41823W        W12423  44.881  40.756  12.655
41824W        W12424   7.106  38.465   0.288
41825W        W12425  33.376  33.359   1.892
41826W        W12426  32.246  22.965  10.605
41827W        W12427  13.037   8.903   0.811
41828W        W12428  41.320  30.430   2.932
41829W        W12429   7.490  10.421  12.598
41830W        W12430  15.079  22.029  14.369
41831W        W12431  42.377  24.096  12.127
41832W        W12432  38.523   7.398   4.188
41833W        W12433   0.363  26.694  10.531
41834W        W12434   4.090  41.950   0.285
41835W        W12435   3.871  30.440   2.466
41836W        W12436   2.001  28.446   2.348
41837W        W12437  23.189  29.602  13.105
41838W        W12438   1.010  33.906  12.333
41839W        W12439  12.418  30.087  11.033
41840W        W12440  11.449   7.020  11.165
41841W        W12441  44.500  29.140   4.094
41842W        W12442  38.463  24.388  13.891
41843W        W12443  44.939  15.273   1.808
41844W        W12444   7.153   3.935  12.522
41845W        W12445  20.156  37.820  12.941
41846W        W12446   4.889  28.264   4.057
41847W        W12447  33.604  15.141   3.101
41848W        W12448  24.440  18.266  14.322
41849W        W12449  29.807  44.449  13.584
41850W        W12450  38.916  20.577  10.900
41851W        W12451  14.979  23.282   3.174
41852W        W12452  28.585  30.050   0.390
41853W        W12453  28.498  22.105   0.204
41854W        W12454  40.832  29.484  13.454
41855W        W12455  26.514  12.241  10.688
41856W        W12456  19.755  37.898  13.324
41857W        W12457  17.482  28.970   1.600
41858W        W12458  29.132  19.523  14.833
41859W        W12459  29.592  32.660  13.086
41860W        W12460  22.931  24.587  14.509
41861W        W12461  30.379  42.978   5.063
41862W        W12462   2.630  27.360  11.901
41863W        W12463  42.024  42.462   3.479
41864W        W12464   8.140  24.737  12.896
41865W        W12465  32.977  18.425  11.062
41866W        W12466  42.959  37.078  13.594
41867W        W12467  30.716  34.263   1.339
41868W        W12468  44.219   9.347   2.864
41869W        W12469  22.572  39.480  10.992
41870W        W12470  29.983   5.353  10.859
41871W        W12471  18.325   3.253   2.866
41872W        W12472  33.682   2.355  11.740
41873W        W12473   7.795  40.446   0.276
41874W        W12474  32.953  41.000   1.784
41875W        W12475  20.160  24.525  13.371
41876W        W12476  36.529  34.580   1.991
41877W        W12477  40.561   6.282  14.223
41878W        W12478   5.845  11.266   4.050
41879W        W12479  22.973   6.289   3.901
41880W        W12480  26.611   6.173   5.030
41881W        W12481  42.782  41.899  11.533
41882W        W12482  37.130  33.874  10.579
41883W        W12483  30.057  41.459   3.239
41884W        W12484  21.633   5.895   0.950
41885W        W12485   8.310   2.982   2.190
41886W        W12486  37.418   3.465   2.244
41887W        W12487   0.759  41.343   4.064
41888W        W12488  31.354  21.929   3.810
41889W        W12489   4.772  30.673  12.862
41890W        W12490   3.407  15.691  10.594
41891W        W12491  25.609   6.421   0.924
41892W        W12492  28.142  33.407   2.863
41893W        W12493  44.916  25.222  12.645
41894W        W12494  26.238  33.319  14.052
41895W        W12495  41.804  13.615   0.899
41896W        W12496  41.624  30.918  12.058
41897W        W12497  24.229  31.413  11.221
41898W        W12498  20.261  13.861  11.647
41899W        W12499   5.551  37.817   1.664
41900W        W12500  42.365  44.037  10.951
41901W        W12501  13.882  10.204  10.458
41902W        W12502  24.889   9.735  11.065
41903W        W12503  38.838   3.711   1.498
41904W        W12504  15.207  21.291   3.842
41905W        W12505   5.323  39.445   1.400
41906W        W12506  44.355  21.214  13.603
41907W        W12507   2.870  36.633  13.095
41908W        W12508  23.810  28.076  13.474
41909W        W12509  24.946  22.564  13.860
41910W        W12510  31.333  26.914   2.352
41911W        W12511   7.457  40.954  14.276
41912W        W12512  23.682  39.919  13.928
41913W        W12513   6.276  20.351  11.693
41914W        W12514  23.869  35.498   1.671
41915W        W12515  12.377  10.348  13.165
41916W        W12516   9.631   0.478  14.385
41917W        W12517   0.911  14.352  11.011
41918W        W12518  28.733  13.624   1.234
41919W        W12519  24.007   8.249   4.051
41920W        W12520  25.164  17.209  10.394
41921W        W12521  21.206  11.883   3.124
41922W        W12522  23.660  36.008  14.671
41923W        W12523  16.121   5.269  13.568
41924W        W12524   5.618  34.343  12.903
41925W        W12525   1.391  37.529  10.979
41926W        W12526   8.414  31.540   4.075
41927W        W12527   8.339   2.141   4.461
41928W        W12528   7.412   1.023   1.441
41929W        W12529   9.196  32.416   2.866
41930W        W12530  42.967   6.722  12.856
41931W        W12531  37.608   5.782   4.695
41932W        W12532  10.087  10.584  14.465
41933W        W12533  11.614  36.013  14.867
41934W        W12534  20.730  10.952   2.851
41935W        W12535   7.116  19.484   2.170
41936W        W12536   4.445  34.123   0.355
41937W        W12537   7.650  26.043   0.924
41938W        W12538   4.679  17.508   4.354
41939W        W12539  43.984   8.070   2.294
41940W        W12540  42.751  43.438  13.048
41941W        W12541  40.284  23.621  13.434
41942W        W12542   2.238  39.814  10.804
41943W        W12543  33.350   4.689   1.859
41944W        W12544   8.071   8.891   2.185
41945W        W12545   7.317  17.568  13.090
41946W        W12546   4.043  26.694   1.717
41947W        W12547  19.500  27.940  13.807
41948W        W12548  18.807   8.717   4.230
41949W        W12549   6.266   8.976  14.517
41950W        W12550  13.646  41.727   1.744
41951W        W12551   5.077  12.074  12.578
41952W        W12552   6.681  31.988   1.707
41953W        W12553   9.771  23.012   0.846
41954W        W12554  10.852  24.988  14.402
41955W        W12555  19.726   6.784  13.941
41956W        W12556   1.952   0.354  14.298
41957W        W12557   8.005  44.282  11.552
41958W        W12558  28.359  14.630  12.558
41959W        W12559  27.015  36.977   3.229
41960W        W12560   9.924  19.754   0.503
41961W        W12561  14.648  24.060  13.911
41962W        W12562  36.781  41.925   2.754
41963W        W12563  30.674  42.401   1.818
41964W        W12564  44.966  39.286  10.980
41965W        W12565  24.942  25.452   0.874
41966W        W12566  39.473  16.824   0.787
41967W        W12567  28.252  18.087  14.699
41968W        W12568  13.933  37.929  11.995
41969W        W12569  40.575  20.268  14.611
41970W        W12570  23.477  11.058  11.141
41971W        W12571  42.916  28.057   2.922
41972W        W12572  36.412  10.587  13.453
41973W        W12573  14.355  26.244   0.451
41974W        W12574  32.698  39.995  12.002
41975W        W12575  10.152  36.882   4.156
41976W        W12576   7.341  13.169   3.701
41977W        W12577   6.478  34.328   3.128
41978W        W12578  32.911  19.089  11.619
41979W        W12579  23.645  31.881  14.899
41980W        W12580  44.840  11.849   2.713
41981W        W12581  28.662  31.395   1.774
41982W        W12582  16.139   5.273  10.563
41983W        W12583  18.682  13.936  13.549
41984W        W12584  12.203   3.263  10.381
41985W        W12585  38.121  26.953   1.461
41986W        W12586  19.612  36.538  14.844
41987W        W12587  37.852  37.813   2.381
41988W        W12588  13.901  44.263   2.408
41989W        W12589  33.522   4.794  11.515
41990W        W12590   6.204   0.634   4.215
41991W        W12591  35.570  28.620  13.920
41992W        W12592  33.007  34.986  12.971
41993W        W12593  39.879   2.145  14.380
41994W        W12594  12.788  16.393   0.872
41995W        W12595   5.000  19.321   1.471
41996W        W12596  13.237   5.761   1.486
41997W        W12597  18.923  22.661   3.621
41998W        W12598   3.328  41.543   4.385
41999W        W12599   3.495  15.268  13.377
42000W        W12600  32.450   7.830  10.714
42001W        W12601  16.798  31.549   2.812
42002W        W12602  10.802  44.064   1.806
42003W        W12603  34.919   1.465  10.644
42004W        W12604  10.637  11.726  14.513
42005W        W12605  44.755  26.956  11.569
42006W        W12606   1.824  19.496  11.690
42007W        W12607  20.742  20.646   1.737
42008W        W12608  43.948  11.737  11.698
42009W        W12609  31.465  35.028  12.005
42010W        W12610  44.705  40.002   3.537
42011W        W12611  16.703  43.383   2.843
42012W        W12612  15.028  30.071  14.844
42013W        W12613  13.220   7.683  13.151
42014W        W12614  11.231  31.173   0.083
42015W        W12615  43.320  33.449  12.670
42016W        W12616  18.347   6.322   3.697
42017W        W12617   9.453  31.605   2.254
42018W        W12618  43.718  23.112   2.598
42019W        W12619  38.655  31.185  13.614
42020W        W12620   7.517  17.973   0.325
42021W        W12621  16.157  38.591  11.609
42022W        W12622  42.049  16.110   0.713
42023W        W12623  23.726  11.123  12.888
42024W        W12624  19.290  42.694  10.492
42025W        W12625   0.911   5.427  14.352
42026W        W12626  34.435   9.616   1.417
42027W        W12627  42.897   8.921   1.401
42028W        W12628  27.490  39.328  11.994
42029W        W12629   4.376  16.706  10.413
42030W        W12630  27.726  33.264  11.430
42031W        W12631  14.096  26.540   4.003
42032W        W12632  32.836   4.378  14.995
42033W        W12633  20.800  12.365  12.187
42034W        W12634  23.672  42.328  10.753
42035W        W12635  18.863  11.412   3.404
42036W        W12636  34.139  11.922  12.666
42037W        W12637  30.666  18.327   4.429
42038W        W12638   7.274  26.930  12.078
42039W        W12639  43.433  22.304  13.293
42040W        W12640  24.229  24.172   4.112
42041W        W12641  21.582  15.273   4.216
42042W        W12642  39.635  29.533  14.906
42043W        W12643   5.534  28.120   4.759
42044W        W12644  44.509  18.941   2.540
42045W        W12645  23.725  23.595   2.180
42046W        W12646   5.815  20.710   2.880
42047W        W12647  27.439  29.227   3.953
42048W        W12648  34.807  12.314  12.140
42049W        W12649  36.594  42.438  12.506
42050W        W12650  29.930  12.885  13.249
42051W        W12651  15.407   0.487   4.139
42052W        W12652  29.635  11.641  12.997
42053W        W12653  22.882  36.675   3.189
42054W        W12654   2.206  18.635   3.441
42055W        W12655  41.022  43.626   4.067
42056W        W12656  34.472  26.077  13.848
42057W        W12657  31.006  10.367  11.492
42058W        W12658  35.891  16.682   2.733
42059W        W12659  33.055   1.898   3.667
42060W        W12660  22.233  34.107  11.681
42061W        W12661  25.552  20.524   3.261
42062W        W12662  34.668   9.921   2.870
42063W        W12663   5.852  13.450  13.475
42064W        W12664  29.653   9.928  12.956
42065W        W12665  27.150  42.094   4.960
42066W        W12666   8.839  33.050  14.586
42067W        W12667  29.026  32.048   2.397
42068W        W12668  36.055  39.036   4.288
42069W        W12669   6.851  26.087  12.899
42070W        W12670   3.967  36.444  14.676
42071W        W12671  40.504  31.393   3.323
42072W        W12672  21.932  34.247   3.736
42073W        W12673  10.851  11.447   2.347
42074W        W12674  23.819  18.207  12.859
42075W        W12675   2.753  43.074  11.123
42076W        W12676  40.073   5.409  14.976
42077W        W12677   9.111  11.802  11.956
42078W        W12678  31.622   7.370   1.352
42079W        W12679  27.178  34.443   4.986
42080W        W12680  35.461  32.494   2.853
42081W        W12681  27.899   6.360  13.765
42082W        W12682  18.144  38.596   2.793
42083W        W12683  36.281  35.517   1.844
42084W        W12684  40.290  11.246   3.353
42085W        W12685  26.141  30.519   2.325
42086W        W12686  22.244  12.637  14.817
42087W        W12687  39.463  20.318  14.193
42088W        W12688  10.281  27.267  13.063
42089W        W12689  30.055  26.192   3.197
42090W        W12690   5.889   8.906  14.854
42091W        W12691  35.962  37.083  11.487
42092W        W12692  14.428   7.049   4.982
42093W        W12693  15.309  39.425  12.079
42094W        W12694  43.743  17.875  13.561
42095W        W12695  23.394   1.471   9.801
42096W        W12696  23.486   1.207  12.367
42097W        W12697  22.040  18.515   3.941
42098W        W12698  40.448  35.426  14.185
42099W        W12699  12.782  31.460  12.615
42100W        W12700  38.458   9.177   3.939
42101W        W12701  43.857   6.967   3.554
42102W        W12702  31.534   7.621  12.421
42103W        W12703   3.907  18.881   0.465
42104W        W12704  43.983  38.952   2.353
42105W        W12705  28.075  25.726   0.003
42106W        W12706  17.532   2.580   3.807
42107W        W12707  25.233  26.092   4.581
42108W        W12708  21.483   2.679   4.765
42109W        W12709  13.373  34.043  11.432
42110W        W12710  37.513  22.537  10.590
42111W        W12711  39.167  10.129   3.687
42112W        W12712  22.370  39.010  12.700
42113W        W12713  26.999   1.431  11.096
42114W        W12714  37.867  34.901  12.348
42115W        W12715   9.675  12.731  14.580
42116W        W12716  15.389  23.762  10.680
42117W        W12717  44.197  34.046   3.503
42118W        W12718  34.927  33.784  10.291
42119W        W12719  22.443   4.199  13.349
42120W        W12720   8.470   2.369  12.116
42121W        W12721  35.106  38.858   0.307
42122W        W12722  36.475  17.513  13.168
42123W        W12723  20.709  41.727  13.410
42124W        W12724  12.275  26.538  14.501
42125W        W12725   6.299  34.279   9.753
42126W        W12726   0.456  25.478   4.554
42127W        W12727  36.703   8.287   1.215
42128W        W12728  16.845  40.568   4.253
42129W        W12729  30.379  36.387   0.931
42130W        W12730  22.070  41.317   2.401
42131W        W12731  18.126  33.326  11.199
42132W        W12732  19.236  14.141  12.380
42133W        W12733   4.008  28.014   2.402
42134W        W12734  30.463  33.146  13.031
42135W        W12735  34.882  41.404   2.597
42136W        W12736  16.421  39.598   3.713
42137W        W12737  22.916  41.289  13.938
42138W        W12738   7.625  29.604  13.500
42139W        W12739  24.015  14.288   4.126
42140W        W12740   8.744  18.061  10.411
42141W        W12741   0.678   3.404  10.764
42142W        W12742   2.487  22.962   1.923
42143W        W12743  34.886   2.214  13.639
42144W        W12744  10.760  14.749   3.939
42145W        W12745  39.232  29.108  10.718
42146W        W12746   6.450  23.111  13.926
42147W        W12747  41.028  26.216  13.330
42148W        W12748   0.039  40.650  14.460
42149W        W12749   9.112  26.783  12.155
42150W        W12750  13.210  13.479  10.605
42151W        W12751   4.386  18.343  14.972
42152W        W12752   5.029  13.183  14.415
42153W        W12753  42.255  15.678   0.025
42154W        W12754  12.712  30.407   1.077
42155W        W12755  10.633  23.198   2.809
42156W        W12756  15.871   2.389  10.775
42157W        W12757  42.052   6.477  12.096
42158W        W12758   7.634  12.726   1.610
42159W        W12759  27.598  40.964   3.339
42160W        W12760  10.688   4.658  14.250
42161W        W12761  11.622  25.257  11.264
42162W        W12762  33.890  32.434   3.635
42163W        W12763  43.109  20.751   3.737
42164W        W12764   2.907  33.735   1.892
42165W        W12765  36.975  34.521   3.958
42166W        W12766  31.561  25.307  11.720
42167W        W12767  28.640  41.120   3.145
42168W        W12768  44.707  15.112   2.311
42169W        W12769  24.207   5.107   4.949
42170W        W12770  11.594  30.398   3.589
42171W        W12771  31.606  13.302   3.292
42172W        W12772  42.343  44.031   0.312
42173W        W12773  25.584   4.247  11.668
42174W        W12774  41.684  15.233  11.080
42175W        W12775  36.064  11.269   4.813
42176W        W12776  32.064  37.269  12.335
42177W        W12777  12.862  41.382   1.419
42178W        W12778  13.267   9.362  11.139
42179W        W12779  22.221   8.898  10.755
42180W        W12780   7.244  38.884  11.687
42181W        W12781  17.193   2.461   3.439
42182W        W12782   9.565  31.550   2.778
42183W        W12783   6.968   5.381   1.346
42184W        W12784  20.544  24.389   0.053
42185W        W12785   0.779  39.006   4.526
42186W        W12786  41.721  40.926   1.849
42187W        W12787  17.134  18.164   4.641
42188W        W12788  37.143  27.487  12.247
42189W        W12789  29.107   3.823   4.670
42190W        W12790  12.115  26.134   1.814
42191W        W12791  35.197  26.847   2.436
42192W        W12792  11.751   9.803   2.249
42193W        W12793  38.383  21.713  10.728
42194W        W12794  27.427   7.113  13.614
42195W        W12795  44.555  14.395   0.746
42196W        W12796  42.835  37.622  11.494
42197W        W12797  40.396  16.506  12.279
42198W        W12798  38.816  10.370   1.247
42199W        W12799   0.310  14.806   0.957
42200W        W12800  11.522  40.388   2.220
42201W        W12801  40.772  22.023   3.250
42202W        W12802  42.070  31.495  13.523
42203W        W12803  38.844   1.041   2.230
42204W        W12804  38.799  25.109  12.145
42205W        W12805  40.971  20.845  13.402
42206W        W12806  10.827   3.915  12.399
42207W        W12807  16.979  25.731  12.823
42208W        W12808  29.253  40.897   2.271
42209W        W12809  42.282  37.055   4.656
42210W        W12810   5.177  13.833  14.063
42211W        W12811   1.843  34.855   0.252
42212W        W12812  25.956   5.314  13.853
42213W        W12813   7.958  20.129   3.292
42214W        W12814  37.402  27.059  14.521
42215W        W12815  31.461   4.748  10.626
42216W        W12816  10.266   2.024  13.984
42217W        W12817  19.657   6.387  11.890
42218W        W12818   1.287  36.816   4.719
42219W        W12819  11.658  22.176   3.708
42220W        W12820   1.954   9.423   2.257
42221W        W12821  34.340  25.199   1.291
42222W        W12822   7.757  43.762  11.592
42223W        W12823  30.215  22.732  12.245
42224W        W12824  41.582  38.225  11.485
42225W        W12825   1.476  43.082   1.969
42226W        W12826  14.434  23.451   3.307
42227W        W12827  37.145  43.806   0.501
42228W        W12828  23.224  16.408  14.971
42229W        W12829  33.748  36.345  14.787
42230W        W12830  17.559  39.657   2.898
42231W        W12831  26.690  23.921   2.419
42232W        W12832   3.041  19.790  10.614
42233W        W12833  15.493  44.301   2.862
42234W        W12834  40.939   4.302  13.239
42235W        W12835  31.637  15.817   1.739
42236W        W12836  42.212  12.827   0.796
42237W        W12837  12.757  13.780   3.537
42238W        W12838  25.914  37.078  10.606
42239W        W12839   6.939  42.945  11.608
42240W        W12840  10.295  42.954   0.253
42241W        W12841  39.966  42.504   2.455
42242W        W12842   4.332   1.506  11.228
42243W        W12843   0.221  30.588  13.578
42244W        W12844  31.039   6.303   4.642
42245W        W12845  32.388  24.618   0.907
42246W        W12846  16.043   3.789   4.635
42247W        W12847  16.051  14.362  14.505
42248W        W12848  20.458   2.055  12.532
42249W        W12849   7.807  17.565   4.270
42250W        W12850  30.541  33.152  14.966
42251W        W12851  28.910   3.255  12.791
42252W        W12852  32.275  18.659   3.604
42253W        W12853  44.298  11.317  12.343
42254W        W12854  16.882  37.534  14.180
42255W        W12855   3.293  37.489   0.759
42256W        W12856  28.412  21.651  11.129
42257W        W12857  44.694  37.289   0.972
42258W        W12858  16.818  31.732  14.379
42259W        W12859   4.691   2.534   2.337
42260W        W12860  25.996  12.540  14.660
42261W        W12861   4.465  12.003   4.125
42262W        W12862  29.701   8.794   2.343
42263W        W12863  36.545   0.431  14.232
42264W        W12864  36.377   7.641  10.944
42265W        W12865   5.662  27.905  13.412
42266W        W12866  18.535  34.824  14.796
42267W        W12867  32.773   9.933  13.544
42268W        W12868  16.603  18.903   3.681
42269W        W12869  12.179  21.826  12.467
42270W        W12870  22.623  37.916  14.882
42271W        W12871   5.863  10.116  14.353
42272W        W12872  10.697  11.133  13.896
42273W        W12873  32.670  18.677  12.179
42274W        W12874  29.369   9.426   2.356
42275W        W12875  14.177  40.751   0.338
42276W        W12876   5.748  19.719  11.800
42277W        W12877  28.390  29.398  12.092
42278W        W12878  31.743  24.609   3.308
42279W        W12879  37.536  39.838  10.691
42280W        W12880   1.011  24.208   2.855
42281W        W12881  29.165   5.009  10.136
42282W        W12882  31.317  32.516   0.264
42283W        W12883  37.135  39.734  11.026
42284W        W12884  36.072   1.779  14.234
42285W        W12885  17.471  12.901   1.817
42286W        W12886  15.636  42.726  12.945
42287W        W12887  23.933  12.796   2.106
42288W        W12888  27.215  20.052   3.805
42289W        W12889  34.237   7.386  11.232
42290W        W12890  13.250  31.461  12.884
42291W        W12891  12.358  31.678  13.485
42292W        W12892  31.309  31.552   2.666
42293W        W12893   9.905  19.278   3.403
42294W        W12894  37.638  26.093   0.208
42295W        W12895  30.894  37.583  10.789
42296W        W12896  36.805  25.991   3.093
42297W        W12897   4.184  13.649  13.066
42298W        W12898   9.359  40.958   1.657
42299W        W12899  35.391  30.952  13.789
42300W        W12900  23.102  36.579  10.725
42301W        W12901  26.219  14.812  12.457
42302W        W12902  25.176   2.872  10.811
42303W        W12903   4.912  36.675  13.242
42304W        W12904  43.150  26.296   4.243
42305W        W12905  10.202  20.952   2.846
42306W        W12906   5.297  27.970   3.768
42307W        W12907  22.565  31.627   3.821
42308W        W12908  23.737  15.163  11.120
42309W        W12909   1.816  39.716  10.523
42310W        W12910   8.755   8.957  11.576
42311W        W12911   7.906   5.851   2.266
42312W        W12912   5.834  38.969   0.009
42313W        W12913  39.629  10.988  14.958
42314W        W12914  20.495  33.159  14.267
42315W        W12915   7.905  24.555  13.455
42316W        W12916  11.314  18.147  10.720
42317W        W12917  40.505   2.863   2.768
42318W        W12918  40.087  35.915   1.650
42319W        W12919  10.006  42.241   4.032
42320W        W12920  22.668  15.873   0.464
42321W        W12921  12.391  35.977   4.959
42322W        W12922   9.887  33.098   0.938
42323W        W12923  32.727  40.381   4.124
42324W        W12924  22.100  13.558   0.849
42325W        W12925   5.758  28.518   2.251
42326W        W12926  29.739  36.466   4.460
42327W        W12927  38.370   0.941   3.599
42328W        W12928   7.866  39.624   1.892
42329W        W12929  33.391  41.099  14.807
42330W        W12930  35.994  34.572   1.245
42331W        W12931  21.028   2.308   0.965
42332W        W12932  15.642  20.734  13.070
42333W        W12933  37.080   9.049  11.960
42334W        W12934  25.561  41.373  11.583
42335W        W12935   0.340  18.302  10.688
42336W        W12936  44.787   4.518   3.152
42337W        W12937  38.590   2.223  14.110
42338W        W12938  12.590   0.235  11.125
42339W        W12939  34.097   7.283   1.439
42340W        W12940  34.568  32.332   2.363
42341W        W12941  43.551  10.287  14.133
42342W        W12942  38.799  20.773  14.474
42343W        W12943  34.876  34.897  12.833
42344W        W12944  36.335   8.636   3.422
42345W        W12945  29.632  18.866   2.709
42346W        W12946  33.110  24.070  14.959
42347W        W12947  43.123  17.645   4.131
42348W        W12948  40.272  41.033   3.647
42349W        W12949  13.709   2.822   4.615
42350W        W12950   9.745  35.631   4.144
42351W        W12951  24.232  16.351   4.117
42352W        W12952   4.508  41.255   0.872
42353W        W12953  20.151   0.855   0.103
42354W        W12954  27.234   6.643  12.162
42355W        W12955  12.700  26.414   1.194
42356W        W12956  15.773  11.545  10.895
42357W        W12957  14.797  24.640   2.207
42358W        W12958  39.150  19.424  11.539
42359W        W12959   8.683   6.798  13.356
42360W        W12960  28.466  44.495  13.075
42361W        W12961  25.698  40.850  10.681
42362W        W12962  13.067  11.299   3.896
42363W        W12963  21.739  15.661  14.533
42364W        W12964  32.092  17.043   4.527
42365W        W12965  27.583  31.694   3.171
42366W        W12966  34.607   2.354   2.302
42367W        W12967  40.223  37.512   5.250
42368W        W12968  26.669   2.750  13.403
42369W        W12969   7.899  17.994  10.954
42370W        W12970  25.046   3.200  12.114
42371W        W12971  10.664   2.074   3.863
42372W        W12972   0.887   3.287  10.307
42373W        W12973  34.433  36.516  10.748
42374W        W12974  17.538  39.468   2.376
42375W        W12975  18.632  26.195   2.885
42376W        W12976  25.250  28.586   4.161
42377W        W12977  28.816   5.435   3.021
42378W        W12978  26.224  18.671   1.264
42379W        W12979  11.554  15.525   2.282
42380W        W12980  43.045  28.032   2.403
42381W        W12981  10.663   8.442  11.846
42382W        W12982  22.217  11.850  11.173
42383W        W12983  28.114  38.097  13.430
42384W        W12984  38.874   9.220   3.126
42385W        W12985  41.410   9.324   1.284
42386W        W12986  27.618  25.576   2.412
42387W        W12987  17.844  31.478  10.615
42388W        W12988   7.676  14.748   3.762
42389W        W12989  44.117  40.795  14.230
42390W        W12990  39.043  21.786  12.148
42391W        W12991   5.399  43.427  11.563
42392W        W12992  29.817  26.952  13.979
42393W        W12993   4.174  27.052  13.357
42394W        W12994   5.438  16.585   2.469
42395W        W12995  24.716   0.187   1.828
42396W        W12996  30.279   1.721   3.423
42397W        W12997  34.120  40.567  12.451
42398W        W12998  37.096   2.212   3.342
42399W        W12999  44.749  19.587   2.818
42400W        W13000  18.656  20.113   1.675
42401W        W13001   0.364   7.280  14.872
42402W        W13002  26.372  37.902  10.719
42403W        W13003  38.749  33.767  10.387
42404W        W13004   1.678  16.831   1.675
42405W        W13005  41.444  31.549   2.936
42406W        W13006   3.942  35.543   1.175
42407W        W13007  24.678  15.832  10.563
42408W        W13008  28.569  31.706  11.171
42409W        W13009   2.248  23.159   3.255
42410W        W13010  41.204  22.153   1.267
42411W        W13011  10.166  10.230  14.861
42412W        W13012  12.625  23.401  13.005
42413W        W13013  26.944  17.649   4.917
42414W        W13014  38.943  28.224   0.741
42415W        W13015  14.479  41.853  11.689
42416W        W13016  22.482  29.382  10.648
42417W        W13017   8.373  39.584  14.372
42418W        W13018  28.163  44.007   4.444
42419W        W13019  11.366  13.275   3.270
42420W        W13020  11.368  16.842   5.005
42421W        W13021  43.422   7.699   0.097
42422W        W13022  26.720  31.947  11.158
42423W        W13023   1.927  43.942   2.146
42424W        W13024  19.998  18.323  12.478
42425W        W13025   7.144  19.320  11.706
42426W        W13026  24.549   3.705   2.927
42427W        W13027   3.317  35.359  14.767
42428W        W13028  16.272  14.870  13.926
42429W        W13029  13.577  18.726   2.205
42430W        W13030  36.859  25.069   4.166
42431W        W13031  33.874   2.290  13.080
42432W        W13032  15.048   1.366   2.271
42433W        W13033  16.962  20.974   3.203
42434W        W13034  27.031  35.319  11.063
42435W        W13035  17.038   3.229   2.318
42436W        W13036  13.005  34.592   2.658
42437W        W13037  11.179  30.398   4.060
42438W        W13038  24.227  35.615  14.232
42439W        W13039  27.188  37.972   3.119
42440W        W13040  42.098   7.434   3.837
42441W        W13041  21.991   8.393  14.280
42442W        W13042   7.173  41.910  12.414
42443W        W13043  30.555  12.918   2.149
42444W        W13044  14.878  30.624   4.096
42445W        W13045  36.924  36.611   2.360
42446W        W13046  28.173  23.698   3.010
42447W        W13047  24.627  44.951   0.337
42448W        W13048  38.112   7.944   3.126
42449W        W13049  43.928  25.547  14.322
42450W        W13050  43.456   8.911  14.481
42451W        W13051  22.586   9.260  14.551
42452W        W13052   4.714   6.918   3.647
42453W        W13053  13.482   9.021   3.286
42454W        W13054  18.536  43.552   0.847
42455W        W13055   1.481  25.039   0.345
42456W        W13056   2.554   0.729  12.896
42457W        W13057   2.593  43.008  12.057
42458W        W13058  33.806  27.194   0.775
42459W        W13059  24.153   7.692   4.620
42460W        W13060   9.860   9.256  12.047
42461W        W13061  16.625  13.890  14.884
42462W        W13062  39.880  30.669  12.779
42463W        W13063  20.670   4.212  13.350
42464W        W13064  29.660   4.432   2.623
42465W        W13065  12.187   1.311   1.535
42466W        W13066  11.932  39.498  14.976
42467W        W13067  26.003  33.984  14.045
42468W        W13068  25.486  31.146   0.268
42469W        W13069  42.865  20.566   2.750
42470W        W13070   0.808   7.713   1.631
42471W        W13071  28.505  41.742  13.940
42472W        W13072   4.893   4.317   4.443
42473W        W13073  13.484  40.932   4.125
42474W        W13074  43.342  13.365  10.799
42475W        W13075  34.641  32.600  12.482
42476W        W13076   6.621   7.149  13.169
42477W        W13077  18.137   3.673   0.796
42478W        W13078  27.857  33.803  11.484
42479W        W13079  15.815   5.813   4.096
42480W        W13080  43.623  11.847   3.914
42481W        W13081   1.399  20.819  14.272
42482W        W13082  41.319  22.660   0.113
42483W        W13083  25.340   4.345   1.468
42484W        W13084  29.035  19.798  10.502
42485W        W13085  38.911  32.832  14.354
42486W        W13086  16.216  22.738   2.211
42487W        W13087   5.663  17.579   0.798
42488W        W13088   8.056  29.901   2.853
42489W        W13089  30.859  27.469   3.698
42490W        W13090  19.172  12.878   4.543
42491W        W13091  24.291  41.854  11.120
42492W        W13092  42.148  10.380   2.270
42493W        W13093  26.811   5.842   0.814
42494W        W13094  31.989  27.738   4.032
42495W        W13095   2.876  23.029   2.771
42496W        W13096  17.758   7.938  13.539
42497W        W13097  16.890  12.272   2.426
42498W        W13098  31.805   5.455   4.294
42499W        W13099  10.585  43.135   3.392
42500W        W13100  25.692  16.038   1.221
42501W        W13101  16.588  44.315  10.429
42502W        W13102  19.306  35.637  10.969
42503W        W13103  38.859  14.310  11.150
42504W        W13104   4.823  23.352   4.227
42505W        W13105   4.790  21.374   3.962
42506W        W13106  33.741  26.452   2.673
42507W        W13107  17.319  39.197   2.768
42508W        W13108  26.771   0.830   3.056
42509W        W13109  44.946  34.941   2.351
42510W        W13110  13.708  12.554   4.466
42511W        W13111   8.319  33.437  10.724
42512W        W13112  20.505   7.352   0.937
42513W        W13113   0.833  44.970  13.936
42514W        W13114  31.912  17.788  14.805
42515W        W13115  20.750  19.160   0.190
42516W        W13116  16.068  22.512   0.447
42517W        W13117  31.381  15.545  14.349
42518W        W13118  32.993  33.248   0.160
42519W        W13119  35.597  25.002  10.720
42520W        W13120   2.820   5.211   1.919
42521W        W13121  32.003  21.444   3.741
42522W        W13122  10.076  22.275   2.674
42523W        W13123  43.451  13.661   2.137
42524W        W13124   5.481   8.709   0.872
42525W        W13125  17.178  41.993  14.787
42526W        W13126  14.672   2.764   2.270
42527W        W13127  44.367  20.720  13.890
42528W        W13128  12.139   9.888  13.328
42529W        W13129  29.625  21.489  13.339
42530W        W13130  42.454  32.575   0.062
42531W        W13131  18.639  43.202  14.508
42532W        W13132   9.805  10.840  10.659
42533W        W13133  32.454  44.702   1.564
42534W        W13134  21.699  32.657   0.424
42535W        W13135   0.826  22.421   0.133
42536W        W13136  22.332  29.944   1.547
42537W        W13137  36.842  26.623  12.824
42538W        W13138  38.978  18.088  13.441
42539W        W13139  40.126   2.306   1.851
42540W        W13140  11.170  13.606   4.108
42541W        W13141   9.784  20.558  13.343
42542W        W13142  32.559   1.753  13.306
42543W        W13143  18.694  31.663   2.329
42544W        W13144  36.567  27.929  11.067
42545W        W13145  32.012  31.524   0.082
42546W        W13146  14.162  26.605   0.872
42547W        W13147  16.577  21.156   2.355
42548W        W13148   8.530  39.575  12.996
42549W        W13149  32.164  26.036   4.777
42550W        W13150  10.756  23.536  13.484
42551W        W13151  30.306  23.293  12.907
42552W        W13152  11.706  44.987  11.929
42553W        W13153  12.659  33.602   4.426
42554W        W13154  38.333  28.981  12.225
42555W        W13155  38.040  30.547   2.309
42556W        W13156  38.259  25.180   1.612
42557W        W13157  38.430  37.975  11.706
42558W        W13158  43.871  32.906  13.017
42559W        W13159  35.094  32.582  14.985
42560W        W13160  25.602  27.342   2.804
42561W        W13161   8.407  39.065  14.269
42562W        W13162  37.526  11.711   0.897
42563W        W13163  34.842  16.141  14.050
42564W        W13164  43.028  30.910  12.930
42565W        W13165   8.423   9.135  14.031
42566W        W13166  39.088  25.917  11.583
42567W        W13167  18.735  14.760  11.887
42568W        W13168  25.635  44.091   1.434
42569W        W13169  12.119  25.773   2.774
42570W        W13170  12.177  17.201   0.270
42571W        W13171  20.417  30.538   5.002
42572W        W13172  18.098  15.064  14.879
42573W        W13173   3.756  15.378   3.134
42574W        W13174  35.829  34.913  13.420
42575W        W13175  12.449  13.354  12.414
42576W        W13176  32.332   2.221   4.249
42577W        W13177  21.474  44.841  12.600
42578W        W13178  16.589  40.436  10.722
42579W        W13179   6.832  41.263   2.213
42580W        W13180   6.253  15.080   1.397
42581W        W13181  40.872   3.981  12.490
42582W        W13182  27.395  12.351  12.046
42583W        W13183  13.407  40.873  13.866
42584W        W13184  37.037  33.312  12.271
42585W        W13185   3.205  21.799  13.122
42586W        W13186  18.901  36.109   1.930
42587W        W13187   0.286  11.238   3.406
42588W        W13188  40.076   8.299  13.864
42589W        W13189  23.630  33.532   3.303
42590W        W13190  29.547   1.764  11.588
42591W        W13191  15.045   5.186   0.334
42592W        W13192  36.406  37.149   0.642
42593W        W13193   8.372  32.525  13.935
42594W        W13194  35.806  30.507   1.342
42595W        W13195   2.387  44.902  12.117
42596W        W13196  34.394  13.837  12.384
42597W        W13197  31.193  14.008  13.521
42598W        W13198  33.563  26.688  11.560
42599W        W13199  16.817  24.289   3.789
42600W        W13200   5.310   5.145  13.484
42601W        W13201  16.764  33.532   1.118
42602W        W13202   2.240  20.999   0.880
42603W        W13203  18.292  19.785   2.736
42604W        W13204  10.113  21.724   1.196
42605W        W13205  41.714  26.114   1.495
42606W        W13206  17.780   0.545  13.527
42607W        W13207  14.119  39.794   3.592
42608W        W13208  34.953   0.504   3.163
42609W        W13209  33.513  37.595   3.537
42610W        W13210  12.838  39.945   2.255
42611W        W13211  19.969  42.880  14.531
42612W        W13212  34.079  10.730   2.939
42613W        W13213  10.662  36.950  10.735
42614W        W13214  15.506  20.236  12.969
42615W        W13215  13.351  34.539   4.712
42616W        W13216  15.574  24.760   2.732
42617W        W13217   8.139  12.660  13.550
42618W        W13218  26.063   0.822  11.145
42619W        W13219  30.594  27.093  12.240
42620W        W13220  12.789  13.624   1.026
42621W        W13221  19.399  34.092   3.471
42622W        W13222  19.708  13.146   0.631
42623W        W13223  35.430  38.159   4.733
42624W        W13224  36.038  24.409  14.925
42625W        W13225  18.565  19.710   1.303
42626W        W13226   6.429  10.828   4.102
42627W        W13227  32.105  14.101  14.950
42628W        W13228  20.339  11.239   1.998
42629W        W13229  32.166   6.383  12.157
42630W        W13230   4.626  41.188   4.088
42631W        W13231  39.910  39.534  14.812
42632W        W13232  32.495   4.661  12.435
42633W        W13233  36.398  27.194  14.388
42634W        W13234  23.722  28.853   1.086
42635W        W13235  32.389  36.451   0.837
42636W        W13236  35.802   3.729   3.745
42637W        W13237   7.114  21.652  12.177
42638W        W13238  39.432  39.410   1.831
42639W        W13239  34.868  43.474  14.307
42640W        W13240  20.618  36.298   4.230
42641W        W13241  30.856  41.114  14.416
42642W        W13242   1.732  36.801   1.736
42643W        W13243  32.968  23.530   4.158
42644W        W13244  14.151  16.143   1.965
42645W        W13245  10.430  29.596   3.261
42646W        W13246  44.565  20.074   1.771
42647W        W13247  42.834  17.945  13.663
42648W        W13248  37.162  37.522  11.994
42649W        W13249  21.949  31.131   4.493
42650W        W13250   8.143  31.627  12.915
42651W        W13251  31.137  36.118  13.800
42652W        W13252  23.546   4.410   2.338
42653W        W13253  42.057  37.980  10.850
42654W        W13254   1.916  44.985  11.934
42655W        W13255  35.397  24.515  10.711
42656W        W13256  16.779  16.082   3.143
42657W        W13257  10.876   6.465  11.707
42658W        W13258  43.294  44.444  12.110
42659W        W13259  16.681  38.752  12.835
42660W        W13260  19.094  25.467   3.161
42661W        W13261   9.396  16.793   1.372
42662W        W13262  27.215  20.674   1.245
42663W        W13263   6.242  34.856  13.086
42664W        W13264  40.326   1.470  10.322
42665W        W13265  10.069  11.757   1.839
42666W        W13266   5.167   3.660   0.829
42667W        W13267  38.990  39.172  12.709
42668W        W13268   2.786  18.643   0.372
42669W        W13269  11.262  21.691   0.332
42670W        W13270  17.037   9.921   2.328
42671W        W13271  40.892   5.643  13.421
42672W        W13272  42.368  29.485  10.449
42673W        W13273  14.104  12.738  11.135
42674W        W13274   4.204  24.173   4.357
42675W        W13275  26.592   7.238  13.781
42676W        W13276  25.097  38.381  10.732
42677W        W13277  18.420  38.623  14.273
42678W        W13278  10.771  15.119   2.325
42679W        W13279  31.020  27.417   1.872
42680W        W13280  13.206  28.451   4.252
42681W        W13281  41.316   5.026  11.199
42682W        W13282  31.096  10.228   2.318
42683W        W13283  31.200  35.126  11.583
42684W        W13284  15.051  30.907  10.449
42685W        W13285  16.984  24.657  14.529
42686W        W13286   3.751  26.442  11.629
42687W        W13287  16.261  26.073   2.521
42688W        W13288  39.375  12.810   2.711
42689W        W13289  21.717  14.342   2.289
42690W        W13290   8.317  13.239  11.435
42691W        W13291  18.717  27.557   0.928
42692W        W13292  24.549  42.946  11.037
42693W        W13293  14.626  42.916  11.612
42694W        W13294  36.215   4.636   1.197
42695W        W13295  16.313  10.125   3.219
42696W        W13296  35.053  17.378   2.635
42697W        W13297  28.225  29.992  12.616
42698W        W13298  32.543  24.880   0.226
42699W        W13299  18.509  37.481  14.766
42700W        W13300   1.421  28.707   0.667
42701W        W13301  25.270  29.450   4.050
42702W        W13302  16.088  32.794  11.993
42703W        W13303  35.864  31.922   4.299
42704W        W13304  18.703  44.470   9.865
42705W        W13305  25.032  29.536  13.539
42706W        W13306  21.744  29.080  13.989
42707W        W13307  14.181  29.090  12.894
42708W        W13308  38.840   5.473   0.643
42709W        W13309  21.925  39.354  13.874
42710W        W13310   2.848  35.572   0.692
42711W        W13311  16.492  35.358   0.468
42712W        W13312  44.846   1.669  10.648
42713W        W13313  22.588  13.313   0.938
42714W        W13314   3.411  33.427   4.364
42715W        W13315   1.421  12.837   0.755
42716W        W13316  43.501   2.934   1.772
42717W        W13317  29.406  24.022  10.818
42718W        W13318  23.075  34.799  11.023
42719W        W13319  26.131   8.126  13.118
42720W        W13320   0.242   4.790   1.159
42721W        W13321  30.447  11.171   0.917
42722W        W13322  37.416  27.022   4.581
42723W        W13323   8.581  22.185   0.012
42724W        W13324  33.922   0.245   2.955
42725W        W13325  23.847   7.355   4.898
42726W        W13326  12.094  28.588  10.722
42727W        W13327  25.394  11.378   2.746
42728W        W13328  39.128  12.686  13.276
42729W        W13329  17.822  29.494  12.300
42730W        W13330  39.619  37.089  12.940
42731W        W13331  25.468  33.500  13.489
42732W        W13332  40.947  34.336  10.792
42733W        W13333  24.687  12.611  12.340
42734W        W13334  17.265  44.807   0.264
42735W        W13335  10.343  12.555  13.483
42736W        W13336   8.289  31.561   0.525
42737W        W13337  29.081  39.487   2.338
42738W        W13338  20.479  21.091   4.575
42739W        W13339   9.060   5.254   4.194
42740W        W13340   1.810   1.205   1.298
42741W        W13341  12.162  17.691   1.217
42742W        W13342  28.918  34.782  13.873
42743W        W13343  21.015  21.936   1.879
42744W        W13344   8.759  31.037  12.158
42745W        W13345  29.667   2.697   0.461
42746W        W13346  25.509  37.983  10.969
42747W        W13347  19.679  31.596  12.981
42748W        W13348  28.424  34.362  12.136
42749W        W13349  36.682  27.937   2.123
42750W        W13350  25.842  28.131  11.645
42751W        W13351  31.990   0.328  11.189
42752W        W13352  12.623  40.981   0.154
42753W        W13353   4.392  38.452   2.401
42754W        W13354  12.326  12.760   1.971
42755W        W13355  12.178  42.203   3.734
42756W        W13356  44.847  21.576  14.912
42757W        W13357  23.843  37.442   3.668
42758W        W13358   6.425  14.266   1.766
42759W        W13359  10.294   7.837   5.059
42760W        W13360   9.782   4.755  11.903
42761W        W13361  24.153   2.493   1.692
42762W        W13362   5.292  34.001  14.860
42763W        W13363  43.271  38.365  10.295
42764W        W13364  43.782  38.458  14.451
42765W        W13365  38.091  26.906   1.999
42766W        W13366  11.792  23.909   0.376
42767W        W13367  32.547  41.875  14.343
42768W        W13368   9.142  24.270   3.432
42769W        W13369  39.951  36.611  12.073
42770W        W13370   8.775  14.631   1.866
42771W        W13371  19.978  34.154   1.308
42772W        W13372   5.863  36.122   4.231
42773W        W13373  24.436   9.081  11.125
42774W        W13374  34.040   7.727   1.691
42775W        W13375  43.712  15.301   3.416
42776W        W13376   9.192  20.770  11.205
42777W        W13377  12.134  42.098   0.331
42778W        W13378   3.175  15.253   2.216
42779W        W13379  28.570  36.805  12.091
42780W        W13380  17.112  25.688   1.661
42781W        W13381  24.032  14.856   2.315
42782W        W13382  20.106   2.665  12.872
42783W        W13383  12.671  43.492   0.287
42784W        W13384  15.524  39.296  10.720
42785W        W13385  43.932  10.854  13.457
42786W        W13386  20.997  35.384   0.014
42787W        W13387   9.684  19.765   0.024
42788W        W13388  44.100   4.600  10.685
42789W        W13389  29.696  42.508   1.017
42790W        W13390  21.675  44.676  12.152
42791W        W13391  37.761  32.551   2.293
42792W        W13392   9.896  26.977   1.624
42793W        W13393  11.364  39.034   4.970
42794W        W13394  32.048  36.828   4.401
42795W        W13395   8.984  35.323   1.385
42796W        W13396  11.830  21.626  12.910
42797W        W13397  16.384  42.826  13.532
42798W        W13398  24.263  36.434  14.451
42799W        W13399  40.800   1.238  13.782
42800W        W13400   2.885  39.606   2.808
42801W        W13401  42.238  11.576   0.315
42802W        W13402  16.877  42.493  12.034
42803W        W13403  11.454  11.380  14.343
42804W        W13404  12.178   6.799  13.428
42805W        W13405  21.508   6.772   0.671
42806W        W13406   9.357  38.196  13.632
42807W        W13407   7.214  10.582  14.935
42808W        W13408   8.910  40.376  13.529
42809W        W13409  16.033  42.052  12.065
42810W        W13410   9.436  15.767   4.165
42811W        W13411   7.336  24.209   3.540
42812W        W13412   9.412  28.464  11.197
42813W        W13413  44.030  31.905  12.843
42814W        W13414  14.427   3.419  12.415
42815W        W13415  32.480  26.582  11.568
42816W        W13416  33.890  35.473  11.091
42817W        W13417  24.120   4.312  13.334
42818W        W13418   1.554  31.490   3.307
42819W        W13419   0.298  39.864  13.883
42820W        W13420   7.220  33.169   0.395
42821W        W13421  39.354   9.499  11.248
42822W        W13422  41.215   4.647   1.824
42823W        W13423  15.765  40.887  13.828
42824W        W13424  27.165   3.977  10.758
42825W        W13425   3.689  41.001   4.949
42826W        W13426  21.579  14.717   4.491
42827W        W13427  14.245  30.850   1.213
42828W        W13428   1.625  26.028   3.682
42829W        W13429  43.113  11.842   0.846
42830W        W13430  39.916  17.923   1.456
42831W        W13431  39.687  10.189  12.041
42832W        W13432  38.047  40.482  10.607
42833W        W13433  22.603   3.966   4.314
42834W        W13434  43.754  28.462  13.664
42835W        W13435   4.477  37.276  12.450
42836W        W13436  28.823  31.353  12.838
42837W        W13437   4.924  24.449  14.562
42838W        W13438   3.508   5.636   3.783
42839W        W13439  27.397   6.612   1.727
42840W        W13440  26.600   9.289  14.995
42841W        W13441  11.359  38.524   4.833
42842W        W13442  23.227  37.547   5.114
42843W        W13443  21.173  21.973   4.149
42844W        W13444  21.765  14.339   4.160
42845W        W13445  40.577  29.905   1.375
42846W        W13446  29.523   6.368   3.363
42847W        W13447  32.871   6.823   4.140
42848W        W13448  28.029  13.337   3.855
42849W        W13449  36.424  26.767  14.709
42850W        W13450  35.309  37.519   1.653
42851W        W13451   5.875  15.539   2.569
42852W        W13452  13.069  39.111  10.956
42853W        W13453   9.384  38.319  11.554
42854W        W13454  33.373   7.272   0.560
42855W        W13455  30.802  42.123  10.206
42856W        W13456  24.410   5.823   0.631
42857W        W13457  34.970  17.617  11.939
42858W        W13458   9.708  30.968   3.121
42859W        W13459  17.688  14.209   3.413
42860W        W13460  31.360  33.437  14.316
42861W        W13461  19.707  37.344  13.307
42862W        W13462  38.280   8.821   1.955
42863W        W13463  10.202  17.166  13.326
42864W        W13464  25.288  33.135  11.196
42865W        W13465  27.228   5.193  13.358
42866W        W13466  35.244   5.118   1.353
42867W        W13467  41.862  27.063  11.658
42868W        W13468   0.068  31.626   3.171
42869W        W13469  20.649  12.525   1.417
42870W        W13470   1.944  28.470  11.918
42871W        W13471  22.820  18.961  11.371
42872W        W13472  34.071   7.666   0.665
42873W        W13473   2.773   3.367   0.167
42874W        W13474  37.189   3.487  14.781
42875W        W13475   1.194   6.421   1.447
42876W        W13476  24.591  40.724   3.423
42877W        W13477   0.854  12.850   2.869
42878W        W13478  13.590  25.242  12.531
42879W        W13479  18.989  34.863  11.098
42880W        W13480   8.513  44.516   1.956
42881W        W13481   1.803   5.615  14.969
42882W        W13482  30.566  16.233   4.401
42883W        W13483  15.113   3.937  13.831
42884W        W13484  32.529  25.849   3.182
42885W        W13485  34.173  32.501   0.769
42886W        W13486  29.934  35.289  12.034
42887W        W13487  17.304   0.919   4.106
42888W        W13488  24.534  37.857  14.786
42889W        W13489  22.751  38.020   4.377
42890W        W13490   4.400  31.031   0.462
42891W        W13491  13.235   3.288   2.671
42892W        W13492  16.890  30.631  11.439
42893W        W13493   5.195  24.764  14.890
42894W        W13494  42.933  15.578  10.952
42895W        W13495  28.073   0.364  13.431
42896W        W13496  35.112  17.131   0.384
42897W        W13497   2.781  30.710   0.392
42898W        W13498  16.241  11.586  13.457
42899W        W13499  30.925  33.688  14.389
42900W        W13500  14.708  43.441   2.224
42901W        W13501   3.822  44.085   0.772
42902W        W13502   4.978  41.409  13.928
42903W        W13503  36.349   8.122  14.822
42904W        W13504   8.863  44.772  13.837
42905W        W13505  22.956  42.617  14.968
42906W        W13506   1.155  33.194  10.127
42907W        W13507  32.175  31.715  11.663
42908W        W13508  35.512  29.581   1.330
42909W        W13509  41.855  20.286  11.573
42910W        W13510   6.174  13.011   3.710
42911W        W13511  14.296  39.983   1.235
42912W        W13512  25.151  37.307   4.086
42913W        W13513  42.134  31.075  11.987
42914W        W13514   1.689  22.904  14.966
42915W        W13515  13.334   2.474   4.587
42916W        W13516  34.615  35.999  11.563
42917W        W13517  29.585  33.001   3.021
42918W        W13518  13.135  21.779  11.508
42919W        W13519  26.419  10.877  13.871
42920W        W13520  37.459   6.567   1.018
42921W        W13521  19.203  21.729   3.162
42922W        W13522   6.694  27.427   0.899
42923W        W13523   6.160  16.019   1.536
42924W        W13524   8.633  32.906   4.325
42925W        W13525   8.093  16.607   2.335
42926W        W13526   6.224  20.226  12.457
42927W        W13527  29.012  37.596   1.342
42928W        W13528  19.325  22.211   2.918
42929W        W13529  29.975  36.668   1.841
42930W        W13530  28.159   5.900   1.258
42931W        W13531  25.644  17.298  10.163
42932W        W13532  27.491  16.665  11.184
42933W        W13533  34.492  22.210  12.839
42934W        W13534  18.308  14.078   2.084
42935W        W13535  11.255   4.514   2.959
42936W        W13536  39.213  18.001   1.806
42937W        W13537  26.525  16.750  10.332
42938W        W13538  16.423   1.826   1.694
42939W        W13539   4.207  33.904  13.721
42940W        W13540  24.803  14.656  10.774
42941W        W13541  38.404  11.638  12.854
42942W        W13542  38.549   7.815   1.027
42943W        W13543  24.431   8.330   3.705
42944W        W13544  18.792  13.284   2.744
42945W        W13545  27.275  23.632  11.634
42946W        W13546   5.174   3.316   2.132
42947W        W13547  17.240  21.358  12.884
42948W        W13548  36.445  19.666   2.947
42949W        W13549  14.228  23.265  11.980
42950W        W13550  43.446  27.710   2.984
42951W        W13551  36.566  31.803   3.186
42952W        W13552  36.400  12.325   0.923
42953W        W13553  40.645   5.514  12.951
42954W        W13554   2.272   6.277   0.318
42955W        W13555   3.175   1.264  14.818
42956W        W13556  35.094   5.799   2.896
42957W        W13557  39.600   6.308   4.899
42958W        W13558  33.869  18.031   4.641
42959W        W13559  25.994  35.929  14.267
42960W        W13560  31.579  13.065  14.551
42961W        W13561  22.498  38.813   1.924
42962W        W13562   3.175  18.253   2.348
42963W        W13563   9.933  13.731  14.354
42964W        W13564  42.320  16.631  11.649
42965W        W13565   1.132  19.873   0.294
42966W        W13566  38.962  13.356   2.343
42967W        W13567  15.998  29.486  13.438
42968W        W13568  29.391  17.495   1.367
42969W        W13569  32.977  12.921   2.899
42970W        W13570  23.584   3.412   1.175
42971W        W13571  42.060  34.534  13.504
42972W        W13572  21.168  26.654  12.634
42973W        W13573   9.196  34.767  13.965
42974W        W13574   1.343  21.130   0.575
42975W        W13575  26.442   5.311   0.084
42976W        W13576  35.353  40.119  11.679
42977W        W13577   0.648  14.264  13.854
42978W        W13578   7.138   4.458   4.059
42979W        W13579  37.840  29.273   3.626
42980W        W13580  25.852  42.532   0.913
42981W        W13581   2.393  19.498   4.042
42982W        W13582  24.186  10.892   0.764
42983W        W13583  16.807   1.420   3.640
42984W        W13584  36.020  20.261   4.605
42985W        W13585  16.347  24.153  13.003
42986W        W13586  22.403  19.734   4.563
42987W        W13587  22.714  41.120   9.903
42988W        W13588  19.042  18.287  12.483
42989W        W13589  19.235  24.954  12.467
42990W        W13590  16.133  26.411   4.973
42991W        W13591  34.946   4.845   2.318
42992W        W13592  24.110   0.745  14.363
42993W        W13593  13.042  44.181  13.031
42994W        W13594   4.472  40.142   0.022
42995W        W13595  35.106   9.028   0.009
42996W        W13596   1.863   0.220   3.784
42997W        W13597  44.231  43.946   2.222
42998W        W13598  15.821   2.711  11.184
42999W        W13599  11.321  21.909  12.942
43000W        W13600  38.398  23.273   1.906
43001W        W13601   2.274  19.612   0.476
43002W        W13602  21.298   4.390   0.095
43003W        W13603  40.640  30.938   0.711
43004W        W13604   1.571  43.727   1.191
43005W        W13605  30.492  23.602   3.279
43006W        W13606  20.762  14.824   2.875
43007W        W13607  10.598  20.004   3.665
43008W        W13608  41.094  10.035  13.168
43009W        W13609  23.479  41.002  13.472
43010W        W13610  24.891  13.831  10.564
43011W        W13611  31.434  39.060   0.404
43012W        W13612  18.761   3.916   3.273
43013W        W13613  24.739  15.174   3.590
43014W        W13614  16.822  17.224  13.983
43015W        W13615   0.965  25.918   3.194
43016W        W13616   5.368  35.417   2.721
43017W        W13617  37.447  37.656   1.698
43018W        W13618  27.079  24.724   2.769
43019W        W13619   9.191  13.768   3.618
43020W        W13620   2.364  15.325   4.963
43021W        W13621  39.180  13.083  11.196
43022W        W13622   4.984   2.920  12.731
43023W        W13623   0.590  21.310   3.235
43024W        W13624   0.248  37.985  10.780
43025W        W13625  29.550  32.855  11.888
43026W        W13626  42.971  19.926   3.993
43027W        W13627  18.323  17.360   2.216
43028W        W13628  39.502  40.831   2.644
43029W        W13629  21.194  29.087  10.281
43030W        W13630  25.283  38.124  11.988
43031W        W13631  21.685   3.270  14.715
43032W        W13632  27.554  12.574   4.298
43033W        W13633  34.966  24.266   2.372
43034W        W13634  22.640  32.807  11.521
43035W        W13635  28.008  21.714  10.327
43036W        W13636  16.115   3.707   1.602
43037W        W13637   9.896   0.343   1.667
43038W        W13638  29.384  30.484  11.235
43039W        W13639  30.057  39.543  11.924
43040W        W13640   2.656  32.122  11.549
43041W        W13641  34.062  19.388   0.635
43042W        W13642  39.311  33.281  12.048
43043W        W13643  20.655  31.878   5.100
43044W        W13644  20.488  40.474   0.502
43045W        W13645   1.398  42.417   4.409
43046W        W13646  41.569  12.618  13.489
43047W        W13647  14.851  18.309   3.175
43048W        W13648  21.033  14.257  12.559
43049W        W13649  36.026   6.288   4.114
43050W        W13650  12.583  17.692   0.853
43051W        W13651  41.219  24.783  11.635
43052W        W13652  28.148  29.087   0.685
43053W        W13653  15.334  11.712  12.364
43054W        W13654  28.701  27.908   4.070
43055W        W13655  24.095  32.680  12.830
43056W        W13656  31.341  31.322  13.467
43057W        W13657  34.062  13.422  13.683
43058W        W13658   1.308  29.363   1.803
43059W        W13659  13.241  11.867  14.044
43060W        W13660  11.374  41.471  13.733
43061W        W13661  42.063  42.819   1.810
43062W        W13662  32.609  24.046  14.792
43063W        W13663   1.816   9.435   4.684
43064W        W13664  27.740  19.314  12.451
43065W        W13665  37.609  37.628   0.011
43066W        W13666  15.646  14.125  13.801
43067W        W13667  24.918  44.642  14.553
43068W        W13668  40.322   8.960  12.346
43069W        W13669  36.914  20.014   0.837
43070W        W13670   5.359  26.149  12.567
43071W        W13671  37.504  17.678   1.735
43072W        W13672  31.505   1.239   0.629
43073W        W13673  13.745  43.969   3.595
43074W        W13674  35.398  34.294  11.674
43075W        W13675  22.923  11.192   3.749
43076W        W13676  18.905  20.676  11.529
43077W        W13677  12.855  38.993  13.007
43078W        W13678  32.055  40.924  13.924
43079W        W13679  37.111  42.481  14.852
43080W        W13680  30.358  13.400  11.891
43081W        W13681  19.161  25.018  14.059
43082W        W13682  27.529  30.105  11.433
43083W        W13683  19.031  14.965  11.105
43084W        W13684  16.568  40.641  13.798
43085W        W13685   9.203  36.338  13.897
43086W        W13686   6.649  18.889  13.481
43087W        W13687  27.595  25.619   4.321
43088W        W13688  15.891  21.255  13.803
43089W        W13689   4.997   6.279   2.111
43090W        W13690  15.103  38.437  13.949
43091W        W13691   4.781  30.008  11.544
43092W        W13692   7.839  40.356   5.069
43093W        W13693  30.077  44.736  12.473
43094W        W13694   4.148  10.316  12.479
43095W        W13695  23.636   6.955   9.800
43096W        W13696   0.953  12.275  12.137
43097W        W13697  31.445  36.149  12.847
43098W        W13698  26.170  44.876  11.301
43099W        W13699  30.880  31.948   4.045
43100W        W13700  43.987  29.653  14.993
43101W        W13701  16.919  10.926   4.143
43102W        W13702  41.586   5.315   2.674
43103W        W13703  16.659  25.152   4.839
43104W        W13704  39.434  13.870  14.431
43105W        W13705  22.492  36.614   2.750
43106W        W13706   5.886  24.033   1.160
43107W        W13707  16.676  28.080  14.970
43108W        W13708  32.133  15.291   4.238
43109W        W13709  13.305  30.512   2.633
43110W        W13710  22.567  20.338  14.851
43111W        W13711  12.799  19.025   3.612
43112W        W13712  19.647  26.238   1.233
43113W        W13713   1.397  30.874  10.718
43114W        W13714  44.217   2.935   2.750
43115W        W13715  27.420  16.192   0.107
43116W        W13716   8.137  27.653   3.598
43117W        W13717  43.850   2.385  14.725
43118W        W13718  30.477  33.449   1.600
43119W        W13719  24.146  40.823   3.714
43120W        W13720  29.073   6.838   2.771
43121W        W13721  12.350  16.385   1.702
43122W        W13722  28.630   6.872   0.741
43123W        W13723   3.181   0.295  12.081
43124W        W13724   7.812  28.614  10.693
43125W        W13725   9.346  34.891  13.483
43126W        W13726   4.971  29.410   1.067
43127W        W13727  15.220  11.376  13.079
43128W        W13728  35.017   8.924  11.083
43129W        W13729  44.259  30.610  12.134
43130W        W13730  25.167  40.891   4.077
43131W        W13731  27.769  30.141  14.245
43132W        W13732  11.116  12.697  11.634
43133W        W13733   2.397   8.261  11.374
43134W        W13734  32.455  18.198   1.939
43135W        W13735   6.004   5.874   1.302
43136W        W13736   0.449  20.048  11.148
43137W        W13737  24.424  27.835  11.687
43138W        W13738  28.032  34.084   0.875
43139W        W13739   2.642  24.472   4.602
43140W        W13740  32.821  40.317  14.471
43141W        W13741  21.575  20.400   0.692
43142W        W13742   2.774  34.840  11.854
43143W        W13743  23.528  15.685   1.353
43144W        W13744  37.827   2.575   1.742
43145W        W13745  32.556   0.504   2.399
43146W        W13746  30.072  24.297  11.103
43147W        W13747   5.645  44.410   4.509
43148W        W13748  36.128  16.581   3.182
43149W        W13749  41.787  35.229   4.008
43150W        W13750  41.260   6.921   4.675
43151W        W13751   1.944   4.212   4.503
43152W        W13752  31.952   3.008  11.523
43153W        W13753   3.176  27.187   1.587
43154W        W13754  44.413   0.801  11.072
43155W        W13755  40.968  25.739  12.449
43156W        W13756  31.716  33.668  10.810
43157W        W13757  42.109  31.663   0.393
43158W        W13758  21.625  39.455  10.465
43159W        W13759  18.175  10.177  12.467
43160W        W13760  25.149  20.885  12.652
43161W        W13761  42.698  20.006  11.543
43162W        W13762   8.860  30.325  11.151
43163W        W13763  36.410  28.501  13.998
43164W        W13764  14.831  15.700   3.203
43165W        W13765  18.235  42.703   3.470
43166W        W13766  38.429  32.521  13.628
43167W        W13767  20.167   9.879  13.628
43168W        W13768   7.255  41.300   2.797
43169W        W13769  18.952   6.247   2.893
43170W        W13770  36.364   6.844   2.416
43171W        W13771  18.126  10.737  13.421
43172W        W13772   6.613  34.509   0.858
43173W        W13773  36.588  28.330   4.699
43174W        W13774  36.527  19.889  12.263
43175W        W13775  42.825   1.424  10.758
43176W        W13776  26.809  17.692   4.287
43177W        W13777  43.025  33.107  11.710
43178W        W13778   9.202   2.901   4.814
43179W        W13779  25.607  27.464   2.307
43180W        W13780  44.083  10.115  11.095
43181W        W13781  22.415   7.914  11.178
43182W        W13782  18.510   6.069  14.499
43183W        W13783  18.828  18.556   1.922
43184W        W13784  14.737  28.756   2.324
43185W        W13785   9.133  36.920  10.549
43186W        W13786   2.198  37.535  14.901
43187W        W13787   6.538  36.657  10.672
43188W        W13788  24.222  20.022  14.402
43189W        W13789  24.747  44.493   1.129
43190W        W13790   3.319  11.802   3.512
43191W        W13791  37.998  26.638   5.146
43192W        W13792   0.606   4.413   1.211
43193W        W13793   3.001  19.713   0.825
43194W        W13794  43.151  39.480  10.986
43195W        W13795  42.379  27.436   1.043
43196W        W13796  28.916  33.557  12.016
43197W        W13797   6.833  39.286   0.806
43198W        W13798  40.948   2.350   3.223
43199W        W13799  41.082  33.092   1.910
43200W        W13800  33.148  17.590   3.211
43201W        W13801  33.164  13.169  10.725
43202W        W13802   7.186   9.748  11.569
43203W        W13803  16.242  27.180  14.375
43204W        W13804  27.400  18.065  11.569
43205W        W13805  34.846   7.722  12.775
43206W        W13806  22.714  23.086   3.178
43207W        W13807  27.924  29.229  13.874
43208W        W13808  38.839   4.477  13.027
43209W        W13809   5.660  36.552   4.447
43210W        W13810  13.058  35.100   2.216
43211W        W13811  39.544  21.414   0.463
43212W        W13812   9.175  39.058   3.646
43213W        W13813  26.726  21.124  10.777
43214W        W13814   8.728  25.201   3.318
43215W        W13815  31.380   3.285   3.999
43216W        W13816   0.069  36.282  10.955
43217W        W13817  35.932  15.512   3.264
43218W        W13818  16.672  41.495   4.813
43219W        W13819  25.093  29.200   1.866
43220W        W13820  39.441  10.617  12.128
43221W        W13821   4.261  18.065   0.382
43222W        W13822  19.460  25.721  12.577
43223W        W13823  37.575  13.997  14.902
43224W        W13824   6.691  39.602  11.569
43225W        W13825  32.180  44.434  11.128
43226W        W13826  17.767  25.955  13.097
43227W        W13827  17.512  32.042   4.424
43228W        W13828  41.715   0.829   1.233
43229W        W13829   7.442  33.567   4.347
43230W        W13830  38.448  13.627  10.742
43231W        W13831  19.112  16.062   4.289
43232W        W13832  14.816  22.633  14.778
43233W        W13833  24.765  40.381   0.909
43234W        W13834  23.958  23.739  10.541
43235W        W13835  17.537  17.127  12.941
43236W        W13836  33.071  13.029  12.689
43237W        W13837  40.479   0.907   4.585
43238W        W13838   1.477  11.711  11.953
43239W        W13839  13.703  10.173   0.657
43240W        W13840  42.395   5.196  13.410
43241W        W13841  34.517   8.602   2.363
43242W        W13842  23.824   8.804   5.016
43243W        W13843  40.272   6.261   2.160
43244W        W13844  35.880  22.242  11.721
43245W        W13845  42.053  36.446   1.615
43246W        W13846   2.273  32.391  13.075
43247W        W13847   1.342  35.936   1.713
43248W        W13848  39.865  34.125   4.594
43249W        W13849   7.377  26.476   2.054
43250W        W13850   4.242   8.779  14.077
43251W        W13851  21.922  14.560  12.915
43252W        W13852  28.161  41.942   4.206
43253W        W13853  42.641   3.586   4.162
43254W        W13854  34.924  21.204  14.444
43255W        W13855  20.220   4.496  11.865
43256W        W13856   8.491  37.985  12.182
43257W        W13857  32.100  28.135  11.522
43258W        W13858  22.764  26.173  11.132
43259W        W13859   4.362  34.280  12.352
43260W        W13860  36.106  22.743  11.648
43261W        W13861  26.050  25.988  12.994
43262W        W13862  38.528  19.623  12.159
43263W        W13863   8.377   4.986  11.625
43264W        W13864  15.266  33.352   1.239
43265W        W13865  40.429  40.834   4.112
43266W        W13866  22.108  30.165   3.553
43267W        W13867  24.412  19.620   1.892
43268W        W13868   7.380  29.458   3.206
43269W        W13869  32.499   5.798  10.460
43270W        W13870  42.399  26.702   0.376
43271W        W13871  44.305  43.593  11.083
43272W        W13872  30.189  37.564   3.795
43273W        W13873  40.834  33.819  11.051
43274W        W13874  37.812   5.470  10.856
43275W        W13875   7.620  30.672   2.769
43276W        W13876  37.158  22.099   3.543
43277W        W13877  23.539  18.905   3.319
43278W        W13878   2.844  25.736  10.833
43279W        W13879  41.460  12.849   3.739
43280W        W13880  18.677   8.795  14.880
43281W        W13881   4.702  15.009   3.206
43282W        W13882  27.210  41.988   1.843
43283W        W13883  28.802  38.494   1.706
43284W        W13884  12.108  38.938  11.288
43285W        W13885  14.992  32.829  14.768
43286W        W13886  22.142  31.473   4.121
43287W        W13887  27.585  24.209  11.091
43288W        W13888  29.752  24.989   3.158
43289W        W13889  24.428   3.558  14.276
43290W        W13890   0.373  23.159   1.726
43291W        W13891  22.027  16.591   4.651
43292W        W13892   1.967  19.049   3.197
43293W        W13893  19.104  23.040   0.307
43294W        W13894   5.393   1.837  12.544
43295W        W13895  28.134  32.462  10.942
43296W        W13896  20.253  34.764  10.605
43297W        W13897  42.092  17.093   0.733
43298W        W13898  35.826  23.651   4.037
43299W        W13899  36.263  43.142   9.837
43300W        W13900   9.844  43.303   2.637
43301W        W13901  40.579  38.893  14.029
43302W        W13902   6.899  11.777   4.508
43303W        W13903   8.800  29.536   4.587
43304W        W13904  23.583  22.903   3.773
43305W        W13905  13.017  39.972   2.742
43306W        W13906  31.897  29.432  11.965
43307W        W13907  30.473  39.273  11.996
43308W        W13908  24.188  19.555  11.091
43309W        W13909  22.195   4.679  13.363
43310W        W13910  33.837   1.217   1.247
43311W        W13911  28.798   2.646   4.989
43312W        W13912  29.833  24.996  13.085
43313W        W13913   4.121  11.538  14.449
43314W        W13914  33.809  23.198   5.054
43315W        W13915  20.845  32.864   3.068
43316W        W13916   6.688  42.790   3.228
43317W        W13917  27.115  22.306  13.545
43318W        W13918  18.702  28.714   4.818
43319W        W13919  13.630  14.922  12.034
43320W        W13920  10.717   2.536  11.598
43321W        W13921  40.357  29.117   1.742
43322W        W13922  37.585  42.334  10.962
43323W        W13923  11.552  44.764  13.584
43324W        W13924  26.772  19.566  14.169
43325W        W13925  22.248  25.186  14.410
43326W        W13926  25.259   5.689   1.863
43327W        W13927   9.641  40.824  14.412
43328W        W13928  28.492  40.490  13.562
43329W        W13929  22.902  29.770  10.659
43330W        W13930   8.089  43.408   2.258
43331W        W13931  31.439  18.231   2.826
43332W        W13932   9.684  38.065  11.883
43333W        W13933  42.828   3.125  12.911
43334W        W13934  22.690  34.556  14.451
43335W        W13935  21.040   8.569   2.523
43336W        W13936  22.662  44.456   0.064
43337W        W13937  35.266  21.480   0.418
43338W        W13938   7.963  35.993   4.228
43339W        W13939   6.258   2.049  13.332
43340W        W13940  35.606  20.700   4.139
43341W        W13941  44.262  12.852  10.639
43342W        W13942  30.528  30.696  14.844
43343W        W13943  24.227  38.220   1.319
43344W        W13944   6.849  10.592  11.952
43345W        W13945  19.825   8.212  14.812
43346W        W13946  31.159  44.236  11.150
43347W        W13947  10.374  28.153   4.040
43348W        W13948  32.107  20.880  12.916
43349W        W13949  21.978   4.516  11.136
43350W        W13950  40.453  27.628  12.426
43351W        W13951   5.350  38.894  10.707
43352W        W13952   4.439  14.123   1.826
43353W        W13953  37.841  21.165   1.563
43354W        W13954  25.220  36.991  13.910
43355W        W13955  28.556  36.988  11.628
43356W        W13956   8.702  35.046   2.832
43357W        W13957  15.224  41.040  11.187
43358W        W13958   3.589   1.825  11.933
43359W        W13959  31.939  32.141   0.780
43360W        W13960  39.276  39.418  13.762
43361W        W13961  24.594  23.552  13.024
43362W        W13962   6.936  42.972   1.782
43363W        W13963   9.341  22.901   2.827
43364W        W13964   8.348  28.629  13.785
43365W        W13965  27.944  32.052  10.568
43366W        W13966  10.412  21.248  14.501
43367W        W13967  27.693   3.236   2.698
43368W        W13968  33.523   3.723   3.395
43369W        W13969  35.552   8.233   3.922
43370W        W13970  36.851   1.068  11.648
43371W        W13971  23.726  42.706   2.012
43372W        W13972   9.694  31.562   4.675
43373W        W13973   2.788  11.778   2.210
43374W        W13974  40.277   2.247  13.454
43375W        W13975  26.411   5.275   1.976
43376W        W13976  14.833   7.211   2.411
43377W        W13977  25.111  33.280  10.718
43378W        W13978  36.619   7.376   2.162
43379W        W13979  29.045   8.046  12.053
43380W        W13980  19.143  16.608  13.658
43381W        W13981   1.982   5.378   1.148
43382W        W13982  30.935  12.363   1.432
43383W        W13983  42.323  30.494  14.058
43384W        W13984  41.654  12.327  11.272
43385W        W13985  21.748  42.406   4.833
43386W        W13986  33.035  24.612   0.291
43387W        W13987  31.168   9.242   3.212
43388W        W13988   3.120  10.340   2.713
43389W        W13989  30.022  34.226  14.566
43390W        W13990  32.573   7.801  13.723
43391W        W13991  23.074  39.831  13.892
43392W        W13992  40.621  28.040   3.199
43393W        W13993   9.133   3.541   0.764
43394W        W13994  44.683   5.198  13.294
43395W        W13995  18.174  20.303   3.450
43396W        W13996  18.735  37.411  11.661
43397W        W13997   3.287  15.506  11.995
43398W        W13998  38.341  37.172  13.493
43399W        W13999  28.161  15.882   2.877
43400W        W14000  11.021   5.198  12.430
43401W        W14001  44.986  27.075   1.754
43402W        W14002  32.756  24.530   4.208
43403W        W14003  36.749  12.933   3.991
43404W        W14004  25.550  31.402   3.125
43405W        W14005  41.762   7.408   5.244
43406W        W14006  25.593  35.456   0.123
43407W        W14007   1.889   9.431   2.828
43408W        W14008  19.064   9.134  11.198
43409W        W14009  37.886   7.916   2.264
43410W        W14010   9.874  41.777   4.213
43411W        W14011  31.448  28.176   3.685
43412W        W14012  17.180  25.652  10.765
43413W        W14013  31.480  30.897  14.504
43414W        W14014  27.138   1.387   1.382
43415W        W14015  20.506  35.844  10.408
43416W        W14016  27.593  30.075  11.961
43417W        W14017   3.531  34.278   5.041
43418W        W14018  28.250  42.514  13.511
43419W        W14019  36.748  11.285   1.861
43420W        W14020   6.918  25.177  14.861
43421W        W14021  24.161  15.762   1.866
43422W        W14022  23.459  28.606   2.291
43423W        W14023  43.354  15.819  10.216
43424W        W14024  44.304  25.245   2.942
43425W        W14025  12.931   7.746   4.347
43426W        W14026  31.113  15.049  12.445
43427W        W14027   0.389  42.877  13.362
43428W        W14028  39.415  14.647   3.734
43429W        W14029  21.205   0.477   4.077
43430W        W14030   6.785   2.222  14.386
43431W        W14031  43.745   1.775   0.933
43432W        W14032  29.726   1.323  13.065
43433W        W14033  17.385  16.619   1.482
43434W        W14034  12.598   7.682  14.211
43435W        W14035  20.314  10.323  11.075
43436W        W14036   6.062   7.518   4.743
43437W        W14037   0.451  43.516   4.200
43438W        W14038   2.711  31.061   2.810
43439W        W14039  20.748  13.261   0.705
43440W        W14040  17.529  42.713  12.665
43441W        W14041   3.050  39.023   3.589
43442W        W14042  12.095  16.290   3.391
43443W        W14043  11.383  19.756   1.573
43444W        W14044  10.345   1.811   4.764
43445W        W14045  30.861  39.792   2.270
43446W        W14046  41.461   3.116   1.939
43447W        W14047  40.067  27.605   0.256
43448W        W14048   8.091  13.118   0.933
43449W        W14049  44.429  21.010   1.313
43450W        W14050  15.436  22.030  12.018
43451W        W14051  30.471  33.689   4.472
43452W        W14052  30.676   4.259  10.649
43453W        W14053  30.597  40.977  11.559
43454W        W14054  44.284  32.063  12.413
43455W        W14055  32.461  39.553  13.729
43456W        W14056  27.265  18.116  13.898
43457W        W14057  12.749  27.626   4.143
43458W        W14058  30.880   4.938   2.611
43459W        W14059  23.068  21.711   0.960
43460W        W14060  29.945  20.148  13.980
43461W        W14061  11.922  24.464   2.708
43462W        W14062  14.349  12.110   3.172
43463W        W14063   2.889  31.854   0.873
43464W        W14064  23.243  40.457   0.967
43465W        W14065  33.182  11.074  12.535
43466W        W14066  31.998   3.587  13.015
43467W        W14067  33.375   6.805   5.072
43468W        W14068  11.391  19.676   3.816
43469W        W14069  43.467  14.098  14.270
43470W        W14070  42.662  26.732   2.758
43471W        W14071  25.953  33.482  13.656
43472W        W14072  15.173  17.255  13.140
43473W        W14073  39.361   0.318   4.980
43474W        W14074  42.361  44.449   3.349
43475W        W14075  37.643  23.973   0.730
43476W        W14076   3.791  19.710  10.356
43477W        W14077  12.756  32.621  14.260
43478W        W14078  35.011  36.970  13.056
43479W        W14079  44.234  41.462  10.187
43480W        W14080  12.397  39.926  12.821
43481W        W14081  36.118   8.061  11.183
43482W        W14082   0.513   7.386  13.735
43483W        W14083  30.041  42.902  14.757
43484W        W14084  30.221   0.862   0.346
43485W        W14085   6.327   5.700   3.854
43486W        W14086  33.951  38.945   4.893
43487W        W14087   3.212  32.334  10.794
43488W        W14088   7.855  13.240   3.735
43489W        W14089  31.919  28.169  13.448
43490W        W14090  22.626  10.112   2.655
43491W        W14091   4.807   7.883   1.079
43492W        W14092  26.913  13.134  10.720
43493W        W14093  23.622   5.383   4.222
43494W        W14094   1.015  21.465   2.964
43495W        W14095  13.827  32.917   0.038
43496W        W14096  30.707  34.188  14.067
43497W        W14097  44.276  15.642  13.324
43498W        W14098  21.349  16.960   3.567
43499W        W14099  18.233  26.635   0.169
43500W        W14100  14.892  12.690  13.248
43501W        W14101  26.737  44.083   3.651
43502W        W14102  27.583  30.465  13.639
43503W        W14103  29.544  35.035   0.901
43504W        W14104  33.969  32.532  10.682
43505W        W14105   1.714  15.737  11.209
43506W        W14106  30.177  38.834  14.849
43507W        W14107  23.242  22.905  14.895
43508W        W14108  30.752  25.125  12.127
43509W        W14109  24.742  29.388  14.474
43510W        W14110  19.143  19.809  12.998
43511W        W14111  34.397  42.150   1.684
43512W        W14112  23.668  29.161   2.888
43513W        W14113   7.379  33.583   0.812
43514W        W14114   4.038  24.212  11.203
43515W        W14115  26.872  36.990  10.713
43516W        W14116   0.811  33.328   0.471
43517W        W14117  26.865  32.780   0.360
43518W        W14118   4.407  18.799   4.689
43519W        W14119   8.984  43.115  10.389
43520W        W14120  44.869  14.271   3.920
43521W        W14121  28.793   7.356  12.614
43522W        W14122  40.148  37.631  11.983
43523W        W14123   9.797  33.549   0.096
43524W        W14124  38.778   5.353   1.532
43525W        W14125  41.002  21.220   0.723
43526W        W14126  39.870  29.646  14.439
43527W        W14127  32.918  30.408   3.330
43528W        W14128   4.044  24.567   4.665
43529W        W14129  19.152  18.071  11.238
43530W        W14130  44.458  22.406   1.318
43531W        W14131  22.039  30.603  12.057
43532W        W14132  39.259  34.441   1.297
43533W        W14133  27.287   9.698   2.749
43534W        W14134  29.064  44.069  14.789
43535W        W14135  31.016  22.593   2.840
43536W        W14136  21.130   6.377   3.949
43537W        W14137   4.533  23.164  14.254
43538W        W14138  14.281  26.754  12.533
43539W        W14139  27.584  38.528  13.259
43540W        W14140   1.125  11.017   0.883
43541W        W14141  39.394  30.893   0.904
43542W        W14142  25.560   9.751  11.633
43543W        W14143  37.308   0.865   2.300
43544W        W14144  21.665  31.015   0.462
43545W        W14145  31.985  35.938  12.374
43546W        W14146   4.965  10.224  10.699
43547W        W14147  31.648  19.003  11.759
43548W        W14148  15.821  30.203   3.279
43549W        W14149  29.702  18.643  11.639
43550W        W14150   5.768  30.918   2.663
43551W        W14151  14.125  10.786   0.698
43552W        W14152  10.836  38.884   1.804
43553W        W14153  34.680  16.692   3.277
43554W        W14154  23.743  21.728  11.557
43555W        W14155  32.220  15.072   2.954
43556W        W14156  41.433  35.141  13.841
43557W        W14157  42.181  32.044   4.485
43558W        W14158   2.770  35.867   0.276
43559W        W14159  44.629  30.817   0.183
43560W        W14160   0.790  38.239  13.813
43561W        W14161   9.734  40.893  14.923
43562W        W14162   1.816  26.936   2.325
43563W        W14163  35.631  12.737  12.410
43564W        W14164  40.746   8.456  12.115
43565W        W14165   6.728  20.029   1.504
43566W        W14166  26.029   6.437  12.796
43567W        W14167  30.930  11.735  12.120
43568W        W14168   7.847  11.286  11.098
43569W        W14169  41.440   4.154  12.573
43570W        W14170  33.363   1.446  12.923
43571W        W14171  13.062  14.889   4.504
43572W        W14172  36.452  32.311   3.259
43573W        W14173   4.401   2.635   1.892
43574W        W14174  43.750   2.269  13.359
43575W        W14175  21.529  22.540   1.511
43576W        W14176  19.919  30.821   3.338
43577W        W14177  11.852  18.191   2.842
43578W        W14178  34.319  26.631   2.297
43579W        W14179  39.921  19.036  13.777
43580W        W14180  21.140  42.973   4.748
43581W        W14181   8.810   3.963  13.931
43582W        W14182  36.584   7.879  11.335
43583W        W14183  24.552  21.049   2.288
43584W        W14184  22.101  26.069   1.980
43585W        W14185  44.884  31.912  13.804
43586W        W14186  20.301  21.287   1.315
43587W        W14187  41.572  33.577  13.748
43588W        W14188   7.126   7.490  11.981
43589W        W14189  25.139   8.150  13.407
43590W        W14190   2.005   9.975  12.148
43591W        W14191   2.941  17.466  11.146
43592W        W14192  10.223  43.248   2.265
43593W        W14193  18.581  34.753   2.317
43594W        W14194  41.723  39.016  14.882
43595W        W14195  41.108  14.208  14.875
43596W        W14196  14.255   3.337  10.658
43597W        W14197  41.166  20.133  14.222
43598W        W14198   3.665  20.157   0.424
43599W        W14199   2.395   9.773   1.246
43600W        W14200   0.239   1.470   1.753
43601W        W14201   3.212  41.729   1.017
43602W        W14202  44.271  38.559   0.660
43603W        W14203  22.230  13.602   2.193
43604W        W14204  16.734  25.899   9.939
43605W        W14205  12.202  28.268  11.613
43606W        W14206  23.676   0.959   1.226
43607W        W14207   3.325  39.974   0.040
43608W        W14208  34.709   2.857   3.076
43609W        W14209  27.493   3.769  10.408
43610W        W14210  28.848  17.740   3.148
43611W        W14211   2.453  28.650  14.270
43612W        W14212  42.496  34.915  11.099
43613W        W14213  17.603  11.904  12.453
43614W        W14214  29.024  38.980   0.754
43615W        W14215  16.701   1.807  12.926
43616W        W14216  41.294  44.542  11.647
43617W        W14217  28.479  39.095  12.529
43618W        W14218  15.216  24.767  14.113
43619W        W14219  31.359  39.441   2.764
43620W        W14220  29.896  44.546  11.556
43621W        W14221  12.455   4.485  11.151
43622W        W14222  16.887   9.327   4.093
43623W        W14223  44.701  38.526   0.319
43624W        W14224  17.053  36.179   3.039
43625W        W14225  14.835   3.448  13.351
43626W        W14226  27.074  43.266   1.443
43627W        W14227   7.587   2.485  13.479
43628W        W14228  40.520  39.447  12.049
43629W        W14229  39.679   4.844  12.899
43630W        W14230  10.663  39.324   3.082
43631W        W14231   8.775  37.876  13.447
43632W        W14232  14.384  41.064  12.753
43633W        W14233  37.999  20.479  14.394
43634W        W14234  24.804   2.634  12.576
43635W        W14235  10.624  32.643  12.797
43636W        W14236  32.341   5.644   2.060
43637W        W14237  31.907  15.167   1.922
43638W        W14238   7.785  29.217  13.197
43639W        W14239  35.960   7.249   3.682
43640W        W14240  22.561  26.863   2.894
43641W        W14241   5.751  37.504   3.332
43642W        W14242  29.743   4.845  13.942
43643W        W14243   5.810   6.774  11.466
43644W        W14244  19.692  10.633   1.648
43645W        W14245  19.080  42.913  14.317
43646W        W14246  16.814  30.880   3.869
43647W        W14247  10.813   6.509  12.574
43648W        W14248  36.066  29.671  11.116
43649W        W14249   9.337  38.691   4.453
43650W        W14250  18.318  42.817  14.765
43651W        W14251   1.290  26.446  12.039
43652W        W14252  26.009  27.506   0.908
43653W        W14253  21.003   8.244   2.915
43654W        W14254  12.467  30.082   0.440
43655W        W14255  35.365  35.622   1.790
43656W        W14256  31.146  26.220   3.422
43657W        W14257  27.940  27.523   3.941
43658W        W14258  27.167   6.285   3.919
43659W        W14259  26.112  42.582  12.480
43660W        W14260  39.065  39.071  13.469
43661W        W14261  10.428   7.850  11.449
43662W        W14262  15.244  29.411   0.595
43663W        W14263   0.794  44.803   2.055
43664W        W14264  44.305  18.854  11.469
43665W        W14265   0.977  32.432   4.631
43666W        W14266   9.452  17.820   3.303
43667W        W14267  14.819   5.124   3.770
43668W        W14268  18.598   5.962   0.951
43669W        W14269  42.357  15.256   0.314
43670W        W14270  13.155  19.179   1.343
43671W        W14271  13.773  36.165  11.260
43672W        W14272  31.627  19.559   3.679
43673W        W14273  40.515  29.010   0.785
43674W        W14274   7.786  25.984  14.445
43675W        W14275  22.114  41.123  13.598
43676W        W14276   5.524  33.828   0.895
43677W        W14277  31.544  24.766  13.920
43678W        W14278  15.079   8.329  12.502
43679W        W14279  39.340  13.762  10.707
43680W        W14280  35.319  11.593  10.499
43681W        W14281  33.064  32.023  11.953
43682W        W14282  35.491   8.824  12.517
43683W        W14283   0.532   5.151   1.356
43684W        W14284   1.184  14.685   1.205
43685W        W14285  25.670  15.787  10.705
43686W        W14286  42.751  26.448   4.538
43687W        W14287  39.328  27.869  10.107
43688W        W14288  19.058  15.207   0.376
43689W        W14289  27.378   6.169   3.006
43690W        W14290  43.962  31.180   2.632
43691W        W14291  31.903  37.023  13.405
43692W        W14292  38.397   2.767  11.802
43693W        W14293   8.824  44.099  10.122
43694W        W14294  11.459  19.121  12.248
43695W        W14295  12.861  43.463   0.754
43696W        W14296  23.659  21.051   3.140
43697W        W14297   2.328  19.675   3.030
43698W        W14298  37.991   0.341  14.299
43699W        W14299   4.945   2.480   4.359
43700W        W14300  30.483  34.057   2.695
43701W        W14301  11.760  20.648  14.708
43702W        W14302   1.487  34.019   5.149
43703W        W14303  11.179  38.562  10.947
43704W        W14304  15.309  12.103  14.932
43705W        W14305  35.632  29.402   3.188
43706W        W14306  28.065  42.983   5.133
43707W        W14307  43.569  13.913  13.432
43708W        W14308  35.437  14.821  13.858
43709W        W14309  22.429  23.653  13.753
43710W        W14310  38.402  34.480   5.001
43711W        W14311  30.653  43.328  12.603
43712W        W14312   2.775   8.933  12.040
43713W        W14313  29.618   1.647  12.519
43714W        W14314   2.298  38.775   4.801
43715W        W14315  29.981  31.119   4.618
43716W        W14316  43.861   6.626   2.657
43717W        W14317  37.995  18.147   4.985
43718W        W14318  20.308  44.677   4.582
43719W        W14319  19.782  40.255  10.696
43720W        W14320   9.315  27.270  12.164
43721W        W14321  19.532  30.774  13.941
43722W        W14322   2.448  28.971   1.796
43723W        W14323  23.016   1.984  12.504
43724W        W14324  24.656   4.888  13.308
43725W        W14325  23.674  20.844   2.675
43726W        W14326   3.127   7.237   0.065
43727W        W14327  28.555  22.161   1.629
43728W        W14328   3.491  15.086   1.831
43729W        W14329  40.585   4.142  11.432
43730W        W14330  35.050   8.945   2.115
43731W        W14331   1.736  18.055  11.234
43732W        W14332   0.576  18.172  12.067
43733W        W14333  36.435   7.176  11.181
43734W        W14334  37.355   9.607  14.280
43735W        W14335  18.550  15.710  12.034
43736W        W14336  19.659  36.011   1.380
43737W        W14337  24.875  41.312  12.939
43738W        W14338  20.748  14.998  10.408
43739W        W14339  37.027  33.376  11.719
43740W        W14340  10.647  31.148   0.690
43741W        W14341  11.152  10.431  11.160
43742W        W14342   2.692  18.237   2.207
43743W        W14343  24.055  17.041  11.931
43744W        W14344  16.046   2.979  14.679
43745W        W14345  23.585  17.979  10.497
43746W        W14346   8.742  15.136   4.033
43747W        W14347  40.806  43.476   3.008
43748W        W14348   2.166  22.379   4.623
43749W        W14349  40.562  25.207  11.661
43750W        W14350  19.016  34.862  14.479
43751W        W14351  39.367  37.498   4.030
43752W        W14352  13.885  36.754   1.320
43753W        W14353  41.385  16.571   2.311
43754W        W14354  38.550  31.616  11.251
43755W        W14355   5.317  14.525  11.596
43756W        W14356   2.169   2.885   1.861
43757W        W14357  37.873   8.389  12.188
43758W        W14358  13.564  18.056  11.156
43759W        W14359  18.770   9.218   2.231
43760W        W14360  10.149   6.831  11.532
43761W        W14361   1.317  34.126  11.986
43762W        W14362   8.267  11.099   2.817
43763W        W14363   4.287  10.586   2.956
43764W        W14364  44.729   9.372   1.416
43765W        W14365  32.215  28.676   3.709
43766W        W14366  28.652  33.077  10.369
43767W        W14367  18.918  24.616   3.782
43768W        W14368  43.952  15.762  14.704
43769W        W14369  11.373  23.670  11.910
43770W        W14370  10.160  38.403  13.978
43771W        W14371  39.949  10.327  10.995
43772W        W14372  27.443  22.664   3.814
43773W        W14373   7.325  14.289  14.723
43774W        W14374   5.726  23.928  13.526
43775W        W14375   4.488   3.260  13.886
43776W        W14376  14.177   0.333  11.616
43777W        W14377   8.697  36.100   0.875
43778W        W14378  21.219  14.247  14.366
43779W        W14379  29.863  19.786   3.221
43780W        W14380  37.383  16.624  14.427
43781W        W14381  13.241   4.433  11.554
43782W        W14382  27.429  25.171  13.870
43783W        W14383  17.792  10.754   0.434
43784W        W14384   3.255  27.929  14.960
43785W        W14385   1.471  30.555   2.885
43786W        W14386  39.944   1.052  13.525
43787W        W14387  44.965  42.585   3.226
43788W        W14388  40.406  10.040   1.421
43789W        W14389  16.901  36.270   5.323
43790W        W14390  13.343  38.319   0.444
43791W        W14391  18.204  14.175  14.370
43792W        W14392  10.111  13.222   2.649
43793W        W14393  33.142   7.765   4.086
43794W        W14394  30.130   5.528  13.094
43795W        W14395  24.430  16.351   3.379
43796W        W14396  40.520  21.252   3.876
43797W        W14397   6.906   9.245   4.584
43798W        W14398  16.689  23.841  12.040
43799W        W14399   2.658  15.779  13.415
43800W        W14400  19.346  21.134  14.334
43801W        W14401  16.566  13.344  14.940
43802W        W14402  11.771  19.590   0.783
43803W        W14403   1.806   5.797   1.394
43804W        W14404  41.753  12.594   4.129
43805W        W14405   9.908  41.806  11.432
43806W        W14406  39.243  14.446  13.370
43807W        W14407   0.027  36.951   2.425
43808W        W14408  38.267   6.615  12.024
43809W        W14409  25.440  36.929   0.878
43810W        W14410  35.144   4.874  10.705
43811W        W14411  31.901   5.289   1.661
43812W        W14412  12.535  13.204  13.281
43813W        W14413  13.107  18.619  12.681
43814W        W14414   4.288  43.358  11.482
43815W        W14415  26.497   5.132   3.961
43816W        W14416  23.926  16.607   4.500
43817W        W14417  40.505   8.839  11.870
43818W        W14418  44.458   8.869   4.546
43819W        W14419  44.081   9.130  14.993
43820W        W14420  42.599  38.054  13.544
43821W        W14421  25.107   8.036   1.849
43822W        W14422  31.424   6.343  10.919
43823W        W14423  15.076  44.760   1.726
43824W        W14424  10.204  39.486  14.877
43825W        W14425   4.563  39.089   5.232
43826W        W14426  15.296  10.118   3.320
43827W        W14427   3.846  28.453   2.161
43828W        W14428  26.042  36.571  13.933
43829W        W14429  41.399  33.651   4.395
43830W        W14430  29.064   2.378  10.750
43831W        W14431  13.729  12.329   1.395
43832W        W14432   7.385  10.590   2.784
43833W        W14433   3.950  21.026   3.258
43834W        W14434  42.980  28.095   3.451
43835W        W14435  17.491  26.906   0.892
43836W        W14436  20.671   7.149  13.445
43837W        W14437   5.708  32.155   0.972
43838W        W14438  38.864  18.633   3.613
43839W        W14439  27.306   0.143   1.001
43840W        W14440  21.504  14.128   3.740
43841W        W14441  41.417   8.249   4.369
43842W        W14442   8.653  43.055  11.343
43843W        W14443  36.098  24.708   3.607
43844W        W14444   2.927  39.095   1.293
43845W        W14445  19.018  36.281  14.885
43846W        W14446  39.413  16.562   1.241
43847W        W14447  32.178  21.765  14.872
43848W        W14448  14.609  41.004   1.261
43849W        W14449   0.998  12.410   3.787
43850W        W14450  26.658  22.093   4.530
43851W        W14451  19.306   8.326   0.503
43852W        W14452  23.868  26.835   4.557
43853W        W14453  31.911  31.863   4.860
43854W        W14454  28.509   2.362  12.100
43855W        W14455  20.215   9.152  10.611
43856W        W14456  17.135  27.924  10.659
43857W        W14457  15.922  39.354   1.001
43858W        W14458  30.403  15.210   3.592
43859W        W14459  11.052  12.102   1.798
43860W        W14460  31.704  13.035   3.749
43861W        W14461  31.668  19.644   1.744
43862W        W14462  13.887  17.194  14.549
43863W        W14463  26.541  11.637   4.522
43864W        W14464  18.636  14.602   4.685
43865W        W14465  30.426  44.318   4.401
43866W        W14466  23.095  43.120  10.665
43867W        W14467  35.542  11.143   4.753
43868W        W14468  12.859   6.384   2.926
43869W        W14469  25.485  29.491   2.143
43870W        W14470  12.590  21.493   0.792
43871W        W14471  35.989   2.820  14.815
43872W        W14472  18.613  29.582  12.921
43873W        W14473   1.402   6.081   2.417
43874W        W14474  28.650   7.165  13.974
43875W        W14475  19.993  22.010   4.406
43876W        W14476  37.984   8.141  12.626
43877W        W14477   2.329  13.768  13.497
43878W        W14478   5.760  30.297   2.631
43879W        W14479  44.029  33.239  12.023
43880W        W14480  31.916  16.639  12.853
43881W        W14481   5.977  40.317   2.771
43882W        W14482  26.141  12.052   2.748
43883W        W14483   6.920  17.625   2.778
43884W        W14484   6.192  30.084   3.395
43885W        W14485  12.373   0.792   1.761
43886W        W14486  16.931  38.011  10.801
43887W        W14487   1.924  16.341   1.722
43888W        W14488   3.742  35.696   5.331
43889W        W14489  28.048  21.257  10.583
43890W        W14490   5.692  12.715   0.376
43891W        W14491  43.700  39.296   1.508
43892W        W14492  23.462   4.480  12.497
43893W        W14493  19.591  25.043   2.339
43894W        W14494  32.731   5.298   3.109
43895W        W14495  15.634  39.328  14.352
43896W        W14496  32.707  23.883  13.805
43897W        W14497  34.633   1.286  11.188
43898W        W14498   1.258   3.162   1.748
43899W        W14499  13.638   0.350   3.609
43900W        W14500  41.988  36.028   1.919
43901W        W14501  29.744  24.051  14.476
43902W        W14502  10.621   4.075  13.361
43903W        W14503  32.625  20.515  10.724
43904W        W14504  25.653  33.981   3.510
43905W        W14505  24.934  19.664  12.989
43906W        W14506   8.208  35.954   0.824
43907W        W14507  13.507  20.308   3.171
43908W        W14508  14.236  18.741   2.867
43909W        W14509  20.769  28.090   1.791
43910W        W14510  26.018  40.438  10.705
43911W        W14511  16.225  16.499  14.876
43912W        W14512  36.104  18.369   3.697
43913W        W14513  29.647  11.384  14.024
43914W        W14514  12.328  16.647   3.733
43915W        W14515  12.390  36.134   1.947
43916W        W14516  37.070  11.055  13.869
43917W        W14517  30.618   1.224  12.799
43918W        W14518  44.563   8.972   3.748
43919W        W14519   5.049  41.030   1.914
43920W        W14520   9.827  29.044  12.933
43921W        W14521   2.867  12.358  13.036
43922W        W14522   3.386  18.160   0.882
43923W        W14523  21.591  14.906   0.939
43924W        W14524  36.161  16.542  12.034
43925W        W14525  36.542   0.672   1.840
43926W        W14526  32.486  16.459   2.526
43927W        W14527  32.459  33.853   4.645
43928W        W14528   8.428  22.767   4.210
43929W        W14529  29.208  44.796   4.006
43930W        W14530  43.004  40.837   3.264
43931W        W14531  18.886   1.886  11.539
43932W        W14532  13.321  18.022  13.578
43933W        W14533  41.064  16.316   4.546
43934W        W14534  28.209  25.903   1.825
43935W        W14535  14.660  14.253  13.572
43936W        W14536  43.729  17.238   1.446
43937W        W14537  37.987  19.610   0.666
43938W        W14538  44.991  44.170   4.514
43939W        W14539  19.115  44.105  11.583
43940W        W14540  34.961   8.125   5.316
43941W        W14541  36.997  21.120   0.752
43942W        W14542  15.752  43.596   4.004
43943W        W14543  22.408  23.489  11.649
43944W        W14544  34.173  31.986  10.649
43945W        W14545  41.342  26.230   4.107
43946W        W14546  17.644  38.507   4.454
43947W        W14547  24.755  14.336   0.406
43948W        W14548  27.675   7.286   1.367
43949W        W14549  33.058   3.224   0.535
43950W        W14550  21.073  35.992  11.641
43951W        W14551  42.467  28.626  11.144
43952W        W14552   4.171  35.356   2.319
43953W        W14553  32.522  28.665   2.813
43954W        W14554  34.007   0.275   1.997
43955W        W14555   6.543  31.360  13.970
43956W        W14556  32.912  18.995   3.055
43957W        W14557   0.974  10.362   2.379
43958W        W14558   1.892   4.655   1.776
43959W        W14559   7.766  24.531   3.651
43960W        W14560  38.481  10.165   0.331
43961W        W14561  36.531  19.643  11.322
43962W        W14562  25.102  28.116   0.929
43963W        W14563  17.264  12.044   0.517
43964W        W14564  23.101  34.017  11.549
43965W        W14565  11.324  13.109  14.662
43966W        W14566  23.498  12.007  10.987
43967W        W14567  36.394  23.752  14.215
43968W        W14568  17.190   9.181  12.355
43969W        W14569  37.681  15.112   3.311
43970W        W14570   4.276  21.482   4.486
43971W        W14571  32.655  34.459  14.093
43972W        W14572  10.152  12.710  11.515
43973W        W14573  25.337  28.770  12.070
43974W        W14574  39.013  14.953   1.719
43975W        W14575  39.794  38.624   0.016
43976W        W14576  41.413   9.712   2.382
43977W        W14577  38.427  28.375   2.862
43978W        W14578   2.693  42.020  14.031
43979W        W14579   1.156  17.670  13.520
43980W        W14580  10.345  16.187  12.480
43981W        W14581   4.078  22.371  11.092
43982W        W14582   9.808  34.240   2.458
43983W        W14583   6.803  13.908   5.053
43984W        W14584  24.047   9.884  13.100
43985W        W14585  37.289  20.113  11.339
43986W        W14586  24.004  40.357   0.076
43987W        W14587  38.020  13.314  14.535
43988W        W14588  37.834  18.749  11.522
43989W        W14589  44.767  19.342  14.549
43990W        W14590   0.763  18.631   2.828
43991W        W14591  30.413  35.090  11.980
43992W        W14592   2.384   5.522   1.920
43993W        W14593  18.504  19.778  14.883
43994W        W14594   9.375   2.445   3.598
43995W        W14595   6.443  11.236  10.988
43996W        W14596  17.291  12.318  12.436
43997W        W14597   2.690   5.441   4.916
43998W        W14598  34.046  28.531  14.921
43999W        W14599  31.092  33.307   2.843
44000W        W14600  38.560   7.790   1.969
44001W        W14601  12.367  11.803  10.741
44002W        W14602   8.964  10.636  11.440
44003W        W14603  37.819  26.902  12.529
44004W        W14604  13.410  14.252   3.964
44005W        W14605   7.787  28.255  11.644
44006W        W14606  24.680  32.152   2.299
44007W        W14607  29.982  37.857  13.470
44008W        W14608   4.807  25.649   0.303
44009W        W14609  31.091   6.770   0.941
44010W        W14610  28.156  15.697   2.406
44011W        W14611  21.420  33.376   3.503
44012W        W14612   7.390   4.381  10.358
44013W        W14613  24.458   2.747  13.976
44014W        W14614  36.991  43.727  12.466
44015W        W14615  37.821  26.585   1.231
44016W        W14616  33.088  19.558  11.768
44017W        W14617  13.904  30.088   3.638
44018W        W14618  27.001  17.743  13.455
44019W        W14619  41.282  20.838   2.850
44020W        W14620  32.177  23.800  13.903
44021W        W14621   5.730  24.947   0.125
44022W        W14622  12.626  24.650  14.150
44023W        W14623  10.568  29.891  12.496
44024W        W14624  11.838  11.249  11.254
44025W        W14625  18.266  39.089   1.255
44026W        W14626  11.492  41.249   2.199
44027W        W14627  18.564  15.386   2.735
44028W        W14628  37.629   6.926   1.917
44029W        W14629  32.676  22.545  14.040
44030W        W14630  16.212  43.514  14.833
44031W        W14631   4.530  42.149  11.510
44032W        W14632   9.642   3.994   4.876
44033W        W14633  38.764  22.459  11.385
44034W        W14634  43.864  10.879   0.760
44035W        W14635  31.437  17.921  12.393
44036W        W14636  43.309  16.571   3.628
44037W        W14637   3.099  11.186  11.570
44038W        W14638  18.761  16.773  11.908
44039W        W14639  12.911  27.715  11.411
44040W        W14640  40.564   5.839  12.584
44041W        W14641  35.857  42.009  13.873
44042W        W14642  42.343  25.466   0.725
44043W        W14643  31.584   8.107  12.200
44044W        W14644  13.794   8.800   4.055
44045W        W14645   7.376  33.902  14.839
44046W        W14646   3.059  16.133  10.568
44047W        W14647  33.224  27.537  13.821
44048W        W14648  29.068   6.933  10.710
44049W        W14649  39.301  32.910   4.807
44050W        W14650  11.066  35.487   1.611
44051W        W14651  14.175  32.053  13.338
44052W        W14652  22.709  38.322   3.987
44053W        W14653  30.554  44.492  14.066
44054W        W14654   6.645   3.846  12.389
44055W        W14655   8.111  18.681   0.271
44056W        W14656  23.976  30.788  10.712
44057W        W14657  22.083  11.116   3.118
44058W        W14658  42.214  42.290  11.262
44059W        W14659  28.981  31.053   3.190
44060W        W14660   1.969   3.902  14.738
44061W        W14661  42.552  27.395   2.128
44062W        W14662  14.667   8.751   1.638
44063W        W14663  39.723  14.088  10.617
44064W        W14664  33.510   0.528   2.816
44065W        W14665  41.629  30.583  12.550
44066W        W14666   7.960   2.223  11.661
44067W        W14667  15.211   3.770  11.977
44068W        W14668  27.083  32.425   1.609
44069W        W14669  16.601  19.594   4.332
44070W        W14670   0.412  21.713  11.579
44071W        W14671  13.955   3.492   0.967
44072W        W14672  17.828  43.015   3.542
44073W        W14673   5.697  35.696   0.780
44074W        W14674  12.755  11.214  11.119
44075W        W14675  27.346   2.249   2.639
44076W        W14676  24.482  12.658   2.966
44077W        W14677  43.946  34.595   0.469
44078W        W14678  34.635  19.440   3.387
44079W        W14679  33.949  34.548   2.366
44080W        W14680  15.014  16.410  14.869
44081W        W14681  43.830  29.153  11.084
44082W        W14682  10.160  15.956   2.272
44083W        W14683  33.371   6.202   1.309
44084W        W14684  23.171  19.431   1.198
44085W        W14685  36.038  34.902   0.195
44086W        W14686  35.499   5.133   2.593
44087W        W14687  41.206  13.496  13.564
44088W        W14688  32.442  18.805   3.124
44089W        W14689  27.579  19.296   1.723
44090W        W14690  11.833  27.583   2.477
44091W        W14691  30.726  37.110   1.492
44092W        W14692  33.364  30.693  10.688
44093W        W14693   4.301  10.820   4.958
44094W        W14694  41.111  43.254  11.247
44095W        W14695   5.177   0.336  13.813
44096W        W14696  34.614  25.967  12.425
44097W        W14697  18.554   2.333  14.866
44098W        W14698   4.050  37.188  11.113
44099W        W14699  12.677  10.420   0.743
44100W        W14700  19.043  15.099  11.611
44101W        W14701  39.402   1.001   2.298
44102W        W14702   8.368  17.648  14.529
44103W        W14703  14.682   5.525   1.738
44104W        W14704  34.046   5.872  12.536
44105W        W14705  22.875   8.022  13.873
44106W        W14706  32.491  19.650   4.053
44107W        W14707  33.659  14.081   4.197
44108W        W14708  22.699   0.355  14.841
44109W        W14709  17.886  35.992  10.717
44110W        W14710  32.890   4.757  13.297
44111W        W14711   1.809  30.258  10.487
44112W        W14712   1.885  32.369  12.585
44113W        W14713  33.383  43.765   2.814
44114W        W14714  40.388  22.656   1.202
44115W        W14715  15.070  34.278  12.477
44116W        W14716   2.338  24.584   4.176
44117W        W14717  36.363  25.929  14.400
44118W        W14718   9.312  44.803  12.825
44119W        W14719   7.744  41.050  14.725
44120W        W14720  13.121  35.261  13.279
44121W        W14721  43.463   5.670  14.832
44122W        W14722  26.733   9.951  14.827
44123W        W14723  30.033  15.329  14.543
44124W        W14724   4.059  42.898  13.879
44125W        W14725  34.444  41.093   0.838
44126W        W14726  17.093  41.333  11.454
44127W        W14727   6.799  27.707  14.993
44128W        W14728  43.215   8.630  10.302
44129W        W14729  20.054  27.014   0.395
44130W        W14730  28.530  31.126  14.770
44131W        W14731  31.480  44.426   2.867
44132W        W14732  27.099  40.760   4.088
44133W        W14733   4.471  15.103   2.748
44134W        W14734   4.361  35.674   1.472
44135W        W14735  40.535  40.357  10.576
44136W        W14736  27.220  38.827   4.123
44137W        W14737  20.159   6.575   0.404
44138W        W14738  27.526   5.392   0.654
44139W        W14739   9.652  41.292  12.712
44140W        W14740  16.806   6.390  11.189
44141W        W14741   8.367  26.817   1.855
44142W        W14742  10.302  34.549  11.878
44143W        W14743  10.709  39.344  11.601
44144W        W14744  30.890  32.946  11.580
44145W        W14745   7.365  43.391   1.447
44146W        W14746  35.241  18.658   4.591
44147W        W14747   7.926  19.612  11.510
44148W        W14748  33.061  41.754   4.298
44149W        W14749  34.295  37.980  12.370
44150W        W14750  32.553  34.901   4.661
44151W        W14751  27.265  42.178  11.117
44152W        W14752  37.160   2.363  13.059
44153W        W14753   7.852  22.805   1.339
44154W        W14754   4.738  20.189  13.327
44155W        W14755  15.773  11.204  14.954
44156W        W14756  19.272   8.959  13.003
44157W        W14757  22.336  13.137  14.940
44158W        W14758  33.407  15.401   3.686
44159W        W14759  27.584  18.462   3.269
44160W        W14760   4.311   6.896  11.561
44161W        W14761  10.272   2.677   4.545
44162W        W14762  10.662  35.368   0.719
44163W        W14763  44.545  28.483   0.339
44164W        W14764  20.097  25.659   0.773
44165W        W14765  42.790  15.243  14.361
44166W        W14766  19.105  36.071  12.339
44167W        W14767  40.572  21.805   4.512
44168W        W14768  18.292  26.588   0.750
44169W        W14769   4.807   0.968  12.510
44170W        W14770  11.842   7.704  10.662
44171W        W14771  33.356   0.050  10.747
44172W        W14772   2.876  13.184   4.083
44173W        W14773   9.024  44.430   0.969
44174W        W14774  21.195  11.149   2.784
44175W        W14775  23.903   1.221   0.512
44176W        W14776  33.056  20.626   3.244
44177W        W14777   6.888  22.091  13.818
44178W        W14778  15.953  44.093   0.410
44179W        W14779   4.852  20.771  11.114
44180W        W14780  16.222  29.683  11.801
44181W        W14781  36.556  30.927  11.180
44182W        W14782  43.912  35.590   2.362
44183W        W14783  18.721  36.339   1.282
44184W        W14784   7.130  40.797  13.887
44185W        W14785  21.981  16.035  13.007
44186W        W14786  22.083   7.270   0.908
44187W        W14787   4.831  35.506   0.737
44188W        W14788  40.320  22.433  13.841
44189W        W14789  26.596  32.880  12.874
44190W        W14790  32.265  29.919  13.363
44191W        W14791  13.688  37.220   1.418
44192W        W14792  12.638   2.369   3.629
44193W        W14793  12.372  12.857  11.692
44194W        W14794  39.352  30.355  14.721
44195W        W14795  33.643   7.316  11.867
44196W        W14796   2.324  21.379   4.835
44197W        W14797  43.268  35.824   1.716
44198W        W14798   0.548  31.398   1.864
44199W        W14799  25.133  44.591  13.112
44200W        W14800   3.266  15.584  11.085
44201W        W14801  25.598  23.473  11.220
44202W        W14802  16.734  23.784   3.805
44203W        W14803  10.951  12.735   0.048
44204W        W14804  10.447  37.963   1.592
44205W        W14805  32.015  15.894   0.343
44206W        W14806  13.152  39.003   2.332
44207W        W14807   8.960  33.528   3.135
44208W        W14808  44.357   0.988   4.211
44209W        W14809  38.543  42.266   3.313
44210W        W14810  36.342  19.224   3.762
44211W        W14811  32.611   4.699  13.772
44212W        W14812  40.271  12.096   3.366
44213W        W14813  11.870  38.161  13.556
44214W        W14814  26.312  36.928  12.947
44215W        W14815  40.088   4.099   9.937
44216W        W14816  27.246   6.653  11.144
44217W        W14817   4.368  16.620   1.312
44218W        W14818  37.609  40.599   3.329
44219W        W14819   5.529  26.600   4.711
44220W        W14820   9.694  36.517  11.695
44221W        W14821  15.676   5.851   0.219
44222W        W14822   7.313  42.790   3.597
44223W        W14823   6.411  28.878   4.604
44224W        W14824  24.456   7.814   2.742
44225W        W14825  35.817  20.170  14.996
44226W        W14826   9.165  30.061  14.788
44227W        W14827   5.319  33.027   4.867
44228W        W14828   6.327  20.865   3.064
44229W        W14829  43.259  43.357  12.182
44230W        W14830  40.836  20.173   3.363
44231W        W14831  36.157  19.442   1.217
44232W        W14832  38.497  11.569  11.980
44233W        W14833  36.504  35.666   3.715
44234W        W14834  29.906   1.063   3.348
44235W        W14835  14.999  26.979   1.035
44236W        W14836  33.428   3.943  14.076
44237W        W14837  19.653   2.534   1.275
44238W        W14838   8.440  29.555   2.817
44239W        W14839   4.375  24.640   4.198
44240W        W14840  36.436   1.489  12.496
44241W        W14841  14.204  22.056   1.868
44242W        W14842  33.809   9.206   1.949
44243W        W14843   4.701  17.203   4.974
44244W        W14844  37.808  17.731   4.599
44245W        W14845  19.269  44.941   1.788
44246W        W14846  12.193  16.155  13.927
44247W        W14847  33.292  26.397  11.168
44248W        W14848  20.670  27.715   1.383
44249W        W14849  22.441  28.547   1.978
44250W        W14850   6.258  11.786  12.613
44251W        W14851  14.386  41.379  10.659
44252W        W14852  41.000  36.907  10.707
44253W        W14853   6.981  31.345   1.107
44254W        W14854   0.428  25.119  13.439
44255W        W14855  22.016   2.232  11.038
44256W        W14856  44.994  22.892  12.873
44257W        W14857  12.617  28.942   4.734
44258W        W14858  30.907  28.114   4.830
44259W        W14859  15.538  11.753  12.843
44260W        W14860  41.772   3.042  14.572
44261W        W14861  34.106  41.759  12.609
44262W        W14862  13.848  26.676   1.780
44263W        W14863  29.450  42.837  11.515
44264W        W14864  14.896   5.857   0.757
44265W        W14865  24.803  26.930  13.848
44266W        W14866   0.939  35.217  10.779
44267W        W14867  34.575   3.230  11.509
44268W        W14868  24.223  28.009   2.107
44269W        W14869   2.480  29.884  12.054
44270W        W14870  40.244  12.032   2.349
44271W        W14871   0.813   7.423  10.203
44272W        W14872  43.435   9.030  10.549
44273W        W14873  23.638  27.131   0.258
44274W        W14874  31.167  14.901   0.915
44275W        W14875  35.938  31.352   2.871
44276W        W14876   2.410  10.289  12.387
44277W        W14877  23.473  39.380  10.275
44278W        W14878  12.160  23.824  14.034
44279W        W14879  14.218  23.971   4.066
44280W        W14880  10.824   9.351   1.427
44281W        W14881  16.330  14.237   2.853
44282W        W14882  15.925  15.015   1.827
44283W        W14883  39.535  17.140   4.827
44284W        W14884  44.399  11.792   3.337
44285W        W14885  15.042  16.444   1.246
44286W        W14886  42.895  37.654  14.241
44287W        W14887   7.216  23.769   3.299
44288W        W14888  37.598  27.299  14.964
44289W        W14889   8.504  33.651  11.154
44290W        W14890  41.873  43.809   0.390
44291W        W14891  40.613  40.463  12.414
44292W        W14892  14.139  16.123  10.971
44293W        W14893   6.683  14.088   4.186
44294W        W14894  10.527   6.855  13.355
44295W        W14895   4.653  22.854   1.920
44296W        W14896  12.501  35.619   4.585
44297W        W14897  13.944  32.942   1.386
44298W        W14898   0.187   8.368  11.512
44299W        W14899  21.505  42.841  12.122
44300W        W14900  44.402  35.980   1.178
44301W        W14901  25.977  30.524  10.755
44302W        W14902  35.283  10.566   3.125
44303W        W14903  41.980  27.200  14.761
44304W        W14904  14.832  41.085   2.369
44305W        W14905   7.854  18.467   1.728
44306W        W14906   0.794   0.884   3.419
44307W        W14907  11.298  21.504   4.306
44308W        W14908  36.074  22.295  10.440
44309W        W14909   4.838  41.880  12.834
44310W        W14910  33.283   4.479  12.097
44311W        W14911  40.949  26.568   0.350
44312W        W14912  29.384  10.632  14.532
44313W        W14913  40.791   0.616   2.665
44314W        W14914  36.124  29.710  13.788
44315W        W14915  40.234  11.598   2.657
44316W        W14916  17.237  18.782   1.833
44317W        W14917  22.101  28.609   4.686
44318W        W14918  30.674   7.793   0.697
44319W        W14919  32.369  18.536   4.084
44320W        W14920  12.245  37.860  12.080
44321W        W14921  10.401  38.993   0.456
44322W        W14922  38.509  13.248  13.064
44323W        W14923  18.628  28.777  10.690
44324W        W14924  11.923  15.082   0.422
44325W        W14925  14.405  40.861   4.922
44326W        W14926   4.686  36.124  13.678
44327W        W14927  10.865  15.125   3.248
44328W        W14928  41.071  25.824  14.760
44329W        W14929  15.966  35.917   2.875
44330W        W14930  21.652  24.623   1.325
44331W        W14931  28.347  33.519  10.787
44332W        W14932   0.846  40.175  10.671
44333W        W14933  29.373  39.381   0.754
44334W        W14934  13.328  30.625  12.369
44335W        W14935  30.549   3.355   4.697
44336W        W14936  23.238  37.393   1.971
44337W        W14937  21.771  30.163  12.072
44338W        W14938   2.449  39.678   4.571
44339W        W14939  29.941  23.572  13.972
44340W        W14940  33.594  25.858   2.178
44341W        W14941   2.832  28.869  11.619
44342W        W14942  29.927   3.029  12.955
44343W        W14943  25.207  37.386   0.799
44344W        W14944  17.195  22.146   4.900
44345W        W14945   4.350  15.730  14.204
44346W        W14946  40.929  34.909  13.777
44347W        W14947  29.877  38.422   2.857
44348W        W14948  24.963  26.179   1.249
44349W        W14949  31.472  20.069  11.495
44350W        W14950   7.476  26.508   4.811
44351W        W14951  28.710  30.142  12.494
44352W        W14952  16.870  39.069   4.339
44353W        W14953  11.594  20.145  13.014
44354W        W14954  23.418  28.652  12.145
44355W        W14955   6.196  11.256   1.675
44356W        W14956  33.350  33.296   5.054
44357W        W14957  25.678  28.652   0.464
44358W        W14958  24.111  43.572   2.393
44359W        W14959  41.932  25.682   4.174
44360W        W14960  24.336  21.128  11.118
44361W        W14961  13.352  44.084   4.928
44362W        W14962  16.059   7.011  13.975
44363W        W14963  28.930  21.684  13.520
44364W        W14964  23.541  20.488   1.271
44365W        W14965  41.150   4.852  14.546
44366W        W14966  25.709   1.749  12.384
44367W        W14967  15.463  40.167   5.190
44368W        W14968  29.755  44.866  13.307
44369W        W14969  29.378   8.121  11.571
44370W        W14970   0.694   1.345   3.224
44371W        W14971  42.119  14.251   1.635
44372W        W14972  44.469   9.531   0.830
44373W        W14973   3.168  27.188  11.048
44374W        W14974  31.385  17.688  14.452
44375W        W14975  23.458  44.224  13.964
44376W        W14976  28.930  26.916  11.280
44377W        W14977  11.818   2.331  14.003
44378W        W14978  29.826  26.955  11.449
44379W        W14979  23.508  17.568   3.159
44380W        W14980  43.971  32.387  13.062
44381W        W14981  26.617  29.105  11.369
44382W        W14982  28.760  25.243   0.346
44383W        W14983  24.796  13.763   2.493
44384W        W14984  30.015  28.890  10.788
44385W        W14985  34.551  27.622   2.957
44386W        W14986  19.249  23.726  14.903
44387W        W14987  39.811  35.354   0.968
44388W        W14988  29.517  20.305  11.517
44389W        W14989  42.464  35.305  14.942
44390W        W14990  25.998  27.981  14.983
44391W        W14991  26.513  24.472  14.327
44392W        W14992   2.307   1.768  10.708
44393W        W14993  13.336   2.187   4.145
44394W        W14994  39.792  38.465   4.127
44395W        W14995  32.138  37.843  12.050
44396W        W14996   4.325  34.062   3.445
44397W        W14997  11.069   3.606   2.720
44398W        W14998  12.726   4.387  11.576
44399W        W14999  42.308  11.270   1.312
44400W        W15000  13.304  21.293  14.780
44401W        W15001  21.287  34.946   0.764
44402W        W15002  42.762   2.967  11.624
44403W        W15003  25.662  17.669   1.381
44404W        W15004  10.388  42.564   4.127
44405W        W15005  11.509   7.265   1.487
44406W        W15006  32.630   6.799  10.819
44407W        W15007  37.051  42.221   3.992
44408W        W15008  27.707  31.393  14.480
44409W        W15009   2.654  34.878   2.339
44410W        W15010   8.344  41.436   0.908
44411W        W15011  41.264  25.633  11.995
44412W        W15012  44.646  38.871  14.912
44413W        W15013  37.838   9.930  10.488
44414W        W15014  32.631  31.646   2.173
44415W        W15015  37.293  14.023  14.473
44416W        W15016  21.058  17.218  12.115
44417W        W15017  22.952  27.704  14.297
44418W        W15018   6.637   7.774   2.520
44419W        W15019  10.080   7.916  13.178
44420W        W15020  16.293  44.385  12.972
44421W        W15021  13.375  44.280   3.332
44422W        W15022  21.985  18.316  12.499
44423W        W15023  44.748  35.941  13.109
44424W        W15024  37.519   8.798   4.801
44425W        W15025   1.435  27.181   3.580
44426W        W15026  43.410  10.583   1.999
44427W        W15027  11.757   8.942  12.494
44428W        W15028   7.780  14.223   1.887
44429W        W15029   6.885  14.503   0.478
44430W        W15030  41.565   6.225   2.685
44431W        W15031  43.814  11.164  13.040
44432W        W15032  25.794   9.835   4.606
44433W        W15033   4.759  24.084   0.567
44434W        W15034  13.760  30.972   0.294
44435W        W15035  20.077   1.986   1.807
44436W        W15036  30.160  34.214  10.823
44437W        W15037  43.074  27.034  11.116
44438W        W15038  37.696  28.990  10.158
44439W        W15039   0.576  10.732   3.372
44440W        W15040  33.949   8.781  13.282
44441W        W15041  15.470  32.826   4.441
44442W        W15042  22.200   7.676   3.717
44443W        W15043  17.261   7.653   3.531
44444W        W15044   1.913  32.351   0.807
44445W        W15045   7.978  37.964   3.577
44446W        W15046   2.182   2.828  11.872
44447W        W15047  39.503  41.236  12.066
44448W        W15048  38.354   0.659  14.529
44449W        W15049  42.967  40.278  12.186
44450W        W15050  23.557  36.475   2.766
44451W        W15051  27.433  15.375  11.538
44452W        W15052   9.792  43.279   3.846
44453W        W15053   8.900  36.438  10.562
44454W        W15054  20.032  11.791   3.659
44455W        W15055   4.075  21.161   0.667
44456W        W15056  43.023   2.742  11.155
44457W        W15057  44.307   5.392   3.176
44458W        W15058  43.625  35.309  13.045
44459W        W15059  20.473   4.655   1.384
44460W        W15060  37.166  21.503  13.570
44461W        W15061  28.530  36.985   1.771
44462W        W15062   7.281  22.014   3.206
44463W        W15063  41.478  16.364   1.844
44464W        W15064  24.125  36.663  10.713
44465W        W15065  42.073  37.535  11.171
44466W        W15066  16.898  36.281   2.378
44467W        W15067  17.337   7.419  11.215
44468W        W15068  36.039  33.128  14.759
44469W        W15069  29.212  34.425  11.096
44470W        W15070  41.874   7.751   2.881
44471W        W15071  34.120  25.959  12.454
44472W        W15072  32.796   4.785  14.288
44473W        W15073  35.040  32.802  11.989
44474W        W15074  44.709   2.372   4.406
44475W        W15075  38.359  21.550  14.817
44476W        W15076  44.455   7.834   2.331
44477W        W15077  11.180   3.983   4.533
44478W        W15078  33.973   1.923   4.634
44479W        W15079  37.269  28.039   0.382
44480W        W15080  39.132  28.095  13.020
44481W        W15081  38.312  12.058   2.219
44482W        W15082  31.989  11.378  11.217
44483W        W15083  25.489   9.481  12.102
44484W        W15084  35.785  13.214  12.503
44485W        W15085  44.388  21.098   3.606
44486W        W15086  29.138   6.740   0.755
44487W        W15087  41.237  28.142   2.293
44488W        W15088   5.846  44.603   4.075
44489W        W15089  32.450  21.734   4.593
44490W        W15090  29.519  19.099   5.038
44491W        W15091  34.028  41.292  13.840
44492W        W15092   0.206   8.850  13.884
44493W        W15093  30.551  26.575  13.874
44494W        W15094  14.839  15.925  14.862
44495W        W15095  30.488   0.718   2.232
44496W        W15096  26.605  42.346  12.487
44497W        W15097  36.943  20.785   1.704
44498W        W15098  31.558  20.141  13.904
44499W        W15099  22.275   7.778   0.916
44500W        W15100  28.586   0.223  10.530
44501W        W15101  14.107  44.607   1.215
44502W        W15102  19.391  12.257  12.865
44503W        W15103  21.519  25.415   4.681
44504W        W15104  36.803   7.709  13.122
44505W        W15105  23.271  33.386   1.623
44506W        W15106   3.200   9.760  10.460
44507W        W15107  38.907  38.465   0.676
44508W        W15108   3.904  28.217  12.918
44509W        W15109   7.747  12.679  12.572
44510W        W15110  11.127  35.064  11.996
44511W        W15111  40.248  34.547   2.701
44512W        W15112  11.703  32.485  13.297
44513W        W15113  19.484  35.992  10.649
44514W        W15114  28.485  32.687   1.234
44515W        W15115   4.889  40.872  11.727
44516W        W15116  11.393  32.043   4.109
44517W        W15117  42.066  23.024  11.118
44518W        W15118   5.999  35.137   5.098
44519W        W15119  44.945  21.206  10.879
44520W        W15120  13.615  19.628  11.915
44521W        W15121   0.744  38.854   0.824
44522W        W15122  15.864  17.072  14.292
44523W        W15123  42.202  29.968   4.324
44524W        W15124  31.345   7.275  13.650
44525W        W15125   2.318  22.251   0.819
44526W        W15126  40.949  31.000  10.628
44527W        W15127   3.584  36.114   5.029
44528W        W15128  27.741  14.972   2.849
44529W        W15129  43.513   7.859   2.336
44530W        W15130  34.144  23.002   3.196
44531W        W15131  28.094   8.682  11.289
44532W        W15132  37.976  43.491  12.448
44533W        W15133   8.878   7.338  12.102
44534W        W15134   9.031  29.419  13.212
44535W        W15135   0.904   7.830  14.844
44536W        W15136   8.416  27.161  13.454
44537W        W15137  26.379  19.191  14.922
44538W        W15138  11.300  42.578  11.294
44539W        W15139  28.116   6.831   0.744
44540W        W15140  12.012   9.009  14.297
44541W        W15141  15.520  14.223   0.781
44542W        W15142  36.984  32.004  13.644
44543W        W15143  36.065  15.047   2.473
44544W        W15144  31.617  14.811   2.165
44545W        W15145  12.660  43.236   1.680
44546W        W15146  35.550  14.116   2.155
44547W        W15147  28.934  15.971   1.415
44548W        W15148   7.145   7.578  11.111
44549W        W15149  26.117  13.130   0.982
44550W        W15150  14.653  20.194  14.756
44551W        W15151  27.633  32.987   0.605
44552W        W15152  34.880  25.934  11.742
44553W        W15153  14.278  26.497  10.634
44554W        W15154  11.146  21.267   3.725
44555W        W15155   9.428  38.627  13.357
44556W        W15156  38.942  37.334  12.847
44557W        W15157  26.447  23.771  11.077
44558W        W15158   1.495  44.341   4.573
44559W        W15159  40.702  32.945  13.573
44560W        W15160   1.715   4.464  13.614
44561W        W15161   5.961  38.910  12.085
44562W        W15162  31.977  11.782   1.427
44563W        W15163  32.910  40.436   3.650
44564W        W15164  12.096   3.882   3.728
44565W        W15165  11.222  37.211   1.434
44566W        W15166  11.763  38.024  11.868
44567W        W15167  26.108  13.260   2.456
44568W        W15168  37.846  26.950   4.296
44569W        W15169  10.912  16.718   3.691
44570W        W15170  16.116  10.883   4.792
44571W        W15171   7.531   1.497   2.711
44572W        W15172  28.564  38.337   2.763
44573W        W15173   9.984   0.186  13.517
44574W        W15174   8.190  23.035   4.614
44575W        W15175  19.641  21.780  14.053
44576W        W15176  34.541  31.752   4.492
44577W        W15177  44.875  29.610  11.274
44578W        W15178  16.191  36.419  12.395
44579W        W15179  12.806  17.768  13.457
44580W        W15180  31.490  12.068   0.733
44581W        W15181  10.764  22.210  10.734
44582W        W15182   8.296  38.917   1.784
44583W        W15183  22.838  37.533   3.551
44584W        W15184  42.386  38.966   1.264
44585W        W15185  12.656  40.745  11.852
44586W        W15186   2.860   8.428  12.116
44587W        W15187  31.253  15.208   3.205
44588W        W15188  17.118  12.888   2.221
44589W        W15189  26.142   1.249  14.547
44590W        W15190  15.068   1.407  14.783
44591W        W15191  39.359  28.003   3.342
44592W        W15192   4.006  41.731  12.574
44593W        W15193  35.850  14.229   1.755
44594W        W15194  21.799  34.154  14.837
44595W        W15195  44.299  19.786   4.420
44596W        W15196  23.171  21.427  10.505
44597W        W15197   2.806   5.145   1.383
44598W        W15198   3.217  38.795   0.886
44599W        W15199  10.913  43.948  12.799
44600W        W15200   8.889  42.384   2.876
44601W        W15201   6.785  10.974   3.800
44602W        W15202   2.745  37.455  12.822
44603W        W15203  13.580  20.739  10.509
44604W        W15204  32.004   5.750  13.466
44605W        W15205  43.458  40.872  14.982
44606W        W15206   9.563  41.293  13.217
44607W        W15207  11.168  20.674   3.285
44608W        W15208  14.991  26.693   3.668
44609W        W15209  23.468   3.875   1.407
44610W        W15210  44.589  34.070  12.884
44611W        W15211  23.249  30.505  12.603
44612W        W15212   1.219  40.083  13.867
44613W        W15213  33.998  15.614  13.971
44614W        W15214  42.422  41.546   3.197
44615W        W15215  35.528  26.533  10.544
44616W        W15216  15.390   6.740   0.506
44617W        W15217  19.217  29.873   4.196
44618W        W15218  10.217   9.557  14.337
44619W        W15219   3.661  43.454   0.998
44620W        W15220  10.335  25.542   5.223
44621W        W15221  15.660  33.480  14.843
44622W        W15222  17.478  36.306   1.712
44623W        W15223   1.776  14.156   1.486
44624W        W15224  33.516  11.914   1.032
44625W        W15225  20.159  17.560   2.925
44626W        W15226  13.173  29.453  13.493
44627W        W15227  32.812  16.702  13.328
44628W        W15228  19.584  18.244  14.265
44629W        W15229   1.883  37.335   4.597
44630W        W15230  26.604  23.742   3.870
44631W        W15231  33.499   9.495  13.497
44632W        W15232   7.460  23.908  12.010
44633W        W15233   9.280  31.617   3.614
44634W        W15234  41.421  31.382   1.506
44635W        W15235  27.575  11.502  14.761
44636W        W15236   0.244  16.056  11.091
44637W        W15237  15.006  35.894  11.545
44638W        W15238  24.675  28.202   3.352
44639W        W15239  24.497  29.313  13.903
44640W        W15240   2.374   8.828  14.053
44641W        W15241  10.690  34.722   4.621
44642W        W15242  34.001   9.564   3.709
44643W        W15243  16.456   3.351   3.273
44644W        W15244  15.629   3.129   4.763
44645W        W15245   7.022  13.800   4.591
44646W        W15246  34.029  35.525   1.973
44647W        W15247   8.317  22.612   3.265
44648W        W15248  31.165  18.777   1.672
44649W        W15249   2.068  28.913   2.593
44650W        W15250   7.771  13.280   0.352
44651W        W15251  20.065   5.186  13.748
44652W        W15252   0.304  15.286  13.821
44653W        W15253  43.866  39.888  11.855
44654W        W15254  41.885  39.669  13.762
44655W        W15255   5.933  13.571  14.858
44656W        W15256  44.043  36.960   4.085
44657W        W15257  33.937  41.830   3.863
44658W        W15258  20.737  41.189  13.318
44659W        W15259  37.429  29.159  11.774
44660W        W15260  11.238   0.551   4.713
44661W        W15261  27.895  18.386   3.739
44662W        W15262  37.970   9.186   3.650
44663W        W15263  27.092  26.964  12.435
44664W        W15264  13.196  25.318  13.573
44665W        W15265  23.074  22.404  14.790
44666W        W15266  14.634  33.334   5.103
44667W        W15267  21.995  17.946  14.268
44668W        W15268  33.566  18.051   1.656
44669W        W15269  29.668  20.133  13.561
44670W        W15270  11.094  12.651  14.563
44671W        W15271  21.558  18.061  12.364
44672W        W15272  24.301  43.248   4.990
44673W        W15273   6.811  37.050  14.515
44674W        W15274   6.330  37.100   2.768
44675W        W15275  22.012   8.818   3.999
44676W        W15276  28.140  12.639  13.573
44677W        W15277   5.474  22.828   1.519
44678W        W15278  38.625  19.861  13.124
44679W        W15279  19.768   3.439  10.068
44680W        W15280   1.944  26.158   1.746
44681W        W15281  12.882  18.608   1.664
44682W        W15282   9.657   3.517  14.635
44683W        W15283  20.437  18.799   0.018
44684W        W15284   7.197  41.488  11.615
44685W        W15285  36.343   4.779  14.865
44686W        W15286  36.968  24.443  14.856
44687W        W15287  41.507  19.236  12.913
44688W        W15288  13.775   4.806   0.369
44689W        W15289  24.704  21.688   3.739
44690W        W15290  14.064  12.803  12.612
44691W        W15291  19.671  22.572  10.622
44692W        W15292  25.656  36.029  11.591
44693W        W15293   4.743   4.249   4.949
44694W        W15294  27.104  44.334   1.028
44695W        W15295   0.058   8.985   0.252
44696W        W15296  27.512  24.642  14.039
44697W        W15297   8.891  33.647   2.565
44698W        W15298   1.832  20.050   0.458
44699W        W15299   5.926  41.044  11.675
44700W        W15300  19.634  16.941   1.277
44701W        W15301  22.435  26.910  13.211
44702W        W15302  35.867  31.463  14.464
44703W        W15303  25.399   3.355   3.722
44704W        W15304  11.927  12.343   1.882
44705W        W15305  28.133   7.242  14.075
44706W        W15306  33.981   2.141   1.411
44707W        W15307  22.746   2.671   4.153
44708W        W15308  23.116  37.360  14.251
44709W        W15309  41.358  38.329  12.571
44710W        W15310  35.062  10.199   2.722
44711W        W15311  41.525  28.273  13.781
44712W        W15312  11.149  15.376  11.459
44713W        W15313   2.290  27.644  13.551
44714W        W15314   3.362  15.031   0.020
44715W        W15315   2.209  29.572   0.231
44716W        W15316   1.695  32.682  11.013
44717W        W15317  27.180  34.496   4.063
44718W        W15318  28.520  12.936  14.739
44719W        W15319   1.373  43.765  14.246
44720W        W15320  41.448  44.782   1.724
44721W        W15321  14.092   3.894  13.939
44722W        W15322  22.426  36.906   4.035
44723W        W15323  44.373  23.691  13.508
44724W        W15324  24.228  10.338   3.542
44725W        W15325  40.746  15.382  12.507
44726W        W15326  33.520   8.343  12.478
44727W        W15327  22.076  36.018   3.135
44728W        W15328  23.291  33.610  10.022
44729W        W15329   5.236  21.139   2.461
44730W        W15330  26.582   9.179  12.645
44731W        W15331  39.054   1.493  10.251
44732W        W15332  19.081  38.090   1.864
44733W        W15333  42.334   0.304   4.282
44734W        W15334  35.977  34.179   0.870
44735W        W15335   6.812  34.656  14.970
44736W        W15336  20.110  26.053   1.494
44737W        W15337  23.621  27.063  13.504
44738W        W15338  18.604  34.347   1.019
44739W        W15339   4.250   7.042   3.497
44740W        W15340  38.318  34.838   0.808
44741W        W15341  36.318  38.973   2.284
44742W        W15342  27.632  22.721  14.076
44743W        W15343   7.683   1.448   2.126
44744W        W15344  32.158  13.322   3.246
44745W        W15345   4.949  16.224  11.930
44746W        W15346  35.859   2.366   2.660
44747W        W15347  43.768  31.334   2.160
44748W        W15348  21.800  11.133  13.476
44749W        W15349  25.082   3.356   3.332
44750W        W15350  23.102   9.976  12.982
44751W        W15351  23.160  29.573  12.587
44752W        W15352  28.977   4.129   0.047
44753W        W15353  26.522  25.339   0.757
44754W        W15354  14.053  23.676   4.778
44755W        W15355  39.122  13.612   5.089
44756W        W15356  32.301  36.929   3.586
44757W        W15357  39.370   8.301  13.389
44758W        W15358  36.410  28.385   1.396
44759W        W15359   4.592  43.616  14.395
44760W        W15360  20.201   0.504   0.502
44761W        W15361  15.572  25.152   4.804
44762W        W15362   3.724  35.655  11.205
44763W        W15363   5.216  42.704   1.387
44764W        W15364   0.568  30.879   1.862
44765W        W15365  38.889  42.407  13.506
44766W        W15366  41.950   1.924   3.163
44767W        W15367  17.786  18.836   0.439
44768W        W15368  32.079  37.013  14.758
44769W        W15369  39.342  28.430   0.477
44770W        W15370  28.622  13.624   3.841
44771W        W15371   9.147  44.928   0.753
44772W        W15372   3.408  33.903  14.405
44773W        W15373   4.536  43.417  10.617
44774W        W15374  15.088  25.433   1.862
44775W        W15375  16.703  33.087   5.081
44776W        W15376  31.849   6.683  10.898
44777W        W15377   7.547  13.274   4.149
44778W        W15378  32.985   7.588   3.051
44779W        W15379  32.331  27.858  12.659
44780W        W15380  35.072  13.397  14.407
44781W        W15381  29.431  22.539  12.889
44782W        W15382  39.189  28.606  13.456
44783W        W15383   3.264   2.502   1.242
44784W        W15384  10.621  30.584   3.367
44785W        W15385   9.613   8.966   0.820
44786W        W15386  30.896  18.728   1.232
44787W        W15387  32.015   3.780  10.697
44788W        W15388  31.345  17.272   5.083
44789W        W15389  28.094  17.687  10.023
44790W        W15390  38.919  31.979   2.226
44791W        W15391  25.702  18.266  14.793
44792W        W15392  22.626  35.433   4.842
44793W        W15393  40.971  15.992  11.304
44794W        W15394  35.931  36.523  12.866
44795W        W15395  26.217   1.688   1.222
44796W        W15396  39.895   1.708   3.637
44797W        W15397   1.065   3.335   3.076
44798W        W15398  29.147   5.535  10.145
44799W        W15399  37.685  36.259   4.614
44800W        W15400  43.968  41.764   4.379
44801W        W15401  12.194   6.177   1.654
44802W        W15402  16.075  29.577  11.319
44803W        W15403  41.246  33.015  14.419
44804W        W15404   0.511   5.290  13.995
44805W        W15405  16.118  29.252  12.069
44806W        W15406  44.308  41.924  11.332
44807W        W15407  28.502  43.510  13.473
44808W        W15408   9.118  27.094  12.603
44809W        W15409  36.684  20.416   1.449
44810W        W15410  12.720   7.619   0.975
44811W        W15411  37.468  13.225   3.746
44812W        W15412  25.740  41.470   4.751
44813W        W15413  39.443  28.558  10.969
44814W        W15414   8.377  39.787   2.725
44815W        W15415  12.634  15.276   3.754
44816W        W15416  23.937   1.408   3.742
44817W        W15417  11.606  20.503  14.212
44818W        W15418  20.992  24.406  11.638
44819W        W15419  40.543   6.449   2.558
44820W        W15420  14.819   0.203   1.818
44821W        W15421  44.032   8.373   3.147
44822W        W15422  36.975  44.511  13.427
44823W        W15423  38.085   7.641   4.930
44824W        W15424   1.353  36.800  10.622
44825W        W15425  44.999  29.416   3.427
44826W        W15426  36.343  29.512   3.762
44827W        W15427  18.221   0.320  13.690
44828W        W15428   0.319  28.636   3.124
44829W        W15429   5.951  22.072  12.225
44830W        W15430  22.976  27.680  11.087
44831W        W15431   0.448  15.008   3.762
44832W        W15432  31.815  22.605  11.863
44833W        W15433  26.126  35.298   3.677
44834W        W15434  18.692  42.476   3.263
44835W        W15435   6.837  41.679   1.437
44836W        W15436  19.781  22.244   2.082
44837W        W15437  24.078  38.989  13.270
44838W        W15438  29.168  20.630  12.923
44839W        W15439  14.142  42.893   3.901
44840W        W15440   3.627  25.961  11.185
44841W        W15441  24.001   4.415  11.963
44842W        W15442   2.567  41.438  11.490
44843W        W15443  34.456  14.502   3.339
44844W        W15444  39.524   2.721   1.162
44845W        W15445  24.441   4.177  13.859
44846W        W15446  18.016  25.608  12.830
44847W        W15447  20.273   1.775   4.573
44848W        W15448  28.900  18.262   4.577
44849W        W15449  11.094   0.856   3.215
44850W        W15450  11.182  33.539  13.878
44851W        W15451   7.308   2.283  10.789
44852W        W15452  18.714  28.288   2.624
44853W        W15453  15.748  21.151  14.802
44854W        W15454  22.052   0.187  11.616
44855W        W15455  18.688  14.810   3.746
44856W        W15456  31.062   4.849  12.178
44857W        W15457  44.947  43.791   4.156
44858W        W15458  24.414  11.186  12.491
44859W        W15459   6.478  16.698   2.836
44860W        W15460  25.554  43.105   3.069
44861W        W15461  40.608   5.060  13.142
44862W        W15462  40.861   1.348   3.785
44863W        W15463  10.743  36.101  14.182
44864W        W15464  15.210  44.409   0.485
44865W        W15465  24.098  12.544  14.584
44866W        W15466  43.554  39.076  12.976
44867W        W15467  41.212   0.956   0.835
44868W        W15468  25.115   8.325   2.270
44869W        W15469  25.949   9.422  14.278
44870W        W15470   4.618  29.446   1.889
44871W        W15471   0.858  43.848   4.357
44872W        W15472  34.112  41.075  13.106
44873W        W15473  26.456   1.187  14.093
44874W        W15474  40.038  14.142   0.025
44875W        W15475  41.668  15.472  11.564
44876W        W15476  17.848  17.211  13.872
44877W        W15477  19.767  28.161   3.750
44878W        W15478  26.150   1.649  14.220
44879W        W15479  39.995  18.097  12.620
44880W        W15480  13.115  40.601  11.136
44881W        W15481  32.098   2.052  13.158
44882W        W15482  15.835   2.591   3.984
44883W        W15483  19.985  41.287   1.792
44884W        W15484  29.828  12.134   0.557
44885W        W15485  15.877  10.639  10.594
44886W        W15486  40.161  38.015  11.644
44887W        W15487  42.856   8.448  12.141
44888W        W15488  39.379  37.447   0.921
44889W        W15489  20.113  41.135  14.949
44890W        W15490  22.541   0.179   1.243
44891W        W15491   7.273  35.857  14.473
44892W        W15492  32.027  13.142   1.796
44893W        W15493  37.043  27.011  12.032
44894W        W15494  42.531  36.190   0.173
44895W        W15495   1.395  43.039  11.166
44896W        W15496  17.167  15.565   1.214
44897W        W15497  32.793  27.049  14.266
44898W        W15498  31.730  39.835   1.949
44899W        W15499   6.763  33.538  10.619
44900W        W15500  44.360   7.623  13.098
44901W        W15501  41.959  36.446  13.814
44902W        W15502  16.391   4.646  11.639
44903W        W15503  39.487  29.572   2.266
44904W        W15504   2.067  37.859   4.558
44905W        W15505  13.078  25.041   4.234
44906W        W15506   9.682  38.107   2.270
44907W        W15507  40.852  44.815  11.615
44908W        W15508  34.662   4.272  14.451
44909W        W15509  32.894  15.794  10.929
44910W        W15510   2.765   2.818   3.736
44911W        W15511  29.042  20.710  10.325
44912W        W15512  25.655  35.397  13.691
44913W        W15513   2.705  23.698   1.685
44914W        W15514   8.814  21.605   0.766
44915W        W15515  29.602  38.513  10.599
44916W        W15516  39.913  39.984  11.110
44917W        W15517  30.352  35.850  11.554
44918W        W15518  26.198  35.636  12.337
44919W        W15519   9.454  29.476  11.725
44920W        W15520  29.529  40.448  13.398
44921W        W15521  21.981  10.081   2.170
44922W        W15522  34.066  30.869  14.446
44923W        W15523  28.058  23.793   2.497
44924W        W15524  38.542  42.633   2.793
44925W        W15525  33.381   2.770   3.138
44926W        W15526   7.897  18.632  12.961
44927W        W15527  28.042  12.107   0.462
44928W        W15528   5.983  33.660   2.155
44929W        W15529  25.524  20.741  11.099
44930W        W15530  20.513  27.141   2.389
44931W        W15531  11.771   9.674  14.978
44932W        W15532  21.363  12.202   0.379
44933W        W15533  35.653  30.153   3.044
44934W        W15534  24.147   7.162   1.445
44935W        W15535  41.226  22.852  13.259
44936W        W15536  41.024  28.738   3.528
44937W        W15537  41.007  36.783   1.267
44938W        W15538   7.764   0.468  10.708
44939W        W15539  31.044  20.065   0.923
44940W        W15540  16.807  37.991   1.417
44941W        W15541  16.652  16.964   1.435
44942W        W15542  22.429  17.219  12.871
44943W        W15543  12.836  21.062  12.689
44944W        W15544  38.604  37.508  11.893
44945W        W15545   3.813  18.606   9.967
44946W        W15546  23.061   2.402   3.277
44947W        W15547   1.389   5.851   1.686
44948W        W15548  11.514   5.841   0.279
44949W        W15549  29.384  26.912   0.424
44950W        W15550  43.000  17.351  14.478
44951W        W15551  32.044  40.821   1.354
44952W        W15552  40.859  23.472   2.429
44953W        W15553  15.791   5.590  10.348
44954W        W15554  44.492  22.917  13.031
44955W        W15555   9.066   7.370  11.615
44956W        W15556   4.271  43.569  11.959
44957W        W15557  22.853  34.431   2.739
44958W        W15558  24.547  34.533  12.118
44959W        W15559  38.100  36.517  10.699
44960W        W15560  25.763  17.335   1.792
44961W        W15561  43.494   4.046   2.499
44962W        W15562  26.699  10.097   2.207
44963W        W15563   8.132  33.719  14.320
44964W        W15564  29.756  36.100   3.579
44965W        W15565  16.733   7.578   3.376
44966W        W15566  38.083  37.295   4.637
44967W        W15567  39.373   8.823  13.426
44968W        W15568  35.225  25.906  12.122
44969W        W15569  12.868  20.060  11.994
44970W        W15570  13.913  19.127  10.781
44971W        W15571  19.566  29.140   0.281
44972W        W15572   4.763   8.513  10.205
44973W        W15573  16.765  13.550   3.245
44974W        W15574  43.817  13.317  13.178
44975W        W15575  15.316  32.995  13.104
44976W        W15576  24.457  37.988  14.122
44977W        W15577   6.292  41.739  13.960
44978W        W15578  13.171  19.259   0.364
44979W        W15579  19.996  19.217  11.301
44980W        W15580  19.885  41.061   1.286
44981W        W15581  29.412   1.449  13.487
44982W        W15582  37.343   6.161  14.780
44983W        W15583   5.291   8.376  11.699
44984W        W15584  19.791  42.828  12.911
44985W        W15585  15.270  15.567  11.056
44986W        W15586   4.163  44.838  10.555
44987W        W15587  12.975  10.801   0.940
44988W        W15588  36.010  18.548   2.736
44989W        W15589  44.716  43.914   3.684
44990W        W15590  16.706  27.169   1.480
44991W        W15591   3.723  13.759   2.817
44992W        W15592  25.578  19.281   2.701
44993W        W15593  35.057   3.170  13.593
44994W        W15594  10.587  32.890  14.828
44995W        W15595  14.292  32.646   3.289
44996W        W15596  25.301  11.093   0.414
44997W        W15597  38.183  44.861  11.204
44998W        W15598  14.125  20.672  12.987
44999W        W15599   6.641  21.999  14.277
45000W        W15600  33.910   4.158  14.000
45001W        W15601  23.727  39.281   0.900
45002W        W15602  13.586  40.829   1.888
45003W        W15603  21.663  20.683  14.788
45004W        W15604  28.172  13.082  11.058
45005W        W15605   4.926  10.895   2.304
45006W        W15606   7.876  11.091   2.201
45007W        W15607  17.060  33.589  13.725
45008W        W15608   2.833  31.949   3.604
45009W        W15609  36.477  37.674   2.827
45010W        W15610  15.132  15.695   1.848
45011W        W15611  22.621  29.528  11.489
45012W        W15612  32.156  16.793  13.918
45013W        W15613  14.673  37.811  12.498
45014W        W15614  20.428  30.003   1.686
45015W        W15615   5.136  10.219   3.877
45016W        W15616   2.780  37.871   1.443
45017W        W15617   5.331  44.787   2.431
45018W        W15618  22.501   4.370   4.619
45019W        W15619  29.348  43.481   2.115
45020W        W15620  32.051  25.272   4.213
45021W        W15621  29.571  38.467  12.407
45022W        W15622  10.871  26.531   3.650
45023W        W15623   0.261   7.359  12.438
45024W        W15624  21.257  10.356   1.659
45025W        W15625  10.176  39.994   1.164
45026W        W15626  24.353  26.591   4.597
45027W        W15627  19.947   5.810  12.008
45028W        W15628   6.333  29.199  13.829
45029W        W15629  19.532  40.876   4.644
45030W        W15630  24.136   5.367   3.971
45031W        W15631  28.393  30.171  11.557
45032W        W15632   1.390   5.648   2.168
45033W        W15633  33.234  32.790  11.538
45034W        W15634  44.316  27.497   1.972
45035W        W15635  25.294   9.249   4.119
45036W        W15636   6.609  12.751  13.483
45037W        W15637  32.982  26.562   3.263
45038W        W15638  16.783  33.384   0.630
45039W        W15639  15.901  44.391  11.155
45040W        W15640   4.704  25.011  13.932
45041W        W15641   8.576  18.268   4.299
45042W        W15642  27.970  12.705  11.543
45043W        W15643  31.919  18.149   1.947
45044W        W15644   6.346  22.410  10.538
45045W        W15645  21.986   6.117   4.882
45046W        W15646  18.064  25.046   0.031
45047W        W15647   8.433  36.511  13.435
45048W        W15648  27.453   6.073  11.133
45049W        W15649  43.403  28.015   3.762
45050W        W15650   0.755  10.533   2.825
45051W        W15651  32.412   8.121   1.867
45052W        W15652  11.826  40.836  13.832
45053W        W15653  15.265  41.083  11.684
45054W        W15654   5.278   0.130  14.737
45055W        W15655  13.758  26.164   4.175
45056W        W15656  25.586  39.529  10.929
45057W        W15657  36.371   3.260  12.378
45058W        W15658   3.267  30.180  10.881
45059W        W15659  43.457  31.100  12.052
45060W        W15660  37.992  44.878  14.588
45061W        W15661   3.936  21.312  11.155
45062W        W15662  44.502  20.564   5.057
45063W        W15663  33.070   9.862  11.158
45064W        W15664  12.703  34.589  10.380
45065W        W15665  13.666  31.612   0.064
45066W        W15666  34.333  11.724  10.724
45067W        W15667   6.772  14.271   4.668
45068W        W15668  36.860  26.059  11.008
45069W        W15669  36.848  40.607  13.378
45070W        W15670   3.959  14.492  14.085
45071W        W15671  24.558  18.616  11.511
45072W        W15672  36.980  28.264   2.661
45073W        W15673  37.745  43.320  11.991
45074W        W15674  34.579  41.981   3.116
45075W        W15675   4.881  24.492   1.456
45076W        W15676  26.242  23.729   2.260
45077W        W15677   0.505   9.882   4.694
45078W        W15678  37.430  34.536   1.008
45079W        W15679  32.449  31.573   1.290
45080W        W15680  30.085  10.549   2.252
45081W        W15681  27.787  35.053   2.246
45082W        W15682   4.661  44.055   2.901
45083W        W15683  34.935  23.724  12.001
45084W        W15684  10.400  33.383  13.488
45085W        W15685  20.786  39.022  13.381
45086W        W15686  24.013  24.893  11.232
45087W        W15687  37.017  22.229  11.635
45088W        W15688  39.253  22.775   4.210
45089W        W15689   2.299   1.817   4.538
45090W        W15690  14.134  31.315   2.144
45091W        W15691  12.236  41.707  14.395
45092W        W15692  41.864  20.023  13.057
45093W        W15693  18.835  23.050   4.657
45094W        W15694  43.597  35.964  12.106
45095W        W15695   7.965  28.148   3.555
45096W        W15696  32.896   3.230   1.043
45097W        W15697  35.447  37.096  11.588
45098W        W15698   4.536  19.548   2.581
45099W        W15699   5.871  30.516   3.439
45100W        W15700  11.838  31.257   1.915
45101W        W15701   3.763  38.452   2.616
45102W        W15702  33.827   8.305  14.723
45103W        W15703  29.982  28.887   2.699
45104W        W15704  25.042   5.714   4.503
45105W        W15705  37.410  24.074  13.848
45106W        W15706   4.672  22.206  12.279
45107W        W15707  22.980  10.217  13.996
45108W        W15708   6.704  14.376   3.749
45109W        W15709  10.402  22.153   1.208
45110W        W15710  42.062  37.861   3.417
45111W        W15711  29.936  35.106   0.433
45112W        W15712  22.320  23.576   1.307
45113W        W15713   8.683  42.508  10.642
45114W        W15714  24.184  41.915  13.974
45115W        W15715  15.574  12.477  10.291
45116W        W15716  41.446  19.031  11.358
45117W        W15717  28.001  11.217   2.004
45118W        W15718  30.400   1.056  12.356
45119W        W15719  41.521  32.443   1.441
45120W        W15720  41.254  43.362   3.689
45121W        W15721  24.895  44.772   1.584
45122W        W15722  35.927  30.642  13.491
45123W        W15723  10.832  19.148  14.937
45124W        W15724  37.604  19.200  11.447
45125W        W15725  19.629  21.177  13.387
45126W        W15726   3.835  29.685  12.623
45127W        W15727  38.119  27.223   0.984
45128W        W15728  35.049  11.370   3.494
45129W        W15729  11.768  39.841  11.173
45130W        W15730  44.532  21.418   0.289
45131W        W15731  33.511  13.591   4.134
45132W        W15732  37.575  27.400  11.445
45133W        W15733  29.283  22.965  10.827
45134W        W15734  36.105  30.443  14.360
45135W        W15735  35.647  16.163  13.385
45136W        W15736   4.277  26.363   2.654
45137W        W15737  39.495  38.605   1.329
45138W        W15738  42.052   1.421   0.245
45139W        W15739  44.825  26.136  12.442
45140W        W15740  30.913  24.467  13.505
45141W        W15741  27.974  23.539  14.530
45142W        W15742  32.886  29.247   3.527
45143W        W15743  32.553  22.611   3.210
45144W        W15744  21.259  24.329  12.129
45145W        W15745  44.443  10.246   4.055
45146W        W15746  34.021  27.269   1.325
45147W        W15747   3.143  41.776  12.174
45148W        W15748  15.602  24.787   0.312
45149W        W15749  35.812  34.157   1.554
45150W        W15750   7.825  35.952  13.026
45151W        W15751  35.837  42.436  13.055
45152W        W15752  38.964   5.285  14.563
45153W        W15753  44.157  23.184   4.541
45154W        W15754   1.011  19.741   1.539
45155W        W15755   7.253   6.616  12.359
45156W        W15756  29.135   3.537  11.077
45157W        W15757   2.811   7.768   4.275
45158W        W15758   4.505  10.472   1.325
45159W        W15759  38.885  37.857  11.530
45160W        W15760  20.700  31.223  13.339
45161W        W15761  27.815  38.970   2.381
45162W        W15762  14.904  30.930  12.479
45163W        W15763   7.322  32.524  10.937
45164W        W15764  30.966  24.146   1.333
45165W        W15765  41.973  22.981   2.730
45166W        W15766   5.940  36.763   1.225
45167W        W15767   2.345  12.316  12.930
45168W        W15768  40.586  15.302  14.382
45169W        W15769   9.274  34.049  13.288
45170W        W15770  28.864  29.588  13.876
45171W        W15771  40.904  29.691  14.428
45172W        W15772  26.644  17.526  13.113
45173W        W15773   2.472  40.448  13.527
45174W        W15774  16.215  12.054   4.292
45175W        W15775  44.719  33.867   3.464
45176W        W15776   4.985  24.672  10.609
45177W        W15777  11.107  10.316   4.693
45178W        W15778  22.005   8.814   0.369
45179W        W15779  37.891  37.478   1.931
45180W        W15780  39.995  44.884   3.286
45181W        W15781   3.302  36.734  13.808
45182W        W15782   4.851  15.708  14.363
45183W        W15783  11.827  22.140   4.589
45184W        W15784  18.336  12.301  12.294
45185W        W15785  32.335   1.364  11.992
45186W        W15786  36.091   7.753   0.844
45187W        W15787  21.754  25.680   4.291
45188W        W15788   3.819   4.176  10.447
45189W        W15789  43.343  31.050   2.242
45190W        W15790  21.028   5.226   4.007
45191W        W15791   2.031  15.822  11.619
45192W        W15792  28.404  36.806   1.303
45193W        W15793  30.197  38.418  10.636
45194W        W15794  30.578  31.402  12.910
45195W        W15795   3.963   8.781   2.718
45196W        W15796  19.579  39.276   0.014
45197W        W15797  36.944   0.984   4.841
45198W        W15798   0.876   2.782  11.489
45199W        W15799  19.787  22.191  14.776
45200W        W15800  21.133  29.527   0.714
45201W        W15801  22.611  37.902   1.452
45202W        W15802  32.557  34.990  14.811
45203W        W15803  35.878  22.927  11.208
45204W        W15804   1.024  43.415   3.718
45205W        W15805  29.142  15.352   2.253
45206W        W15806  16.689  32.425  11.723
45207W        W15807   7.917  13.743  11.136
45208W        W15808  27.090   2.486   0.532
45209W        W15809  12.548  41.989   4.579
45210W        W15810  33.436  21.451  14.092
45211W        W15811   9.749   6.915   2.227
45212W        W15812  13.329  35.493   0.012
45213W        W15813  25.047  44.556  11.511
45214W        W15814  26.500  38.677  10.531
45215W        W15815  26.622   0.305   0.404
45216W        W15816   2.279  23.700   2.559
45217W        W15817  34.470  38.398   0.885
45218W        W15818  28.903  32.580   3.328
45219W        W15819  19.479  23.955  10.670
45220W        W15820  41.512  21.733   2.945
45221W        W15821  26.779  26.762   1.115
45222W        W15822  34.664  24.233  11.156
45223W        W15823   2.814  29.948  10.640
45224W        W15824  23.149  34.107   4.551
45225W        W15825  16.642   4.407   2.394
45226W        W15826  15.760  31.277   4.684
45227W        W15827  35.586   7.401   1.337
45228W        W15828  40.335  12.398   1.377
45229W        W15829   1.855   1.338  11.311
45230W        W15830  31.439   7.347  11.182
45231W        W15831  36.483  24.003  13.507
45232W        W15832  35.459  36.530  10.766
45233W        W15833  28.934  25.212  11.628
45234W        W15834  35.932  18.728   0.463
45235W        W15835  29.051  20.902  14.400
45236W        W15836   9.351  10.865  14.890
45237W        W15837  26.002  25.186   2.323
45238W        W15838  27.025   7.862  14.846
45239W        W15839  10.829  15.555  11.067
45240W        W15840  39.929   8.105  10.856
45241W        W15841   1.665  26.482  13.790
45242W        W15842  15.571  26.226  14.805
45243W        W15843  17.725   2.992  12.587
45244W        W15844  38.557  21.956  13.346
45245W        W15845  38.358  28.644   3.874
45246W        W15846  41.595  32.466   2.953
45247W        W15847  17.597  38.904  14.366
45248W        W15848   8.232  18.823   1.873
45249W        W15849  27.509  42.886   4.625
45250W        W15850  10.378  36.419   4.140
45251W        W15851  44.987  11.593   0.921
45252W        W15852   7.042  28.557  11.486
45253W        W15853  22.512  13.442  11.625
45254W        W15854   1.297   8.948   4.014
45255W        W15855  26.220  36.004  12.771
45256W        W15856   9.710   7.121  13.375
45257W        W15857  36.901  23.172  12.156
45258W        W15858  18.616  28.964  11.364
45259W        W15859  34.554  10.661   1.416
45260W        W15860  32.133   9.250  13.037
45261W        W15861  32.490  25.781   1.434
45262W        W15862  16.551   0.232   0.960
45263W        W15863  19.274  25.678  13.443
45264W        W15864  34.976  10.660   4.215
45265W        W15865  10.771  40.229   0.054
45266W        W15866   3.927   1.465  14.344
45267W        W15867  12.512  13.951   1.271
45268W        W15868  14.719  41.620  11.035
45269W        W15869  27.897  30.613  14.061
45270W        W15870   8.822   0.079   1.299
45271W        W15871  27.158   6.832   0.745
45272W        W15872  26.229  28.752  12.109
45273W        W15873  41.312  27.279   3.314
45274W        W15874  43.050  28.997   4.379
45275W        W15875  26.657  14.230   3.396
45276W        W15876  22.915  18.042  11.849
45277W        W15877  26.101   5.875   4.562
45278W        W15878  33.904  14.389   2.172
45279W        W15879  41.745  15.021   1.939
45280W        W15880   9.390  27.599  11.202
45281W        W15881  30.662  11.957  11.131
45282W        W15882   1.228   0.816   0.820
45283W        W15883  28.019   2.047   1.902
45284W        W15884  15.347  35.267  13.920
45285W        W15885  40.007  38.003  12.555
45286W        W15886  30.509  14.376  13.988
45287W        W15887  28.305  34.840   4.690
45288W        W15888  13.585  24.983  12.084
45289W        W15889  31.923  38.054   1.095
45290W        W15890  34.881  42.551  14.339
45291W        W15891  25.882   3.301  10.715
45292W        W15892  21.279  10.947   3.300
45293W        W15893  44.203   6.613  12.963
45294W        W15894  30.111  40.144  11.618
45295W        W15895   6.554  43.483   2.439
45296W        W15896  23.485  44.985  14.530
45297W        W15897   2.510  29.597   0.656
45298W        W15898  33.317  28.157  12.333
45299W        W15899  42.710  40.595  12.491
45300W        W15900  21.113   2.538   3.134
45301W        W15901  28.020   8.728  13.876
45302W        W15902  32.849  14.559  12.445
45303W        W15903  27.036  13.614  14.535
45304W        W15904  21.627  38.171  13.038
45305W        W15905  23.203  30.098   4.551
45306W        W15906   6.278   6.979  11.338
45307W        W15907   0.295  32.967   3.080
45308W        W15908  38.861  36.416  11.697
45309W        W15909  14.309   8.364  12.981
45310W        W15910  25.262  24.639  14.833
45311W        W15911  33.562  41.216   3.015
45312W        W15912  43.041  17.862  11.933
45313W        W15913  35.972  43.882  10.680
45314W        W15914  25.538  36.150   4.105
45315W        W15915  43.481  33.715   2.299
45316W        W15916  42.312   2.481  11.661
45317W        W15917  39.044   1.031  14.002
45318W        W15918  12.338  10.661  13.971
45319W        W15919  28.224  35.582  12.389
45320W        W15920  30.934  22.217  11.407
45321W        W15921  14.328  16.779  12.782
45322W        W15922  43.953   0.029  14.796
45323W        W15923  21.195  10.231   0.244
45324W        W15924  20.046  18.582  13.364
45325W        W15925  38.888  19.631  11.147
45326W        W15926  18.262   4.302   0.332
45327W        W15927  22.815   6.777  11.520
45328W        W15928  27.186  33.161   2.953
45329W        W15929  43.230  16.158  13.055
45330W        W15930   5.835  37.445   0.371
45331W        W15931  43.044  13.761   3.679
45332W        W15932  43.082  42.280  14.082
45333W        W15933  39.385  14.699  12.216
45334W        W15934  24.081  32.549   0.714
45335W        W15935   5.050  44.934  14.237
45336W        W15936  43.055   8.685   3.640
45337W        W15937  38.930  36.952  11.874
45338W        W15938  26.548  29.028   4.496
45339W        W15939  40.457  35.523  14.699
45340W        W15940  44.751   5.369   0.792
45341W        W15941  29.670  27.412  12.607
45342W        W15942   2.253  27.681   4.517
45343W        W15943  15.213  26.457   4.825
45344W        W15944  21.397   6.402   0.307
45345W        W15945   2.649  28.004  10.715
45346W        W15946  35.032  44.482   3.706
45347W        W15947   2.202  40.755  11.085
45348W        W15948  42.280   8.697   2.181
45349W        W15949  31.854   2.426  11.846
45350W        W15950  38.961   4.773  14.976
45351W        W15951  44.302  44.023  14.474
45352W        W15952  24.249   3.003  11.963
45353W        W15953  27.251  34.612  12.539
45354W        W15954   8.372  14.746   0.907
45355W        W15955   6.085   1.553  13.419
45356W        W15956  41.772  37.619  12.556
45357W        W15957  24.708  19.664   1.390
45358W        W15958  36.301  36.158   3.698
45359W        W15959  17.389   7.400   4.029
45360W        W15960  43.945  39.819  10.847
45361W        W15961  18.849   3.117  10.645
45362W        W15962   8.867  15.756  14.317
45363W        W15963  31.198  14.280   3.377
45364W        W15964  30.912  16.883   4.435
45365W        W15965  36.798  31.547  13.441
45366W        W15966   3.030  22.061   1.197
45367W        W15967  16.302  10.577  13.225
45368W        W15968   1.454  26.930   1.710
45369W        W15969  16.266  38.549  13.125
45370W        W15970   0.849  22.620  12.885
45371W        W15971   8.727  43.535  11.577
45372W        W15972  39.876  28.122   4.597
45373W        W15973  34.750   5.331   2.202
45374W        W15974  12.227  42.053  14.008
45375W        W15975  40.848  25.033   1.241
45376W        W15976  26.905  44.402  14.578
45377W        W15977   9.306  37.844  10.662
45378W        W15978  30.877   5.756   4.777
45379W        W15979  18.899   6.486  11.210
45380W        W15980  42.921  29.301  12.108
45381W        W15981  35.637  44.488   3.799
45382W        W15982   4.867  34.973  13.363
45383W        W15983  18.107  23.219   3.876
45384W        W15984  36.204  24.370   1.717
45385W        W15985  19.409  39.570  11.972
45386W        W15986  11.618  27.090   2.515
45387W        W15987  29.781   4.210   4.277
45388W        W15988   7.206  22.066   1.243
45389W        W15989  39.302  31.486   5.020
45390W        W15990   3.974  18.642   0.000
45391W        W15991  19.025  41.306   2.429
45392W        W15992  43.006  11.912   3.097
45393W        W15993  32.383  23.309   1.226
45394W        W15994  12.801  16.058  12.110
45395W        W15995  43.385  33.786   4.444
45396W        W15996  31.438  12.676   2.319
45397W        W15997   8.448  36.670   2.183
45398W        W15998   5.949  30.409  10.505
45399W        W15999  21.956  42.304   0.974
45400W        W16000  19.693  35.351   0.825
45401W        W16001  28.505  42.841   3.644
45402W        W16002  41.772   3.358   2.293
45403W        W16003  11.599  44.387   2.603
45404W        W16004  27.501   2.391   4.553
45405W        W16005   4.164  23.922  13.227
45406W        W16006  15.093  36.442   1.809
45407W        W16007  16.826  35.754  11.220
45408W        W16008  35.692  19.293   3.414
45409W        W16009  29.074  38.494   2.154
45410W        W16010  21.982  20.094  11.118
45411W        W16011   0.793  16.314   3.849
45412W        W16012  22.776  37.514   0.192
45413W        W16013  16.562  37.021  10.106
45414W        W16014  40.870   3.709  11.089
45415W        W16015   3.498  22.104   4.353
45416W        W16016  39.480   4.439  14.303
45417W        W16017   3.850  26.962  11.605
45418W        W16018  44.334  35.577  12.020
45419W        W16019   8.592  13.214   0.868
45420W        W16020  19.055  40.421   2.318
45421W        W16021  41.297  44.623   4.123
45422W        W16022   5.955  28.646   2.765
45423W        W16023  14.162  44.842   0.743
45424W        W16024   3.960  24.093   1.327
45425W        W16025  37.972  11.343   2.624
45426W        W16026  31.601  38.751  14.165
45427W        W16027  40.877  38.043   3.596
45428W        W16028  19.045  28.906  11.657
45429W        W16029  23.474  44.072   0.727
45430W        W16030  14.593  15.207  11.843
45431W        W16031   7.446  14.364  12.336
45432W        W16032   9.956  31.811   5.046
45433W        W16033   9.027  41.374   2.171
45434W        W16034  11.178   8.385  12.096
45435W        W16035   8.317  40.959  13.039
45436W        W16036  18.177  26.152  13.995
45437W        W16037   8.042  29.925  12.099
45438W        W16038   8.430  19.629  11.616
45439W        W16039  25.730  19.046   2.150
45440W        W16040   2.218  33.022   2.391
45441W        W16041   0.666  33.445  11.009
45442W        W16042  37.153  33.167   2.036
45443W        W16043   6.918  44.741   4.794
45444W        W16044  29.915  22.585  12.664
45445W        W16045  34.613   7.123  13.056
45446W        W16046  36.380  29.206  13.879
45447W        W16047  26.777  41.090  12.099
45448W        W16048   9.447  36.891  11.992
45449W        W16049  17.491  37.753   9.799
45450W        W16050  41.740  26.579   3.708
45451W        W16051  29.991  22.737   0.736
45452W        W16052  15.355  29.199   4.826
45453W        W16053   5.623  43.033   1.490
45454W        W16054  33.419  34.486   4.716
45455W        W16055  36.909  37.631   1.256
45456W        W16056  25.230  43.948   9.703
45457W        W16057  38.720  14.447  13.927
45458W        W16058  24.503  25.077  14.996
45459W        W16059   0.420  26.451   1.947
45460W        W16060  44.353  10.795  11.685
45461W        W16061  41.703  26.600  12.066
45462W        W16062  10.347   7.588  12.882
45463W        W16063  26.927  43.557  12.630
45464W        W16064  34.549  20.246  12.588
45465W        W16065  21.107  41.248  14.066
45466W        W16066  31.048  34.793   0.529
45467W        W16067  14.158  15.369  14.933
45468W        W16068  16.687  17.500  14.424
45469W        W16069  40.624  31.571  14.377
45470W        W16070  37.510  18.007  10.311
45471W        W16071  29.502  41.546  14.358
45472W        W16072  15.053  15.935   5.024
45473W        W16073   4.356   6.329  11.840
45474W        W16074  44.979   8.656   4.630
45475W        W16075  36.001  25.772  10.734
45476W        W16076  10.200  15.627   0.603
45477W        W16077   6.697   9.892  14.935
45478W        W16078   4.175   3.974   0.924
45479W        W16079  23.465  11.171  12.447
45480W        W16080  20.939   6.677  13.525
45481W        W16081  19.367  10.234   1.449
45482W        W16082  39.851  22.267   2.221
45483W        W16083  13.445  23.578  12.086
45484W        W16084  10.887  10.889  13.438
45485W        W16085  18.536  22.962   2.005
45486W        W16086  42.413   1.347   0.581
45487W        W16087  38.244  28.948  11.026
45488W        W16088  10.332   8.472   3.653
45489W        W16089  24.426  30.520  14.961
45490W        W16090  23.473  24.148   0.488
45491W        W16091   9.023   2.829   4.327
45492W        W16092   4.186  35.731   1.952
45493W        W16093   8.606  32.215  11.188
45494W        W16094  16.507  38.689   2.656
45495W        W16095   0.397   2.172  14.493
45496W        W16096  29.718   6.367   4.876
45497W        W16097  15.044   5.187   3.314
45498W        W16098  21.280  34.493   1.271
45499W        W16099   7.880   0.743   3.725
45500W        W16100  21.098  42.250  12.653
45501W        W16101  23.017  16.851  14.032
45502W        W16102  30.683  11.679  14.474
45503W        W16103   8.350  17.904  12.095
45504W        W16104  27.025  20.198  13.079
45505W        W16105  13.597  39.925   0.471
45506W        W16106  21.054  17.112   2.716
45507W        W16107  14.077  36.883   0.409
45508W        W16108  19.437  34.056   0.452
45509W        W16109  21.011  11.383   3.207
45510W        W16110  29.414  37.845  10.650
45511W        W16111  29.393  21.113  10.342
45512W        W16112  23.644   7.764   3.410
45513W        W16113  19.262  17.085   2.753
45514W        W16114  14.021   2.868  14.860
45515W        W16115  13.561   8.341  11.019
45516W        W16116  41.914  24.527   3.648
45517W        W16117  19.688  41.061  12.086
45518W        W16118   5.667  32.889  14.374
45519W        W16119  20.394  22.960   3.716
45520W        W16120  27.927  43.782  14.267
45521W        W16121  32.038  26.575   4.671
45522W        W16122  31.258  34.824   1.789
45523W        W16123  21.255  38.105   4.507
45524W        W16124  41.451   0.522  13.444
45525W        W16125  15.026  39.422   1.324
45526W        W16126  25.741  19.837   3.565
45527W        W16127   9.643  44.001   3.198
45528W        W16128  29.346  23.892  12.947
45529W        W16129  31.670   4.985   4.712
45530W        W16130  37.878  29.808  11.108
45531W        W16131  28.006  25.513  11.498
45532W        W16132  26.885  25.213   2.838
45533W        W16133  42.366  23.995   1.665
45534W        W16134  23.648  19.026  11.691
45535W        W16135  13.403  11.393  13.292
45536W        W16136  42.980  11.076  12.474
45537W        W16137  11.399  28.159   4.184
45538W        W16138  31.025  36.143  12.520
45539W        W16139  33.822  25.277   3.755
45540W        W16140  22.604   3.526  12.569
45541W        W16141  33.568  34.108   3.405
45542W        W16142  21.435  30.981  10.340
45543W        W16143  10.705  25.910  14.472
45544W        W16144  12.108   8.140   2.866
45545W        W16145  40.815  27.903  12.098
45546W        W16146   1.139   9.606   0.112
45547W        W16147   9.228   6.366   3.741
45548W        W16148  17.954  15.095   1.220
45549W        W16149  16.454  21.768  11.140
45550W        W16150   6.717   6.696  13.373
45551W        W16151   8.340  22.047   4.580
45552W        W16152   8.182  44.276  12.313
45553W        W16153   5.529  18.336  13.253
45554W        W16154  18.786   8.361  13.459
45555W        W16155   5.428  44.206  12.629
45556W        W16156  34.564  19.933   3.545
45557W        W16157   6.537  11.681   1.853
45558W        W16158  22.263  18.181   4.266
45559W        W16159   9.622   7.617  11.102
45560W        W16160  19.833  29.218   1.318
45561W        W16161  30.871  23.295  14.826
45562W        W16162  23.275  24.561   2.730
45563W        W16163  28.735  18.171  12.105
45564W        W16164  27.271   8.410  14.540
45565W        W16165  14.511   6.940  14.077
45566W        W16166  20.183  32.939   1.885
45567W        W16167  38.089  10.851  11.679
45568W        W16168  12.281  28.588   4.910
45569W        W16169   9.793   1.804  13.899
45570W        W16170  44.269   1.498  11.514
45571W        W16171  29.800   2.470  14.425
45572W        W16172   0.568  18.595   2.349
45573W        W16173   0.443  37.644   4.647
45574W        W16174  18.593  33.585  11.480
45575W        W16175   9.298   6.167  14.408
45576W        W16176  39.183  14.748   3.275
45577W        W16177  43.863  43.827  14.717
45578W        W16178   6.594  38.497  10.419
45579W        W16179   3.238   6.236   4.667
45580W        W16180  17.549  17.693  11.260
45581W        W16181   3.832  10.157  13.851
45582W        W16182  35.342  30.639   5.006
45583W        W16183  14.050   9.757  14.909
45584W        W16184  33.781  40.404   4.155
45585W        W16185  37.616  38.318   2.236
45586W        W16186  11.798  41.435   4.529
45587W        W16187  36.854  25.455  13.896
45588W        W16188  31.386  26.190   2.707
45589W        W16189   4.375  12.591   4.708
45590W        W16190  36.990  43.233  12.380
45591W        W16191  42.593  36.896   2.364
45592W        W16192   6.348  29.639  13.588
45593W        W16193   0.453  42.411  10.627
45594W        W16194   7.431  23.164   2.425
45595W        W16195   6.938  36.936   0.459
45596W        W16196  13.546  41.043  14.353
45597W        W16197  12.729  25.543  13.435
45598W        W16198   4.877  44.865  11.546
45599W        W16199  22.290   3.642   0.454
45600W        W16200  24.559  19.658  14.888
45601W        W16201  15.264  23.506   0.714
45602W        W16202  33.052  35.780   3.502
45603W        W16203   5.257  25.170  13.578
45604W        W16204  36.311  40.843  13.273
45605W        W16205  35.977  28.828  12.571
45606W        W16206  20.715  19.718  10.808
45607W        W16207  24.913   5.235   3.063
45608W        W16208  37.624  41.487   2.725
45609W        W16209  13.477  34.676  14.646
45610W        W16210  33.599  26.003  14.085
45611W        W16211   8.465   4.888   4.834
45612W        W16212  10.196  39.245   0.874
45613W        W16213  21.038  36.745   1.168
45614W        W16214  15.532  40.267  11.224
45615W        W16215   2.318  22.267   2.947
45616W        W16216   5.911  20.219   1.819
45617W        W16217  18.108   3.749   3.970
45618W        W16218  12.847   2.459  12.114
45619W        W16219  35.527  32.299  13.995
45620W        W16220  10.289  14.367  11.595
45621W        W16221   7.212  15.236  14.304
45622W        W16222  28.376  24.715  12.108
45623W        W16223  39.939  44.681  13.920
45624W        W16224  42.173  29.514  14.758
45625W        W16225  18.570   7.455  10.191
45626W        W16226  27.842  16.324   4.093
45627W        W16227  12.494  25.756   1.965
45628W        W16228  44.558  21.057  11.907
45629W        W16229  42.832  14.331   1.162
45630W        W16230  10.128  22.284  13.479
45631W        W16231   7.603  38.837  12.496
45632W        W16232  30.485   9.411  12.873
45633W        W16233  10.442  19.566   2.748
45634W        W16234  31.703   0.395   0.851
45635W        W16235  18.844  34.380  11.695
45636W        W16236  10.621  26.790  12.025
45637W        W16237  24.023  13.233   2.372
45638W        W16238   1.764  31.431  11.114
45639W        W16239   1.450  17.251  13.447
45640W        W16240  12.294  28.418   2.130
45641W        W16241   9.565  29.095  11.396
45642W        W16242  14.009   5.965  13.885
45643W        W16243  33.052  19.376  13.551
45644W        W16244   2.467   4.752   1.372
45645W        W16245  23.885  13.334  13.511
45646W        W16246  11.060  16.762   2.727
45647W        W16247  28.749  20.808  12.082
45648W        W16248  42.443  37.583   0.134
45649W        W16249  22.730  13.878  14.395
45650W        W16250   1.431  40.975   2.819
45651W        W16251  15.202  31.351   2.681
45652W        W16252  10.607   4.859  12.991
45653W        W16253  19.473  39.230  11.577
45654W        W16254  13.613  38.798  12.671
45655W        W16255   1.348  20.792  11.546
45656W        W16256  13.135  39.500   1.546
45657W        W16257   7.178  26.576   4.341
45658W        W16258  17.298  44.730  11.555
45659W        W16259  10.306  23.543  12.863
45660W        W16260  16.325   7.330   4.665
45661W        W16261  39.814  18.390   1.278
45662W        W16262  16.002  27.327   4.649
45663W        W16263  42.296   9.806  14.796
45664W        W16264  43.494  18.568   3.774
45665W        W16265  34.623  11.706   1.330
45666W        W16266  29.571  17.019  14.520
45667W        W16267  11.696  22.949  11.664
45668W        W16268   6.745  23.509   2.609
45669W        W16269  20.771   0.760   1.225
45670W        W16270  19.191   6.331  10.790
45671W        W16271  11.557  22.711  12.101
45672W        W16272  21.452   4.441   2.304
45673W        W16273  31.426   1.722   2.686
45674W        W16274   3.809  44.491  10.309
45675W        W16275  33.843  17.155   2.113
45676W        W16276  30.185  16.286   4.760
45677W        W16277   9.224  44.298   3.322
45678W        W16278   9.334  15.573  14.473
45679W        W16279  27.597  12.867   3.332
45680W        W16280  10.307   5.496  11.918
45681W        W16281  29.251   8.667   3.166
45682W        W16282  10.591   3.407   0.992
45683W        W16283  32.178   2.676   2.424
45684W        W16284   9.809   3.262  13.064
45685W        W16285  19.537  23.682  10.232
45686W        W16286   2.365  18.147  13.043
45687W        W16287  41.931   4.046   0.449
45688W        W16288  15.658  42.023   0.424
45689W        W16289  28.620  43.262   3.934
45690W        W16290  38.946  20.542   1.707
45691W        W16291   7.702  18.785   0.787
45692W        W16292  16.780  44.299   4.757
45693W        W16293  17.537  39.886  12.373
45694W        W16294   4.875  30.966   3.983
45695W        W16295  12.100  25.000   2.272
45696W        W16296  10.008  35.094  11.269
45697W        W16297   2.293  42.367   2.869
45698W        W16298  29.421   4.463  13.309
45699W        W16299  12.559  25.607   0.725
45700W        W16300  38.358  14.426  13.349
45701W        W16301  42.012   7.725  14.476
45702W        W16302  23.466  22.145   1.821
45703W        W16303   5.511  11.267  12.113
45704W        W16304   2.665  24.987  11.737
45705W        W16305  23.084  44.390   2.238
45706W        W16306  34.505  15.871  13.255
45707W        W16307  41.426  14.638  13.081
45708W        W16308  43.978  38.568   2.708
45709W        W16309  17.518  42.484  14.493
45710W        W16310   4.617   7.965   2.736
45711W        W16311  11.170   9.723  12.153
45712W        W16312   8.852   1.745  11.565
45713W        W16313  29.591  17.582   4.745
45714W        W16314  27.280  42.931  11.381
45715W        W16315  34.587   8.832   3.636
45716W        W16316  29.265   0.871  14.548
45717W        W16317  35.409  15.199   4.560
45718W        W16318  38.872  25.223  10.318
45719W        W16319  27.541  39.564   0.084
45720W        W16320  39.074  20.609  14.050
45721W        W16321   1.356   2.271   1.345
45722W        W16322  35.832  34.469  11.467
45723W        W16323  14.356  36.425  13.967
45724W        W16324  20.142  23.121   4.158
45725W        W16325   6.362  41.890  10.439
45726W        W16326  27.512  40.347  13.562
45727W        W16327  40.077   7.178   0.449
45728W        W16328  15.387   0.232  14.584
45729W        W16329  19.742   4.927  14.072
45730W        W16330  43.964   9.229  11.117
45731W        W16331  39.051  21.048  10.694
45732W        W16332  15.068  44.456   4.643
45733W        W16333  33.038   2.619  14.243
45734W        W16334  13.737  18.036   1.840
45735W        W16335  44.438   4.798   2.796
45736W        W16336   4.378  39.033  11.328
45737W        W16337  37.991  14.134   3.239
45738W        W16338  19.101  27.265  14.834
45739W        W16339   0.003  18.346   0.254
45740W        W16340  29.007  11.948  12.479
45741W        W16341  39.629  32.856   2.212
45742W        W16342  29.963  17.698  11.666
45743W        W16343  31.850  40.445   3.562
45744W        W16344  28.000  14.170   3.721
45745W        W16345  24.132  40.459   2.598
45746W        W16346  34.435  37.092   1.367
45747W        W16347  42.850  24.562   4.129
45748W        W16348  34.886   0.176   2.753
45749W        W16349  42.878  28.631   3.678
45750W        W16350   8.434   8.638  13.983
45751W        W16351   0.255  27.874   4.623
45752W        W16352  32.303  34.119  13.357
45753W        W16353  36.311  24.085   1.304
45754W        W16354  10.471  44.454   1.666
45755W        W16355  24.650  23.285  13.448
45756W        W16356  13.709  16.910   0.042
45757W        W16357  32.539  14.861   0.815
45758W        W16358  12.798  24.085   4.572
45759W        W16359  28.425   1.834  12.136
45760W        W16360  19.435   3.742   1.303
45761W        W16361  33.044  20.168   1.962
45762W        W16362  29.967  24.871   0.786
45763W        W16363  17.171  32.033  13.300
45764W        W16364  38.417   6.447  11.254
45765W        W16365  35.909  10.183   4.982
45766W        W16366  32.119   1.994   0.432
45767W        W16367  41.234  43.621   2.748
45768W        W16368  10.947  20.637   4.599
45769W        W16369   5.619  21.647  13.410
45770W        W16370  27.997  13.694   2.127
45771W        W16371  29.251   1.694   3.773
45772W        W16372  19.650   1.449   0.039
45773W        W16373  38.923  40.173   5.130
45774W        W16374  30.903  31.606   2.255
45775W        W16375  24.937  15.550  13.417
45776W        W16376  44.347  33.102  12.785
45777W        W16377  21.724   3.223   1.662
45778W        W16378  24.756  28.993   0.390
45779W        W16379   5.645   6.971  12.999
45780W        W16380  28.607   2.526   1.366
45781W        W16381  17.664  31.681   0.832
45782W        W16382  16.846  10.306   0.900
45783W        W16383  20.814  24.017   5.028
45784W        W16384  23.369  27.982  13.952
45785W        W16385  39.288  22.468   3.741
45786W        W16386   4.600  27.997  11.536
45787W        W16387  32.115  39.304   0.122
45788W        W16388  29.869  41.974  13.842
45789W        W16389  44.977  15.186  14.756
45790W        W16390  36.963   2.303   4.279
45791W        W16391  31.629  31.135   3.712
45792W        W16392  36.635  43.744   0.340
45793W        W16393  42.003  13.303  12.381
45794W        W16394   0.851  20.617   4.428
45795W        W16395  23.052   6.900   0.876
45796W        W16396  14.695   7.356  14.810
45797W        W16397  18.577  22.154   0.305
45798W        W16398  27.593  25.080   1.729
45799W        W16399  44.521  38.822   1.467
45800W        W16400  23.040  12.386   0.945
45801W        W16401  28.068   4.250  14.345
45802W        W16402  27.474  43.343  13.456
45803W        W16403  36.532   2.397   4.543
45804W        W16404  42.012  17.180  10.600
45805W        W16405   1.996   1.834  11.112
45806W        W16406  11.514  32.227   1.654
45807W        W16407   7.622   0.204  11.553
45808W        W16408  17.599  27.686  12.128
45809W        W16409  42.706  35.573   0.901
45810W        W16410   9.282  23.156   0.978
45811W        W16411   8.373   2.072   3.961
45812W        W16412  32.511  16.102   2.152
45813W        W16413  31.346  19.584  11.150
45814W        W16414  23.998   2.282  13.571
45815W        W16415  44.525  28.940   2.260
45816W        W16416  16.063   5.331   1.309
45817W        W16417  33.011  20.464   1.438
45818W        W16418  17.172  44.034   1.265
45819W        W16419  29.476  31.135   4.797
45820W        W16420  32.310   6.841  12.787
45821W        W16421  28.852   5.787  11.524
45822W        W16422  38.313   7.867   3.601
45823W        W16423   6.025  36.639   2.892
45824W        W16424  33.591  23.297  10.308
45825W        W16425   2.102  28.197  13.498
45826W        W16426  15.198  10.132   3.836
45827W        W16427   3.479   2.782   1.636
45828W        W16428  38.101  41.664   2.780
45829W        W16429   5.637  22.507   1.904
45830W        W16430  35.108  29.090  13.482
45831W        W16431  38.110  12.212  12.052
45832W        W16432  14.111  42.309   3.152
45833W        W16433  20.257   7.356  13.120
45834W        W16434   7.261  10.340   3.218
45835W        W16435  30.624  33.090   1.931
45836W        W16436  43.571  27.061  12.886
45837W        W16437  16.155  40.397  14.485
45838W        W16438   5.214  15.665   4.518
45839W        W16439   9.652  30.295  14.790
45840W        W16440  34.122  24.353   0.769
45841W        W16441  38.990  13.302  13.868
45842W        W16442  30.406  39.818   1.389
45843W        W16443  22.835  11.535   3.352
45844W        W16444  29.236  37.643  11.520
45845W        W16445  30.727  16.017   2.225
45846W        W16446  33.586  41.650   2.232
45847W        W16447  26.714  41.909  12.875
45848W        W16448  24.978  36.231   1.875
45849W        W16449  44.371  24.246   4.156
45850W        W16450  35.186   2.278  14.069
45851W        W16451  17.148  44.687  12.376
45852W        W16452  41.017  28.063  14.060
45853W        W16453  30.437  42.266   2.259
45854W        W16454  21.122   4.005  13.596
45855W        W16455  29.023  35.245   0.693
45856W        W16456  10.162   7.129  13.662
45857W        W16457  24.460  28.498   1.436
45858W        W16458   3.630  21.493  13.510
45859W        W16459   0.777   6.356  12.295
45860W        W16460  19.728  43.322   4.486
45861W        W16461  33.399  12.723  10.710
45862W        W16462   7.441  20.157   4.120
45863W        W16463  36.299  20.004   4.244
45864W        W16464  29.025  33.800  14.866
45865W        W16465  22.312  38.863  13.557
45866W        W16466   6.985  36.944  11.733
45867W        W16467   3.724  34.865  12.909
45868W        W16468   7.556  34.789   0.364
45869W        W16469  24.396   5.370  12.532
45870W        W16470  32.147  39.557  10.102
45871W        W16471   9.191  13.720  14.797
45872W        W16472  28.273  18.203  11.216
45873W        W16473   0.214  15.138   2.235
45874W        W16474   3.205  18.601   3.625
45875W        W16475   4.083   5.558  10.859
45876W        W16476  30.687  33.978   0.292
45877W        W16477  33.335  25.984  13.624
45878W        W16478  32.909  15.702   4.383
45879W        W16479   6.438   0.821  11.714
45880W        W16480  17.080  16.460  12.089
45881W        W16481  21.296  19.394  12.124
45882W        W16482  36.074  27.813  11.053
45883W        W16483  15.592  44.803   1.856
45884W        W16484  13.471  19.108  14.963
45885W        W16485  15.543  17.081   0.257
45886W        W16486  44.475   1.017   0.896
45887W        W16487   6.657  11.208  13.643
45888W        W16488   6.976  38.763  11.226
45889W        W16489  11.330  37.693  10.749
45890W        W16490  34.140  14.736  14.394
45891W        W16491  35.143  40.982   1.223
45892W        W16492  26.482  23.018   0.933
45893W        W16493  34.647  44.884   1.178
45894W        W16494  41.486  27.530  14.479
45895W        W16495  42.486  15.332  12.080
45896W        W16496  22.784  37.938  10.600
45897W        W16497  24.587   5.332   2.412
45898W        W16498  10.169  12.352  12.859
45899W        W16499  10.217  18.485  13.852
45900W        W16500  28.854  24.085   2.398
45901W        W16501  30.991  37.600   2.666
45902W        W16502  40.183  42.804  13.979
45903W        W16503  43.104  10.521  13.911
45904W        W16504  32.401  20.566  14.602
45905W        W16505  37.244  12.567  13.615
45906W        W16506  32.965  27.095   3.437
45907W        W16507  20.364  32.069  12.525
45908W        W16508  14.648  34.565  13.910
45909W        W16509  25.678  32.444  11.649
45910W        W16510  33.957  38.119   4.037
45911W        W16511  40.991  44.308   2.281
45912W        W16512  35.667  40.832   1.205
45913W        W16513  11.746   8.284   4.558
45914W        W16514   2.249  38.115   2.819
45915W        W16515  13.143  19.736  11.219
45916W        W16516  21.670  24.510  12.604
45917W        W16517  37.508  21.382  13.950
45918W        W16518  25.044  37.855   2.711
45919W        W16519  35.956  14.657   3.248
45920W        W16520  41.579   1.086  13.400
45921W        W16521  19.159   6.305   3.409
45922W        W16522  29.982  27.849  14.055
45923W        W16523  11.856  44.019  12.806
45924W        W16524   4.208  29.192  11.423
45925W        W16525  29.044  17.221  14.472
45926W        W16526  31.765   6.324  10.533
45927W        W16527  41.828  15.192   3.792
45928W        W16528  34.876  25.125  11.097
45929W        W16529  14.219  33.917  13.958
45930W        W16530  24.112   6.432   1.900
45931W        W16531  11.387  16.974  12.494
45932W        W16532  17.714   4.761   2.892
45933W        W16533  43.432  26.945  13.393
45934W        W16534  10.519  43.837   1.154
45935W        W16535  14.096  35.137  10.633
45936W        W16536   9.798  20.326   4.868
45937W        W16537   4.902  33.052  13.014
45938W        W16538  41.952   8.653   3.836
45939W        W16539  36.420  15.565  12.879
45940W        W16540  40.643  41.883  12.618
45941W        W16541  25.741  24.009  10.625
45942W        W16542  33.044   4.360  14.516
45943W        W16543   9.293  38.836  11.573
45944W        W16544   2.324  21.677  12.979
45945W        W16545  29.613  24.249  11.777
45946W        W16546  35.325  18.760   2.445
45947W        W16547  22.553   5.472  12.051
45948W        W16548   5.499  27.597  10.548
45949W        W16549  36.122  21.281  11.970
45950W        W16550   5.235  14.690  14.341
45951W        W16551  28.930  39.604   2.826
45952W        W16552  15.297  10.408  13.334
45953W        W16553  41.214   0.077   0.764
45954W        W16554  41.277  18.479  14.427
45955W        W16555  19.600  36.917   4.587
45956W        W16556   3.433  13.098   2.372
45957W        W16557   0.197  14.111   3.087
45958W        W16558  19.754  19.543  10.524
45959W        W16559  14.551  39.350  13.805
45960W        W16560   2.031   8.305  13.448
45961W        W16561   8.291  16.124  14.269
45962W        W16562  36.331  34.258   2.354
45963W        W16563   5.502  39.078   1.819
45964W        W16564   2.231  23.808  10.794
45965W        W16565  14.304  29.685  11.220
45966W        W16566  28.172  30.438  14.496
45967W        W16567  26.393   6.968  12.614
45968W        W16568  13.149  18.285  13.083
45969W        W16569  39.394  27.965   4.637
45970W        W16570  38.979   4.274  14.304
45971W        W16571   0.285  33.524  14.774
45972W        W16572  21.682  25.227  13.194
45973W        W16573  33.565  22.307   0.290
45974W        W16574  29.388  16.145  14.824
45975W        W16575  38.040   3.507   1.790
45976W        W16576   1.067  31.510   4.215
45977W        W16577  35.785   6.625   4.495
45978W        W16578  40.573  34.323   1.736
45979W        W16579  35.402   0.356  14.765
45980W        W16580  32.341  15.343   0.737
45981W        W16581  38.152  15.114  14.506
45982W        W16582   0.486  30.589   0.229
45983W        W16583  20.377  15.283  10.654
45984W        W16584  17.809   5.307  14.511
45985W        W16585  38.476  16.492   2.398
45986W        W16586  37.843  16.052   0.379
45987W        W16587   7.120  41.747   0.489
45988W        W16588  21.910  37.671  12.205
45989W        W16589  21.151  33.785  11.138
45990W        W16590  14.577  30.140  14.541
45991W        W16591   6.320  39.314   1.324
45992W        W16592  13.798  18.328   3.244
45993W        W16593  21.427  34.948  14.386
45994W        W16594  11.310   0.958  13.895
45995W        W16595   4.158  20.537  14.391
45996W        W16596  17.904  38.052   5.662
45997W        W16597  43.021   4.520   4.022
45998W        W16598  18.263  41.296   0.352
45999W        W16599  10.357  15.515  12.009
46000W        W16600   3.968  38.925   0.650
46001W        W16601  23.397   3.443   0.691
46002W        W16602  11.359   2.337  13.059
46003W        W16603  38.417  32.220   0.565
46004W        W16604  21.690  40.012   4.652
46005W        W16605  29.339  12.164   3.105
46006W        W16606  24.076   7.922   1.037
46007W        W16607   4.628  10.784  14.521
46008W        W16608  33.012  23.287   2.818
46009W        W16609   4.629  29.216   1.411
46010W        W16610  10.990  11.176   0.246
46011W        W16611  33.206  41.496   1.710
46012W        W16612  39.828  34.988   2.670
46013W        W16613   4.807  27.226  11.965
46014W        W16614  27.683  26.262  11.564
46015W        W16615  20.082   3.082  11.923
46016W        W16616  41.152  21.382   2.837
46017W        W16617  42.122   0.582   4.679
46018W        W16618  31.095  36.943  12.132
46019W        W16619  16.783  34.754  11.449
46020W        W16620   5.176  25.137  14.090
46021W        W16621   0.937  12.821   0.522
46022W        W16622  18.086  28.063  10.120
46023W        W16623  26.085   8.656   2.218
46024W        W16624  43.946   5.908  11.171
46025W        W16625  33.800   2.798  14.910
46026W        W16626   4.984   5.648   4.733
46027W        W16627  19.119   8.837   4.632
46028W        W16628  22.083  35.205  12.168
46029W        W16629  43.035   7.457   0.327
46030W        W16630  32.819  13.689   1.278
46031W        W16631  37.045  43.693  11.510
46032W        W16632  21.191  42.290  10.767
46033W        W16633  18.563  20.579  13.015
46034W        W16634  11.715  43.216   2.026
46035W        W16635  13.589  20.732  14.429
46036W        W16636  23.838  35.367   0.313
46037W        W16637  21.617  22.879   4.343
46038W        W16638  19.008  25.912  12.383
46039W        W16639  19.960   2.055  12.393
46040W        W16640   6.722  15.651  11.997
46041W        W16641  13.278   2.687   1.786
46042W        W16642  12.457  23.579   3.728
46043W        W16643  38.352  30.009   4.855
46044W        W16644   7.957  38.048   0.299
46045W        W16645  31.787  22.808  13.790
46046W        W16646   0.138   0.210   1.429
46047W        W16647  18.671  21.257  14.820
46048W        W16648   2.980  33.940  14.061
46049W        W16649  31.560   2.316  12.882
46050W        W16650  27.450   9.867   1.807
46051W        W16651  37.497  36.272   0.249
46052W        W16652  27.411  32.041   0.608
46053W        W16653  34.051   9.931   4.655
46054W        W16654  37.875  12.316  11.569
46055W        W16655  16.127  31.946   1.311
46056W        W16656  12.022  19.090   0.776
46057W        W16657  29.469   4.380  14.219
46058W        W16658  13.834   2.906   2.857
46059W        W16659  20.378   0.113  13.846
46060W        W16660  43.940  18.991   4.109
46061W        W16661  34.950   6.942  14.998
46062W        W16662   4.832  21.786   2.174
46063W        W16663  35.703  20.229   3.246
46064W        W16664  30.474  17.701  12.489
46065W        W16665  28.145  44.849  10.523
46066W        W16666  28.568   6.710   2.899
46067W        W16667  29.585  34.439  13.416
46068W        W16668  34.567  11.740  11.583
46069W        W16669  29.900  43.693  12.614
46070W        W16670  43.614  16.642   2.720
46071W        W16671  18.369  38.451   2.353
46072W        W16672   5.876  42.982  13.024
46073W        W16673  17.119  37.116   4.575
46074W        W16674  36.229   3.926   4.029
46075W        W16675   4.966  40.295   3.251
46076W        W16676   7.423   4.556   2.210
46077W        W16677  44.842  32.613   1.859
46078W        W16678  35.590   5.002   1.768
46079W        W16679  36.643  36.037  13.010
46080W        W16680  40.093  11.408  12.552
46081W        W16681  22.975  42.564   9.951
46082W        W16682  41.405  31.412   3.933
46083W        W16683  11.367  31.123  13.565
46084W        W16684  33.552  33.390  14.568
46085W        W16685   3.995  22.401  10.185
46086W        W16686  14.786   2.711  14.513
46087W        W16687  22.009  28.992  14.877
46088W        W16688  38.770   2.863   0.044
46089W        W16689  44.725  19.050  10.709
46090W        W16690   7.314  34.788  12.306
46091W        W16691  41.800  32.171   1.798
46092W        W16692  25.055  19.550  14.785
46093W        W16693  33.418  10.265   3.427
46094W        W16694  34.961  39.901  10.790
46095W        W16695  16.228  12.936  11.542
46096W        W16696  35.318  18.184   3.687
46097W        W16697  36.066  25.233   1.891
46098W        W16698   3.931  13.987  12.738
46099W        W16699  34.363  34.846  14.583
46100W        W16700  32.431  36.765   4.729
46101W        W16701  10.835  26.961  10.664
46102W        W16702  35.954  21.434  14.310
46103W        W16703  37.583  22.952  13.426
46104W        W16704   4.355  42.828   3.846
46105W        W16705  15.640  29.122   0.228
46106W        W16706  24.171  15.894   2.426
46107W        W16707  35.063  23.064  10.526
46108W        W16708  13.180  28.910   0.432
46109W        W16709  13.697  44.330  12.424
46110W        W16710  29.154   3.531   1.772
46111W        W16711  13.295  17.345  10.672
46112W        W16712  21.568  25.669  11.147
46113W        W16713  14.118   9.387   0.861
46114W        W16714  39.906  20.878  11.218
46115W        W16715  28.111  22.064  14.808
46116W        W16716  30.147  23.764   4.044
46117W        W16717  28.771  22.082   4.887
46118W        W16718   0.377  17.054  13.921
46119W        W16719  10.429   4.633  13.422
46120W        W16720  32.469  25.275   1.248
46121W        W16721  44.918  43.470  14.259
46122W        W16722  18.142  39.256  12.088
46123W        W16723  37.824  10.680   1.943
46124W        W16724  43.293  41.370  12.585
46125W        W16725  44.150   8.512   4.937
46126W        W16726  10.937  30.954  10.372
46127W        W16727  27.712  35.149  11.063
46128W        W16728  38.785  35.789  11.028
46129W        W16729   2.767   3.876   2.394
46130W        W16730  42.390   9.952  12.078
46131W        W16731  19.769   4.848  13.507
46132W        W16732  40.047  39.953   4.054
46133W        W16733  36.180  18.759  12.369
46134W        W16734   1.290  41.911   1.260
46135W        W16735  40.292   2.754   3.245
46136W        W16736  42.390  15.846  12.114
46137W        W16737  40.568  41.462   2.909
46138W        W16738  18.049  38.376  14.898
46139W        W16739  19.209  17.593  11.406
46140W        W16740  15.699  44.506  12.297
46141W        W16741  35.099   4.728   0.461
46142W        W16742  18.433  36.973   0.100
46143W        W16743  24.028   6.432  13.547
46144W        W16744   6.181   9.128   2.848
46145W        W16745  13.565  23.049   2.170
46146W        W16746  32.953  16.160   0.477
46147W        W16747  30.508  40.030   3.547
46148W        W16748  20.631  28.003  13.428
46149W        W16749   8.128   1.200  11.175
46150W        W16750  34.676  38.853   3.244
46151W        W16751   9.775  33.832  12.917
46152W        W16752  31.709   2.867   1.393
46153W        W16753  26.027  38.913   4.519
46154W        W16754  13.156   8.759  11.938
46155W        W16755  14.748  24.394  14.312
46156W        W16756  20.766   6.147  12.023
46157W        W16757   1.689  15.290   3.241
46158W        W16758   8.888  42.704  11.626
46159W        W16759  33.256   2.312  13.886
46160W        W16760  43.917   9.147  14.496
46161W        W16761   6.716   4.481  13.966
46162W        W16762   1.939  21.344   3.750
46163W        W16763  14.280  31.419   1.232
46164W        W16764  19.651  37.955   2.662
46165W        W16765  31.883   3.120  12.859
46166W        W16766  15.681   5.452   3.602
46167W        W16767  29.355  19.179   1.914
46168W        W16768  36.033  10.186  11.897
46169W        W16769  44.357  26.230   2.769
46170W        W16770  42.723  12.275   3.376
46171W        W16771  30.066  15.806  14.276
46172W        W16772   3.834   7.598   1.662
46173W        W16773  37.547   2.374   3.107
46174W        W16774   1.464  15.596  10.788
46175W        W16775   0.210  39.217   2.647
46176W        W16776   0.146  34.576  13.388
46177W        W16777   3.270   6.358   2.120
46178W        W16778  36.427  15.854   0.972
46179W        W16779  35.564  16.742  10.540
46180W        W16780  29.159   8.245   1.961
46181W        W16781  25.002  39.170  11.083
46182W        W16782  42.764  22.746  13.956
46183W        W16783  23.470  38.254   3.118
46184W        W16784  14.737  21.674  11.630
46185W        W16785  12.052  36.982   1.883
46186W        W16786   6.900  31.000   1.581
46187W        W16787  34.083   5.193  13.097
46188W        W16788  17.612  19.339   0.018
46189W        W16789   5.757  27.099   1.798
46190W        W16790  33.449  41.340  11.086
46191W        W16791   6.494   2.916   3.438
46192W        W16792   6.893  41.342  14.740
46193W        W16793  41.519  38.321  12.068
46194W        W16794  27.475  12.229   2.718
46195W        W16795  38.452  28.899   2.905
46196W        W16796  40.849  40.090  12.122
46197W        W16797  13.812   8.695   1.195
46198W        W16798  22.039  25.707   0.922
46199W        W16799  25.511  30.253   3.785
46200W        W16800  29.508   3.528   0.349
46201W        W16801  16.814  20.247  13.840
46202W        W16802  40.496  18.642   2.914
46203W        W16803  20.868  17.672  13.098
46204W        W16804  30.184  21.041   4.800
46205W        W16805  14.452  44.054   0.399
46206W        W16806   6.587  16.641  14.811
46207W        W16807  11.305  38.846  14.429
46208W        W16808  26.592   6.607   1.314
46209W        W16809  12.397  18.557   2.582
46210W        W16810  10.787  44.929   0.377
46211W        W16811  21.518   3.029   3.926
46212W        W16812  13.680  29.857  11.917
46213W        W16813  27.670  11.614  11.120
46214W        W16814  22.812  27.159   2.114
46215W        W16815   1.033  42.469   1.480
46216W        W16816  24.672  20.581  10.928
46217W        W16817  34.994  33.897   3.139
46218W        W16818  30.446   6.430  13.631
46219W        W16819  29.620  21.336   4.187
46220W        W16820  25.564   6.472  14.347
46221W        W16821  42.945  42.311  10.763
46222W        W16822  37.725  38.578   1.620
46223W        W16823  21.195  11.022   1.037
46224W        W16824  37.313  10.257   1.385
46225W        W16825   1.503  16.714   1.167
46226W        W16826  25.427  13.864   1.037
46227W        W16827   3.336  34.422   2.763
46228W        W16828  11.628  42.921  12.097
46229W        W16829  30.574   4.696  13.322
46230W        W16830   7.076   7.420  14.526
46231W        W16831   4.970   2.972  14.575
46232W        W16832  16.917  27.626   1.714
46233W        W16833  26.030  36.671  12.466
46234W        W16834  15.864  38.511   4.886
46235W        W16835   6.210  26.582   2.727
46236W        W16836  34.440  30.418   4.310
46237W        W16837  28.762  38.074   2.356
46238W        W16838   4.655  35.775  14.877
46239W        W16839   8.060  19.203   4.124
46240W        W16840  37.061  13.162  12.026
46241W        W16841  42.327   5.876  14.297
46242W        W16842   8.988  26.560   2.445
46243W        W16843  13.558   0.128  13.865
46244W        W16844  33.525  20.845  11.628
46245W        W16845   4.284  23.466  13.907
46246W        W16846  32.034  42.941  13.977
46247W        W16847   0.289  18.768  12.560
46248W        W16848  16.201  12.336   1.249
46249W        W16849  41.425  11.897  14.818
46250W        W16850  28.840   9.687   0.019
46251W        W16851   3.480  40.802  11.665
46252W        W16852  16.857  33.900   1.888
46253W        W16853  12.124  36.879  11.204
46254W        W16854  19.760  13.385  13.187
46255W        W16855  19.566  37.175   1.828
46256W        W16856   5.815  37.591  11.543
46257W        W16857  15.823  31.671  10.598
46258W        W16858  21.640  19.123   1.404
46259W        W16859  29.715  15.642  12.955
46260W        W16860   6.320  19.326   0.840
46261W        W16861  15.473   5.803   2.096
46262W        W16862   3.260  20.592   2.272
46263W        W16863  38.740  29.043  10.873
46264W        W16864  19.681  31.660  13.857
46265W        W16865  10.710  31.377  12.428
46266W        W16866   6.706  19.640  11.743
46267W        W16867  40.231  36.950   2.765
46268W        W16868  24.792   7.226  11.929
46269W        W16869  40.393  18.563  13.430
46270W        W16870  25.911  10.777  11.129
46271W        W16871  16.047  34.022  12.798
46272W        W16872  27.523   0.483   3.713
46273W        W16873   1.712  16.232   3.492
46274W        W16874  36.483   8.854  14.407
46275W        W16875  30.377  35.434   3.780
46276W        W16876  41.972  41.520   3.750
46277W        W16877  30.380  12.895   1.324
46278W        W16878  14.367  41.882   2.921
46279W        W16879   6.738  40.963  12.646
46280W        W16880  44.761  12.882  11.542
46281W        W16881  33.412  43.899   1.989
46282W        W16882   1.289  38.112  13.957
46283W        W16883   9.608   0.475   0.366
46284W        W16884  14.639  28.793  13.979
46285W        W16885   5.094  31.825   4.967
46286W        W16886  33.405  19.222  14.464
46287W        W16887  35.566  13.300  11.181
46288W        W16888  30.923   2.191   4.822
46289W        W16889  27.869   5.439   3.531
46290W        W16890  10.226   5.195   4.582
46291W        W16891  11.877  16.982  12.792
46292W        W16892  23.333  44.319  12.513
46293W        W16893  34.557  31.224   4.710
46294W        W16894  10.780   9.728   3.684
46295W        W16895  12.391  44.405  12.084
46296W        W16896  14.735  13.186   4.186
46297W        W16897  37.588  16.745   2.186
46298W        W16898   7.826  43.063   1.379
46299W        W16899  26.565  42.525   4.356
46300W        W16900  28.605   0.284   2.001
46301W        W16901  24.557   1.035   4.455
46302W        W16902  40.831  30.047   4.475
46303W        W16903  14.542  39.274  12.541
46304W        W16904   3.964  24.924  10.156
46305W        W16905  14.208  13.851   0.217
46306W        W16906   9.295  38.025   1.465
46307W        W16907   0.945  34.702  10.681
46308W        W16908  17.312   2.433   2.941
46309W        W16909  43.226  29.093   1.861
46310W        W16910  25.447  30.940   1.745
46311W        W16911  22.989   6.445  14.910
46312W        W16912  43.215  42.113   0.330
46313W        W16913  21.294  10.720  10.957
46314W        W16914  26.756  14.179   1.318
46315W        W16915  18.079  37.172  14.745
46316W        W16916  26.330   2.194   1.313
46317W        W16917  39.041  29.541   0.071
46318W        W16918   9.851  37.033  11.693
46319W        W16919  35.821   6.975   1.810
46320W        W16920  36.275  34.814  14.351
46321W        W16921  15.515   8.101   3.298
46322W        W16922  17.516  40.758   1.343
46323W        W16923  41.790  15.747  11.139
46324W        W16924  26.071  15.522   0.909
46325W        W16925  12.122  42.190   2.834
46326W        W16926  10.609  43.041  11.023
46327W        W16927  44.919  22.568   1.019
46328W        W16928  44.439  40.431   0.487
46329W        W16929  30.481  16.038  14.505
46330W        W16930  31.422   7.327   5.085
46331W        W16931  17.804  30.635   1.476
46332W        W16932  33.144  21.666  13.427
46333W        W16933  40.573  24.686   0.458
46334W        W16934  25.766  12.319   1.514
46335W        W16935   0.482   9.267   1.611
46336W        W16936  29.745  29.888   3.533
46337W        W16937  28.098  15.325  14.965
46338W        W16938  35.075  21.541   1.373
46339W        W16939  32.612  14.158  12.191
46340W        W16940  30.442  18.711   4.137
46341W        W16941  26.750   4.246   4.374
46342W        W16942  32.823  20.634   1.934
46343W        W16943   1.711  14.892  11.205
46344W        W16944  36.034  27.115  13.107
46345W        W16945   9.137   9.012   3.387
46346W        W16946  28.523  37.102   4.242
46347W        W16947  33.012   4.077   2.573
46348W        W16948   6.176   3.404   2.221
46349W        W16949   9.574  32.120  11.998
46350W        W16950  16.580  31.032  11.622
46351W        W16951  24.049  37.550  10.392
46352W        W16952  44.724  12.152   3.143
46353W        W16953  39.548  27.519  13.929
46354W        W16954   1.310  14.219   4.177
46355W        W16955   4.424  14.784   2.233
46356W        W16956  28.499  22.161   4.420
46357W        W16957  21.357   9.909   2.273
46358W        W16958  37.328  34.810   3.258
46359W        W16959   5.628  29.187   3.207
46360W        W16960  44.284  34.426   1.424
46361W        W16961  24.527  41.369  13.332
46362W        W16962  22.574  42.340  13.540
46363W        W16963  36.972  33.874   2.605
46364W        W16964  32.143  12.249  12.886
46365W        W16965   2.213  18.145  13.558
46366W        W16966   5.663  29.691  12.334
46367W        W16967  29.887  36.378  13.417
46368W        W16968  42.433  13.793  13.983
46369W        W16969  40.275  16.659  11.525
46370W        W16970  15.810  38.026  11.982
46371W        W16971  12.137  14.589  14.861
46372W        W16972  39.957  27.103  11.503
46373W        W16973  44.831  10.711  10.773
46374W        W16974  32.693  11.835   0.825
46375W        W16975  23.566   5.302   4.738
46376W        W16976  16.166   2.141  13.413
46377W        W16977  24.205  13.629   2.666
46378W        W16978  31.568  40.249  14.805
46379W        W16979  33.916  29.413  10.946
46380W        W16980  18.884  44.314   4.548
46381W        W16981  17.579   3.668   4.129
46382W        W16982  37.030  18.346  14.330
46383W        W16983  28.552   8.722  13.008
46384W        W16984  25.474  15.558  12.540
46385W        W16985  22.844  23.679   1.225
46386W        W16986   5.238  44.360   3.225
46387W        W16987  42.297  44.168  12.320
46388W        W16988  11.695  13.885  14.934
46389W        W16989  27.714  42.308  11.329
46390W        W16990  25.289  22.758   2.305
46391W        W16991   6.369  23.360  12.018
46392W        W16992  34.510   0.759  12.374
46393W        W16993  20.303  19.204   4.150
46394W        W16994  17.192  12.125   1.545
46395W        W16995  29.418  13.258   4.104
46396W        W16996   0.550  31.355  14.329
46397W        W16997   6.903  36.439  12.854
46398W        W16998  42.723  35.441   3.736
46399W        W16999  36.970   9.400   2.657
46400W        W17000  36.459  16.765   0.520
46401W        W17001  30.533   2.921  12.993
46402W        W17002  13.331  23.764  11.595
46403W        W17003  40.111  23.578  12.935
46404W        W17004  31.468  10.744   2.670
46405W        W17005   7.449   5.895   0.492
46406W        W17006  26.442  16.259   4.116
46407W        W17007  40.803  29.010  14.061
46408W        W17008   5.917  14.364  12.014
46409W        W17009  21.129  31.108   0.477
46410W        W17010  20.772  21.664  13.630
46411W        W17011   8.990  38.246  10.751
46412W        W17012  39.914  41.023   4.013
46413W        W17013  40.400  26.003  12.710
46414W        W17014  32.390  17.694   1.187
46415W        W17015  38.923  28.643   2.889
46416W        W17016  34.607  21.763   1.324
46417W        W17017  33.591  35.530  12.472
46418W        W17018   2.483  24.031  13.322
46419W        W17019  42.441  40.329  11.021
46420W        W17020   4.759  26.599   3.196
46421W        W17021  21.233   6.248   2.502
46422W        W17022  42.948   9.180  11.626
46423W        W17023   3.196  20.111   3.679
46424W        W17024   0.198  31.108   1.558
46425W        W17025  11.421  30.923  11.625
46426W        W17026  37.529  35.057   1.499
46427W        W17027  31.957  28.710   4.168
46428W        W17028  39.520   1.822  12.149
46429W        W17029  33.517   1.643   4.574
46430W        W17030  35.086  21.109  13.962
46431W        W17031  32.610  36.878   3.162
46432W        W17032  43.414  15.369  11.152
46433W        W17033   1.364  18.341   4.817
46434W        W17034  28.012  33.460  11.830
46435W        W17035  12.471  28.372   1.614
46436W        W17036  30.512  36.031  12.496
46437W        W17037  18.368  41.659   3.161
46438W        W17038  38.859  18.736   2.336
46439W        W17039  21.460   5.156  14.173
46440W        W17040  30.902  29.839  14.840
46441W        W17041  38.105  20.538  13.346
46442W        W17042  28.051  42.744  14.396
46443W        W17043  17.577  43.933  11.196
46444W        W17044  32.407  12.716   4.540
46445W        W17045  31.165   8.664  11.407
46446W        W17046   5.609  11.764  13.359
46447W        W17047  42.072  22.535  11.186
46448W        W17048  31.922  26.051  13.561
46449W        W17049  41.257  16.137   1.377
46450W        W17050  19.860  38.374   2.429
46451W        W17051  35.631  36.935  12.894
46452W        W17052  30.458   5.240   3.748
46453W        W17053   7.646  17.345   2.752
46454W        W17054  17.511  32.843   4.682
46455W        W17055  29.957  18.197  11.573
46456W        W17056  14.191   2.239   1.741
46457W        W17057   8.833  38.627   3.633
46458W        W17058  35.796  32.896   1.228
46459W        W17059  23.716  19.997   3.203
46460W        W17060  41.426  14.591  10.686
46461W        W17061  16.849  24.177  12.896
46462W        W17062   0.945   7.618  11.861
46463W        W17063  30.476  24.388   4.576
46464W        W17064  42.242  31.739   0.951
46465W        W17065  20.682  13.834  12.695
46466W        W17066  22.850  28.057  13.911
46467W        W17067  12.375   5.079   2.215
46468W        W17068  15.232   6.480   3.788
46469W        W17069  44.773  33.284   3.582
46470W        W17070  12.920  24.186  10.871
46471W        W17071  15.011   3.825  10.663
46472W        W17072  23.899  40.714  13.565
46473W        W17073   0.839   1.997   0.036
46474W        W17074  44.179   0.928  10.641
46475W        W17075  44.236  37.009   4.571
46476W        W17076  14.021  19.134   2.629
46477W        W17077  25.236  37.594   9.841
46478W        W17078   7.742  12.072   4.938
46479W        W17079  33.056  17.150  13.148
46480W        W17080  25.754  43.778  13.009
46481W        W17081   4.908  23.475   0.104
46482W        W17082  19.659  12.150   4.687
46483W        W17083   1.202   3.306  14.807
46484W        W17084  25.056  26.253  12.025
46485W        W17085  17.216  44.781  13.782
46486W        W17086  13.354  21.594   4.676
46487W        W17087   5.251   1.849  13.440
46488W        W17088  15.236   8.366   1.749
46489W        W17089  29.621  24.906  10.563
46490W        W17090  16.283  28.956  14.566
46491W        W17091  32.132  22.592   4.987
46492W        W17092  34.175   9.852   1.810
46493W        W17093  34.499  41.799   0.398
46494W        W17094  24.645  18.113   0.728
46495W        W17095  28.872   2.241   4.155
46496W        W17096  18.433  40.046   4.798
46497W        W17097  12.819  34.834  13.954
46498W        W17098  31.334  13.626  10.740
46499W        W17099  21.149  36.372  10.991
46500W        W17100   4.772  44.493  14.269
46501W        W17101  20.207   0.077  13.312
46502W        W17102   4.146   2.032   0.679
46503W        W17103  23.695  22.718  12.535
46504W        W17104  17.158  31.572  12.387
46505W        W17105   6.938   4.934   3.345
46506W        W17106   6.749   7.177  12.145
46507W        W17107   3.691   5.659  14.799
46508W        W17108  37.573  40.351   1.111
46509W        W17109  30.121  16.142   4.156
46510W        W17110  26.676  22.515   3.662
46511W        W17111   5.732   9.144  14.354
46512W        W17112  31.131  28.417   2.654
46513W        W17113  32.134  21.345  13.935
46514W        W17114  24.980   8.211  11.781
46515W        W17115  32.338  44.833   3.073
46516W        W17116  31.987   0.711   1.173
46517W        W17117  24.492  29.514  13.122
46518W        W17118  39.797   7.682   2.298
46519W        W17119  23.274  16.155  12.539
46520W        W17120  40.646  21.166  14.376
46521W        W17121  30.019  33.195  14.465
46522W        W17122  37.608   9.635  12.488
46523W        W17123   6.608  33.885   3.371
46524W        W17124  37.939   9.331   2.637
46525W        W17125  23.165   2.055   1.281
46526W        W17126  26.272  14.396   1.262
46527W        W17127  32.173  21.635  11.515
46528W        W17128  33.593  13.806  10.777
46529W        W17129  21.051  23.908  12.329
46530W        W17130  40.829  12.673  13.880
46531W        W17131  35.577  16.767  13.842
46532W        W17132  27.376   1.037  14.424
46533W        W17133  39.834  11.650  12.955
46534W        W17134  10.589  20.584   0.489
46535W        W17135  24.391   8.624  11.357
46536W        W17136  44.435   8.409   1.726
46537W        W17137  24.604  35.442   3.376
46538W        W17138  22.403   3.485   4.147
46539W        W17139   9.210  17.883   1.389
46540W        W17140  10.679  34.014   0.187
46541W        W17141   4.902  37.421   3.307
46542W        W17142  25.993  14.641  13.574
46543W        W17143  10.809  44.092   3.337
46544W        W17144  10.175  16.747   4.623
46545W        W17145   4.813   3.033   2.380
46546W        W17146  44.815  14.161  13.042
46547W        W17147   0.857  41.321   0.028
46548W        W17148  36.898  14.421  13.776
46549W        W17149  21.065   6.329  12.649
46550W        W17150  34.193   8.282  10.671
46551W        W17151  26.563  43.518  11.331
46552W        W17152   9.248  38.824   0.465
46553W        W17153  26.012   3.787   4.859
46554W        W17154   4.045  38.676  11.002
46555W        W17155  28.464  20.250  12.897
46556W        W17156   0.291  32.111   2.308
46557W        W17157   7.416  22.520   1.416
46558W        W17158   6.296  12.656   1.855
46559W        W17159  42.418  41.862  11.893
46560W        W17160   1.739  31.196   1.454
46561W        W17161   9.120  25.141   4.995
46562W        W17162  25.304  36.523   0.437
46563W        W17163  15.418  44.510   2.391
46564W        W17164  44.315  10.167   3.092
46565W        W17165  27.614  16.285  13.114
46566W        W17166  23.657  29.951  14.282
46567W        W17167  15.930  17.114  11.453
46568W        W17168  26.136  27.637   4.572
46569W        W17169   8.225   4.265   4.089
46570W        W17170   0.345  44.775  13.971
46571W        W17171  41.249   4.167   4.054
46572W        W17172  22.231  43.892   1.240
46573W        W17173  36.179  20.064   0.390
46574W        W17174  14.085  42.892  12.302
46575W        W17175   6.150  11.826   2.247
46576W        W17176  41.975  13.169   0.091
46577W        W17177  26.738  23.737  10.228
46578W        W17178  20.667  24.109   2.411
46579W        W17179  33.855  19.073   1.049
46580W        W17180  30.432   6.123  10.750
46581W        W17181  41.464   0.701  10.611
46582W        W17182  18.140   2.696  12.429
46583W        W17183   1.415  27.905   1.600
46584W        W17184  13.128  31.182  11.584
46585W        W17185  10.354   6.298  12.400
46586W        W17186  10.755  30.867  12.435
46587W        W17187   8.817  31.638  13.420
46588W        W17188  28.408   4.955   0.725
46589W        W17189  11.225   8.852  11.093
46590W        W17190   4.293  41.432  13.285
46591W        W17191   9.634  16.148  13.065
46592W        W17192   2.008  23.686  12.068
46593W        W17193  37.050  33.376   4.611
46594W        W17194  15.780  15.567  14.964
46595W        W17195  36.374  26.114  13.446
46596W        W17196  33.986  11.640   2.755
46597W        W17197  36.859   6.030   2.922
46598W        W17198  29.542  33.038  10.373
46599W        W17199  33.461  42.060  11.926
46600W        W17200  24.631  37.842  13.631
46601W        W17201  37.958  24.544   1.753
46602W        W17202  28.678  29.924  11.217
46603W        W17203  34.485  30.586  14.327
46604W        W17204  30.528  35.877   2.319
46605W        W17205  17.706  25.847  14.014
46606W        W17206   4.842  14.826   3.721
46607W        W17207   6.727  30.481  13.756
46608W        W17208  36.622  38.577  10.210
46609W        W17209  21.675  39.145  12.939
46610W        W17210  25.056  31.817   4.105
46611W        W17211  20.375  26.017  14.451
46612W        W17212  41.600  30.517  11.728
46613W        W17213  14.315  27.903  11.637
46614W        W17214   1.595   6.741   3.616
46615W        W17215   3.653  10.901   4.183
46616W        W17216  42.920  39.443  14.309
46617W        W17217  36.541  25.003   3.732
46618W        W17218  31.070  30.014   1.819
46619W        W17219  25.559   7.893  10.084
46620W        W17220  13.624  18.689  10.749
46621W        W17221  38.309  25.974   1.645
46622W        W17222  38.219  10.292  10.396
46623W        W17223  43.012  42.744   0.468
46624W        W17224  30.510  17.481   0.749
46625W        W17225   2.672  11.417   4.046
46626W        W17226   2.879   7.530   4.866
46627W        W17227   9.080  19.063  13.475
46628W        W17228  12.307  25.178   1.811
46629W        W17229  16.668  16.001   1.785
46630W        W17230  36.572  25.758   4.189
46631W        W17231  28.570  24.988  12.502
46632W        W17232   7.373   1.520   3.676
46633W        W17233  12.577  26.702   1.613
46634W        W17234  18.032   8.145  14.771
46635W        W17235  30.953  42.160  11.121
46636W        W17236  26.498  21.516   2.751
46637W        W17237  26.527  13.591   1.624
46638W        W17238   2.365  36.944   4.517
46639W        W17239  18.305  26.131   0.001
46640W        W17240  38.263  41.179   1.391
46641W        W17241  14.652  10.654   4.566
46642W        W17242  24.980   3.374   0.166
46643W        W17243  30.806  25.029  11.258
46644W        W17244   1.462  33.667   1.307
46645W        W17245  29.113  16.884   0.435
46646W        W17246  32.589  31.876   1.718
46647W        W17247   3.689   6.647  13.170
46648W        W17248  23.065  14.717   2.042
46649W        W17249  31.150  18.097   0.765
46650W        W17250  32.248   5.946  11.295
46651W        W17251   9.822  13.389   3.034
46652W        W17252  16.693  36.235  12.514
46653W        W17253  36.854  16.318  13.262
46654W        W17254  26.452  33.097   1.980
46655W        W17255   7.909  44.492  14.541
46656W        W17256  39.295  27.457   4.572
46657W        W17257  18.598  17.672   2.933
46658W        W17258  13.967  27.823  13.601
46659W        W17259   1.926  10.371  14.871
46660W        W17260  44.011  38.887   1.414
46661W        W17261   1.339  21.246  12.264
46662W        W17262  35.987  41.524   1.276
46663W        W17263   5.697  24.926   0.640
46664W        W17264   0.437  41.244   2.163
46665W        W17265  43.745   2.216   2.701
46666W        W17266  31.864  43.148  14.986
46667W        W17267  22.507   6.639   0.011
46668W        W17268  34.540  17.969  14.100
46669W        W17269   6.492  28.021   4.667
46670W        W17270  19.707   3.241  13.886
46671W        W17271  27.672  12.365   1.216
46672W        W17272  18.633  24.991   3.536
46673W        W17273  35.532   0.533  12.772
46674W        W17274  24.738  28.138  13.126
46675W        W17275  15.778  43.809   1.311
46676W        W17276  35.071  31.218  14.387
46677W        W17277  43.810  34.023  12.458
46678W        W17278  38.325  21.843   0.741
46679W        W17279  32.013  14.753  12.698
46680W        W17280  14.164  32.059   4.559
46681W        W17281   6.068  38.082   0.015
46682W        W17282  37.518  19.653  12.057
46683W        W17283  14.307   0.469   2.395
46684W        W17284  19.708  33.973   0.905
46685W        W17285  14.267  26.987   4.214
46686W        W17286  16.388  42.985   2.669
46687W        W17287  29.430  41.260  13.919
46688W        W17288  10.534  39.617   1.033
46689W        W17289   3.789   0.048  14.726
46690W        W17290   5.874  13.086  11.531
46691W        W17291  34.355  23.498  10.762
46692W        W17292  30.228  27.669  11.277
46693W        W17293  31.604   1.862  13.118
46694W        W17294  21.718  21.222  14.791
46695W        W17295   7.106  15.700  14.052
46696W        W17296  29.625  30.743   3.333
46697W        W17297  31.935   4.153  13.393
46698W        W17298  38.489  14.509   1.182
46699W        W17299   7.707  40.266   3.180
46700W        W17300  29.349  40.225  12.129
46701W        W17301   4.461  18.132  14.454
46702W        W17302  29.425   8.997   1.486
46703W        W17303  42.920  33.659  13.507
46704W        W17304  30.950   9.615   1.446
46705W        W17305  22.612  19.978  13.998
46706W        W17306  43.301  22.103  14.311
46707W        W17307  29.946  18.821   1.347
46708W        W17308  38.909  24.719   1.899
46709W        W17309  36.561  15.493  12.379
46710W        W17310  43.053  26.336  13.826
46711W        W17311  13.651   9.644   0.816
46712W        W17312   9.833  20.741  14.830
46713W        W17313  21.111   8.162  14.045
46714W        W17314  20.460  33.583  11.878
46715W        W17315  42.894  37.582  13.709
46716W        W17316  17.385  21.556  13.379
46717W        W17317   7.798  15.595   2.212
46718W        W17318  24.577  44.346   1.592
46719W        W17319  44.394  36.646  12.630
46720W        W17320  34.553  23.529   0.834
46721W        W17321   9.806  42.544   3.165
46722W        W17322  40.785  14.709   4.804
46723W        W17323  28.152   3.824   3.720
46724W        W17324  41.192  24.706   3.130
46725W        W17325  12.536  20.228   4.183
46726W        W17326  32.246  39.081   1.872
46727W        W17327   3.209  22.518  11.106
46728W        W17328  27.927  35.667  14.417
46729W        W17329  28.423  30.737  10.682
46730W        W17330  36.331  31.635  10.641
46731W        W17331  17.540  44.841  11.120
46732W        W17332   8.434  42.237  11.005
46733W        W17333  19.649   5.284  12.575
46734W        W17334  41.812  40.513   2.742
46735W        W17335   2.959   4.823   3.636
46736W        W17336  29.951  10.544   4.567
46737W        W17337  24.253  39.484   3.728
46738W        W17338  27.397  38.005   1.994
46739W        W17339  12.611  11.037  13.124
46740W        W17340   1.686  43.451  12.479
46741W        W17341  16.388  12.344  12.391
46742W        W17342  14.796  10.664  12.427
46743W        W17343  20.197   0.090  12.615
46744W        W17344  40.586  22.067  11.186
46745W        W17345  21.675  41.224   4.985
46746W        W17346  41.323  32.128   0.431
46747W        W17347  33.599  44.725  14.490
46748W        W17348   4.940  22.605   1.164
46749W        W17349  37.970  25.583  11.648
46750W        W17350  36.005  37.584   2.426
46751W        W17351  39.405   7.719   0.097
46752W        W17352   6.316  19.074  10.668
46753W        W17353   4.932  20.669   3.258
46754W        W17354  29.359  30.947   4.331
46755W        W17355  31.509   8.874   4.144
46756W        W17356  35.850  33.805  12.378
46757W        W17357  23.816  12.203   0.477
46758W        W17358  41.200  19.038  12.531
46759W        W17359  18.729   7.021   2.297
46760W        W17360  13.825  42.557   2.813
46761W        W17361  23.233  14.805   3.769
46762W        W17362   6.657   3.432  14.969
46763W        W17363  39.641   1.705  11.267
46764W        W17364   8.443  16.662  11.668
46765W        W17365  12.744  19.919  11.463
46766W        W17366  19.225   6.753   2.754
46767W        W17367  26.413  13.075   4.993
46768W        W17368  42.330  44.475   2.837
46769W        W17369   3.805  24.693   0.797
46770W        W17370   8.331   1.908   2.247
46771W        W17371  14.247   2.897   3.726
46772W        W17372  28.251  24.512   1.701
46773W        W17373  13.035  14.763  14.733
46774W        W17374   0.983  27.739  11.099
46775W        W17375  17.543   5.837  12.746
46776W        W17376   9.158  28.277  12.345
46777W        W17377  43.774  29.901   4.227
46778W        W17378   4.688  43.791   2.468
46779W        W17379  42.836  23.900  11.079
46780W        W17380  37.444   0.830   0.955
46781W        W17381  11.469  26.606   0.787
46782W        W17382  36.572  31.543   3.637
46783W        W17383  11.149  26.303  10.278
46784W        W17384  30.841  11.679   3.535
46785W        W17385  18.364  31.963  13.436
46786W        W17386  15.492  27.720   2.194
46787W        W17387  38.381  12.235  11.604
46788W        W17388  29.630  29.063  11.927
46789W        W17389  14.939   9.213   1.551
46790W        W17390  40.236  38.832   0.183
46791W        W17391  34.319  23.829  11.171
46792W        W17392  15.822  36.239  10.362
46793W        W17393  22.510  15.189  12.962
46794W        W17394  17.126   0.413   1.100
46795W        W17395  24.588   1.484  12.704
46796W        W17396  26.562   6.184  11.174
46797W        W17397   1.285  34.379   3.755
46798W        W17398  42.928  20.211  11.946
46799W        W17399  41.106  36.085  14.562
46800W        W17400  22.719  25.426  11.472
46801W        W17401   9.586  21.649   4.374
46802W        W17402  38.968   1.918   2.459
46803W        W17403   2.831  15.760   2.746
46804W        W17404  15.465  15.580  11.886
46805W        W17405   7.342  10.702  12.139
46806W        W17406  32.496  11.417  14.780
46807W        W17407  10.074  37.130   1.627
46808W        W17408  27.136  20.087  10.785
46809W        W17409   6.825  21.952  12.500
46810W        W17410  23.609  14.862  14.356
46811W        W17411  20.287   6.785  12.516
46812W        W17412  42.303  19.424   0.832
46813W        W17413  15.330   7.048  12.506
46814W        W17414   9.948  17.549   1.773
46815W        W17415  13.706  18.693   3.685
46816W        W17416  12.566  14.881  10.631
46817W        W17417  25.288  16.146  12.796
46818W        W17418  41.351  32.267  10.683
46819W        W17419  38.251  19.229  12.925
46820W        W17420   4.842  38.830  10.581
46821W        W17421  36.808   1.589  11.611
46822W        W17422  44.833  16.495   4.432
46823W        W17423  31.526   2.279  13.409
46824W        W17424  34.122  27.178   0.320
46825W        W17425  36.402  35.836   2.319
46826W        W17426  17.611  44.287  12.949
46827W        W17427   5.561  20.946   0.465
46828W        W17428   9.663  12.261  14.911
46829W        W17429   1.698  22.418   0.225
46830W        W17430  20.632  17.850  14.096
46831W        W17431  31.551  31.198  10.762
46832W        W17432   5.181   9.731   3.163
46833W        W17433  33.004  29.821  10.543
46834W        W17434  33.148  10.369   0.345
46835W        W17435  17.901  30.110  13.257
46836W        W17436  42.295  44.450   1.340
46837W        W17437   4.182   7.715  11.172
46838W        W17438  22.440  36.374   3.218
46839W        W17439  16.054  24.627  11.409
46840W        W17440  33.421  24.065  11.418
46841W        W17441  27.901  20.332   3.300
46842W        W17442  14.673  33.527   0.289
46843W        W17443  44.270  15.221  12.103
46844W        W17444  27.029  31.931   4.689
46845W        W17445  17.328  22.503   1.412
46846W        W17446  16.313  22.569   1.390
46847W        W17447   0.477  34.402   0.819
46848W        W17448  26.190  13.747   2.575
46849W        W17449   3.883  43.901  12.126
46850W        W17450  10.888  29.644  14.580
46851W        W17451  15.446   8.855   3.727
46852W        W17452  44.602  40.095  11.568
46853W        W17453   9.161   5.196  10.769
46854W        W17454  25.002   3.583  11.142
46855W        W17455   8.582   6.562   0.682
46856W        W17456   1.558  28.820  14.774
46857W        W17457  39.781  13.789   2.812
46858W        W17458  16.895  13.295  11.054
46859W        W17459  15.241   4.722   0.186
46860W        W17460   7.429   8.899  12.101
46861W        W17461  26.444  10.660   4.830
46862W        W17462  21.532   6.352  10.404
46863W        W17463   2.203  13.075   2.170
46864W        W17464   7.218  16.031   4.365
46865W        W17465  27.205  31.000   2.181
46866W        W17466  18.255  35.103  12.643
46867W        W17467  22.592  16.231   0.842
46868W        W17468  11.675  23.368   3.241
46869W        W17469  31.535  11.842   2.713
46870W        W17470  25.955  35.560  12.760
46871W        W17471  26.968  13.237  11.583
46872W        W17472  24.243   7.672   1.447
46873W        W17473  18.139   4.151  12.987
46874W        W17474  22.571  24.277   2.379
46875W        W17475   0.026  34.675   3.241
46876W        W17476   6.966  31.884   4.077
46877W        W17477  20.832  43.350   3.315
46878W        W17478   5.124   3.356   4.646
46879W        W17479  41.997   2.049  11.641
46880W        W17480  40.546   3.891   2.137
46881W        W17481  18.556  37.657   4.184
46882W        W17482  32.445  39.510  11.475
46883W        W17483  19.788  14.891   3.192
46884W        W17484  31.440  13.099  14.045
46885W        W17485  38.426  14.138  10.924
46886W        W17486   7.245  10.899   4.694
46887W        W17487  13.833   3.225   4.872
46888W        W17488   9.534  21.456  11.621
46889W        W17489   0.114  24.951   1.045
46890W        W17490  41.796  17.202   1.163
46891W        W17491  21.138  44.225   3.698
46892W        W17492  36.805   9.957   4.191
46893W        W17493  37.676   9.845   0.283
46894W        W17494  19.450  20.499  14.182
46895W        W17495   5.251  13.978   3.596
46896W        W17496   1.767  16.226  11.931
46897W        W17497   4.144  20.672   0.181
46898W        W17498  29.829  23.277  11.202
46899W        W17499   7.439  44.480   2.743
46900W        W17500  22.155  18.825   0.891
46901W        W17501  19.699   7.799   2.706
46902W        W17502   0.375  12.103   1.715
46903W        W17503   9.771  30.613   0.723
46904W        W17504   9.578  10.764  14.417
46905W        W17505  38.620  26.786   4.214
46906W        W17506   7.706   0.351  12.868
46907W        W17507  17.827  31.621   4.343
46908W        W17508  44.834   0.037  12.594
46909W        W17509  18.179  31.541   4.721
46910W        W17510  25.198  29.414  12.552
46911W        W17511  19.108  38.056  11.597
46912W        W17512  43.416   4.163  14.876
46913W        W17513  39.045  22.714   1.452
46914W        W17514  27.021   4.886  13.747
46915W        W17515  23.351   0.787   4.147
46916W        W17516  16.089  35.707  11.681
46917W        W17517  25.562   8.071   1.376
46918W        W17518   8.781   8.000  13.471
46919W        W17519  11.189  38.340  12.416
46920W        W17520  24.474  15.516   4.498
46921W        W17521  34.554  43.552   0.812
46922W        W17522  14.407  36.921  11.972
46923W        W17523   3.300  43.008  13.471
46924W        W17524  14.072   1.388  12.448
46925W        W17525  34.528   5.660   1.873
46926W        W17526  16.027   7.953  14.421
46927W        W17527  37.550  38.339   1.206
46928W        W17528  22.251  21.414  11.511
46929W        W17529  26.061  40.500   4.599
46930W        W17530  27.845  24.335   0.337
46931W        W17531  40.018   2.493   1.186
46932W        W17532  17.597   5.456   3.243
46933W        W17533  32.889  43.864   3.749
46934W        W17534   8.432   4.467   3.651
46935W        W17535  38.432  30.049  11.985
46936W        W17536  38.370  26.073   4.128
46937W        W17537  19.130  38.275  12.059
46938W        W17538  38.513  35.173   1.343
46939W        W17539   9.851  16.189   1.726
46940W        W17540  17.707  31.952   3.593
46941W        W17541   0.184  13.172  11.644
46942W        W17542  43.198  14.928  14.479
46943W        W17543  41.316   7.785  12.502
46944W        W17544   2.927  22.176   3.588
46945W        W17545   1.748  22.536  11.519
46946W        W17546  21.953   2.885   3.692
46947W        W17547  31.091   0.242  14.279
46948W        W17548  33.283  19.645   4.947
46949W        W17549   3.869  20.829   1.002
46950W        W17550  20.964  39.957  12.060
46951W        W17551  37.388  23.438   4.602
46952W        W17552  12.025  16.101  10.479
46953W        W17553  16.262  31.510   4.488
46954W        W17554  15.346  14.845   1.848
46955W        W17555   5.156  23.656  11.472
46956W        W17556  27.941   0.527  12.943
46957W        W17557  22.386  21.575  11.980
46958W        W17558   1.811   8.910   2.829
46959W        W17559   0.000  36.023   2.916
46960W        W17560   9.964  25.000   4.102
46961W        W17561  13.334   7.885   1.567
46962W        W17562  36.243  25.204  12.940
46963W        W17563  21.678  24.332  13.531
46964W        W17564  15.228  11.283   4.790
46965W        W17565  23.211  22.221   2.308
46966W        W17566  37.012  18.642   3.867
46967W        W17567  13.776  24.064   3.554
46968W        W17568  39.954  32.481  11.878
46969W        W17569  44.767  16.221  15.000
46970W        W17570  27.210   9.414  13.095
46971W        W17571  28.915  20.511  14.068
46972W        W17572   9.676  31.540  13.284
46973W        W17573   3.898  23.752  11.010
46974W        W17574  15.564  38.918   3.091
46975W        W17575  43.338   1.404   0.400
46976W        W17576  33.273  40.367   4.033
46977W        W17577   6.651  18.067  12.490
46978W        W17578   2.239  19.702   1.221
46979W        W17579  39.103  34.292   0.250
46980W        W17580  38.396  31.519   3.390
46981W        W17581  12.890  11.663   2.871
46982W        W17582  35.586   0.043  12.982
46983W        W17583  42.993  37.260  11.935
46984W        W17584  25.700  19.047   4.636
46985W        W17585  26.726  36.646  12.022
46986W        W17586  27.488   6.263   1.114
46987W        W17587  38.513  44.431   3.881
46988W        W17588  17.389  21.679  13.893
46989W        W17589   3.149  39.954  13.562
46990W        W17590   8.838  22.853   3.654
46991W        W17591  23.158  41.327   3.344
46992W        W17592  42.114  10.437  11.196
46993W        W17593  31.986  24.099  12.972
46994W        W17594  19.918   7.046  14.458
46995W        W17595  26.103  15.698  10.409
46996W        W17596   9.706  40.785   3.811
46997W        W17597  30.840  37.410   4.175
46998W        W17598  15.109   5.645  14.627
46999W        W17599   7.933  25.028   4.551
47000W        W17600   5.400  23.675   1.363
47001W        W17601   8.688  41.022   2.393
47002W        W17602  30.383  15.608  11.099
47003W        W17603  12.181  41.765   1.156
47004W        W17604  33.466   4.749   4.566
47005W        W17605   3.321   5.889  10.538
47006W        W17606  43.458  30.657  13.082
47007W        W17607  19.839  12.846  13.856
47008W        W17608   8.251  22.507  10.584
47009W        W17609  27.487  28.931  12.172
47010W        W17610  10.373  26.060  10.444
47011W        W17611   7.966   4.670   0.072
47012W        W17612  11.451  22.236   1.795
47013W        W17613  30.485  29.775  14.517
47014W        W17614  13.034  27.518  10.984
47015W        W17615  40.805  33.985  12.895
47016W        W17616  22.565  40.293  10.718
47017W        W17617  26.508   4.726  10.525
47018W        W17618  15.736   2.145   4.896
47019W        W17619   9.888   6.391  11.463
47020W        W17620   5.990  11.355  12.483
47021W        W17621  39.350  27.746  13.449
47022W        W17622  15.390   8.381   2.875
47023W        W17623  23.281   0.769  12.528
47024W        W17624  10.946   0.322  12.720
47025W        W17625  25.715   0.250  10.759
47026W        W17626  10.843  37.099  13.898
47027W        W17627  16.285  10.326   1.810
47028W        W17628  15.185  21.467  13.387
47029W        W17629   2.197   5.734   3.424
47030W        W17630  23.286  27.496  11.601
47031W        W17631   1.413  36.648   2.377
47032W        W17632  39.439  10.276   0.386
47033W        W17633   3.412   6.656   0.293
47034W        W17634  21.067  18.466  10.399
47035W        W17635   6.341  14.497  13.618
47036W        W17636   2.794  35.800   3.900
47037W        W17637  42.259  30.852  12.422
47038W        W17638  44.446   8.549  13.541
47039W        W17639  13.176  15.802  12.860
47040W        W17640   5.833  35.073   1.961
47041W        W17641  13.837  20.081   0.232
47042W        W17642   6.746   4.119   4.187
47043W        W17643  16.564  36.068   1.673
47044W        W17644  20.521  24.606  11.564
47045W        W17645  17.600  28.301  11.471
47046W        W17646  21.606  14.628   3.655
47047W        W17647  14.302  38.250   0.309
47048W        W17648  23.480  21.320  11.388
47049W        W17649   9.395  23.629  13.323
47050W        W17650  21.731  31.326  13.246
47051W        W17651  39.676  38.536  11.455
47052W        W17652   6.964   6.089  10.667
47053W        W17653  39.921   6.230  13.878
47054W        W17654   9.632  18.517   1.778
47055W        W17655  22.235  23.551  13.288
47056W        W17656  20.466   3.334   2.204
47057W        W17657  31.626  43.220  11.961
47058W        W17658  43.560  22.955  11.021
47059W        W17659  33.578  21.614   9.918
47060W        W17660  41.117  33.496  12.451
47061W        W17661  39.455  15.589  10.716
47062W        W17662  33.769  13.633   4.575
47063W        W17663  16.712  37.572   0.675
47064W        W17664  24.759  33.067   0.783
47065W        W17665   0.916  15.896  11.638
47066W        W17666  27.526  22.678  13.583
47067W        W17667  11.695  20.282   4.936
47068W        W17668  12.701  14.526   0.525
47069W        W17669   5.891   1.145  14.308
47070W        W17670  27.153   3.279  12.466
47071W        W17671   2.170  30.152   4.146
47072W        W17672  25.127   3.304  11.586
47073W        W17673  12.102  29.431  13.802
47074W        W17674   6.990  33.936   3.707
47075W        W17675  16.239  25.026   0.950
47076W        W17676  39.589  16.461  12.009
47077W        W17677   2.851   6.644   4.468
47078W        W17678  11.787   9.336  11.547
47079W        W17679  40.000   2.882   0.845
47080W        W17680  24.190   9.561   2.993
47081W        W17681  12.276   2.315  11.294
47082W        W17682   8.311  39.500   3.234
47083W        W17683  16.026  16.196  13.948
47084W        W17684   5.840  28.876   4.262
47085W        W17685   8.562  18.687   4.614
47086W        W17686  38.417  28.376   3.433
47087W        W17687  30.003   3.175   4.327
47088W        W17688  44.323   3.834  10.372
47089W        W17689  21.309  26.281  11.169
47090W        W17690  11.203  32.247  11.620
47091W        W17691  19.669  26.805  14.872
47092W        W17692  41.482  30.406   1.835
47093W        W17693  10.164  35.064  13.788
47094W        W17694  33.681  22.162  11.940
47095W        W17695   2.520  22.104   4.354
47096W        W17696  30.405  38.048   3.698
47097W        W17697  36.542  12.133  14.036
47098W        W17698  10.684  19.756  13.992
47099W        W17699  13.067  41.030   4.446
47100W        W17700  15.962  27.544   2.011
47101W        W17701  16.667   9.177  10.654
47102W        W17702  29.279  42.030   4.127
47103W        W17703  30.947   8.797   3.064
47104W        W17704  26.287  33.050  11.411
47105W        W17705  21.684  10.935  14.793
47106W        W17706  37.124   9.740   0.245
47107W        W17707  17.190   3.992  14.907
47108W        W17708  22.176  27.539  10.736
47109W        W17709  38.376  11.121   2.371
47110W        W17710  29.460   1.359   3.333
47111W        W17711  33.696  35.112  11.885
47112W        W17712  26.005  21.679  12.018
47113W        W17713  41.031  43.466  12.641
47114W        W17714  43.000  40.998   0.788
47115W        W17715  35.001   2.686  13.440
47116W        W17716  22.800  11.328  11.604
47117W        W17717  24.299  26.460   2.318
47118W        W17718  15.103  31.694  14.456
47119W        W17719  38.008  41.795   1.305
47120W        W17720  22.699  17.243   2.359
47121W        W17721  43.308  33.331   0.781
47122W        W17722   0.268  38.950  11.821
47123W        W17723  26.639  11.942   2.620
47124W        W17724  27.034  18.102   3.909
47125W        W17725  35.166  40.257   2.697
47126W        W17726  41.907  18.489   0.783
47127W        W17727  44.447  42.884  13.835
47128W        W17728  35.473  37.068   0.192
47129W        W17729   3.748  42.862   3.113
47130W        W17730  38.665   5.261  12.519
47131W        W17731   8.734  43.044  12.522
47132W        W17732   9.180   4.912   3.768
47133W        W17733  26.722  18.546  13.093
47134W        W17734   5.374  14.773  13.334
47135W        W17735  43.589  21.520   4.643
47136W        W17736  31.849  16.972   1.916
47137W        W17737  14.014  35.879  12.936
47138W        W17738  40.813  20.711  14.775
47139W        W17739  28.074   9.563  14.090
47140W        W17740  34.518  29.256  12.810
47141W        W17741  43.252  11.904  10.460
47142W        W17742  10.708  41.463   2.812
47143W        W17743  22.159   9.837   5.399
47144W        W17744  24.739  28.545  12.749
47145W        W17745  41.554   3.453  14.291
47146W        W17746   9.382  13.799  12.875
47147W        W17747  42.953   0.278   3.242
47148W        W17748   5.343   2.843   2.217
47149W        W17749   2.688   9.239   4.398
47150W        W17750  27.168  29.883  12.550
47151W        W17751  37.863   5.204   3.499
47152W        W17752  36.548  39.598   0.357
47153W        W17753  40.829  22.522  11.175
47154W        W17754  13.411  10.161  10.783
47155W        W17755   5.789  19.382   2.116
47156W        W17756  36.247  21.613   0.215
47157W        W17757  24.504  23.282  14.861
47158W        W17758  39.851   6.438  14.783
47159W        W17759   7.636  26.882  12.454
47160W        W17760  34.491  36.840  13.862
47161W        W17761   8.575  11.780  11.161
47162W        W17762  14.253  24.896   4.495
47163W        W17763  34.079  29.303   0.463
47164W        W17764  11.584  41.058   0.931
47165W        W17765  18.255  33.105   0.393
47166W        W17766  11.611  28.740   1.876
47167W        W17767  23.993  40.319  14.542
47168W        W17768  22.441   1.759  13.311
47169W        W17769  10.903  11.261   1.874
47170W        W17770  31.650  35.355  10.725
47171W        W17771   0.687   0.719  12.560
47172W        W17772  39.875  31.562  12.361
47173W        W17773  31.968   5.114  14.256
47174W        W17774  17.223   7.791   2.221
47175W        W17775   4.346   1.324   0.681
47176W        W17776  10.218  10.981   4.935
47177W        W17777   4.448   5.762   3.225
47178W        W17778  17.493  37.884  13.403
47179W        W17779  23.852  13.162  11.577
47180W        W17780  18.333   6.871   0.431
47181W        W17781  37.513  28.010  13.289
47182W        W17782  13.619   5.135  11.999
47183W        W17783  33.374   9.682  12.385
47184W        W17784  29.688   9.335   2.758
47185W        W17785   0.228  28.148   3.389
47186W        W17786  33.500  29.688  10.718
47187W        W17787  39.647  34.975  10.558
47188W        W17788  32.989  14.063   2.414
47189W        W17789  17.691   1.645  11.979
47190W        W17790  15.294  27.539  13.900
47191W        W17791  38.371  23.273  14.536
47192W        W17792  23.359   0.599   1.499
47193W        W17793  28.585  41.000  13.538
47194W        W17794  36.266   5.911  14.090
47195W        W17795  40.597  34.948   0.435
47196W        W17796  33.181  31.559   0.818
47197W        W17797  32.730   8.906   3.653
47198W        W17798  13.731  25.804   2.224
47199W        W17799  38.124  16.175  12.159
47200W        W17800  42.790  33.029   4.127
47201W        W17801   9.213  44.520   0.430
47202W        W17802  32.625  12.142  12.151
47203W        W17803   4.919  28.502  11.099
47204W        W17804  16.538   3.175  13.023
47205W        W17805   5.741  41.476  12.872
47206W        W17806  34.474  44.059  13.219
47207W        W17807   1.800  20.521   0.230
47208W        W17808  35.929  29.615  14.958
47209W        W17809  22.528  25.040   1.323
47210W        W17810   5.251  11.735  11.353
47211W        W17811   1.723  26.978  13.856
47212W        W17812  19.155  21.521   4.022
47213W        W17813  33.929  44.381   0.884
47214W        W17814  34.375  12.354  14.205
47215W        W17815  36.267  18.320   0.546
47216W        W17816  25.277   9.987   1.138
47217W        W17817  22.680  17.685  12.600
47218W        W17818  24.681  39.782   3.689
47219W        W17819  11.449  35.316  11.093
47220W        W17820  19.086  42.272  12.876
47221W        W17821  13.505  34.740   4.254
47222W        W17822  19.813   4.099   1.411
47223W        W17823   3.440  28.147   2.816
47224W        W17824  21.300  20.257   1.186
47225W        W17825  14.448  36.424  12.165
47226W        W17826  25.438  21.016   5.013
47227W        W17827  35.922  34.067  11.828
47228W        W17828  37.904  18.974  11.082
47229W        W17829  33.519   8.169  12.967
47230W        W17830  28.670  29.185  11.626
47231W        W17831   2.474  23.014  14.353
47232W        W17832   5.475   8.133   2.328
47233W        W17833  39.343   2.869  13.152
47234W        W17834  20.205   3.368   2.672
47235W        W17835  14.940  19.258  14.813
47236W        W17836  10.711  19.991   2.689
47237W        W17837  16.090  43.246  13.483
47238W        W17838  43.863   4.554  11.612
47239W        W17839  12.392  43.987   2.279
47240W        W17840   7.971  43.886  12.054
47241W        W17841  22.245  39.881   2.844
47242W        W17842  13.844  30.406  14.629
47243W        W17843   8.439  26.454   0.942
47244W        W17844  13.574  36.843   4.285
47245W        W17845  12.647  41.342   3.780
47246W        W17846  14.657  28.509  12.356
47247W        W17847  12.276  40.841  11.500
47248W        W17848  39.585   8.666  11.638
47249W        W17849  20.938  35.163  14.438
47250W        W17850   0.334  35.064  12.440
47251W        W17851   4.379  38.201  11.068
47252W        W17852  19.672   4.290   1.863
47253W        W17853  32.968  29.690  12.368
47254W        W17854  24.782  23.919  14.024
47255W        W17855  29.258   9.060  14.443
47256W        W17856  31.270   8.475  12.473
47257W        W17857  38.581  27.266   3.247
47258W        W17858  30.107   1.893  13.811
47259W        W17859  39.065   2.770   1.440
47260W        W17860  37.231   0.983  13.442
47261W        W17861  35.843  37.399  13.025
47262W        W17862  22.089  22.646  12.129
47263W        W17863  18.175  16.744   4.678
47264W        W17864  25.554  20.094   1.305
47265W        W17865  10.471  22.144  14.865
47266W        W17866  26.443  24.928   2.220
47267W        W17867   1.836  33.609   2.719
47268W        W17868  26.111   9.658  11.611
47269W        W17869   7.433  16.721   3.703
47270W        W17870   1.457   6.487  12.002
47271W        W17871   9.892  39.278   3.294
47272W        W17872  33.388  43.492   3.390
47273W        W17873  12.912  30.536   0.091
47274W        W17874  35.337   3.809  10.629
47275W        W17875  27.588   4.444   1.545
47276W        W17876  35.250  29.037   3.211
47277W        W17877   8.643  41.479   4.359
47278W        W17878  37.323  43.144  11.108
47279W        W17879  27.595  14.096   4.094
47280W        W17880  18.076  31.938  10.775
47281W        W17881  30.155  19.054   0.867
47282W        W17882  38.576  30.192   3.914
47283W        W17883  19.638   7.217   3.151
47284W        W17884  32.538  15.496  11.639
47285W        W17885  12.826  22.943  10.815
47286W        W17886  17.703  30.916  11.505
47287W        W17887  20.393   5.220   4.155
47288W        W17888   5.901  40.244   3.305
47289W        W17889   1.108  22.620  10.309
47290W        W17890  22.059   6.395  13.932
47291W        W17891  41.062  40.363  13.194
47292W        W17892   2.152  26.031   4.589
47293W        W17893  40.565  22.187  13.436
47294W        W17894  43.439   2.673   0.768
47295W        W17895  33.466  31.103  14.868
47296W        W17896  36.238  11.295  12.324
47297W        W17897  43.527   0.962  12.056
47298W        W17898  39.546  21.026  11.976
47299W        W17899  37.209  11.814   2.297
47300W        W17900  39.586  21.217  12.937
47301W        W17901   7.296   4.476  12.488
47302W        W17902  36.535  32.531   3.719
47303W        W17903  27.722  17.075   0.046
47304W        W17904  38.794   5.302   2.475
47305W        W17905  33.005  32.562   1.460
47306W        W17906   1.355  33.411  13.914
47307W        W17907   3.257  16.114  11.030
47308W        W17908   2.469  21.260   3.746
47309W        W17909  20.629  37.867   2.801
47310W        W17910  18.231  25.611  13.322
47311W        W17911   1.473  35.909  11.985
47312W        W17912  23.956  27.779  13.025
47313W        W17913  29.680  17.052   1.486
47314W        W17914  27.942   4.705   0.722
47315W        W17915  21.863   6.633   0.292
47316W        W17916  28.426  21.626  10.618
47317W        W17917  13.320  20.004  14.564
47318W        W17918  44.385  28.234   2.973
47319W        W17919  13.882   7.946  14.979
47320W        W17920  19.691  13.643   4.782
47321W        W17921  39.072  26.668  14.038
47322W        W17922  34.822   1.940   3.238
47323W        W17923   7.815  15.073  12.190
47324W        W17924  44.713  22.688  11.602
47325W        W17925  18.344  25.231   0.422
47326W        W17926   2.756  35.484  13.427
47327W        W17927  21.100  36.280  13.929
47328W        W17928  12.800  21.683   1.441
47329W        W17929  33.731  22.535  11.256
47330W        W17930  37.621  37.972   3.743
47331W        W17931  18.108  11.516  14.403
47332W        W17932  13.245  44.805   4.507
47333W        W17933   2.201  20.991  14.439
47334W        W17934  19.725   5.689   4.579
47335W        W17935  24.753  29.374  11.185
47336W        W17936   3.288   2.521  13.531
47337W        W17937   7.143  17.851   3.245
47338W        W17938  20.661  14.165  14.368
47339W        W17939  16.523  18.014  11.492
47340W        W17940  34.134   8.567   0.639
47341W        W17941  31.685  18.757   1.652
47342W        W17942  21.145  13.308   2.724
47343W        W17943  27.486   1.783   0.507
47344W        W17944  35.632   9.254   1.255
47345W        W17945  25.527  42.279  14.366
47346W        W17946  19.759   5.526  13.463
47347W        W17947   7.126  16.574   2.067
47348W        W17948  23.614   6.723  10.338
47349W        W17949  29.398  11.472  11.531
47350W        W17950  27.762  17.648   4.002
47351W        W17951  19.180  30.536   0.830
47352W        W17952  34.807   4.257  11.386
47353W        W17953  33.390  28.851   4.579
47354W        W17954  24.787  11.988   1.356
47355W        W17955  38.210   0.446  12.838
47356W        W17956  13.807   5.181   3.849
47357W        W17957  44.261  41.838   0.482
47358W        W17958  26.151  27.010   3.222
47359W        W17959  43.481  16.796   3.189
47360W        W17960  14.951   6.766  12.111
47361W        W17961  21.836  20.584   0.278
47362W        W17962  40.329  43.503  12.788
47363W        W17963  18.606  21.034  11.213
47364W        W17964  13.593  39.512   4.677
47365W        W17965  42.870  28.929  12.598
47366W        W17966  38.820   7.888  12.045
47367W        W17967  39.421  22.414   0.120
47368W        W17968  39.048   0.091  13.881
47369W        W17969   3.985  21.833  11.100
47370W        W17970   4.845  32.731  11.724
47371W        W17971  30.479  14.269  11.858
47372W        W17972  21.522   9.710   1.053
47373W        W17973  39.058  43.576  13.869
47374W        W17974   3.010  33.085  13.798
47375W        W17975  22.550  43.732   0.746
47376W        W17976  28.113  40.135   1.780
47377W        W17977  38.776   8.697  14.044
47378W        W17978  31.146  26.201  12.894
47379W        W17979  11.782   6.215  11.696
47380W        W17980  21.803  34.769   3.704
47381W        W17981  35.122   0.802  14.789
47382W        W17982  10.854  32.730   4.913
47383W        W17983   4.625  20.849  14.281
47384W        W17984   5.942  19.196   3.610
47385W        W17985   0.286  35.652   0.373
47386W        W17986   8.862  42.778   4.120
47387W        W17987  10.384  41.346  14.843
47388W        W17988  17.717  25.757  12.387
47389W        W17989  14.294  32.496  14.071
47390W        W17990  44.514  34.861   3.146
47391W        W17991  20.709  14.668  12.180
47392W        W17992  43.486   5.071   0.323
47393W        W17993  31.111  43.033   2.288
47394W        W17994   7.716  34.415  10.241
47395W        W17995  31.418  35.064  12.915
47396W        W17996  32.970  31.871  10.637
47397W        W17997  38.261  16.240   0.051
47398W        W17998  34.887  25.176   2.193
47399W        W17999  14.810  12.655   2.162
47400W        W18000  25.681  33.533   4.343
47401W        W18001   2.724  28.541   1.875
47402W        W18002  37.886  32.455  12.103
47403W        W18003  12.243  32.787   2.308
47404W        W18004  13.755  22.879  12.460
47405W        W18005  18.546  40.439  14.035
47406W        W18006   5.244  10.105   2.356
47407W        W18007  42.635   1.048  11.747
47408W        W18008  23.314   8.747  12.219
47409W        W18009  12.359  33.586  13.558
47410W        W18010   8.911  11.742  14.831
47411W        W18011   5.876   7.843  13.446
47412W        W18012   8.089  36.226   0.237
47413W        W18013  44.523  23.366   0.867
47414W        W18014  12.351  44.712  14.893
47415W        W18015  27.497  29.678   3.202
47416W        W18016  15.835  30.114  11.864
47417W        W18017  27.867  22.080   1.035
47418W        W18018  41.431   4.214   0.411
47419W        W18019   0.409  43.175  11.967
47420W        W18020   1.283   0.487  14.061
47421W        W18021  15.539  27.911   3.760
47422W        W18022  37.071  41.194  12.018
47423W        W18023  19.047  22.692  12.929
47424W        W18024  29.826  39.257   5.101
47425W        W18025   6.081   5.830  14.927
47426W        W18026   1.167  23.748   2.659
47427W        W18027   5.879  35.541   2.630
47428W        W18028  19.807  11.192   2.076
47429W        W18029   5.286  10.089   1.426
47430W        W18030  22.209  12.376   1.874
47431W        W18031   1.429   9.284  14.817
47432W        W18032  35.475  25.772  11.176
47433W        W18033  39.221  38.859   1.709
47434W        W18034  22.589  30.438   2.432
47435W        W18035   1.844  36.695   0.704
47436W        W18036   9.272  30.978  11.055
47437W        W18037   7.635  11.241   3.557
47438W        W18038  30.099  40.831   0.453
47439W        W18039  43.436  23.045   3.855
47440W        W18040  31.170   3.153  11.989
47441W        W18041   2.488   1.088   4.216
47442W        W18042  20.788  31.938  11.233
47443W        W18043  12.263  37.129   4.275
47444W        W18044  25.196  15.120  13.287
47445W        W18045   4.293  33.745  14.184
47446W        W18046   5.203  38.531   1.502
47447W        W18047  42.395  44.273  14.822
47448W        W18048  12.396  37.864   0.707
47449W        W18049  35.373  17.989   0.548
47450W        W18050  32.149  42.557   1.747
47451W        W18051  39.679  31.864  13.769
47452W        W18052  18.223  16.818  14.683
47453W        W18053   9.097  25.598  11.758
47454W        W18054   0.025   7.629  14.292
47455W        W18055  20.495  42.542   0.355
47456W        W18056   2.781  15.092   0.771
47457W        W18057  20.693  15.363   0.699
47458W        W18058  25.460  24.425  10.843
47459W        W18059   2.000  14.173  13.036
47460W        W18060  19.588  14.916  13.992
47461W        W18061  21.788  25.751  12.894
47462W        W18062  13.869  15.227  12.380
47463W        W18063  22.001  42.821  10.779
47464W        W18064  16.790  37.865  12.875
47465W        W18065  30.962  31.928  10.327
47466W        W18066  40.367   4.222   1.776
47467W        W18067  16.156  21.764  10.726
47468W        W18068  35.119   2.776  13.948
47469W        W18069  32.946  44.768  10.563
47470W        W18070   0.740   3.359   0.137
47471W        W18071  32.440  31.308  11.974
47472W        W18072   0.775  43.345   3.269
47473W        W18073  20.079  23.646   4.075
47474W        W18074  24.231  16.426  13.125
47475W        W18075  41.013  24.159   3.203
47476W        W18076  27.380   9.120   0.750
47477W        W18077  43.521  16.086   4.432
47478W        W18078  32.227  21.352  12.527
47479W        W18079  27.574  35.735   4.498
47480W        W18080  24.462  44.933  12.466
47481W        W18081  31.106  28.351  11.087
47482W        W18082   3.769  35.303   4.028
47483W        W18083  31.407  23.905  12.524
47484W        W18084  36.975  38.633  14.043
47485W        W18085   8.625  17.288   1.714
47486W        W18086  38.063   5.587  11.298
47487W        W18087   5.202  29.992  10.677
47488W        W18088  39.349  30.521   2.704
47489W        W18089  11.599  21.674   4.683
47490W        W18090  25.101  42.843  13.914
47491W        W18091  22.191   6.305   0.987
47492W        W18092  30.692  15.543   1.382
47493W        W18093  41.771  30.060  12.479
47494W        W18094  23.597  34.008   3.750
47495W        W18095  37.490  28.228   3.128
47496W        W18096  17.555   7.213   1.518
47497W        W18097  18.240  38.134  14.390
47498W        W18098  27.516   2.776  13.612
47499W        W18099  20.131  12.337   1.416
47500W        W18100   2.423  21.571  11.614
47501W        W18101   7.454  35.339   4.673
47502W        W18102  12.918  42.233  11.929
47503W        W18103  37.361  19.180  11.894
47504W        W18104   0.564   7.176   2.151
47505W        W18105  15.094  37.617   1.297
47506W        W18106  41.507  22.108  13.433
47507W        W18107  29.829   0.463  11.408
47508W        W18108  44.407   2.366   3.559
47509W        W18109  23.273  39.911   2.547
47510W        W18110   8.153   7.388   2.690
47511W        W18111  43.756   6.749   4.513
47512W        W18112  35.114   7.115   3.419
47513W        W18113  28.859   9.369   0.909
47514W        W18114   7.275   7.176   1.239
47515W        W18115  11.873  37.248   3.215
47516W        W18116  22.006  13.213  11.050
47517W        W18117   2.318  19.840  11.158
47518W        W18118  25.133  27.951   0.420
47519W        W18119  24.211  23.883  12.904
47520W        W18120   2.972  19.195   0.976
47521W        W18121  32.019  12.163   2.173
47522W        W18122  36.475  10.855   1.353
47523W        W18123  22.267  14.296  11.692
47524W        W18124  25.780  22.214  12.450
47525W        W18125  18.721   6.919   0.931
47526W        W18126  41.015   7.219   4.156
47527W        W18127  26.413  36.834   1.413
47528W        W18128  34.594  19.662   0.882
47529W        W18129  38.382  40.165   0.289
47530W        W18130   6.916  11.323   4.144
47531W        W18131   2.176   1.654  13.105
47532W        W18132  29.194   7.200   2.408
47533W        W18133   1.402  44.889   0.277
47534W        W18134  38.035   7.250  13.277
47535W        W18135  35.512   2.863  13.454
47536W        W18136  27.922   2.090  13.374
47537W        W18137   5.699   3.671   1.530
47538W        W18138  29.547  18.987   3.204
47539W        W18139  35.476  43.239  13.455
47540W        W18140   2.176  25.024   2.904
47541W        W18141  28.469  15.310   4.952
47542W        W18142   5.073  15.469   5.392
47543W        W18143  13.172  21.782  12.564
47544W        W18144  26.173  29.468  14.333
47545W        W18145  31.717  22.303   1.769
47546W        W18146   6.355  12.751  12.527
47547W        W18147  36.683  33.698  10.777
47548W        W18148   9.371  38.027  13.141
47549W        W18149   7.869   7.643  13.027
47550W        W18150  33.923  41.830   0.698
47551W        W18151  29.572  43.909  12.948
47552W        W18152  39.864  23.662   1.348
47553W        W18153  23.693  36.970   4.512
47554W        W18154  35.789   5.181   3.468
47555W        W18155  34.833   1.242   0.501
47556W        W18156  21.509  28.077  13.904
47557W        W18157  37.651  36.060  14.165
47558W        W18158  29.844  16.134  13.929
47559W        W18159  31.927   0.174   1.267
47560W        W18160  21.666   2.635   0.960
47561W        W18161  41.089  34.501   0.856
47562W        W18162  33.429  30.195   3.337
47563W        W18163  30.650  42.919  11.971
47564W        W18164  28.847   2.885  13.631
47565W        W18165  23.467  21.868   2.659
47566W        W18166  23.750  36.943  10.513
47567W        W18167  34.672  40.006  11.207
47568W        W18168   0.613   8.273  14.805
47569W        W18169   3.643  24.227   1.735
47570W        W18170   3.347   5.933   2.909
47571W        W18171  41.835  43.021  13.974
47572W        W18172  23.361  32.054  13.349
47573W        W18173  21.823  27.886   1.890
47574W        W18174  32.665  44.134   2.356
47575W        W18175  17.209  40.815   1.774
47576W        W18176  31.837   8.715   2.656
47577W        W18177  24.191   7.378   5.354
47578W        W18178  27.687  38.448  14.783
47579W        W18179  39.446  34.955   0.472
47580W        W18180  17.905  32.883  14.373
47581W        W18181  14.320  23.060   3.624
47582W        W18182   2.779  10.409   2.205
47583W        W18183  36.001  26.753   0.529
47584W        W18184  35.833  31.771   3.824
47585W        W18185  20.804  18.489  12.123
47586W        W18186  25.595  23.682   3.053
47587W        W18187  32.155  13.166  10.765
47588W        W18188  21.565  10.193   1.254
47589W        W18189  13.165   8.642  14.903
47590W        W18190  41.487  12.345   3.768
47591W        W18191  40.486   0.257  13.280
47592W        W18192   8.383   3.246  12.145
47593W        W18193  38.583   0.010   0.727
47594W        W18194  27.595  38.519   4.319
47595W        W18195  27.053   3.968  13.971
47596W        W18196  19.080  30.891  14.830
47597W        W18197   2.801   6.560   1.870
47598W        W18198   1.834   7.648  13.754
47599W        W18199   8.940  19.833   0.333
47600W        W18200  25.715  24.143   1.350
47601W        W18201  20.691   9.367  10.685
47602W        W18202  30.088  27.285  12.947
47603W        W18203  22.158  42.031  13.972
47604W        W18204  16.635  35.409   2.463
47605W        W18205  20.588  25.473   0.833
47606W        W18206   3.628  19.266   0.198
47607W        W18207  24.341  16.566   1.067
47608W        W18208  10.337  15.127   3.264
47609W        W18209  18.492  23.717   1.229
47610W        W18210  11.590  29.999  12.460
47611W        W18211  41.814   6.676  11.598
47612W        W18212  36.586  43.015   4.499
47613W        W18213  40.792  13.297  13.334
47614W        W18214  25.601   8.493   2.298
47615W        W18215  17.538  41.939  10.458
47616W        W18216   2.003   0.691  10.756
47617W        W18217   0.875   6.368   5.104
47618W        W18218  25.403  40.063  13.553
47619W        W18219  39.134  23.612  13.008
47620W        W18220   9.520  12.645   5.090
47621W        W18221  26.427   2.543   0.916
47622W        W18222  13.903  41.129  10.640
47623W        W18223  18.670  10.303   2.621
47624W        W18224  31.745  24.620  14.389
47625W        W18225   1.004   4.776  10.135
47626W        W18226   7.384  25.610   3.336
47627W        W18227  44.232   5.161  13.588
47628W        W18228   5.251  11.700  10.833
47629W        W18229  23.583   4.142  14.314
47630W        W18230  31.874  16.838   0.777
47631W        W18231  44.035  13.587  11.611
47632W        W18232  32.068  41.063  12.984
47633W        W18233   6.755  40.859   0.841
47634W        W18234   4.281   6.014   2.763
47635W        W18235  36.710   2.298  12.568
47636W        W18236  39.462  21.909  14.380
47637W        W18237  19.795  20.212  13.924
47638W        W18238  31.463   0.235   2.171
47639W        W18239  35.003   5.770   2.376
47640W        W18240   0.491  24.291   2.903
47641W        W18241  24.249  40.406  11.564
47642W        W18242  22.649  17.704   1.087
47643W        W18243  24.425  10.659  12.537
47644W        W18244   5.191  22.922   3.504
47645W        W18245  11.766  36.510   3.691
47646W        W18246  27.147  38.091   4.833
47647W        W18247  42.520  41.388   1.743
47648W        W18248  36.623  30.489  14.290
47649W        W18249  44.722  15.094   0.293
47650W        W18250   5.385  25.756   1.324
47651W        W18251  14.134  17.701  11.536
47652W        W18252  16.096  36.376   2.610
47653W        W18253  21.143  20.275  12.931
47654W        W18254   9.787  20.263  14.243
47655W        W18255   6.779  19.207   1.051
47656W        W18256  23.686  10.311   1.262
47657W        W18257  22.645   9.726   1.828
47658W        W18258  19.568  31.111  14.892
47659W        W18259  17.255  44.501   4.000
47660W        W18260  22.156   6.669  14.365
47661W        W18261  41.606  28.973  12.157
47662W        W18262  20.755  10.289  14.328
47663W        W18263  32.804  30.228  14.498
47664W        W18264   6.823  14.088   0.971
47665W        W18265  19.205  37.295  13.534
47666W        W18266  16.736  32.021   0.870
47667W        W18267  43.927  30.438  13.100
47668W        W18268   8.770  33.243  11.419
47669W        W18269  42.752   4.623   2.165
47670W        W18270   9.542  20.410  11.123
47671W        W18271   1.466   0.178  12.070
47672W        W18272  44.408   4.091   4.247
47673W        W18273  13.749  39.881  14.975
47674W        W18274   6.844  36.107  11.553
47675W        W18275  34.483  40.169  11.686
47676W        W18276  33.048  27.133   2.371
47677W        W18277  33.457  43.735  10.367
47678W        W18278  40.083  31.357   1.525
47679W        W18279   7.681  23.475  14.252
47680W        W18280  36.428  15.059   3.796
47681W        W18281   4.372  26.214   0.400
47682W        W18282  11.712  33.017  11.463
47683W        W18283  13.589  20.625   1.343
47684W        W18284  27.974  29.018  13.396
47685W        W18285   4.835  44.012  12.625
47686W        W18286   4.983  21.581  10.672
47687W        W18287   2.814  39.454   3.804
47688W        W18288  37.096  16.881   1.982
47689W        W18289  43.859  29.433  12.062
47690W        W18290  38.346  38.933  12.064
47691W        W18291   2.974  26.139   4.135
47692W        W18292   2.881  40.228   0.203
47693W        W18293  18.776  33.625   2.402
47694W        W18294   4.787  34.052   2.006
47695W        W18295  25.461   0.236   4.589
47696W        W18296  28.215  38.570  14.683
47697W        W18297  41.071  27.449  12.106
47698W        W18298  10.292  41.581  11.719
47699W        W18299  17.696   6.386   0.081
47700W        W18300  33.688  19.221  12.516
47701W        W18301  35.823  30.697   4.571
47702W        W18302  32.353  38.397   3.675
47703W        W18303  19.504   1.349   4.817
47704W        W18304  37.399  25.303  13.932
47705W        W18305  23.262  42.456   2.207
47706W        W18306   5.640  39.839   0.719
47707W        W18307  35.748  11.427  11.680
47708W        W18308   8.467  26.235   4.693
47709W        W18309  31.366  30.725  12.136
47710W        W18310   9.331  32.536  11.652
47711W        W18311  31.087  16.850   0.325
47712W        W18312   5.039   1.645   2.291
47713W        W18313  32.962   3.652  11.063
47714W        W18314  44.772  35.435   4.200
47715W        W18315   0.392  38.461   0.914
47716W        W18316  21.192  21.595   4.513
47717W        W18317  23.973  11.329  14.245
47718W        W18318  23.646  38.784  14.542
47719W        W18319   2.445  37.909  11.663
47720W        W18320   1.670  37.970  10.985
47721W        W18321  38.319  22.940  13.344
47722W        W18322  28.521  26.585  10.134
47723W        W18323  31.390  44.338   1.460
47724W        W18324  40.468  10.181   0.548
47725W        W18325   1.142   4.235  14.885
47726W        W18326  12.797  17.760  14.930
47727W        W18327  33.935  25.688   0.031
47728W        W18328  44.047  22.706   4.269
47729W        W18329  37.015  15.743  14.907
47730W        W18330  18.290  12.381   3.762
47731W        W18331  34.131  17.695   0.044
47732W        W18332   0.375  28.289   4.367
47733W        W18333   2.545   1.767   3.240
47734W        W18334  41.853  29.258   1.325
47735W        W18335   8.776  42.421   4.729
47736W        W18336   7.218  32.263   4.718
47737W        W18337   4.043  31.197   2.097
47738W        W18338  10.813  18.168   0.999
47739W        W18339  34.116  30.981   1.940
47740W        W18340  34.685   2.467  14.040
47741W        W18341  24.184   7.818  11.623
47742W        W18342  21.729  17.299   3.425
47743W        W18343  33.679   1.430  10.504
47744W        W18344  10.518   3.347   4.642
47745W        W18345  29.622  21.860   1.908
47746W        W18346  43.889  18.588  11.572
47747W        W18347  11.343  27.986   0.871
47748W        W18348   4.432  25.155  10.079
47749W        W18349   3.875  11.646   4.679
47750W        W18350  33.750  36.630  11.263
47751W        W18351  43.085  17.978   3.187
47752W        W18352  39.551  21.151   0.010
47753W        W18353  32.926  41.515  11.841
47754W        W18354  26.703   7.762   2.715
47755W        W18355  27.946   1.997  12.072
47756W        W18356  26.586  33.414   3.725
47757W        W18357   8.289  13.508   3.756
47758W        W18358   3.029   3.385  10.192
47759W        W18359  39.925  11.642   3.406
47760W        W18360  11.864  39.974  14.800
47761W        W18361   1.149  20.780   2.259
47762W        W18362  41.746  14.223  13.455
47763W        W18363   2.752   0.779   4.573
47764W        W18364   8.442   2.910  13.426
47765W        W18365  18.384  22.187   1.866
47766W        W18366  41.845   1.760   1.117
47767W        W18367   3.346  18.000  12.655
47768W        W18368  37.123  36.581  12.059
47769W        W18369  26.758  23.238   1.333
47770W        W18370  37.065  10.684  11.544
47771W        W18371  43.400  41.872  13.971
47772W        W18372  24.602  13.976   1.417
47773W        W18373  33.007  39.744   2.262
47774W        W18374  18.826  41.373  14.494
47775W        W18375  13.551  44.410   3.779
47776W        W18376  27.507   4.772   2.371
47777W        W18377  15.909  43.242   1.199
47778W        W18378   3.954  12.383  13.514
47779W        W18379  43.974   1.477  13.859
47780W        W18380  35.763  16.652  11.245
47781W        W18381  25.611  30.064  11.039
47782W        W18382  28.541  15.859   4.090
47783W        W18383  24.681  43.565   1.044
47784W        W18384  44.468  24.648   2.125
47785W        W18385   4.643  18.323  11.001
47786W        W18386  35.602   1.588   0.997
47787W        W18387  30.084  12.640  12.093
47788W        W18388  24.486  19.989  11.546
47789W        W18389  10.913   9.825   1.191
47790W        W18390   3.394  12.427  13.920
47791W        W18391  34.806  19.373  10.630
47792W        W18392  23.922  21.594   2.754
47793W        W18393  39.593  38.318   4.597
47794W        W18394   7.750  41.703  13.822
47795W        W18395   6.203  26.885  10.198
47796W        W18396  25.602  24.737  10.455
47797W        W18397   8.788  30.629  12.919
47798W        W18398  32.608  20.989  14.831
47799W        W18399  33.811   5.395   3.887
47800W        W18400  13.606  36.445  12.418
47801W        W18401   0.695  20.067  12.091
47802W        W18402  12.920  21.638  14.958
47803W        W18403  21.695  26.948   1.650
47804W        W18404   5.456  37.314   5.018
47805W        W18405   4.710  20.381  12.529
47806W        W18406  37.737  37.474   3.212
47807W        W18407  26.233  11.313  13.639
47808W        W18408  31.095  17.068   1.743
47809W        W18409  40.683  17.606  10.386
47810W        W18410  35.632   4.170   0.903
47811W        W18411  35.737  11.587   4.554
47812W        W18412  35.500  43.085   0.720
47813W        W18413   3.538  23.774  14.764
47814W        W18414  30.037  24.414   0.554
47815W        W18415  29.303  18.093  10.435
47816W        W18416  44.271  13.605   2.847
47817W        W18417  43.903  15.382   1.776
47818W        W18418   2.979  29.065   2.661
47819W        W18419  40.910  22.018  12.947
47820W        W18420  34.283  26.111   1.832
47821W        W18421  35.523  22.603  12.452
47822W        W18422  39.807   0.943  14.945
47823W        W18423  23.032  15.381  12.959
47824W        W18424  30.894  10.720   0.514
47825W        W18425   4.032  13.720   4.115
47826W        W18426   5.827  40.355   4.267
47827W        W18427  10.063  22.528   3.133
47828W        W18428  24.659  24.098   3.867
47829W        W18429  13.042   1.397   1.024
47830W        W18430  10.791  31.037  14.298
47831W        W18431  41.814  25.726  12.689
47832W        W18432   9.477   2.032  12.876
47833W        W18433  16.731  28.156  12.497
47834W        W18434   6.905   4.502  14.453
47835W        W18435   7.050  15.045   4.154
47836W        W18436  37.565  44.239   3.688
47837W        W18437  40.238  27.562  13.238
47838W        W18438   6.473  33.528   4.367
47839W        W18439  26.585  28.550  13.503
47840W        W18440  24.176  28.101  14.390
47841W        W18441   6.277  12.804   3.251
47842W        W18442   5.884  11.262   2.319
47843W        W18443   1.325   1.995  14.513
47844W        W18444   5.366  36.209   4.212
47845W        W18445  11.846  35.990   3.624
47846W        W18446  22.751  31.153   2.182
47847W        W18447  21.866  18.435  14.452
47848W        W18448  20.939  13.688  13.134
47849W        W18449  15.668  26.154  13.036
47850W        W18450  26.159  35.156  13.075
47851W        W18451   6.161   0.926   2.262
47852W        W18452  15.519  11.818   3.699
47853W        W18453  15.813   4.760   3.334
47854W        W18454   0.254  17.775   2.537
47855W        W18455  18.427  41.208   5.059
47856W        W18456  27.406  21.974   1.971
47857W        W18457  17.992   7.177   2.843
47858W        W18458  29.126   7.612  13.911
47859W        W18459  15.291   0.921   2.273
47860W        W18460  42.398  30.861   4.893
47861W        W18461  40.333  24.644  14.996
47862W        W18462  25.434  33.392  12.980
47863W        W18463  16.671  24.473  13.277
47864W        W18464   3.435  12.720  11.288
47865W        W18465  23.227  33.013   4.733
47866W        W18466  43.524  44.898  13.942
47867W        W18467   4.667  42.919   4.665
47868W        W18468  42.774  34.154   3.058
47869W        W18469   9.758  37.052   4.433
47870W        W18470  38.586  25.921  11.634
47871W        W18471  41.908  35.922  11.620
47872W        W18472  44.022  42.553  12.570
47873W        W18473  43.903   8.841   4.592
47874W        W18474   4.457  39.833   1.923
47875W        W18475  28.594   6.329   0.960
47876W        W18476  32.348  22.768   2.195
47877W        W18477  22.165  35.859   1.103
47878W        W18478  19.946  13.225   1.913
47879W        W18479   7.786  16.342   2.709
47880W        W18480  25.080  33.900   1.222
47881W        W18481   9.905  12.610  11.045
47882W        W18482  42.975   4.716  14.033
47883W        W18483  36.400  38.402  12.792
47884W        W18484  44.004   9.177   4.205
47885W        W18485  30.057   8.701   4.106
47886W        W18486   3.449  37.339  13.234
47887W        W18487  13.237  34.975  11.884
47888W        W18488  11.724   0.139   3.651
47889W        W18489   2.378  42.964   3.125
47890W        W18490  27.157  33.512  14.940
47891W        W18491   1.278  21.835   4.456
47892W        W18492  28.183  35.129  12.689
47893W        W18493  24.865   4.059   2.717
47894W        W18494  14.796  42.682  12.032
47895W        W18495  34.897  39.953  12.548
47896W        W18496  33.145  40.547  12.393
47897W        W18497  43.356  31.208  10.693
47898W        W18498   6.436  27.062  13.054
47899W        W18499  38.244   8.801  14.053
47900W        W18500  44.758  24.559  12.791
47901W        W18501   7.140  16.660  13.058
47902W        W18502  12.860   7.669  10.735
47903W        W18503  13.342   3.656   3.091
47904W        W18504  43.477   1.396   1.153
47905W        W18505   0.819  14.035   4.163
47906W        W18506  25.556  40.018  13.051
47907W        W18507   4.743  25.304  13.508
47908W        W18508  21.642  15.325  12.849
47909W        W18509  18.805   5.473   0.668
47910W        W18510  39.587  33.520   2.716
47911W        W18511  17.692  36.906   2.165
47912W        W18512  14.416  21.713  10.696
47913W        W18513  41.465  30.463   0.914
47914W        W18514  21.955  36.371  14.895
47915W        W18515   1.017   8.635   4.730
47916W        W18516  25.010  33.486  11.482
47917W        W18517  10.286  13.089  13.513
47918W        W18518   1.319  41.607  14.970
47919W        W18519   2.802  24.254   0.031
47920W        W18520  16.894  12.752   2.672
47921W        W18521  21.801  32.121  12.630
47922W        W18522  27.715  20.615   3.713
47923W        W18523   2.765  21.087   4.867
47924W        W18524  39.282  42.795   0.940
47925W        W18525  29.474  33.911   0.856
47926W        W18526  10.277   4.448   0.347
47927W        W18527   1.640  16.955  13.827
47928W        W18528  21.859  23.480  12.355
47929W        W18529  33.079  32.969  11.993
47930W        W18530   2.019   2.929   0.343
47931W        W18531   8.780  32.062  14.931
47932W        W18532  43.809  30.546   1.447
47933W        W18533  26.551  17.053  14.059
47934W        W18534  25.334  36.665  11.156
47935W        W18535  16.472  28.441  12.108
47936W        W18536  19.783  20.905  14.142
47937W        W18537  18.350  36.826  13.792
47938W        W18538  40.562   9.597  13.495
47939W        W18539  20.101  22.186   0.228
47940W        W18540   2.460  36.875  13.745
47941W        W18541  22.722  32.935   3.797
47942W        W18542  21.636  25.351   3.591
47943W        W18543  43.235  34.475  14.982
47944W        W18544  12.256   0.285   3.615
47945W        W18545  30.039  28.006   2.671
47946W        W18546  17.695  23.491  11.434
47947W        W18547   4.766  36.958  11.618
47948W        W18548  14.233  10.255  14.884
47949W        W18549  38.556  29.950   4.373
47950W        W18550  34.912  37.933   4.312
47951W        W18551  20.570  30.746  13.130
47952W        W18552  28.745  22.631   4.532
47953W        W18553  23.126  23.090  14.399
47954W        W18554  20.097  14.739  13.960
47955W        W18555  13.820   6.183  12.538
47956W        W18556  40.607  39.851  11.751
47957W        W18557   9.143  12.740  10.526
47958W        W18558  33.152  18.571  12.023
47959W        W18559  31.441  28.484  11.448
47960W        W18560  33.533   7.037   3.252
47961W        W18561  11.070   3.320   0.764
47962W        W18562  32.472   5.184  13.991
47963W        W18563  40.228  37.333  10.708
47964W        W18564  26.641  41.354  12.557
47965W        W18565   8.662  39.455  13.959
47966W        W18566  16.522  32.976   4.564
47967W        W18567  11.330  17.511   4.445
47968W        W18568  16.104  26.667   3.553
47969W        W18569  15.157  17.892   3.310
47970W        W18570  37.962  18.848  12.419
47971W        W18571   9.279  24.072   0.471
47972W        W18572  24.035  14.407  12.594
47973W        W18573  39.009  27.225  14.796
47974W        W18574  11.789  12.517   3.626
47975W        W18575  33.675  43.964   4.124
47976W        W18576  18.684  32.092   3.922
47977W        W18577  18.568  38.676  12.587
47978W        W18578  44.969  35.293  12.768
47979W        W18579  28.884  12.681  13.782
47980W        W18580  15.004  12.081  12.145
47981W        W18581  12.685  25.198   3.715
47982W        W18582  34.247  17.784   0.534
47983W        W18583  36.535  33.214   1.377
47984W        W18584  38.001  38.104   1.362
47985W        W18585  14.153  38.812   4.385
47986W        W18586  11.841  26.973  13.539
47987W        W18587   4.008  24.028   3.636
47988W        W18588  11.378  31.360   2.881
47989W        W18589  18.349  32.785   3.296
47990W        W18590  27.198  11.692  13.518
47991W        W18591  26.588  31.492  11.929
47992W        W18592   1.680  14.282   3.238
47993W        W18593  34.871  36.412   3.158
47994W        W18594  29.020  36.917  13.515
47995W        W18595   2.398   3.982   4.581
47996W        W18596  40.950  33.833   4.257
47997W        W18597  41.008   8.360  11.599
47998W        W18598  34.643  27.033  13.564
47999W        W18599  43.834  33.098   2.707
48000W        W18600  21.658   0.321   1.623
48001W        W18601  15.581  44.960  10.979
48002W        W18602   0.825   2.347  10.582
48003W        W18603  41.191  20.758   4.977
48004W        W18604  28.975  43.012  11.612
48005W        W18605  35.049  37.893   2.316
48006W        W18606   5.562  34.092   1.347
48007W        W18607  40.854  19.302  14.255
48008W        W18608   5.064  31.038  13.568
48009W        W18609  33.984  42.351  10.742
48010W        W18610  25.491  43.950  13.428
48011W        W18611  16.682  11.885  13.493
48012W        W18612  17.836  19.152   3.150
48013W        W18613  29.427   7.601   0.264
48014W        W18614   5.113   7.173   1.762
48015W        W18615  22.966  35.523   1.388
48016W        W18616  42.511  14.670   4.322
48017W        W18617  39.950   0.234   2.160
48018W        W18618  24.193   9.715  13.601
48019W        W18619   1.245   0.709   2.264
48020W        W18620  15.085   6.675   3.287
48021W        W18621  25.117  24.427  12.938
48022W        W18622  28.266  29.259   4.305
48023W        W18623  41.482  33.945   4.807
48024W        W18624  42.900  38.337   0.626
48025W        W18625  42.599  22.941   0.805
48026W        W18626  18.637  34.810  12.418
48027W        W18627  34.444  32.854   4.276
48028W        W18628  13.887  29.117   4.368
48029W        W18629  18.168  40.612  11.052
48030W        W18630  40.504  37.656  12.337
48031W        W18631  17.283  17.230  10.773
48032W        W18632   5.359  18.892   1.721
48033W        W18633  40.519  15.314   1.843
48034W        W18634  28.891  30.341  14.827
48035W        W18635  30.438   0.988   4.638
48036W        W18636  11.875  39.369  14.477
48037W        W18637  11.836   2.494  12.935
48038W        W18638  44.863   9.095  14.240
48039W        W18639  39.367  32.655   1.766
48040W        W18640  10.374  13.421  14.404
48041W        W18641  31.976  16.090   4.821
48042W        W18642  44.835  10.786   0.352
48043W        W18643  39.427  41.291   2.438
48044W        W18644   7.115  29.017   0.951
48045W        W18645  30.600  21.236  11.462
48046W        W18646   2.420  10.177  11.458
48047W        W18647  13.200  31.055  11.094
48048W        W18648  35.134   5.339  11.798
48049W        W18649  37.286   9.228  12.576
48050W        W18650  30.260  14.010  14.339
48051W        W18651   7.899  14.145  11.760
48052W        W18652  40.860  41.458   2.468
48053W        W18653  33.635  13.020   2.388
48054W        W18654  40.208   2.775  13.690
48055W        W18655  18.375  20.832  13.451
48056W        W18656   9.598  32.896   1.349
48057W        W18657  39.783  40.419  13.943
48058W        W18658  38.099  39.527  12.177
48059W        W18659   0.461  24.915   5.162
48060W        W18660  44.849   0.491  13.367
48061W        W18661  44.983   8.463   1.216
48062W        W18662  18.063  10.922  11.953
48063W        W18663  43.264   1.270   4.459
48064W        W18664  30.352  34.530  13.925
48065W        W18665  19.834   6.834   3.429
48066W        W18666  36.848  14.204   0.951
48067W        W18667   9.573  11.951  11.066
48068W        W18668  10.612  13.165  12.399
48069W        W18669  36.076   4.301   3.014
48070W        W18670  41.532  22.949  12.108
48071W        W18671  34.426   2.250   0.369
48072W        W18672   4.908  19.728   1.161
48073W        W18673   0.945  16.140   4.787
48074W        W18674   0.067   6.962  14.582
48075W        W18675   7.937  14.858   1.220
48076W        W18676   1.924  26.191   0.849
48077W        W18677  27.916  15.012  12.656
48078W        W18678  14.077  34.006   3.743
48079W        W18679  20.654   1.273   1.333
48080W        W18680  17.751  16.968   0.473
48081W        W18681  36.610   8.846  12.050
48082W        W18682  28.595  28.128  14.142
48083W        W18683  12.698  31.028  11.354
48084W        W18684  29.982  14.869   2.305
48085W        W18685   6.872  13.154   1.242
48086W        W18686  22.999   6.466  13.480
48087W        W18687  21.386  27.386  10.276
48088W        W18688  17.017  25.636   5.514
48089W        W18689   4.237  39.325  13.871
48090W        W18690  10.429  29.692  10.755
48091W        W18691  28.745  14.133   0.722
48092W        W18692  17.591  20.589   1.885
48093W        W18693  40.279  11.548   5.122
48094W        W18694   9.326  37.566   0.259
48095W        W18695  36.789  35.056  12.083
48096W        W18696  28.168  34.868  12.239
48097W        W18697  14.305  25.302  12.910
48098W        W18698   6.666  31.211   0.679
48099W        W18699  19.277  41.757   2.266
48100W        W18700  42.455  14.657   2.910
48101W        W18701  41.296   9.666   4.412
48102W        W18702  41.073  21.679  11.960
48103W        W18703  31.115   4.897   4.609
48104W        W18704  27.452  40.574   2.203
48105W        W18705  13.885  33.564   0.887
48106W        W18706  20.022  27.408  14.417
48107W        W18707  22.192   7.939  10.313
48108W        W18708   5.654  34.411  12.203
48109W        W18709   3.457  28.613   0.751
48110W        W18710   4.477  35.553   3.620
48111W        W18711  16.181   4.410  12.579
48112W        W18712  32.272  26.231  11.255
48113W        W18713  42.206  38.376   2.495
48114W        W18714  37.926  33.168  14.802
48115W        W18715  14.769  41.829   3.258
48116W        W18716  12.116  12.986  13.064
48117W        W18717  17.083   6.550   0.764
48118W        W18718  35.971  12.297   2.249
48119W        W18719  22.172  37.953   2.565
48120W        W18720  14.568  36.234   3.634
48121W        W18721   2.845  37.553  13.739
48122W        W18722  15.803  15.439   5.396
48123W        W18723  19.318  37.837  14.840
48124W        W18724  22.751  41.406  14.429
48125W        W18725  18.941  26.990  13.045
48126W        W18726   6.218  41.457  11.482
48127W        W18727   8.484   5.063  10.808
48128W        W18728  37.507  17.434   2.886
48129W        W18729  34.556  26.690  13.043
48130W        W18730  34.439   1.348  14.599
48131W        W18731  19.991   6.928   4.391
48132W        W18732  22.525  27.263   3.845
48133W        W18733  32.470  12.835   1.899
48134W        W18734  12.871   0.981  11.924
48135W        W18735  28.658  39.393  12.119
48136W        W18736   8.165   6.902  13.352
48137W        W18737  28.513  15.299   3.216
48138W        W18738  29.618   3.448  14.752
48139W        W18739  30.318  25.131  13.062
48140W        W18740   0.249  38.874  10.813
48141W        W18741  13.362  26.027  11.377
48142W        W18742  40.553   1.026   0.191
48143W        W18743  40.335  14.884  10.702
48144W        W18744  43.292  24.336   2.774
48145W        W18745  13.274  22.110  11.149
48146W        W18746  32.728  39.029   3.891
48147W        W18747  15.254  10.913  11.215
48148W        W18748  30.490  42.307  14.863
48149W        W18749  28.120  44.924  12.135
48150W        W18750  35.344  43.212  14.355
48151W        W18751   1.887  36.206   0.486
48152W        W18752  12.212  37.961   1.378
48153W        W18753  40.826  18.622   1.982
48154W        W18754  39.559  11.656   4.091
48155W        W18755  21.554  20.695   2.749
48156W        W18756   0.164  19.313  10.848
48157W        W18757   0.705  41.520  10.674
48158W        W18758  24.146  19.989   4.776
48159W        W18759  10.397  29.068   1.444
48160W        W18760   7.559   4.399  11.407
48161W        W18761  23.022  15.277   2.219
48162W        W18762  16.279  41.327   2.239
48163W        W18763  14.995  26.692   2.289
48164W        W18764   9.208  29.243   1.723
48165W        W18765  42.975  17.050   3.219
48166W        W18766   6.848  38.032  10.383
48167W        W18767  29.319  10.230  13.797
48168W        W18768  35.634  26.074   0.681
48169W        W18769  41.581  30.951  12.944
48170W        W18770   7.178   8.410  10.756
48171W        W18771  24.161  11.178   0.311
48172W        W18772  25.213  24.169   1.341
48173W        W18773   2.697  36.429  14.529
48174W        W18774  15.609  24.060   2.315
48175W        W18775  31.045  31.428  13.904
48176W        W18776  33.068  26.582  13.632
48177W        W18777  41.931   3.982  11.676
48178W        W18778  39.351   7.384  12.502
48179W        W18779   9.819  34.493   1.481
48180W        W18780  21.711  15.364  14.996
48181W        W18781  31.982   2.913  13.761
48182W        W18782  42.416  31.073   2.260
48183W        W18783  11.537  34.095  10.713
48184W        W18784  11.350  42.917   4.953
48185W        W18785  20.565  19.244  14.216
48186W        W18786  33.863  33.840  13.931
48187W        W18787  25.033  30.233   3.149
48188W        W18788  34.981   6.268   4.543
48189W        W18789  31.138  26.144   0.245
48190W        W18790  23.972  25.974   4.023
48191W        W18791  35.208  25.865   0.843
48192W        W18792   1.686  31.793  13.563
48193W        W18793  23.624  32.478  13.107
48194W        W18794  21.246  10.002  11.670
48195W        W18795   8.698  17.137  14.361
48196W        W18796  27.449  38.310   2.779
48197W        W18797  14.500  24.330  11.735
48198W        W18798  15.160   7.187   0.618
48199W        W18799  38.445  16.121  13.813
48200W        W18800  43.999  26.604   4.184
48201W        W18801  11.339   0.519  12.423
48202W        W18802  11.014  37.378   3.188
48203W        W18803  21.456  17.687   0.013
48204W        W18804  37.519   7.444  14.513
48205W        W18805  11.917  30.617  13.616
48206W        W18806  35.098  15.065  11.587
48207W        W18807   7.803  10.058  11.227
48208W        W18808  43.946  27.611  10.788
48209W        W18809  16.118  20.217   0.828
48210W        W18810  29.714  36.024  10.786
48211W        W18811  37.303  18.569  13.918
48212W        W18812  33.753  10.406   4.179
48213W        W18813  15.512  16.674  13.564
48214W        W18814  18.287  41.865  11.682
48215W        W18815  14.626   7.821  11.036
48216W        W18816  10.935  32.828   2.490
48217W        W18817   1.460   1.499   0.397
48218W        W18818  18.308  12.763   1.366
48219W        W18819   4.079  20.586  12.884
48220W        W18820  14.288  44.195   3.344
48221W        W18821  22.786  31.351  13.903
48222W        W18822  12.861  36.316   2.154
48223W        W18823  40.953  32.692  11.787
48224W        W18824   0.107  40.160  13.513
48225W        W18825  26.362  39.761   4.427
48226W        W18826   0.168  32.431  13.459
48227W        W18827  19.142  23.940  12.335
48228W        W18828   8.796  22.144  11.751
48229W        W18829  28.987   1.409  13.888
48230W        W18830  23.012  41.082  14.737
48231W        W18831  19.239  28.020   1.933
48232W        W18832  35.633  28.617   1.912
48233W        W18833  44.572  25.691  12.463
48234W        W18834   4.618  41.639   4.344
48235W        W18835  39.914  16.602   0.046
48236W        W18836   8.342  42.739  14.347
48237W        W18837  17.984  24.114   0.954
48238W        W18838  11.952  22.682   2.864
48239W        W18839  20.002  44.456  10.181
48240W        W18840  43.180  23.623  10.629
48241W        W18841  42.660  41.400   4.523
48242W        W18842   1.567  30.552  14.478
48243W        W18843  26.537  27.907  12.982
48244W        W18844  35.978   8.724  14.379
48245W        W18845  39.675  37.351  10.704
48246W        W18846   2.998  41.999   1.912
48247W        W18847  33.356  39.779   0.232
48248W        W18848  12.007   0.810  14.436
48249W        W18849  41.107  34.438   1.731
48250W        W18850  29.600   8.342  11.153
48251W        W18851  31.949  14.207   1.974
48252W        W18852  29.144  17.782  11.876
48253W        W18853  41.574  33.511  10.709
48254W        W18854  16.690   2.559  11.620
48255W        W18855  29.920  29.672   4.744
48256W        W18856   3.519  41.738  12.683
48257W        W18857  44.816  43.503   0.228
48258W        W18858  36.888  21.789  11.877
48259W        W18859  14.310   2.667  11.111
48260W        W18860  21.482  35.946  13.081
48261W        W18861  33.876  29.846   4.718
48262W        W18862  42.624   8.818  13.433
48263W        W18863  43.131   3.688   2.193
48264W        W18864   7.233  20.969  10.771
48265W        W18865   9.770  35.328   0.306
48266W        W18866  20.815   9.912   3.587
48267W        W18867  21.628  33.085  11.508
48268W        W18868  27.711  32.667   2.731
48269W        W18869  38.098  14.582  12.131
48270W        W18870  36.865   7.243  13.867
48271W        W18871  18.720   6.460  13.599
48272W        W18872  42.788  43.255   1.523
48273W        W18873  44.241   6.675   0.471
48274W        W18874  13.357  14.545  13.359
48275W        W18875  13.999  34.815   4.119
48276W        W18876   7.414   4.361  14.355
48277W        W18877  21.652   6.203  11.909
48278W        W18878  27.978  17.932  10.892
48279W        W18879   2.374  17.322   3.283
48280W        W18880   7.819  39.109   1.863
48281W        W18881   1.892  10.212  12.586
48282W        W18882  27.462  18.666   2.780
48283W        W18883  24.252  39.484   0.914
48284W        W18884  43.989  20.497   5.012
48285W        W18885  39.559  31.356   2.885
48286W        W18886  18.317   9.272   1.256
48287W        W18887   5.476   5.844   1.406
48288W        W18888  24.496  27.254  10.521
48289W        W18889   4.225  20.617   0.685
48290W        W18890  25.922  44.339   3.285
48291W        W18891  35.396   9.685   4.253
48292W        W18892  20.292   9.696  11.594
48293W        W18893  16.806  23.452  13.359
48294W        W18894  40.537  17.537  11.228
48295W        W18895   1.995  12.410  11.215
48296W        W18896  17.496  14.163   0.643
48297W        W18897  26.692   0.100   2.356
48298W        W18898  24.514  21.259  11.589
48299W        W18899  20.247  20.766   0.366
48300W        W18900   7.344  39.457  13.280
48301W        W18901  31.432  33.958  12.170
48302W        W18902   4.032  16.639   2.259
48303W        W18903  18.478  36.666  11.199
48304W        W18904   0.370  19.812  12.487
48305W        W18905  10.840   6.678   1.221
48306W        W18906  10.336  24.163  14.460
48307W        W18907  11.215  29.735  14.986
48308W        W18908   6.271  42.737   4.063
48309W        W18909  39.753   6.190   2.107
48310W        W18910  12.224  25.472   3.712
48311W        W18911  28.889  42.776  14.416
48312W        W18912  35.353  21.685  10.524
48313W        W18913  16.864  12.147   0.868
48314W        W18914  24.121  33.653  12.039
48315W        W18915  39.553  13.227   4.494
48316W        W18916  23.321  24.217   4.151
48317W        W18917  27.508  12.267  14.869
48318W        W18918  30.601  24.968  10.782
48319W        W18919   4.227   6.255   4.191
48320W        W18920   6.861  24.897  14.394
48321W        W18921   5.682  26.608   2.724
48322W        W18922   8.214  27.911  11.069
48323W        W18923  42.940  12.310   0.682
48324W        W18924   8.303   3.896  13.489
48325W        W18925   1.858  32.311   3.609
48326W        W18926  25.198   8.990  11.443
48327W        W18927  42.839  23.181  11.583
48328W        W18928  40.091  30.107  14.306
48329W        W18929  40.006  30.167  12.874
48330W        W18930   6.294  36.964  12.317
48331W        W18931  31.016  43.380   4.544
48332W        W18932  26.021   2.286  14.539
48333W        W18933  24.685  38.194  11.166
48334W        W18934   7.004   2.307  11.201
48335W        W18935  32.662  10.766  11.123
48336W        W18936  41.463  29.858  14.379
48337W        W18937  27.763  33.848  14.429
48338W        W18938  34.518  31.492   2.572
48339W        W18939   9.824  15.833   0.337
48340W        W18940  27.323   5.813   0.911
48341W        W18941  16.105  25.285  13.546
48342W        W18942  17.837  38.288   1.384
48343W        W18943   0.841   0.446  13.745
48344W        W18944  10.176  44.872  12.886
48345W        W18945  21.717  43.275  11.948
48346W        W18946  40.966  16.866  13.519
48347W        W18947   7.856  42.843   1.950
48348W        W18948  20.984   0.420   3.135
48349W        W18949  40.146  10.253   4.624
48350W        W18950   7.028  28.478   0.936
48351W        W18951  18.662  33.667  14.870
48352W        W18952   3.332  10.798   2.907
48353W        W18953   0.403  41.284  12.150
48354W        W18954  22.882   3.851  13.297
48355W        W18955  14.359  32.061  10.759
48356W        W18956  44.512  24.526   3.704
48357W        W18957   4.307   5.387   1.174
48358W        W18958   4.791  20.299  10.963
48359W        W18959  16.394  32.716   3.675
48360W        W18960  35.104  11.337  10.880
48361W        W18961  15.507  41.692   1.682
48362W        W18962  25.204  26.660   2.276
48363W        W18963  33.445  15.872  11.597
48364W        W18964  11.066   5.369   2.846
48365W        W18965  34.572  21.577   4.106
48366W        W18966   8.717  20.264  10.711
48367W        W18967  29.152   2.738   1.349
48368W        W18968  10.621   4.094   0.552
48369W        W18969  26.870  20.565   0.857
48370W        W18970  16.865  28.580  11.798
48371W        W18971   5.711  41.324   3.239
48372W        W18972  13.128  27.158  10.644
48373W        W18973  33.629  38.955  14.192
48374W        W18974   6.184  27.088   1.523
48375W        W18975  14.905  24.554  13.007
48376W        W18976   3.062  22.028  11.886
48377W        W18977  34.491  27.954  13.852
48378W        W18978   8.193   3.459   3.794
48379W        W18979   3.143   1.924   0.402
48380W        W18980  24.997   5.945  13.088
48381W        W18981  37.526  18.121  13.958
48382W        W18982  39.123  37.039  13.840
48383W        W18983  27.737  34.627  11.178
48384W        W18984  31.170  26.076  12.387
48385W        W18985  16.575  29.404  12.880
48386W        W18986   4.175  28.763  11.731
48387W        W18987  12.160  30.587   4.857
48388W        W18988  42.438  20.818   3.223
48389W        W18989  28.482  38.712  12.162
48390W        W18990  23.953  33.368   3.691
48391W        W18991  18.226   6.720   2.597
48392W        W18992   5.229  15.849  10.179
48393W        W18993  23.507  26.170   3.977
48394W        W18994  38.471  44.810  12.598
48395W        W18995  18.103  39.338  12.976
48396W        W18996  29.012  28.790  12.750
48397W        W18997  10.182  41.428   2.847
48398W        W18998  28.628  24.799  11.672
48399W        W18999  33.511  44.760   0.390
48400W        W19000  16.698  25.313  12.049
48401W        W19001  25.388  27.310   1.852
48402W        W19002  42.326  10.919   3.720
48403W        W19003  28.961   6.364   0.410
48404W        W19004  40.279  28.555   1.659
48405W        W19005   8.641  28.606  14.924
48406W        W19006  40.867  41.518   3.367
48407W        W19007   9.590   5.574   4.930
48408W        W19008  44.337  44.768  10.362
48409W        W19009  30.643  12.857   2.649
48410W        W19010  35.049  35.897   3.874
48411W        W19011  36.381  30.914  14.981
48412W        W19012   7.429  42.892   1.659
48413W        W19013   1.828  23.513   3.891
48414W        W19014  16.565  38.279  12.596
48415W        W19015  11.693  26.611  10.726
48416W        W19016  38.858  28.454  12.129
48417W        W19017  21.534  11.314  11.415
48418W        W19018  40.261   4.955   0.144
48419W        W19019   9.202  10.574   3.286
48420W        W19020  11.740  40.923  10.724
48421W        W19021  27.069  10.798   0.060
48422W        W19022  38.284  20.917  14.555
48423W        W19023   8.610   2.902   3.124
48424W        W19024  33.807  44.389   3.319
48425W        W19025  29.615  23.218  11.755
48426W        W19026   7.287  24.215  12.858
48427W        W19027  34.572  42.300   2.246
48428W        W19028  31.349  19.672  14.985
48429W        W19029   0.135  27.692   2.816
48430W        W19030  24.128   9.659   4.435
48431W        W19031  22.263  25.527   1.365
48432W        W19032  31.404  23.882   4.179
48433W        W19033  16.034  14.174   0.836
48434W        W19034  22.199  35.148  14.062
48435W        W19035   0.883  34.937  13.725
48436W        W19036  11.229  36.594  12.907
48437W        W19037  39.966  32.324   2.369
48438W        W19038  36.413  20.205  11.438
48439W        W19039  43.220   7.667   4.185
48440W        W19040  42.821  17.518  11.627
48441W        W19041  42.033  41.921  14.869
48442W        W19042   1.444  16.313  14.319
48443W        W19043  19.587  41.501   3.216
48444W        W19044  31.741  20.805   0.892
48445W        W19045  21.344  20.992   4.119
48446W        W19046  12.059  31.452   0.434
48447W        W19047   9.573  26.857   2.575
48448W        W19048  18.693  28.633   1.841
48449W        W19049   9.341  32.028  11.561
48450W        W19050  43.677  44.725   0.899
48451W        W19051  32.746  40.065   1.964
48452W        W19052   3.257  42.226   0.836
48453W        W19053  40.459  39.836   3.327
48454W        W19054  15.233  21.974  13.467
48455W        W19055  19.848  18.013  10.750
48456W        W19056  13.354  20.118   0.473
48457W        W19057  14.996  30.927   2.891
48458W        W19058   5.390  11.306  13.624
48459W        W19059  16.604  40.114   2.944
48460W        W19060  43.544  38.533  13.055
48461W        W19061  28.437  11.394   1.786
48462W        W19062  35.327   9.212   1.691
48463W        W19063  25.910  40.936  13.520
48464W        W19064  30.826  30.750   1.200
48465W        W19065  32.157   7.834   0.953
48466W        W19066   0.329  34.570   2.294
48467W        W19067  30.251  26.705   0.473
48468W        W19068  10.337  27.621  10.917
48469W        W19069  12.721  13.784   5.043
48470W        W19070   4.453  31.480  14.431
48471W        W19071   3.886   3.276  11.303
48472W        W19072  26.226  33.064  10.900
48473W        W19073  32.533  33.149   2.154
48474W        W19074   1.895   9.372  11.902
48475W        W19075  22.343  41.879   4.581
48476W        W19076   9.863  13.494  10.477
48477W        W19077  26.641  25.686   4.055
48478W        W19078   5.277  12.633  10.399
48479W        W19079  28.603  13.784   4.375
48480W        W19080   4.334  31.896   0.738
48481W        W19081  31.571  40.946  11.706
48482W        W19082  29.902  34.772  12.006
48483W        W19083  40.834   2.764  12.895
48484W        W19084  34.307  26.110   4.541
48485W        W19085  23.975  42.341   2.303
48486W        W19086  30.593   5.163   1.920
48487W        W19087  28.166  32.912   2.677
48488W        W19088  39.103   3.349   1.837
48489W        W19089  38.305   5.860  12.458
48490W        W19090  20.889  37.286   1.729
48491W        W19091   9.661  38.414   4.113
48492W        W19092   2.400   5.440  14.968
48493W        W19093   2.864  12.824   0.794
48494W        W19094  41.396  13.344   0.068
48495W        W19095  15.115  44.408   3.737
48496W        W19096   1.593  40.368  12.369
48497W        W19097  14.792  26.486   9.938
48498W        W19098   5.847   1.551  12.092
48499W        W19099  25.276  31.373   1.433
48500W        W19100  33.085  17.727   2.262
48501W        W19101  37.937  22.991   1.948
48502W        W19102   9.045  33.497  10.277
48503W        W19103  35.131  36.371   0.415
48504W        W19104  26.567  17.842  14.840
48505W        W19105  43.866  22.821  14.402
48506W        W19106  35.983  20.770  13.492
48507W        W19107  16.695  40.406   0.181
48508W        W19108  38.457  12.681  10.975
48509W        W19109  17.209  43.334  12.961
48510W        W19110  40.980   2.369  11.593
48511W        W19111   6.166  39.643  13.980
48512W        W19112  20.021  42.893  11.644
48513W        W19113  28.228  23.570   4.272
48514W        W19114  10.620  20.185   1.288
48515W        W19115   2.311  25.646   0.549
48516W        W19116  41.277   5.334   2.259
48517W        W19117  11.674  34.894   2.172
48518W        W19118   8.226  19.926   5.017
48519W        W19119   9.059   8.690  11.947
48520W        W19120   0.800  14.217   1.745
48521W        W19121   1.514  26.529   0.886
48522W        W19122  41.918   0.190  14.467
48523W        W19123  12.635  32.013  12.067
48524W        W19124  37.803  28.023   0.400
48525W        W19125  44.405  14.727  12.058
48526W        W19126  39.791   9.760   2.155
48527W        W19127  20.851  44.074   2.860
48528W        W19128  42.498   8.702  10.886
48529W        W19129   4.748   5.406  12.943
48530W        W19130  41.278  15.135  11.539
48531W        W19131  16.231  16.380  13.390
48532W        W19132   3.527  42.383   4.536
48533W        W19133  13.696  35.481  12.994
48534W        W19134  43.420   4.225   4.144
48535W        W19135   1.188  39.868   0.293
48536W        W19136  38.908  11.276  10.710
48537W        W19137  31.875   2.476   3.824
48538W        W19138  25.608  38.828   1.710
48539W        W19139  34.961  25.643   1.679
48540W        W19140  41.012   4.399  12.761
48541W        W19141  44.611  20.096   0.087
48542W        W19142  22.526   4.457   0.822
48543W        W19143  16.159  35.856   1.940
48544W        W19144  30.302   6.267   3.144
48545W        W19145  24.767  13.099   3.140
48546W        W19146  39.231  34.046   4.511
48547W        W19147  26.844  24.531   1.772
48548W        W19148  23.687  21.696   4.770
48549W        W19149   5.913   9.082  11.572
48550W        W19150  14.941  43.981  11.863
48551W        W19151  41.991  43.044  11.527
48552W        W19152  41.066  13.681   3.311
48553W        W19153   2.740  20.350   4.194
48554W        W19154  36.444  19.515   1.942
48555W        W19155  17.032   5.318   1.423
48556W        W19156  31.360  13.936  11.502
48557W        W19157  41.326  13.973  12.429
48558W        W19158  36.817  14.062   1.463
48559W        W19159   1.841  35.418   0.948
48560W        W19160   7.573  16.285   3.498
48561W        W19161  14.256  33.236   0.198
48562W        W19162   9.851   3.874  12.384
48563W        W19163  20.042  40.133  14.062
48564W        W19164   7.256  12.351   3.310
48565W        W19165  31.590  28.953  11.242
48566W        W19166  17.198  32.890  12.885
48567W        W19167  36.081  28.272  14.316
48568W        W19168  32.879  30.561  12.949
48569W        W19169  37.788  26.584   0.349
48570W        W19170  11.054  19.539  12.585
48571W        W19171   6.115   3.178   1.768
48572W        W19172  43.508  30.986   4.124
48573W        W19173   9.654  31.480   3.281
48574W        W19174  19.642   2.884  12.868
48575W        W19175  20.400  35.395  13.318
48576W        W19176  40.777  13.537  11.391
48577W        W19177  42.131  20.115  14.476
48578W        W19178  11.076  40.024   3.697
48579W        W19179  35.399  38.282  11.099
48580W        W19180  24.553   3.686  10.840
48581W        W19181  40.244   3.013  10.529
48582W        W19182   1.995   2.449  13.870
48583W        W19183  36.279  44.771   0.357
48584W        W19184  11.455  42.462  12.261
48585W        W19185  41.547  15.584  10.716
48586W        W19186  22.788  38.416  14.806
48587W        W19187  36.827  10.211  11.492
48588W        W19188   7.040  23.469  11.250
48589W        W19189  21.100  31.912  13.036
48590W        W19190  32.485  27.249   1.787
48591W        W19191  32.275  18.155  14.036
48592W        W19192  36.879  35.366   2.816
48593W        W19193  20.669  42.564  12.054
48594W        W19194  31.068  12.936   2.060
48595W        W19195   9.938  43.279  14.903
48596W        W19196  11.798   4.499  10.758
48597W        W19197  44.451  44.909  14.096
48598W        W19198   4.284  34.167  14.559
48599W        W19199   0.636   6.957   2.627
48600W        W19200   6.216  39.061   1.767
48601W        W19201  22.547  21.715   1.040
48602W        W19202  30.619  11.592   0.548
48603W        W19203  31.369  33.921  13.476
48604W        W19204  39.281  22.460   2.765
48605W        W19205  44.705   4.778   2.349
48606W        W19206  42.926   4.962  13.541
48607W        W19207   8.297  37.610   1.408
48608W        W19208  24.200  39.362   4.582
48609W        W19209  44.913  23.651   4.102
48610W        W19210   2.402  34.858  11.487
48611W        W19211  42.801  11.695  11.725
48612W        W19212   0.982   2.098   4.972
48613W        W19213  36.160  44.822   1.267
48614W        W19214  34.436   9.422  13.463
48615W        W19215  24.822   3.094  11.197
48616W        W19216  32.435   0.812   0.828
48617W        W19217  11.102   1.930   4.143
48618W        W19218  20.619  22.990   2.228
48619W        W19219  43.391  18.550  12.602
48620W        W19220   2.912  22.953   0.638
48621W        W19221   0.054  17.241   1.842
48622W        W19222  35.090  16.932  10.695
48623W        W19223  44.607  21.022   1.841
48624W        W19224  39.401  22.564   4.655
48625W        W19225  40.703  14.159  11.999
48626W        W19226   8.647   1.457   4.009
48627W        W19227  31.801  37.925  11.096
48628W        W19228  38.797  18.005  12.649
48629W        W19229   7.431  39.397   2.071
48630W        W19230  16.125  24.993   2.300
48631W        W19231  44.280  13.508   3.717
48632W        W19232   1.254  23.740   1.853
48633W        W19233  15.664  33.812  12.021
48634W        W19234  42.551  33.046   1.412
48635W        W19235  34.564  18.447  12.423
48636W        W19236  39.119  27.922   3.828
48637W        W19237   2.961  34.144   0.581
48638W        W19238  34.145  43.906   3.222
48639W        W19239  14.534   7.635   2.270
48640W        W19240  24.244  31.781  12.932
48641W        W19241   9.021  29.667  11.552
48642W        W19242  23.999  27.245   1.836
48643W        W19243   4.469  36.347   2.278
48644W        W19244  32.038  32.643   0.800
48645W        W19245  44.462  20.811   3.151
48646W        W19246  25.732  33.077  13.372
48647W        W19247  31.360   9.920   1.372
48648W        W19248   4.433  29.944   4.691
48649W        W19249   3.372  10.531   3.366
48650W        W19250  36.397   0.752  13.025
48651W        W19251  15.628   2.161  12.010
48652W        W19252  14.496  44.844   1.611
48653W        W19253  10.324  24.719   2.683
48654W        W19254  30.996   8.134   1.443
48655W        W19255  39.101  21.038   1.751
48656W        W19256   3.446  28.571   1.263
48657W        W19257  32.674  24.796  13.283
48658W        W19258  10.792  34.582  11.128
48659W        W19259  23.927  11.027  13.824
48660W        W19260  44.469  44.397  12.102
48661W        W19261   7.919  33.809   1.210
48662W        W19262  11.346  14.292   0.047
48663W        W19263   8.511  42.973   4.445
48664W        W19264  27.515  35.708   2.022
48665W        W19265  26.931  10.094   2.726
48666W        W19266  20.700  19.183   3.297
48667W        W19267  44.816   0.379   0.312
48668W        W19268   1.497   4.132  12.416
48669W        W19269  30.655  25.290   4.540
48670W        W19270  31.635  39.425  13.371
48671W        W19271   6.194  14.514   3.672
48672W        W19272  24.651  31.458   3.623
48673W        W19273  20.186  26.491  12.887
48674W        W19274  29.552  35.090   4.344
48675W        W19275  26.532  21.746   3.215
48676W        W19276  31.021  19.399   0.444
48677W        W19277  24.181  28.431   2.720
48678W        W19278   0.397   4.901   4.804
48679W        W19279  24.021  31.566  12.483
48680W        W19280  21.503   1.768   2.647
48681W        W19281  44.859   5.814   0.532
48682W        W19282  21.678  13.752  12.473
48683W        W19283   4.182  30.036  10.699
48684W        W19284  21.531  25.841   2.645
48685W        W19285  21.406  16.591   1.772
48686W        W19286  40.730   7.213  13.749
48687W        W19287  26.650  28.063   0.754
48688W        W19288  23.131   8.886  12.948
48689W        W19289  11.812  26.209  12.386
48690W        W19290  23.005  35.830   2.743
48691W        W19291  43.455  18.558  11.304
48692W        W19292  26.092  17.228  10.471
48693W        W19293  17.744  14.228  14.659
48694W        W19294   2.927  14.758  10.704
48695W        W19295  26.554  36.848  14.732
48696W        W19296  34.358  39.016   2.851
48697W        W19297  16.036  22.115   1.418
48698W        W19298  39.397  32.462   4.004
48699W        W19299  38.599   9.908  13.347
48700W        W19300  40.422  21.732   0.647
48701W        W19301  29.467   3.115   4.165
48702W        W19302  29.054  43.475  14.015
48703W        W19303  20.415  20.191  11.465
48704W        W19304  35.051  37.124  14.898
48705W        W19305  33.415  41.433  13.501
48706W        W19306  29.159  20.311  13.623
48707W        W19307   7.521  40.556  12.481
48708W        W19308   6.355  15.253  14.229
48709W        W19309  11.703  20.417  10.665
48710W        W19310  41.890   0.265  13.504
48711W        W19311  16.584  30.265   2.607
48712W        W19312  14.827  41.299  11.869
48713W        W19313  37.121   7.780   3.332
48714W        W19314  24.423  36.719   0.370
48715W        W19315  28.675  42.947   3.130
48716W        W19316  25.014  34.341   3.656
48717W        W19317  23.810  40.427  13.986
48718W        W19318   3.917  17.043  11.994
48719W        W19319  12.238  23.134   2.858
48720W        W19320   6.324   8.817   0.440
48721W        W19321  28.991  43.752  13.570
48722W        W19322  36.008   8.779  12.469
48723W        W19323  41.757  40.259   3.213
48724W        W19324   5.749  42.390  11.405
48725W        W19325   8.236  15.335   2.237
48726W        W19326  36.438  34.109  11.953
48727W        W19327  40.308   6.673   0.481
48728W        W19328  13.136  34.427  10.630
48729W        W19329  44.892   6.638  13.341
48730W        W19330  27.487  40.177   5.107
48731W        W19331  35.208  26.072   2.745
48732W        W19332  33.899  10.666  10.685
48733W        W19333  29.063  35.076   1.175
48734W        W19334  34.603  13.251  11.564
48735W        W19335  15.440  17.774  10.284
48736W        W19336   9.827  38.043   1.548
48737W        W19337  12.040  38.555  12.882
48738W        W19338  15.759  33.474   2.326
48739W        W19339  35.070  28.701  11.195
48740W        W19340   4.691  35.425  12.207
48741W        W19341  32.178  28.932  12.996
48742W        W19342  14.591   0.874   4.303
48743W        W19343  38.798   8.819  10.688
48744W        W19344  32.365  11.666   0.348
48745W        W19345  20.883  16.797  14.703
48746W        W19346   1.677  18.573  14.504
48747W        W19347  25.184   8.756   4.070
48748W        W19348  35.505  41.535  14.885
48749W        W19349  30.180  26.205   0.323
48750W        W19350   6.723  29.965  11.469
48751W        W19351  10.819  21.824  12.990
48752W        W19352  23.032  39.020  12.329
48753W        W19353  27.553  25.997  13.420
48754W        W19354  16.756  36.017  14.644
48755W        W19355  17.139   8.363   1.390
48756W        W19356  18.655   1.814  13.427
48757W        W19357  42.118  37.274  12.686
48758W        W19358  13.142  11.583   4.356
48759W        W19359   9.147  21.114   5.092
48760W        W19360  27.565  38.020   4.040
48761W        W19361   9.790  16.344   2.219
48762W        W19362   6.620  15.354   0.913
48763W        W19363  33.998  41.029  12.622
48764W        W19364  13.661   5.000   2.803
48765W        W19365  39.552  41.238   0.350
48766W        W19366   1.165  34.080   1.373
48767W        W19367   3.471   7.186  12.532
48768W        W19368  19.337   4.779  13.804
48769W        W19369  19.228  19.786  11.606
48770W        W19370   9.299   3.739   1.230
48771W        W19371  26.777  40.745   3.684
48772W        W19372  24.682  42.418   0.108
48773W        W19373  11.220  20.007   2.758
48774W        W19374  41.017   6.518   1.758
48775W        W19375  42.735  42.416  11.235
48776W        W19376  17.076   8.559   1.907
48777W        W19377  40.908   2.380  12.562
48778W        W19378  28.721  20.929   2.136
48779W        W19379  36.061  12.644  12.124
48780W        W19380  33.460  14.236   5.150
48781W        W19381  20.851   4.888   2.833
48782W        W19382  36.295  30.356   1.201
48783W        W19383  35.166  41.256  11.973
48784W        W19384  28.719  27.244  13.327
48785W        W19385  34.926  10.558   0.756
48786W        W19386   7.846  24.263  10.719
48787W        W19387  26.864  37.551  13.830
48788W        W19388  25.661   8.838   3.908
48789W        W19389   3.394  19.238  12.152
48790W        W19390  38.352  30.146  12.809
48791W        W19391  16.093   4.020   1.182
48792W        W19392   4.456  15.042  14.168
48793W        W19393  41.981   2.193  14.011
48794W        W19394  22.085  12.836  12.323
48795W        W19395  34.958  16.518   3.749
48796W        W19396   6.762  39.073  14.427
48797W        W19397   0.878  37.960   4.506
48798W        W19398   8.559  31.573   2.718
48799W        W19399  21.653   1.284   1.533
48800W        W19400  27.299   3.250  14.545
48801W        W19401  11.113   6.676   2.276
48802W        W19402  33.618  14.312  10.752
48803W        W19403   2.309  40.866  14.299
48804W        W19404  38.088  12.614   0.858
48805W        W19405  40.584  31.661  10.542
48806W        W19406  25.158  13.811  11.001
48807W        W19407  11.244   2.985   4.724
48808W        W19408  33.279   2.683  11.139
48809W        W19409  30.114  14.032   0.867
48810W        W19410  29.627  13.365  12.424
48811W        W19411  20.551   8.895   4.940
48812W        W19412   6.984   0.611  13.437
48813W        W19413   2.968  18.183  11.663
48814W        W19414  33.933  11.399  11.998
48815W        W19415  17.704  10.725  10.622
48816W        W19416  29.433  15.093   1.323
48817W        W19417  31.360  39.510  13.813
48818W        W19418   5.864  22.966   4.131
48819W        W19419   2.296   5.300  11.570
48820W        W19420  29.871  43.064   5.003
48821W        W19421  40.339   4.731   1.943
48822W        W19422  33.539  35.597   3.359
48823W        W19423  33.150  14.832   1.777
48824W        W19424  34.266  32.538  14.289
48825W        W19425  37.171  15.352   4.183
48826W        W19426  16.759  38.397  12.121
48827W        W19427  37.225   9.622   4.675
48828W        W19428  36.839  10.755   0.636
48829W        W19429  23.575   6.200   3.586
48830W        W19430  37.873  13.086  10.665
48831W        W19431  41.331  11.727  13.029
48832W        W19432  37.644  22.303  13.876
48833W        W19433  34.388  13.605  10.680
48834W        W19434   2.360  15.260  12.028
48835W        W19435  38.331  38.907  10.699
48836W        W19436  24.926  14.541   5.006
48837W        W19437  37.053  18.182  11.680
48838W        W19438  18.257  20.445  14.834
48839W        W19439  35.080  42.463   2.286
48840W        W19440  42.411  41.452   0.330
48841W        W19441   5.315   6.168  13.396
48842W        W19442  36.518  18.078   3.637
48843W        W19443  25.061  34.783  10.620
48844W        W19444   3.441  16.144   4.508
48845W        W19445  21.508  16.225   1.298
48846W        W19446  37.631  19.246  12.339
48847W        W19447  22.818  11.327  13.002
48848W        W19448  15.801  14.739  12.102
48849W        W19449   4.973  31.827  14.034
48850W        W19450  41.344   1.372  12.933
48851W        W19451  28.597   9.674   1.249
48852W        W19452  24.687  33.501   2.217
48853W        W19453  22.785  11.837  13.853
48854W        W19454  34.403  37.740  13.067
48855W        W19455   5.387  21.777  14.934
48856W        W19456  42.250  23.194  14.525
48857W        W19457  29.551  20.757   2.887
48858W        W19458  15.233  44.819  10.620
48859W        W19459   6.138   8.683   4.514
48860W        W19460  25.746   4.211   1.183
48861W        W19461  18.237  19.245  14.338
48862W        W19462  10.943  28.872  13.364
48863W        W19463  28.535  26.640  12.526
48864W        W19464   4.778   5.214   2.960
48865W        W19465  16.075  27.521  12.039
48866W        W19466   8.332  18.282   2.819
48867W        W19467  14.430  37.416   0.922
48868W        W19468  44.280   5.886  12.891
48869W        W19469  43.981  17.875   0.839
48870W        W19470  10.876  41.729  11.443
48871W        W19471  27.838   4.434  11.957
48872W        W19472  11.837  10.321   2.201
48873W        W19473  39.608  21.093  14.498
48874W        W19474  38.758   4.738  12.572
48875W        W19475   4.461  29.221   0.174
48876W        W19476   0.739  18.465  12.473
48877W        W19477   2.032   5.824  12.675
48878W        W19478  24.932  28.531   2.193
48879W        W19479  11.436   9.247   2.263
48880W        W19480  43.366  23.603  13.526
48881W        W19481  30.950  43.523  13.223
48882W        W19482  17.141  25.092   4.625
48883W        W19483   7.577  24.278  14.870
48884W        W19484  32.106  27.005  12.942
48885W        W19485   2.193  23.659   3.063
48886W        W19486  33.857   3.643  13.899
48887W        W19487  34.347  42.356  11.163
48888W        W19488  32.632  42.278  11.113
48889W        W19489  39.391  21.729   1.361
48890W        W19490  19.013   8.709   3.752
48891W        W19491  13.093  37.458  12.115
48892W        W19492  23.711  29.878   4.794
48893W        W19493  32.355  43.647   5.032
48894W        W19494   2.774  15.725   3.273
48895W        W19495   2.388  44.571  12.588
48896W        W19496  32.559  15.926  11.327
48897W        W19497  27.887  15.702  13.350
48898W        W19498  15.361  44.535   4.201
48899W        W19499   8.145   9.444   1.740
48900W        W19500  30.406  36.299  14.091
48901W        W19501  42.679  14.824  10.925
48902W        W19502  11.797  23.452  11.679
48903W        W19503  25.959  30.926   1.640
48904W        W19504  29.339  18.785   2.283
48905W        W19505  25.192   9.570   3.754
48906W        W19506   9.242  33.423  10.765
48907W        W19507  33.012   3.761   3.210
48908W        W19508  19.086  42.053  11.258
48909W        W19509   4.348  22.174   2.813
48910W        W19510  34.050  32.962   3.557
48911W        W19511  16.439  42.339   9.238
48912W        W19512  16.884  10.365  11.580
48913W        W19513  44.806  27.985   1.238
48914W        W19514  16.028  34.566  12.038
48915W        W19515  38.549   4.615   3.703
48916W        W19516  13.933  37.870   3.667
48917W        W19517  11.421  34.553   4.005
48918W        W19518   1.655  39.893  13.510
48919W        W19519  11.128   4.466   4.375
48920W        W19520   6.126  24.778  14.859
48921W        W19521  30.107  36.070   2.673
48922W        W19522  23.041  33.502   2.575
48923W        W19523  12.422  36.376   2.433
48924W        W19524  44.484  27.792  10.693
48925W        W19525   5.670  40.333  10.342
48926W        W19526  40.480  18.577  12.568
48927W        W19527  38.998   6.073   2.951
48928W        W19528  25.073  26.576   3.836
48929W        W19529   4.256  43.044  11.932
48930W        W19530  29.177   4.894   0.274
48931W        W19531  37.438   8.211  11.412
48932W        W19532  40.073  40.922   0.723
48933W        W19533  22.382   2.463  13.021
48934W        W19534  10.994  25.953   2.897
48935W        W19535  31.826   2.326   4.318
48936W        W19536  20.685  12.274   0.957
48937W        W19537  37.011  35.304  11.650
48938W        W19538  38.988  22.394   3.170
48939W        W19539  21.285  28.981  13.825
48940W        W19540  40.017  29.522   2.442
48941W        W19541  27.971   9.174  11.407
48942W        W19542  43.535  19.299   4.027
48943W        W19543  19.258  11.082   4.284
48944W        W19544  19.839   4.416   4.789
48945W        W19545  27.379  16.820   1.813
48946W        W19546  36.864   2.403  11.606
48947W        W19547  43.427  42.823  13.447
48948W        W19548  21.123  10.350   3.408
48949W        W19549  28.072   4.740  11.453
48950W        W19550   0.538  24.235   0.381
48951W        W19551  25.123  31.402   2.272
48952W        W19552  37.400   7.325   1.675
48953W        W19553  12.305  21.643   1.201
48954W        W19554  13.175   9.298   3.607
48955W        W19555   2.907  20.354   2.641
48956W        W19556  27.938  12.238   4.567
48957W        W19557  19.750  40.805  11.511
48958W        W19558  17.801  28.930  11.650
48959W        W19559  22.115   7.680  14.430
48960W        W19560  30.571  18.629  12.090
48961W        W19561  24.556  21.599   3.203
48962W        W19562  26.088  30.226  11.144
48963W        W19563  32.778  31.097  12.954
48964W        W19564  14.672   0.988  10.261
48965W        W19565  10.605  13.833   3.435
48966W        W19566  27.435  14.832   0.885
48967W        W19567  19.576  30.667  11.896
48968W        W19568  11.982  22.398   0.431
48969W        W19569  22.562   6.565  10.595
48970W        W19570  27.164  43.906  13.789
48971W        W19571  11.911  24.930   0.821
48972W        W19572  16.020  38.486   1.280
48973W        W19573  23.305  18.955  13.425
48974W        W19574  17.238  19.524   1.430
48975W        W19575   5.747  27.190   0.842
48976W        W19576  29.039  23.645  10.751
48977W        W19577  39.076  35.975   1.859
48978W        W19578  19.118  27.673  12.039
48979W        W19579  17.736  31.291   4.805
48980W        W19580  35.348  42.547  10.908
48981W        W19581  26.860   4.062  14.960
48982W        W19582  26.713  24.317   2.764
48983W        W19583  27.596   1.405  12.533
48984W        W19584  44.557  12.912  11.061
48985W        W19585  12.075   9.836   4.674
48986W        W19586  17.581   6.391   3.243
48987W        W19587  37.059  38.924   4.424
48988W        W19588  33.165  21.807  14.928
48989W        W19589  40.833  17.576  11.647
48990W        W19590  13.282  26.093  14.856
48991W        W19591  22.383  22.759  11.147
48992W        W19592   6.600   4.407  10.252
48993W        W19593   8.324  16.817  12.147
48994W        W19594  22.288  42.464  14.451
48995W        W19595  11.265  31.097  14.573
48996W        W19596  24.137  30.793  14.461
48997W        W19597   6.483  20.583  12.979
48998W        W19598  20.020  14.729  13.258
48999W        W19599  18.277  21.569  13.962
49000W        W19600   2.097  40.490  11.505
49001W        W19601  31.503  17.180   0.403
49002W        W19602  29.925   5.952  12.900
49003W        W19603  35.040  37.820   4.873
49004W        W19604  17.852  43.454   3.251
49005W        W19605  13.395   3.418   3.543
49006W        W19606   4.981  29.214  11.919
49007W        W19607  30.649  40.327   1.400
49008W        W19608   1.851  35.114  12.548
49009W        W19609   0.732  33.871   3.192
49010W        W19610  18.844  37.880   1.465
49011W        W19611  42.031  17.271   2.117
49012W        W19612   4.247  20.124   1.033
49013W        W19613  17.487  14.852  12.904
49014W        W19614   0.048   8.623   3.743
49015W        W19615  38.908  24.089  13.782
49016W        W19616  28.655  25.067   4.897
49017W        W19617   5.819  29.037  13.038
49018W        W19618  31.121  26.507   4.145
49019W        W19619  11.537  16.156   4.119
49020W        W19620   7.033  34.887  13.495
49021W        W19621  41.499  30.023   3.205
49022W        W19622  41.843   2.778   1.355
49023W        W19623  42.337  33.037  13.374
49024W        W19624   9.830   1.227   4.559
49025W        W19625  40.056   1.821   2.364
49026W        W19626  43.849  36.337   1.881
49027W        W19627   9.946  20.496   2.877
49028W        W19628  24.313  24.671   4.205
49029W        W19629  16.858  29.012   0.933
49030W        W19630  26.655  32.187   0.245
49031W        W19631  10.924  44.154   1.291
49032W        W19632  37.040  35.034   1.690
49033W        W19633  20.631  27.769  10.723
49034W        W19634  14.558   7.449  11.818
49035W        W19635  29.904  38.856   0.404
49036W        W19636  32.548  20.591  13.615
49037W        W19637  20.681  26.434   2.167
49038W        W19638  17.171  18.293   2.785
49039W        W19639  20.720   6.793   2.889
49040W        W19640   0.059  13.084  13.816
49041W        W19641   9.602   7.347  11.711
49042W        W19642  43.715  23.520   3.220
49043W        W19643  28.175  22.297   3.268
49044W        W19644  15.703  38.304   2.277
49045W        W19645   3.149  16.679   4.290
49046W        W19646  13.893  25.466   0.496
49047W        W19647  38.780  14.435   3.247
49048W        W19648  11.136   9.329  10.923
49049W        W19649  25.131  16.096   4.892
49050W        W19650  44.013  40.563   2.088
49051W        W19651  26.788  22.537  14.323
49052W        W19652  28.135  10.338  14.904
49053W        W19653  26.799  29.145   1.156
49054W        W19654  36.619  26.754  12.018
49055W        W19655   1.444  35.918  14.423
49056W        W19656  30.992  28.049   4.293
49057W        W19657  31.362  36.643  10.896
49058W        W19658  32.673  12.978  13.955
49059W        W19659  44.799  23.984  14.707
49060W        W19660  37.009   9.271  13.010
49061W        W19661  16.637  17.948   0.369
49062W        W19662  41.513  41.242  10.672
49063W        W19663  14.834  13.365   2.708
49064W        W19664  40.403   9.649  11.075
49065W        W19665   9.245  40.499  11.997
49066W        W19666  34.651   9.206   0.941
49067W        W19667  40.878  34.592   2.674
49068W        W19668  17.977  10.379   0.727
49069W        W19669   6.378  15.660   2.586
49070W        W19670   3.360   6.429   3.123
49071W        W19671  44.035  40.586   0.194
49072W        W19672   0.442  34.454  13.851
49073W        W19673  36.649  40.121   0.400
49074W        W19674  42.203   9.359   3.469
49075W        W19675  31.453   6.336   1.306
49076W        W19676  13.176  42.019   0.369
49077W        W19677  42.211  33.662  11.072
49078W        W19678  44.247   5.381  12.613
49079W        W19679  20.146  29.558  14.280
49080W        W19680  22.532  42.836  14.843
49081W        W19681  34.612  42.384  12.481
49082W        W19682   0.308   3.850   1.140
49083W        W19683  36.613   2.039   3.584
49084W        W19684  15.736  44.826   3.225
49085W        W19685  40.795  44.874  13.085
49086W        W19686  21.676   2.268  11.965
49087W        W19687  20.946   6.775   4.241
49088W        W19688   8.708  17.270   4.696
49089W        W19689  28.162  43.465   3.842
49090W        W19690  11.763  33.159   2.903
49091W        W19691   6.593  42.475  10.837
49092W        W19692  41.436  37.165  14.075
49093W        W19693   3.802  30.472   4.624
49094W        W19694   6.337   2.446  14.322
49095W        W19695   8.665  33.906   3.390
49096W        W19696  13.864  15.119   2.694
49097W        W19697   6.401  29.179   1.509
49098W        W19698  40.943  31.535   4.169
49099W        W19699  20.435  10.104  11.920
49100W        W19700  28.057  30.169   0.329
49101W        W19701  23.527  29.676   0.870
49102W        W19702   5.838  11.548  13.796
49103W        W19703  28.139  12.777   1.882
49104W        W19704  18.564  42.393   4.628
49105W        W19705  28.363   2.890  12.122
49106W        W19706   0.490  39.861   2.454
49107W        W19707  31.982   8.754   3.176
49108W        W19708  28.180  43.518  11.947
49109W        W19709  44.361  29.652   4.151
49110W        W19710  33.521  17.210   1.461
49111W        W19711  32.550  42.827  13.824
49112W        W19712  10.292  18.222   2.830
49113W        W19713  11.167  12.131   0.794
49114W        W19714  39.577  44.915   2.371
49115W        W19715  43.994  30.368   4.412
49116W        W19716   4.845  12.703  10.670
49117W        W19717  42.330  24.019   4.586
49118W        W19718  36.064  39.825   1.397
49119W        W19719   0.945   8.204   2.076
49120W        W19720  35.281  24.038   4.061
49121W        W19721  30.537  40.852   1.296
49122W        W19722  22.013  12.594   4.390
49123W        W19723  17.718  16.190  11.634
49124W        W19724  16.087  34.429   1.564
49125W        W19725  40.499   7.673  12.080
49126W        W19726  23.515  39.190   0.404
49127W        W19727  43.803  41.869   1.830
49128W        W19728  24.965  36.891   0.658
49129W        W19729   0.693   6.972  13.458
49130W        W19730   5.902  25.199  10.763
49131W        W19731   4.193  34.475   2.142
49132W        W19732  43.936  16.237  13.918
49133W        W19733  35.865  29.274  14.000
49134W        W19734  23.678  20.764  10.748
49135W        W19735   9.609  36.567  14.869
49136W        W19736  44.512   7.423   2.001
49137W        W19737  21.321  30.971  12.569
49138W        W19738  18.656  24.306  12.692
49139W        W19739  17.230  25.975  12.435
49140W        W19740  28.126  39.911   5.034
49141W        W19741  39.949  44.902  10.678
49142W        W19742  11.655   5.851  13.974
49143W        W19743  28.847  10.687  14.561
49144W        W19744   9.223  28.242  13.215
49145W        W19745  14.205  12.082   3.683
49146W        W19746  33.505  32.518   1.287
49147W        W19747  26.790  14.849  14.456
49148W        W19748  36.645  40.869  14.770
49149W        W19749  28.851  19.718   2.219
49150W        W19750  23.967  26.542  10.686
49151W        W19751  37.567  15.747  13.380
49152W        W19752  28.202  28.075  14.773
49153W        W19753  44.075  30.008  14.361
49154W        W19754  29.904  35.021  11.300
49155W        W19755  11.570  37.972  13.121
49156W        W19756  14.857  14.372   0.154
49157W        W19757  13.546  23.775  12.570
49158W        W19758   2.207  15.795  14.353
49159W        W19759   7.213  18.715   3.659
49160W        W19760  39.286  29.960  13.928
49161W        W19761  25.002  34.466  11.184
49162W        W19762  21.521  24.505  13.991
49163W        W19763  23.053  19.154   4.069
49164W        W19764  19.534  15.647   0.170
49165W        W19765  17.729  41.474  11.607
49166W        W19766   8.745   4.981  12.988
49167W        W19767  40.025   8.732  11.969
49168W        W19768  31.527  35.535   1.487
49169W        W19769  40.352  18.052  13.431
49170W        W19770  29.096   2.282  14.924
49171W        W19771  16.157  10.189  14.076
49172W        W19772  17.564  39.054   0.848
49173W        W19773  27.902  23.976   4.277
49174W        W19774   2.534  35.370  13.889
49175W        W19775  32.284  10.645   0.378
49176W        W19776   8.273   6.017  11.436
49177W        W19777  33.886  38.546   3.666
49178W        W19778  22.126  32.587   2.096
49179W        W19779  18.767  27.617  14.980
49180W        W19780  22.980  19.779  13.486
49181W        W19781  20.184  27.981  10.605
49182W        W19782  34.022  10.458   4.615
49183W        W19783  44.099  41.799   4.887
49184W        W19784  31.829  33.084  14.751
49185W        W19785  18.532  33.377  12.544
49186W        W19786  42.744  38.981  13.049
49187W        W19787  14.565  24.927   0.306
49188W        W19788  11.719  11.431  13.896
49189W        W19789  32.472  32.340   0.812
49190W        W19790  22.553  18.983   0.522
49191W        W19791  33.065  18.803  12.514
49192W        W19792  38.919  13.222  12.427
49193W        W19793  22.099  30.772  11.532
49194W        W19794   1.494  23.713  11.945
49195W        W19795  30.940  16.136  13.214
49196W        W19796  18.671  39.980  13.397
49197W        W19797  39.094  12.636   0.754
49198W        W19798  23.362   3.192  13.066
49199W        W19799  14.076  11.164   2.850
49200W        W19800  15.306   8.945  11.979
49201W        W19801  14.797  26.134  12.672
49202W        W19802  31.928   1.711   2.879
49203W        W19803  42.236  22.694  10.728
49204W        W19804  27.456   4.711  14.040
49205W        W19805  17.731  30.523  12.479
49206W        W19806  44.231  15.442  11.218
49207W        W19807  23.085  42.969  14.555
49208W        W19808  25.564   8.953  14.713
49209W        W19809  35.751  10.348   3.218
49210W        W19810   7.383   3.491  14.283
49211W        W19811   6.681  30.131  10.968
49212W        W19812  25.467  24.172  12.545
49213W        W19813  24.023  43.206  11.140
49214W        W19814  17.473  22.321  14.510
49215W        W19815  38.493  29.153  13.103
49216W        W19816  30.381  24.701  11.891
49217W        W19817  24.473  29.086  11.498
49218W        W19818  28.997  34.575   4.554
49219W        W19819   4.736   4.309   3.376
49220W        W19820  15.986  36.819  14.311
49221W        W19821   3.189  32.432  12.146
49222W        W19822  22.161  12.088   3.161
49223W        W19823  14.815   1.859  11.201
49224W        W19824  27.184  26.807   1.916
49225W        W19825  19.315  41.048   4.203
49226W        W19826  44.692  42.371   3.661
49227W        W19827  19.180   7.751   1.764
49228W        W19828  12.726   6.876   4.779
49229W        W19829  14.078  15.404   4.909
49230W        W19830   4.539  22.410   0.890
49231W        W19831  13.220  44.665  10.724
49232W        W19832  42.848  32.362  14.814
49233W        W19833   6.803  40.515  10.669
49234W        W19834  12.848   0.831   2.893
49235W        W19835  41.826  26.236   1.982
49236W        W19836  35.961  19.924   1.212
49237W        W19837  24.123  42.047   3.283
49238W        W19838  13.941  28.030  14.055
49239W        W19839  39.581  11.005  11.279
49240W        W19840   3.355  22.723  10.661
49241W        W19841   1.394  32.548  14.309
49242W        W19842  28.426  11.775  11.610
49243W        W19843  41.776  11.685   4.082
49244W        W19844  35.216  19.528  14.444
49245W        W19845  41.336  40.840  12.503
49246W        W19846  33.692   9.756  14.737
49247W        W19847   6.357  44.542   2.790
49248W        W19848  13.294   1.272   1.995
49249W        W19849  13.850  40.857  14.724
49250W        W19850  15.577  22.509  11.993
49251W        W19851  24.250   4.817   3.574
49252W        W19852  14.533  41.376  11.441
49253W        W19853   9.773  40.586   0.858
49254W        W19854  25.999  41.054   4.513
49255W        W19855  44.756  10.140  12.092
49256W        W19856  10.684  21.151  13.720
49257W        W19857  18.185  37.487   2.680
49258W        W19858  44.021  34.957   4.388
49259W        W19859  10.442  36.342  13.280
49260W        W19860  38.084  36.430   3.481
49261W        W19861  41.989  38.654  12.476
49262W        W19862   4.905  42.367  12.497
49263W        W19863  20.026  36.829  14.178
49264W        W19864  18.726  23.680  14.810
49265W        W19865  42.916   1.827   3.166
49266W        W19866  12.371  31.806  14.403
49267W        W19867  34.522  23.356   2.248
49268W        W19868  10.667   1.426   3.638
49269W        W19869  25.504  25.532   0.001
49270W        W19870  10.470  11.123  12.470
49271W        W19871  35.584  12.220  11.028
49272W        W19872  23.682  40.144   3.250
49273W        W19873  19.808  39.042   1.277
49274W        W19874  36.500  32.873  14.854
49275W        W19875  23.196   0.902  14.268
49276W        W19876   8.792  30.758   5.025
49277W        W19877   7.132  26.653  10.753
49278W        W19878  26.953  15.058  11.609
49279W        W19879  30.483  24.209  11.719
49280W        W19880   2.180  39.446  12.747
49281W        W19881   8.970  24.066   0.938
49282W        W19882  43.819  24.376  11.612
49283W        W19883  25.201  36.027   0.585
49284W        W19884   7.901  10.690   1.320
49285W        W19885  20.814   8.058  13.428
49286W        W19886   3.546  17.004   1.815
49287W        W19887   4.358  31.718  11.085
49288W        W19888  42.414   6.905  11.576
49289W        W19889   5.873  24.603  13.912
49290W        W19890  29.011  33.929  12.707
49291W        W19891  21.290  40.137   0.851
49292W        W19892  28.417   5.663  12.037
49293W        W19893  36.588  23.020   2.327
49294W        W19894  27.660   0.516  12.486
49295W        W19895   5.972  41.811  13.198
49296W        W19896  31.641  23.543  14.340
49297W        W19897   5.342  44.976   1.549
49298W        W19898  44.492   5.937   0.890
49299W        W19899  33.980  30.344   4.559
49300W        W19900  15.333  13.859   1.287
49301W        W19901  21.734  39.917   1.903
49302W        W19902  18.982  11.165   1.806
49303W        W19903  30.075  29.881   2.996
49304W        W19904  13.935  19.355   0.006
49305W        W19905  19.371  44.887  14.925
49306W        W19906  21.517   9.455   1.769
49307W        W19907   1.499   8.644   2.473
49308W        W19908  20.466  40.450   2.359
49309W        W19909  13.308  19.620  13.092
49310W        W19910  24.076  28.077  11.024
49311W        W19911  17.585  26.520  14.578
49312W        W19912   9.794  34.472  12.594
49313W        W19913  34.764  36.430   4.632
49314W        W19914   8.915  18.479   3.625
49315W        W19915  32.376  32.181  13.651
49316W        W19916  20.664  22.333  14.003
49317W        W19917  27.240  38.665  14.984
49318W        W19918  33.484  33.428   0.091
49319W        W19919   5.405  15.617   2.330
49320W        W19920  26.198  14.831  11.446
49321W        W19921  34.944   3.049  10.349
49322W        W19922  23.966  15.330  10.692
49323W        W19923  15.204  30.822  14.384
49324W        W19924  44.524   9.324   1.904
49325W        W19925  37.084  14.006   0.135
49326W        W19926  39.380  36.782  12.581
49327W        W19927  23.159  11.392   1.657
49328W        W19928   6.700  36.161  10.835
49329W        W19929  15.172  37.885   0.242
49330W        W19930  34.148  34.034   2.753
49331W        W19931  43.016  33.888   4.034
49332W        W19932   2.303  39.385   2.097
49333W        W19933   1.733   1.770  14.785
49334W        W19934  25.740  11.192  10.599
49335W        W19935  14.119  12.849   1.171
49336W        W19936  40.932  28.776  12.402
49337W        W19937  42.320  31.653  12.042
49338W        W19938   9.135   0.323  14.480
49339W        W19939   0.946  40.406   4.959
49340W        W19940  15.523   4.142   4.907
49341W        W19941   6.754   8.429  12.587
49342W        W19942  32.149  33.705  11.410
49343W        W19943   3.837  24.732   3.286
49344W        W19944  34.979  13.102  13.974
49345W        W19945  19.119  37.485  12.479
49346W        W19946  13.147   1.101  11.116
49347W        W19947  20.322  23.740   1.231
49348W        W19948  37.317  26.730   1.295
49349W        W19949  16.745   7.166  10.689
49350W        W19950  15.389  17.364   1.256
49351W        W19951   4.822  25.991   3.683
49352W        W19952  33.855  29.921  11.542
49353W        W19953   8.691  32.623  11.987
49354W        W19954   7.020   6.955  14.302
49355W        W19955   6.250   2.749   2.048
49356W        W19956   9.238  16.166   0.655
49357W        W19957  35.582  16.167  11.252
49358W        W19958   4.157   8.692   3.351
49359W        W19959  12.714  34.140  11.132
49360W        W19960  30.692  11.674   1.945
49361W        W19961   9.306  33.041  11.465
49362W        W19962  29.385  37.293  14.342
49363W        W19963  24.712  30.987  14.076
49364W        W19964  19.452  14.643  14.814
49365W        W19965  33.788  23.241   4.553
49366W        W19966   3.306   3.485   4.189
49367W        W19967  35.830  24.384  12.419
49368W        W19968  44.512  22.046  11.002
49369W        W19969  21.621  18.639   0.685
49370W        W19970  33.841  10.149  10.722
49371W        W19971  24.273  16.276  12.607
49372W        W19972  34.551  20.426   3.679
49373W        W19973  36.010  11.051  11.939
49374W        W19974  10.269  25.131   4.912
49375W        W19975  15.828  21.601   0.436
49376W        W19976  34.514  37.535  12.559
49377W        W19977  41.856  42.631   4.258
49378W        W19978  31.908  26.502   3.613
49379W        W19979  28.795   2.796  12.438
49380W        W19980  25.942  10.776   3.316
49381W        W19981  22.708   8.261   3.893
49382W        W19982   1.115  17.746   4.113
49383W        W19983   6.752   1.963   1.916
49384W        W19984  44.029  10.499  12.369
49385W        W19985  33.088  27.428  14.928
49386W        W19986  43.217  28.790   1.286
49387W        W19987   7.068  18.014  11.993
49388W        W19988  35.297   8.332  11.604
49389W        W19989  38.566  40.910  10.985
49390W        W19990  43.869  16.847  14.406
49391W        W19991  32.522   2.860  10.639
49392W        W19992   1.792  35.071   3.622
49393W        W19993  44.442  15.583   2.322
49394W        W19994  38.824  36.004  12.483
49395W        W19995  41.258  26.575  14.490
49396W        W19996  38.622  44.070  13.849
49397W        W19997  29.614  33.123   0.011
49398W        W19998  31.375  28.157  14.075
49399W        W19999  16.250  14.252  14.979
49400W        W20000   7.788   4.248  11.831
49401W        W20001  13.385  11.359  13.837
49402W        W20002  31.066  19.214   1.383
49403W        W20003  23.528   7.842   1.931
49404W        W20004  20.696  14.855   0.798
49405W        W20005  37.979  15.051  13.070
49406W        W20006  37.186   7.688  13.951
49407W        W20007   6.674  42.160  11.717
49408W        W20008  37.481   2.505  14.992
49409W        W20009   0.348  25.948   4.365
49410W        W20010  29.431  37.113  14.833
49411W        W20011   7.326  36.085   1.791
49412W        W20012  44.041  16.662   3.072
49413W        W20013  26.294  18.270  13.023
49414W        W20014  29.925  19.672  10.959
49415W        W20015   5.745  30.802   4.152
49416W        W20016  36.093  30.217  11.139
49417W        W20017  25.985  16.553   3.909
49418W        W20018  44.903   9.687   1.045
49419W        W20019  27.288   9.359  12.589
49420W        W20020  10.644   1.322  12.352
49421W        W20021   5.254  24.617  13.346
49422W        W20022  23.113  11.953  12.156
49423W        W20023  28.981  30.891  12.112
49424W        W20024   1.311  40.962   1.804
49425W        W20025  33.563  24.735  13.292
49426W        W20026  17.854  44.324  14.750
49427W        W20027  43.207  36.370   0.790
49428W        W20028  24.639  34.846   0.294
49429W        W20029  21.236  16.762  14.305
49430W        W20030  40.010  10.667   0.870
49431W        W20031   2.485   2.542  14.094
49432W        W20032  30.617  38.132  10.930
49433W        W20033  27.475  40.418   4.630
49434W        W20034  30.922  18.102   3.684
49435W        W20035  18.816   2.483   3.038
49436W        W20036  39.349   8.676  14.926
49437W        W20037  24.621  22.301  11.299
49438W        W20038   1.562  19.230   0.808
49439W        W20039  29.625  19.312  14.855
49440W        W20040  38.876  23.144   2.716
49441W        W20041  36.622  38.769   1.453
49442W        W20042  13.065  28.578  11.499
49443W        W20043  25.117   4.272   0.044
49444W        W20044  43.823  40.275  11.138
49445W        W20045  28.385   6.242  13.906
49446W        W20046  20.711  18.255   4.469
49447W        W20047  44.285   1.239   2.070
49448W        W20048  11.817  40.761   0.546
49449W        W20049  42.882   3.142  14.048
49450W        W20050  31.796  21.691  11.869
49451W        W20051   8.898  39.022  14.061
49452W        W20052  14.247  22.307   1.391
49453W        W20053  19.807  26.683   2.110
49454W        W20054   2.881  41.290  12.138
49455W        W20055  10.476  21.520   1.498
49456W        W20056   7.370  30.117   2.130
49457W        W20057  24.598   6.817  14.313
49458W        W20058  17.530  38.477  11.165
49459W        W20059  11.519  20.104   4.127
49460W        W20060  37.591  11.160  11.180
49461W        W20061  25.540  14.668   2.316
49462W        W20062  30.116  31.948   3.655
49463W        W20063   5.810   3.351   3.308
49464W        W20064  36.547  28.677   0.964
49465W        W20065  44.800  22.133  13.609
49466W        W20066  23.783  32.801   1.823
49467W        W20067  15.096  21.014  14.184
49468W        W20068  20.296   2.756  14.381
49469W        W20069  12.412  43.443  12.626
49470W        W20070  33.599  11.889  12.599
49471W        W20071  31.079  30.390  10.143
49472W        W20072  11.065  16.792   0.965
49473W        W20073  17.072   6.338   3.264
49474W        W20074  36.848   6.946  10.990
49475W        W20075  25.082  28.608  13.609
49476W        W20076  23.098  14.809   1.051
49477W        W20077  18.569  23.440   3.256
49478W        W20078   3.522  22.216  13.150
49479W        W20079  37.405  14.164   4.075
49480W        W20080   5.819  10.560  12.895
49481W        W20081   6.759  13.581   4.180
49482W        W20082  36.103  39.963   3.020
49483W        W20083  31.440  42.762   4.172
49484W        W20084   9.378  10.870   3.682
49485W        W20085  21.118   7.346   1.830
49486W        W20086  27.129  37.413  10.514
49487W        W20087  15.766  34.620   3.266
49488W        W20088   6.911  41.488  13.925
49489W        W20089  41.801  42.420  12.111
49490W        W20090  41.950  43.271   1.254
49491W        W20091  41.284  17.689  14.805
49492W        W20092  33.101  14.274  12.026
49493W        W20093  19.613  21.950   1.694
49494W        W20094  16.174  25.360   1.881
49495W        W20095  22.218  10.095   3.788
49496W        W20096  21.512   8.797   0.582
49497W        W20097  13.884  39.202  13.011
49498W        W20098  41.182  34.028   0.309
49499W        W20099   7.896  27.511  11.107
49500W        W20100  19.031  20.182  11.906
49501W        W20101  14.272   2.198   4.665
49502W        W20102  35.454   5.497   1.716
49503W        W20103  19.582  34.471   3.748
49504W        W20104  24.600   0.238  12.837
49505W        W20105  16.955  34.958  14.660
49506W        W20106  17.487   0.208  13.996
49507W        W20107  27.684  29.694   3.758
49508W        W20108  29.438   3.753   3.326
49509W        W20109  17.363  33.828   3.068
49510W        W20110   4.407  12.448   2.028
49511W        W20111  40.879   6.397  14.790
49512W        W20112  16.656  42.069  10.978
49513W        W20113   4.239   5.481   2.228
49514W        W20114  41.736  13.589   0.362
49515W        W20115  24.941  14.681   0.799
49516W        W20116  12.186  44.486   2.150
49517W        W20117  23.704   9.445   0.960
49518W        W20118  23.077  39.462  11.132
49519W        W20119   7.240   5.983  13.627
49520W        W20120  11.558  17.702   0.582
49521W        W20121  17.128  28.191   4.580
49522W        W20122  30.579   9.339  10.597
49523W        W20123   4.961   3.859   4.680
49524W        W20124   1.925  30.031  14.442
49525W        W20125   5.359   3.518   0.368
49526W        W20126  10.466  13.421  11.548
49527W        W20127  30.361  29.923   4.743
49528W        W20128  27.394  23.173   3.935
49529W        W20129  28.349  13.656  11.458
49530W        W20130  35.987  18.839  13.468
49531W        W20131   8.744   2.465   3.376
49532W        W20132  13.747   4.854  10.200
49533W        W20133  13.764  15.599   0.809
49534W        W20134  15.204  11.440  13.596
49535W        W20135  11.764  41.849   2.472
49536W        W20136   0.995  12.717  13.456
49537W        W20137   0.948  37.592  10.698
49538W        W20138   9.141  32.559   3.916
49539W        W20139  14.262  29.039  14.257
49540W        W20140  25.123  35.181   4.544
49541W        W20141  22.371  44.824  13.759
49542W        W20142  31.374   7.748  13.843
49543W        W20143  40.116   6.905   2.723
49544W        W20144   3.018  38.334   1.856
49545W        W20145  19.171  34.611  13.099
49546W        W20146  29.012  15.005   2.603
49547W        W20147  35.622  14.797   1.662
49548W        W20148  32.959   1.017   2.629
49549W        W20149  43.545  12.179   4.293
49550W        W20150   6.533   5.175   2.244
49551W        W20151  13.355  30.333  13.873
49552W        W20152   3.534  25.942   5.021
49553W        W20153   5.726  44.184  11.024
49554W        W20154  27.655   2.975   1.315
49555W        W20155  35.894  41.556   2.279
49556W        W20156  12.843  40.772   1.129
49557W        W20157  38.883  31.700   4.250
49558W        W20158   7.721  28.612  14.481
49559W        W20159  28.184  29.478   1.543
49560W        W20160  12.106  25.609   1.049
49561W        W20161  31.050   8.115  13.037
49562W        W20162  17.320  22.504  11.002
49563W        W20163   1.341  28.273  13.894
49564W        W20164  10.028  17.478  13.685
49565W        W20165  38.851   6.637  14.570
49566W        W20166  27.649  22.195  13.455
49567W        W20167  20.466  31.891   4.631
49568W        W20168   2.534  20.505  13.511
49569W        W20169  33.068  12.423  14.332
49570W        W20170  21.479   3.755   3.343
49571W        W20171  44.381  40.036  14.069
49572W        W20172  30.777  19.922   2.693
49573W        W20173  35.957  15.199   2.001
49574W        W20174  23.674  38.252  13.889
49575W        W20175  44.580  34.623   4.542
49576W        W20176   4.871  28.570  14.688
49577W        W20177  23.967  22.537  13.922
49578W        W20178  14.893   0.437   4.341
49579W        W20179  30.920  40.602  12.012
49580W        W20180  36.283  38.407   3.675
49581W        W20181   0.922   9.164   1.319
49582W        W20182  35.440  15.201   1.947
49583W        W20183   7.947  32.887   0.816
49584W        W20184  44.705  38.379   2.403
49585W        W20185  26.225  26.421  14.066
49586W        W20186  24.253  33.414   2.517
49587W        W20187  26.489   5.662  11.412
49588W        W20188  13.992  16.464   4.147
49589W        W20189  40.207  26.456  12.020
49590W        W20190   0.952  44.790   0.545
49591W        W20191  41.840  23.870   2.268
49592W        W20192  16.629  42.484   1.468
49593W        W20193   9.823  26.508   2.870
49594W        W20194  18.650   3.793   2.750
49595W        W20195  12.627   8.727  12.159
49596W        W20196   4.009  29.103  13.534
49597W        W20197  28.051  16.353  12.828
49598W        W20198   9.293  34.364   4.104
49599W        W20199  19.733   6.791   2.893
49600W        W20200  26.969  10.843  10.981
49601W        W20201  43.526  20.813   3.151
49602W        W20202  15.268  27.607   2.657
49603W        W20203  24.627  39.116   0.965
49604W        W20204  22.543  21.078  11.790
49605W        W20205  27.976  17.627   1.922
49606W        W20206   9.231  17.981  12.818
49607W        W20207  27.765  25.027  12.555
49608W        W20208  34.515   2.170  12.124
49609W        W20209   2.228  20.358  11.263
49610W        W20210  40.468   5.868  14.792
49611W        W20211  33.620   0.282   3.371
49612W        W20212   0.444  32.643  13.030
49613W        W20213  29.596  17.825  13.636
49614W        W20214  24.286  26.983   3.592
49615W        W20215  39.396   0.546  13.877
49616W        W20216   3.125  20.061  11.958
49617W        W20217  26.651  20.020  13.373
49618W        W20218  26.555   5.649   4.746
49619W        W20219  37.973  35.340   1.458
49620W        W20220  18.352  11.883   1.704
49621W        W20221  16.646  19.297   2.142
49622W        W20222  13.424  22.720   3.683
49623W        W20223  25.725  33.926  11.328
49624W        W20224  31.941   5.884  12.049
49625W        W20225   9.860  40.122  11.287
49626W        W20226  42.909   5.943   3.294
49627W        W20227   9.566  24.129   2.635
49628W        W20228  28.864  42.855   4.668
49629W        W20229  16.924  17.825  13.386
49630W        W20230  32.360  14.596   0.406
49631W        W20231  30.527  43.283   4.290
49632W        W20232   4.967  33.897  12.749
49633W        W20233  42.283  32.870  12.891
49634W        W20234  34.121  33.355   4.419
49635W        W20235  20.622   1.796  11.212
49636W        W20236  37.332  44.440   4.588
49637W        W20237  19.149   5.107  12.006
49638W        W20238  41.355  30.972  14.785
49639W        W20239   1.622  36.449   3.258
49640W        W20240  32.871  24.711   0.769
49641W        W20241   7.225  42.679   0.319
49642W        W20242  28.505  12.380  13.986
49643W        W20243   1.505  12.425   3.677
49644W        W20244  41.755   1.693   2.719
49645W        W20245  23.222  19.086   0.707
49646W        W20246  18.111  44.683   4.402
49647W        W20247  43.320  33.953  11.902
49648W        W20248  17.546  31.928  10.732
49649W        W20249   7.280  22.418   0.327
49650W        W20250  43.899  21.135   2.250
49651W        W20251   8.360  23.676   4.525
49652W        W20252   6.780  33.840  11.023
49653W        W20253  36.361   7.798   2.383
49654W        W20254  27.476   4.103  12.191
49655W        W20255  28.493  13.699  12.333
49656W        W20256  13.029  34.860   3.087
49657W        W20257   4.507  38.960   3.158
49658W        W20258  35.838  37.060  13.754
49659W        W20259   3.739  24.721   0.242
49660W        W20260  41.406   1.262   2.892
49661W        W20261   4.445  41.782   0.854
49662W        W20262  18.715  21.312  13.859
49663W        W20263  21.013  18.051  12.392
49664W        W20264  24.766   0.999  12.624
49665W        W20265  18.106  10.911   1.375
49666W        W20266  39.826   8.263  14.488
49667W        W20267   3.340   6.805   1.330
49668W        W20268  36.111  30.829   2.307
49669W        W20269   0.643   0.143  13.312
49670W        W20270  41.730  35.145   3.012
49671W        W20271  34.325  15.838   3.786
49672W        W20272  18.301  14.201  10.912
49673W        W20273  23.456   1.931  10.769
49674W        W20274  33.540  25.546  13.822
49675W        W20275  25.560   4.663  12.996
49676W        W20276  25.591  42.442   2.354
49677W        W20277   1.221  17.340   2.832
49678W        W20278  11.093  31.883   1.722
49679W        W20279  43.853  21.545  11.172
49680W        W20280  26.010  39.452   1.679
49681W        W20281   0.869  14.279   1.241
49682W        W20282  20.660  24.667   0.468
49683W        W20283  36.639   4.496  11.626
49684W        W20284  44.991  17.252  11.084
49685W        W20285  20.311  43.454   0.400
49686W        W20286  26.460  12.370  14.945
49687W        W20287  38.478  40.342   1.124
49688W        W20288  15.594  12.647   1.692
49689W        W20289   4.317  10.221   4.293
49690W        W20290  12.871  30.590  12.623
49691W        W20291   2.486  42.583   1.257
49692W        W20292  35.206  10.914  10.582
49693W        W20293   2.723  21.596   3.190
49694W        W20294  28.450  33.197  14.339
49695W        W20295  44.251  28.551  14.905
49696W        W20296  29.609  21.261  11.886
49697W        W20297   4.692  30.005  10.552
49698W        W20298   4.737  26.612  12.533
49699W        W20299  39.601  44.515  12.995
49700W        W20300  15.568   0.343  11.857
49701W        W20301  40.953  14.544   1.890
49702W        W20302  22.095  23.240   1.624
49703W        W20303  43.059  12.837   2.902
49704W        W20304  19.749   9.350   1.254
49705W        W20305   1.509   9.869   3.042
49706W        W20306   1.324  22.017   1.765
49707W        W20307  11.150  40.396  13.869
49708W        W20308  35.154  15.706  11.130
49709W        W20309  40.128  10.039  11.818
49710W        W20310  34.701  24.019   0.743
49711W        W20311  26.219  40.884  10.528
49712W        W20312  32.671  40.574   1.911
49713W        W20313  15.333  18.752   3.798
49714W        W20314  40.792  30.541   1.637
49715W        W20315  29.618  29.023   4.343
49716W        W20316  35.472  28.625  14.900
49717W        W20317   5.393  16.338   1.780
49718W        W20318  27.486  34.157  11.630
49719W        W20319  14.237  37.876   2.154
49720W        W20320  20.562  32.470   3.234
49721W        W20321   1.296   7.485  14.907
49722W        W20322   5.171  37.462  14.204
49723W        W20323  37.154   2.289  13.582
49724W        W20324  22.275  16.599   3.045
49725W        W20325  25.990  15.858   4.660
49726W        W20326  23.815   3.548  14.901
49727W        W20327  21.659   0.501   2.144
49728W        W20328  35.719  39.245   3.796
49729W        W20329   2.871  14.235   4.297
49730W        W20330  18.659  34.292  10.884
49731W        W20331  30.944  16.747  10.763
49732W        W20332  13.660  31.381  12.073
49733W        W20333  42.909  43.348  10.901
49734W        W20334  43.852  19.559  10.469
49735W        W20335   7.406   0.830  11.581
49736W        W20336  17.084  15.390   5.020
49737W        W20337  40.905  31.414  10.911
49738W        W20338   4.778   7.926   0.244
49739W        W20339   4.792   7.098   0.696
49740W        W20340   4.479  32.494   1.934
49741W        W20341  21.950  31.564  14.501
49742W        W20342   1.579  39.788  14.477
49743W        W20343  37.072  24.738  11.661
49744W        W20344  25.381  10.285  11.744
49745W        W20345   7.736  12.147  14.334
49746W        W20346  24.667   1.526  14.347
49747W        W20347  33.331  28.777   9.860
49748W        W20348  32.874   1.371   1.203
49749W        W20349  25.682   3.754  14.074
49750W        W20350  37.883  13.676  13.730
49751W        W20351  10.463  22.644  13.661
49752W        W20352   9.238   9.138  14.117
49753W        W20353  15.515  38.881  10.266
49754W        W20354  21.813  10.796   0.550
49755W        W20355  38.829  15.629   4.866
49756W        W20356  31.703  38.179   3.169
49757W        W20357  31.683   2.748  14.626
49758W        W20358  24.690  44.817   2.201
49759W        W20359  10.161   7.309   4.545
49760W        W20360   6.169  28.421   4.602
49761W        W20361   4.795  42.980   1.175
49762W        W20362  15.176  29.342  11.054
49763W        W20363  35.321  18.998  13.305
49764W        W20364  37.441  10.416   3.662
49765W        W20365  44.536  13.317   0.738
49766W        W20366  38.028  18.884   3.064
49767W        W20367   9.003   9.824   4.537
49768W        W20368  32.572  40.849  11.389
49769W        W20369  41.686  30.894   0.712
49770W        W20370   2.633  36.879   3.798
49771W        W20371   9.985  11.929   2.739
49772W        W20372  18.614  10.609   4.841
49773W        W20373  37.900   1.293  11.091
49774W        W20374  44.954  11.595  12.974
49775W        W20375  28.280   8.664  14.335
49776W        W20376   0.670   7.176  12.153
49777W        W20377  20.899  27.623  11.128
49778W        W20378  21.231   4.415   3.218
49779W        W20379  22.580  37.790   3.937
49780W        W20380  38.740   6.280   3.881
49781W        W20381  24.568  37.818   3.913
49782W        W20382  41.062  33.496   0.808
49783W        W20383   7.339  43.401  13.445
49784W        W20384  22.687  12.319   3.796
49785W        W20385  32.440  33.441   2.841
49786W        W20386  42.245  40.974   1.888
49787W        W20387  32.197  12.273  11.943
49788W        W20388  21.496  38.100  14.888
49789W        W20389  16.758  44.526  13.215
49790W        W20390   1.738  30.074   3.866
49791W        W20391   8.856   7.970   4.561
49792W        W20392  33.278   3.027  13.388
49793W        W20393  31.921  23.025   1.315
49794W        W20394  29.032  33.266   4.190
49795W        W20395  40.228  44.717  15.000
49796W        W20396  30.371  10.791   0.514
49797W        W20397  16.957   7.955   5.017
49798W        W20398  31.170   4.643   4.161
49799W        W20399  19.592   2.825   0.228
49800W        W20400  36.094  19.649  11.032
49801W        W20401   2.450   2.851  12.302
49802W        W20402   0.453  10.262  12.862
49803W        W20403  35.182   9.949  14.992
49804W        W20404  13.615  10.586  13.374
49805W        W20405  28.156  19.816   4.351
49806W        W20406  40.013  27.542   2.370
49807W        W20407  14.093  10.442  12.621
49808W        W20408  25.631  37.585  10.185
49809W        W20409   4.149  40.033   3.854
49810W        W20410  17.792  37.948   0.046
49811W        W20411  18.062  30.000   2.826
49812W        W20412  23.765  14.060   0.398
49813W        W20413   3.055  28.093   4.029
49814W        W20414  32.649   3.240   3.243
49815W        W20415   3.645  40.877   2.320
49816W        W20416  25.535  15.337  14.795
49817W        W20417   6.883  36.343   1.898
49818W        W20418   9.231   2.213  14.221
49819W        W20419  23.797   5.721   3.516
49820W        W20420  14.355   8.177  11.258
49821W        W20421   1.909  14.789  10.749
49822W        W20422  22.450  41.490  12.376
49823W        W20423  20.587  30.053   3.602
49824W        W20424  35.943  11.063   1.374
49825W        W20425   1.748  16.153   0.334
49826W        W20426  27.766  44.837  10.878
49827W        W20427  15.909  31.994  14.308
49828W        W20428  31.866   9.245  12.585
49829W        W20429   6.712  24.986  11.171
49830W        W20430  26.086  34.516  14.890
49831W        W20431   4.858  21.267  11.065
49832W        W20432  37.481   8.773   1.476
49833W        W20433  39.014  31.354  12.130
49834W        W20434  34.861  22.481   3.804
49835W        W20435   2.308  20.724  12.204
49836W        W20436  23.298  39.757  10.585
49837W        W20437  30.533  40.239  12.601
49838W        W20438  10.274  18.661  14.357
49839W        W20439  20.347   4.734   2.766
49840W        W20440  11.597  24.330   3.396
49841W        W20441  15.725  11.196   4.658
49842W        W20442  41.958  25.206   3.380
49843W        W20443   4.711   2.304  10.623
49844W        W20444   9.213  32.924  10.967
49845W        W20445  35.827  31.432   2.303
49846W        W20446  37.541  40.106   2.445
49847W        W20447  16.966  40.582  14.378
49848W        W20448  31.839  12.104  13.289
49849W        W20449  43.511  40.764   2.333
49850W        W20450  26.273  36.330  13.525
49851W        W20451   7.918  29.726  10.191
49852W        W20452   3.738  29.346   1.312
49853W        W20453  34.603  30.676  12.881
49854W        W20454  10.568   2.005  13.574
49855W        W20455   5.815  23.111  10.845
49856W        W20456  39.812  13.696   4.538
49857W        W20457  15.667  21.294  11.427
49858W        W20458  31.427  38.885  11.983
49859W        W20459  34.320  37.006  12.450
49860W        W20460   9.261   6.123   2.381
49861W        W20461  44.756  17.109  11.544
49862W        W20462   1.954   1.005  12.155
49863W        W20463   3.118  35.103  10.862
49864W        W20464  12.400  15.170   3.281
49865W        W20465  15.043   3.203  11.151
49866W        W20466  14.617  25.574   2.762
49867W        W20467  19.982   7.945   4.200
49868W        W20468  35.957   6.829   0.840
49869W        W20469  10.223  10.095  14.315
49870W        W20470  15.806  39.773  14.543
49871W        W20471   3.863  21.113  13.268
49872W        W20472   4.273  17.769   0.817
49873W        W20473   7.632  23.145   0.729
49874W        W20474  21.113  21.807  14.331
49875W        W20475   7.475  22.081   1.681
49876W        W20476  34.363  37.610   1.430
49877W        W20477  38.438  18.597   4.245
49878W        W20478  28.065   3.298  10.276
49879W        W20479  30.909  42.459   4.576
49880W        W20480  27.927  11.336  12.174
49881W        W20481  16.003  27.126  13.010
49882W        W20482  11.705  10.964  14.115
49883W        W20483   0.739   7.269   5.432
49884W        W20484  39.711   2.216  11.226
49885W        W20485   2.790   7.298  10.678
49886W        W20486  40.969  28.640  11.601
49887W        W20487  33.073  26.267   4.289
49888W        W20488  19.360  35.139  10.866
49889W        W20489   7.211  23.495  11.735
49890W        W20490  34.044   5.442  11.508
49891W        W20491   8.454  12.378  11.998
49892W        W20492  44.518  17.386   4.635
49893W        W20493  27.090  29.907   2.856
49894W        W20494  38.101  31.864   2.791
49895W        W20495  11.005  19.604  14.415
49896W        W20496  42.408   3.913  12.951
49897W        W20497  43.454  42.541   0.262
49898W        W20498  36.996  44.307  10.701
49899W        W20499   5.331  24.500   1.738
49900W        W20500   6.307  41.959  14.425
49901W        W20501  18.488  12.795  12.087
49902W        W20502  39.305   1.041   3.261
49903W        W20503   2.200  26.730  14.629
49904W        W20504  27.326  14.592  10.590
49905W        W20505  21.659  35.261   4.658
49906W        W20506  16.376  34.393   4.015
49907W        W20507  10.300   1.422   1.225
49908W        W20508  39.934  39.261   2.002
49909W        W20509   9.818  29.242   2.448
49910W        W20510  25.557  17.813   0.014
49911W        W20511  25.435  31.589  11.969
49912W        W20512  34.038  42.989  11.976
49913W        W20513   2.485  10.439  14.861
49914W        W20514  25.171  10.068   3.795
49915W        W20515  35.088  20.962  13.103
49916W        W20516  44.367  27.353  14.486
49917W        W20517  35.187  16.134   4.672
49918W        W20518  39.586  26.020  12.618
49919W        W20519  34.635  38.249  11.475
49920W        W20520  33.504  30.214  14.101
49921W        W20521  31.041   1.988   2.405
49922W        W20522  34.093  36.629  11.640
49923W        W20523  16.765  23.974   1.971
49924W        W20524  34.121  21.608  13.381
49925W        W20525  21.003  29.712  13.356
49926W        W20526  12.654  26.478  13.983
49927W        W20527  41.861  33.841   3.404
49928W        W20528  13.072  17.627  14.395
49929W        W20529   1.771  39.891  11.013
49930W        W20530  23.660  40.563   3.573
49931W        W20531   3.455   0.435  12.486
49932W        W20532  35.004   3.315  11.224
49933W        W20533  28.130  10.722   4.101
49934W        W20534  33.932   5.078  14.428
49935W        W20535  41.408  30.899   1.705
49936W        W20536  16.094  14.407   3.282
49937W        W20537  44.927   9.725  13.448
49938W        W20538  15.345  12.862  14.516
49939W        W20539   2.212  29.458  13.326
49940W        W20540   5.706  34.045   2.852
49941W        W20541  12.980  42.058   3.248
49942W        W20542  34.559   8.292   0.487
49943W        W20543  35.579  32.837  13.944
49944W        W20544  42.318  15.834  13.952
49945W        W20545  14.867  35.491   3.197
49946W        W20546   7.861  18.364   1.068
49947W        W20547   9.897  44.958   2.802
49948W        W20548  13.164  15.779   4.684
49949W        W20549  24.971   9.381  13.043
49950W        W20550   6.910  29.687  14.806
49951W        W20551  26.112  29.922  14.061
49952W        W20552  23.444  30.432   0.824
49953W        W20553  32.819   6.662  12.640
49954W        W20554  20.158  37.704  12.418
49955W        W20555  16.231  12.675  11.993
49956W        W20556  21.497  40.450   2.666
49957W        W20557  35.756  30.477   2.650
49958W        W20558  20.419   1.466   0.917
49959W        W20559  41.808   6.505   5.069
49960W        W20560  43.945  20.717  13.050
49961W        W20561   6.585  21.070  12.911
49962W        W20562  32.647   3.932  13.407
49963W        W20563   6.269  36.609  14.906
49964W        W20564  44.777  24.221  13.229
49965W        W20565   5.396  39.747  14.836
49966W        W20566  23.278  40.433   3.268
49967W        W20567  40.878  39.034   3.218
49968W        W20568  29.038  23.719   0.561
49969W        W20569  18.174  40.525   1.730
49970W        W20570  16.921   5.394   4.997
49971W        W20571  15.136  14.866   1.342
49972W        W20572  34.949  41.671   3.335
49973W        W20573  38.011  26.128   2.379
49974W        W20574  37.673  31.015   1.432
49975W        W20575  36.523  20.005   3.357
49976W        W20576  21.641  22.017   2.241
49977W        W20577  18.660  28.435  12.567
49978W        W20578   1.249  30.063   4.043
49979W        W20579  38.619  19.946   2.153
49980W        W20580  42.517   4.940  13.881
49981W        W20581  36.482  23.431   4.707
49982W        W20582  23.939  25.603  10.604
49983W        W20583  16.494  15.196   1.163
49984W        W20584  33.866  42.918   3.724
49985W        W20585  14.104  13.272   1.515
49986W        W20586  33.674  20.923   2.804
49987W        W20587  39.997  22.862   2.468
49988W        W20588   0.863  17.204   2.315
49989W        W20589   0.441   9.734  13.778
49990W        W20590  25.141  13.298  11.177
49991W        W20591   7.650   1.988   0.942
49992W        W20592  27.529  36.330  13.350
49993W        W20593  35.386   1.747  10.661
49994W        W20594   4.435  20.002   1.874
49995W        W20595  26.154  40.724   2.386
49996W        W20596   3.760  16.695   0.068
49997W        W20597  17.555  43.805   2.762
49998W        W20598   3.602  37.043   0.684
49999W        W20599  40.863  35.529   4.601
50000W        W20600  23.321  13.917   1.701
50001W        W20601  41.966  28.006   3.043
50002W        W20602  44.965   4.832   2.784
50003W        W20603  43.698  17.303   4.311
50004W        W20604   4.368  25.182  11.027
50005W        W20605  30.255  11.844   1.713
50006W        W20606  36.926   3.184  13.799
50007W        W20607  35.533  44.605   4.771
50008W        W20608  28.703  15.795  14.384
50009W        W20609  43.620   8.379   1.401
50010W        W20610   0.603   2.865   0.082
50011W        W20611  27.077   5.304  12.573
50012W        W20612  42.678   1.799  14.864
50013W        W20613  23.128  24.965  11.592
50014W        W20614  26.094  24.512  14.030
50015W        W20615  35.646  30.425   0.253
50016W        W20616  35.687  44.193  12.542
50017W        W20617  39.450   8.394   2.851
50018W        W20618   5.444   3.263   5.055
50019W        W20619  41.524  22.142   4.253
50020W        W20620  23.150  10.230  11.608
50021W        W20621  32.988  34.057   0.547
50022W        W20622  25.682  43.778   9.869
50023W        W20623   2.793  19.570  14.536
50024W        W20624  36.983   5.247   4.111
50025W        W20625  15.363  24.009   1.881
50026W        W20626   4.915  10.270  13.266
50027W        W20627  19.568   9.763   4.635
50028W        W20628   4.480  34.626   0.448
50029W        W20629  43.575  23.900   0.676
50030W        W20630  36.843  34.955  14.355
50031W        W20631   0.342   6.615  13.612
50032W        W20632  16.321  21.637   2.486
50033W        W20633  41.616  28.203   0.723
50034W        W20634  35.835  40.459   4.117
50035W        W20635   6.055   7.787  11.062
50036W        W20636  25.697   5.321   2.966
50037W        W20637  40.821  26.086   1.284
50038W        W20638  15.106  38.760  13.555
50039W        W20639   9.923  25.273   4.554
50040W        W20640   8.320  28.742   0.317
50041W        W20641  25.522  18.448  11.347
50042W        W20642   8.466  20.734  10.644
50043W        W20643   0.730  14.733  12.184
50044W        W20644   8.816   2.960  14.125
50045W        W20645  38.087  27.639   1.323
50046W        W20646  41.040  21.660   4.640
50047W        W20647  44.307  13.845  14.921
50048W        W20648   6.260  11.715  10.136
50049W        W20649  36.617   9.349   3.566
50050W        W20650  14.847  21.120   4.153
50051W        W20651  17.901  28.738  13.970
50052W        W20652  12.814  43.971   1.449
50053W        W20653   9.154  39.528   3.885
50054W        W20654  33.836  21.185  14.274
50055W        W20655  13.094  33.954   2.317
50056W        W20656  19.674  34.543   0.368
50057W        W20657  17.334  17.227   0.341
50058W        W20658  29.487   3.639   1.390
50059W        W20659  42.912  21.678  14.844
50060W        W20660  35.037  26.496  10.340
50061W        W20661   3.068  11.325   3.683
50062W        W20662  39.135  28.626   4.176
50063W        W20663  24.745  18.724   2.988
50064W        W20664  40.376  16.211   1.802
50065W        W20665  17.473   9.359  14.013
50066W        W20666  14.308   3.966   0.995
50067W        W20667  10.931  39.583  11.140
50068W        W20668  42.497  29.804   3.493
50069W        W20669  42.752  24.678   3.265
50070W        W20670  41.469  35.789  11.882
50071W        W20671   5.842  40.026  14.717
50072W        W20672   6.464  11.186  12.377
50073W        W20673  30.885   3.119   4.992
50074W        W20674  10.878  36.327   1.830
50075W        W20675   8.177  35.120  14.882
50076W        W20676  21.218   5.866  11.891
50077W        W20677  28.150   3.779  14.887
50078W        W20678  28.189  27.513  11.081
50079W        W20679  30.409  29.717  12.440
50080W        W20680   4.484   5.506   4.654
50081W        W20681  43.695  33.601  11.843
50082W        W20682  10.388   3.140  11.990
50083W        W20683  22.641  34.872  10.424
50084W        W20684   1.761  21.957  12.948
50085W        W20685   6.719  24.012   0.718
50086W        W20686   9.235  22.581  13.887
50087W        W20687   2.703  39.293   1.744
50088W        W20688  14.912  18.369  11.403
50089W        W20689  21.390  15.310  11.527
50090W        W20690   5.289  35.525  12.634
50091W        W20691  19.748   9.658  14.895
50092W        W20692  32.648  13.106   3.366
50093W        W20693  10.587   1.866   3.386
50094W        W20694  14.880  34.942   2.676
50095W        W20695  36.751  34.302  11.574
50096W        W20696  22.733   5.805  13.770
50097W        W20697  32.417  43.408   0.809
50098W        W20698  36.148   1.692  12.884
50099W        W20699  21.520  34.058  14.351
50100W        W20700  31.616  20.159   0.486
50101W        W20701   7.320  19.232  12.655
50102W        W20702  39.484  42.551  13.314
50103W        W20703   5.738  13.605  11.530
50104W        W20704  24.195  16.204  13.632
50105W        W20705   9.781  35.996   4.510
50106W        W20706  35.499  33.844   3.291
50107W        W20707  31.280  11.892   4.515
50108W        W20708  20.191  37.053  11.888
50109W        W20709  36.863  17.699   3.702
50110W        W20710  29.496  32.474   4.606
50111W        W20711   2.343   3.515  14.452
50112W        W20712   8.140   7.826   0.689
50113W        W20713  10.859   5.104   0.539
50114W        W20714   5.290  20.119  13.874
50115W        W20715  20.323  28.591  11.068
50116W        W20716  32.940  28.921  14.950
50117W        W20717  11.526  22.768  14.619
50118W        W20718  18.998  27.058  13.977
50119W        W20719  43.961  16.862   1.190
50120W        W20720   8.866  19.724   4.776
50121W        W20721  40.853  15.571  12.975
50122W        W20722  26.148  25.670   2.293
50123W        W20723  34.775  10.280   5.085
50124W        W20724  36.632  18.697  10.629
50125W        W20725  37.381  20.287  13.809
50126W        W20726   6.952  24.279  12.468
50127W        W20727  41.677  43.094   2.309
50128W        W20728  35.117  24.497  14.874
50129W        W20729  33.623  35.915  13.388
50130W        W20730   7.847  44.184   2.665
50131W        W20731   1.399  34.487   4.803
50132W        W20732   3.170   3.013  13.468
50133W        W20733  44.351  27.012   4.240
50134W        W20734  36.000  19.791   3.192
50135W        W20735  14.082  24.065   3.133
50136W        W20736  26.957  10.256   0.907
50137W        W20737  16.005  26.911   4.960
50138W        W20738  21.501  18.132   2.898
50139W        W20739  24.972  15.671  12.517
50140W        W20740  38.776  41.908   1.849
50141W        W20741  40.437  15.968  14.715
50142W        W20742  20.154   0.313   1.006
50143W        W20743  33.050   8.870  14.079
50144W        W20744  42.336  14.511  13.538
50145W        W20745  35.949  11.302   2.372
50146W        W20746  23.304  35.134   4.421
50147W        W20747  14.550  15.284  13.519
50148W        W20748  36.200  44.613  10.107
50149W        W20749  24.946   9.194  14.364
50150W        W20750  22.001  28.017  11.623
50151W        W20751   9.778   2.407  12.579
50152W        W20752  39.920  20.714   3.564
50153W        W20753   5.427  25.984  14.531
50154W        W20754  14.276  31.160  13.819
50155W        W20755   6.209  33.381  12.855
50156W        W20756  14.577  31.737  14.527
50157W        W20757   4.049  25.246   3.316
50158W        W20758  20.078  14.822   3.613
50159W        W20759  16.031  15.761   0.412
50160W        W20760   5.140   7.896   2.727
50161W        W20761  40.201  34.684   1.724
50162W        W20762  42.778   2.534  14.311
50163W        W20763   2.275  25.163  12.967
50164W        W20764  41.500  13.648  12.840
50165W        W20765  39.697   2.515   1.611
50166W        W20766  18.794   9.768   1.899
50167W        W20767   2.500  37.478   1.230
50168W        W20768   3.740  39.346   1.639
50169W        W20769  25.791  29.491   4.213
50170W        W20770  26.012  37.959  11.085
50171W        W20771  16.169  13.549   1.811
50172W        W20772  20.050  32.037  12.939
50173W        W20773   0.717  11.152   3.097
50174W        W20774  31.968  11.343   0.584
50175W        W20775  14.107  33.989   4.674
50176W        W20776  23.780   2.245   1.946
50177W        W20777  40.380  12.553   3.038
50178W        W20778  30.348  20.348  11.125
50179W        W20779  13.840  40.580   2.723
50180W        W20780   9.779   7.454   2.236
50181W        W20781   4.686  41.275   3.177
50182W        W20782  40.241  22.605   4.045
50183W        W20783   2.448  32.032   1.930
50184W        W20784  25.535  20.549  13.991
50185W        W20785  22.874  40.477  13.041
50186W        W20786  37.006  35.410   0.874
50187W        W20787   6.690   4.685   0.423
50188W        W20788  29.681  25.165  14.372
50189W        W20789  43.020  41.057   4.685
50190W        W20790   0.027  39.932   2.158
50191W        W20791  27.060  17.768   3.499
50192W        W20792  25.664  27.235  14.669
50193W        W20793  32.987  20.837   2.403
50194W        W20794   1.501  26.225  11.603
50195W        W20795   1.408   4.298  11.413
50196W        W20796  23.735  27.026  12.022
50197W        W20797  12.165  10.352   0.825
50198W        W20798   8.654  43.435  10.660
50199W        W20799  32.180   7.127  12.085
50200W        W20800  17.007  15.882   2.161
50201W        W20801  28.215  19.468  14.711
50202W        W20802  37.487  31.168  13.381
50203W        W20803  27.886   5.859  13.024
50204W        W20804  11.724   8.049   0.100
50205W        W20805   4.918  42.004   4.078
50206W        W20806  23.685  20.235   1.769
50207W        W20807   4.291  26.763  12.831
50208W        W20808   8.407   3.213  13.922
50209W        W20809  21.900  27.097   4.293
50210W        W20810  12.713  42.300   3.653
50211W        W20811   2.455  42.445   2.400
50212W        W20812   5.163  11.527  10.315
50213W        W20813  17.630  39.891   1.954
50214W        W20814  37.110   0.960  12.106
50215W        W20815  42.652  14.813  10.419
50216W        W20816  27.388  33.664  11.639
50217W        W20817  17.662   2.749   3.308
50218W        W20818  31.154  37.788   4.821
50219W        W20819   4.417  10.153  14.972
50220W        W20820  22.237  35.966  14.728
50221W        W20821   2.841  18.171  12.759
50222W        W20822   2.036  13.057   4.666
50223W        W20823  21.327  27.578  12.984
50224W        W20824  17.027   3.999  13.356
50225W        W20825  36.426   1.820   1.306
50226W        W20826  27.447  42.941   3.783
50227W        W20827   1.884  26.696   2.783
50228W        W20828  42.911   3.319   1.818
50229W        W20829  44.882  23.151  12.376
50230W        W20830  23.541  43.878  14.446
50231W        W20831   7.291  17.166  13.850
50232W        W20832  40.532  20.275  12.638
50233W        W20833   8.055  23.171   0.456
50234W        W20834  21.025  32.096   0.149
50235W        W20835   6.443   1.236  13.613
50236W        W20836  36.834  35.968   1.255
50237W        W20837  38.914  27.015  12.222
50238W        W20838  41.914  40.101  11.173
50239W        W20839  18.637  22.192   4.777
50240W        W20840  12.597   8.317  12.539
50241W        W20841  20.182  13.280   1.448
50242W        W20842   5.733  12.283   0.906
50243W        W20843   9.955  24.548  14.480
50244W        W20844  39.255   6.966  12.080
50245W        W20845  40.839   3.131  12.062
50246W        W20846  35.589  22.236  14.571
50247W        W20847  41.741  34.020   4.320
50248W        W20848   9.254   8.873  12.396
50249W        W20849   1.888  43.048   2.298
50250W        W20850  34.457   5.738   2.368
50251W        W20851   6.519   2.581  11.169
50252W        W20852  24.499  14.579   2.283
50253W        W20853   1.427   4.944   0.386
50254W        W20854  37.439  39.427  13.811
50255W        W20855   6.351   4.373  14.753
50256W        W20856   6.024  16.200  11.061
50257W        W20857  37.917  17.771  14.994
50258W        W20858  20.345  40.367   4.508
50259W        W20859   2.911   8.932   2.256
50260W        W20860  26.578  41.043   2.328
50261W        W20861  25.847  24.625  11.817
50262W        W20862  11.769  29.469   2.663
50263W        W20863   1.463  42.696   4.929
50264W        W20864  12.520   8.066   3.183
50265W        W20865  11.450  43.621   1.278
50266W        W20866  10.709   0.336   2.681
50267W        W20867  39.971  12.786  11.026
50268W        W20868  21.075  42.889  12.488
50269W        W20869   1.239  19.349   4.611
50270W        W20870  10.306  25.443  14.996
50271W        W20871  16.211  14.347   1.348
50272W        W20872  13.505   5.464   3.303
50273W        W20873   3.517  37.055  11.059
50274W        W20874   3.917  33.177  12.904
50275W        W20875  44.458   7.195   4.154
50276W        W20876   1.395  21.348  14.346
50277W        W20877  24.254  19.810  12.403
50278W        W20878   4.837  39.816  10.766
50279W        W20879  19.066  10.854   4.740
50280W        W20880   7.376  43.508   0.497
50281W        W20881  34.435  17.513  14.680
50282W        W20882   0.426  35.648   2.185
50283W        W20883   8.596  16.837  13.930
50284W        W20884   6.329   2.250   1.812
50285W        W20885  24.165   1.415   4.594
50286W        W20886  15.211  35.818   4.580
50287W        W20887  21.724   7.533   0.140
50288W        W20888  34.669  44.603  11.884
50289W        W20889  12.810  33.626  12.442
50290W        W20890  15.791  40.261   1.894
50291W        W20891  43.507  39.594  12.972
50292W        W20892  10.971  20.189   1.672
50293W        W20893  44.074   9.870  13.340
50294W        W20894  39.317  11.231   4.222
50295W        W20895  19.435  33.981  13.487
50296W        W20896  20.372  19.296   2.334
50297W        W20897  18.111   3.709   2.695
50298W        W20898  15.541  15.714  14.350
50299W        W20899  32.679   8.363   1.230
50300W        W20900  26.084  31.476  13.236
50301W        W20901  23.908   7.503   2.749
50302W        W20902   6.203  18.977  13.236
50303W        W20903   4.724  25.964   4.566
50304W        W20904  39.699  39.229  10.447
50305W        W20905  18.658  41.843   4.110
50306W        W20906  33.833  44.810  10.722
50307W        W20907  19.590  14.658   4.607
50308W        W20908  26.917  13.698   1.252
50309W        W20909  40.993  31.603   3.638
50310W        W20910   5.307  21.587   2.170
50311W        W20911  16.772  25.027   1.014
50312W        W20912  41.451  18.210  14.829
50313W        W20913  42.026   7.738   3.410
50314W        W20914  21.273  30.162  12.117
50315W        W20915   7.680  13.277   2.796
50316W        W20916  24.161  35.831   1.376
50317W        W20917  43.925  36.412   2.756
50318W        W20918  11.819  35.920   4.151
50319W        W20919   5.471  18.339   1.637
50320W        W20920  43.460  21.088   3.590
50321W        W20921   6.285  38.709  13.106
50322W        W20922  13.184  40.010   1.421
50323W        W20923   2.124  34.971  13.020
50324W        W20924  37.580  10.171   1.850
50325W        W20925  16.784  42.445   4.320
50326W        W20926  36.155   6.769  14.388
50327W        W20927   7.385  38.951   1.427
50328W        W20928  33.794  28.615  11.023
50329W        W20929  22.102  19.281  12.890
50330W        W20930  38.526  26.927   0.829
50331W        W20931  21.605  15.061   1.861
50332W        W20932  15.753  24.316  14.385
50333W        W20933  26.377   2.862   4.237
50334W        W20934  38.892  34.451   3.723
50335W        W20935  40.003  27.160  13.054
50336W        W20936  28.729  24.007   0.246
50337W        W20937  38.103  37.428   0.351
50338W        W20938   7.364   8.655  14.941
50339W        W20939  12.572  24.113  14.810
50340W        W20940   5.430   2.692  12.853
50341W        W20941  35.317  43.170   1.776
50342W        W20942  35.869  27.395   4.285
50343W        W20943  35.606  12.102  13.148
50344W        W20944  13.068   9.735   2.065
50345W        W20945  37.319  27.519   0.404
50346W        W20946  19.753  15.099   4.381
50347W        W20947   3.329  37.805   1.183
50348W        W20948  30.433   1.165   4.132
50349W        W20949  40.400  22.682   4.531
50350W        W20950  11.718   2.579   3.579
50351W        W20951   9.342   7.436   0.410
50352W        W20952   1.899  27.167   1.880
50353W        W20953   0.762   1.222  12.515
50354W        W20954  26.744  22.153  12.087
50355W        W20955   4.341  33.394   2.878
50356W        W20956  16.701  10.569   2.537
50357W        W20957  23.267  31.855   0.833
50358W        W20958  30.695  31.807  10.753
50359W        W20959   1.033   0.303   3.368
50360W        W20960  13.299  32.176   1.296
50361W        W20961  36.707  10.373  14.401
50362W        W20962  39.035   7.577   4.098
50363W        W20963  16.956   4.424   0.912
50364W        W20964  31.726  29.789  14.929
50365W        W20965  36.092  37.886  13.403
50366W        W20966   3.360  12.664   0.800
50367W        W20967   2.865  28.261  14.844
50368W        W20968  36.785  29.860   2.318
50369W        W20969  24.403  22.808   2.885
50370W        W20970  29.073  18.615   0.113
50371W        W20971   1.357   6.373   2.828
50372W        W20972  31.082   2.169  11.570
50373W        W20973   6.889  42.499   2.734
50374W        W20974  16.455  34.532  12.392
50375W        W20975   1.759  44.818   0.660
50376W        W20976  36.584  21.539   3.241
50377W        W20977  18.791  26.049  13.140
50378W        W20978  16.142  38.037   2.167
50379W        W20979  44.289  13.154  14.524
50380W        W20980   1.971  36.414  14.022
50381W        W20981  16.120  40.660  10.690
50382W        W20982  39.125   9.848  11.594
50383W        W20983  36.964  40.769  13.854
50384W        W20984  37.278  33.860   3.222
50385W        W20985  12.533  19.720  14.253
50386W        W20986   7.730  26.503   3.368
50387W        W20987  11.672  16.032   0.407
50388W        W20988  12.057  27.071   4.170
50389W        W20989   0.263  29.013  11.918
50390W        W20990  35.147   1.419   4.644
50391W        W20991   6.768  19.886  12.461
50392W        W20992  15.963  24.456  11.894
50393W        W20993  44.987  24.930  13.070
50394W        W20994  27.736  30.621   1.662
50395W        W20995  27.945  15.506  12.511
50396W        W20996  15.625  16.758   0.693
50397W        W20997  42.524  20.112   4.267
50398W        W20998   5.906  35.944   1.829
50399W        W20999  22.703  11.825  14.775
50400W        W21000  44.736  10.640   3.739
50401W        W21001   7.705  15.488   5.057
50402W        W21002   4.846  11.267   0.965
50403W        W21003  19.189   8.138   3.131
50404W        W21004  38.128  19.267  13.781
50405W        W21005   2.716  32.792   3.655
50406W        W21006  14.116  12.785  13.114
50407W        W21007   4.213  39.947   0.436
50408W        W21008  27.574  22.116   4.651
50409W        W21009  36.118   7.229   2.168
50410W        W21010  11.718  43.453   2.903
50411W        W21011  30.010  37.052   4.639
50412W        W21012  31.854  19.344   4.105
50413W        W21013  33.898  13.033   1.600
50414W        W21014   9.669   5.618   0.355
50415W        W21015  35.135   0.153  13.509
50416W        W21016  33.955  16.137  13.898
50417W        W21017  21.609  15.889  10.631
50418W        W21018   8.130  24.373  11.468
50419W        W21019  25.674  41.574  11.082
50420W        W21020  40.032  43.026   4.218
50421W        W21021  25.937  10.283  10.494
50422W        W21022  18.754  13.161   4.394
50423W        W21023   8.550  22.701  12.503
50424W        W21024  23.435  22.717  12.969
50425W        W21025  14.077   0.011   4.099
50426W        W21026  27.057  14.374  13.736
50427W        W21027  37.902  42.923   0.334
50428W        W21028  40.737  36.594  11.635
50429W        W21029  36.010   3.917   2.661
50430W        W21030   1.664  13.228  14.778
50431W        W21031  40.605   4.471  12.449
50432W        W21032  39.794  27.970  12.330
50433W        W21033   3.794  30.920   1.331
50434W        W21034  21.023   2.228  14.294
50435W        W21035  37.595   5.182   0.450
50436W        W21036   2.418  18.559  12.459
50437W        W21037   0.038  24.474   3.766
50438W        W21038  37.990   7.329  12.286
50439W        W21039  15.213  30.764  11.960
50440W        W21040  19.899  19.084   1.432
50441W        W21041   1.440  43.842  13.374
50442W        W21042   5.504  21.728  12.892
50443W        W21043  23.503  27.693  11.192
50444W        W21044  23.592  38.985  11.506
50445W        W21045  41.891  20.216  12.575
50446W        W21046  40.651  33.123   2.214
50447W        W21047  25.232  10.866  14.878
50448W        W21048  16.524  32.339  11.232
50449W        W21049   0.276  18.811  11.541
50450W        W21050  32.299  36.835  12.474
50451W        W21051  11.740  13.615  14.499
50452W        W21052   9.278  16.678   4.089
50453W        W21053   6.786  24.676   4.534
50454W        W21054  17.260   3.170   4.451
50455W        W21055   9.272  40.099   1.309
50456W        W21056  10.814  17.791   1.687
50457W        W21057   2.224   8.375   3.233
50458W        W21058  17.008  16.590   4.440
50459W        W21059  16.660  21.564  11.561
50460W        W21060  42.837   1.498   4.696
50461W        W21061  16.768  35.858  13.687
50462W        W21062  16.620  39.781   1.485
50463W        W21063  12.351   7.106  11.447
50464W        W21064   5.853   6.927   4.108
50465W        W21065  11.494  36.487   1.793
50466W        W21066  10.180  20.000  13.971
50467W        W21067   9.059  18.250   4.067
50468W        W21068   6.257   2.339  10.731
50469W        W21069   6.819   1.740  11.287
50470W        W21070  34.409  33.378   3.994
50471W        W21071  23.252  31.378  12.928
50472W        W21072   6.762   6.218  13.665
50473W        W21073   8.800  22.051   1.472
50474W        W21074   1.468  29.527  10.412
50475W        W21075  39.475  27.265   2.683
50476W        W21076  35.062  26.133  10.725
50477W        W21077  42.022   0.837  13.346
50478W        W21078  31.327  25.982   0.912
50479W        W21079  22.665  14.411  11.404
50480W        W21080  26.623  26.864  12.151
50481W        W21081  23.090   7.918   1.657
50482W        W21082   0.761  38.356   4.150
50483W        W21083  34.506   6.728  13.373
50484W        W21084  44.857  24.813   3.415
50485W        W21085   8.584  44.987  13.458
50486W        W21086  34.879  33.610   4.068
50487W        W21087  27.228  41.878  10.663
50488W        W21088  18.590  39.554   4.727
50489W        W21089  31.475  36.678  12.972
50490W        W21090  33.919  37.073   0.265
50491W        W21091  41.700  39.916   0.385
50492W        W21092  44.036   0.947   3.782
50493W        W21093  15.281  25.974  11.681
50494W        W21094   7.207  28.715   1.399
50495W        W21095  11.979   1.650   3.472
50496W        W21096   0.560  32.057   2.737
50497W        W21097  38.809  18.541  12.530
50498W        W21098   5.803  31.413   2.892
50499W        W21099  27.259  36.023  12.163
50500W        W21100  43.819  43.767  11.083
50501W        W21101  39.888  39.346   2.958
50502W        W21102  42.380  33.686   0.818
50503W        W21103  21.504  17.185  11.781
50504W        W21104  10.593  18.240   1.483
50505W        W21105  26.459  40.766   0.529
50506W        W21106  36.984  28.420  11.985
50507W        W21107  37.282  20.739   0.537
50508W        W21108  19.547  44.879   3.554
50509W        W21109   0.387  35.557   4.567
50510W        W21110  15.804   1.679  13.725
50511W        W21111  17.109  35.052   0.164
50512W        W21112   0.041  15.138  10.770
50513W        W21113   4.050  35.190   5.383
50514W        W21114  31.736  13.607   1.668
50515W        W21115  17.249   7.710   4.615
50516W        W21116  27.634  18.136  12.896
50517W        W21117  13.105  22.205   2.342
50518W        W21118  31.902  15.337   3.771
50519W        W21119  11.188  23.036   1.172
50520W        W21120  39.848  24.131   1.601
50521W        W21121  11.627   5.065   4.056
50522W        W21122   6.546  10.711   1.019
50523W        W21123  35.367  21.497   3.640
50524W        W21124  16.683  44.199   1.452
50525W        W21125   0.024  29.219  13.559
50526W        W21126  30.996   2.875  12.751
50527W        W21127  34.342   4.300  10.650
50528W        W21128  37.123  33.552   3.620
50529W        W21129  35.113  25.766  13.299
50530W        W21130  39.181  15.576   0.927
50531W        W21131  16.369  38.307   3.159
50532W        W21132  35.425  30.460   3.943
50533W        W21133  25.889  27.424   1.786
50534W        W21134  10.708  29.720   0.904
50535W        W21135  22.478  25.952   2.536
50536W        W21136  15.550  15.826   2.782
50537W        W21137  44.441  14.636  13.855
50538W        W21138  20.675  29.145   4.533
50539W        W21139  12.563  24.043  11.225
50540W        W21140  44.310   8.196  14.409
50541W        W21141  27.090  26.065   0.565
50542W        W21142  43.514   3.665  11.531
50543W        W21143   5.823  41.131   1.235
50544W        W21144  30.557  30.370  10.889
50545W        W21145  32.138  12.225   1.661
50546W        W21146  39.575  28.543  14.042
50547W        W21147  35.617  31.037   1.693
50548W        W21148  13.161  10.502  14.384
50549W        W21149   3.465   4.879  13.817
50550W        W21150  15.518  31.022  10.699
50551W        W21151  31.034  13.511  11.536
50552W        W21152  33.041  37.746   4.187
50553W        W21153  13.165   1.500   4.701
50554W        W21154  43.826  20.765  11.580
50555W        W21155   0.732  34.538  11.119
50556W        W21156  28.312  31.662  10.683
50557W        W21157  40.631  31.092   2.281
50558W        W21158  13.418  16.849   0.477
50559W        W21159  34.367  33.446  11.922
50560W        W21160  24.635   2.636   1.812
50561W        W21161  36.418  39.323  11.635
50562W        W21162  32.514   0.498  14.844
50563W        W21163  19.121  23.688  13.028
50564W        W21164  14.279   2.840   2.618
50565W        W21165  21.032  28.241  11.728
50566W        W21166  44.543  33.602  11.616
50567W        W21167  27.057  33.140  12.899
50568W        W21168   3.856  17.031  14.657
50569W        W21169  17.292  25.055  13.987
50570W        W21170  34.515  41.304   1.891
50571W        W21171   6.480  14.878  13.290
50572W        W21172  19.155   1.892   2.319
50573W        W21173  15.360  38.729   4.240
50574W        W21174  44.241  27.085  14.049
50575W        W21175   8.951  41.925   2.079
50576W        W21176  19.273   2.550   0.890
50577W        W21177  37.624  17.320   0.397
50578W        W21178  43.509  34.385  12.224
50579W        W21179  44.021  13.304   0.866
50580W        W21180   4.737  40.695   4.081
50581W        W21181   2.434  34.000   1.395
50582W        W21182  10.714  14.824   1.830
50583W        W21183  17.858  27.806  14.037
50584W        W21184  15.069  16.006   2.835
50585W        W21185  36.886   4.199  14.016
50586W        W21186   1.760  12.464   0.932
50587W        W21187   6.269  23.511   2.843
50588W        W21188  42.692  25.726   5.120
50589W        W21189   1.605  23.339  11.143
50590W        W21190   1.187  10.151  12.030
50591W        W21191  10.664  19.634  14.936
50592W        W21192  38.333  10.758   4.777
50593W        W21193  25.228  41.845  13.070
50594W        W21194  24.396   9.187   0.591
50595W        W21195  29.671  33.765  13.480
50596W        W21196  19.597  19.853  10.906
50597W        W21197  32.152  44.981  13.517
50598W        W21198  24.149  25.612   2.246
50599W        W21199   3.290   7.663  11.731
50600W        W21200  12.092   6.904   4.170
50601W        W21201  11.233  36.086  12.958
50602W        W21202  14.695  19.572  14.443
50603W        W21203   8.374   0.955  10.638
50604W        W21204  37.612  43.848   0.277
50605W        W21205  35.082  21.968  12.216
50606W        W21206  34.020  22.484   0.488
50607W        W21207  38.061  17.606  13.653
50608W        W21208  30.395  37.066   2.764
50609W        W21209  21.474  43.311  13.534
50610W        W21210   8.505  15.308  11.557
50611W        W21211   3.178   8.732  12.971
50612W        W21212   5.784  36.828  11.063
50613W        W21213  22.564  23.800   2.569
50614W        W21214  42.993  28.461  13.932
50615W        W21215  16.592  30.671   3.399
50616W        W21216  10.745  41.503   3.719
50617W        W21217  33.612  32.486  11.084
50618W        W21218   8.724   1.530   0.302
50619W        W21219  37.518  42.562   1.339
50620W        W21220   8.904  43.890  12.925
50621W        W21221  17.962  18.765  10.632
50622W        W21222   1.130  21.506  14.790
50623W        W21223  44.452   1.490   0.675
50624W        W21224  27.485   7.377   3.772
50625W        W21225  14.510  42.917  13.997
50626W        W21226  40.533   6.197   1.694
50627W        W21227   4.823  42.903   3.636
50628W        W21228   0.904  19.183  12.085
50629W        W21229  34.918  35.817  14.564
50630W        W21230  21.757  26.097  10.951
50631W        W21231   6.096  23.152  12.440
50632W        W21232  22.604   8.396  11.562
50633W        W21233  42.941  11.677  10.808
50634W        W21234  41.306  17.066   1.199
50635W        W21235  34.519  21.744   3.204
50636W        W21236  21.594  33.448   2.220
50637W        W21237  43.517  12.396  12.080
50638W        W21238  32.536  41.774   2.084
50639W        W21239  16.513  20.189  14.458
50640W        W21240  37.138  17.836  12.059
50641W        W21241  41.426  14.508  11.595
50642W        W21242   5.303  40.340  13.863
50643W        W21243  16.252  36.091  10.632
50644W        W21244  33.091  28.409   3.711
50645W        W21245  27.921  36.718  14.479
50646W        W21246  31.122   7.222   1.300
50647W        W21247  31.337   2.449  11.903
50648W        W21248  26.346  30.696   4.266
50649W        W21249  13.648  37.376  13.920
50650W        W21250  13.535  33.886   3.274
50651W        W21251   7.992  24.697   3.192
50652W        W21252  39.481  12.577  12.925
50653W        W21253  31.841   7.672   5.022
50654W        W21254  25.642  19.539  14.129
50655W        W21255  20.053   5.419  11.280
50656W        W21256   9.188  17.966   4.463
50657W        W21257  44.713  12.409  14.845
50658W        W21258  43.012  28.525   3.163
50659W        W21259  29.137   0.494  10.849
50660W        W21260  26.861  32.594  13.571
50661W        W21261  36.869  29.526   1.207
50662W        W21262   5.605  32.343  12.026
50663W        W21263  12.025   2.261   5.071
50664W        W21264  32.421  25.188  13.850
50665W        W21265  16.144  14.869   2.374
50666W        W21266  28.889  33.042   0.241
50667W        W21267   5.748  33.289  12.114
50668W        W21268  27.238  15.574  10.370
50669W        W21269  38.398  36.116  11.120
50670W        W21270  26.179   6.986   2.858
50671W        W21271  35.573  39.555   1.851
50672W        W21272  29.267  28.454  14.507
50673W        W21273   1.542  42.362   3.348
50674W        W21274   2.410  19.433   2.007
50675W        W21275   5.912  23.905  11.230
50676W        W21276  12.960   7.985  12.347
50677W        W21277   3.807  27.706  12.864
50678W        W21278  21.492  40.466  12.037
50679W        W21279  26.630  21.531  13.554
50680W        W21280  11.582  32.966  14.839
50681W        W21281  15.248  33.505  12.020
50682W        W21282  19.611   4.875   4.544
50683W        W21283  15.876  29.696  12.180
50684W        W21284   8.242   5.252  14.071
50685W        W21285  36.317  25.909   3.298
50686W        W21286  21.932   6.948  11.172
50687W        W21287  14.812  14.817   3.701
50688W        W21288   3.142  19.041   4.263
50689W        W21289  40.971   8.301   4.707
50690W        W21290  36.465  13.584  13.266
50691W        W21291  39.085  39.593   1.384
50692W        W21292   6.210  37.550   3.716
50693W        W21293   2.196   0.140   1.343
50694W        W21294  32.837  11.825  13.498
50695W        W21295  22.648  39.235  13.230
50696W        W21296  38.825  10.139   3.227
50697W        W21297  16.999  38.308   3.938
50698W        W21298  29.885  36.980   2.764
50699W        W21299  41.947  33.155  12.613
50700W        W21300  42.471  28.446   4.628
50701W        W21301  37.372   0.332  13.332
50702W        W21302  25.676  27.189  14.164
50703W        W21303  26.439  41.282  14.771
50704W        W21304  14.716   3.613   4.746
50705W        W21305  33.882  13.761  12.443
50706W        W21306  32.022   1.811   1.374
50707W        W21307  31.241  23.106  10.869
50708W        W21308  32.003  42.055  14.455
50709W        W21309  21.146  15.040   4.406
50710W        W21310  13.273   2.651  12.986
50711W        W21311   3.190  43.813  10.827
50712W        W21312  15.304  40.611   0.756
50713W        W21313  37.835  38.856   3.299
50714W        W21314  17.010  33.679  13.218
50715W        W21315  24.246  33.106   4.534
50716W        W21316  14.978   4.361  10.594
50717W        W21317  33.939  41.437   2.646
50718W        W21318  24.593  40.474   2.366
50719W        W21319  41.992  20.802  13.819
50720W        W21320  14.471   8.118   0.668
50721W        W21321   6.863  15.115   2.193
50722W        W21322  44.834  38.007  10.445
50723W        W21323  29.998   2.233   4.728
50724W        W21324  30.454  21.592  11.796
50725W        W21325  10.143  29.049   3.349
50726W        W21326  34.323   9.558   2.338
50727W        W21327  32.072  30.064   2.133
50728W        W21328  30.485  33.682  14.923
50729W        W21329  11.077  39.013  14.877
50730W        W21330  10.654  19.442  12.296
50731W        W21331  17.804  16.524  13.535
50732W        W21332  41.766   9.544  11.122
50733W        W21333  28.384  37.895  11.530
50734W        W21334  26.160   0.277  14.532
50735W        W21335  39.134  26.914  11.209
50736W        W21336  42.992  34.779  11.149
50737W        W21337  18.513  27.553  11.201
50738W        W21338  40.353   6.378  14.823
50739W        W21339  12.364  20.428  13.993
50740W        W21340   3.345   2.852   2.944
50741W        W21341  24.182  20.981  14.839
50742W        W21342  39.936  43.412   2.982
50743W        W21343   3.734   2.748   2.652
50744W        W21344  25.621  19.478   0.480
50745W        W21345   4.329  29.610   2.920
50746W        W21346  40.021   8.313   4.620
50747W        W21347  41.968   9.278   1.246
50748W        W21348  31.051  11.368   3.188
50749W        W21349  17.783  41.965   4.069
50750W        W21350  24.689   7.901  14.140
50751W        W21351  23.545  40.152  14.380
50752W        W21352   7.239  24.454   2.556
50753W        W21353  25.738   5.630   1.671
50754W        W21354  23.951  35.881  13.364
50755W        W21355   9.611   6.276  13.305
50756W        W21356  42.783  44.292  10.804
50757W        W21357   2.679  37.007   1.155
50758W        W21358  10.176  43.835  10.906
50759W        W21359  40.754   8.676  12.596
50760W        W21360  19.862  32.499  12.851
50761W        W21361  42.202  38.392   3.746
50762W        W21362   2.920   6.404  11.761
50763W        W21363   4.797   1.301  13.839
50764W        W21364  22.073   8.581  13.006
50765W        W21365  26.085   5.897   0.296
50766W        W21366  16.364  43.961   0.028
50767W        W21367   0.206  17.348   2.835
50768W        W21368  39.696  31.118  12.571
50769W        W21369   5.135  19.063  11.973
50770W        W21370  14.468  16.068  13.954
50771W        W21371   1.506  21.651  10.612
50772W        W21372  21.458  37.657   0.473
50773W        W21373  23.044  18.530   4.029
50774W        W21374  37.463  24.749  14.782
50775W        W21375  33.423  41.447  14.410
50776W        W21376  36.564  27.947   3.811
50777W        W21377  38.368  26.013   1.117
50778W        W21378  23.437  14.366   3.536
50779W        W21379  18.719  33.004   0.210
50780W        W21380   6.738  10.656  12.892
50781W        W21381  36.901  16.546   0.298
50782W        W21382  21.230  40.460  11.590
50783W        W21383  44.398  19.334  12.377
50784W        W21384  11.070   9.327   3.199
50785W        W21385  35.487  36.650   1.671
50786W        W21386   2.786  29.785  12.521
50787W        W21387   4.802  42.912   4.152
50788W        W21388  19.608  40.103   3.787
50789W        W21389  21.071  44.843   2.580
50790W        W21390  15.324  12.024   9.733
50791W        W21391  25.658  40.531  11.118
50792W        W21392  34.339  12.539  12.003
50793W        W21393  32.846  23.527   1.183
50794W        W21394  35.482  36.902   3.382
50795W        W21395  18.753   7.395   3.656
50796W        W21396  35.150  12.144   1.769
50797W        W21397  44.353  11.752   4.477
50798W        W21398  31.411  24.438  14.751
50799W        W21399  14.753   2.046  11.948
50800W        W21400   4.041   7.445   1.197
50801W        W21401  21.668  35.899   2.819
50802W        W21402  42.857  20.500  12.370
50803W        W21403  13.490  16.335  14.272
50804W        W21404  27.477  21.168   0.520
50805W        W21405  17.235   2.244  12.506
50806W        W21406  41.460  16.912  11.202
50807W        W21407  19.001   8.712   1.405
50808W        W21408   5.936  23.192   3.207
50809W        W21409  39.913  12.942  12.422
50810W        W21410  43.625   8.640   4.994
50811W        W21411  20.755  44.379  12.000
50812W        W21412  36.891  42.693  14.439
50813W        W21413  22.339  28.059  13.483
50814W        W21414  10.328  38.991   3.274
50815W        W21415   0.270  18.709   1.938
50816W        W21416  37.348  20.272  12.802
50817W        W21417  16.301  39.895  14.410
50818W        W21418  14.890  22.811   1.365
50819W        W21419   3.375  10.002   3.375
50820W        W21420  25.136  43.365   4.634
50821W        W21421  39.717  18.560  13.812
50822W        W21422  31.535  18.121   3.813
50823W        W21423  30.981  17.092  13.561
50824W        W21424  35.954  30.016   1.391
50825W        W21425  36.192  14.201  12.564
50826W        W21426   6.002  42.936   3.638
50827W        W21427  14.770  12.169   3.659
50828W        W21428  11.538  10.625   1.634
50829W        W21429  11.641  43.282  13.838
50830W        W21430  29.826  19.094   0.452
50831W        W21431  31.291   1.475  11.138
50832W        W21432   1.890  38.018   3.218
50833W        W21433  24.266  14.906  10.767
50834W        W21434   6.624  13.040  14.733
50835W        W21435  27.264   0.826   2.845
50836W        W21436  40.434  32.094  12.161
50837W        W21437  29.104  16.433   1.245
50838W        W21438  40.889   2.811  10.270
50839W        W21439   2.853   3.254   1.130
50840W        W21440  32.809  11.303  12.243
50841W        W21441   5.506   0.888   4.527
50842W        W21442   8.002  44.032   3.683
50843W        W21443  18.038  15.083  12.495
50844W        W21444  21.741  37.586   0.004
50845W        W21445  44.054  36.355   1.387
50846W        W21446  27.899   6.720   4.396
50847W        W21447  13.380  26.566  13.988
50848W        W21448  30.572  22.295   2.844
50849W        W21449  35.569  38.385  14.508
50850W        W21450  35.809  10.497   0.634
50851W        W21451   7.686  38.615  13.569
50852W        W21452   7.627   4.897  11.598
50853W        W21453  15.673  19.300   2.366
50854W        W21454   0.843  34.350   2.312
50855W        W21455  42.837  30.845  14.926
50856W        W21456  23.222  19.271   4.540
50857W        W21457   7.228  39.467  14.846
50858W        W21458  42.767  17.791   0.383
50859W        W21459  34.848  26.537  14.784
50860W        W21460  28.543  11.927  14.749
50861W        W21461  45.000  17.582   3.251
50862W        W21462   9.687  39.332   1.570
50863W        W21463  14.694   7.224  12.269
50864W        W21464   5.773  12.980  13.289
50865W        W21465  38.099  22.456   4.918
50866W        W21466  33.410  21.649  10.418
50867W        W21467   4.194  36.628  10.456
50868W        W21468  16.158  41.399  11.088
50869W        W21469   8.749   9.182   0.460
50870W        W21470   0.238  16.469  14.915
50871W        W21471  28.615  13.121   1.295
50872W        W21472  15.764  44.314   4.498
50873W        W21473  24.246  32.676  11.959
50874W        W21474  11.517   9.624  10.714
50875W        W21475   4.488  12.686  11.402
50876W        W21476  16.134   3.153  10.342
50877W        W21477   2.859  42.823   2.978
50878W        W21478  34.455   4.921   0.951
50879W        W21479  29.668  37.443  13.914
50880W        W21480   0.387  31.038   4.114
50881W        W21481  29.008  34.558   2.770
50882W        W21482  26.379  17.079   2.436
50883W        W21483   9.373  12.315  10.337
50884W        W21484  33.357  20.492   4.189
50885W        W21485  37.137  31.653  14.866
50886W        W21486  21.521  31.519   0.314
50887W        W21487  40.112  18.253   0.052
50888W        W21488   1.749  13.627   2.759
50889W        W21489  33.447  16.968  12.397
50890W        W21490  20.071  29.471   2.276
50891W        W21491  27.960  33.125   1.356
50892W        W21492  24.578  35.966  14.440
50893W        W21493   1.431  12.684  12.031
50894W        W21494  43.995  39.309  10.697
50895W        W21495  32.454  19.132   3.526
50896W        W21496  42.510   2.615   0.175
50897W        W21497  19.848   8.045   5.005
50898W        W21498   3.733  42.718  12.659
50899W        W21499  34.742  38.382   1.753
50900W        W21500  39.819  33.277  12.385
50901W        W21501   4.059   6.897   2.440
50902W        W21502  36.908  41.834   2.256
50903W        W21503   7.405  10.729   4.211
50904W        W21504  30.883   3.772   3.233
50905W        W21505   1.420  33.346  13.381
50906W        W21506  11.494   5.389   1.902
50907W        W21507  38.251   6.812  13.370
50908W        W21508  42.307   0.189  10.997
50909W        W21509  41.603  15.576   4.104
50910W        W21510  22.218  15.156  12.022
50911W        W21511  20.106  30.129  13.582
50912W        W21512  29.643   2.773  10.954
50913W        W21513  22.657  11.064  14.316
50914W        W21514   0.357  41.974   4.014
50915W        W21515   4.769   6.385   3.625
50916W        W21516  37.847  29.264   4.521
50917W        W21517   5.738  12.877  11.997
50918W        W21518  42.355   1.548  11.640
50919W        W21519  17.336  10.111  10.025
50920W        W21520   1.636  19.746   3.732
50921W        W21521  10.656   8.355   1.444
50922W        W21522  18.572   6.121   4.663
50923W        W21523  43.041  22.917  11.121
50924W        W21524   4.262  32.445  14.918
50925W        W21525  34.456  42.472  14.630
50926W        W21526  24.126  36.831  14.084
50927W        W21527  40.105  36.203  13.769
50928W        W21528  28.495  11.818  13.518
50929W        W21529  27.994   2.504  12.082
50930W        W21530  15.878  41.158   3.382
50931W        W21531  23.417  30.555  14.887
50932W        W21532   8.730  28.863  10.929
50933W        W21533  24.907  26.584  12.575
50934W        W21534  21.669  20.598   1.649
50935W        W21535  44.405  29.706   0.315
50936W        W21536  19.399  13.162  12.929
50937W        W21537  34.321  38.347  11.902
50938W        W21538  41.331  34.842   2.800
50939W        W21539  20.743   4.320   4.378
50940W        W21540  17.553  16.181   3.666
50941W        W21541  21.646  42.445  11.459
50942W        W21542  28.180  30.592   3.890
50943W        W21543  43.960  23.565   4.191
50944W        W21544  42.826  43.550  14.685
50945W        W21545  11.727   5.280   2.811
50946W        W21546  12.441   2.162   1.856
50947W        W21547   2.446  38.621  11.092
50948W        W21548  26.018  24.779  12.275
50949W        W21549   0.011   4.978  11.264
50950W        W21550  33.690  16.011   4.154
50951W        W21551  12.640  28.759   1.922
50952W        W21552   8.827  36.294   1.365
50953W        W21553  39.131  36.473   0.991
50954W        W21554  10.662  23.526   2.393
50955W        W21555   2.339  34.592  11.973
50956W        W21556   7.351  29.374  10.882
50957W        W21557  38.254  43.884  14.198
50958W        W21558   3.696  25.496  14.427
50959W        W21559  12.957   3.321   3.786
50960W        W21560   5.336  15.588  12.496
50961W        W21561  34.555  29.486  13.556
50962W        W21562  24.325  13.249  11.780
50963W        W21563  36.439  31.009  12.589
50964W        W21564  23.711  36.333  13.353
50965W        W21565  21.498  21.020  11.172
50966W        W21566  36.862  35.545  11.164
50967W        W21567  21.601  26.610  13.431
50968W        W21568  12.069  33.956  11.281
50969W        W21569  37.872  35.899   9.868
50970W        W21570   0.369   3.818  11.915
50971W        W21571   1.775  35.931   2.353
50972W        W21572  44.043  17.177   4.742
50973W        W21573  31.443  17.880   1.685
50974W        W21574  11.810  41.357  14.965
50975W        W21575  24.240   8.949   0.141
50976W        W21576  14.715  37.314   2.744
50977W        W21577  17.624  43.667   3.655
50978W        W21578  32.034  42.059  13.045
50979W        W21579   0.004  23.561   1.657
50980W        W21580  37.836  18.557  13.926
50981W        W21581  19.906  41.061  14.303
50982W        W21582  34.676  25.794   3.955
50983W        W21583  29.585   2.649  13.030
50984W        W21584  19.294  19.981  14.898
50985W        W21585  24.374   8.693  10.761
50986W        W21586  33.581  15.010   4.518
50987W        W21587   9.086  22.425   2.847
50988W        W21588  28.515  12.436  14.712
50989W        W21589  23.711  32.344   4.185
50990W        W21590  42.409   4.451  11.672
50991W        W21591   4.805   4.463   2.275
50992W        W21592  44.318   1.028  13.886
50993W        W21593  13.796  30.224  12.768
50994W        W21594  30.929  32.027   2.765
50995W        W21595  16.387   6.737  10.610
50996W        W21596   6.807  16.138  14.008
50997W        W21597  27.205  12.673   1.837
50998W        W21598   3.816  17.842   1.960
50999W        W21599  27.207  41.192   2.805
51000W        W21600  28.567  32.839   0.743
51001W        W21601  40.037  17.910   2.353
51002W        W21602  43.262  18.113  11.517
51003W        W21603  38.145  22.911  14.908
51004W        W21604  24.615  27.054   3.982
51005W        W21605  29.214  10.814  13.054
51006W        W21606  18.459   2.396  12.717
51007W        W21607  11.350   4.902   2.172
51008W        W21608   6.522  26.549  13.370
51009W        W21609  32.350  34.439   2.724
51010W        W21610  33.034  43.535   1.551
51011W        W21611  14.081  21.302  11.928
51012W        W21612  42.019  24.643   2.768
51013W        W21613   9.745  10.613   2.817
51014W        W21614  28.640  44.196   0.271
51015W        W21615  30.569  12.211  14.244
51016W        W21616  22.587   6.670   5.206
51017W        W21617  21.998  44.758  14.475
51018W        W21618   0.966  29.434  14.770
51019W        W21619   7.110  19.944   0.669
51020W        W21620  16.543   3.365   2.304
51021W        W21621  36.861  32.569  12.940
51022W        W21622  37.924  38.926   3.839
51023W        W21623  29.796  14.907  13.983
51024W        W21624  30.757  10.135   0.768
51025W        W21625  38.261  28.962   4.288
51026W        W21626  10.789  18.291   4.540
51027W        W21627  42.789  27.146  11.530
51028W        W21628  37.186  44.468  11.158
51029W        W21629   2.647  40.638  10.814
51030W        W21630  35.120   7.170   1.345
51031W        W21631  12.429  27.066   1.937
51032W        W21632   7.847  13.720   1.718
51033W        W21633  39.086  29.055   4.743
51034W        W21634  18.167  16.220  12.920
51035W        W21635  43.330  17.575   4.622
51036W        W21636   9.780   2.884  13.674
51037W        W21637  44.006  36.370  12.860
51038W        W21638  19.255  28.276  12.487
51039W        W21639   5.293   7.881  11.549
51040W        W21640  31.676  32.890  13.467
51041W        W21641  22.059  28.438   0.320
51042W        W21642   3.326  26.869  14.247
51043W        W21643  12.708  31.560   5.173
51044W        W21644  40.016  35.432  14.940
51045W        W21645  11.669   6.672  13.561
51046W        W21646  10.396  26.706   0.791
51047W        W21647  15.650  20.778  14.463
51048W        W21648   9.700   7.698  14.488
51049W        W21649  36.436   9.758   3.254
51050W        W21650  35.623  24.482  12.929
51051W        W21651  18.699  17.276  10.717
51052W        W21652   0.969  26.933   2.423
51053W        W21653  33.365  32.219   3.611
51054W        W21654  36.258  34.176  11.462
51055W        W21655   9.511  42.965   4.634
51056W        W21656  29.643   4.226  10.654
51057W        W21657  21.351  24.543   1.717
51058W        W21658  20.276  14.739   1.151
51059W        W21659  29.212   2.297  13.063
51060W        W21660  32.924  14.323  10.998
51061W        W21661  41.092   6.866   3.744
51062W        W21662   9.708  11.147   3.967
51063W        W21663  17.314  35.717  12.109
51064W        W21664  27.987  44.455   4.211
51065W        W21665  40.703   2.243  11.157
51066W        W21666  38.496  30.557  14.873
51067W        W21667  18.338  21.335  13.488
51068W        W21668  26.502  19.397   4.726
51069W        W21669  27.390  14.664  13.442
51070W        W21670  23.653  44.891  10.104
51071W        W21671  11.224  24.931   2.390
51072W        W21672   6.283  32.091   4.573
51073W        W21673  21.040  27.144   2.309
51074W        W21674  19.380   2.751  12.429
51075W        W21675  40.895  44.810   0.485
51076W        W21676   3.696  34.804   5.454
51077W        W21677  32.680  19.333   4.400
51078W        W21678  27.605   9.693  11.804
51079W        W21679  22.579  24.136   3.399
51080W        W21680  28.113  19.193   0.979
51081W        W21681  37.532  14.662  11.464
51082W        W21682  44.114  40.800  12.048
51083W        W21683  18.501  19.100   1.800
51084W        W21684  29.522  38.616  11.443
51085W        W21685  22.710   4.631  13.454
51086W        W21686   7.061  28.912   1.886
51087W        W21687  28.894  39.551   1.499
51088W        W21688  26.264   0.418   4.925
51089W        W21689  43.039  11.417   1.778
51090W        W21690   1.497  29.695   4.769
51091W        W21691  28.452  11.430   0.860
51092W        W21692  21.110  30.974  11.155
51093W        W21693  20.216  29.553   1.407
51094W        W21694  24.003  43.377  10.645
51095W        W21695  42.038  42.752  11.088
51096W        W21696   5.867  30.201  11.049
51097W        W21697  14.869  40.294   2.774
51098W        W21698  12.065  18.165  11.225
51099W        W21699  34.788  17.551  14.299
51100W        W21700  17.043   0.000  14.830
51101W        W21701   0.965  36.345  11.322
51102W        W21702  18.451   7.245   1.828
51103W        W21703  12.435  38.041  14.450
51104W        W21704  25.740   2.412  12.901
51105W        W21705  20.547  30.072  14.759
51106W        W21706  41.422   4.329   2.238
51107W        W21707  33.098  35.427  12.608
51108W        W21708  24.546  29.110   4.186
51109W        W21709  37.619  43.557  12.813
51110W        W21710  43.830  12.395  11.514
51111W        W21711  13.100  39.437  11.728
51112W        W21712  27.378  18.879   4.400
51113W        W21713  40.858   5.935   0.580
51114W        W21714   5.637  43.564  11.995
51115W        W21715   2.509  21.983  13.425
51116W        W21716  18.878   3.826   2.142
51117W        W21717  14.040  42.858  14.220
51118W        W21718  39.193  21.247   4.050
51119W        W21719  36.385  23.225  12.852
51120W        W21720   1.947  11.083  11.558
51121W        W21721   8.741   2.910  11.392
51122W        W21722  22.661  36.865  11.597
51123W        W21723  37.762  20.193  11.587
51124W        W21724  14.622  24.197   4.617
51125W        W21725  36.420  43.306  13.855
51126W        W21726   6.378  13.730   3.135
51127W        W21727  30.002  44.226   1.257
51128W        W21728  33.066  34.623   0.482
51129W        W21729  41.511  26.113   3.082
51130W        W21730  35.453  21.293  14.493
51131W        W21731  24.802  16.560   1.356
51132W        W21732  11.825  19.841  13.433
51133W        W21733  19.719  30.928  13.209
51134W        W21734   9.601  34.020   0.238
51135W        W21735  28.598  33.666   2.875
51136W        W21736  23.202  32.341   4.131
51137W        W21737  21.458   4.377  11.821
51138W        W21738  16.115  26.063  14.011
51139W        W21739   4.446  40.965  10.947
51140W        W21740  10.780   2.809   4.609
51141W        W21741  22.767   8.474   3.432
51142W        W21742  44.666  22.581   3.432
51143W        W21743  32.003  20.048  11.222
51144W        W21744  31.083   3.310   4.551
51145W        W21745  25.599   8.764  14.219
51146W        W21746   7.452  21.072  12.016
51147W        W21747  34.440  34.961  12.221
51148W        W21748  11.122  15.070   3.713
51149W        W21749  26.570  35.021   3.680
51150W        W21750  42.484  30.416  12.290
51151W        W21751   9.264  22.590   4.593
51152W        W21752   3.509  19.116   3.336
51153W        W21753  26.721  26.357   4.637
51154W        W21754  44.742  22.575   2.000
51155W        W21755  24.806  20.566   1.205
51156W        W21756   0.581   2.005   2.240
51157W        W21757  44.565  10.458  12.909
51158W        W21758  19.234  32.121   3.385
51159W        W21759  38.590  22.144   2.903
51160W        W21760  22.056  23.488  12.821
51161W        W21761  36.058  14.714   4.287
51162W        W21762  32.108  28.592  10.771
51163W        W21763   9.759  33.419   2.059
51164W        W21764   2.368  41.186   1.194
51165W        W21765   2.301  26.531  12.417
51166W        W21766   0.529  14.715   1.827
51167W        W21767  26.261  11.101  12.355
51168W        W21768  18.722  19.025   3.130
51169W        W21769  37.332   3.670   2.721
51170W        W21770  37.223  37.071  12.227
51171W        W21771   2.719  33.843   3.595
51172W        W21772  29.522   0.399   1.950
51173W        W21773  18.305  18.791  14.115
51174W        W21774  21.168  34.094   1.630
51175W        W21775   6.302  17.492   1.382
51176W        W21776   8.890  31.953   2.903
51177W        W21777  21.781   5.348  10.928
51178W        W21778  16.640   4.701  13.002
51179W        W21779   7.162  27.252   1.213
51180W        W21780  27.118  39.733  14.097
51181W        W21781  19.852  38.082   1.289
51182W        W21782  32.051  31.358  13.903
51183W        W21783   3.526  34.431  10.601
51184W        W21784  13.161  16.190   2.169
51185W        W21785  30.265  13.881   1.357
51186W        W21786  39.757   4.876  11.445
51187W        W21787  44.837  39.698  11.789
51188W        W21788  11.899   3.614   0.750
51189W        W21789  37.526  31.684   4.778
51190W        W21790  44.543   4.979  14.939
51191W        W21791   0.759  44.787  11.153
51192W        W21792  41.461   6.907   4.219
51193W        W21793  32.732  27.472  13.969
51194W        W21794  38.804  42.925   2.406
51195W        W21795  38.137  38.180  11.032
51196W        W21796  43.492  43.961   4.056
51197W        W21797   5.260   4.202   2.356
51198W        W21798  32.641   9.805   3.678
51199W        W21799  42.576   9.654  14.316
51200W        W21800  39.255  41.588   4.288
51201W        W21801  22.191   7.210   3.261
51202W        W21802  24.144  29.215   2.352
51203W        W21803  32.417   2.340   2.119
51204W        W21804  21.435  21.643  12.357
51205W        W21805   2.897  36.494   4.726
51206W        W21806   4.238  35.574   4.077
51207W        W21807   1.355  34.645  14.315
51208W        W21808  20.952  16.062   4.033
51209W        W21809  25.113  24.528  12.433
51210W        W21810  28.035   7.809   1.678
51211W        W21811  24.031  11.981  12.685
51212W        W21812   6.702  12.848   2.780
51213W        W21813  28.767  40.260   1.779
51214W        W21814  10.687  37.189   4.983
51215W        W21815  35.415  31.146   0.218
51216W        W21816  39.123   1.701  11.381
51217W        W21817  30.653   0.760   0.779
51218W        W21818  10.874  21.710   3.690
51219W        W21819   2.210  39.969  13.473
51220W        W21820  14.906  26.580  14.075
51221W        W21821  13.437  10.737   1.825
51222W        W21822  15.632  15.086   0.882
51223W        W21823   8.833   9.067  12.647
51224W        W21824  40.413  37.590  12.835
51225W        W21825  42.949  35.274   4.148
51226W        W21826   1.344  11.622   2.673
51227W        W21827  36.420  39.536   2.733
51228W        W21828  18.344   2.420   3.246
51229W        W21829  27.653  19.893  10.730
51230W        W21830  32.333  14.423  10.312
51231W        W21831  25.463  43.440   0.902
51232W        W21832  41.120  20.331   3.750
51233W        W21833  14.528  27.478   4.175
51234W        W21834  33.548   6.097   4.477
51235W        W21835  40.507  23.086   4.207
51236W        W21836  36.347  42.912   4.060
51237W        W21837  23.582  40.589   0.325
51238W        W21838  12.293  17.056  14.772
51239W        W21839  24.674  17.226   0.629
51240W        W21840  22.628  32.456   2.130
51241W        W21841  13.121  25.602  11.237
51242W        W21842  19.567  34.608  13.797
51243W        W21843  12.427  17.156  13.941
51244W        W21844  30.878  18.611   3.906
51245W        W21845   9.691   4.292   0.815
51246W        W21846   0.441  29.855  10.638
51247W        W21847   1.177  11.642   2.155
51248W        W21848  28.013  10.332   3.678
51249W        W21849   2.996  35.289   1.600
51250W        W21850  43.365  16.683  10.289
51251W        W21851  22.465  24.614   3.248
51252W        W21852   2.923   7.286  11.176
51253W        W21853  17.971  43.203  14.944
51254W        W21854  10.969  13.639  11.042
51255W        W21855  43.398  40.099  14.620
51256W        W21856  44.788   6.174   2.666
51257W        W21857  39.838  11.891   2.942
51258W        W21858  17.997  38.491   3.283
51259W        W21859  36.378  44.886  11.806
51260W        W21860  20.599  41.031  11.210
51261W        W21861  28.656  20.597   2.956
51262W        W21862  29.039  13.251   3.742
51263W        W21863  39.879  20.826   2.195
51264W        W21864  21.746  23.170  11.385
51265W        W21865  42.371  40.412   1.170
51266W        W21866  19.950   4.871  12.599
51267W        W21867  33.120   7.978  11.722
51268W        W21868  29.993   7.906   4.811
51269W        W21869  29.485  32.941   2.464
51270W        W21870  36.879  10.802   2.177
51271W        W21871  25.000  21.861   4.675
51272W        W21872  14.143  37.380  11.980
51273W        W21873  16.040  19.450   3.594
51274W        W21874  33.484  27.491   3.783
51275W        W21875  12.097  43.745   2.656
51276W        W21876  26.510  28.882   0.810
51277W        W21877  10.335  24.749   1.784
51278W        W21878   6.296  24.800  12.080
51279W        W21879  14.883   0.289  13.416
51280W        W21880  18.238  43.328   1.502
51281W        W21881  30.527  27.541  13.930
51282W        W21882   9.841  21.122   4.161
51283W        W21883   4.079  44.363   4.586
51284W        W21884  28.421  40.612   1.893
51285W        W21885  13.316  14.134   2.948
51286W        W21886  40.378  24.379   4.959
51287W        W21887  20.700   3.241   3.668
51288W        W21888   7.783  34.883   1.744
51289W        W21889  18.112  24.588   4.105
51290W        W21890   0.225   2.722   2.686
51291W        W21891  17.990  31.056   1.897
51292W        W21892  40.022  41.889  10.797
51293W        W21893  38.138  13.158   2.345
51294W        W21894   4.232  37.660   4.570
51295W        W21895   9.366  27.881   0.829
51296W        W21896   0.584  15.111  12.495
51297W        W21897  18.198  14.652  11.176
51298W        W21898  30.087  24.920   2.730
51299W        W21899  41.039   2.851  13.373
51300W        W21900  40.184  23.691  10.733
51301W        W21901  41.042   2.319   2.298
51302W        W21902  20.739  32.421  12.551
51303W        W21903   2.186  37.858  10.841
51304W        W21904   8.776  19.694  12.602
51305W        W21905  37.904  36.517  13.132
51306W        W21906  25.132  39.589   1.631
51307W        W21907  15.105   9.601  11.582
51308W        W21908  20.647  42.087  12.323
51309W        W21909  30.896  19.158  12.359
51310W        W21910  10.961  28.148  10.387
51311W        W21911  43.830   6.909  13.137
51312W        W21912  36.937   0.464   1.428
51313W        W21913  18.156  32.615   0.359
51314W        W21914  38.881   6.391  10.608
51315W        W21915  17.262   1.567  11.100
51316W        W21916  30.662  15.236  13.966
51317W        W21917  26.485  23.570  14.345
51318W        W21918  44.260  43.902  12.455
51319W        W21919  44.930  22.210  11.565
51320W        W21920  19.532  38.368   3.366
51321W        W21921  30.648   6.632   1.757
51322W        W21922  27.959  29.278   3.883
51323W        W21923  11.313   7.884  11.398
51324W        W21924  28.538  10.916   4.421
51325W        W21925  36.878   7.827   2.358
51326W        W21926   3.159  10.238   4.321
51327W        W21927  18.573  30.693   3.350
51328W        W21928  38.879  21.441  13.870
51329W        W21929  22.038  38.362  11.740
51330W        W21930  44.403  16.853   4.509
51331W        W21931  28.505  27.195   4.573
51332W        W21932  23.534  37.565  12.971
51333W        W21933  10.642  26.036   1.737
51334W        W21934  34.195  43.602   0.437
51335W        W21935  20.559  15.584   1.675
51336W        W21936  19.554  14.246   3.810
51337W        W21937  35.373  23.789   3.611
51338W        W21938  24.259  24.053   3.100
51339W        W21939   4.741  37.507  12.929
51340W        W21940  11.488  14.116   3.518
51341W        W21941  43.911  36.592   0.257
51342W        W21942  15.021  20.602   2.569
51343W        W21943  43.111  13.755  14.400
51344W        W21944   9.662  28.190  13.507
51345W        W21945  30.862  28.284  11.809
51346W        W21946  13.249  11.810   3.911
51347W        W21947  36.528   9.848  11.191
51348W        W21948   3.246  42.824   2.313
51349W        W21949  42.395  26.949  13.931
51350W        W21950  41.989  33.308  13.089
51351W        W21951  21.112  25.293  13.930
51352W        W21952   3.336   7.102  11.485
51353W        W21953  38.603  11.824  14.901
51354W        W21954   6.868   7.587   0.339
51355W        W21955  25.046   0.654  14.572
51356W        W21956  31.183   8.430   3.349
51357W        W21957  30.639  32.721   3.751
51358W        W21958  17.414  12.434   2.268
51359W        W21959  25.771  41.535   9.759
51360W        W21960  31.685  20.518  11.651
51361W        W21961  26.119   1.446   2.871
51362W        W21962  13.676  26.034   1.145
51363W        W21963  12.139  16.245   0.341
51364W        W21964  12.292  27.067   0.274
51365W        W21965  27.933   6.786  12.883
51366W        W21966  24.099  42.697  14.604
51367W        W21967  33.891  43.718   2.775
51368W        W21968  15.427  28.636  13.963
51369W        W21969  14.200   8.856  14.475
51370W        W21970  11.917  38.831  12.115
51371W        W21971   5.041  43.493  10.629
51372W        W21972  14.687  22.801   0.900
51373W        W21973  35.065   1.301  13.957
51374W        W21974  41.487  10.720   3.413
51375W        W21975  23.561   3.385  13.527
51376W        W21976  19.824  32.336   0.887
51377W        W21977   0.553  19.551  11.065
51378W        W21978  31.720  31.467  11.569
51379W        W21979  44.673  13.683   0.286
51380W        W21980  15.023   6.963   3.745
51381W        W21981  40.074  33.627  11.574
51382W        W21982  40.732   4.921   0.377
51383W        W21983   5.117  33.728  14.460
51384W        W21984  14.670  17.106  11.765
51385W        W21985  18.630  29.666   1.023
51386W        W21986  10.128  33.313   0.402
51387W        W21987  19.852  26.445   3.530
51388W        W21988  44.513   4.785   1.874
51389W        W21989   1.472   0.348   0.882
51390W        W21990  38.442  23.220   0.926
51391W        W21991  38.503  21.708   1.218
51392W        W21992  34.401   8.153  12.730
51393W        W21993   4.890  11.200  13.585
51394W        W21994  26.643  36.164  13.871
51395W        W21995  11.881  15.942  13.015
51396W        W21996  40.303  39.978   0.340
51397W        W21997   4.175  19.614   1.158
51398W        W21998  17.090  30.496   0.836
51399W        W21999  38.882  13.208   4.239
51400W        W22000  29.179  18.256   0.467
51401W        W22001   9.938  11.820  14.887
51402W        W22002  38.906  12.233  13.332
51403W        W22003   3.231  42.781  12.841
51404W        W22004  15.812  23.725   2.865
51405W        W22005  11.713  10.207  13.373
51406W        W22006   7.228   5.884   1.801
51407W        W22007  17.064  22.254  10.629
51408W        W22008  16.876   8.174   4.538
51409W        W22009   5.292  29.912  11.507
51410W        W22010   7.945  36.348  12.100
51411W        W22011  39.297  16.051  11.004
51412W        W22012  32.009  41.581  12.155
51413W        W22013  33.518   9.484   3.419
51414W        W22014  19.696   2.726   4.094
51415W        W22015  23.014  14.532   4.810
51416W        W22016   3.056   1.877  14.019
51417W        W22017  13.305  28.837  13.898
51418W        W22018   7.869  25.775   2.201
51419W        W22019  16.418  28.517  13.781
51420W        W22020   8.891   7.704   0.112
51421W        W22021  34.363  15.629  12.437
51422W        W22022  13.383   8.143  11.468
51423W        W22023  44.260  22.474  14.831
51424W        W22024  19.940  28.050   1.007
51425W        W22025  25.406  17.455  13.431
51426W        W22026  42.748  13.184   3.209
51427W        W22027  35.793  24.254   1.330
51428W        W22028   6.121  25.652   3.941
51429W        W22029   7.400  22.993   2.899
51430W        W22030   8.424   6.811  12.902
51431W        W22031  13.080  37.600   0.894
51432W        W22032  28.007  30.196  13.744
51433W        W22033  29.069   9.914   1.425
51434W        W22034  10.296  17.714  13.326
51435W        W22035  22.556  25.923   3.733
51436W        W22036  25.109  29.311   4.811
51437W        W22037  29.095  18.656   3.839
51438W        W22038  21.287   1.439  11.992
51439W        W22039  41.486  29.839   0.402
51440W        W22040  40.285  27.150   0.419
51441W        W22041  13.218  31.435  12.330
51442W        W22042  44.542  12.630   2.952
51443W        W22043  35.067  13.341  11.767
51444W        W22044  33.099  18.139   1.467
51445W        W22045  17.546  40.342  13.944
51446W        W22046  39.957  43.851   2.665
51447W        W22047   9.659   0.521  11.723
51448W        W22048   8.864  33.103   0.817
51449W        W22049  31.366  22.880  12.524
51450W        W22050   6.883  23.468  12.130
51451W        W22051  31.009  36.383  11.215
51452W        W22052  23.049  27.442   3.123
51453W        W22053  24.918  11.359   3.657
51454W        W22054   5.296   8.621   4.182
51455W        W22055  28.112  21.241   1.914
51456W        W22056  28.384  12.301   2.381
51457W        W22057   2.238  29.062   0.326
51458W        W22058  34.841  24.998  13.014
51459W        W22059  17.037  42.327  14.415
51460W        W22060  40.031   3.787  12.102
51461W        W22061  24.590  30.039  12.435
51462W        W22062  31.333  26.136  10.509
51463W        W22063  23.675  19.562  13.910
51464W        W22064  20.340  30.843  11.565
51465W        W22065  18.665  34.089   9.977
51466W        W22066  38.515  38.268  13.017
51467W        W22067  36.438  38.622  12.317
51468W        W22068  37.422   4.229   1.871
51469W        W22069  14.242   3.370   3.540
51470W        W22070  21.198  14.090   0.868
51471W        W22071  32.073  15.567   1.633
51472W        W22072  20.976   4.639   1.326
51473W        W22073  30.952  31.048   2.693
51474W        W22074   8.699  24.556   1.727
51475W        W22075  39.621  44.635  11.224
51476W        W22076   0.523  21.163  11.938
51477W        W22077  36.306  13.233   4.054
51478W        W22078  15.667  19.143   4.515
51479W        W22079  38.610   6.263  12.232
51480W        W22080  25.566   6.170   0.450
51481W        W22081  20.592  20.144   3.392
51482W        W22082  34.056  18.798  14.002
51483W        W22083  43.794  20.280   0.409
51484W        W22084  44.160  39.466  11.160
51485W        W22085  42.297   8.992  13.917
51486W        W22086  29.862  27.742  14.540
51487W        W22087   9.680  29.310   4.235
51488W        W22088   7.545  28.199   5.009
51489W        W22089   3.240  43.685   2.566
51490W        W22090  10.011  15.535   3.270
51491W        W22091  43.958  23.975  13.348
51492W        W22092  34.608   3.784   1.565
51493W        W22093  44.109   6.200   0.671
51494W        W22094  35.250  42.214  14.480
51495W        W22095  11.661  30.554   4.616
51496W        W22096  35.581  20.563  12.518
51497W        W22097  33.315  23.309   1.333
51498W        W22098  31.611   7.653   1.815
51499W        W22099   5.164  15.374  11.449
51500W        W22100  11.698  20.942   4.114
51501W        W22101   4.163  11.433  13.325
51502W        W22102  41.388   3.206  13.278
51503W        W22103   2.948  20.243   0.779
51504W        W22104  13.641  24.409   1.876
51505W        W22105  26.486  30.937   1.512
51506W        W22106  38.115  29.960  13.537
51507W        W22107  37.187  42.052  11.089
51508W        W22108  23.741  30.999  14.712
51509W        W22109  21.953  16.243  14.322
51510W        W22110  23.074  28.360   0.043
51511W        W22111   6.051   6.665  13.173
51512W        W22112  40.462  37.374   2.114
51513W        W22113  17.109  20.368   4.240
51514W        W22114  37.092  35.917   0.813
51515W        W22115  36.632  10.726  13.898
51516W        W22116  43.995  39.012   0.556
51517W        W22117  21.015   9.703   0.924
51518W        W22118  29.708  15.752  12.005
51519W        W22119  43.937  30.097   4.868
51520W        W22120  37.543  31.846  11.519
51521W        W22121  41.933  22.161  14.076
51522W        W22122   5.294   7.754  14.324
51523W        W22123   9.847  21.315  12.006
51524W        W22124  32.474   5.366  10.762
51525W        W22125  16.254  18.864  14.880
51526W        W22126  38.099   4.897   2.738
51527W        W22127  13.652  17.138  10.985
51528W        W22128  26.441  38.542  12.106
51529W        W22129  21.322   8.098   3.682
51530W        W22130  29.087   0.470  14.283
51531W        W22131  41.668  33.835   0.343
51532W        W22132   8.146  13.842  10.683
51533W        W22133  30.523  28.456  12.150
51534W        W22134  25.155  35.917   1.339
51535W        W22135  34.598  35.437   0.991
51536W        W22136  19.506  18.204   1.212
51537W        W22137  32.730  13.906  14.935
51538W        W22138  40.800  42.341   2.966
51539W        W22139  38.260  28.700  13.238
51540W        W22140  43.237  37.491  13.333
51541W        W22141   4.104   4.161   1.947
51542W        W22142  37.497  32.132  11.965
51543W        W22143  22.211  33.162  13.952
51544W        W22144   6.146   9.683  10.678
51545W        W22145  40.487   8.156  10.763
51546W        W22146  39.289  32.010   1.326
51547W        W22147  17.248  24.198   0.283
51548W        W22148  36.843  19.258  11.944
51549W        W22149  44.830  23.787  12.288
51550W        W22150  43.499  39.685   3.535
51551W        W22151  42.919  26.527  13.314
51552W        W22152   0.361  18.374   3.907
51553W        W22153  29.912  24.822  11.136
51554W        W22154  28.070  28.945   2.743
51555W        W22155   5.771  37.967   0.449
51556W        W22156   7.233  35.357   4.182
51557W        W22157  42.002  16.302   2.309
51558W        W22158  15.231  34.430  13.356
51559W        W22159  31.585   3.831   3.770
51560W        W22160  39.313  13.353   0.754
51561W        W22161  23.981  17.544   3.431
51562W        W22162  26.180  12.761   0.627
51563W        W22163   2.886   2.200  11.887
51564W        W22164  17.612  19.552  10.731
51565W        W22165  41.212  35.561   0.810
51566W        W22166  39.652  16.090  10.632
51567W        W22167  39.520  20.074   2.114
51568W        W22168  38.539  41.354   4.594
51569W        W22169  37.486   6.361  10.439
51570W        W22170  39.394   6.191   1.668
51571W        W22171  31.367  23.926  14.887
51572W        W22172   9.298  29.266  12.192
51573W        W22173  28.509  16.739  10.659
51574W        W22174  23.446  26.001   1.953
51575W        W22175  14.090  23.110   3.088
51576W        W22176  27.074  29.650   4.619
51577W        W22177  11.237  11.852   4.565
51578W        W22178  15.256  40.288  13.431
51579W        W22179  19.136   2.979   3.123
51580W        W22180   4.777  37.644   0.433
51581W        W22181  42.931  37.415  14.960
51582W        W22182   3.173  30.130   2.969
51583W        W22183  20.994  16.260   1.473
51584W        W22184  23.641  15.282  12.944
51585W        W22185  31.889   5.830   2.186
51586W        W22186  12.756  41.030   0.701
51587W        W22187  12.001  40.300   3.817
51588W        W22188  10.885   9.340  14.450
51589W        W22189  20.546   2.463   2.638
51590W        W22190  21.127   9.078   2.608
51591W        W22191  23.354  27.256   3.767
51592W        W22192  17.990   4.507  11.455
51593W        W22193   2.776  36.929   2.130
51594W        W22194  38.906  26.143  12.032
51595W        W22195   5.005  44.008  13.419
51596W        W22196  35.651  42.707  12.644
51597W        W22197  16.407   4.856   2.542
51598W        W22198   1.675  32.977  11.463
51599W        W22199   9.362   0.847  11.496
51600W        W22200  34.542  30.795  14.845
51601W        W22201  25.752  21.737  12.723
51602W        W22202  10.278  36.174   3.671
51603W        W22203  11.197   8.683  12.957
51604W        W22204   0.753  25.114   4.780
51605W        W22205  16.570  42.300   3.873
51606W        W22206   0.286  38.989   3.125
51607W        W22207   5.123  18.753   3.590
51608W        W22208   3.852  28.065   3.751
51609W        W22209  38.548  12.218  14.049
51610W        W22210  33.718  41.531   1.752
51611W        W22211  23.123  10.220   0.432
51612W        W22212   4.667   7.432   1.864
51613W        W22213  22.042  28.015   2.326
51614W        W22214  18.236  20.968  14.815
51615W        W22215  43.388  18.071   1.573
51616W        W22216  17.188  20.724   0.659
51617W        W22217  37.126  35.510  12.110
51618W        W22218  39.922  22.251   3.576
51619W        W22219   1.870  33.800   0.868
51620W        W22220  24.658  20.926  14.420
51621W        W22221  34.909  15.188   4.479
51622W        W22222   0.795  26.793  10.254
51623W        W22223  35.969   0.793  12.676
51624W        W22224   1.203  20.000  12.095
51625W        W22225  32.830  40.043  14.905
51626W        W22226  22.436   2.059  12.121
51627W        W22227  23.459   0.005   2.836
51628W        W22228  35.843  41.241   0.849
51629W        W22229  18.627   7.777   1.835
51630W        W22230  28.975  15.383   4.645
51631W        W22231  28.520  27.919  12.872
51632W        W22232  18.706  32.939   3.677
51633W        W22233   6.829  38.754  13.578
51634W        W22234  17.700   1.862  10.586
51635W        W22235  16.322  14.604   3.713
51636W        W22236  16.818   2.745   3.826
51637W        W22237  18.947  23.650   1.471
51638W        W22238  19.069   8.621  11.086
51639W        W22239  24.158  11.355  11.106
51640W        W22240   8.735  12.733  14.835
51641W        W22241  18.815  17.284   0.053
51642W        W22242  43.022  17.203  12.004
51643W        W22243  12.967   8.143   0.289
51644W        W22244  36.734  38.023  12.981
51645W        W22245  37.157  14.434   1.292
51646W        W22246  44.557  16.032  12.432
51647W        W22247   4.484   9.181   4.766
51648W        W22248  25.952   4.897   2.239
51649W        W22249  42.158   4.549   3.578
51650W        W22250  15.858   0.747  11.216
51651W        W22251   8.792  12.331   1.427
51652W        W22252  15.621  24.062   3.200
51653W        W22253  43.778  15.089  12.083
51654W        W22254  42.705  34.090  11.698
51655W        W22255  30.122  43.502  10.587
51656W        W22256  29.047  33.381  11.537
51657W        W22257   0.850  29.497   3.268
51658W        W22258  22.913  22.516   3.844
51659W        W22259  25.488  28.645   1.390
51660W        W22260  31.629  11.822   4.118
51661W        W22261  34.392  24.671   1.701
51662W        W22262  14.593  36.341   1.800
51663W        W22263  32.129  18.786  14.004
51664W        W22264   8.397   1.867  11.966
51665W        W22265  11.331  43.368   0.831
51666W        W22266  30.181  33.595  13.138
51667W        W22267  44.991  43.371   4.436
51668W        W22268   5.400   9.682   4.063
51669W        W22269  31.228   3.517   2.314
51670W        W22270  19.160  39.507   2.439
51671W        W22271  28.593   4.839  12.169
51672W        W22272  11.080  27.536  14.540
51673W        W22273   3.770  40.542  10.456
51674W        W22274   0.751  28.191  11.239
51675W        W22275  25.286   2.803   2.299
51676W        W22276  14.569   0.491  12.101
51677W        W22277   2.862  37.819   5.037
51678W        W22278  36.505  26.974  12.461
51679W        W22279  42.317  34.814  13.120
51680W        W22280  15.072  25.960   1.189
51681W        W22281  21.627  37.777  14.505
51682W        W22282  24.688   7.855   3.958
51683W        W22283  26.912  43.420  14.423
51684W        W22284  35.039  32.548   2.477
51685W        W22285  10.253  30.693  12.556
51686W        W22286  41.294   6.838  10.680
51687W        W22287   5.767  36.188   0.937
51688W        W22288  25.193  40.893  10.880
51689W        W22289  18.619   5.794  11.939
51690W        W22290  16.718   4.810   1.198
51691W        W22291   5.347  26.027   1.773
51692W        W22292  10.239  18.991  13.957
51693W        W22293  18.166  23.748  11.585
51694W        W22294   5.832  39.729   2.283
51695W        W22295  29.560   8.212   4.753
51696W        W22296  18.671  32.551  11.635
51697W        W22297  37.233   4.621   4.638
51698W        W22298  19.756  37.543  14.701
51699W        W22299   8.811  10.976  14.886
51700W        W22300   0.407  34.047   2.292
51701W        W22301   1.246  12.054   1.813
51702W        W22302   3.083  12.010   4.812
51703W        W22303  43.844  13.667   2.520
51704W        W22304   5.625   3.453   2.407
51705W        W22305  25.733  22.471   2.316
51706W        W22306  26.536  24.249   4.549
51707W        W22307   1.816  31.599  13.068
51708W        W22308  26.185  17.834  10.866
51709W        W22309   6.329  16.781   3.774
51710W        W22310  26.070  22.731  11.104
51711W        W22311  14.387  32.215   5.009
51712W        W22312  15.691   9.804   1.317
51713W        W22313  31.000  38.698   3.481
51714W        W22314  10.105  22.504   0.035
51715W        W22315  22.186   8.686  11.532
51716W        W22316  14.163  35.176  12.306
51717W        W22317  15.027  36.356   0.985
51718W        W22318  11.293  17.285   2.122
51719W        W22319  33.732  39.765  10.942
51720W        W22320  39.902  42.506  11.605
51721W        W22321  22.611  10.393   0.483
51722W        W22322  33.385   0.761   4.061
51723W        W22323  40.429   9.768   4.555
51724W        W22324   1.293  19.835   3.245
51725W        W22325  37.309  14.606   4.331
51726W        W22326  42.300  17.667  11.567
51727W        W22327  16.777  12.095   0.350
51728W        W22328  38.919  18.299   3.223
51729W        W22329  25.080   8.186  14.489
51730W        W22330  13.216  20.930  13.864
51731W        W22331  34.856  25.711   1.186
51732W        W22332  33.581  28.744  10.507
51733W        W22333  29.077  35.558  13.553
51734W        W22334  35.339  42.105  12.157
51735W        W22335  10.695  42.749   3.742
51736W        W22336  41.284   7.382   4.983
51737W        W22337  34.634  15.162  12.525
51738W        W22338   1.437  13.071   1.729
51739W        W22339  33.380  16.881  14.802
51740W        W22340  38.870   2.794   4.544
51741W        W22341   8.048   3.412  11.377
51742W        W22342  18.827  20.315  14.044
51743W        W22343  10.805   5.970  11.680
51744W        W22344  36.397  19.687   0.055
51745W        W22345  22.430  27.154  14.508
51746W        W22346  32.692   1.601   4.783
51747W        W22347   5.488  35.508   4.513
51748W        W22348  35.899  11.015   0.849
51749W        W22349  15.208  10.913  13.412
51750W        W22350  33.044  33.335   2.295
51751W        W22351  39.016  11.731  13.382
51752W        W22352   2.305   7.860   4.125
51753W        W22353  33.222  39.701   2.812
51754W        W22354   6.370   1.853   1.169
51755W        W22355  11.058  26.671   1.720
51756W        W22356  39.570  10.649   3.276
51757W        W22357   8.258   3.306   4.288
51758W        W22358   7.296  29.529  11.896
51759W        W22359   3.150  44.033  12.418
51760W        W22360   1.903  26.687  11.521
51761W        W22361  10.192  17.708  11.562
51762W        W22362   3.858  24.619   4.164
51763W        W22363  35.081  23.376  10.074
51764W        W22364  20.630  20.479   3.790
51765W        W22365  12.144  14.394  14.358
51766W        W22366   4.261  44.765   0.397
51767W        W22367  28.397  41.352  11.143
51768W        W22368  35.732  26.601  11.765
51769W        W22369  16.625  35.931   0.127
51770W        W22370   5.318  40.438   2.172
51771W        W22371  12.139   3.260  10.890
51772W        W22372  44.221  39.030   2.843
51773W        W22373  43.522  21.174  11.097
51774W        W22374  10.189  43.210  12.931
51775W        W22375  17.272   3.998   0.863
51776W        W22376  40.491  10.285   3.284
51777W        W22377  34.575  21.007   1.939
51778W        W22378  39.534  40.778  11.196
51779W        W22379  39.808   6.459  11.411
51780W        W22380  12.167  26.707  13.925
51781W        W22381  33.561  29.577   1.532
51782W        W22382  17.689   3.165   1.324
51783W        W22383  31.918  28.177   1.268
51784W        W22384  31.724  35.264   0.326
51785W        W22385   5.630  26.667  10.318
51786W        W22386  34.615  14.762  13.472
51787W        W22387  27.058   0.420  11.161
51788W        W22388  16.027  42.091  13.835
51789W        W22389  11.750   8.964   2.628
51790W        W22390   5.686  37.584  10.642
51791W        W22391  19.740   0.947  12.962
51792W        W22392  19.088  40.829   1.595
51793W        W22393  16.632  40.549   0.682
51794W        W22394  30.833  19.035   2.799
51795W        W22395   0.543  20.060   2.663
51796W        W22396   4.935  35.080   4.595
51797W        W22397  22.423  34.477   4.964
51798W        W22398  40.556  16.375   3.636
51799W        W22399  34.523  24.560   4.586
51800W        W22400  13.233  33.373   3.329
51801W        W22401  17.254  34.552  11.479
51802W        W22402  10.933  16.900   1.892
51803W        W22403  12.660  29.632   1.995
51804W        W22404  22.408  11.347   0.894
51805W        W22405  17.913   9.723   4.186
51806W        W22406  40.817  15.218   4.629
51807W        W22407  10.593  19.178  14.319
51808W        W22408  28.467  44.410  11.691
51809W        W22409  27.226  25.024  14.336
51810W        W22410  29.989  39.664  14.492
51811W        W22411  10.457  33.400   1.350
51812W        W22412  24.532  33.648  12.754
51813W        W22413  11.056   3.519  14.275
51814W        W22414  35.434  12.737   0.977
51815W        W22415  37.475   5.875  13.541
51816W        W22416  37.628  34.435  14.573
51817W        W22417  34.777  20.721  14.628
51818W        W22418   1.895  37.497   2.392
51819W        W22419  30.589   1.432  11.556
51820W        W22420  40.973  11.636   0.852
51821W        W22421   8.803  22.171  14.158
51822W        W22422   8.678  10.667   3.258
51823W        W22423  17.611  10.915   3.806
51824W        W22424  23.501  15.567   2.867
51825W        W22425  10.211  36.967   3.162
51826W        W22426  30.086  42.649   0.690
51827W        W22427  29.990  38.956   9.909
51828W        W22428  42.969  20.952  13.290
51829W        W22429  37.001   1.601   2.685
51830W        W22430  41.091  36.160   0.104
51831W        W22431  14.318   5.044  14.826
51832W        W22432  27.950   3.513   2.200
51833W        W22433  32.464  22.285   2.393
51834W        W22434   5.304  42.741  11.853
51835W        W22435  15.295   0.458   4.651
51836W        W22436   2.746  29.625   0.201
51837W        W22437  11.196  14.515   3.717
51838W        W22438  40.272  37.942  14.959
51839W        W22439  39.038  26.746   1.693
51840W        W22440  40.743  37.363  14.555
51841W        W22441  40.036   2.914  14.890
51842W        W22442  41.433  37.854  11.807
51843W        W22443  28.378  36.872   2.791
51844W        W22444  33.804  29.379  10.438
51845W        W22445  17.040  26.918  13.074
51846W        W22446  20.683  36.836   2.875
51847W        W22447  12.241  29.386  14.935
51848W        W22448  26.550  17.168   1.523
51849W        W22449  34.901  11.827  11.974
51850W        W22450  23.590  10.700  13.118
51851W        W22451  31.323  17.137  13.960
51852W        W22452  36.186  20.470   1.635
51853W        W22453  25.544  29.495  13.475
51854W        W22454  38.560  12.230  14.577
51855W        W22455  42.541  14.641   3.808
51856W        W22456  17.361  32.889   4.117
51857W        W22457  36.214  37.047  10.510
51858W        W22458  19.701  35.371   4.608
51859W        W22459  35.323  29.421   3.614
51860W        W22460  43.801  21.306   0.833
51861W        W22461   8.768   1.443  13.808
51862W        W22462  32.981  13.303  12.236
51863W        W22463  11.678  23.420  12.633
51864W        W22464  30.588  43.356   1.729
51865W        W22465  32.956  29.943  12.831
51866W        W22466  30.812  41.396  11.824
51867W        W22467  29.129  18.250   2.366
51868W        W22468   1.754  13.860   0.849
51869W        W22469   7.385   8.355   1.647
51870W        W22470  27.777  44.316  14.896
51871W        W22471  44.361  33.603  12.926
51872W        W22472   8.330   9.931   0.800
51873W        W22473  21.839   7.111   2.200
51874W        W22474   3.703  32.374  13.189
51875W        W22475  16.810  13.738  11.333
51876W        W22476  10.362  36.476  11.885
51877W        W22477  24.595  27.091   0.227
51878W        W22478   7.954   8.425   3.685
51879W        W22479  12.836   6.145   3.875
51880W        W22480  14.834  10.933   1.345
51881W        W22481  40.369  39.601   3.783
51882W        W22482  24.139  14.589   3.715
51883W        W22483  23.772  20.198   2.674
51884W        W22484  26.749   4.914   1.782
51885W        W22485  27.661  11.882  13.389
51886W        W22486  28.441  42.498   3.176
51887W        W22487  14.495  26.208  13.059
51888W        W22488  21.334   4.804   2.646
51889W        W22489   8.844  29.214  14.044
51890W        W22490  24.263  42.754   2.583
51891W        W22491  20.814  22.073  10.191
51892W        W22492   1.350  38.048   2.909
51893W        W22493  20.760  14.473   4.093
51894W        W22494  26.085   7.820   0.729
51895W        W22495   7.692  27.892   4.606
51896W        W22496   1.657  11.714  12.444
51897W        W22497   0.105  30.719  14.878
51898W        W22498  33.357  11.298   3.132
51899W        W22499  31.200  16.291  11.822
51900W        W22500  39.943   2.941   1.413
51901W        W22501  33.473  23.565   2.489
51902W        W22502  35.991  40.748  13.666
51903W        W22503  34.561  14.198  11.462
51904W        W22504   2.974  39.543   4.624
51905W        W22505  34.452  16.593  14.498
51906W        W22506  27.894  22.991  12.074
51907W        W22507  33.753   5.830   1.327
51908W        W22508  12.712   4.967  12.977
51909W        W22509  24.502  42.706  12.249
51910W        W22510   0.411  32.261  14.467
51911W        W22511  12.236  30.973  14.121
51912W        W22512  10.658  26.435  14.367
51913W        W22513  28.533  26.609   1.728
51914W        W22514  16.801  36.557  10.136
51915W        W22515  39.819  15.276   0.525
51916W        W22516  38.016  37.010   4.198
51917W        W22517  30.921   0.182   1.692
51918W        W22518  24.632  44.275  14.779
51919W        W22519  13.301  22.717  10.742
51920W        W22520  40.598  44.423  14.830
51921W        W22521   2.484  30.445  12.922
51922W        W22522  26.227   8.149  13.975
51923W        W22523  21.623   1.758  11.587
51924W        W22524  43.924  15.645   2.306
51925W        W22525   7.772  24.692  12.528
51926W        W22526  23.624  30.996  11.716
51927W        W22527  42.439  25.135   2.071
51928W        W22528  38.930   0.899   0.981
51929W        W22529  16.222  15.738  14.069
51930W        W22530   7.742  18.057   4.434
51931W        W22531  26.399  11.195  14.290
51932W        W22532  34.901  39.710   3.792
51933W        W22533   9.790  37.854  14.416
51934W        W22534  25.173  26.388  13.007
51935W        W22535  44.453   0.283   4.871
51936W        W22536  30.512  34.494  14.475
51937W        W22537  29.435   5.433   4.674
51938W        W22538  14.231  41.740  11.235
51939W        W22539  31.336  11.909   0.260
51940W        W22540   6.847  39.850  14.863
51941W        W22541  21.176  15.987  12.619
51942W        W22542   3.934  15.112   2.702
51943W        W22543  15.067   4.678   3.838
51944W        W22544  33.947  20.212   1.927
51945W        W22545  15.070  27.550  12.054
51946W        W22546   1.808   2.985   0.846
51947W        W22547  41.757  35.144  14.297
51948W        W22548  17.668  38.425   2.918
51949W        W22549  16.355  14.280  13.628
51950W        W22550  44.911  21.725   3.923
51951W        W22551  38.446  16.403   4.604
51952W        W22552  22.030  43.588   9.666
51953W        W22553  38.058  19.784  12.950
51954W        W22554   8.419  43.955  14.856
51955W        W22555   8.710   5.315   4.615
51956W        W22556  18.503   4.983  10.815
51957W        W22557  14.397  12.416  13.378
51958W        W22558  21.015  25.782   0.835
51959W        W22559  31.562  30.527   4.265
51960W        W22560  23.644  19.185   2.882
51961W        W22561  21.302  18.327   3.374
51962W        W22562   2.333  27.662  12.213
51963W        W22563   5.089  25.746   2.747
51964W        W22564  20.511   5.679  14.337
51965W        W22565  18.721  29.693   4.346
51966W        W22566  35.080  44.327   1.803
51967W        W22567   0.464  27.956  10.875
51968W        W22568  40.965  42.349  12.580
51969W        W22569   2.574   1.024  13.992
51970W        W22570  10.710  19.092   2.907
51971W        W22571   5.931  42.404   0.681
51972W        W22572  18.292   5.380  11.482
51973W        W22573  37.535  29.180  13.864
51974W        W22574   3.196  10.247   1.724
51975W        W22575   1.526  24.168  11.150
51976W        W22576  28.469   8.229   4.137
51977W        W22577  15.766  29.750  12.669
51978W        W22578   4.745  38.693  14.413
51979W        W22579  34.621   1.839  13.858
51980W        W22580  36.142   1.293   4.398
51981W        W22581  39.214  32.351  13.071
51982W        W22582  30.996  29.405   2.793
51983W        W22583   3.439  44.936   4.364
51984W        W22584   8.650  32.098  12.104
51985W        W22585  30.530  25.194   2.777
51986W        W22586  31.173  16.861   3.221
51987W        W22587  36.456  17.170  10.880
51988W        W22588  35.873  33.306  11.920
51989W        W22589  28.611  38.102   4.384
51990W        W22590  24.097  44.607   2.805
51991W        W22591  17.682   2.183   4.114
51992W        W22592  23.132   3.426  12.021
51993W        W22593  39.848   1.411  12.164
51994W        W22594  11.262  23.756   1.228
51995W        W22595  31.237  32.447   4.803
51996W        W22596  27.991   0.761   2.346
51997W        W22597   5.105  41.028   4.283
51998W        W22598   5.502  43.311   4.466
51999W        W22599  11.185  23.606   2.440
52000W        W22600  13.521  22.799  14.499
52001W        W22601  20.590  12.419   0.035
52002W        W22602  16.730  27.609  14.742
52003W        W22603  39.786  18.919   2.816
52004W        W22604  38.559  15.245   1.677
52005W        W22605  23.325   4.246   2.836
52006W        W22606  29.393  11.757  13.477
52007W        W22607  19.801  17.790  14.119
52008W        W22608  25.915  26.975   0.857
52009W        W22609  41.549  34.488   4.156
52010W        W22610  23.095  22.934  10.735
52011W        W22611  27.581  41.800  12.618
52012W        W22612  23.547  19.975  14.846
52013W        W22613   8.131  42.277   1.317
52014W        W22614  28.616  42.553  13.090
52015W        W22615   8.888  32.766  11.557
52016W        W22616  32.431  38.449  10.601
52017W        W22617  44.073  14.570   0.719
52018W        W22618  23.064  33.090  11.577
52019W        W22619  44.460  36.643  13.566
52020W        W22620  12.673   7.742  13.271
52021W        W22621   6.808   5.243  11.229
52022W        W22622   9.288  15.994  12.699
52023W        W22623   1.376  41.132  12.194
52024W        W22624  12.862  39.220   2.781
52025W        W22625  33.087  32.834   1.944
52026W        W22626  34.889  32.471  12.904
52027W        W22627  44.848  39.210  11.647
52028W        W22628  14.339   5.440  12.975
52029W        W22629  41.085  40.387  12.658
52030W        W22630   5.806   6.275  14.942
52031W        W22631   8.428   6.079   0.782
52032W        W22632  11.014  15.807  14.568
52033W        W22633  33.680   3.182   1.162
52034W        W22634   1.147  11.470   1.612
52035W        W22635   6.850  29.048   4.818
52036W        W22636  26.992  40.443   1.171
52037W        W22637  43.781  32.937   0.361
52038W        W22638  23.004  23.544  12.991
52039W        W22639  43.976  13.552  14.668
52040W        W22640  39.304   1.822  13.568
52041W        W22641   2.021  44.506  13.452
52042W        W22642  15.905  34.625   2.425
52043W        W22643  37.005  23.191  14.414
52044W        W22644  10.873  14.139   2.290
52045W        W22645  39.219  31.718   3.308
52046W        W22646  10.911   0.942   3.699
52047W        W22647  19.603  31.704   2.447
52048W        W22648   0.319  20.813  13.480
52049W        W22649  35.636  41.764   4.110
52050W        W22650   5.237   9.701  10.732
52051W        W22651  21.481  15.631  12.410
52052W        W22652  13.835  40.275  12.076
52053W        W22653  29.196   6.424  12.579
52054W        W22654   7.230  38.937   3.269
52055W        W22655  20.831  30.485   4.035
52056W        W22656  43.379  23.845   2.695
52057W        W22657   3.841  35.088  14.886
52058W        W22658   1.470  25.062  14.825
52059W        W22659  19.295  36.566   4.805
52060W        W22660  29.365  25.640   0.953
52061W        W22661  32.953  28.553   0.830
52062W        W22662  10.264   1.443   3.300
52063W        W22663  39.357  30.037  10.707
52064W        W22664  12.755  22.633   1.184
52065W        W22665  30.886  14.227   5.166
52066W        W22666   5.776   1.077  10.768
52067W        W22667   2.071  27.454  13.015
52068W        W22668  23.449  13.101   0.227
52069W        W22669  12.725  15.741  10.677
52070W        W22670  33.640  31.435  11.130
52071W        W22671  27.426  30.139   3.798
52072W        W22672  19.506  18.333   3.242
52073W        W22673  44.421  35.452   2.302
52074W        W22674  22.443  15.168  11.567
52075W        W22675  35.329  19.624  12.437
52076W        W22676  20.573  11.599   1.150
52077W        W22677   2.494  20.369   4.667
52078W        W22678  14.943  38.449   4.430
52079W        W22679  30.554  35.859   4.112
52080W        W22680  41.486  36.308   3.809
52081W        W22681  14.317  28.345   4.085
52082W        W22682   7.347  27.512   4.672
52083W        W22683  20.140  28.020   4.100
52084W        W22684  39.922  28.084  11.860
52085W        W22685  19.816   4.884   2.635
52086W        W22686   7.135  15.403   3.110
52087W        W22687  37.034  35.273  10.760
52088W        W22688   4.371  13.206   0.211
52089W        W22689  36.661  31.073   1.482
52090W        W22690  27.090   7.459   2.579
52091W        W22691   7.867  29.608   1.027
52092W        W22692  34.288  41.561  13.041
52093W        W22693   2.424  44.218   2.114
52094W        W22694  27.582  39.050  11.572
52095W        W22695   5.967  23.963   3.905
52096W        W22696  36.936  29.252  11.665
52097W        W22697  19.200  38.706  13.384
52098W        W22698  33.565   6.601   4.634
52099W        W22699  25.529  30.951   1.211
52100W        W22700  13.676  31.870  13.567
52101W        W22701  14.592   8.773  13.134
52102W        W22702  20.666  44.255  13.525
52103W        W22703   0.932  23.630   4.974
52104W        W22704   2.445  41.475  12.388
52105W        W22705  16.799  18.997   1.635
52106W        W22706  27.675   1.925   3.850
52107W        W22707  25.531  21.694   0.814
52108W        W22708   6.822  33.128   4.919
52109W        W22709  35.353  24.430   2.681
52110W        W22710  23.283   0.957  11.597
52111W        W22711   3.644   5.307  14.027
52112W        W22712  25.187  19.501   4.142
52113W        W22713  37.955  38.953   1.900
52114W        W22714  43.796  32.873   2.232
52115W        W22715  22.426  15.836  12.662
52116W        W22716  38.231   3.477  12.060
52117W        W22717  39.099  37.460   4.506
52118W        W22718  44.842  44.940   3.473
52119W        W22719  13.713   7.428  14.912
52120W        W22720  25.991  36.162  10.673
52121W        W22721  21.329  24.627  10.802
52122W        W22722   7.874  13.315   1.381
52123W        W22723  34.912  10.035   0.778
52124W        W22724  21.681  28.035   3.115
52125W        W22725  32.393  40.360  14.167
52126W        W22726  40.137  41.461   1.941
52127W        W22727  16.202  40.097  10.615
52128W        W22728  20.002  21.283  12.619
52129W        W22729  37.813  38.561   0.659
52130W        W22730  11.845  34.590   3.373
52131W        W22731  30.580  19.795   1.891
52132W        W22732   6.196  29.660   2.697
52133W        W22733   6.438  40.507  12.727
52134W        W22734  42.995  22.610   0.833
52135W        W22735  35.826  36.107   0.889
52136W        W22736  24.250  21.728  11.422
52137W        W22737  30.558   1.977   4.539
52138W        W22738   0.488  12.862   2.281
52139W        W22739  13.617  35.580   3.811
52140W        W22740  26.213  42.538   0.538
52141W        W22741  30.403   6.825  13.006
52142W        W22742  19.560  28.609  11.129
52143W        W22743  35.391  21.009  13.545
52144W        W22744  25.043   9.689  13.490
52145W        W22745   2.307   0.741  14.783
52146W        W22746  44.897  43.187  12.012
52147W        W22747   0.074  31.881   3.641
52148W        W22748  18.138  16.982  13.502
52149W        W22749  38.147  23.559  12.919
52150W        W22750  20.250  42.895  13.180
52151W        W22751  30.900  39.016   0.394
52152W        W22752   7.847   5.638  12.110
52153W        W22753  20.751   5.636  12.046
52154W        W22754  33.364   8.243   3.937
52155W        W22755  21.579  27.233   2.657
52156W        W22756   2.469  19.069  14.734
52157W        W22757  41.458  44.773   1.135
52158W        W22758  41.661   0.848   3.993
52159W        W22759  11.304  24.098   3.783
52160W        W22760  26.727  30.230   2.660
52161W        W22761  24.818  23.629   2.351
52162W        W22762  39.026  11.630   0.925
52163W        W22763  37.539   3.643   1.015
52164W        W22764   2.779  12.182  14.736
52165W        W22765  44.918  18.854  14.514
52166W        W22766  35.477  29.833  12.823
52167W        W22767  24.479  14.873  14.559
52168W        W22768   4.061  23.205   4.724
52169W        W22769  44.722   8.571   0.217
52170W        W22770  37.888  44.280   2.685
52171W        W22771  39.575  23.176  12.018
52172W        W22772   9.933  40.527  11.613
52173W        W22773  14.774   8.192   4.520
52174W        W22774  23.019   0.670  13.840
52175W        W22775  33.030  37.895  13.574
52176W        W22776   9.328  42.446  12.040
52177W        W22777  22.032  40.849   4.900
52178W        W22778  17.185  21.191   2.671
52179W        W22779  44.786   2.720   3.656
52180W        W22780  24.876  18.067   2.698
52181W        W22781  29.032  39.664   1.027
52182W        W22782  18.205  13.284  12.937
52183W        W22783  20.541   5.277   2.648
52184W        W22784  43.056   8.314   0.200
52185W        W22785  25.631  16.631  14.298
52186W        W22786  24.271  20.572   0.128
52187W        W22787   3.327  37.519  11.070
52188W        W22788  27.921   7.827  13.792
52189W        W22789  22.689  41.993   3.363
52190W        W22790  15.022  32.583  11.775
52191W        W22791   3.819  34.204   2.801
52192W        W22792   4.262  40.472  14.327
52193W        W22793  30.916  33.136   2.362
52194W        W22794  20.070  29.420   0.902
52195W        W22795  30.480  39.749   3.123
52196W        W22796  30.950   0.836  12.549
52197W        W22797   3.133  13.263  12.429
52198W        W22798   3.394   3.729  13.848
52199W        W22799  40.532  41.947  10.735
52200W        W22800   6.392  33.396  12.374
52201W        W22801  13.973   1.161   9.723
52202W        W22802  21.522  11.558  13.410
52203W        W22803  29.915  43.074  11.506
52204W        W22804  32.529  42.853  11.127
52205W        W22805  36.314  18.748  11.492
52206W        W22806  40.641  19.584  13.812
52207W        W22807  34.354  20.645  14.306
52208W        W22808  17.301  41.410  11.914
52209W        W22809  26.677  18.832  11.308
52210W        W22810  17.063  31.574   3.613
52211W        W22811  13.199  17.771  10.944
52212W        W22812  17.734   1.668   2.163
52213W        W22813  26.366  17.880  11.600
52214W        W22814  24.494  16.675   3.789
52215W        W22815  41.998  29.056   4.133
52216W        W22816  14.415  19.433  10.535
52217W        W22817  27.049   5.519  14.482
52218W        W22818  20.763  28.472  13.660
52219W        W22819  24.667  26.156   2.718
52220W        W22820  11.387  38.863  12.177
52221W        W22821  22.745   1.483  11.095
52222W        W22822  11.069  21.926   4.101
52223W        W22823  16.096  14.600  12.931
52224W        W22824   5.352  40.276  14.785
52225W        W22825  35.316  43.853  12.672
52226W        W22826  11.757  30.840   3.409
52227W        W22827  36.412  24.960   4.557
52228W        W22828  21.473  39.803  11.210
52229W        W22829   9.820   3.723  13.339
52230W        W22830  44.943  33.132   1.766
52231W        W22831  23.193  41.827   3.156
52232W        W22832  25.527  13.418  11.493
52233W        W22833  30.526  28.458   4.731
52234W        W22834  12.624  30.226  14.799
52235W        W22835  18.293  16.043  14.536
52236W        W22836  41.947   2.185   3.796
52237W        W22837   3.670  42.954  13.116
52238W        W22838  26.115  29.460   0.448
52239W        W22839  19.891   0.480   3.348
52240W        W22840   9.095   3.198   3.701
52241W        W22841   7.619  27.708  14.490
52242W        W22842  38.373   2.566   1.942
52243W        W22843  35.882  11.508   0.688
52244W        W22844  44.924  44.847  14.481
52245W        W22845  39.001  32.400   0.425
52246W        W22846  29.616  44.712  10.411
52247W        W22847  29.637  41.798  12.106
52248W        W22848   3.188   2.756  13.990
52249W        W22849  15.979  11.129  10.658
52250W        W22850  18.584   8.294  12.260
52251W        W22851   8.705  36.796   1.408
52252W        W22852   3.285   5.893   4.215
52253W        W22853  33.963  18.843  12.241
52254W        W22854  21.032  21.738  10.574
52255W        W22855  33.498   3.754   4.787
52256W        W22856   8.610   7.740  11.944
52257W        W22857  33.393  24.620   1.810
52258W        W22858  14.938  32.664  13.008
52259W        W22859  26.925  14.236  10.670
52260W        W22860  41.201  29.896   4.143
52261W        W22861   9.941  22.643   3.972
52262W        W22862  33.496  13.312   9.487
52263W        W22863  30.117  22.799   2.618
52264W        W22864  19.292  39.961  13.688
52265W        W22865  28.590  18.169   3.273
52266W        W22866  36.671  29.681   4.284
52267W        W22867  34.582  19.757  11.594
52268W        W22868  23.728  28.641   1.864
52269W        W22869  19.959  17.551   4.910
52270W        W22870  21.704  31.744   4.012
52271W        W22871  16.240  11.847   1.063
52272W        W22872  19.285  41.060   0.713
52273W        W22873  30.715  42.030   5.493
52274W        W22874  21.650  16.323  14.765
52275W        W22875  24.385  26.519  11.001
52276W        W22876  30.370  30.849  11.577
52277W        W22877  13.363   1.842  13.576
52278W        W22878  23.112  21.718   2.290
52279W        W22879  16.187   7.810   4.835
52280W        W22880  36.091  21.754   4.111
52281W        W22881  21.107   8.442  13.580
52282W        W22882  16.437  24.919   4.448
52283W        W22883   9.399  11.834  10.591
52284W        W22884   8.145  22.477  14.895
52285W        W22885  44.854  36.711  11.191
52286W        W22886  27.551   7.527   4.674
52287W        W22887  37.069  14.727  12.150
52288W        W22888  41.748  15.090  10.595
52289W        W22889  27.008   7.562   3.086
52290W        W22890  23.992  41.217  13.447
52291W        W22891  34.036   6.862   0.178
52292W        W22892  14.954  13.077  10.450
52293W        W22893  19.968  37.351   2.302
52294W        W22894   2.495  11.208  14.770
52295W        W22895   7.419  40.242   2.747
52296W        W22896  12.673  43.582  11.959
52297W        W22897  26.115  34.248  12.037
52298W        W22898  11.464  33.449   5.278
52299W        W22899  31.609  28.203   2.800
52300W        W22900  43.867   4.475   2.455
52301W        W22901  14.738   3.899   0.250
52302W        W22902  31.010   8.219  14.912
52303W        W22903  42.804   7.894   0.437
52304W        W22904  35.633  39.544  14.879
52305W        W22905  40.212   0.727   1.146
52306W        W22906  16.601  33.514   2.115
52307W        W22907  29.039   9.847  14.007
52308W        W22908  32.184  10.862   4.359
52309W        W22909  11.652   5.761  11.915
52310W        W22910  14.532   1.787  10.785
52311W        W22911   9.933   6.742   3.905
52312W        W22912  18.512  24.496   1.847
52313W        W22913   0.031  37.592  11.224
52314W        W22914  23.852   1.460  13.970
52315W        W22915  17.221  13.025   4.672
52316W        W22916  13.270  37.604  10.322
52317W        W22917  23.630  37.407   4.138
52318W        W22918  26.461  38.014  12.352
52319W        W22919  12.556   2.243  13.511
52320W        W22920  26.939  21.107   1.410
52321W        W22921  18.791  13.655   4.666
52322W        W22922   4.851  29.960   0.985
52323W        W22923  42.752  17.001  10.759
52324W        W22924  30.935  17.693  10.781
52325W        W22925   1.981   8.977   0.356
52326W        W22926   2.812   0.895  14.916
52327W        W22927  37.972  10.273   0.274
52328W        W22928  32.131   9.699   2.790
52329W        W22929  16.770   7.232  12.158
52330W        W22930  19.050  29.578   0.702
52331W        W22931   7.968  16.759  13.484
52332W        W22932   0.958  15.666  12.089
52333W        W22933  21.117  43.799   3.244
52334W        W22934  41.093  21.192   1.654
52335W        W22935  41.944  28.635  14.228
52336W        W22936  14.513  32.942  13.855
52337W        W22937  26.711  34.801   4.139
52338W        W22938  41.496  15.064   4.139
52339W        W22939  10.427  18.951   4.978
52340W        W22940  16.997  31.151  12.079
52341W        W22941  36.597   7.649   0.780
52342W        W22942   9.052   7.819   4.101
52343W        W22943  28.132  36.454   2.450
52344W        W22944  15.180  39.104  14.435
52345W        W22945   5.368  41.444  12.520
52346W        W22946  42.657  30.828  13.276
52347W        W22947  17.235  21.688   0.206
52348W        W22948  25.773  38.965   2.207
52349W        W22949  38.803  41.550  14.001
52350W        W22950  29.125   6.645  14.866
52351W        W22951   5.233  16.713  10.946
52352W        W22952  38.110  32.300  12.586
52353W        W22953  43.879   6.885  14.126
52354W        W22954  43.278  38.117  12.883
52355W        W22955  22.575  29.180   3.639
52356W        W22956  42.840  35.266   1.313
52357W        W22957   8.874  18.016  13.470
52358W        W22958  35.509  43.243   2.264
52359W        W22959  22.336   8.603  12.550
52360W        W22960  30.054  23.997  11.538
52361W        W22961  39.065  19.104  12.663
52362W        W22962  44.976  28.017  14.816
52363W        W22963  24.034  41.302   3.884
52364W        W22964  37.446  29.100  11.255
52365W        W22965  33.368  14.198  13.417
52366W        W22966  36.913  14.067  10.867
52367W        W22967  16.126   8.330   1.914
52368W        W22968  27.118  22.707   2.175
52369W        W22969  19.197   5.788   4.638
52370W        W22970   9.803  40.800   2.366
52371W        W22971  43.944  24.197  12.050
52372W        W22972  19.828  29.953   2.305
52373W        W22973   8.241  32.988  13.300
52374W        W22974   4.872  37.010   4.206
52375W        W22975  15.717   7.232  12.191
52376W        W22976   9.107  16.101  11.572
52377W        W22977  37.958  17.292   3.394
52378W        W22978  40.078   2.325  13.926
52379W        W22979   1.503  30.760   0.365
52380W        W22980  13.153  24.797   1.167
52381W        W22981  36.346   6.818  13.562
52382W        W22982  25.337  22.108  11.959
52383W        W22983  24.241  15.594  10.335
52384W        W22984  38.269  35.954   3.373
52385W        W22985   4.215  22.893  11.095
52386W        W22986   9.212  19.811  12.986
52387W        W22987   3.495  40.548   1.931
52388W        W22988  41.234  36.840   0.780
52389W        W22989   8.196  31.378   2.388
52390W        W22990  35.138  26.581   0.210
52391W        W22991  28.185  29.036  10.975
52392W        W22992  30.415  24.565   0.883
52393W        W22993  33.540  15.196   1.695
52394W        W22994  10.242  33.900  14.424
52395W        W22995   4.231  44.258   0.506
52396W        W22996  19.527  20.095  11.343
52397W        W22997  36.523  25.444   1.607
52398W        W22998  35.051  28.939   0.354
52399W        W22999   9.387  10.103  13.929
52400W        W23000  36.494  32.706   4.197
52401W        W23001  14.309   7.716   1.790
52402W        W23002  22.544  12.938   3.164
52403W        W23003  42.518  27.557  12.622
52404W        W23004  14.187  15.380  14.000
52405W        W23005  18.141  14.595  14.696
52406W        W23006   6.490  40.246  14.815
52407W        W23007  15.383   4.632   2.170
52408W        W23008  25.112  34.998   1.523
52409W        W23009  36.546  19.919  12.843
52410W        W23010  44.921  30.930   1.145
52411W        W23011   9.110  35.558  12.347
52412W        W23012  35.523  37.586   0.204
52413W        W23013  29.917   5.505   4.895
52414W        W23014  27.187   4.505   4.195
52415W        W23015  18.149   4.778   2.568
52416W        W23016  22.399  14.818  11.194
52417W        W23017  16.793  13.231   1.268
52418W        W23018  42.096  19.030   2.484
52419W        W23019  19.008  12.266   3.348
52420W        W23020  30.498  17.323  13.438
52421W        W23021  13.382  18.805   4.067
52422W        W23022  40.189   2.436  12.137
52423W        W23023  40.793  14.678  14.839
52424W        W23024   5.918  14.144   1.481
52425W        W23025  11.841  10.387   3.148
52426W        W23026  28.465  29.202   2.516
52427W        W23027   2.709  11.456  11.735
52428W        W23028  42.845   5.902  14.369
52429W        W23029  44.492  33.436   0.247
52430W        W23030  31.059  10.148  12.830
52431W        W23031  22.467  12.690   4.084
52432W        W23032  11.665   3.943  12.866
52433W        W23033  26.481  40.465   0.996
52434W        W23034  44.983  31.646  13.351
52435W        W23035  25.981   3.461  13.270
52436W        W23036  11.602  15.665  12.551
52437W        W23037  39.016  10.814  11.875
52438W        W23038  20.863   3.919   2.529
52439W        W23039  18.666  21.280   4.318
52440W        W23040   1.659  17.570  10.692
52441W        W23041  23.040  36.036   1.355
52442W        W23042  31.496  37.106  11.165
52443W        W23043  42.862  42.499  13.098
52444W        W23044  20.290  22.003   3.963
52445W        W23045  16.327  25.258   2.742
52446W        W23046  12.772  18.043   3.364
52447W        W23047  23.152  32.313  12.883
52448W        W23048  16.506  15.343  13.826
52449W        W23049  10.289  28.583   3.584
52450W        W23050   4.256  16.809  14.910
52451W        W23051  12.198  18.581   0.697
52452W        W23052  32.419  41.028   3.137
52453W        W23053  13.113  41.822   2.687
52454W        W23054  36.311  12.983   1.807
52455W        W23055  12.171   7.657  13.885
52456W        W23056  31.140  27.441  10.692
52457W        W23057  41.808   8.378   1.731
52458W        W23058  38.002  31.907   0.658
52459W        W23059  26.389   0.502  14.963
52460W        W23060   9.939  11.725  10.752
52461W        W23061   0.787  18.632   4.332
52462W        W23062  42.567  44.886   3.045
52463W        W23063  29.424   1.896   4.196
52464W        W23064  30.558  24.852   0.492
52465W        W23065  18.710   7.890   0.295
52466W        W23066   6.151  30.024  10.201
52467W        W23067  27.440  17.371   4.933
52468W        W23068  27.549  10.952  14.863
52469W        W23069  23.718  27.951  12.583
52470W        W23070  31.676  13.927   1.267
52471W        W23071  39.961  18.093   2.824
52472W        W23072  26.050  35.918  13.287
52473W        W23073  10.271  25.456   3.600
52474W        W23074  11.736  40.313  10.990
52475W        W23075  17.175  19.473  12.563
52476W        W23076   1.761   2.497   0.202
52477W        W23077   9.152  31.550   3.105
52478W        W23078  32.105  32.883  13.800
52479W        W23079  26.154  30.470   0.230
52480W        W23080  30.490  16.883   4.161
52481W        W23081   4.151  24.697   3.716
52482W        W23082  32.022  44.535   0.463
52483W        W23083  40.110  43.485  12.282
52484W        W23084   6.996  11.874   3.656
52485W        W23085   0.665  44.471   4.304
52486W        W23086   1.466  18.573  13.401
52487W        W23087  17.777  24.216  14.484
52488W        W23088  16.820  17.038   0.520
52489W        W23089  10.203  15.813   4.614
52490W        W23090  33.822  28.203  12.470
52491W        W23091  20.810  25.239   3.691
52492W        W23092  10.267  41.498  12.611
52493W        W23093  41.766   0.549  13.009
52494W        W23094  34.277   9.207  12.459
52495W        W23095  12.307   3.514   3.121
52496W        W23096   1.557   9.793  11.972
52497W        W23097  16.671   1.403   2.588
52498W        W23098  36.406  30.458  13.492
52499W        W23099  29.958  32.796  10.666
52500W        W23100  35.044  28.430  13.853
52501W        W23101  43.110  36.533  11.326
52502W        W23102  10.066  34.552  10.028
52503W        W23103  32.991   6.772  12.132
52504W        W23104   3.658   3.332  12.621
52505W        W23105  26.138   8.723   3.646
52506W        W23106  30.894  29.232   1.305
52507W        W23107  20.288  18.138   4.181
52508W        W23108  44.756  18.746   1.736
52509W        W23109   7.153   9.895  10.739
52510W        W23110  12.730   1.803   4.647
52511W        W23111  22.021  19.088  14.479
52512W        W23112  30.610  40.424  14.940
52513W        W23113  18.219   9.728  12.685
52514W        W23114  12.576   1.823   4.112
52515W        W23115  25.496   4.137   3.354
52516W        W23116  29.156  24.300  12.074
52517W        W23117  19.614  27.233   0.208
52518W        W23118  16.017  11.734   4.691
52519W        W23119  41.737  33.165  14.500
52520W        W23120  17.780  13.059   5.260
52521W        W23121   6.202  30.598   2.669
52522W        W23122  32.663  17.252   0.921
52523W        W23123  42.549  17.324   0.243
52524W        W23124  31.509  12.912  13.465
52525W        W23125   9.756  31.576   3.795
52526W        W23126  28.692   2.416   2.255
52527W        W23127  40.041  18.619   1.674
52528W        W23128  15.748  22.099   2.134
52529W        W23129  32.289  44.513   2.384
52530W        W23130  30.692  25.607   4.137
52531W        W23131   9.399  39.052  13.900
52532W        W23132  17.268   6.813   4.720
52533W        W23133   2.226   4.314  12.938
52534W        W23134   4.222  16.227  14.085
52535W        W23135  26.263  40.824   0.010
52536W        W23136  35.574   2.820   2.496
52537W        W23137  40.649  38.883  14.861
52538W        W23138  30.680  28.415   3.455
52539W        W23139  41.325  16.760  12.516
52540W        W23140   7.133  18.657   0.070
52541W        W23141  25.213  19.752   2.212
52542W        W23142  10.958  22.143   1.925
52543W        W23143  41.353  12.398  14.801
52544W        W23144  43.675  37.886  11.648
52545W        W23145  12.254  25.515   0.124
52546W        W23146  24.736  34.059  11.978
52547W        W23147  39.527  15.995   3.072
52548W        W23148   5.826  31.673   2.448
52549W        W23149  24.944  38.925  10.639
52550W        W23150  31.620  40.511  12.621
52551W        W23151   1.503   4.587  14.085
52552W        W23152  36.918  41.631  13.598
52553W        W23153  15.573  22.518  12.533
52554W        W23154  31.448  44.844   2.548
52555W        W23155   4.332   3.966  11.979
52556W        W23156  12.915  17.211  14.131
52557W        W23157  43.332   2.743   1.284
52558W        W23158  39.908  21.546  12.687
52559W        W23159   5.707   0.572   4.177
52560W        W23160  20.828  15.894  14.773
52561W        W23161   3.171  13.924  13.919
52562W        W23162  12.190   2.373   2.298
52563W        W23163   8.401   1.270   1.784
52564W        W23164   8.593  25.935  11.075
52565W        W23165  11.278  27.436   0.428
52566W        W23166  20.152  16.378   0.881
52567W        W23167  12.360  14.330   2.927
52568W        W23168  11.606  24.507   1.748
52569W        W23169   5.293  42.264  11.589
52570W        W23170  21.286  19.827  14.341
52571W        W23171   0.268  19.323  13.445
52572W        W23172   8.237  23.805  12.847
52573W        W23173  42.459  37.301  13.694
52574W        W23174  30.591   9.516  13.768
52575W        W23175   4.272  26.720   0.371
52576W        W23176  38.122  22.664  12.903
52577W        W23177  10.831  40.378  12.052
52578W        W23178  13.741  12.535   1.966
52579W        W23179  17.093  22.617   1.905
52580W        W23180  30.706  31.662   4.640
52581W        W23181  10.232  13.861  11.676
52582W        W23182  20.338  42.784  11.269
52583W        W23183  35.145   6.109  12.324
52584W        W23184  24.534   4.349  11.599
52585W        W23185   0.294  33.155  10.791
52586W        W23186  25.593  39.994   2.730
52587W        W23187  10.205  29.534  12.414
52588W        W23188  11.618  20.418  13.693
52589W        W23189  11.780   9.896   1.265
52590W        W23190   5.342  44.717   4.117
52591W        W23191  10.296  16.092  13.476
52592W        W23192   1.938  13.230   4.184
52593W        W23193  42.470  18.552   1.154
52594W        W23194  12.604  19.985  10.582
52595W        W23195  19.235   0.325  13.398
52596W        W23196  40.824  18.892  11.249
52597W        W23197  15.048  37.128  12.498
52598W        W23198  28.533  23.759  13.931
52599W        W23199   4.246   8.828  10.825
52600W        W23200  16.791   4.275   1.911
52601W        W23201  16.626   4.682  13.890
52602W        W23202  12.639  39.950  11.177
52603W        W23203  37.428   6.991   0.723
52604W        W23204   8.322  16.566   3.417
52605W        W23205  26.095  44.318   0.717
52606W        W23206  12.181  32.114  14.980
52607W        W23207  31.609  25.146  14.298
52608W        W23208   1.863  35.679  14.603
52609W        W23209  30.773   6.183   3.362
52610W        W23210   0.347  20.965   0.810
52611W        W23211  32.307  15.758   5.084
52612W        W23212  13.803  16.917  11.981
52613W        W23213   2.953  15.266   3.390
52614W        W23214  17.703  31.884   1.943
52615W        W23215  27.031  41.340   2.356
52616W        W23216  32.567  34.138   2.280
52617W        W23217  36.028   7.676   3.353
52618W        W23218  13.835  44.695  13.877
52619W        W23219  29.470  32.031   1.717
52620W        W23220  30.544  42.929   2.028
52621W        W23221   4.276   1.808  10.535
52622W        W23222  25.515  18.946  11.226
52623W        W23223   4.720  15.642   3.278
52624W        W23224  33.920   3.007   0.746
52625W        W23225  24.871   8.272   0.435
52626W        W23226  44.983  14.303  12.562
52627W        W23227   1.978   0.137   4.261
52628W        W23228  10.900   4.788   0.043
52629W        W23229  22.353  30.088  14.329
52630W        W23230   9.305  35.700  11.460
52631W        W23231   5.132  18.015  12.357
52632W        W23232  44.555   6.934  14.796
52633W        W23233   7.351  38.029   0.513
52634W        W23234  34.627   4.144   0.840
52635W        W23235  37.180  37.094   4.457
52636W        W23236  44.784   0.947  12.560
52637W        W23237  35.516  24.288  14.443
52638W        W23238  38.236  22.974  12.426
52639W        W23239  40.394  16.741  12.740
52640W        W23240  21.554   6.764  13.406
52641W        W23241   0.501  21.470   1.857
52642W        W23242  10.949   8.767  11.541
52643W        W23243  18.638  37.107  13.348
52644W        W23244  41.022   8.839  11.047
52645W        W23245  43.561  13.393  11.677
52646W        W23246   6.117  34.027  13.636
52647W        W23247  12.247   1.009  12.600
52648W        W23248  35.667  40.057   1.707
52649W        W23249  16.435  44.707  11.232
52650W        W23250  18.729   9.239   4.093
52651W        W23251  15.188  31.024   1.282
52652W        W23252  33.416  17.951   3.761
52653W        W23253  44.960  44.390   3.641
52654W        W23254  35.295  28.621   2.862
52655W        W23255  26.994  12.204   5.095
52656W        W23256  25.609  38.423  10.580
52657W        W23257  43.351  40.041   1.694
52658W        W23258   0.669  40.557  14.955
52659W        W23259  42.576  18.636  12.330
52660W        W23260  14.235  44.078   1.255
52661W        W23261  37.052  21.326   3.174
52662W        W23262   9.085  26.403   4.167
52663W        W23263   8.634   0.490   0.286
52664W        W23264  36.878  32.593   0.217
52665W        W23265  11.858  43.092  14.272
52666W        W23266  35.985   5.684   2.893
52667W        W23267  15.535  13.953   4.446
52668W        W23268  36.965   9.553   1.905
52669W        W23269  18.254   1.164  12.543
52670W        W23270  40.980  43.910   0.423
52671W        W23271  12.754  33.369  11.581
52672W        W23272  36.033  13.434  10.838
52673W        W23273  36.444  25.748  13.022
52674W        W23274   3.691  20.193   2.321
52675W        W23275  27.562   7.961  14.148
52676W        W23276  20.223  32.338  10.792
52677W        W23277   0.176   6.932   2.399
52678W        W23278  43.455  35.081  11.157
52679W        W23279  35.353   0.917   4.336
52680W        W23280  13.181  33.890  10.994
52681W        W23281  22.869   6.906  14.133
52682W        W23282  15.742   3.465   1.918
52683W        W23283  29.572   9.781  13.940
52684W        W23284  40.107   5.564  11.501
52685W        W23285  42.880  21.268  12.801
52686W        W23286  28.410  31.543  13.113
52687W        W23287  33.356  34.269  11.541
52688W        W23288  20.984  30.151   4.872
52689W        W23289  19.539  22.657  12.102
52690W        W23290  18.304  16.665   3.748
52691W        W23291  17.599   9.876   3.230
52692W        W23292  20.007  44.556   3.342
52693W        W23293  23.563  18.077   1.412
52694W        W23294  39.565  14.077   1.871
52695W        W23295   1.305   6.168  13.005
52696W        W23296   0.781   3.222  12.958
52697W        W23297  20.448  24.047  13.431
52698W        W23298  22.139  28.171   2.912
52699W        W23299  13.341  42.276   0.787
52700W        W23300   9.059   4.942  13.725
52701W        W23301  39.784  40.718   0.321
52702W        W23302  31.560  22.811   3.205
52703W        W23303  14.191  41.236   0.520
52704W        W23304   2.813  34.430  12.934
52705W        W23305  42.711  36.716   4.608
52706W        W23306  12.640   6.840  12.169
52707W        W23307   3.525   0.835  14.009
52708W        W23308  42.498   7.752  12.057
52709W        W23309   4.283  25.493  12.850
52710W        W23310  28.458  40.424  11.180
52711W        W23311  16.172   5.521   1.786
52712W        W23312  37.471  10.875  14.839
52713W        W23313   7.782  25.535  13.045
52714W        W23314  35.984   0.512  11.668
52715W        W23315  33.460  19.863  10.667
52716W        W23316   9.350  33.479  14.047
52717W        W23317  18.063  13.051  11.446
52718W        W23318  19.048  23.701   1.976
52719W        W23319  21.092  18.650  10.890
52720W        W23320  28.945  21.404   2.293
52721W        W23321   0.456   5.908   1.719
52722W        W23322  27.295  14.177  11.572
52723W        W23323  32.861  33.160  11.583
52724W        W23324   4.829  40.305  11.726
52725W        W23325  36.038  15.595  14.222
52726W        W23326  16.909  37.645   1.834
52727W        W23327  33.939  36.123  12.108
52728W        W23328  23.527  12.826   4.530
52729W        W23329  40.821  41.440  12.431
52730W        W23330  40.466  39.473   4.637
52731W        W23331  21.538   6.777  10.711
52732W        W23332  33.795  16.313   3.248
52733W        W23333  16.614  12.769   3.763
52734W        W23334   7.438  21.830   3.717
52735W        W23335  42.211  33.469  12.308
52736W        W23336   1.508   0.840  12.343
52737W        W23337   3.720  38.633  10.524
52738W        W23338   2.441  11.803  13.600
52739W        W23339   5.313  30.756   3.779
52740W        W23340  25.542  42.936   0.778
52741W        W23341  36.410   3.771  10.439
52742W        W23342  21.735  27.010  11.974
52743W        W23343   8.509  22.937  10.693
52744W        W23344  24.557   5.790  13.343
52745W        W23345  41.531  44.889  13.771
52746W        W23346  42.929  42.756   4.605
52747W        W23347  14.805  32.409  12.586
52748W        W23348  30.129   2.420  14.009
52749W        W23349   2.757  12.645   2.717
52750W        W23350  30.600   5.024   0.667
52751W        W23351   1.068  22.666   3.236
52752W        W23352  13.676  33.610  12.025
52753W        W23353  26.098  28.467  10.690
52754W        W23354  32.507  17.803  11.251
52755W        W23355  41.459   7.820  10.724
52756W        W23356  39.531  42.020   1.326
52757W        W23357   8.800  28.368   1.854
52758W        W23358  27.876  40.053   2.847
52759W        W23359  11.403  10.583   3.771
52760W        W23360   8.422  21.264   1.779
52761W        W23361  41.427  38.992   1.388
52762W        W23362  16.832  29.260   2.787
52763W        W23363  34.146  27.926  10.352
52764W        W23364  32.470  41.370  12.100
52765W        W23365  42.110  19.914   0.914
52766W        W23366  22.727   0.224  13.830
52767W        W23367  16.020   1.505   1.454
52768W        W23368  43.294  11.263  14.818
52769W        W23369  40.448  29.016  12.320
52770W        W23370  22.332  31.905  14.376
52771W        W23371  34.392  23.961  14.501
52772W        W23372  39.639  19.680  13.893
52773W        W23373   3.653  24.730  11.550
52774W        W23374  16.966  42.349  10.679
52775W        W23375  41.486  34.809  12.062
52776W        W23376  12.736   5.789   1.670
52777W        W23377  12.626   0.717   2.414
52778W        W23378   0.376  30.705   3.028
52779W        W23379  13.752   3.935   2.656
52780W        W23380   1.236  25.912   4.028
52781W        W23381  24.246   8.875  10.282
52782W        W23382  29.867  31.399  11.159
52783W        W23383  18.073  21.101   0.872
52784W        W23384  21.938  38.294   3.744
52785W        W23385  21.710  25.631  10.649
52786W        W23386  26.685  32.500   3.071
52787W        W23387  39.470  31.574  12.018
52788W        W23388  36.535  34.563   2.864
52789W        W23389  14.184  33.043   0.906
52790W        W23390  24.228  36.562  11.581
52791W        W23391  13.952  21.621  12.887
52792W        W23392   4.711  16.727   0.233
52793W        W23393  40.499  30.213  10.779
52794W        W23394   4.452  35.398   5.113
52795W        W23395  13.793  37.800  13.006
52796W        W23396  19.784   9.181   2.313
52797W        W23397  35.934   3.848  14.867
52798W        W23398  14.640  42.061   0.389
52799W        W23399  11.138  18.686   1.756
52800W        W23400  36.475  42.963  14.769
52801W        W23401  36.684  25.077  13.495
52802W        W23402  16.134  18.222  10.598
52803W        W23403  12.456  25.012  10.961
52804W        W23404  31.057  29.141  11.544
52805W        W23405   6.739  18.783  10.610
52806W        W23406  44.731  23.248   0.389
52807W        W23407  36.510  37.448  12.809
52808W        W23408  12.668  15.000  11.160
52809W        W23409   4.523  37.851   0.890
52810W        W23410  18.552  38.987  11.300
52811W        W23411  12.926  33.566   2.025
52812W        W23412  17.107  11.735   1.870
52813W        W23413  28.460  34.253   3.704
52814W        W23414   5.405  17.947  14.481
52815W        W23415   7.756  15.825   0.446
52816W        W23416  38.964  44.562   1.341
52817W        W23417  42.923  23.786   4.823
52818W        W23418  16.995  15.083   1.058
52819W        W23419   7.756   7.321   3.038
52820W        W23420  32.834  40.873   0.415
52821W        W23421  44.477  21.142   4.533
52822W        W23422  40.241  29.989  12.395
52823W        W23423  41.027  40.024   1.212
52824W        W23424  44.037   5.374  11.183
52825W        W23425  20.158   7.166  12.162
52826W        W23426   7.321  32.649  11.974
52827W        W23427  25.535   1.456   0.349
52828W        W23428  17.144  35.475  13.492
52829W        W23429  40.735   2.737   3.700
52830W        W23430  37.966  42.448   4.067
52831W        W23431   9.909  18.808  13.535
52832W        W23432   8.176   7.755  11.666
52833W        W23433  35.076  27.102  11.571
52834W        W23434  14.811  15.765  13.516
52835W        W23435  41.094  21.570  13.886
52836W        W23436  19.999  15.657  14.355
52837W        W23437  15.637  30.110  14.120
52838W        W23438  30.699  38.913   5.399
52839W        W23439   7.793  26.971  14.230
52840W        W23440  27.026  29.053  11.037
52841W        W23441  18.288   6.611  13.880
52842W        W23442  12.621  19.291   3.196
52843W        W23443  24.726  39.556   0.697
52844W        W23444  33.412   2.438   1.743
52845W        W23445   7.009   0.257   2.400
52846W        W23446  37.856  39.940   0.971
52847W        W23447  28.115  39.308   3.234
52848W        W23448  43.056   2.365   2.016
52849W        W23449   0.891  16.345  14.440
52850W        W23450  44.066  30.652   1.877
52851W        W23451  42.454  14.585   1.420
52852W        W23452  33.648   1.707   1.280
52853W        W23453   6.902  30.447   0.503
52854W        W23454  15.201   1.771  12.993
52855W        W23455  12.789   1.784   3.254
52856W        W23456  22.463  31.083   2.631
52857W        W23457  26.276   9.258   0.411
52858W        W23458  34.671   4.337   2.284
52859W        W23459   2.517   8.600  14.517
52860W        W23460  20.073  21.971  13.863
52861W        W23461  15.692  17.370   4.563
52862W        W23462  15.235  13.623   2.522
52863W        W23463  38.775  37.649  14.418
52864W        W23464  44.134  27.306  11.214
52865W        W23465  32.517  11.416   1.910
52866W        W23466  39.529  34.119   0.029
52867W        W23467  27.084   7.143  11.108
52868W        W23468  33.802   6.903  12.513
52869W        W23469   2.426   1.404  13.491
52870W        W23470  17.692   1.688  14.842
52871W        W23471  10.003  33.927   4.692
52872W        W23472  35.166  13.155  13.059
52873W        W23473  37.451   0.973  14.633
52874W        W23474  26.447   8.369   1.345
52875W        W23475  38.465  34.636   2.946
52876W        W23476  33.546  41.912  12.606
52877W        W23477  34.273   4.005   1.199
52878W        W23478  16.135  14.187  11.117
52879W        W23479  23.779  20.719   0.119
52880W        W23480  18.298  31.178   3.683
52881W        W23481  33.442  33.787  11.659
52882W        W23482   0.764   9.662   1.428
52883W        W23483  25.226  31.078   0.734
52884W        W23484   3.483  21.569  10.417
52885W        W23485  15.545  25.433  14.545
52886W        W23486   4.178  38.725   2.806
52887W        W23487   0.764   5.658  14.935
52888W        W23488   9.177  22.256   0.668
52889W        W23489  33.828  43.508  12.098
52890W        W23490  42.527  38.829   3.778
52891W        W23491  36.526  29.937   1.427
52892W        W23492  18.430  16.743  12.281
52893W        W23493  39.678   1.430   2.350
52894W        W23494  13.398  30.494  11.880
52895W        W23495   9.636  26.985  12.469
52896W        W23496  43.122  35.360  14.420
52897W        W23497  31.350  14.399  12.402
52898W        W23498  37.825  13.723   1.361
52899W        W23499  28.714  30.402   4.937
52900W        W23500  39.957  29.093  13.499
52901W        W23501   5.496   8.239  14.353
52902W        W23502  27.895  13.202   2.030
52903W        W23503  13.075   3.896  13.944
52904W        W23504  43.131   0.500   2.800
52905W        W23505  26.577  22.996   2.776
52906W        W23506  15.810  42.406   2.859
52907W        W23507  14.943   4.313  14.992
52908W        W23508  35.843  41.485  13.022
52909W        W23509   2.969   5.962  13.508
52910W        W23510  17.467  33.533  13.398
52911W        W23511  36.078  36.486  14.424
52912W        W23512  11.289  41.893  10.463
52913W        W23513  43.657  26.007   2.158
52914W        W23514  37.525  32.034  14.855
52915W        W23515  15.617   7.578   4.116
52916W        W23516  21.028  22.405   3.845
52917W        W23517  28.597  34.843   1.403
52918W        W23518  16.607  21.764   2.945
52919W        W23519  41.771   5.877  13.357
52920W        W23520  30.601  44.292  12.328
52921W        W23521  24.647  35.953   3.356
52922W        W23522  15.835  32.939   2.936
52923W        W23523   4.685  34.600  11.872
52924W        W23524  34.459  20.275   0.311
52925W        W23525  34.214  37.772   2.753
52926W        W23526   8.378   8.205   4.366
52927W        W23527  12.257  13.135   2.843
52928W        W23528  36.873  22.189  13.922
52929W        W23529  27.561  26.351  14.460
52930W        W23530  40.756  23.704   1.659
52931W        W23531  27.503   2.799  11.390
52932W        W23532  37.046  39.268   3.469
52933W        W23533   7.739   9.048   5.330
52934W        W23534  20.085  38.872   3.741
52935W        W23535  36.854  24.699   0.303
52936W        W23536  14.756  44.598  13.078
52937W        W23537   8.457  39.936   1.228
52938W        W23538  35.530   4.570  12.574
52939W        W23539  20.319  31.038   2.571
52940W        W23540  29.510   9.446   1.239
52941W        W23541  32.218  25.925   0.017
52942W        W23542   7.691  44.752  14.171
52943W        W23543  18.767  20.696   1.988
52944W        W23544   9.597  14.652  11.656
52945W        W23545  35.226  28.903   4.487
52946W        W23546  38.328   7.358   3.702
52947W        W23547  38.567  24.905  14.732
52948W        W23548  23.645  32.639  12.101
52949W        W23549  26.127  33.367   3.502
52950W        W23550  42.531  11.869   2.125
52951W        W23551  38.324  24.911  12.070
52952W        W23552  36.971  26.552  11.113
52953W        W23553  43.302  10.339  11.427
52954W        W23554   7.347  27.223   3.148
52955W        W23555  29.625  19.547   0.317
52956W        W23556   3.617  36.582  11.898
52957W        W23557  32.539  43.338  12.144
52958W        W23558  24.689  44.324  12.915
52959W        W23559   1.659  19.017  11.635
52960W        W23560  42.008  43.845  10.635
52961W        W23561   5.669  40.725  10.697
52962W        W23562  15.101  32.143   2.884
52963W        W23563  17.403  43.147  12.421
52964W        W23564  31.836  20.031   3.727
52965W        W23565   8.648  23.909   2.899
52966W        W23566  34.097  11.426   4.603
52967W        W23567   9.788  17.694   0.054
52968W        W23568  13.212   8.151   4.716
52969W        W23569  20.152  37.624  13.611
52970W        W23570  16.015  12.152   2.651
52971W        W23571   2.557  36.783  11.189
52972W        W23572  42.561  27.393   3.550
52973W        W23573  19.042  40.600   0.655
52974W        W23574  17.294  16.301   0.487
52975W        W23575  10.166  36.811  10.597
52976W        W23576  37.918   7.207   1.618
52977W        W23577  30.697  44.269   1.970
52978W        W23578   3.906  35.138  14.341
52979W        W23579  14.742  36.374  14.330
52980W        W23580  10.731  24.490   4.454
52981W        W23581  33.109  39.397   1.875
52982W        W23582  38.996  28.876  13.888
52983W        W23583   9.014   0.629  13.380
52984W        W23584   0.550  37.911  13.005
52985W        W23585  25.518  26.104  14.402
52986W        W23586  14.848  11.339  10.136
52987W        W23587  28.212   5.897  10.730
52988W        W23588  17.259  31.093   3.655
52989W        W23589  41.856  17.597  13.918
52990W        W23590  41.448   0.930  11.071
52991W        W23591  24.935  34.360  13.384
52992W        W23592  25.005  41.588  14.569
52993W        W23593  12.829   8.619   4.028
52994W        W23594  41.275  27.245  12.533
52995W        W23595  17.946  28.885  14.893
52996W        W23596  25.113  10.502  10.620
52997W        W23597  24.551  29.192  10.750
52998W        W23598  14.620  15.610   1.897
52999W        W23599   9.880   1.308  10.940
53000W        W23600   3.281  34.046  11.362
53001W        W23601  39.055  28.120   2.930
53002W        W23602  15.163  42.504   1.111
53003W        W23603  43.807  40.135   1.380
53004W        W23604   6.930  16.970   3.093
53005W        W23605  38.005  22.720   3.123
53006W        W23606  37.909  23.891   1.193
53007W        W23607  44.469  40.908  12.404
53008W        W23608  14.865  30.208   2.339
53009W        W23609  36.012  31.128  12.329
53010W        W23610  39.269  28.388   3.729
53011W        W23611  38.479  44.869   3.027
53012W        W23612  20.152  33.561  10.074
53013W        W23613  16.895  44.011  14.838
53014W        W23614  25.603   1.950  14.557
53015W        W23615  40.629   3.707  14.973
53016W        W23616   9.142  14.507  11.445
53017W        W23617  25.139  15.220  12.795
53018W        W23618   9.096  25.058  13.563
53019W        W23619  43.757   8.661   4.128
53020W        W23620  30.509  25.959   3.276
53021W        W23621  35.659  43.732   3.247
53022W        W23622  27.986  23.008   0.753
53023W        W23623  29.429  21.720   0.292
53024W        W23624  37.244  28.215  11.597
53025W        W23625  10.704  18.439   4.048
53026W        W23626  39.399  19.483   3.560
53027W        W23627  32.101  24.995   3.336
53028W        W23628  25.006  43.327   0.725
53029W        W23629   1.942  43.512  11.076
53030W        W23630   9.425   3.460  10.694
53031W        W23631  20.153  26.196  14.916
53032W        W23632  19.552  12.076   1.958
53033W        W23633   2.375  34.458   1.721
53034W        W23634  17.621   3.619   0.964
53035W        W23635  41.282  36.387   1.009
53036W        W23636  18.546  17.638  12.943
53037W        W23637  22.762  36.345  11.635
53038W        W23638  21.801  42.575   3.784
53039W        W23639  16.044  43.014   1.646
53040W        W23640   1.791  33.133  13.775
53041W        W23641  20.049  13.263   3.198
53042W        W23642   6.883  34.063   2.376
53043W        W23643  34.299  20.305  13.093
53044W        W23644   7.645  39.372   4.551
53045W        W23645  24.597  13.572  13.822
53046W        W23646   6.394  24.924   2.852
53047W        W23647   3.266   4.697   0.046
53048W        W23648  40.774  16.424  11.016
53049W        W23649  41.235   1.444  11.600
53050W        W23650  14.157  32.763   0.442
53051W        W23651  15.422  35.926  11.186
53052W        W23652  25.421  40.425  10.671
53053W        W23653  25.214  38.767   4.120
53054W        W23654  20.721  11.180  14.454
53055W        W23655   6.422  35.396   3.563
53056W        W23656   6.484  16.200  10.326
53057W        W23657  42.992   3.247   4.302
53058W        W23658  22.129   0.994   4.839
53059W        W23659  15.841   1.675  11.167
53060W        W23660  32.524  15.431  12.488
53061W        W23661  29.709  25.598  11.593
53062W        W23662  31.880  15.404  14.424
53063W        W23663  12.516  41.969   4.059
53064W        W23664  29.627  41.823   4.911
53065W        W23665   4.636  21.182   4.741
53066W        W23666   3.612  20.771  10.345
53067W        W23667  29.097   4.919  13.339
53068W        W23668  32.198  32.262   4.525
53069W        W23669   7.729  17.218   4.647
53070W        W23670  31.206  22.285  10.979
53071W        W23671  30.567  23.441  14.433
53072W        W23672  12.076   0.208   2.732
53073W        W23673  12.636  30.106  13.376
53074W        W23674  30.621  18.041   0.106
53075W        W23675  21.277  35.938  10.746
53076W        W23676  13.368  20.609  13.369
53077W        W23677  32.532  17.004   4.228
53078W        W23678  26.489  28.419  13.008
53079W        W23679  10.801   0.877   4.743
53080W        W23680  22.640   8.764  14.757
53081W        W23681   5.337   1.661   1.237
53082W        W23682  28.469  11.192   0.392
53083W        W23683  31.207   3.419   0.711
53084W        W23684   9.094   2.845   3.301
53085W        W23685   3.242  18.382   0.427
53086W        W23686  36.801  15.984   1.284
53087W        W23687   7.710  37.755  13.850
53088W        W23688  12.210  17.067  12.418
53089W        W23689  14.306   7.316  14.451
53090W        W23690  41.073   6.739  11.155
53091W        W23691  11.083  14.723   2.221
53092W        W23692   1.729  25.682   4.582
53093W        W23693   0.400  41.421   3.116
53094W        W23694   3.752   1.397   3.740
53095W        W23695  19.303  44.083  13.416
53096W        W23696  20.714  37.567   1.276
53097W        W23697  39.116  19.255   2.314
53098W        W23698  37.914  31.519   3.127
53099W        W23699  30.940  13.187  12.916
53100W        W23700   7.377   5.224   4.620
53101W        W23701  34.877  23.043  11.387
53102W        W23702  32.900  26.981   0.956
53103W        W23703  40.268  31.363   2.541
53104W        W23704  18.138  12.038  14.385
53105W        W23705  43.923  22.987  13.513
53106W        W23706  43.355  18.908  12.977
53107W        W23707  33.926   4.820  12.237
53108W        W23708   1.983  32.590   5.002
53109W        W23709  34.266  27.766   3.369
53110W        W23710  22.168  42.193   3.144
53111W        W23711  25.971  25.567   4.795
53112W        W23712  23.300  38.496  14.795
53113W        W23713   6.780  12.605   3.228
53114W        W23714   7.967  20.304  12.813
53115W        W23715  43.446   9.145   3.281
53116W        W23716   5.983  34.422  11.205
53117W        W23717  25.498  34.469  11.283
53118W        W23718  12.831  20.215  11.058
53119W        W23719  10.109  35.416   2.702
53120W        W23720  37.093  39.053  12.261
53121W        W23721  21.160  42.417  11.678
53122W        W23722  16.725  41.722   1.373
53123W        W23723  41.070  37.766  14.301
53124W        W23724  14.309  24.596   2.414
53125W        W23725   0.348  18.284  14.349
53126W        W23726  21.037  23.580   1.776
53127W        W23727  35.460  35.358   2.249
53128W        W23728  31.026  16.295   1.230
53129W        W23729  10.317   4.886   2.351
53130W        W23730  33.466  35.060   3.998
53131W        W23731  40.047  43.946  11.678
53132W        W23732   5.667  25.756  11.567
53133W        W23733   9.250  10.080  14.890
53134W        W23734   0.818  25.951  13.984
53135W        W23735  38.399  22.961   2.875
53136W        W23736  30.886  18.904   0.352
53137W        W23737  23.766  19.669  12.352
53138W        W23738   6.703  40.048  12.580
53139W        W23739  12.221   7.213  14.853
53140W        W23740  43.141   2.315   1.493
53141W        W23741  27.655  24.888   0.743
53142W        W23742  24.390  27.576   0.365
53143W        W23743  15.662  22.635  13.967
53144W        W23744  31.132  24.959  10.875
53145W        W23745   3.011  30.574  14.931
53146W        W23746   2.856  31.860  13.377
53147W        W23747  33.448  21.616   0.881
53148W        W23748  43.122   4.459   0.886
53149W        W23749  20.597  30.333   4.563
53150W        W23750  13.708  23.505  13.839
53151W        W23751  18.808   2.226  10.682
53152W        W23752   5.362  10.796  12.870
53153W        W23753   6.118  41.450  14.355
53154W        W23754  40.614  28.394   3.647
53155W        W23755  38.105  34.664  12.866
53156W        W23756  10.670  27.694   4.102
53157W        W23757  14.072  18.663  12.110
53158W        W23758   6.258  18.019   2.263
53159W        W23759  41.709  12.278   1.937
53160W        W23760   8.272  33.201   1.912
53161W        W23761  11.052  10.306  12.611
53162W        W23762   8.219  34.719  12.050
53163W        W23763  28.488  13.728   1.695
53164W        W23764  37.432  11.940  10.781
53165W        W23765   0.458  43.797  10.671
53166W        W23766   4.897  20.061  11.839
53167W        W23767  19.766  17.114   0.368
53168W        W23768  38.263  20.645   0.817
53169W        W23769  40.852   3.304   5.024
53170W        W23770  39.383  35.619   0.422
53171W        W23771  16.825  10.709   0.546
53172W        W23772  40.570   2.653  13.343
53173W        W23773  16.660  34.578   3.584
53174W        W23774  10.625  25.925  13.161
53175W        W23775  13.203   4.638  14.487
53176W        W23776  11.132  41.568   4.543
53177W        W23777  39.093  41.489  11.324
53178W        W23778  30.363  38.583   1.823
53179W        W23779  12.395  27.602  14.229
53180W        W23780  44.260  29.171  13.040
53181W        W23781  13.722   2.025   3.188
53182W        W23782  30.464  30.311  13.461
53183W        W23783   9.021  34.140   3.726
53184W        W23784  25.073  40.465   0.333
53185W        W23785  28.526  39.355  13.040
53186W        W23786  18.495  43.520  12.029
53187W        W23787  14.383   0.353  12.560
53188W        W23788  13.154  18.474  14.051
53189W        W23789  22.733  10.621  12.111
53190W        W23790  19.530  41.316   2.312
53191W        W23791  24.186  24.968  14.039
53192W        W23792  15.444  24.551   3.221
53193W        W23793  27.683  15.944  14.211
53194W        W23794  28.528  33.611  14.021
53195W        W23795  19.523  16.066   2.909
53196W        W23796  25.731   4.199   5.008
53197W        W23797   3.684   8.767  13.035
53198W        W23798  12.962  23.953   1.257
53199W        W23799  26.574  27.709   2.834
53200W        W23800  44.062  37.413   2.542
53201W        W23801  19.025  28.104  14.966
53202W        W23802  11.410  19.108   2.302
53203W        W23803  27.414  38.032  12.485
53204W        W23804  22.691  43.749   3.679
53205W        W23805   3.482  38.898  12.976
53206W        W23806  37.429  14.080   2.228
53207W        W23807  40.829  11.372  13.332
53208W        W23808  25.227  11.001  13.764
53209W        W23809  13.988  41.846   4.216
53210W        W23810  19.732  36.050   0.367
53211W        W23811  35.394  20.983   3.526
53212W        W23812  31.299  39.430  12.062
53213W        W23813  31.803  33.408   3.329
53214W        W23814   4.369  13.816  14.499
53215W        W23815  39.892  44.517   4.793
53216W        W23816   1.886  35.345  14.992
53217W        W23817  43.941   4.868   0.509
53218W        W23818  34.586  26.182  10.942
53219W        W23819  31.962  16.039  10.000
53220W        W23820  33.927  32.906   4.604
53221W        W23821  39.091  30.275  13.375
53222W        W23822  11.827   2.199   3.215
53223W        W23823  43.997   9.097   2.433
53224W        W23824  36.630  41.457  12.073
53225W        W23825   9.241  25.743   1.054
53226W        W23826  19.158  18.852  11.701
53227W        W23827  39.628   6.278   3.081
53228W        W23828   9.386   1.364  14.510
53229W        W23829  44.003  10.661   1.219
53230W        W23830  30.485  42.752  10.760
53231W        W23831  35.426  13.341  13.841
53232W        W23832  17.013  43.796   2.746
53233W        W23833  35.048  26.934   4.225
53234W        W23834  12.752   1.554  10.628
53235W        W23835  31.241   2.675   3.306
53236W        W23836  43.046  28.123  11.478
53237W        W23837  30.047  36.365   2.258
53238W        W23838  11.555  18.226  11.182
53239W        W23839  43.358  12.564  11.595
53240W        W23840  14.233  17.210  13.674
53241W        W23841  12.575  28.870  13.627
53242W        W23842  25.519   5.173   1.469
53243W        W23843  17.590   6.649  10.646
53244W        W23844  36.981   0.927  11.164
53245W        W23845   1.414  14.525   1.979
53246W        W23846  24.720  31.369   1.391
53247W        W23847  25.603  38.281   1.742
53248W        W23848  31.730  12.098  12.506
53249W        W23849   3.607  32.399  11.820
53250W        W23850  41.959  44.553  14.849
53251W        W23851  20.167   6.854  13.027
53252W        W23852   1.740  29.226   3.618
53253W        W23853  19.050  33.013  11.070
53254W        W23854  41.847  19.597  10.219
53255W        W23855   7.673  23.514   3.480
53256W        W23856  38.074  24.709   0.858
53257W        W23857  28.682   7.821   2.571
53258W        W23858  25.016  36.043   4.250
53259W        W23859  15.040  24.133   0.508
53260W        W23860  14.113  34.859  13.912
53261W        W23861  36.886  32.865  13.514
53262W        W23862   7.922  37.510  10.549
53263W        W23863  44.745   7.689   0.682
53264W        W23864   9.861  29.755   2.436
53265W        W23865   2.211  31.886   2.391
53266W        W23866  37.132  16.793   4.586
53267W        W23867  34.579   0.805  10.996
53268W        W23868  28.656  38.891   1.393
53269W        W23869   8.348  43.014  12.922
53270W        W23870  35.772  32.017   1.174
53271W        W23871   8.704  20.195  12.445
53272W        W23872  15.112   1.559  12.495
53273W        W23873   4.817   3.387  14.289
53274W        W23874  40.334  13.592   4.535
53275W        W23875  18.804  16.677   3.901
53276W        W23876  34.492  41.852  11.093
53277W        W23877  13.865  14.634  12.374
53278W        W23878  23.903  39.028  11.055
53279W        W23879  42.214   8.784  12.503
53280W        W23880   3.314  11.695  12.461
53281W        W23881  36.403   3.714  10.951
53282W        W23882  33.145  31.100   3.771
53283W        W23883  21.092  42.979   1.265
53284W        W23884  43.982  36.065   3.161
53285W        W23885  32.643  35.109   4.188
53286W        W23886  19.626  29.435   2.528
53287W        W23887  22.723  32.527  12.176
53288W        W23888  28.403  42.810  10.691
53289W        W23889  37.444  30.110  11.829
53290W        W23890  18.703  18.111  14.655
53291W        W23891  31.119  16.338   2.140
53292W        W23892  44.010  44.197  11.985
53293W        W23893  16.292   0.266   1.685
53294W        W23894  31.370  25.259  13.862
53295W        W23895  39.027  18.531   1.004
53296W        W23896  12.515  38.388   4.205
53297W        W23897  33.194  44.143   4.106
53298W        W23898  12.803  39.832   1.750
53299W        W23899  30.006  40.640  14.141
53300W        W23900  35.983   2.590  10.686
53301W        W23901  16.042  16.615  14.420
53302W        W23902   5.361  26.598   3.820
53303W        W23903  25.198  27.536  10.346
53304W        W23904  10.263  10.410   2.792
53305W        W23905   5.377  38.546   1.983
53306W        W23906  31.748   8.676   3.661
53307W        W23907  39.832  42.369  10.716
53308W        W23908  40.446  34.810  11.959
53309W        W23909   4.199  44.462  12.200
53310W        W23910  14.920  24.617  12.072
53311W        W23911  29.858   9.269   2.219
53312W        W23912  35.844  18.107   1.475
53313W        W23913  23.781  24.939   1.919
53314W        W23914  44.415   4.851   3.847
53315W        W23915  23.783  11.316  11.465
53316W        W23916  43.336   4.404  13.854
53317W        W23917   9.731   9.480  12.756
53318W        W23918  43.782  20.501  14.919
53319W        W23919  44.923  42.834   3.672
53320W        W23920  33.932  42.005   1.887
53321W        W23921  11.288   6.235  11.018
53322W        W23922  12.643  18.302   2.947
53323W        W23923  15.199  16.146   0.452
53324W        W23924  29.945  28.930   1.756
53325W        W23925  28.961  33.701   0.720
53326W        W23926  26.731  40.547   0.145
53327W        W23927  19.307  34.545  12.577
53328W        W23928  33.936  14.283  12.643
53329W        W23929  44.358  42.137   5.216
53330W        W23930  12.653   6.150  13.877
53331W        W23931  14.147   2.258   3.670
53332W        W23932  36.932  33.680  14.361
53333W        W23933  20.535  33.913   2.724
53334W        W23934  38.453  40.787   2.394
53335W        W23935  36.587  29.619  11.682
53336W        W23936  16.913  19.891  10.144
53337W        W23937  24.813   9.128  12.409
53338W        W23938  20.241  29.832   0.622
53339W        W23939  18.206  44.960   1.861
53340W        W23940  24.471  29.699   1.897
53341W        W23941  21.565  36.992  13.328
53342W        W23942   1.340  26.039   2.698
53343W        W23943  43.261  26.270  14.713
53344W        W23944  41.794  29.154   2.670
53345W        W23945   7.826  13.245  11.605
53346W        W23946  40.243   4.799   2.516
53347W        W23947  43.036  43.014   1.904
53348W        W23948  26.688  26.285   2.802
53349W        W23949  17.279  30.297  11.297
53350W        W23950  31.425  34.131  14.841
53351W        W23951  13.615   7.830   3.148
53352W        W23952  31.111  44.258  13.893
53353W        W23953  27.805  24.650   1.441
53354W        W23954  36.711  15.303  14.930
53355W        W23955  32.546   8.070   4.632
53356W        W23956  31.582  13.069   0.924
53357W        W23957  28.895   9.193  14.808
53358W        W23958  38.530   6.437  13.157
53359W        W23959  27.539  14.183  13.708
53360W        W23960  26.223   2.752  14.661
53361W        W23961  35.633   2.868   4.790
53362W        W23962   2.011  31.836   3.760
53363W        W23963  14.314  13.802  14.716
53364W        W23964   1.216  24.475  14.360
53365W        W23965  33.550  20.527  14.925
53366W        W23966  41.424  10.121   4.165
53367W        W23967   3.549  12.411   0.362
53368W        W23968  30.446  35.122   0.171
53369W        W23969  44.867  35.570   3.709
53370W        W23970  36.030   9.074  12.899
53371W        W23971  44.001  23.132  13.028
53372W        W23972   5.960   4.691   0.009
53373W        W23973  11.912  44.491  11.860
53374W        W23974  35.986   5.261   2.604
53375W        W23975   9.889  19.426  12.484
53376W        W23976   0.038   0.402   2.262
53377W        W23977   6.920  29.614   3.404
53378W        W23978  17.385  43.268   3.411
53379W        W23979  16.810  32.600   3.199
53380W        W23980   3.483  35.351   1.352
53381W        W23981   1.503  17.749   2.091
53382W        W23982  14.724  17.399   0.534
53383W        W23983   2.017   6.456   4.868
53384W        W23984  33.037   3.869  13.760
53385W        W23985  19.527   3.214   3.362
53386W        W23986  31.563  34.384   2.427
53387W        W23987  32.564   7.319  10.730
53388W        W23988  23.229  25.845   3.199
53389W        W23989  43.830  14.222   0.407
53390W        W23990  16.864  25.532  13.893
53391W        W23991  17.133  12.870  11.864
53392W        W23992  19.786  22.639  13.484
53393W        W23993  24.731  16.470   4.230
53394W        W23994  40.605  11.407  12.459
53395W        W23995  37.414  27.958  14.457
53396W        W23996  19.065  44.289   4.043
53397W        W23997  26.249  29.493  11.533
53398W        W23998  41.228   0.384  13.931
53399W        W23999  35.585  38.421  11.804
53400W        W24000  34.938  19.649   1.399
53401W        W24001  29.102  33.455   1.154
53402W        W24002  16.866  31.222   1.412
53403W        W24003  43.770  17.783  12.647
53404W        W24004  44.891   7.209   3.886
53405W        W24005  37.894  22.839  12.082
53406W        W24006  37.106  23.946   0.773
53407W        W24007  29.262  15.377   3.867
53408W        W24008  24.347  12.396  11.426
53409W        W24009   5.101  34.711   5.340
53410W        W24010  21.740  27.807   0.515
53411W        W24011  16.970  44.993   2.324
53412W        W24012  30.548  11.030  14.283
53413W        W24013  20.933  31.615   2.250
53414W        W24014  13.451  29.220  11.548
53415W        W24015  15.339  37.422   0.441
53416W        W24016   7.935   2.291   3.729
53417W        W24017  17.141   9.138  13.283
53418W        W24018   4.878  11.614   4.707
53419W        W24019   2.911  25.104   0.863
53420W        W24020  14.133  43.800  14.473
53421W        W24021  42.919  35.588  10.692
53422W        W24022  28.577  34.827  12.525
53423W        W24023  28.419   4.263   3.799
53424W        W24024  24.497  34.656   1.462
53425W        W24025  13.254  29.131   3.652
53426W        W24026  20.754  32.993  14.671
53427W        W24027  39.902  22.562   0.384
53428W        W24028   7.901   5.300   0.826
53429W        W24029   3.345  18.728  12.079
53430W        W24030  41.090  10.737   0.932
53431W        W24031   8.164   6.361  12.280
53432W        W24032  10.847   2.967  11.235
53433W        W24033  22.228  12.148  14.943
53434W        W24034  13.589   0.127  13.023
53435W        W24035  40.399  29.930   3.094
53436W        W24036  44.658  41.043   3.999
53437W        W24037  24.625  25.676  12.687
53438W        W24038   1.338  40.204  11.193
53439W        W24039  20.824  15.713  11.143
53440W        W24040  26.921  23.909   1.110
53441W        W24041  27.699  14.009   1.142
53442W        W24042  14.237  35.942   3.389
53443W        W24043  37.387   5.537   4.240
53444W        W24044  36.289  32.437  11.508
53445W        W24045  19.277  38.904  14.803
53446W        W24046   9.769  27.435  14.263
53447W        W24047  39.851  19.242  14.763
53448W        W24048  13.896  20.701   4.355
53449W        W24049  18.918  13.213   0.613
53450W        W24050   5.983  18.099   4.180
53451W        W24051  36.890  39.244  12.906
53452W        W24052   8.386  27.870   1.179
53453W        W24053  39.866  26.081   1.161
53454W        W24054  13.603  28.144  13.389
53455W        W24055  12.108  31.634  14.863
53456W        W24056   6.097  38.876   2.922
53457W        W24057   3.949  14.743  10.627
53458W        W24058  35.318  33.646  12.972
53459W        W24059  23.788  23.001   4.257
53460W        W24060  38.829  11.378  13.046
53461W        W24061  25.152  10.796  14.345
53462W        W24062   4.732   6.399  11.111
53463W        W24063  33.642  32.210   4.077
53464W        W24064  24.876  18.320   1.178
53465W        W24065   1.711  31.364   4.515
53466W        W24066  39.517  11.287   3.728
53467W        W24067   0.492  10.397   4.629
53468W        W24068  34.860  40.282   0.505
53469W        W24069   6.852  23.708   4.626
53470W        W24070  16.763  33.160  14.939
53471W        W24071   8.789  18.286  11.325
53472W        W24072  42.049   2.786   5.085
53473W        W24073  29.876  37.451  14.410
53474W        W24074   2.575  40.472  11.293
53475W        W24075  33.424   8.903  11.580
53476W        W24076  11.117  15.521   3.452
53477W        W24077  31.541   7.118  12.486
53478W        W24078  38.862  24.033   1.203
53479W        W24079  34.287  21.702   1.814
53480W        W24080  10.193   3.165  12.466
53481W        W24081  38.898  14.637   4.585
53482W        W24082  42.029  21.766  12.834
53483W        W24083  38.506  22.314  14.310
53484W        W24084   8.062  17.338   0.887
53485W        W24085  24.319  30.611   5.130
53486W        W24086  16.956  12.989   1.704
53487W        W24087  41.169  23.547   0.780
53488W        W24088  19.622  12.916  13.362
53489W        W24089  30.382  42.160   5.126
53490W        W24090  43.066  37.975  13.336
53491W        W24091  22.706  35.538  11.012
53492W        W24092  18.288  39.806  11.654
53493W        W24093  35.524   4.649   2.715
53494W        W24094  19.519   2.821  14.726
53495W        W24095  33.604  44.890  13.789
53496W        W24096  23.742  11.955  14.733
53497W        W24097   0.667  36.622   1.936
53498W        W24098  17.486  43.522   2.342
53499W        W24099  28.162  27.216  10.640
53500W        W24100  39.823   1.753  12.604
53501W        W24101   7.421   2.867   4.529
53502W        W24102  24.456  12.142  14.657
53503W        W24103  43.277   5.894   0.754
53504W        W24104  24.027  26.366  11.580
53505W        W24105   0.748  43.910   0.406
53506W        W24106  26.212  25.087  11.839
53507W        W24107  17.972   7.103  13.155
53508W        W24108  34.499  23.324   4.027
53509W        W24109   3.011   0.814   2.678
53510W        W24110   0.906  20.691   0.012
53511W        W24111  21.119  15.143   0.928
53512W        W24112  38.369  40.875  10.482
53513W        W24113  23.066   4.514  12.081
53514W        W24114  24.097  21.375   3.232
53515W        W24115  15.288  36.854  13.790
53516W        W24116  25.702  40.872   4.049
53517W        W24117  36.950  43.186  11.481
53518W        W24118  18.076  13.627   2.838
53519W        W24119  20.474   4.254   2.648
53520W        W24120  30.004   8.574   1.989
53521W        W24121   9.064  18.092  14.336
53522W        W24122  21.674  28.955  13.480
53523W        W24123  42.344  33.524   1.361
53524W        W24124   4.689  21.202   9.995
53525W        W24125   2.732   6.935   4.063
53526W        W24126  40.310   7.637   1.454
53527W        W24127   3.025  35.314   3.990
53528W        W24128  28.693  27.763  13.336
53529W        W24129  40.878  20.691  14.260
53530W        W24130  38.979  11.246   1.283
53531W        W24131   5.356  34.876   2.709
53532W        W24132   7.193  20.447  10.759
53533W        W24133  17.703   8.411   4.020
53534W        W24134   7.116  38.103   1.833
53535W        W24135   3.922  36.323   3.837
53536W        W24136  44.909   7.873   2.048
53537W        W24137  29.066  39.311  10.266
53538W        W24138   3.700  28.900   0.409
53539W        W24139  33.798   1.736  12.932
53540W        W24140   0.507   3.994  13.384
53541W        W24141  17.033  36.279   0.896
53542W        W24142  21.687   5.166   1.291
53543W        W24143  21.063  34.315  11.077
53544W        W24144   5.823  26.082  14.207
53545W        W24145  26.491  36.919  12.427
53546W        W24146  24.943   8.276  12.920
53547W        W24147  44.208  17.267   4.249
53548W        W24148   3.387  38.739   1.841
53549W        W24149  18.579  35.134  14.409
53550W        W24150  41.916  16.993  14.734
53551W        W24151   0.961  42.933  14.789
53552W        W24152  23.365   1.602  13.803
53553W        W24153  21.438   0.019   1.180
53554W        W24154  16.765  22.682   9.665
53555W        W24155   7.207   9.844   3.306
53556W        W24156   8.670   4.032   2.907
53557W        W24157   3.318  10.606  12.162
53558W        W24158  11.599   4.924   1.723
53559W        W24159  21.804   0.045  12.940
53560W        W24160  24.570  23.168  14.355
53561W        W24161  16.108  20.710   3.274
53562W        W24162  12.843  37.033  10.671
53563W        W24163  18.134  27.445  13.791
53564W        W24164  39.819   6.054  10.666
53565W        W24165  18.795  13.093   2.211
53566W        W24166   0.317   9.361   1.128
53567W        W24167  25.750  21.210  12.708
53568W        W24168   7.122  40.264  13.479
53569W        W24169  18.061   0.394  11.255
53570W        W24170  20.686  33.591  13.375
53571W        W24171  25.001  21.346   3.015
53572W        W24172   5.513  11.813   0.794
53573W        W24173   8.364   8.848  12.487
53574W        W24174  36.046  18.806   0.960
53575W        W24175  29.245  29.805   3.620
53576W        W24176  39.298   2.943  14.176
53577W        W24177   0.992  17.467  12.429
53578W        W24178  33.528   5.277  14.150
53579W        W24179  39.572  33.645  11.508
53580W        W24180  30.075  32.461  12.355
53581W        W24181   2.418  22.583  12.128
53582W        W24182  13.401  10.798  14.818
53583W        W24183  18.137  11.094   4.723
53584W        W24184  30.028   2.894   1.861
53585W        W24185  10.721  12.283  14.975
53586W        W24186  21.303  39.320  11.222
53587W        W24187  22.416  19.469  13.278
53588W        W24188  44.286   8.760   3.367
53589W        W24189  40.926  30.500   2.597
53590W        W24190  21.627  39.946   4.123
53591W        W24191  39.512  22.039   0.950
53592W        W24192  42.951   6.177  14.974
53593W        W24193  27.559  40.073   9.682
53594W        W24194  34.503  38.946   4.171
53595W        W24195  44.097  39.485  12.052
53596W        W24196  11.768  36.548   0.885
53597W        W24197   6.089  11.855  14.194
53598W        W24198   8.953   9.177   3.987
53599W        W24199  29.162  24.039  11.584
53600W        W24200  20.960   7.982   2.478
53601W        W24201  34.070  30.810  11.537
53602W        W24202  23.910  24.928   2.587
53603W        W24203  30.255  24.075  14.529
53604W        W24204  40.664   3.288  10.298
53605W        W24205  12.877  24.674  11.039
53606W        W24206  43.043   5.848  13.880
53607W        W24207  21.196  23.050   4.637
53608W        W24208  40.533  23.306  13.000
53609W        W24209   8.811  42.312  12.004
53610W        W24210  36.464  36.857   4.219
53611W        W24211  17.826  14.043  13.236
53612W        W24212  32.801  44.636   2.335
53613W        W24213  26.148  19.281   1.840
53614W        W24214   0.250  11.593  11.557
53615W        W24215  28.420   9.953   0.835
53616W        W24216  14.327   6.336   0.470
53617W        W24217   6.272  13.211   0.129
53618W        W24218  36.382  41.511  12.910
53619W        W24219   0.339  19.058   2.444
53620W        W24220  21.077  14.990  11.260
53621W        W24221  33.551  21.790  13.716
53622W        W24222   5.320  30.951   2.320
53623W        W24223  41.039  23.019  12.010
53624W        W24224   6.198  12.708   4.134
53625W        W24225  13.717  37.611  14.654
53626W        W24226  13.204   0.101   0.406
53627W        W24227  24.771  35.094   2.774
53628W        W24228  31.063  35.747  13.466
53629W        W24229  11.933  44.251  12.323
53630W        W24230  32.704  24.336   3.406
53631W        W24231   4.839  26.519   3.702
53632W        W24232  34.299  21.450  14.241
53633W        W24233  42.215  14.634   3.392
53634W        W24234  16.815  12.946  10.682
53635W        W24235  22.406  18.132   0.279
53636W        W24236  39.895  24.210  14.738
53637W        W24237   7.953  15.221   4.661
53638W        W24238  34.330  31.158   0.428
53639W        W24239  28.098  23.483  10.595
53640W        W24240  18.063  31.842  14.949
53641W        W24241  31.063  42.247  12.480
53642W        W24242  42.319   0.707  10.843
53643W        W24243  16.243  42.096  12.523
53644W        W24244  41.505  42.319  12.548
53645W        W24245  24.127  27.456   3.677
53646W        W24246  33.900  41.523  13.392
53647W        W24247   0.850  35.385   2.325
53648W        W24248  41.674  39.858  14.555
53649W        W24249  34.457  40.666  11.720
53650W        W24250  22.294   0.970  12.936
53651W        W24251  35.035   1.751  11.051
53652W        W24252  19.730  31.962   1.682
53653W        W24253   2.887  32.620   1.264
53654W        W24254  23.757  13.557  12.597
53655W        W24255  12.563  26.057   2.805
53656W        W24256  26.044  17.306   0.786
53657W        W24257  30.687   9.426   2.586
53658W        W24258  19.857  14.068   1.099
53659W        W24259  40.277  30.493  12.508
53660W        W24260  36.844  30.209   0.055
53661W        W24261  40.082  20.228  14.820
53662W        W24262  20.446  42.356  13.983
53663W        W24263  43.687  36.902  11.593
53664W        W24264   2.580  31.617  10.754
53665W        W24265  16.731  41.569   2.354
53666W        W24266   4.566  42.171  13.634
53667W        W24267  44.553  30.210   0.346
53668W        W24268   1.370  14.318   0.437
53669W        W24269  10.421   8.719  11.425
53670W        W24270  36.600  42.058   4.206
53671W        W24271  25.054   9.823   3.330
53672W        W24272   2.002  44.940  11.432
53673W        W24273  14.321  21.015   3.403
53674W        W24274  41.588  37.752  14.404
53675W        W24275  20.811  22.245  14.497
53676W        W24276   2.118  39.007  14.951
53677W        W24277  39.408   5.690   1.789
53678W        W24278  10.267   7.789  11.922
53679W        W24279  19.368  43.171  12.337
53680W        W24280  37.131  34.572  14.553
53681W        W24281  29.074   4.782   4.125
53682W        W24282  10.569  36.140   2.223
53683W        W24283   0.964  37.440  10.192
53684W        W24284   6.916  44.051  11.992
53685W        W24285  19.775  12.223  12.484
53686W        W24286  11.796   0.743  12.539
53687W        W24287  35.506  41.815   0.332
53688W        W24288  17.945  12.478   4.167
53689W        W24289   8.242  35.371   2.654
53690W        W24290   3.161  13.117  14.965
53691W        W24291   3.762  43.219  13.571
53692W        W24292  35.784  10.119   2.281
53693W        W24293  27.498  21.244   2.721
53694W        W24294  33.117   3.806   1.699
53695W        W24295  27.775  29.591  10.417
53696W        W24296  34.664   4.359   0.358
53697W        W24297   1.326  24.898  11.882
53698W        W24298  23.680  38.443  12.623
53699W        W24299  44.507  21.907   4.185
53700W        W24300   1.772   7.331  13.013
53701W        W24301   9.875  36.148   0.006
53702W        W24302   1.857  17.772   1.321
53703W        W24303  13.745   8.626  14.366
53704W        W24304   6.537  23.216  13.420
53705W        W24305  17.532  20.625   0.267
53706W        W24306   6.677   5.380   0.910
53707W        W24307  41.232  41.489  14.681
53708W        W24308  23.684  11.239   4.918
53709W        W24309  28.681   2.396  12.948
53710W        W24310  35.297  19.828  12.999
53711W        W24311  18.218   6.431  11.606
53712W        W24312  42.168  39.291   2.870
53713W        W24313   7.197  23.473  14.983
53714W        W24314  41.988  42.392  13.081
53715W        W24315   6.508  44.439  11.416
53716W        W24316  28.263  11.755   0.152
53717W        W24317  19.918  32.823   0.873
53718W        W24318  32.964  25.646  11.425
53719W        W24319  41.521  38.787  14.376
53720W        W24320  36.543  15.967  12.523
53721W        W24321  41.794  14.088   2.256
53722W        W24322  13.087  20.881  14.469
53723W        W24323  40.314  25.205  12.943
53724W        W24324  22.989  41.407   4.887
53725W        W24325  20.001  11.617  14.417
53726W        W24326  26.781  38.597  14.781
53727W        W24327  26.542  44.717  12.760
53728W        W24328  10.697  12.032   0.434
53729W        W24329   7.212   5.936   0.948
53730W        W24330  36.500  34.914  11.092
53731W        W24331  12.436   2.321   2.766
53732W        W24332  33.481  19.986   0.848
53733W        W24333  13.280  40.926   2.299
53734W        W24334  36.757  37.457   0.381
53735W        W24335  38.862  21.840   1.610
53736W        W24336   1.268  21.339   4.329
53737W        W24337  13.562  42.772  13.539
53738W        W24338  17.406  39.683  13.614
53739W        W24339  29.179  27.200  12.958
53740W        W24340  29.638  40.497  14.483
53741W        W24341  19.080  18.732  12.192
53742W        W24342  36.211  33.669  12.055
53743W        W24343  30.274  43.699   3.180
53744W        W24344  26.751  41.053  12.954
53745W        W24345  16.769  33.906   0.747
53746W        W24346  36.473  13.169  14.087
53747W        W24347  35.642  19.573   0.960
53748W        W24348  36.026  38.368  10.839
53749W        W24349  44.964  17.077   3.201
53750W        W24350  32.157  36.404   4.977
53751W        W24351  20.242   9.202   2.800
53752W        W24352  39.783   1.745   4.471
53753W        W24353  25.064  41.284  13.868
53754W        W24354  35.568  32.882  14.808
53755W        W24355  18.642  21.513   0.292
53756W        W24356  16.189  31.673   3.613
53757W        W24357  14.731  40.786   2.798
53758W        W24358  29.755  12.797   2.866
53759W        W24359   5.153  22.076  12.946
53760W        W24360  42.486  30.110  11.156
53761W        W24361  42.108  30.559  10.959
53762W        W24362  30.848  23.876   1.770
53763W        W24363  11.897  16.908  10.830
53764W        W24364  11.814   0.254   0.970
53765W        W24365  39.360  14.354   4.483
53766W        W24366  32.503  20.960   4.556
53767W        W24367  44.705   4.366   2.670
53768W        W24368  37.419  20.657   1.946
53769W        W24369  27.954  27.199  14.057
53770W        W24370  30.559  36.146  11.181
53771W        W24371   4.314  14.670   0.057
53772W        W24372  20.675   2.396  14.630
53773W        W24373  39.227  21.541  10.865
53774W        W24374   6.763   6.784  12.454
53775W        W24375  42.252  21.798   4.006
53776W        W24376  25.040  11.222   3.129
53777W        W24377  21.236  11.665  13.939
53778W        W24378  43.146  33.957  11.419
53779W        W24379   5.466   0.050  13.388
53780W        W24380  11.973  14.740  13.407
53781W        W24381  27.398  16.240  14.539
53782W        W24382   0.001  36.895  14.097
53783W        W24383  15.570  26.538  13.400
53784W        W24384  44.232  40.937  10.198
53785W        W24385  21.653  35.800   4.665
53786W        W24386  40.992  23.032  12.873
53787W        W24387  17.980   0.974  13.322
53788W        W24388  15.918   9.247  12.829
53789W        W24389  15.148  14.123  14.824
53790W        W24390  35.176   2.615  12.200
53791W        W24391  32.300  39.341   3.191
53792W        W24392  23.246  33.068   2.820
53793W        W24393   5.294  31.181   1.337
53794W        W24394  34.598  11.331  14.392
53795W        W24395  43.049   3.439  12.463
53796W        W24396  20.461  17.032  11.197
53797W        W24397   2.901   3.773   4.534
53798W        W24398   0.996  14.927  14.567
53799W        W24399  38.916   3.241   1.331
53800W        W24400  38.009  10.908   1.523
53801W        W24401  35.794  27.045   0.928
53802W        W24402  11.387  21.718   3.730
53803W        W24403  37.650  41.332  10.311
53804W        W24404  40.801  14.202   4.609
53805W        W24405  21.861  29.572   4.078
53806W        W24406   5.009  36.990   2.962
53807W        W24407  24.520  39.170   2.783
53808W        W24408   5.868   4.504  12.585
53809W        W24409  40.576  34.361   0.858
53810W        W24410  14.010   4.646  14.935
53811W        W24411  18.952  29.644   2.692
53812W        W24412  24.558  17.107  12.027
53813W        W24413   2.317  11.137  11.952
53814W        W24414  18.239   3.673  12.794
53815W        W24415  16.741  10.139   4.515
53816W        W24416  12.575   1.807  13.842
53817W        W24417   2.263  25.244   2.433
53818W        W24418  22.048  29.888   3.129
53819W        W24419  26.210  24.169   1.228
53820W        W24420  14.315  29.711   3.405
53821W        W24421  16.275   6.532  14.036
53822W        W24422  23.059  43.862   2.304
53823W        W24423   3.814  31.938   1.388
53824W        W24424  33.327   4.087   3.818
53825W        W24425   4.277  28.365   3.740
53826W        W24426   2.525  21.606   1.817
53827W        W24427  18.736   4.796  13.952
53828W        W24428   6.876  24.758  11.606
53829W        W24429   5.813   2.773  11.554
53830W        W24430  10.145  18.005  11.104
53831W        W24431  31.028  35.430   4.563
53832W        W24432  42.871  22.247  13.970
53833W        W24433  23.120   7.438   1.904
53834W        W24434  33.595  11.170  14.331
53835W        W24435   3.977  31.961   4.149
53836W        W24436  35.864   0.231   0.446
53837W        W24437  18.090  37.368   1.109
53838W        W24438  36.525  25.514  10.748
53839W        W24439   5.966   5.135   0.353
53840W        W24440  17.555  42.490   4.828
53841W        W24441  36.449  29.535  14.809
53842W        W24442   9.358  13.392  12.126
53843W        W24443  39.568  17.150  10.946
53844W        W24444  12.813  32.092   0.397
53845W        W24445  21.648   1.775   0.615
53846W        W24446   6.048   7.242  14.870
53847W        W24447  42.453  44.636  11.046
53848W        W24448  44.754  41.107  13.545
53849W        W24449  25.635  22.590   4.543
53850W        W24450   7.237  29.463  12.438
53851W        W24451   4.135  33.290   0.768
53852W        W24452   0.817   0.214   0.289
53853W        W24453  10.384  15.054   4.163
53854W        W24454  13.587  20.558  13.854
53855W        W24455   1.881  34.621   2.738
53856W        W24456  11.364   7.900   4.829
53857W        W24457  43.494  36.286  12.971
53858W        W24458  17.449  35.613   2.539
53859W        W24459  28.884  12.177   2.247
53860W        W24460  32.902  42.779  13.430
53861W        W24461  41.828  16.075  13.815
53862W        W24462  24.755  32.970   3.794
53863W        W24463  38.013  19.382   3.263
53864W        W24464  35.460  39.254  14.418
53865W        W24465   9.497  25.571   0.645
53866W        W24466  34.547  41.871   2.580
53867W        W24467  39.284   8.905  10.650
53868W        W24468  26.946  37.872   4.399
53869W        W24469   2.972  17.101   3.265
53870W        W24470  20.156  44.829  14.240
53871W        W24471  31.063   6.419  12.239
53872W        W24472  42.894   1.195   1.286
53873W        W24473  25.767  30.196   0.488
53874W        W24474   0.241  34.397   0.341
53875W        W24475  28.876  44.436   3.801
53876W        W24476  35.631  41.427   1.824
53877W        W24477  31.561  29.665   4.932
53878W        W24478   4.967  13.544   4.629
53879W        W24479  23.028  23.011   0.418
53880W        W24480  43.024  23.677   0.906
53881W        W24481  35.111  12.781  10.788
53882W        W24482  17.538  16.122   2.197
53883W        W24483  40.441  10.858  11.747
53884W        W24484  42.913  27.625   3.235
53885W        W24485  30.367   8.589  12.497
53886W        W24486   1.781  18.577   3.145
53887W        W24487  44.972  29.949  11.638
53888W        W24488  43.373  25.812  12.575
53889W        W24489  20.569  28.245  14.484
53890W        W24490   6.467  43.550   1.188
53891W        W24491  19.633   5.916   1.735
53892W        W24492  18.078  27.555   3.030
53893W        W24493  38.878  25.103   4.161
53894W        W24494  18.596  32.889   1.699
53895W        W24495  43.266  12.730   0.698
53896W        W24496   7.764  38.495   2.532
53897W        W24497  11.334   1.859  10.374
53898W        W24498   2.431  30.700  10.766
53899W        W24499   2.190  40.319  10.833
53900W        W24500  27.049  11.218   1.299
53901W        W24501  21.865   3.541  11.577
53902W        W24502  18.956  35.759  14.845
53903W        W24503   4.642  31.090  11.161
53904W        W24504  38.011   3.894  14.473
53905W        W24505  44.327  32.402  11.599
53906W        W24506  41.996  36.862  13.083
53907W        W24507  21.715   1.247   4.573
53908W        W24508   2.216  11.819  10.842
53909W        W24509  43.783  15.387   2.897
53910W        W24510  16.629   2.345  13.474
53911W        W24511  41.839   4.028  12.184
53912W        W24512  34.446  14.935  14.826
53913W        W24513  18.907  42.666  12.446
53914W        W24514  38.112   1.661   0.985
53915W        W24515  22.548  11.123   3.349
53916W        W24516   2.788   5.636   1.611
53917W        W24517  34.599  21.165  12.969
53918W        W24518  36.329  12.926   2.717
53919W        W24519   7.638  28.785   0.047
53920W        W24520  24.858   8.736  10.925
53921W        W24521  22.147  27.663   0.812
53922W        W24522  26.745  18.155   0.692
53923W        W24523   8.966  16.811  11.671
53924W        W24524  16.608  21.005  13.307
53925W        W24525  18.328  38.828  13.795
53926W        W24526  34.314   9.824  13.161
53927W        W24527  44.905  31.483   4.506
53928W        W24528   2.802  31.150  10.721
53929W        W24529  33.602  44.802   3.544
53930W        W24530  15.213  40.920   2.028
53931W        W24531  28.117  43.195   2.185
53932W        W24532  24.458  19.098  11.272
53933W        W24533  30.697  39.459   0.499
53934W        W24534  40.368   9.804  13.927
53935W        W24535  26.917   5.416   1.942
53936W        W24536  13.170  10.682   4.287
53937W        W24537  37.851  26.522   4.629
53938W        W24538  29.191  33.978   3.382
53939W        W24539  22.355  39.860  14.606
53940W        W24540  31.404  40.476  11.834
53941W        W24541  30.980  36.574  11.713
53942W        W24542  37.016  24.262   3.728
53943W        W24543   5.740  44.429  13.820
53944W        W24544  40.327  33.191  14.381
53945W        W24545  34.652   3.950  13.372
53946W        W24546  23.493  18.258  14.368
53947W        W24547  36.569  22.027  11.417
53948W        W24548  38.351  32.586  11.962
53949W        W24549  23.652  13.734   4.980
53950W        W24550  43.038   9.307   2.333
53951W        W24551  42.876  26.465  12.286
53952W        W24552  21.535  39.337  12.483
53953W        W24553  27.920  42.765   0.911
53954W        W24554  27.512  29.157  11.174
53955W        W24555  22.260   2.654  10.747
53956W        W24556  26.599  25.414   2.167
53957W        W24557  13.176  42.913  14.975
53958W        W24558   9.551  10.653  11.053
53959W        W24559   8.780   3.741  13.168
53960W        W24560  24.145  10.303  14.344
53961W        W24561  42.435   5.741   9.395
53962W        W24562  10.805  40.790  13.869
53963W        W24563   2.251   2.392  12.607
53964W        W24564  19.486  11.912   0.299
53965W        W24565  32.728  35.424  12.982
53966W        W24566  18.576  31.852  10.824
53967W        W24567  33.221  39.480   5.050
53968W        W24568   4.686  26.597   0.664
53969W        W24569   9.661  29.446   2.006
53970W        W24570  11.785  25.046  10.395
53971W        W24571  31.241  42.928  13.348
53972W        W24572  15.321   4.962   1.748
53973W        W24573   1.726  43.916  13.817
53974W        W24574  32.586  17.322  14.479
53975W        W24575  26.531  36.902  11.604
53976W        W24576  10.461   4.643  14.826
53977W        W24577  33.699  37.561   2.242
53978W        W24578  39.362   0.484  11.882
53979W        W24579   7.891   8.999  13.319
53980W        W24580  20.546  39.389   1.296
53981W        W24581  36.912  21.197   4.752
53982W        W24582  35.251   5.275   2.143
53983W        W24583   8.450   1.295   3.051
53984W        W24584   4.666   6.128  13.922
53985W        W24585   4.349  23.087  12.012
53986W        W24586  34.966  21.984  13.837
53987W        W24587  43.013  10.826  11.214
53988W        W24588   9.889   7.283  12.156
53989W        W24589  31.609   5.538   0.383
53990W        W24590  16.888  29.094   4.100
53991W        W24591   6.618  41.358   4.129
53992W        W24592  36.426   2.767   0.446
53993W        W24593   1.110  19.414   2.298
53994W        W24594   9.313  16.567   4.578
53995W        W24595   9.458  13.156  10.479
53996W        W24596  20.566   3.883   0.836
53997W        W24597  16.077   7.351   1.148
53998W        W24598  28.309  38.443   0.721
53999W        W24599  39.357   5.085  14.813
54000W        W24600  43.566  14.634   3.523
54001W        W24601  18.335  29.915  12.088
54002W        W24602  33.997  35.564  13.554
54003W        W24603   8.717  17.564   3.632
54004W        W24604   1.234  14.109  10.457
54005W        W24605  39.833  31.055  14.584
54006W        W24606  29.304   7.267  13.513
54007W        W24607  28.858  14.634  11.091
54008W        W24608   0.850  17.023   5.074
54009W        W24609  25.513  19.033  12.629
54010W        W24610  22.954  16.437  13.096
54011W        W24611  34.151   2.562  10.933
54012W        W24612  26.650  38.904   1.769
54013W        W24613  20.637   5.177   3.660
54014W        W24614  22.961  40.340  14.956
54015W        W24615   7.651   9.817  14.876
54016W        W24616  34.056  38.832  11.059
54017W        W24617  34.897  22.306   2.961
54018W        W24618  27.171  23.332   1.033
54019W        W24619  31.898  16.580  11.036
54020W        W24620  23.947  20.477  12.905
54021W        W24621   0.150   7.156   1.347
54022W        W24622  34.188  15.206  13.009
54023W        W24623  15.158   8.851   2.865
54024W        W24624   0.760  41.315   4.993
54025W        W24625   9.127  15.985  14.720
54026W        W24626  24.474   6.262  10.634
54027W        W24627  39.587  17.088   4.297
54028W        W24628   4.512   2.493  11.107
54029W        W24629  27.654  22.151  10.923
54030W        W24630  18.760   5.356  12.767
54031W        W24631  35.982  35.384   2.779
54032W        W24632  28.211  35.095  13.230
54033W        W24633   5.488  42.326   3.116
54034W        W24634  15.875   1.189  12.067
54035W        W24635  27.117  21.292   2.344
54036W        W24636  18.036  43.327  11.895
54037W        W24637  42.722  16.195  12.921
54038W        W24638  20.935  40.719  13.414
54039W        W24639  11.186  23.366   4.098
54040W        W24640  36.429  20.623  11.082
54041W        W24641  11.242  24.640  14.292
54042W        W24642  18.465  43.992  13.901
54043W        W24643   8.782  18.859  13.048
54044W        W24644  26.351   9.958  13.548
54045W        W24645  42.084  44.579  12.532
54046W        W24646  14.144  42.113  11.990
54047W        W24647   4.166  41.330   1.733
54048W        W24648  15.834   5.941   1.738
54049W        W24649  39.339  12.361  12.484
54050W        W24650   6.244   4.049   2.804
54051W        W24651   5.762  27.051   4.525
54052W        W24652  33.538  41.022   0.665
54053W        W24653  12.124  28.161  12.511
54054W        W24654   2.347  36.697  14.236
54055W        W24655  41.360  11.240   3.380
54056W        W24656   3.128  37.000   0.879
54057W        W24657  23.929   6.842   0.992
54058W        W24658  12.159   7.173   1.757
54059W        W24659   7.919  39.692  11.529
54060W        W24660  30.411   6.992  12.022
54061W        W24661  23.508   2.125  14.403
54062W        W24662  44.248  16.538  13.286
54063W        W24663  41.785  19.651   0.582
54064W        W24664  31.644   5.933  14.425
54065W        W24665  19.551  21.310  14.816
54066W        W24666  42.846  13.728  12.950
54067W        W24667  32.668  30.729   1.470
54068W        W24668  23.205  33.645   0.655
54069W        W24669  35.861  38.188   3.472
54070W        W24670  13.262  24.086   4.814
54071W        W24671  25.543  33.460  11.526
54072W        W24672  10.363  25.949  14.959
54073W        W24673  16.565  40.291  14.166
54074W        W24674  30.343  34.937   3.602
54075W        W24675  13.329  12.800  11.878
54076W        W24676   9.687   2.366   4.240
54077W        W24677  23.314  11.647  12.591
54078W        W24678  28.652  32.098   1.670
54079W        W24679  15.348  20.010   0.406
54080W        W24680   7.974  31.707   1.540
54081W        W24681  37.002  34.176  14.252
54082W        W24682  14.088  13.671  11.539
54083W        W24683  15.707   9.000   2.339
54084W        W24684  19.269  15.466   3.822
54085W        W24685  44.047   0.473   2.098
54086W        W24686  19.153  33.511  14.983
54087W        W24687  18.648  39.278   0.946
54088W        W24688   7.207  32.614  14.324
54089W        W24689  22.324  36.057   3.686
54090W        W24690  37.512  33.220   3.606
54091W        W24691  15.583  39.849  12.014
54092W        W24692   4.165  35.969   3.565
54093W        W24693   1.315  27.921   4.055
54094W        W24694  13.333   2.790  13.480
54095W        W24695  30.793  35.249   3.537
54096W        W24696  21.126  11.188  11.097
54097W        W24697  23.569  10.814   0.465
54098W        W24698   8.734  16.255  14.484
54099W        W24699  36.868  43.238   1.857
54100W        W24700  25.427  40.470   2.892
54101W        W24701  38.604  10.788  11.521
54102W        W24702  36.027  13.785   3.874
54103W        W24703  17.945  43.715   2.215
54104W        W24704  18.735  31.373   0.984
54105W        W24705  16.626  15.223  14.713
54106W        W24706   2.015  29.587   3.388
54107W        W24707  32.347  43.385  15.000
54108W        W24708   2.567  18.704   4.789
54109W        W24709  34.935  17.645   1.606
54110W        W24710  22.910  33.783   1.787
54111W        W24711  15.107  42.742   3.613
54112W        W24712   9.106   6.773  12.426
54113W        W24713  12.791  31.984  13.595
54114W        W24714  33.410  26.850   2.604
54115W        W24715  10.796  35.080  13.905
54116W        W24716  41.721   9.229  12.079
54117W        W24717   7.167  44.045  11.181
54118W        W24718   2.410  44.440   0.652
54119W        W24719  16.272  26.420  12.502
54120W        W24720  27.013  20.936   0.504
54121W        W24721  12.228   9.073   3.176
54122W        W24722  11.135  41.876  11.878
54123W        W24723  39.806   9.468   2.659
54124W        W24724  38.807  33.125   4.863
54125W        W24725   2.171  40.732  12.857
54126W        W24726  15.207  39.911   2.753
54127W        W24727  28.501  34.745   2.809
54128W        W24728  37.641  19.081   1.377
54129W        W24729  29.618  37.118   1.920
54130W        W24730   0.808  12.387   1.816
54131W        W24731  32.112  10.206   3.008
54132W        W24732  35.759  42.288  14.336
54133W        W24733  31.124  39.363   0.075
54134W        W24734   1.903  40.500  14.229
54135W        W24735   3.988  43.498   1.440
54136W        W24736   4.302  28.428  13.160
54137W        W24737  17.045  36.139  12.133
54138W        W24738   5.807  27.525   3.739
54139W        W24739  39.764   3.024  10.863
54140W        W24740  23.240  29.944   3.028
54141W        W24741  36.668  32.728   1.462
54142W        W24742  40.967   3.264   9.851
54143W        W24743  21.030  13.850  10.608
54144W        W24744  23.578   8.097  12.901
54145W        W24745  20.409  43.797   4.077
54146W        W24746  25.457   1.444   3.645
54147W        W24747  22.383  12.456  12.503
54148W        W24748  19.092  15.501  14.954
54149W        W24749  12.157  18.054   3.602
54150W        W24750  41.872   1.576  10.794
54151W        W24751  29.072  12.652   1.805
54152W        W24752  29.206   6.570  13.916
54153W        W24753  15.770  27.707  11.656
54154W        W24754  27.614  33.097  13.744
54155W        W24755  29.082   8.128  14.941
54156W        W24756  41.359  12.721  12.051
54157W        W24757  18.765  12.653  14.941
54158W        W24758  10.156   3.006  14.839
54159W        W24759  43.227  35.483   3.759
54160W        W24760   3.147   9.211  14.490
54161W        W24761  33.031  11.096   1.877
54162W        W24762  28.532  21.648   4.307
54163W        W24763  18.569  36.595   3.270
54164W        W24764  11.568  35.570   1.769
54165W        W24765   6.257  18.617   0.480
54166W        W24766   2.702  19.638   5.172
54167W        W24767   5.639  24.253   4.715
54168W        W24768  28.572  43.287   0.447
54169W        W24769  13.165  16.811   2.803
54170W        W24770  16.665  13.269  11.524
54171W        W24771  22.217   0.502  12.012
54172W        W24772  22.491  15.252   2.673
54173W        W24773  15.559  19.020   2.787
54174W        W24774  10.285   7.169   3.200
54175W        W24775  11.406  36.926  14.534
54176W        W24776   0.296   9.895   1.314
54177W        W24777  10.091  18.835   0.797
54178W        W24778  12.125   7.566  12.971
54179W        W24779  20.510  33.177   2.218
54180W        W24780   6.371  31.075   3.386
54181W        W24781  27.997  21.689  11.437
54182W        W24782  36.982  38.599  10.596
54183W        W24783  11.868  11.120  13.526
54184W        W24784  21.257  26.443   4.949
54185W        W24785  21.631  19.313   2.897
54186W        W24786  41.848   1.511  11.582
54187W        W24787  10.196  15.864   1.470
54188W        W24788  38.712  19.651   5.523
54189W        W24789  28.142  19.839  10.983
54190W        W24790  18.779   8.779  13.977
54191W        W24791  12.689  19.652  14.761
54192W        W24792  18.763  14.052   5.047
54193W        W24793  16.645  35.417   1.900
54194W        W24794  29.985   1.398  13.499
54195W        W24795  31.474   3.889  14.502
54196W        W24796  39.774  23.698   1.957
54197W        W24797  41.514   1.189   4.469
54198W        W24798  11.668  35.264  14.106
54199W        W24799  42.258  20.958  11.524
54200W        W24800  16.504  12.815  14.044
54201W        W24801   3.719  25.464   2.886
54202W        W24802  26.547   1.744   0.387
54203W        W24803  39.832  15.311  11.086
54204W        W24804   6.219  32.164   2.749
54205W        W24805  19.353  33.915   1.263
54206W        W24806   9.832  38.607   2.137
54207W        W24807  40.075  28.262  12.624
54208W        W24808  14.269   2.393  10.676
54209W        W24809  33.070  10.781   4.898
54210W        W24810  37.788  39.070   0.717
54211W        W24811  13.904   3.679  12.512
54212W        W24812   3.286  38.311   0.000
54213W        W24813  22.950  21.590  14.367
54214W        W24814  34.493  38.806   1.915
54215W        W24815   0.221  32.090   1.196
54216W        W24816   0.916   8.070   3.995
54217W        W24817  13.633  29.615  13.398
54218W        W24818  25.401   6.790  12.385
54219W        W24819  43.201  41.929  14.472
54220W        W24820  21.715  42.409   3.254
54221W        W24821   0.757  39.887   4.162
54222W        W24822  15.737  44.506  13.105
54223W        W24823  29.922  16.135  14.764
54224W        W24824  13.608  14.946   3.166
54225W        W24825  12.872   3.754  14.417
54226W        W24826  11.893   3.827   4.193
54227W        W24827   8.688  37.052  13.061
54228W        W24828  11.145  11.807  14.458
54229W        W24829  36.555  28.676   4.265
54230W        W24830  12.206  18.866   2.174
54231W        W24831  32.401  17.994   4.103
54232W        W24832  22.438  14.252   2.618
54233W        W24833  41.319   7.047  12.460
54234W        W24834   4.792  29.187  13.137
54235W        W24835  38.666  35.814  10.197
54236W        W24836  18.972  10.606  11.514
54237W        W24837  33.611  10.773  13.957
54238W        W24838  11.514  21.102   0.988
54239W        W24839  21.197   8.683  14.025
54240W        W24840  25.442  37.917  11.512
54241W        W24841  25.559  30.087   4.776
54242W        W24842  28.707  38.228  12.239
54243W        W24843  20.053  36.432  12.149
54244W        W24844  25.017  13.234  14.501
54245W        W24845   4.985  37.308  12.530
54246W        W24846   4.103  10.674   4.107
54247W        W24847  41.303  30.945   4.190
54248W        W24848   1.854   1.543  13.784
54249W        W24849  32.389   5.140   1.920
54250W        W24850  14.819  44.389  12.617
54251W        W24851  37.079  19.101   4.112
54252W        W24852   1.941   9.931   2.294
54253W        W24853  26.513  41.298   1.713
54254W        W24854  27.298  40.632   3.610
54255W        W24855  34.394  27.001  12.655
54256W        W24856  32.324   1.836   3.370
54257W        W24857  35.806  16.565   4.035
54258W        W24858  19.661  15.648   0.662
54259W        W24859  31.979   4.433   2.789
54260W        W24860  11.852  22.398   4.145
54261W        W24861   6.353   1.739   1.661
54262W        W24862  31.928  41.206   2.292
54263W        W24863  34.792   3.547   0.845
54264W        W24864  42.976  41.776  10.746
54265W        W24865  42.196   4.463   1.788
54266W        W24866  15.188  29.052   2.315
54267W        W24867  32.640  14.116  10.608
54268W        W24868  14.432  19.272  14.894
54269W        W24869  31.949   3.425   1.762
54270W        W24870  35.286   9.711  10.806
54271W        W24871  17.730  28.644   2.410
54272W        W24872   7.711  38.896   0.460
54273W        W24873  28.217   3.008   1.686
54274W        W24874  19.040   9.948   3.353
54275W        W24875  19.035  23.665   3.219
54276W        W24876  25.654   2.845   1.281
54277W        W24877  19.814   9.287  12.574
54278W        W24878  18.837  40.857   2.929
54279W        W24879   9.627  40.331   2.589
54280W        W24880   4.635   0.473  11.560
54281W        W24881  44.800  24.020   3.756
54282W        W24882  39.978  19.145  12.755
54283W        W24883  27.671  39.579   3.152
54284W        W24884  43.531  42.306  14.369
54285W        W24885   0.485  42.068   0.646
54286W        W24886  14.358  41.467   4.128
54287W        W24887   4.574  20.603  11.977
54288W        W24888  15.053  12.229   2.337
54289W        W24889  29.969  40.940   0.967
54290W        W24890  19.726   0.305   3.848
54291W        W24891   5.503  35.013  11.256
54292W        W24892  29.798  28.578  14.499
54293W        W24893  11.110   9.377  10.409
54294W        W24894  33.317  25.508  13.363
54295W        W24895  16.599   8.647   2.074
54296W        W24896  18.132  33.483   4.004
54297W        W24897  15.141  41.502   0.749
54298W        W24898  38.055  28.197   2.241
54299W        W24899   5.923  14.829  13.340
54300W        W24900   9.778  35.863  10.369
54301W        W24901  11.772  38.247   4.713
54302W        W24902  44.351  38.868  10.878
54303W        W24903  22.195   6.630  12.500
54304W        W24904  28.953  44.047  12.270
54305W        W24905  39.263   4.837   3.600
54306W        W24906  38.351  37.578   3.800
54307W        W24907   6.666  38.987   0.295
54308W        W24908   1.343   9.746  11.447
54309W        W24909   1.882  39.134  10.601
54310W        W24910  44.783  18.635  11.548
54311W        W24911   9.182  29.611   0.315
54312W        W24912  16.887  20.340   0.425
54313W        W24913   4.508   0.005  10.899
54314W        W24914  33.870  41.993  14.868
54315W        W24915  44.322   0.352  12.000
54316W        W24916  44.699   0.626  13.866
54317W        W24917  30.902  40.343  10.817
54318W        W24918   5.317  43.817  10.995
54319W        W24919  40.490  33.882  11.429
54320W        W24920  20.043   0.814   3.737
54321W        W24921  35.935  20.860  11.763
54322W        W24922  16.311   1.962   0.122
54323W        W24923  16.943   9.193   1.318
54324W        W24924  36.643  14.431  12.398
54325W        W24925  44.280  42.927  11.888
54326W        W24926  41.642  42.856   0.292
54327W        W24927   9.027  43.789   2.465
54328W        W24928   8.168   0.710   4.179
54329W        W24929  30.597  21.305   4.650
54330W        W24930  35.278  36.561   4.640
54331W        W24931  38.850  33.607  12.625
54332W        W24932  41.790  31.170   4.234
54333W        W24933  19.232   7.068   2.299
54334W        W24934  19.570  32.225   2.402
54335W        W24935  11.708   1.827  13.975
54336W        W24936  17.619  23.453  11.933
54337W        W24937  39.852  13.289   2.655
54338W        W24938   3.281  13.369   4.350
54339W        W24939   3.746  18.241  12.927
54340W        W24940  35.833  37.985  13.859
54341W        W24941   6.677  26.010   1.776
54342W        W24942  25.592  44.285   4.630
54343W        W24943  25.731  10.623  11.584
54344W        W24944  33.608  17.090   3.870
54345W        W24945  14.816  17.066   0.915
54346W        W24946   0.011  29.624   0.946
54347W        W24947  44.697  33.275   2.668
54348W        W24948  22.184  43.367   4.136
54349W        W24949  34.942  17.578   2.135
54350W        W24950  19.282  12.701  14.961
54351W        W24951  32.214  23.534  11.503
54352W        W24952  33.437   2.271  14.376
54353W        W24953  35.312  30.454  13.887
54354W        W24954  33.945  20.086   2.432
54355W        W24955  21.611  18.149  13.312
54356W        W24956  30.536  31.153   4.553
54357W        W24957  32.440  27.102  10.697
54358W        W24958  21.959  31.114   2.728
54359W        W24959  29.804  22.334  13.167
54360W        W24960  27.205  32.280  12.514
54361W        W24961   7.113  10.785  10.832
54362W        W24962  41.972  13.778   1.854
54363W        W24963   6.066   7.656  11.904
54364W        W24964  37.197   7.094  14.765
54365W        W24965  37.265  41.993   3.573
54366W        W24966  44.001  40.852   0.663
54367W        W24967  25.416  11.893   2.402
54368W        W24968  38.542  21.098   2.256
54369W        W24969  22.189   0.669   3.884
54370W        W24970   9.720  15.491   3.729
54371W        W24971  10.183  14.162   2.000
54372W        W24972  24.878  27.089  12.012
54373W        W24973   1.567  44.341  13.586
54374W        W24974  27.464  21.732  10.684
54375W        W24975  32.680  35.643   1.922
54376W        W24976  15.262  36.000   0.700
54377W        W24977  38.431  15.326  12.021
54378W        W24978  31.147   0.993  13.580
54379W        W24979  44.870  40.145  11.142
54380W        W24980  42.816   9.561   0.667
54381W        W24981  38.878   1.468  14.187
54382W        W24982   8.866   9.812   1.212
54383W        W24983  12.764   6.855  11.217
54384W        W24984  28.441  28.412  13.743
54385W        W24985  33.378  13.912   1.247
54386W        W24986  10.361   0.283   3.487
54387W        W24987   1.229  13.091  12.385
54388W        W24988  35.320  43.583   3.634
54389W        W24989  21.297  41.294  10.675
54390W        W24990  14.699  29.419   3.637
54391W        W24991  35.049  22.680   3.335
54392W        W24992  40.837  29.931  13.963
54393W        W24993   4.686  24.233  10.653
54394W        W24994  35.079   1.043   2.323
54395W        W24995  38.347  24.506   0.457
54396W        W24996  14.364   6.761  12.821
54397W        W24997  29.103  39.279  12.996
54398W        W24998  37.896  32.936   1.196
54399W        W24999  23.208  40.845   3.568
54400W        W25000  22.574  25.891   0.774
54401W        W25001  27.131  21.619   3.881
54402W        W25002  12.107  35.660   1.917
54403W        W25003  35.442  44.915   4.039
54404W        W25004  15.673  36.851  13.385
54405W        W25005   8.935   5.343  14.842
54406W        W25006   1.311   9.604  10.478
54407W        W25007  22.248  33.354   0.519
54408W        W25008  35.498  14.757   0.347
54409W        W25009   7.942  17.345   3.771
54410W        W25010  41.348  21.990  10.774
54411W        W25011  19.237  18.673   0.508
54412W        W25012  13.141  18.071   0.535
54413W        W25013  29.170  28.000  13.405
54414W        W25014  27.975  34.754  14.168
54415W        W25015  38.644  26.188   0.239
54416W        W25016  39.847  16.080  11.517
54417W        W25017  16.974  34.556  10.541
54418W        W25018  33.693   3.311  14.311
54419W        W25019  15.313  23.126   1.431
54420W        W25020  37.467   5.064  10.998
54421W        W25021  30.875  12.834   1.182
54422W        W25022  28.936  34.390  12.085
54423W        W25023  20.074  15.821   1.654
54424W        W25024  33.529  30.928  13.339
54425W        W25025   0.454  29.735   0.029
54426W        W25026  43.753  30.010   1.745
54427W        W25027  22.776  43.186  12.912
54428W        W25028  11.116   9.246  11.428
54429W        W25029   9.904  44.304  13.422
54430W        W25030  29.473  19.301  13.958
54431W        W25031  15.838   9.683  12.061
54432W        W25032  32.908  15.836   3.887
54433W        W25033   4.912  41.980   4.591
54434W        W25034  22.195  26.710  11.145
54435W        W25035  40.499  14.269  11.522
54436W        W25036  29.671  26.479  11.583
54437W        W25037   8.573  11.768  14.439
54438W        W25038   4.190  40.999  14.218
54439W        W25039   6.426  35.987   1.202
54440W        W25040  27.473  15.753   0.493
54441W        W25041  17.786  15.989  14.463
54442W        W25042  37.401  44.321  13.964
54443W        W25043   9.275   7.749   1.497
54444W        W25044  28.601  22.065  10.384
54445W        W25045  36.028  27.613  12.938
54446W        W25046   0.998  21.783  13.385
54447W        W25047  29.234  29.159   2.219
54448W        W25048  35.644  14.074  13.191
54449W        W25049  44.170  38.531   1.756
54450W        W25050  28.015  36.788   1.658
54451W        W25051  33.929  16.374   0.541
54452W        W25052   8.939  27.182  14.947
54453W        W25053  37.542  33.513  13.915
54454W        W25054  22.200  22.652   0.775
54455W        W25055  20.795  27.213   1.473
54456W        W25056  15.208  27.202  12.424
54457W        W25057  39.722  38.962   4.064
54458W        W25058  27.629   9.377   1.722
54459W        W25059  19.770   1.802   4.505
54460W        W25060  35.609   5.983  12.591
54461W        W25061   0.346  16.698   4.453
54462W        W25062  33.621  43.387  10.723
54463W        W25063  16.696  39.956   0.483
54464W        W25064  39.319  23.377   2.906
54465W        W25065  43.475  43.675  14.397
54466W        W25066  41.009  31.749   5.079
54467W        W25067  31.859  16.717   4.213
54468W        W25068   3.905  19.535   4.612
54469W        W25069  12.162  39.818   3.839
54470W        W25070  11.341  26.896   3.106
54471W        W25071   9.852   3.936   1.170
54472W        W25072  10.239  40.373   0.821
54473W        W25073  23.980  12.627   3.122
54474W        W25074   7.389  43.289  12.494
54475W        W25075  26.481  22.618  12.108
54476W        W25076  44.815  27.461  12.603
54477W        W25077  39.394  24.948   1.905
54478W        W25078  21.228  14.933  13.640
54479W        W25079  13.529  40.529  11.742
54480W        W25080  29.677  17.342  13.408
54481W        W25081   5.137  32.082  12.435
54482W        W25082  24.249  10.634  13.860
54483W        W25083  24.533  35.430  11.016
54484W        W25084   3.420  36.350   3.846
54485W        W25085   7.325   0.036  11.156
54486W        W25086  12.644   9.964   2.276
54487W        W25087  18.399  38.750   0.009
54488W        W25088  16.965  26.529   2.152
54489W        W25089  29.231  13.708   0.321
54490W        W25090  37.889   6.264  13.954
54491W        W25091  31.902  28.689  13.492
54492W        W25092   5.769  20.646   3.407
54493W        W25093  26.987   2.000  11.993
54494W        W25094  22.377   8.726  10.265
54495W        W25095  13.036  40.394  11.698
54496W        W25096  44.991  21.778  12.531
54497W        W25097   5.712  21.185   5.164
54498W        W25098  40.166   4.230  12.636
54499W        W25099  17.239  23.730   3.729
54500W        W25100  41.797  36.429  10.750
54501W        W25101  10.284   2.353   1.225
54502W        W25102  24.072  44.954  12.810
54503W        W25103  31.010  25.242  11.696
54504W        W25104  42.918   8.694  11.547
54505W        W25105  13.696   8.886   4.540
54506W        W25106  30.369  32.587  10.972
54507W        W25107  26.977  12.289   2.884
54508W        W25108  23.300   4.194   1.035
54509W        W25109  37.256  39.033  10.580
54510W        W25110  11.366   9.664   1.496
54511W        W25111  17.110   9.324   2.432
54512W        W25112  26.153  43.296   1.443
54513W        W25113  31.765  29.913  13.477
54514W        W25114  44.940   1.465  13.817
54515W        W25115  38.607  12.997   2.259
54516W        W25116  16.209  44.347  14.025
54517W        W25117  10.642  12.938  11.554
54518W        W25118   0.448   4.701  11.478
54519W        W25119  22.725  20.970   3.236
54520W        W25120  25.133   2.246  14.407
54521W        W25121  16.417  34.606  14.142
54522W        W25122   1.425  21.018  13.019
54523W        W25123  26.051  42.274   1.305
54524W        W25124   9.358  18.657   4.124
54525W        W25125  22.617  18.596   0.153
54526W        W25126  40.527  29.908  12.788
54527W        W25127  26.658  26.987  14.585
54528W        W25128  12.710  36.896   4.213
54529W        W25129   6.842  24.249  11.632
54530W        W25130  42.899  24.178  12.088
54531W        W25131  23.702  43.750  13.962
54532W        W25132  38.583  32.089  12.532
54533W        W25133  12.535  29.574   0.458
54534W        W25134  31.019  16.637  11.272
54535W        W25135   3.020   4.156   1.762
54536W        W25136  43.183   1.907   1.796
54537W        W25137  11.797  15.064   4.128
54538W        W25138  29.451   4.374   3.621
54539W        W25139  35.913   9.662   4.183
54540W        W25140  22.209  44.340  12.440
54541W        W25141  10.804  31.712   4.585
54542W        W25142  28.424  20.382   0.853
54543W        W25143  15.697  32.300  11.591
54544W        W25144  43.785  17.579  13.971
54545W        W25145   1.749  28.882  13.939
54546W        W25146  11.730  19.478  10.393
54547W        W25147   6.336  23.308   0.949
54548W        W25148   8.908  28.345   2.690
54549W        W25149   0.382  37.131  10.624
54550W        W25150   6.522   7.852   1.635
54551W        W25151  27.932  30.866  11.990
54552W        W25152  19.570  30.328  11.534
54553W        W25153  30.116   4.973  11.687
54554W        W25154  40.365  28.398   4.573
54555W        W25155  23.176  28.431   4.288
54556W        W25156   8.875  37.310   0.330
54557W        W25157  21.811  11.742   2.583
54558W        W25158   1.529  29.782  14.008
54559W        W25159  24.951  23.143  13.006
54560W        W25160  42.066  26.057  11.485
54561W        W25161  43.000  31.634   2.807
54562W        W25162  10.544  21.731  12.053
54563W        W25163  11.700  31.093   0.451
54564W        W25164  42.398  16.527   1.444
54565W        W25165  35.921  16.103  12.918
54566W        W25166  38.990  35.807   4.323
54567W        W25167  16.316  15.598   5.402
54568W        W25168   6.283  28.490   3.200
54569W        W25169  31.065  30.103   0.694
54570W        W25170  22.425  29.241   1.449
54571W        W25171  33.701  37.956   0.705
54572W        W25172  18.780   0.715  14.313
54573W        W25173  13.633  25.632  11.103
54574W        W25174  11.518  21.217   2.241
54575W        W25175  36.336  26.611   2.252
54576W        W25176  23.085  16.516  11.659
54577W        W25177   2.868  39.718   0.078
54578W        W25178  43.525   4.731   3.198
54579W        W25179  11.814   7.118   3.785
54580W        W25180  37.748  12.226   0.720
54581W        W25181  14.180  24.378   4.385
54582W        W25182  30.872  38.059   0.170
54583W        W25183   5.953  10.569   4.863
54584W        W25184   9.048  31.479  14.304
54585W        W25185   7.681  22.491  12.390
54586W        W25186   8.935  11.853  11.495
54587W        W25187  38.945  23.187   3.747
54588W        W25188  31.448  27.148  11.689
54589W        W25189   5.214  18.558  12.377
54590W        W25190  36.457  33.688   0.369
54591W        W25191   1.906  12.559   1.434
54592W        W25192   5.025   4.545  10.500
54593W        W25193   5.644   2.317  12.510
54594W        W25194  24.260  15.187  11.197
54595W        W25195   5.224  24.009   0.352
54596W        W25196  32.980  38.758   1.143
54597W        W25197  13.648  44.778   2.633
54598W        W25198  20.686   8.757  11.929
54599W        W25199  33.139   6.712  13.041
54600W        W25200  18.928  31.230  12.153
54601W        W25201  11.591  21.652  14.400
54602W        W25202  36.719  44.894  13.992
54603W        W25203  15.662   6.360   3.550
54604W        W25204  34.051  44.748   4.163
54605W        W25205   5.409  44.062   0.251
54606W        W25206   7.804  28.894   4.616
54607W        W25207  24.511   7.724   3.490
54608W        W25208  44.244  44.255   1.741
54609W        W25209   0.781  41.591   2.329
54610W        W25210  19.104  22.327  13.292
54611W        W25211  24.033  18.255  10.659
54612W        W25212  25.367   3.942   2.782
54613W        W25213   5.539   4.948   1.336
54614W        W25214  38.813  17.271  13.888
54615W        W25215  20.172  39.881  13.284
54616W        W25216  34.892  43.955  10.543
54617W        W25217  37.989  28.681   2.746
54618W        W25218  11.304  11.208   2.235
54619W        W25219   0.302  17.279   2.333
54620W        W25220  35.737  24.801  11.600
54621W        W25221   9.367   8.696  14.355
54622W        W25222  13.692  36.332   2.362
54623W        W25223  21.669  22.876   4.866
54624W        W25224  11.378  18.655  14.457
54625W        W25225  38.776  27.914   0.361
54626W        W25226  42.416  44.988  12.455
54627W        W25227  21.040  24.677  13.008
54628W        W25228  12.357  28.099  10.660
54629W        W25229  21.812  41.586   2.783
54630W        W25230  10.820   2.228  13.964
54631W        W25231   3.978  36.358   4.736
54632W        W25232  19.567  25.290  14.953
54633W        W25233  16.082  14.696   2.857
54634W        W25234  19.254  31.554   4.168
54635W        W25235  17.752   7.184   1.040
54636W        W25236  10.918   0.387   1.634
54637W        W25237  31.028   8.651   4.179
54638W        W25238  10.241  14.741   4.592
54639W        W25239   3.701   0.887   2.199
54640W        W25240  24.981   3.962   1.387
54641W        W25241  13.617  31.916  11.123
54642W        W25242  19.081  12.211  14.865
54643W        W25243   3.914   4.310  11.471
54644W        W25244  43.561  40.089   0.894
54645W        W25245   1.199  16.851  14.860
54646W        W25246  15.790  37.303  14.669
54647W        W25247  16.025  11.875   3.687
54648W        W25248  20.967  27.746   3.125
54649W        W25249  37.808  39.997   4.538
54650W        W25250  13.160  42.700   1.759
54651W        W25251  40.404  42.996  10.489
54652W        W25252   5.152  18.302  10.085
54653W        W25253  24.024   9.709   3.945
54654W        W25254   6.326  29.646  11.704
54655W        W25255  12.918  30.498  10.713
54656W        W25256  24.315  19.797  10.029
54657W        W25257  42.315  41.787   4.568
54658W        W25258  23.235   4.745   2.655
54659W        W25259  39.849  31.223  11.964
54660W        W25260   4.287  10.515  12.040
54661W        W25261   1.363  17.820   0.717
54662W        W25262  41.504  36.388   2.774
54663W        W25263   0.957  40.477  14.449
54664W        W25264  41.050  15.151  14.771
54665W        W25265  12.772   5.834  14.789
54666W        W25266  15.200  26.253  14.393
54667W        W25267  35.896  41.346  14.463
54668W        W25268  27.199  35.599   0.971
54669W        W25269  27.043   5.788   4.578
54670W        W25270  33.345  23.301  13.659
54671W        W25271  26.565   3.935  14.337
54672W        W25272  26.079  34.803  11.910
54673W        W25273   1.761   6.101  11.894
54674W        W25274  32.559  36.614   1.310
54675W        W25275  29.590  27.451   4.204
54676W        W25276  33.413  37.041  11.271
54677W        W25277   8.392  18.508  12.995
54678W        W25278  19.316  44.260   0.527
54679W        W25279  12.778  42.391  13.426
54680W        W25280  31.757   2.925   4.105
54681W        W25281   3.203  22.468   1.476
54682W        W25282  31.499  33.564  14.836
54683W        W25283  21.990  42.795  13.434
54684W        W25284  14.023  14.588  14.565
54685W        W25285  23.536  36.971   2.017
54686W        W25286  11.199  34.141   3.297
54687W        W25287  37.473   5.246  11.889
54688W        W25288   9.887  44.038  12.929
54689W        W25289  42.867  15.377   0.348
54690W        W25290  40.021  33.481  13.819
54691W        W25291  39.895  16.226   4.477
54692W        W25292  26.865  25.407  10.683
54693W        W25293  31.103  43.135  13.977
54694W        W25294   2.420  19.578   2.502
54695W        W25295  29.831   7.386   0.661
54696W        W25296  36.757  29.341  12.956
54697W        W25297  10.807   9.618  13.847
54698W        W25298   3.445  14.713  10.720
54699W        W25299  12.078  36.437  13.418
54700W        W25300   2.508  23.325   2.275
54701W        W25301  36.007   2.100   0.387
54702W        W25302   5.716  21.422  14.780
54703W        W25303  23.961   5.222   3.515
54704W        W25304  10.522   9.870  10.756
54705W        W25305   2.488  26.339   5.025
54706W        W25306  11.190  17.281   0.215
54707W        W25307   9.348  16.959  13.103
54708W        W25308   6.843  40.558   3.754
54709W        W25309   5.449   9.823   0.710
54710W        W25310  40.989  15.014  13.814
54711W        W25311  13.407   0.298  12.558
54712W        W25312  25.564  22.212   1.799
54713W        W25313  22.967   3.893  12.753
54714W        W25314   3.045  22.055   2.115
54715W        W25315  25.990  30.982   0.271
54716W        W25316  10.813   2.333   3.259
54717W        W25317  27.828  15.134   1.015
54718W        W25318   2.738  31.371  14.480
54719W        W25319   3.820  39.324  14.457
54720W        W25320  32.338  32.822   4.542
54721W        W25321   5.617  11.644  14.233
54722W        W25322  23.662  13.786  14.417
54723W        W25323  22.487  11.703  12.929
54724W        W25324   9.599  32.512   4.172
54725W        W25325  27.235  42.369  13.414
54726W        W25326  42.354   7.225   4.422
54727W        W25327   8.777  28.492   0.901
54728W        W25328  36.417  16.845  12.515
54729W        W25329  14.773  30.618  14.566
54730W        W25330  38.830  34.444  10.719
54731W        W25331  36.139   8.271   2.293
54732W        W25332  11.196  43.103   0.397
54733W        W25333   0.360  31.860   1.868
54734W        W25334  41.770   1.350   4.057
54735W        W25335  14.776  35.423  14.845
54736W        W25336  17.350  27.099   3.285
54737W        W25337  41.341  23.425  11.940
54738W        W25338  44.309  33.039   3.424
54739W        W25339   6.241  11.677  11.153
54740W        W25340  18.256  14.667  11.667
54741W        W25341  31.387  35.543  12.000
54742W        W25342  35.662  24.585   2.219
54743W        W25343   7.220  26.612   3.276
54744W        W25344  17.298  13.358  12.482
54745W        W25345  30.484   3.369   1.307
54746W        W25346  25.823   6.068   4.156
54747W        W25347   6.211  29.256   1.008
54748W        W25348   5.913   3.316  12.401
54749W        W25349  15.686   4.299  10.554
54750W        W25350   8.650  39.969   0.236
54751W        W25351  30.214  12.097   2.739
54752W        W25352  41.009  43.525  12.145
54753W        W25353  32.852   2.086  13.029
54754W        W25354  15.303  34.342   1.324
54755W        W25355  21.696   6.187   4.464
54756W        W25356  11.688   0.302   3.094
54757W        W25357  43.852  11.482   3.670
54758W        W25358  19.287   8.618  14.008
54759W        W25359  42.384  22.686   1.633
54760W        W25360  26.433   4.185  11.135
54761W        W25361   9.074   9.422   2.772
54762W        W25362  39.411  40.841   2.134
54763W        W25363  19.643  20.224  13.412
54764W        W25364  38.069  17.060   0.394
54765W        W25365  24.889  17.062   3.582
54766W        W25366  28.413   5.771  13.515
54767W        W25367  27.220  26.497   2.802
54768W        W25368  11.147  10.080   3.844
54769W        W25369  40.021  11.723  10.265
54770W        W25370  22.269  24.063   4.023
54771W        W25371  16.311  33.644   0.739
54772W        W25372  19.288  40.953  11.656
54773W        W25373   8.385  30.419  14.654
54774W        W25374   4.237  44.628   3.298
54775W        W25375   1.196  38.945  11.687
54776W        W25376   1.688  24.727  14.253
54777W        W25377  39.508   8.924  11.167
54778W        W25378   2.411  28.186   3.603
54779W        W25379   2.391  25.676  11.047
54780W        W25380  39.139  24.025   2.355
54781W        W25381  24.645   2.762   4.478
54782W        W25382   2.665  13.052  12.553
54783W        W25383  40.960  15.388   0.752
54784W        W25384  31.465  22.360   2.981
54785W        W25385  13.107  25.435  12.591
54786W        W25386  33.717  33.274   2.278
54787W        W25387  29.916  12.741  13.780
54788W        W25388  12.758  39.017  11.652
54789W        W25389   8.421  27.681  13.335
54790W        W25390  32.071  35.782  14.494
54791W        W25391  24.361  18.535  14.798
54792W        W25392   8.731  20.292   0.324
54793W        W25393  39.918   1.205  12.659
54794W        W25394   3.968  26.195  12.038
54795W        W25395  24.244  29.733   0.399
54796W        W25396  43.720  40.167   0.200
54797W        W25397  23.329   0.242  13.116
54798W        W25398  41.119  19.682  13.951
54799W        W25399  41.797  25.165   1.215
54800W        W25400  23.544  36.824  13.339
54801W        W25401   9.641   2.749   0.883
54802W        W25402  17.211  11.690  12.683
54803W        W25403  30.293   4.575  14.581
54804W        W25404  34.833  35.595   0.034
54805W        W25405  19.547  42.269  11.451
54806W        W25406  29.943  27.508   2.805
54807W        W25407  12.515  30.805   3.576
54808W        W25408   9.762  18.233   0.407
54809W        W25409   9.691  26.775   4.109
54810W        W25410  30.701  37.464  13.113
54811W        W25411  21.847   1.086   3.772
54812W        W25412  41.791  26.457  10.269
54813W        W25413  44.483  25.734   4.129
54814W        W25414   3.493  36.585  14.788
54815W        W25415  32.337  32.403  14.484
54816W        W25416   3.804  26.545  12.673
54817W        W25417   3.606   3.094  12.165
54818W        W25418   4.657   8.030  14.253
54819W        W25419  18.247  24.476   2.293
54820W        W25420  10.853  28.441   4.670
54821W        W25421  12.373  25.240   4.954
54822W        W25422  19.258  36.036   4.233
54823W        W25423  41.395  44.238  12.059
54824W        W25424  42.090   6.250  11.620
54825W        W25425   1.451  39.739   2.199
54826W        W25426   3.420  33.753  11.771
54827W        W25427  16.534  41.536   1.831
54828W        W25428  27.503   6.649   2.285
54829W        W25429  33.530   4.807  11.002
54830W        W25430  10.612  22.093  12.531
54831W        W25431  18.789   2.763   3.987
54832W        W25432  14.784  19.702  10.751
54833W        W25433  44.062  37.117   2.118
54834W        W25434  38.402  15.288  10.692
54835W        W25435  13.200  22.733   3.192
54836W        W25436   9.846  27.712   2.228
54837W        W25437  40.721  22.758  13.295
54838W        W25438  32.907  13.646   2.125
54839W        W25439  22.623  24.957   5.132
54840W        W25440   8.536  33.615   1.697
54841W        W25441  20.520  39.480  13.464
54842W        W25442  36.024   4.541  12.379
54843W        W25443   1.184  36.013  12.982
54844W        W25444  24.440  18.034   1.212
54845W        W25445   8.777  18.508  10.752
54846W        W25446   4.806   8.699   1.674
54847W        W25447  39.830  26.246  11.067
54848W        W25448   8.672  12.383   3.661
54849W        W25449  27.302  27.472  11.227
54850W        W25450  38.086  33.602  11.636
54851W        W25451  12.303  25.614   3.223
54852W        W25452  14.605  39.287   0.863
54853W        W25453  32.577  37.814  12.317
54854W        W25454  44.926   6.000  12.147
54855W        W25455  25.651  15.325   1.949
54856W        W25456   9.390  22.703  10.737
54857W        W25457  20.101   2.715  10.620
54858W        W25458  32.363  40.274  12.610
54859W        W25459   2.463  12.148   2.060
54860W        W25460   4.262  14.133  13.783
54861W        W25461  29.645   9.303  12.092
54862W        W25462  16.116  12.242   4.767
54863W        W25463  10.210  25.900   3.114
54864W        W25464  38.150  35.343  12.236
54865W        W25465  17.836  12.959   4.316
54866W        W25466  35.579  35.324   1.402
54867W        W25467  34.515  10.861   0.919
54868W        W25468  21.530  10.783  11.475
54869W        W25469  30.913  43.933   4.498
54870W        W25470  42.790  44.461  13.034
54871W        W25471  21.548  17.204  14.464
54872W        W25472  31.677  34.941  13.343
54873W        W25473  32.530   2.271  13.394
54874W        W25474  27.776  23.790  11.683
54875W        W25475  43.767  35.175   0.552
54876W        W25476   9.408  36.124   4.115
54877W        W25477  12.088   9.561   3.029
54878W        W25478   6.518  22.659  11.411
54879W        W25479  35.997  43.271  13.179
54880W        W25480   8.079  25.908  11.190
54881W        W25481   9.289   6.559   4.513
54882W        W25482  23.242  10.125  11.094
54883W        W25483  22.023  13.151   2.301
54884W        W25484   9.623  40.657  10.659
54885W        W25485   4.187  22.683   4.646
54886W        W25486  13.265  17.523  13.372
54887W        W25487  22.433  25.209   4.237
54888W        W25488  26.025   6.884  10.640
54889W        W25489  33.514   1.024  10.781
54890W        W25490  37.974  39.037  14.877
54891W        W25491  12.430  14.806  12.522
54892W        W25492  24.388  32.426   2.883
54893W        W25493   3.360  27.669  11.094
54894W        W25494   2.291  33.545   3.614
54895W        W25495  36.632  32.140   0.407
54896W        W25496  20.710  17.587  14.542
54897W        W25497  32.106  24.995  12.419
54898W        W25498  32.261   9.912  13.441
54899W        W25499  14.282  30.652  13.855
54900W        W25500  36.059  23.033  13.506
54901W        W25501  33.141  22.077   2.595
54902W        W25502  27.510   4.132  11.688
54903W        W25503  30.193  31.876  12.968
54904W        W25504  44.769   4.352  13.851
54905W        W25505   8.711   5.649   4.146
54906W        W25506  22.950  36.945   1.958
54907W        W25507  12.371  32.860  11.989
54908W        W25508  14.321  12.362  12.464
54909W        W25509  21.819  28.527   9.342
54910W        W25510  24.273  15.364   0.990
54911W        W25511  22.934   3.026  14.015
54912W        W25512  18.978   4.293  13.121
54913W        W25513   6.662   1.853  13.040
54914W        W25514  26.903  38.591  13.023
54915W        W25515  39.146  23.905   0.786
54916W        W25516  15.110  22.039  11.629
54917W        W25517   5.270  28.972   1.098
54918W        W25518   6.486  14.249   3.285
54919W        W25519  27.471  24.204  11.586
54920W        W25520  42.335  43.332  12.087
54921W        W25521   4.403  20.398   3.715
54922W        W25522  14.771   3.865   0.762
54923W        W25523  32.889  33.542   4.709
54924W        W25524  23.280  32.977  11.132
54925W        W25525  43.422  29.246  13.877
54926W        W25526   6.296  36.087  12.097
54927W        W25527  11.307  39.377   1.847
54928W        W25528  25.062   2.536   2.725
54929W        W25529  14.072  15.613   1.910
54930W        W25530  29.912  30.869   1.112
54931W        W25531  32.024  34.530  11.399
54932W        W25532  16.164  35.946   0.329
54933W        W25533  17.770  29.004   2.036
54934W        W25534   5.871  27.042  11.359
54935W        W25535   9.163  41.469  13.501
54936W        W25536  36.440  42.765   2.723
54937W        W25537   9.922  35.888   1.440
54938W        W25538   9.130   7.917   2.806
54939W        W25539  25.715  29.943   1.876
54940W        W25540   4.354  20.264  10.635
54941W        W25541  10.672  26.585   0.302
54942W        W25542  37.888  38.762   2.377
54943W        W25543  27.802  31.783   4.162
54944W        W25544  26.101  26.482  10.584
54945W        W25545  36.706  44.079  11.597
54946W        W25546   6.420  29.370   3.692
54947W        W25547  23.489  15.624  13.692
54948W        W25548  24.776   7.030   2.871
54949W        W25549   9.400   0.789   2.768
54950W        W25550  26.490  12.854   9.716
54951W        W25551  14.061  36.537   3.994
54952W        W25552  28.079  14.513  14.394
54953W        W25553  13.048  40.440   2.397
54954W        W25554   7.274  10.799  14.074
54955W        W25555  36.042  37.409   2.913
54956W        W25556  29.676   6.349   4.363
54957W        W25557  27.512   0.927  11.766
54958W        W25558  36.102  31.716   1.785
54959W        W25559   6.111  21.977  14.321
54960W        W25560  22.068  10.142  13.819
54961W        W25561  14.655   6.370  10.583
54962W        W25562  26.587  12.660   3.552
54963W        W25563   2.331  32.263  12.345
54964W        W25564  34.385  15.403   1.780
54965W        W25565   7.258  27.452   1.830
54966W        W25566  18.273  42.450   1.841
54967W        W25567   5.325  12.328   4.220
54968W        W25568   6.470  24.234   0.299
54969W        W25569  10.200  21.148  10.281
54970W        W25570  26.685  26.919   0.500
54971W        W25571  22.211  29.029  13.731
54972W        W25572  15.561  15.172  12.181
54973W        W25573   8.440   9.285   2.136
54974W        W25574  22.796  13.762  13.902
54975W        W25575   1.307  13.045   3.110
54976W        W25576   1.814  35.730   1.873
54977W        W25577   2.201   8.782   1.292
54978W        W25578  44.334  34.552  13.004
54979W        W25579  36.940  22.673   4.570
54980W        W25580  33.915  29.362  13.943
54981W        W25581  23.365  36.799   3.352
54982W        W25582  32.431  33.376   0.880
54983W        W25583  18.239  29.506   1.770
54984W        W25584  29.712  27.671   0.039
54985W        W25585  33.231   0.868  11.203
54986W        W25586  21.063  29.715   0.240
54987W        W25587  17.178  32.002  13.830
54988W        W25588  30.626  34.976   4.021
54989W        W25589  19.494  44.494  11.663
54990W        W25590  40.497  43.067   2.703
54991W        W25591  37.897  11.021   3.578
54992W        W25592  21.428  18.639  14.738
54993W        W25593   7.684  16.299   4.465
54994W        W25594   8.140  40.345   1.949
54995W        W25595  43.987  23.616   0.848
54996W        W25596  19.936  37.850   0.076
54997W        W25597  22.670  25.133  13.622
54998W        W25598  15.195  18.716   1.518
54999W        W25599  41.266  25.120  13.363
55000W        W25600   2.402   7.889  12.612
55001W        W25601  29.487  26.171   1.030
55002W        W25602  24.586   1.863   1.320
55003W        W25603  41.894  11.069  12.913
55004W        W25604  41.440  28.808  11.333
55005W        W25605   7.086   8.649   2.835
55006W        W25606  36.889   8.844  14.739
55007W        W25607  32.576  43.316  14.023
55008W        W25608  27.771  22.144  11.985
55009W        W25609  15.587  13.557  11.513
55010W        W25610   6.316  30.890  11.140
55011W        W25611  32.505   8.941   3.157
55012W        W25612  29.435  43.874  11.944
55013W        W25613   1.456  42.287  11.714
55014W        W25614   7.328  36.620   1.821
55015W        W25615  40.221  36.555  11.637
55016W        W25616   1.751   7.158   0.542
55017W        W25617  34.851  11.794  14.507
55018W        W25618  31.670   6.169   2.820
55019W        W25619  30.100   0.692  12.608
55020W        W25620  16.375  21.613   3.367
55021W        W25621   2.915   4.905  14.729
55022W        W25622  14.684  20.879  12.881
55023W        W25623  25.255  38.403   2.738
55024W        W25624  43.404  28.730  11.510
55025W        W25625  35.371  29.528  14.752
55026W        W25626  26.206  43.414  10.619
55027W        W25627  26.078  42.737   4.336
55028W        W25628  12.330  14.165  12.060
55029W        W25629  39.893   3.746   4.414
55030W        W25630  32.581  10.250  11.167
55031W        W25631  36.144  41.530   1.793
55032W        W25632  29.044  19.001  13.895
55033W        W25633  13.631  11.600   4.186
55034W        W25634  21.514   5.855   2.318
55035W        W25635   2.397  39.600   3.035
55036W        W25636  20.574  32.015  12.990
55037W        W25637  28.153   5.325  13.712
55038W        W25638  23.157  37.749   3.192
55039W        W25639  32.119  36.827  11.446
55040W        W25640  31.661  11.128  10.925
55041W        W25641  11.841  16.630  11.247
55042W        W25642  36.880  11.746  10.990
55043W        W25643  38.391  12.035   3.874
55044W        W25644   0.293  22.566  14.905
55045W        W25645  43.021   6.473  10.307
55046W        W25646  34.394  42.477   4.337
55047W        W25647  17.786  24.692   0.776
55048W        W25648  37.466  29.582   4.731
55049W        W25649  18.215  20.083   1.952
55050W        W25650  37.478  14.780   0.550
55051W        W25651  24.997  26.873  13.000
55052W        W25652  39.218  19.703   5.383
55053W        W25653  23.392  22.057   0.024
55054W        W25654   0.745  17.616  10.450
55055W        W25655   7.170  15.334   1.521
55056W        W25656  27.500  35.687  10.425
55057W        W25657  36.917   0.020  13.527
55058W        W25658  26.743  39.950  14.953
55059W        W25659  22.531  23.306   2.757
55060W        W25660   8.258  25.689  14.424
55061W        W25661   4.375  33.004   2.152
55062W        W25662  43.872  24.196  14.504
55063W        W25663   2.089  44.775  12.994
55064W        W25664   3.557  17.858  11.120
55065W        W25665  28.567  26.923   2.842
55066W        W25666   2.749  28.525  12.459
55067W        W25667   9.163   1.931  11.107
55068W        W25668  23.505   8.791  11.207
55069W        W25669  17.754   4.931  14.868
55070W        W25670   5.993  17.596  12.545
55071W        W25671   1.907  30.579  10.871
55072W        W25672  31.028  14.232  13.959
55073W        W25673  33.572  40.369   1.935
55074W        W25674  44.513  41.819   2.975
55075W        W25675  34.445  34.358   4.145
55076W        W25676   5.733  41.365  13.383
55077W        W25677  18.082  43.281  10.602
55078W        W25678  44.506  35.871   4.108
55079W        W25679  26.603  27.219   1.369
55080W        W25680   9.695   6.943   0.869
55081W        W25681  22.298  32.770  12.065
55082W        W25682   4.610  44.305   2.434
55083W        W25683  43.181  26.822   2.799
55084W        W25684  30.616  10.421   2.298
55085W        W25685  40.027  37.873  14.492
55086W        W25686   7.655  13.547  10.726
55087W        W25687  27.611  24.535  12.629
55088W        W25688  21.199  20.539  12.488
55089W        W25689  13.870  16.782   1.278
55090W        W25690  23.783  32.960  14.897
55091W        W25691  34.619  11.250   0.337
55092W        W25692  10.036  29.028  12.454
55093W        W25693  10.202   4.470   0.891
55094W        W25694   5.851  21.039   4.645
55095W        W25695  32.937  12.383   4.560
55096W        W25696   7.566  20.375  13.748
55097W        W25697  35.989  26.556  11.218
55098W        W25698  15.560  37.850  13.418
55099W        W25699   0.089   9.561  12.967
55100W        W25700   1.086  23.084  13.758
55101W        W25701  44.363   0.842   4.737
55102W        W25702   3.300  35.633   3.223
55103W        W25703  25.709  30.058  10.545
55104W        W25704   4.916  19.241  13.120
55105W        W25705   7.900  14.093   2.371
55106W        W25706  34.049  13.861   3.044
55107W        W25707   2.544  30.335   4.453
55108W        W25708  29.234  41.071  10.305
55109W        W25709  13.221  23.726  13.034
55110W        W25710   9.932  11.323   3.131
55111W        W25711   1.847  21.282   4.558
55112W        W25712   7.918  36.630   1.401
55113W        W25713   7.287  15.316  11.010
55114W        W25714  15.379  23.607   4.257
55115W        W25715  24.269  39.933   3.992
55116W        W25716  36.515   9.273   4.686
55117W        W25717  24.112  21.095   2.812
55118W        W25718   8.702  36.283  11.059
55119W        W25719  28.603  42.070  13.428
55120W        W25720  40.467  11.668   3.592
55121W        W25721  27.187  13.399   3.798
55122W        W25722  11.205  43.891   2.595
55123W        W25723  42.545  43.989   1.179
55124W        W25724  35.677  24.016   2.729
55125W        W25725   4.750   1.455  11.525
55126W        W25726   4.469   0.948  13.616
55127W        W25727  15.871  33.364  10.371
55128W        W25728  14.226   9.687   0.433
55129W        W25729  37.080  22.926  13.467
55130W        W25730   5.826  44.693  10.993
55131W        W25731  23.641  41.560  14.574
55132W        W25732  33.953  40.866  14.832
55133W        W25733  30.939  34.547   0.969
55134W        W25734  19.660   0.977  11.513
55135W        W25735  16.587  24.642  13.747
55136W        W25736  15.400  32.554   0.186
55137W        W25737  21.360  20.783   0.342
55138W        W25738  44.754  29.109  11.327
55139W        W25739  37.419  22.956   1.907
55140W        W25740  27.652  20.818  11.095
55141W        W25741  14.734   0.740  13.624
55142W        W25742  40.578  27.034   1.841
55143W        W25743  43.102  37.172   1.889
55144W        W25744   5.311  12.044   2.108
55145W        W25745  40.726  11.762   4.992
55146W        W25746  37.790   0.588  12.510
55147W        W25747   3.486  44.256  10.757
55148W        W25748  28.119   6.368   1.905
55149W        W25749  42.038   7.491  11.853
55150W        W25750  27.918   8.229   3.201
55151W        W25751  21.496  26.510   1.312
55152W        W25752  18.000  10.164   1.789
55153W        W25753  23.191  12.316  12.920
55154W        W25754  21.262  32.008   2.140
55155W        W25755  15.403  32.196   5.161
55156W        W25756   8.314  39.972   4.117
55157W        W25757  23.046  30.902  13.873
55158W        W25758   2.710  25.604   0.899
55159W        W25759  37.507  37.215  10.745
55160W        W25760  14.820   4.663  10.978
55161W        W25761  35.171  42.902   0.376
55162W        W25762  44.764  29.861  13.013
55163W        W25763  28.651   3.343  13.839
55164W        W25764  40.864  25.476   0.070
55165W        W25765  13.337  28.936   4.118
55166W        W25766   7.170  16.659  13.968
55167W        W25767   0.461  41.579   4.698
55168W        W25768  35.387  23.109  12.677
55169W        W25769   6.157  18.064  12.388
55170W        W25770  38.625   7.278   1.210
55171W        W25771  37.256  15.852   2.052
55172W        W25772   6.810  26.244   4.615
55173W        W25773   2.478  16.620  11.240
55174W        W25774  20.221  33.957   0.837
55175W        W25775  12.493  44.559   4.628
55176W        W25776  21.766   4.758  11.606
55177W        W25777   2.722  42.549   4.668
55178W        W25778  39.074  12.793   2.295
55179W        W25779  39.151  22.182  13.039
55180W        W25780   2.204  34.944  13.908
55181W        W25781  22.150   6.152   9.814
55182W        W25782  25.998  26.928  10.845
55183W        W25783  23.233  25.657   4.093
55184W        W25784  11.576  33.238  12.299
55185W        W25785  24.637   6.285   1.407
55186W        W25786  20.891  20.968  12.560
55187W        W25787  10.016  44.443  12.570
55188W        W25788  42.874   7.296   1.852
55189W        W25789  33.886  21.462  10.320
55190W        W25790   7.311  41.442  12.639
55191W        W25791  11.955  18.678   2.797
55192W        W25792  27.087   9.761   1.431
55193W        W25793  19.555  19.755   4.557
55194W        W25794  39.310  37.576   2.263
55195W        W25795  19.482  31.739  12.520
55196W        W25796  28.625  30.897   1.968
55197W        W25797   5.256   3.919   1.310
55198W        W25798  42.742  26.447   1.891
55199W        W25799  19.741  22.468   3.271
55200W        W25800  24.606  28.761  13.805
55201W        W25801   7.194   0.709   0.786
55202W        W25802   7.969  19.339  13.950
55203W        W25803  30.478  25.638  13.092
55204W        W25804   6.075  13.615   1.270
55205W        W25805   0.848  10.666  12.948
55206W        W25806  12.247  25.696   4.201
55207W        W25807  14.432  24.692   4.042
55208W        W25808  10.068  43.803  10.405
55209W        W25809   8.878  17.000   4.232
55210W        W25810  16.995  21.195   3.684
55211W        W25811  39.856  33.177  10.827
55212W        W25812  17.782  11.334   1.346
55213W        W25813  43.411  34.048   1.875
55214W        W25814  21.227   4.933   2.163
55215W        W25815   1.318  15.396  12.713
55216W        W25816  44.739  16.645  13.453
55217W        W25817  33.020  20.320   2.456
55218W        W25818  40.542  19.681  11.988
55219W        W25819  16.672  34.958  13.651
55220W        W25820  43.329  12.320  10.773
55221W        W25821  44.795  37.025   3.293
55222W        W25822   9.173  14.696  14.994
55223W        W25823  10.226  32.890  14.411
55224W        W25824   5.270  32.424  11.587
55225W        W25825  23.563  43.000  13.297
55226W        W25826  34.729   4.831  12.882
55227W        W25827  25.198  12.478   1.933
55228W        W25828  20.160   8.987  12.374
55229W        W25829  38.269  22.178   3.294
55230W        W25830  37.524  11.263  13.510
55231W        W25831   9.388  25.813   2.291
55232W        W25832   2.847   1.330  11.404
55233W        W25833  31.962  29.486   1.686
55234W        W25834  14.762  43.017  14.487
55235W        W25835   6.985   6.512  14.029
55236W        W25836  38.412  28.220  13.367
55237W        W25837  27.446  11.654   3.448
55238W        W25838  33.376  11.802  10.266
55239W        W25839  40.940   9.130  12.739
55240W        W25840  42.755  22.657  10.705
55241W        W25841  35.370  11.801   2.792
55242W        W25842  23.093   5.205   2.460
55243W        W25843  39.337  40.483   0.962
55244W        W25844  38.802   5.694   3.292
55245W        W25845  37.888  12.921   4.644
55246W        W25846  19.486  16.634  10.619
55247W        W25847  33.634  16.795   3.425
55248W        W25848  38.426   1.261   2.789
55249W        W25849  12.154  31.934   2.586
55250W        W25850  44.761  11.687   3.695
55251W        W25851  34.559  11.371  12.546
55252W        W25852   7.136   6.885   0.834
55253W        W25853  31.920   3.643   3.186
55254W        W25854  17.147  31.335  14.998
55255W        W25855  18.122   5.776   2.740
55256W        W25856  26.634  18.033   2.602
55257W        W25857  28.972  29.389  13.389
55258W        W25858   4.699  31.373   0.826
55259W        W25859  18.708  41.841   3.578
55260W        W25860  21.449  22.086   0.690
55261W        W25861  26.740  18.693  14.455
55262W        W25862   2.968  32.318   5.054
55263W        W25863  20.318  32.433   0.018
55264W        W25864   3.365  31.942   0.642
55265W        W25865  39.982  23.689  14.401
55266W        W25866  27.946  11.268  14.467
55267W        W25867   3.721  33.563  12.660
55268W        W25868  30.569  14.125  10.860
55269W        W25869  28.462  31.130   4.450
55270W        W25870  17.645   5.806   3.674
55271W        W25871  30.373  19.757   3.252
55272W        W25872   8.405  32.364   1.435
55273W        W25873  20.152  44.184  14.900
55274W        W25874  35.001  41.230   1.658
55275W        W25875  22.228   7.166  10.786
55276W        W25876  22.715  22.104  12.633
55277W        W25877  16.849  35.387  13.902
55278W        W25878   1.216  30.994   3.634
55279W        W25879   3.345   0.392   2.703
55280W        W25880  24.941  19.072   0.265
55281W        W25881  24.406   7.096   0.988
55282W        W25882  31.471  42.805  13.815
55283W        W25883  36.895  17.133   1.145
55284W        W25884  11.770  18.320   4.578
55285W        W25885   6.737  10.785   2.507
55286W        W25886  34.102  13.730  11.968
55287W        W25887   2.030  10.352  11.783
55288W        W25888  32.380  44.934  11.112
55289W        W25889  31.942  23.088  11.583
55290W        W25890  38.107   9.297  13.898
55291W        W25891  37.286  23.373   0.152
55292W        W25892   7.153   5.763  11.650
55293W        W25893  11.140   5.792   1.223
55294W        W25894  30.579  36.907  11.989
55295W        W25895  14.711   2.302  12.871
55296W        W25896  13.169  13.681  13.046
55297W        W25897   6.745  42.970  10.724
55298W        W25898  31.372   7.737  11.932
55299W        W25899   1.383   2.209  14.973
55300W        W25900  13.260   3.410   2.136
55301W        W25901  37.432   1.415   1.278
55302W        W25902  19.239  41.670   1.403
55303W        W25903   6.735  36.470   2.368
55304W        W25904  40.804  34.036   4.724
55305W        W25905   2.865  40.762   0.382
55306W        W25906  19.640   1.801   2.618
55307W        W25907  37.343   4.563  11.113
55308W        W25908  10.384  41.949   0.725
55309W        W25909  25.479   1.179   4.505
55310W        W25910  42.827  27.559   0.239
55311W        W25911  35.886   2.656   1.234
55312W        W25912   8.026  35.653   1.206
55313W        W25913  10.364  14.273   3.309
55314W        W25914  32.991  12.931  14.361
55315W        W25915  32.002  21.674  10.401
55316W        W25916  19.712   4.501  10.744
55317W        W25917  34.455  40.050  14.543
55318W        W25918   1.928  44.706   3.234
55319W        W25919  33.268  32.535  14.472
55320W        W25920  32.573   7.824   2.304
55321W        W25921  38.430  16.731  11.242
55322W        W25922  15.362  30.074   2.417
55323W        W25923  35.359   4.710  12.050
55324W        W25924  15.687  16.417  14.884
55325W        W25925  10.763  24.409   0.732
55326W        W25926  40.290  17.276   0.310
55327W        W25927  22.279  13.375   2.717
55328W        W25928  21.949  32.394  12.093
55329W        W25929   6.298  11.038   0.689
55330W        W25930  14.359  42.352   5.031
55331W        W25931  15.792  22.550   2.429
55332W        W25932  27.451   8.894  14.612
55333W        W25933  34.946  18.289  13.869
55334W        W25934  26.025  34.373   1.704
55335W        W25935  41.644  39.677   4.109
55336W        W25936  35.733  38.834  14.276
55337W        W25937  40.343  13.240  13.577
55338W        W25938  10.016  18.344   3.898
55339W        W25939  20.722  18.098  14.773
55340W        W25940  37.976  26.906  13.336
55341W        W25941   5.876  42.538   1.853
55342W        W25942  34.566  25.850   0.170
55343W        W25943  30.359  14.337   3.795
55344W        W25944   9.408  30.894   0.434
55345W        W25945  37.863   7.696  13.081
55346W        W25946  43.842  18.087  14.874
55347W        W25947  40.360  10.718  12.252
55348W        W25948  19.222   9.618   4.237
55349W        W25949  36.861   8.808   5.056
55350W        W25950  20.730  18.988  11.474
55351W        W25951   3.165  31.899   4.763
55352W        W25952  35.804  22.567  13.401
55353W        W25953  18.261   6.484  14.375
55354W        W25954  33.849   0.771   3.118
55355W        W25955   7.327   1.891  11.153
55356W        W25956  29.589   3.260  11.106
55357W        W25957  32.354  31.571  12.399
55358W        W25958  40.904  21.680   0.439
55359W        W25959  35.026  18.190   3.229
55360W        W25960  20.680  44.249  14.983
55361W        W25961  22.284  25.070   2.504
55362W        W25962   8.917  26.496   4.656
55363W        W25963  31.117   2.350  12.574
55364W        W25964  35.995   5.467  10.812
55365W        W25965  32.002  38.797  13.477
55366W        W25966  42.304   7.783  10.491
55367W        W25967   2.441  25.223   4.184
55368W        W25968  42.864  20.565  10.674
55369W        W25969   3.458  21.167  12.534
55370W        W25970  33.808  13.092   9.815
55371W        W25971  22.023  22.172   3.701
55372W        W25972  21.180  20.094   2.674
55373W        W25973  39.620  16.328  13.434
55374W        W25974  23.098  20.350   1.512
55375W        W25975  13.277  19.570  14.833
55376W        W25976   1.211  44.970   3.756
55377W        W25977  33.529  19.756  13.509
55378W        W25978  40.130  38.371   4.522
55379W        W25979  23.129  12.715  11.287
55380W        W25980  42.285  10.413   4.574
55381W        W25981  29.227  43.229  11.220
55382W        W25982   5.582  30.338   4.378
55383W        W25983   8.633  15.224   0.733
55384W        W25984  26.496  17.669  12.088
55385W        W25985  41.052  26.700   4.639
55386W        W25986   1.964  24.058  10.411
55387W        W25987  35.099  38.503  13.539
55388W        W25988  10.313  31.870  14.514
55389W        W25989  40.940  14.894  14.336
55390W        W25990   4.468  24.673  14.447
55391W        W25991   7.767   2.333   1.597
55392W        W25992  22.923   6.289  10.861
55393W        W25993  14.580   9.868  13.929
55394W        W25994  13.835  43.405   0.411
55395W        W25995  41.489  16.014  11.478
55396W        W25996   9.128   5.202  14.340
55397W        W25997   6.790  17.054  13.035
55398W        W25998  19.031   2.843  14.865
55399W        W25999  24.167   1.186   0.987
55400W        W26000   8.217  12.365  12.978
55401W        W26001  14.379  10.347  13.495
55402W        W26002  33.374   6.682  14.275
55403W        W26003  19.165  19.657   1.160
55404W        W26004   5.371  14.568  12.472
55405W        W26005   6.323  43.605  11.589
55406W        W26006   1.977   3.235   3.725
55407W        W26007   4.448  13.668  13.606
55408W        W26008  32.960  17.695  13.098
55409W        W26009  33.540   6.584  11.014
55410W        W26010   5.482  17.269   3.992
55411W        W26011  24.744   8.688  13.809
55412W        W26012  40.644  10.715   0.661
55413W        W26013  44.510  18.574  11.087
55414W        W26014  34.987   4.915   0.930
55415W        W26015   3.415   0.106  13.472
55416W        W26016  30.100  31.057  13.992
55417W        W26017  11.696  17.831   4.773
55418W        W26018  15.687  26.929   3.196
55419W        W26019  18.365  44.277   4.584
55420W        W26020  33.676  13.257  10.760
55421W        W26021  26.180  38.264   2.814
55422W        W26022  31.070  31.162   4.566
55423W        W26023   7.705  14.125  13.474
55424W        W26024  32.818  28.471   1.357
55425W        W26025  34.645  38.698  12.789
55426W        W26026  40.439  41.750  14.981
55427W        W26027   1.427  39.319   1.342
55428W        W26028  13.702  23.789  10.790
55429W        W26029  26.003  24.668   2.265
55430W        W26030   3.131   3.274  14.753
55431W        W26031  43.773  30.257  11.189
55432W        W26032  37.788  21.815   2.777
55433W        W26033  22.887  16.211  10.488
55434W        W26034   5.838  41.858  14.208
55435W        W26035   7.737  39.346   1.381
55436W        W26036   2.440  38.902   2.811
55437W        W26037  39.353  41.057  10.782
55438W        W26038  37.323  31.443  14.410
55439W        W26039   4.357  34.724  12.631
55440W        W26040  20.996  10.127  14.758
55441W        W26041  40.926  33.881   3.720
55442W        W26042  22.561   0.048   0.734
55443W        W26043  44.608   2.014  14.162
55444W        W26044  23.318   7.134  14.047
55445W        W26045  17.766  24.627   2.323
55446W        W26046  10.290  12.984   4.739
55447W        W26047  14.681  20.283   3.115
55448W        W26048  44.703  29.123   2.718
55449W        W26049  21.110  37.437  13.890
55450W        W26050   9.698  33.624   1.080
55451W        W26051  23.426   4.353  13.865
55452W        W26052  35.870   1.827  12.485
55453W        W26053   7.343   5.750  12.128
55454W        W26054  34.191  35.242  11.887
55455W        W26055   5.833  29.988  11.530
55456W        W26056  39.674  29.969   0.340
55457W        W26057  44.175  37.312   0.780
55458W        W26058  12.728  19.340  12.522
55459W        W26059  38.372   4.845  14.723
55460W        W26060  20.322   8.128  13.520
55461W        W26061   9.522  11.290  13.559
55462W        W26062  41.466  11.602  13.993
55463W        W26063  41.054   7.702  11.070
55464W        W26064  37.493  38.477   4.341
55465W        W26065  15.270  19.241  11.002
55466W        W26066   7.630  43.357   0.998
55467W        W26067  41.782  41.917  13.080
55468W        W26068   1.307  29.867   1.673
55469W        W26069  22.043  21.210   1.546
55470W        W26070  16.163   9.592   1.369
55471W        W26071  43.391  24.530  13.783
55472W        W26072  29.675   7.199  12.661
55473W        W26073  28.659  24.000  12.418
55474W        W26074   8.443  25.543   0.780
55475W        W26075  24.107  37.926   3.638
55476W        W26076  13.502  33.479   4.153
55477W        W26077  12.293  23.377  14.275
55478W        W26078  24.296  43.977  12.735
55479W        W26079  19.124  11.751   1.313
55480W        W26080  15.602  13.294  13.173
55481W        W26081   3.758  24.064  11.603
55482W        W26082  24.198  16.232  14.150
55483W        W26083  41.823  32.083   0.261
55484W        W26084  37.481   4.438   3.212
55485W        W26085  39.434  44.758  10.747
55486W        W26086  13.406   8.864  11.101
55487W        W26087  23.917  14.093  10.611
55488W        W26088  30.636  42.189  13.436
55489W        W26089  12.888  41.959   0.794
55490W        W26090   0.433  14.775  13.880
55491W        W26091  14.136  23.232  13.807
55492W        W26092  41.767  29.608  11.676
55493W        W26093  16.546  22.119   1.239
55494W        W26094  38.740   9.702   1.904
55495W        W26095  19.885  21.276   2.393
55496W        W26096  25.967   5.690  11.555
55497W        W26097  37.434   2.212   0.406
55498W        W26098  37.069  25.236  11.572
55499W        W26099   3.242  44.777   1.050
55500W        W26100   9.036  30.828  13.371
55501W        W26101   2.398  18.272   0.360
55502W        W26102   4.733  13.254  13.445
55503W        W26103  24.470  26.922  14.762
55504W        W26104  24.508  42.310   2.481
55505W        W26105   0.029  11.014   2.570
55506W        W26106   5.302  21.656  11.619
55507W        W26107  25.792  36.333   0.285
55508W        W26108  41.110   9.714  14.346
55509W        W26109  12.869  27.842  14.056
55510W        W26110   4.779  41.371  11.690
55511W        W26111  34.587  24.534  12.010
55512W        W26112  42.268  10.048  10.373
55513W        W26113   3.809  30.863   0.249
55514W        W26114  42.254  18.764  14.587
55515W        W26115  40.321  16.270   2.712
55516W        W26116  39.905  37.490   0.954
55517W        W26117  20.079  27.509   4.132
55518W        W26118  26.512  31.661  13.529
55519W        W26119  25.187  33.853   2.860
55520W        W26120  18.284  27.261   4.422
55521W        W26121  36.351  40.947   0.669
55522W        W26122  11.358  16.047   1.745
55523W        W26123  41.397   3.235   3.172
55524W        W26124  34.693  27.957   2.564
55525W        W26125  21.588  34.914   2.465
55526W        W26126  16.488  13.065   0.869
55527W        W26127  16.269  34.835   3.320
55528W        W26128  25.675   3.711  12.956
55529W        W26129  38.294  17.888   4.635
55530W        W26130  35.478  33.024  12.157
55531W        W26131  28.267   0.417  14.541
55532W        W26132   3.511  28.917  14.753
55533W        W26133  44.015  29.584   3.771
55534W        W26134  38.086  19.308   4.641
55535W        W26135   7.737  20.208   2.409
55536W        W26136  26.506  25.244   0.246
55537W        W26137   5.742  43.959  12.327
55538W        W26138  26.979   1.013   2.464
55539W        W26139   5.672  16.315   0.430
55540W        W26140   7.728   4.328   3.935
55541W        W26141  40.871   9.674  14.798
55542W        W26142   3.623  41.119   0.868
55543W        W26143  35.150  16.639   2.243
55544W        W26144  11.808  19.395  12.640
55545W        W26145   9.847  14.021   2.393
55546W        W26146  35.839  11.453   1.715
55547W        W26147   1.810  43.804  14.939
55548W        W26148  33.428   8.125   0.030
55549W        W26149  26.918  20.610   1.673
55550W        W26150  36.753  11.833   4.590
55551W        W26151   4.662  33.128  13.444
55552W        W26152  27.212  21.129   3.145
55553W        W26153  18.714  36.280  13.108
55554W        W26154  15.627  39.803  10.615
55555W        W26155  11.651  41.827  11.723
55556W        W26156  10.147  32.620  14.842
55557W        W26157   5.851   2.518   3.843
55558W        W26158  43.988  31.418   0.471
55559W        W26159  18.535  10.580   1.340
55560W        W26160  29.119  30.759   4.956
55561W        W26161  39.415  22.615  12.972
55562W        W26162   8.120  28.936  12.924
55563W        W26163   0.688  18.646  12.970
55564W        W26164  17.676  17.997  14.448
55565W        W26165  31.685   3.852  12.093
55566W        W26166  43.097  37.972   0.303
55567W        W26167   5.778   4.245  10.973
55568W        W26168   5.415  17.820   4.831
55569W        W26169  15.169  24.151  12.159
55570W        W26170  26.288   7.758   2.428
55571W        W26171  24.383  17.693   4.643
55572W        W26172  42.963  24.986  12.383
55573W        W26173   4.328  18.585   0.446
55574W        W26174  38.811   4.390  13.806
55575W        W26175  43.788  18.398  13.531
55576W        W26176   4.286   5.232  10.523
55577W        W26177  14.642   1.752  13.889
55578W        W26178  40.245  44.787  12.522
55579W        W26179  33.966  36.832  13.901
55580W        W26180  39.648  28.027   3.756
55581W        W26181  42.130   6.942   2.681
55582W        W26182  38.386   8.518  12.289
55583W        W26183   9.373  15.118   0.251
55584W        W26184   2.532   5.846   4.644
55585W        W26185  20.656   6.599   1.392
55586W        W26186  10.330   6.442   3.712
55587W        W26187  24.631  11.852  14.258
55588W        W26188  14.061  38.877  10.927
55589W        W26189   3.480  27.007  11.958
55590W        W26190  28.516  31.932   3.058
55591W        W26191  34.511  28.205   0.179
55592W        W26192  34.854  14.452   1.201
55593W        W26193  19.751  41.379  14.686
55594W        W26194   4.526  16.244   0.988
55595W        W26195  23.617  19.289  14.360
55596W        W26196  34.834  44.774   1.835
55597W        W26197  43.292  13.576   0.468
55598W        W26198  33.516  38.414   0.499
55599W        W26199  27.665  35.367   1.025
55600W        W26200  37.980  38.098  11.919
55601W        W26201  36.833  35.666   0.423
55602W        W26202  17.452  28.148   0.984
55603W        W26203  29.556  13.867   0.847
55604W        W26204  19.333   6.913   0.318
55605W        W26205  42.788  41.974   4.605
55606W        W26206  37.966   7.223  14.362
55607W        W26207  37.543  43.875  13.610
55608W        W26208   8.740  37.599   1.915
55609W        W26209  27.547  41.869  11.557
55610W        W26210  23.015  19.499  10.589
55611W        W26211  21.185  18.154   0.028
55612W        W26212  17.067  24.002  14.018
55613W        W26213  35.457  20.448   0.255
55614W        W26214  44.333  31.902  11.422
55615W        W26215  12.724   1.001   3.768
55616W        W26216  37.781  33.611  12.039
55617W        W26217  34.243  25.999  13.368
55618W        W26218   4.846  36.670   2.146
55619W        W26219  14.650   4.812  10.508
55620W        W26220  14.066  14.883  14.126
55621W        W26221   7.612  34.481   0.823
55622W        W26222  15.307  27.231   4.391
55623W        W26223  35.681  10.797  14.888
55624W        W26224  19.616  27.525  11.988
55625W        W26225   7.639  33.985   2.998
55626W        W26226  32.738   8.248   4.192
55627W        W26227  38.330   5.167   1.339
55628W        W26228   2.593  27.252  13.119
55629W        W26229   6.902  22.468   0.964
55630W        W26230  11.113  34.915   3.807
55631W        W26231  11.116   1.921   2.158
55632W        W26232  22.908  42.400   0.732
55633W        W26233  26.572  21.256   4.157
55634W        W26234  16.590  44.863   2.678
55635W        W26235  18.264  39.599   1.190
55636W        W26236   3.857  20.741   4.851
55637W        W26237   8.340   7.787  12.797
55638W        W26238  22.710  14.164   0.336
55639W        W26239  28.847  42.730  12.564
55640W        W26240   2.399   0.804  11.091
55641W        W26241   9.029  23.667   4.206
55642W        W26242   2.921  25.968   3.274
55643W        W26243  15.130  44.661   0.017
55644W        W26244  43.122  33.977  10.622
55645W        W26245  23.649   4.898   4.404
55646W        W26246  24.203   9.807  14.139
55647W        W26247  30.063  32.618   2.273
55648W        W26248  24.656  21.182  14.924
55649W        W26249  11.767   4.962  12.999
55650W        W26250  14.340  42.466   4.138
55651W        W26251  18.270  30.519   4.724
55652W        W26252  44.367  27.578  13.901
55653W        W26253   9.365  35.678   0.436
55654W        W26254  24.495  39.027  10.927
55655W        W26255  12.091  20.233  13.628
55656W        W26256   7.906  20.996   4.017
55657W        W26257  19.104   6.750   4.126
55658W        W26258  33.572  32.424   2.298
55659W        W26259   9.235  29.428  10.289
55660W        W26260  14.611  28.674  14.943
55661W        W26261  18.148   6.669  14.928
55662W        W26262  21.738  17.132  12.596
55663W        W26263  29.955  29.132  14.494
55664W        W26264  14.854  16.739   2.301
55665W        W26265  27.548  36.433  14.258
55666W        W26266  24.539  31.550  12.552
55667W        W26267  43.055  16.089  13.756
55668W        W26268  28.443  23.113   1.993
55669W        W26269  18.140   3.477  13.951
55670W        W26270  28.949  38.280   3.199
55671W        W26271  42.391  32.339   2.846
55672W        W26272  35.460  21.071   0.823
55673W        W26273  37.075  30.938  11.702
55674W        W26274  12.236  26.804  11.647
55675W        W26275  41.335  28.086   1.730
55676W        W26276   2.649  40.507   4.420
55677W        W26277  22.106  34.621   3.210
55678W        W26278  16.832   9.882  11.977
55679W        W26279  18.576  41.408   1.819
55680W        W26280  32.611  13.824   0.789
55681W        W26281  42.449  35.431   2.459
55682W        W26282   6.824  25.710   4.680
55683W        W26283   1.342  14.543   2.903
55684W        W26284  18.580  42.071  12.906
55685W        W26285  28.579  31.836  14.642
55686W        W26286  22.395  32.895   4.170
55687W        W26287   5.241  14.752  14.855
55688W        W26288   2.316  22.584   5.086
55689W        W26289  15.025  30.485   3.133
55690W        W26290  38.786  39.456  11.430
55691W        W26291  44.829  25.649  12.903
55692W        W26292   7.120  31.051  14.809
55693W        W26293  16.042  16.681  11.784
55694W        W26294  37.400   3.175  11.015
55695W        W26295   9.809   2.653  10.790
55696W        W26296  40.122  42.875   0.320
55697W        W26297  27.452  29.593   0.363
55698W        W26298  25.874  37.971  10.575
55699W        W26299   4.762  28.189  13.228
55700W        W26300   9.910   8.986   1.257
55701W        W26301   4.744  12.805  12.634
55702W        W26302  21.677  12.358  14.067
55703W        W26303  21.177  28.688  13.415
55704W        W26304  38.276  24.724  10.605
55705W        W26305  44.024  42.453   1.266
55706W        W26306  33.476   7.259  14.029
55707W        W26307  42.523  19.283   9.894
55708W        W26308  29.936  23.143   1.405
55709W        W26309  16.644  25.974   0.296
55710W        W26310  37.531   0.216  13.828
55711W        W26311   4.476  12.943  13.059
55712W        W26312  29.081  28.957   3.942
55713W        W26313  27.243  42.439  11.599
55714W        W26314   0.989   7.329  11.213
55715W        W26315   9.152  31.338  11.999
55716W        W26316  27.147  29.375   1.481
55717W        W26317  18.969  28.913  13.029
55718W        W26318   1.908  19.161  14.576
55719W        W26319   6.890  42.709  13.498
55720W        W26320  17.682  17.501  13.243
55721W        W26321  42.685  13.484  11.147
55722W        W26322  23.996  18.309   0.097
55723W        W26323  23.180  41.286   4.437
55724W        W26324  15.850   4.818   5.268
55725W        W26325   0.890  10.401  12.490
55726W        W26326  21.469  15.718   1.320
55727W        W26327   5.268  28.056  12.389
55728W        W26328  10.532  14.282  13.445
55729W        W26329  38.373   2.987   4.538
55730W        W26330  28.233  12.193  12.830
55731W        W26331  40.336  42.576  11.883
55732W        W26332  37.499  17.515   3.385
55733W        W26333  38.830   9.736  10.599
55734W        W26334  43.312  31.170   3.216
55735W        W26335  30.766  21.792  11.124
55736W        W26336   1.936  19.313  14.084
55737W        W26337  42.246  37.670   1.174
55738W        W26338  39.871  13.894   1.410
55739W        W26339  25.005  24.626   1.279
55740W        W26340  13.447  25.131  11.167
55741W        W26341  26.084  12.612   1.854
55742W        W26342  35.849  13.037   0.008
55743W        W26343  29.010  13.726   1.663
55744W        W26344   7.742  17.664   2.321
55745W        W26345  38.315  13.270  11.593
55746W        W26346  11.144  12.912  13.335
55747W        W26347  29.406  17.193   3.973
55748W        W26348  13.810  25.438  12.015
55749W        W26349  41.226  37.586  13.824
55750W        W26350  32.006  27.399  14.444
55751W        W26351  24.199   0.306   3.204
55752W        W26352   0.767  30.498   2.182
55753W        W26353  27.519  41.288  12.596
55754W        W26354   5.338   2.196   4.548
55755W        W26355   4.874  29.698   4.587
55756W        W26356  31.950   1.629  12.793
55757W        W26357  13.611  20.554   0.307
55758W        W26358  44.795  16.005   0.481
55759W        W26359   6.683   9.204  11.216
55760W        W26360  27.731  31.148   1.851
55761W        W26361  31.019  28.524   4.526
55762W        W26362  40.097  23.117   4.538
55763W        W26363  11.897   4.130  13.302
55764W        W26364  30.966  14.217  12.102
55765W        W26365  44.718  11.056  12.136
55766W        W26366  33.526   5.945  13.568
55767W        W26367  38.437  29.743   1.968
55768W        W26368   9.214   3.724  14.847
55769W        W26369  33.486   1.059   3.660
55770W        W26370   4.797  15.998  14.784
55771W        W26371  26.219  15.778   4.203
55772W        W26372  25.964  38.573  12.992
55773W        W26373   1.358   2.691   0.852
55774W        W26374  25.555  42.397   1.320
55775W        W26375   1.943  28.395   3.751
55776W        W26376  42.323  24.904  13.468
55777W        W26377  17.716  22.128  11.156
55778W        W26378   0.884  22.632   4.573
55779W        W26379  32.607  38.780  11.970
55780W        W26380  27.841   0.208   4.262
55781W        W26381  18.799  17.079   1.315
55782W        W26382   8.533  30.971  14.766
55783W        W26383  10.161  37.036   2.122
55784W        W26384  18.276  30.357   2.326
55785W        W26385  20.300  28.996   2.407
55786W        W26386  38.507  43.804  10.535
55787W        W26387  16.748  33.585  12.581
55788W        W26388  31.058  23.048   4.608
55789W        W26389  34.009  39.453  10.653
55790W        W26390  23.060  42.358  13.824
55791W        W26391  31.675  40.437   0.794
55792W        W26392   5.254  25.517   1.755
55793W        W26393  20.043  10.394  13.620
55794W        W26394  31.949  10.267  13.190
55795W        W26395   9.218  31.549   1.327
55796W        W26396   8.443  11.947  11.635
55797W        W26397  19.096  15.797  14.348
55798W        W26398  26.986   4.469  14.056
55799W        W26399  16.978  42.028   4.045
55800W        W26400  37.589  40.501   0.590
55801W        W26401  30.545   7.293   1.273
55802W        W26402  10.889  15.057  11.136
55803W        W26403  12.151  36.350  11.169
55804W        W26404  18.770  25.144  14.409
55805W        W26405  25.094  10.535   4.712
55806W        W26406   9.846  37.338  14.453
55807W        W26407   1.992  38.955   2.183
55808W        W26408  14.688   9.733  11.269
55809W        W26409   1.116   6.533  13.808
55810W        W26410  29.109  33.792   4.241
55811W        W26411  10.576  14.632  13.064
55812W        W26412  29.410  42.084   3.585
55813W        W26413   1.316  16.758  13.412
55814W        W26414  28.374  28.124   1.362
55815W        W26415  39.004  11.370   3.643
55816W        W26416  23.125  24.953   2.339
55817W        W26417  13.946  34.677  13.399
55818W        W26418   7.220  43.441   4.537
55819W        W26419  37.125  32.585  13.870
55820W        W26420  15.635  42.958  11.419
55821W        W26421  35.898  40.895   4.434
55822W        W26422  15.928  10.322  11.034
55823W        W26423  37.087  14.890  14.494
55824W        W26424  31.427  41.491   3.747
55825W        W26425  37.492  12.575  12.815
55826W        W26426   9.799  38.000  10.786
55827W        W26427  28.599   1.331  10.694
55828W        W26428  29.388  17.832   2.221
55829W        W26429  28.709   9.506  12.312
55830W        W26430  19.098  40.490  13.889
55831W        W26431  38.750   8.992   0.855
55832W        W26432  29.234  36.567   4.587
55833W        W26433  26.279  38.350   0.671
55834W        W26434  33.887  37.107  14.367
55835W        W26435  33.118  39.475  13.471
55836W        W26436   6.289  41.322   2.840
55837W        W26437  17.600  44.773  13.092
55838W        W26438  30.362   4.709   4.997
55839W        W26439  43.898  12.885  12.873
55840W        W26440  21.255  40.439  13.116
55841W        W26441   3.625  28.009  10.768
55842W        W26442   5.694  44.306  14.326
55843W        W26443  43.585   3.249  10.767
55844W        W26444  41.768   7.264   3.450
55845W        W26445  20.778  23.948  10.914
55846W        W26446   5.275  30.745  13.948
55847W        W26447  11.916  37.992  14.426
55848W        W26448  10.560   2.286   4.767
55849W        W26449  12.401  39.883  14.802
55850W        W26450  36.397  38.393  11.183
55851W        W26451  13.682   9.204  12.384
55852W        W26452  22.815  33.108  12.875
55853W        W26453  30.584  10.301  13.609
55854W        W26454  44.477  38.381  11.021
55855W        W26455  35.339  36.568  14.382
55856W        W26456  44.701  40.017   0.378
55857W        W26457   6.682  30.921   3.011
55858W        W26458  35.147  20.188  11.551
55859W        W26459  20.099   7.892   0.711
55860W        W26460  37.805  26.455  11.684
55861W        W26461  43.035  40.912  12.753
55862W        W26462   6.830  31.434   2.970
55863W        W26463   9.862  36.058  13.998
55864W        W26464  34.369  19.244   1.590
55865W        W26465  33.047  17.084  10.634
55866W        W26466  28.621  41.530  13.477
55867W        W26467  16.949  40.517   2.897
55868W        W26468  25.584  40.545  13.808
55869W        W26469  37.667   0.255  12.105
55870W        W26470  15.214   0.205   9.988
55871W        W26471   6.393  29.400   4.646
55872W        W26472  41.331   6.362  10.908
55873W        W26473  39.983  18.626  12.723
55874W        W26474  14.169  20.132  13.564
55875W        W26475   9.408  31.720  12.433
55876W        W26476  10.470  39.801   0.187
55877W        W26477  29.552   1.289   3.824
55878W        W26478  13.699  17.709  10.777
55879W        W26479   7.839  25.592  13.558
55880W        W26480   5.467  11.242  10.644
55881W        W26481  20.694   0.376   3.989
55882W        W26482  39.470  39.483   3.389
55883W        W26483  29.323  38.698  13.696
55884W        W26484  18.456  12.769   4.161
55885W        W26485  25.461  43.731   0.476
55886W        W26486   8.016  11.310   4.180
55887W        W26487   0.490  27.387   4.517
55888W        W26488  29.247  18.449   1.900
55889W        W26489  38.075  44.238   9.921
55890W        W26490  40.875  43.268   1.969
55891W        W26491   4.534   4.682   1.351
55892W        W26492  10.984   7.968   1.648
55893W        W26493  15.304  31.507   4.601
55894W        W26494  43.842  11.100   2.281
55895W        W26495  11.182   7.643   1.300
55896W        W26496  36.421  42.753  11.165
55897W        W26497  33.848  11.598  10.337
55898W        W26498  36.866  20.299  13.001
55899W        W26499  39.806  27.426   1.904
55900W        W26500  43.390  32.080   1.297
55901W        W26501  38.365  34.988   4.586
55902W        W26502   0.481  44.663  13.492
55903W        W26503  41.234  38.366   3.737
55904W        W26504  32.695   4.702   0.388
55905W        W26505  18.116  10.208  12.971
55906W        W26506  13.761   2.126  12.854
55907W        W26507  33.657  10.871  11.512
55908W        W26508  33.580   2.722   4.648
55909W        W26509   4.411  30.383  12.594
55910W        W26510  26.134  26.464  14.964
55911W        W26511  21.902  35.781  11.099
55912W        W26512  14.224  40.923   2.723
55913W        W26513  15.059  38.995   3.149
55914W        W26514  36.004  18.886   3.504
55915W        W26515  38.550   5.823   1.607
55916W        W26516  27.310   8.199   4.196
55917W        W26517  34.581  41.934   1.242
55918W        W26518  20.783  14.317  10.706
55919W        W26519  39.285   1.984  11.006
55920W        W26520  16.007  16.376   4.464
55921W        W26521  38.393  43.695   0.245
55922W        W26522  37.404  35.589   2.890
55923W        W26523  20.318  25.070   1.379
55924W        W26524  11.468   9.221   0.781
55925W        W26525  29.430  31.631   1.340
55926W        W26526  18.107   9.862   3.142
55927W        W26527   9.322  37.873  12.173
55928W        W26528  10.426  23.540   1.393
55929W        W26529  36.530  20.461   4.298
55930W        W26530  22.001  12.622   2.311
55931W        W26531  31.539  16.102   0.347
55932W        W26532   4.287  21.047  12.969
55933W        W26533  32.866   4.338   3.849
55934W        W26534  11.493  13.101  10.497
55935W        W26535  25.960  23.106   1.821
55936W        W26536  15.093   3.124   4.127
55937W        W26537  17.577   7.290   0.115
55938W        W26538  12.570  43.675   4.234
55939W        W26539  38.125  10.768  13.976
55940W        W26540  43.031  29.620  12.512
55941W        W26541  26.438   8.365   0.421
55942W        W26542  10.037   5.150   4.092
55943W        W26543  12.185  37.314  13.499
55944W        W26544  10.425   9.601   2.347
55945W        W26545   4.930  30.365  12.496
55946W        W26546   7.459  20.796  11.587
55947W        W26547   3.343  41.358  12.364
55948W        W26548  39.775   7.366  13.919
55949W        W26549  44.966  21.241   1.007
55950W        W26550  15.197  30.531   2.616
55951W        W26551  10.041  27.637  10.489
55952W        W26552  14.421  43.035   0.446
55953W        W26553  14.087   9.302   4.594
55954W        W26554  16.570  42.080  12.024
55955W        W26555  11.131  34.935   4.308
55956W        W26556  18.954  16.625  10.662
55957W        W26557  35.077  34.781  11.107
55958W        W26558  30.602  16.603   4.746
55959W        W26559  10.261  44.257  10.595
55960W        W26560   7.378  38.036   1.022
55961W        W26561   7.616  31.025   4.179
55962W        W26562  32.732  37.084   0.258
55963W        W26563  13.556  14.246   2.458
55964W        W26564  35.507  40.530  10.735
55965W        W26565   7.604  41.487   1.770
55966W        W26566  14.121  24.409   3.735
55967W        W26567  29.630  29.755   2.746
55968W        W26568  16.772  22.006   3.372
55969W        W26569  36.817   9.305   0.422
55970W        W26570  32.093  41.404   3.278
55971W        W26571  18.951  19.678   0.111
55972W        W26572   7.544   3.478   4.245
55973W        W26573  12.660  27.300  11.583
55974W        W26574  44.409  24.967  12.903
55975W        W26575  16.407  16.118   2.766
55976W        W26576  12.336  10.515  12.026
55977W        W26577   3.335  32.937  14.167
55978W        W26578   5.935   1.898   0.906
55979W        W26579  18.187  29.439   0.818
55980W        W26580  17.990  42.941  10.996
55981W        W26581  37.666   3.621  11.112
55982W        W26582  40.686   1.338   3.289
55983W        W26583  40.773  13.261  12.829
55984W        W26584  21.838  41.073  14.322
55985W        W26585  28.566  12.453   1.907
55986W        W26586  24.802  11.590  12.487
55987W        W26587  14.904   6.180  11.536
55988W        W26588  10.680  22.122  13.416
55989W        W26589  14.179  17.147   2.188
55990W        W26590  11.272  31.087   3.306
55991W        W26591  33.661  19.136   2.352
55992W        W26592  35.948  36.812   1.304
55993W        W26593  15.489  14.060   1.755
55994W        W26594   3.689  29.080  13.952
55995W        W26595   4.897   8.999  13.330
55996W        W26596  40.332  23.783   2.879
55997W        W26597   7.967   5.205  11.890
55998W        W26598  12.650  12.098  12.875
55999W        W26599  17.922  14.595  10.199
56000W        W26600   6.869  31.426  13.522
56001W        W26601  20.989  10.730  14.326
56002W        W26602  30.545   6.773  12.507
56003W        W26603  12.277  19.701   4.349
56004W        W26604   5.340   9.477   3.588
56005W        W26605  15.703  14.877   4.528
56006W        W26606  36.784  10.202   3.237
56007W        W26607  40.596   6.798   3.838
56008W        W26608   0.480   3.312  11.721
56009W        W26609  42.027  28.501   3.234
56010W        W26610  19.361  38.024  13.788
56011W        W26611  17.240   3.478  11.992
56012W        W26612  14.166  17.723  13.805
56013W        W26613  22.183  11.599  14.044
56014W        W26614  38.842   6.132   0.793
56015W        W26615  10.293   6.335   1.873
56016W        W26616   2.689  35.599   2.511
56017W        W26617  16.650  39.310   1.133
56018W        W26618  40.337  20.434   4.240
56019W        W26619  20.170  37.735  14.153
56020W        W26620  11.534   8.288  12.955
56021W        W26621  22.819   8.858  12.519
56022W        W26622  11.291  16.655  14.576
56023W        W26623   0.543  17.061   1.931
56024W        W26624  27.963  20.355   2.415
56025W        W26625  23.331  14.282  12.859
56026W        W26626   6.357  15.592   1.290
56027W        W26627  28.479  42.525  14.573
56028W        W26628  27.134  16.674  14.500
56029W        W26629  35.124  36.001   2.554
56030W        W26630  18.619  26.078  12.673
56031W        W26631  18.056  26.209   0.454
56032W        W26632   4.634  38.344  10.623
56033W        W26633  37.884   2.830  11.700
56034W        W26634  34.982  34.232  13.834
56035W        W26635   9.778  17.672  11.247
56036W        W26636  40.853  29.027  10.539
56037W        W26637  36.454   8.773  13.412
56038W        W26638  10.119  22.111  11.634
56039W        W26639  38.568  17.119   0.270
56040W        W26640  32.161   6.406   2.805
56041W        W26641  43.559   9.358   2.306
56042W        W26642  22.205  27.404   3.484
56043W        W26643   7.148  22.191  11.533
56044W        W26644  18.141  32.945   1.443
56045W        W26645  42.090  12.599  10.126
56046W        W26646   6.667  10.757  11.072
56047W        W26647  15.528   1.205  11.207
56048W        W26648  20.802  26.873  11.499
56049W        W26649   5.365   9.872  12.615
56050W        W26650  28.022  13.633  14.907
56051W        W26651  43.835   5.892   0.165
56052W        W26652  21.751   9.414  11.509
56053W        W26653  10.874  23.851  12.127
56054W        W26654  28.979   4.618  14.866
56055W        W26655  18.231   7.099   3.968
56056W        W26656  15.039   2.977  14.876
56057W        W26657   3.122  16.065   3.074
56058W        W26658  27.413   7.583   0.972
56059W        W26659  26.194  21.213   2.204
56060W        W26660  27.160  26.149  12.944
56061W        W26661  34.299  23.647   1.317
56062W        W26662  26.003  38.465   3.295
56063W        W26663  19.640  11.911   3.293
56064W        W26664   9.173  31.709   4.631
56065W        W26665  43.224  31.386   3.681
56066W        W26666   5.414  34.465  13.846
56067W        W26667  37.301   0.675   5.088
56068W        W26668  35.378  22.612  11.942
56069W        W26669   8.597  12.754   1.194
56070W        W26670  26.632  22.533  13.446
56071W        W26671   6.354  30.936   4.732
56072W        W26672   5.133  28.146  14.851
56073W        W26673   4.683   7.204  12.852
56074W        W26674   7.867   6.425  14.201
56075W        W26675  36.564   4.439   3.391
56076W        W26676  11.783  29.642  13.421
56077W        W26677  34.831  19.823  14.239
56078W        W26678  11.334  43.988  13.083
56079W        W26679  22.251  26.207  11.869
56080W        W26680   4.379  24.794   1.260
56081W        W26681   0.724  11.754  13.429
56082W        W26682  19.169  38.370   1.438
56083W        W26683  42.287  33.223   2.224
56084W        W26684  40.381  14.939   4.591
56085W        W26685  30.208  34.142   0.401
56086W        W26686  14.882   8.762  12.720
56087W        W26687  13.324  32.727  12.513
56088W        W26688  25.255  34.603   4.078
56089W        W26689  19.302   9.763   0.536
56090W        W26690  17.254  38.114  12.828
56091W        W26691  43.773  28.041   1.235
56092W        W26692  16.579  27.637  12.048
56093W        W26693  21.590   6.486   4.890
56094W        W26694  14.388  41.438   2.335
56095W        W26695  31.129   4.645  11.711
56096W        W26696  34.444  39.691  11.563
56097W        W26697  10.912  18.145  14.610
56098W        W26698  23.002  10.729  12.519
56099W        W26699   0.403  11.256  14.873
56100W        W26700  25.134  13.713  14.404
56101W        W26701   8.273  40.934   0.770
56102W        W26702  13.376  22.511   1.293
56103W        W26703   4.699   4.391   0.375
56104W        W26704  44.859  22.653   1.522
56105W        W26705  30.315  40.439   1.814
56106W        W26706  35.725  42.457  12.212
56107W        W26707  32.989  13.290  11.191
56108W        W26708  43.200  17.300   0.008
56109W        W26709   5.152  43.938   2.743
56110W        W26710  40.422  16.805  10.668
56111W        W26711  34.700  34.075  14.824
56112W        W26712  31.610   0.890   1.486
56113W        W26713  26.643  29.448   4.824
56114W        W26714  20.697  10.394   0.406
56115W        W26715  25.767   9.213   0.356
56116W        W26716  37.543   2.885  14.445
56117W        W26717  11.690  33.624   2.724
56118W        W26718  19.642  20.426   1.768
56119W        W26719   6.155  44.386   2.309
56120W        W26720  27.646   9.150  13.038
56121W        W26721  21.078   2.436   3.650
56122W        W26722  23.386  36.346  13.766
56123W        W26723   3.360  10.139  11.880
56124W        W26724  25.866  36.177   1.740
56125W        W26725  31.862  14.111  13.498
56126W        W26726  23.570  11.360   4.434
56127W        W26727  17.296  34.755  14.291
56128W        W26728  33.937  24.787  14.041
56129W        W26729  34.858   9.190  14.061
56130W        W26730  36.101  44.401   0.023
56131W        W26731   9.343  35.534   2.164
56132W        W26732  12.643  38.817   1.980
56133W        W26733  17.272  36.586   2.171
56134W        W26734  17.687   9.904  14.905
56135W        W26735  38.948  27.611  14.401
56136W        W26736  44.290   6.579  11.672
56137W        W26737   5.702  31.417  12.096
56138W        W26738  24.176   0.233   0.284
56139W        W26739  16.012  11.233  12.072
56140W        W26740   4.191   6.979   0.981
56141W        W26741   6.789  12.565  13.937
56142W        W26742  32.651  43.595  13.592
56143W        W26743  16.764  43.481  10.191
56144W        W26744  42.799  24.252   3.574
56145W        W26745  19.958   8.255   1.891
56146W        W26746  33.151   6.017   1.753
56147W        W26747  15.283  12.223   1.447
56148W        W26748  16.255  12.603  13.130
56149W        W26749  33.952   3.725   4.303
56150W        W26750  16.269  43.554  11.451
56151W        W26751  44.628  23.126   4.749
56152W        W26752   0.462  40.826   0.411
56153W        W26753  10.812   9.675   2.688
56154W        W26754   1.459  37.376   1.237
56155W        W26755  26.226   9.897   2.039
56156W        W26756   0.744  29.992  12.451
56157W        W26757  14.084   1.341   2.646
56158W        W26758  43.913  38.999  11.119
56159W        W26759  19.846  23.090   2.706
56160W        W26760  31.727  36.080   0.654
56161W        W26761  26.930   9.404  14.262
56162W        W26762  24.098   3.852   0.220
56163W        W26763  27.576   1.332   3.176
56164W        W26764  34.991  15.661   3.060
56165W        W26765   8.630  43.315  12.061
56166W        W26766  37.875  20.197  10.690
56167W        W26767  22.792   1.660   1.209
56168W        W26768  26.735  10.591  11.544
56169W        W26769  36.572   4.853   0.330
56170W        W26770  14.804  39.027   0.401
56171W        W26771   9.136  37.335  14.833
56172W        W26772   5.998   1.017  13.451
56173W        W26773  22.157  36.809   0.617
56174W        W26774  11.783  11.146   2.491
56175W        W26775  10.133  37.426   2.883
56176W        W26776   0.645  28.048   3.062
56177W        W26777  32.843  30.669   3.775
56178W        W26778   4.941  17.786  11.700
56179W        W26779  41.585   8.256   3.874
56180W        W26780  31.892  15.749  12.379
56181W        W26781  41.814  31.572  14.941
56182W        W26782  14.329  17.677   3.610
56183W        W26783  41.933  38.321   1.684
56184W        W26784  44.981  37.311   2.786
56185W        W26785  43.759  10.266   0.953
56186W        W26786  11.085  17.794   0.377
56187W        W26787  16.178  30.985   4.566
56188W        W26788  33.137  23.763  11.723
56189W        W26789   0.003  34.839   0.497
56190W        W26790  11.299  16.351   0.808
56191W        W26791  42.354   7.271  13.252
56192W        W26792  34.193  34.911   3.671
56193W        W26793  25.011  22.491  11.932
56194W        W26794   4.874  36.611  14.541
56195W        W26795   4.951  42.533   1.793
56196W        W26796  21.394  34.057  12.443
56197W        W26797  39.980   8.306   1.145
56198W        W26798  41.225  17.563   1.313
56199W        W26799  16.677  40.155  13.685
56200W        W26800  40.824  37.583   0.597
56201W        W26801  18.647  35.860   1.497
56202W        W26802  22.212   3.682  11.186
56203W        W26803  38.075  30.062   4.125
56204W        W26804  18.999  17.687  14.715
56205W        W26805  44.994  16.223   1.837
56206W        W26806   7.904   0.818   4.596
56207W        W26807  29.533   9.252  10.741
56208W        W26808  33.428   3.085   3.822
56209W        W26809  22.141  11.755  10.321
56210W        W26810   4.921  17.106  13.365
56211W        W26811  27.630  38.538  11.567
56212W        W26812  35.899   7.052   2.656
56213W        W26813  19.149  27.021   0.318
56214W        W26814  30.331   1.756   1.952
56215W        W26815   8.378   2.208  14.021
56216W        W26816  19.112   8.184  10.463
56217W        W26817   0.923   8.461   2.533
56218W        W26818  33.124  15.222  10.746
56219W        W26819  30.006  20.642   3.660
56220W        W26820  40.082  42.268   3.717
56221W        W26821  34.610   4.756  10.698
56222W        W26822   7.612   6.956  12.535
56223W        W26823  14.252   9.369  14.363
56224W        W26824  32.041  26.143   0.459
56225W        W26825  26.017  36.088   3.276
56226W        W26826  35.571  44.481   1.889
56227W        W26827   2.535  14.760   0.429
56228W        W26828  12.298  12.457  13.296
56229W        W26829  33.148  31.897   1.705
56230W        W26830   0.719  31.430  11.077
56231W        W26831  15.867   6.891  10.578
56232W        W26832  26.564  20.767   1.340
56233W        W26833  35.485  29.039  14.521
56234W        W26834  31.252  23.182   2.240
56235W        W26835  15.891  19.294  12.073
56236W        W26836   8.963  35.496  10.698
56237W        W26837  41.977   4.866  13.449
56238W        W26838   5.886  42.273  13.459
56239W        W26839  40.334  39.839   2.419
56240W        W26840  27.077  42.995   0.452
56241W        W26841  34.956  16.007   1.171
56242W        W26842  21.985   5.878   4.062
56243W        W26843  23.684  14.320   1.281
56244W        W26844  15.249  11.713   5.045
56245W        W26845  34.798   6.211   2.232
56246W        W26846  11.056  35.023   3.306
56247W        W26847  18.139  28.656  13.488
56248W        W26848   9.284  17.319  14.616
56249W        W26849  16.458  24.046  14.906
56250W        W26850  29.542  13.234  13.352
56251W        W26851  14.446  16.307   3.929
56252W        W26852  17.504  15.842   4.040
56253W        W26853  12.264  20.072   2.830
56254W        W26854   7.465   7.754  14.472
56255W        W26855   3.418  24.684  10.565
56256W        W26856   6.175   3.701   4.073
56257W        W26857  35.421  15.691  13.007
56258W        W26858   9.136  40.613   4.867
56259W        W26859  26.504  30.467  10.819
56260W        W26860  14.605  37.597   4.517
56261W        W26861  35.688  26.065  11.954
56262W        W26862  22.914  36.163   3.118
56263W        W26863  37.529  35.589   1.628
56264W        W26864  10.086  22.969  13.750
56265W        W26865   3.785   3.896   1.286
56266W        W26866  41.597   7.259  12.061
56267W        W26867  44.446  38.960  12.701
56268W        W26868  21.608  44.248   0.817
56269W        W26869  14.589  16.130  11.223
56270W        W26870   9.819  14.572  14.166
56271W        W26871  17.094   6.965  14.829
56272W        W26872   7.341  14.292   2.225
56273W        W26873  17.587  39.453   3.391
56274W        W26874   1.977   9.258   1.233
56275W        W26875  32.442  25.245  12.030
56276W        W26876   4.214  19.207   2.798
56277W        W26877  41.824  12.596  13.948
56278W        W26878  33.546  29.057  13.278
56279W        W26879  19.709   0.924   1.275
56280W        W26880  37.375  24.261   3.321
56281W        W26881  33.333  34.943   0.867
56282W        W26882   6.764  41.521  10.589
56283W        W26883   1.805  26.048   4.197
56284W        W26884  37.607   4.380  11.543
56285W        W26885  29.086  36.202  11.110
56286W        W26886  20.771  23.753   2.762
56287W        W26887  16.658  43.297  14.335
56288W        W26888  20.346  28.274   4.496
56289W        W26889   6.969  34.535   2.235
56290W        W26890  12.620  28.946  13.052
56291W        W26891   6.803  26.844  11.562
56292W        W26892  26.022  12.720   4.965
56293W        W26893   3.737  26.167  13.065
56294W        W26894   5.009  25.957   5.000
56295W        W26895  14.544  13.169   1.264
56296W        W26896   7.687  40.305  13.542
56297W        W26897  25.266  14.834   2.751
56298W        W26898  14.810  26.481   1.214
56299W        W26899  18.089  15.312   0.761
56300W        W26900   7.821   7.013  10.410
56301W        W26901  20.564   0.370  10.156
56302W        W26902  24.142   3.608   3.751
56303W        W26903   1.250   0.492   1.730
56304W        W26904  40.497  12.319  14.070
56305W        W26905   7.210   7.885  10.685
56306W        W26906  14.711   9.667  13.101
56307W        W26907  29.528  10.468  11.251
56308W        W26908  32.980   6.871   1.756
56309W        W26909  15.731  32.609   1.411
56310W        W26910  12.227  30.466   1.784
56311W        W26911  23.604  28.911  14.142
56312W        W26912  22.244  26.161  11.094
56313W        W26913   1.896  19.144  12.076
56314W        W26914  38.028   9.799  13.978
56315W        W26915  12.569  13.033  12.783
56316W        W26916  40.729   7.924   2.378
56317W        W26917  10.351  41.130   3.778
56318W        W26918  38.713   4.735   5.017
56319W        W26919  29.111  24.026   3.937
56320W        W26920  36.214  43.722  12.988
56321W        W26921   9.875   9.693   4.714
56322W        W26922  43.530  43.216   3.127
56323W        W26923  10.357  36.793  11.099
56324W        W26924   1.828   8.200  14.691
56325W        W26925  34.690  15.886  14.964
56326W        W26926  26.395  42.540   1.018
56327W        W26927  41.277  36.461  10.732
56328W        W26928  43.017  18.720  12.069
56329W        W26929  16.809  14.084   0.541
56330W        W26930  29.781  42.035   3.939
56331W        W26931   4.669  10.875   2.753
56332W        W26932  26.557  38.075   2.412
56333W        W26933  29.212  21.539  13.047
56334W        W26934  22.293  24.896   3.799
56335W        W26935  27.953  29.898  11.627
56336W        W26936  34.691  20.625  13.031
56337W        W26937   4.746  25.216   0.847
56338W        W26938  18.942   8.266  14.614
56339W        W26939  22.018   9.170  14.037
56340W        W26940  38.080   9.768   4.422
56341W        W26941  23.739  29.395  14.372
56342W        W26942  32.480  34.038  14.341
56343W        W26943   0.271  19.572  12.948
56344W        W26944  12.861  40.608   0.407
56345W        W26945  15.366  18.873  12.432
56346W        W26946  43.310   0.900   1.250
56347W        W26947  34.159  16.671   3.308
56348W        W26948  10.216  34.571   0.832
56349W        W26949  40.576  17.668   2.565
56350W        W26950  18.788  15.880  12.500
56351W        W26951  23.514  25.056   4.141
56352W        W26952  29.451  25.747   1.835
56353W        W26953   1.818  39.330   4.176
56354W        W26954  29.431  44.232   3.091
56355W        W26955   0.405  31.576   2.724
56356W        W26956  25.414  34.729  11.914
56357W        W26957  11.138  29.667   4.938
56358W        W26958  20.047  41.823   2.842
56359W        W26959  41.586  19.133   2.384
56360W        W26960  35.999   6.376  10.675
56361W        W26961  14.839  29.700   3.194
56362W        W26962  22.727   5.865  12.898
56363W        W26963  17.671  17.592  12.701
56364W        W26964   9.822  35.163  14.317
56365W        W26965  11.747  43.274  11.551
56366W        W26966  22.441  32.876   2.392
56367W        W26967  29.913  24.654   3.605
56368W        W26968  16.325  43.779   4.702
56369W        W26969  24.184  25.610  13.537
56370W        W26970  28.450  18.600  11.986
56371W        W26971  18.040  37.535   5.073
56372W        W26972  32.803  29.033   1.795
56373W        W26973   8.110  33.403  12.463
56374W        W26974  22.680  27.791   1.425
56375W        W26975  42.725  41.946  12.852
56376W        W26976  44.625   7.715  11.622
56377W        W26977  29.051   7.849   1.632
56378W        W26978  27.714   8.153   2.253
56379W        W26979  37.778  44.767  11.994
56380W        W26980  18.783  10.103  13.573
56381W        W26981  44.017  12.983  12.354
56382W        W26982  37.164  26.059   4.874
56383W        W26983   7.278   8.827   0.442
56384W        W26984  11.103  25.316  11.192
56385W        W26985  33.471  38.049   4.678
56386W        W26986  13.900  20.819  11.408
56387W        W26987   3.886  42.810   3.609
56388W        W26988  13.858   2.355   0.408
56389W        W26989  10.915  14.060  14.859
56390W        W26990  27.000  10.789   1.604
56391W        W26991  37.165   6.401   0.188
56392W        W26992  19.628  11.383  10.812
56393W        W26993  25.190  36.232  11.673
56394W        W26994  24.175  33.500   1.494
56395W        W26995  36.856   4.966   4.572
56396W        W26996  34.488   6.287  13.702
56397W        W26997  36.076   8.594  11.218
56398W        W26998   4.801   5.678  12.502
56399W        W26999   7.485  38.944  14.093
56400W        W27000  41.604  27.475   2.335
56401W        W27001  16.531  11.257  12.099
56402W        W27002  21.046  33.810   2.629
56403W        W27003   2.229  24.180  12.258
56404W        W27004  43.430  35.925   3.187
56405W        W27005  35.546  11.214   3.663
56406W        W27006  16.900  35.403  12.958
56407W        W27007  43.300  35.542   1.284
56408W        W27008   6.485   3.820  12.881
56409W        W27009   9.885  32.390   2.724
56410W        W27010   2.300  28.224  13.009
56411W        W27011  21.057  21.217  13.452
56412W        W27012  42.531   5.520   0.308
56413W        W27013  44.448  38.505  12.960
56414W        W27014   8.517  28.089   3.520
56415W        W27015  43.149  40.562  14.541
56416W        W27016   6.472   1.755  13.700
56417W        W27017  44.026  38.340  11.656
56418W        W27018   7.781  26.648  11.990
56419W        W27019  40.281  19.809  14.543
56420W        W27020  22.695  29.225   4.554
56421W        W27021   8.226  18.026   4.595
56422W        W27022  25.736  26.337  13.916
56423W        W27023  27.594  23.265   1.346
56424W        W27024  31.634  35.006  14.353
56425W        W27025  25.610  41.897  13.400
56426W        W27026  38.037  13.735  14.217
56427W        W27027  32.248  14.882   3.432
56428W        W27028  14.748   5.357   0.736
56429W        W27029  43.214  16.357  11.116
56430W        W27030   3.352   6.044  11.789
56431W        W27031  24.568   5.789  12.813
56432W        W27032   0.868   9.305   4.143
56433W        W27033  39.647  40.427  14.880
56434W        W27034  22.014  28.171  13.909
56435W        W27035   8.930   1.366   1.831
56436W        W27036  18.606  30.207  11.539
56437W        W27037  40.399  40.462   2.654
56438W        W27038  33.890  34.234  11.943
56439W        W27039  27.219  38.353  14.557
56440W        W27040  21.783  26.933   1.124
56441W        W27041  23.521   7.465   0.447
56442W        W27042  41.119  44.640  11.174
56443W        W27043   9.425   2.897   2.760
56444W        W27044   3.126  24.491   3.662
56445W        W27045   5.915  13.173   0.523
56446W        W27046  38.045  23.655  11.521
56447W        W27047  25.659   2.868  10.612
56448W        W27048  10.212   5.246  12.363
56449W        W27049  11.372   6.259   2.773
56450W        W27050   9.951   7.145   3.589
56451W        W27051   1.041  34.027   0.061
56452W        W27052  26.771  28.705   1.441
56453W        W27053  16.792  24.970   0.500
56454W        W27054   9.259  22.216   1.192
56455W        W27055  14.174  40.355   0.843
56456W        W27056  16.076  42.565  13.169
56457W        W27057  21.449  19.496   0.682
56458W        W27058  18.712   9.784  14.040
56459W        W27059  12.686  15.266   1.238
56460W        W27060   3.983  22.475   4.193
56461W        W27061  36.386   3.426   1.416
56462W        W27062  15.945   1.134   4.222
56463W        W27063  41.484  19.584   3.204
56464W        W27064  32.339  35.492  13.380
56465W        W27065  33.831   0.703  14.080
56466W        W27066   9.866  34.442   1.996
56467W        W27067  29.382  34.978  13.661
56468W        W27068  10.859   0.329  14.213
56469W        W27069  18.256   2.726  13.428
56470W        W27070  44.814  22.740   0.530
56471W        W27071  35.421  30.626  12.391
56472W        W27072  43.425   3.718   4.109
56473W        W27073   5.431  44.701  12.888
56474W        W27074   9.299  36.533   0.656
56475W        W27075  36.356  39.706   3.875
56476W        W27076   5.382  13.025  13.640
56477W        W27077  39.003   5.437   2.002
56478W        W27078  30.074  28.065  13.593
56479W        W27079  13.112  23.011  13.569
56480W        W27080  36.454  27.048  10.861
56481W        W27081   1.645   0.383   1.380
56482W        W27082  44.275   7.127  12.996
56483W        W27083  21.448   8.809  13.579
56484W        W27084  30.651  24.890  13.413
56485W        W27085  18.224  40.253  13.409
56486W        W27086  10.555  25.408  14.531
56487W        W27087  33.407   6.888   4.185
56488W        W27088  24.136  18.941   2.282
56489W        W27089  17.617  28.471   3.824
56490W        W27090  39.257  25.989   4.667
56491W        W27091  26.744  31.846  14.518
56492W        W27092  41.452   0.465   0.982
56493W        W27093  39.076  23.135  14.674
56494W        W27094  24.587  43.936   0.254
56495W        W27095  13.361  26.009   0.720
56496W        W27096  23.628  38.399   4.090
56497W        W27097  14.745  28.989  13.504
56498W        W27098  32.061   1.755  12.270
56499W        W27099  38.274  37.466  14.019
56500W        W27100  24.455  30.644   0.803
56501W        W27101  30.416  17.033   2.308
56502W        W27102  41.577  21.214  11.169
56503W        W27103  42.707   4.270   2.701
56504W        W27104  43.800  30.817   2.293
56505W        W27105  34.804  19.662   4.547
56506W        W27106  15.706  36.784  14.737
56507W        W27107  42.462   0.228   3.424
56508W        W27108  19.146  20.276  13.204
56509W        W27109   6.352  41.470   2.336
56510W        W27110  42.933  13.582   4.162
56511W        W27111  27.133   2.303   2.185
56512W        W27112  39.530  23.934   0.397
56513W        W27113  36.836  44.767  10.911
56514W        W27114  33.967  23.172  10.637
56515W        W27115  27.652   1.827   2.845
56516W        W27116   1.464  30.704   1.293
56517W        W27117  41.800  30.080  11.961
56518W        W27118   2.198   2.921  13.799
56519W        W27119  26.075  32.052   2.359
56520W        W27120  34.089  19.778  11.815
56521W        W27121  39.976  13.250   4.778
56522W        W27122   0.745  36.977  14.470
56523W        W27123   1.785  33.658   0.272
56524W        W27124  20.866  42.276   4.267
56525W        W27125  37.425  31.012   3.688
56526W        W27126  26.119  18.163   4.354
56527W        W27127   8.324  33.459  11.596
56528W        W27128   7.770  13.116   4.596
56529W        W27129  39.963  12.120  10.692
56530W        W27130  41.141  33.860  14.437
56531W        W27131   4.944   9.189   1.529
56532W        W27132  21.522  36.058  14.814
56533W        W27133  16.392  28.468  12.755
56534W        W27134  17.782   8.338  11.203
56535W        W27135   6.156  31.134  10.723
56536W        W27136  23.421  18.843   4.302
56537W        W27137  38.236   1.638   1.762
56538W        W27138  39.052  44.258   3.660
56539W        W27139  10.332  39.351  12.283
56540W        W27140  27.164   2.313  11.606
56541W        W27141  16.279  20.786   4.277
56542W        W27142  22.509  12.422   2.306
56543W        W27143  19.646   3.761  11.391
56544W        W27144  42.871  19.057  11.616
56545W        W27145  20.730   0.330   5.508
56546W        W27146   9.667  23.523   0.794
56547W        W27147  35.155   3.357  12.741
56548W        W27148  29.601   2.280   1.288
56549W        W27149  34.372   0.261  14.856
56550W        W27150   9.562   2.567  11.719
56551W        W27151  36.034   4.252  13.826
56552W        W27152  38.497  28.946   0.692
56553W        W27153  28.002   8.760   0.296
56554W        W27154  36.013   6.170   1.479
56555W        W27155  16.978  26.234   3.558
56556W        W27156   6.808  44.734   3.914
56557W        W27157  16.103  18.223   1.862
56558W        W27158  13.821  30.611  13.128
56559W        W27159  15.803  14.253   2.817
56560W        W27160  24.575  38.949  13.431
56561W        W27161  43.182  11.612   4.931
56562W        W27162  25.995  39.766   4.073
56563W        W27163   0.727  12.459  11.651
56564W        W27164  24.122  26.147   3.115
56565W        W27165   4.054  37.017  14.336
56566W        W27166  42.849  10.525  14.813
56567W        W27167  10.674  14.787  13.555
56568W        W27168   0.596   8.569  14.329
56569W        W27169  15.710  22.123  13.833
56570W        W27170   1.215  29.180  11.168
56571W        W27171  22.252  13.679  13.848
56572W        W27172  26.655  29.971  12.536
56573W        W27173   5.779  33.185   2.150
56574W        W27174  17.688  12.157   0.208
56575W        W27175   5.130  43.528  14.493
56576W        W27176  20.027  39.507   1.337
56577W        W27177   5.579  42.409  10.573
56578W        W27178  19.248  31.574   1.705
56579W        W27179  31.613  32.451   3.048
56580W        W27180  14.797   6.186   0.310
56581W        W27181  11.822  34.786  13.293
56582W        W27182  25.127  43.754   4.068
56583W        W27183   3.383  39.928  11.484
56584W        W27184   0.986  41.167  10.441
56585W        W27185  42.534  22.285  11.464
56586W        W27186  16.775   2.415  12.585
56587W        W27187  30.573   9.740  11.418
56588W        W27188  31.485  10.145   1.840
56589W        W27189  24.177  23.605   2.851
56590W        W27190  35.163  37.947  10.655
56591W        W27191   4.728  30.921  10.689
56592W        W27192  33.978  44.217   2.850
56593W        W27193  40.721  13.658  13.959
56594W        W27194  25.783  24.592  14.855
56595W        W27195  26.539  34.261   1.691
56596W        W27196  22.448  31.945   0.363
56597W        W27197  12.282  11.007  11.177
56598W        W27198  24.972   4.396   1.094
56599W        W27199  38.233  10.638  13.007
56600W        W27200   2.481   0.031   4.090
56601W        W27201  18.271  34.005   3.861
56602W        W27202  16.180  10.873   3.670
56603W        W27203  17.123   1.379  14.039
56604W        W27204  28.188  11.660  11.167
56605W        W27205  38.642  40.110  12.598
56606W        W27206  30.868  24.126   2.232
56607W        W27207  12.320  44.708  10.612
56608W        W27208  35.473  34.340  13.908
56609W        W27209  15.328  36.607   0.032
56610W        W27210  25.404  11.327  14.691
56611W        W27211  28.082   7.885  10.196
56612W        W27212  22.006  41.406  12.710
56613W        W27213   8.782  19.205   4.566
56614W        W27214  26.158  37.269  14.945
56615W        W27215  29.084   0.548  13.244
56616W        W27216  22.912   0.811   2.347
56617W        W27217  16.092  19.049   2.766
56618W        W27218  44.262  33.897   0.202
56619W        W27219   8.272  38.780  14.706
56620W        W27220  43.851  34.932   3.885
56621W        W27221   9.118  39.036   1.461
56622W        W27222  12.172   1.909  14.215
56623W        W27223  26.549  24.271  11.123
56624W        W27224  40.345  32.803  12.992
56625W        W27225  26.753  15.711  14.272
56626W        W27226  28.038  32.550  10.430
56627W        W27227  19.065  38.265   0.081
56628W        W27228  16.390   0.468   0.478
56629W        W27229  44.535  26.875  14.432
56630W        W27230  15.519  11.662   4.607
56631W        W27231  20.664  29.567  12.203
56632W        W27232  44.418  39.902  12.045
56633W        W27233  27.914   9.243   3.273
56634W        W27234   1.293  19.208  10.782
56635W        W27235   7.393  10.093   1.758
56636W        W27236   9.641  32.500   3.667
56637W        W27237  40.263  33.385  12.123
56638W        W27238  20.333  28.724  13.749
56639W        W27239  15.848  31.147  14.490
56640W        W27240  40.107  39.429   4.221
56641W        W27241  12.924  14.914   2.694
56642W        W27242  14.849  11.329   3.288
56643W        W27243  10.795  11.678  11.321
56644W        W27244   6.333  28.012  12.680
56645W        W27245  19.600  42.808   0.488
56646W        W27246  35.517  21.278   1.306
56647W        W27247  20.499  30.865  13.654
56648W        W27248  26.639  32.655   1.764
56649W        W27249   0.058  26.064   1.914
56650W        W27250  29.440  28.084   0.325
56651W        W27251   7.476   9.202  13.064
56652W        W27252  29.675  30.129  12.089
56653W        W27253  21.643  13.821   3.319
56654W        W27254  44.169  19.926  13.287
56655W        W27255  44.070  23.441   2.350
56656W        W27256   4.439  42.427   0.394
56657W        W27257  31.144  37.780   5.418
56658W        W27258  43.740  28.631   2.154
56659W        W27259  34.224  26.163   0.946
56660W        W27260   0.181   3.203  13.990
56661W        W27261  17.079  33.316   9.987
56662W        W27262  31.905  21.110  13.354
56663W        W27263   5.730  27.107  11.830
56664W        W27264   0.621   0.394  10.884
56665W        W27265  44.284  11.846   2.374
56666W        W27266  37.478   4.008   4.073
56667W        W27267  15.822  29.003  13.395
56668W        W27268   8.886   3.526  11.873
56669W        W27269  23.668  41.630  12.212
56670W        W27270  43.050  32.641   3.198
56671W        W27271  38.499   0.219  14.261
56672W        W27272   1.830   4.372  14.464
56673W        W27273  17.022   0.893  13.853
56674W        W27274  36.975  38.394   0.067
56675W        W27275  20.598  24.139   4.358
56676W        W27276  17.776  30.070   0.721
56677W        W27277  17.672  23.567  14.699
56678W        W27278  33.333  18.082  11.095
56679W        W27279  25.196  41.587  12.629
56680W        W27280  35.889  44.394   1.456
56681W        W27281   8.114  14.298   0.995
56682W        W27282  34.979  40.760  10.664
56683W        W27283  33.850  35.692   1.332
56684W        W27284  12.432  11.195   1.249
56685W        W27285  21.476  15.956  11.916
56686W        W27286   4.036   4.299   0.059
56687W        W27287  12.461  29.031  12.044
56688W        W27288  31.552  32.965   2.619
56689W        W27289  13.696  38.771  11.642
56690W        W27290   1.413  23.241   1.891
56691W        W27291  33.924  19.299  12.021
56692W        W27292  34.497  12.869  14.167
56693W        W27293   5.892  36.500   1.984
56694W        W27294  27.496   2.884   4.335
56695W        W27295  35.481   4.393   1.691
56696W        W27296  32.418   4.618   3.139
56697W        W27297  12.675  18.072  12.966
56698W        W27298   4.392   5.361   0.127
56699W        W27299   9.985  19.755  14.507
56700W        W27300  15.261   8.332  14.817
56701W        W27301   3.348  42.315   2.486
56702W        W27302  39.601  10.811   4.212
56703W        W27303   5.252  17.888   3.301
56704W        W27304  27.082   0.679  11.641
56705W        W27305  15.756  17.094   3.263
56706W        W27306  31.949  37.722   1.755
56707W        W27307  44.824   3.713  10.587
56708W        W27308  41.400  44.213  12.875
56709W        W27309  37.481  38.824  13.874
56710W        W27310  30.214  17.234  10.664
56711W        W27311   2.092  21.116  14.962
56712W        W27312  37.879   5.865  12.807
56713W        W27313  30.555  18.374  11.517
56714W        W27314  24.764  22.057  10.855
56715W        W27315   4.842  12.832  12.108
56716W        W27316  39.892  10.864  10.906
56717W        W27317   8.941   5.732   0.182
56718W        W27318  40.904  26.542   0.995
56719W        W27319  44.297  34.333   2.219
56720W        W27320  10.767  20.553   2.045
56721W        W27321  39.975  40.417  14.467
56722W        W27322  35.411  23.991  13.996
56723W        W27323  30.617   4.223   1.129
56724W        W27324  24.441  35.524  11.504
56725W        W27325   6.151  36.039  10.851
56726W        W27326  18.806  40.019  10.639
56727W        W27327   8.287  10.388   1.515
56728W        W27328  24.137   6.181  11.575
56729W        W27329  15.165   9.889  11.178
56730W        W27330   4.704   9.454   0.404
56731W        W27331  30.275  24.069  12.993
56732W        W27332  27.002  30.832  14.224
56733W        W27333   0.341  42.018   1.138
56734W        W27334   5.387  31.841  12.043
56735W        W27335  36.424   2.853  10.709
56736W        W27336  19.816  42.471   1.760
56737W        W27337  10.193  12.265   1.748
56738W        W27338  32.204  25.225  14.351
56739W        W27339  33.863  11.090  10.390
56740W        W27340   3.897   1.293   0.318
56741W        W27341   0.264  29.482  10.978
56742W        W27342  39.673  17.810   1.892
56743W        W27343  22.736  19.787  11.181
56744W        W27344  20.367  26.583   0.863
56745W        W27345  19.112  23.154   3.241
56746W        W27346   7.733  21.147  14.519
56747W        W27347  27.810   5.690  11.656
56748W        W27348   5.495   6.614   3.331
56749W        W27349   6.191  31.011   2.371
56750W        W27350  14.007  25.759  13.763
56751W        W27351  19.716   5.847   0.842
56752W        W27352  14.826  25.115   0.715
56753W        W27353  29.284  30.022  12.876
56754W        W27354  25.162  28.441  13.077
56755W        W27355   3.489  30.625   4.231
56756W        W27356  22.149   6.732   2.338
56757W        W27357  17.100  20.693   3.829
56758W        W27358   0.289  10.266  13.809
56759W        W27359  22.118  15.534  12.963
56760W        W27360  14.983  33.051  11.560
56761W        W27361  32.719  10.199  10.230
56762W        W27362  43.871  41.486   2.173
56763W        W27363  43.807   0.161  11.935
56764W        W27364  43.191  26.741  11.513
56765W        W27365  31.996  14.088   4.661
56766W        W27366  35.820  19.535  12.307
56767W        W27367   9.236  17.557  13.736
56768W        W27368  27.049  29.736  14.664
56769W        W27369  35.226  41.032   2.091
56770W        W27370  41.569  39.740  13.360
56771W        W27371   5.840  18.105  12.777
56772W        W27372  42.594  41.974  11.043
56773W        W27373  43.320  27.805  12.413
56774W        W27374  10.393   4.277   1.366
56775W        W27375  20.092  20.530  10.633
56776W        W27376  10.139  23.261  13.304
56777W        W27377  33.150   9.816   1.865
56778W        W27378  34.801  41.679   3.824
56779W        W27379  26.879   3.984   0.813
56780W        W27380  33.788  38.474  13.598
56781W        W27381  12.722  34.955  14.444
56782W        W27382  12.258   6.474  12.049
56783W        W27383   1.966  17.267  12.516
56784W        W27384  16.310  27.837   2.448
56785W        W27385  36.052  21.889  11.373
56786W        W27386  31.950  38.904   4.147
56787W        W27387  24.400  44.105  12.249
56788W        W27388  22.490   4.438   3.674
56789W        W27389  25.176  39.566   3.533
56790W        W27390   3.695  30.837   1.835
56791W        W27391  33.454  37.543   4.478
56792W        W27392  43.954  18.594   1.309
56793W        W27393  27.628  37.318   2.659
56794W        W27394  21.953  40.318   1.636
56795W        W27395   6.386  41.077   4.501
56796W        W27396  11.767  26.949   4.589
56797W        W27397  26.406  27.683  14.063
56798W        W27398  18.019  22.196   2.860
56799W        W27399  28.453  15.304  14.388
56800W        W27400  37.336   5.739  12.064
56801W        W27401  29.099  17.142  12.634
56802W        W27402  30.512  21.258  12.422
56803W        W27403  17.536   6.560  13.239
56804W        W27404  26.907  13.479   0.774
56805W        W27405   5.150  23.066   0.277
56806W        W27406  28.874  31.022   4.135
56807W        W27407  17.586   4.435  13.294
56808W        W27408  19.480  28.619   3.836
56809W        W27409  14.088  18.984   4.261
56810W        W27410   1.993  24.689   0.990
56811W        W27411  36.079  18.537   1.842
56812W        W27412  38.386  36.134   3.829
56813W        W27413  22.329  26.182  13.405
56814W        W27414  22.639  35.836   2.371
56815W        W27415  40.119   1.840  11.151
56816W        W27416  13.870  38.004   1.034
56817W        W27417  29.046  14.062   1.231
56818W        W27418  19.169   9.356   4.689
56819W        W27419  13.280   4.131  14.534
56820W        W27420  23.140   2.868   2.384
56821W        W27421  13.794   0.437   4.105
56822W        W27422  11.168  42.101  12.492
56823W        W27423  37.911  20.090   5.056
56824W        W27424  20.422  32.963   0.896
56825W        W27425   9.002   9.646  14.720
56826W        W27426   4.268  25.934   0.823
56827W        W27427  14.279   5.234  13.824
56828W        W27428   6.632  20.529  11.259
56829W        W27429  31.969  41.280   0.444
56830W        W27430  18.683  17.023  14.072
56831W        W27431  31.574  40.511   0.250
56832W        W27432  24.026  41.391  12.507
56833W        W27433  29.277  21.460   1.865
56834W        W27434   9.186  31.128   2.248
56835W        W27435  10.242  29.208  12.012
56836W        W27436  43.559  27.025   3.507
56837W        W27437   2.038  38.436   2.055
56838W        W27438  28.880  27.032   1.362
56839W        W27439  10.743  17.704  13.057
56840W        W27440  41.553  27.988   3.622
56841W        W27441  44.517   5.237   2.179
56842W        W27442  14.874  23.068   1.805
56843W        W27443  17.022  14.830   2.203
56844W        W27444  12.524  12.582   1.518
56845W        W27445  38.791  23.095   2.202
56846W        W27446  17.294  20.100   0.194
56847W        W27447   5.408  20.639  14.086
56848W        W27448  30.913  39.537  12.880
56849W        W27449  29.972   4.548   0.394
56850W        W27450  17.647  28.532   4.352
56851W        W27451  27.538  40.857  13.387
56852W        W27452  39.194  23.475  10.736
56853W        W27453   4.880  18.994  12.641
56854W        W27454  33.884  34.465  10.689
56855W        W27455  41.496  33.344  11.541
56856W        W27456  39.926   4.615   2.930
56857W        W27457  26.979  14.337  11.942
56858W        W27458  39.516   3.892   5.019
56859W        W27459  42.655  34.956   1.762
56860W        W27460  33.475  19.587  10.224
56861W        W27461  14.701  18.644   3.720
56862W        W27462  21.311   0.031  12.138
56863W        W27463  40.504  12.112   4.370
56864W        W27464  42.986  39.229   4.441
56865W        W27465  37.317  25.971  11.225
56866W        W27466   7.183   8.518   0.848
56867W        W27467   3.975   3.171   2.497
56868W        W27468  37.241   1.327   1.774
56869W        W27469  26.023  33.329   4.008
56870W        W27470  15.693  28.405   3.765
56871W        W27471   2.767   2.035  10.674
56872W        W27472  18.564  34.104  11.351
56873W        W27473   2.338  32.750  12.151
56874W        W27474   9.505  35.396  12.664
56875W        W27475  33.832  25.806   0.963
56876W        W27476  29.037  37.497  12.006
56877W        W27477  22.496  20.499   3.220
56878W        W27478  31.103  19.232   3.208
56879W        W27479  17.560  12.020   1.944
56880W        W27480  26.805  12.674   0.663
56881W        W27481  12.392  22.326  12.534
56882W        W27482  33.617  19.494   0.877
56883W        W27483  40.796  24.674   2.744
56884W        W27484   6.083  32.601  14.700
56885W        W27485  16.673  26.447   0.739
56886W        W27486  13.657  14.133   1.386
56887W        W27487  31.932  44.932   2.198
56888W        W27488  31.014  34.448   4.533
56889W        W27489  38.997   2.755   0.915
56890W        W27490  35.071   3.453   4.233
56891W        W27491   1.241  19.368   0.386
56892W        W27492  12.300  13.654  12.041
56893W        W27493  33.596  32.055  11.850
56894W        W27494  14.345   7.241   3.210
56895W        W27495  43.453  10.294   3.228
56896W        W27496  13.789  29.511  14.780
56897W        W27497   4.420   3.035   3.327
56898W        W27498  34.407  40.577   2.999
56899W        W27499  43.804  41.893   3.898
56900W        W27500   2.255  41.246  12.834
56901W        W27501  13.208  14.078   9.340
56902W        W27502  27.944   0.261  11.566
56903W        W27503  25.960  42.744  12.003
56904W        W27504   4.947  26.732  12.047
56905W        W27505  31.969  21.724  10.925
56906W        W27506  18.611  34.025  14.169
56907W        W27507  23.750  24.198  11.640
56908W        W27508  13.312  32.517   0.891
56909W        W27509  21.558   2.225   4.419
56910W        W27510  41.525  24.582   4.867
56911W        W27511  18.533  16.410   3.080
56912W        W27512   8.746  31.659   0.259
56913W        W27513   1.297  20.524  12.944
56914W        W27514  14.088  31.093  12.371
56915W        W27515  40.799  19.079   0.317
56916W        W27516  11.926   9.257   2.183
56917W        W27517  39.083  21.034  11.706
56918W        W27518   1.538   5.189  14.941
56919W        W27519  26.428  36.020   1.487
56920W        W27520  23.628  43.429   2.420
56921W        W27521  23.484  27.717   1.500
56922W        W27522  39.381   1.505  10.785
56923W        W27523  17.193  12.872  10.999
56924W        W27524  42.775  41.185   4.064
56925W        W27525  26.470  10.133   3.700
56926W        W27526  24.886  17.722  10.892
56927W        W27527  12.769  16.047   4.296
56928W        W27528  18.781  21.257   3.778
56929W        W27529   7.911  16.048   0.899
56930W        W27530  39.611   5.709  11.583
56931W        W27531  15.769  27.367   0.687
56932W        W27532   6.985  43.024   4.759
56933W        W27533  22.932  31.533  11.902
56934W        W27534   9.711  31.115   0.816
56935W        W27535  17.302   5.465  13.015
56936W        W27536   3.010  22.247  13.341
56937W        W27537  34.688  37.478  10.319
56938W        W27538  24.222  30.347  12.675
56939W        W27539  35.891  25.094   1.393
56940W        W27540  16.245  29.671   1.430
56941W        W27541  23.733  22.421   0.199
56942W        W27542  37.624  39.417   3.195
56943W        W27543  32.889  35.504  11.043
56944W        W27544  12.665  26.640  10.928
56945W        W27545  18.488   7.928  13.560
56946W        W27546   0.185   3.467  10.900
56947W        W27547   7.321  17.041   2.193
56948W        W27548  20.672  41.509  14.275
56949W        W27549  38.482  17.880   0.594
56950W        W27550  14.629   0.260  13.868
56951W        W27551  43.512   4.006   1.754
56952W        W27552  41.540   5.253   1.264
56953W        W27553   3.249  37.551  12.785
56954W        W27554   9.101  22.076   2.435
56955W        W27555  15.815  35.026  12.545
56956W        W27556  33.334   1.966  12.939
56957W        W27557  43.233  38.221  14.843
56958W        W27558  31.515  14.113   1.727
56959W        W27559  38.982  43.292   4.632
56960W        W27560   3.483  33.283  11.575
56961W        W27561  13.707  21.705  11.974
56962W        W27562   9.246  32.115   3.708
56963W        W27563  40.440   1.688  13.048
56964W        W27564   1.758  43.029   4.647
56965W        W27565  20.664  12.645   3.322
56966W        W27566  11.678  12.938  10.955
56967W        W27567  27.090  12.652   2.361
56968W        W27568   6.548  36.147  13.720
56969W        W27569  38.445  33.511   1.691
56970W        W27570  15.754  31.434  11.459
56971W        W27571  32.847   4.678   1.928
56972W        W27572  26.491  32.213  13.700
56973W        W27573  27.518   6.705  12.586
56974W        W27574  25.514  35.330   3.140
56975W        W27575  38.065  26.306   2.880
56976W        W27576  26.410  32.423  12.835
56977W        W27577  40.427  19.647   1.046
56978W        W27578  43.738   3.903  12.293
56979W        W27579  41.154   8.588   0.038
56980W        W27580   0.833  26.211  12.112
56981W        W27581  10.450  34.058  11.784
56982W        W27582   9.994  15.867  10.869
56983W        W27583  39.938  21.408  12.118
56984W        W27584  22.427  32.579   1.667
56985W        W27585  12.357  28.900  11.072
56986W        W27586  27.016  20.943  14.936
56987W        W27587  28.565   5.145  13.424
56988W        W27588   6.954  29.894  12.501
56989W        W27589   5.290  13.904   2.629
56990W        W27590  23.165  23.718  11.127
56991W        W27591  14.780  30.507  10.699
56992W        W27592   1.224  21.590   0.353
56993W        W27593  41.006  25.533   0.559
56994W        W27594  26.145  33.544   2.196
56995W        W27595  39.379  19.344  14.516
56996W        W27596   5.109  14.254  10.823
56997W        W27597  15.585   9.988   2.341
56998W        W27598  12.346  19.582  13.764
56999W        W27599  11.556  41.241  11.104
57000W        W27600  35.027  13.065  11.298
57001W        W27601  43.724  27.510   0.701
57002W        W27602  33.421  26.163   0.886
57003W        W27603  39.426  15.147  13.923
57004W        W27604   9.324  17.577  11.519
57005W        W27605  19.390  32.614  13.031
57006W        W27606   8.775  37.623  13.912
57007W        W27607  39.264  33.673   0.060
57008W        W27608   2.180   3.426  10.608
57009W        W27609  34.130  20.218  14.454
57010W        W27610  22.006  31.050  11.038
57011W        W27611  37.884  16.310   3.558
57012W        W27612   3.256  31.071  13.848
57013W        W27613  32.874  11.904  14.357
57014W        W27614  15.496   9.389   2.747
57015W        W27615  17.375  29.066   4.339
57016W        W27616  19.318  38.345  14.644
57017W        W27617  38.034   0.521   1.360
57018W        W27618  16.013  24.020  12.571
57019W        W27619  29.500  33.055  11.359
57020W        W27620  28.975  22.489  13.121
57021W        W27621   3.832  41.944  10.768
57022W        W27622  34.020  14.547   2.657
57023W        W27623  19.644  38.232  11.256
57024W        W27624  24.079  30.224  10.625
57025W        W27625  40.667   0.352  14.760
57026W        W27626  35.210  10.157   4.129
57027W        W27627  44.896   7.248   4.412
57028W        W27628   6.749  23.726  11.660
57029W        W27629  21.150   9.916  12.480
57030W        W27630  39.289  35.736   2.631
57031W        W27631  36.919  17.258  13.084
57032W        W27632  23.549  26.419  10.964
57033W        W27633  15.806  28.614   0.276
57034W        W27634  21.674  40.578  14.398
57035W        W27635   4.164  36.845  12.448
57036W        W27636  40.817  30.922  14.798
57037W        W27637  19.747  21.673  13.558
57038W        W27638  44.517   3.143  12.543
57039W        W27639  36.690   1.032  10.629
57040W        W27640  26.393   4.707  12.311
57041W        W27641   4.374  43.810   0.720
57042W        W27642  38.834   4.349  10.276
57043W        W27643  16.541  25.141  13.830
57044W        W27644   0.477  43.953  12.324
57045W        W27645  28.532   8.919   1.717
57046W        W27646  20.386  30.593  10.265
57047W        W27647  26.253  42.750  11.571
57048W        W27648   3.725  36.498   4.272
57049W        W27649  36.499  35.374   0.747
57050W        W27650  35.963   8.566   3.750
57051W        W27651  27.696  29.304   1.400
57052W        W27652  30.627   1.416   3.710
57053W        W27653  41.356  40.498   5.140
57054W        W27654   5.363  23.557  12.880
57055W        W27655  28.078  14.016  12.945
57056W        W27656  29.403  19.107  10.733
57057W        W27657  43.147  19.587   1.741
57058W        W27658   4.208  11.815   2.666
57059W        W27659  15.525  27.233   2.394
57060W        W27660  14.538   5.376   1.219
57061W        W27661  25.686  18.207   0.706
57062W        W27662   0.857   1.185   1.993
57063W        W27663  44.421   6.731   1.321
57064W        W27664  35.127   5.376  13.090
57065W        W27665  21.065  19.347  14.337
57066W        W27666  37.850   2.955   4.709
57067W        W27667  36.611   6.383  11.742
57068W        W27668  26.237   3.391  11.572
57069W        W27669  25.085  32.498   0.003
57070W        W27670  19.954  14.869  11.502
57071W        W27671  30.169  39.467   0.473
57072W        W27672   3.221  36.835   1.882
57073W        W27673  39.021  20.490  12.555
57074W        W27674  23.008   8.721  11.356
57075W        W27675  36.656  25.215   0.709
57076W        W27676   4.701  15.142  13.141
57077W        W27677  25.098  20.546  11.685
57078W        W27678  36.520  37.160   2.844
57079W        W27679  23.308  41.030   1.674
57080W        W27680  14.778  21.579   3.902
57081W        W27681  23.097  30.668  11.098
57082W        W27682  23.144  28.693  12.622
57083W        W27683  17.342   3.275   2.744
57084W        W27684  43.230  33.489  12.133
57085W        W27685  24.112  21.321   2.332
57086W        W27686   0.243  25.029   4.704
57087W        W27687  44.303  14.281   2.164
57088W        W27688  40.420  23.972   0.936
57089W        W27689   8.253  12.571   2.666
57090W        W27690  38.770  26.208  13.337
57091W        W27691  24.917  26.656   4.658
57092W        W27692  17.430  27.203  12.104
57093W        W27693  41.397  33.470  14.216
57094W        W27694  42.609  24.346  11.215
57095W        W27695   1.301   8.244   4.908
57096W        W27696   1.425  16.069  10.565
57097W        W27697  12.045   3.886  14.087
57098W        W27698   4.820  14.506   3.308
57099W        W27699  10.247   3.277   0.278
57100W        W27700  27.816   6.339   1.494
57101W        W27701   5.526  26.646   1.690
57102W        W27702   6.303   6.911  10.833
57103W        W27703  10.061   0.405   4.995
57104W        W27704  16.623   9.098   4.467
57105W        W27705  40.171  21.994  13.014
57106W        W27706  30.372  35.601  12.010
57107W        W27707  15.085  11.244   5.783
57108W        W27708  20.624   4.742   4.667
57109W        W27709  43.363   6.773  14.040
57110W        W27710  27.682   5.799  10.758
57111W        W27711  44.636  38.010   0.336
57112W        W27712  37.534   8.934   3.828
57113W        W27713   8.949  22.702   4.171
57114W        W27714   9.365   1.282   0.083
57115W        W27715  24.634   7.434  10.687
57116W        W27716  36.540  41.432  13.921
57117W        W27717   1.270   8.778  13.458
57118W        W27718  25.129  40.611   1.719
57119W        W27719  35.049  11.856   2.225
57120W        W27720  10.625  12.321   2.028
57121W        W27721  43.568  38.826   3.669
57122W        W27722  32.310   8.574   2.815
57123W        W27723  43.840  38.703   0.962
57124W        W27724  15.906   7.623   0.361
57125W        W27725   7.732  13.554  12.014
57126W        W27726  30.495  18.726   3.550
57127W        W27727  35.747  41.067   2.157
57128W        W27728  33.037  11.866  10.651
57129W        W27729   8.123  23.850  11.576
57130W        W27730  31.432  27.589   0.949
57131W        W27731  16.235  16.361   1.219
57132W        W27732  20.768  16.255  12.544
57133W        W27733  42.841  20.505  11.539
57134W        W27734  28.608  17.710   0.638
57135W        W27735  27.096  12.860   4.286
57136W        W27736  27.635  12.544   3.741
57137W        W27737   4.128  12.674   0.354
57138W        W27738   5.844  13.099   1.480
57139W        W27739  27.721  13.766  10.402
57140W        W27740  14.662   1.878   0.335
57141W        W27741  21.691  31.462  11.037
57142W        W27742  33.325  43.982  14.002
57143W        W27743  33.668  23.510  14.019
57144W        W27744  38.097  19.716  10.719
57145W        W27745  41.827  10.302   2.992
57146W        W27746  36.784  41.727   4.581
57147W        W27747  24.291  42.199   1.229
57148W        W27748  20.264  16.328  12.524
57149W        W27749   2.186  43.562   2.865
57150W        W27750  14.985  27.051   4.796
57151W        W27751  21.651  19.175   2.410
57152W        W27752  42.075  22.200   1.050
57153W        W27753  13.982  33.705  12.444
57154W        W27754  37.240  13.660   3.613
57155W        W27755  17.046  31.854   3.183
57156W        W27756  21.528  11.451  10.911
57157W        W27757  39.545   8.037   1.999
57158W        W27758  36.943  12.149   1.924
57159W        W27759  38.585  18.120  11.439
57160W        W27760  31.421  15.322   2.137
57161W        W27761   5.963   8.206  14.153
57162W        W27762  44.350  22.428  12.885
57163W        W27763  27.654   8.036   4.558
57164W        W27764  12.366  21.150  14.423
57165W        W27765  19.174  22.984  12.399
57166W        W27766  33.363  19.854  11.239
57167W        W27767  19.854   5.359   4.941
57168W        W27768  30.625  19.213   2.360
57169W        W27769   9.785   9.285   0.435
57170W        W27770  23.060  21.212   2.418
57171W        W27771  36.927  30.390   0.695
57172W        W27772  29.539   6.775   4.627
57173W        W27773  14.256   5.402   4.741
57174W        W27774  15.435  30.021   3.897
57175W        W27775  26.431  32.461   5.065
57176W        W27776   9.249  38.608   4.932
57177W        W27777  17.664   5.409   2.346
57178W        W27778  23.482  18.542  13.684
57179W        W27779  32.162  17.011  11.141
57180W        W27780  17.267  26.078  13.039
57181W        W27781   5.717  34.843  13.083
57182W        W27782  43.351  11.671  12.668
57183W        W27783   8.386  25.741   3.091
57184W        W27784   5.819  23.783  12.996
57185W        W27785  39.394  13.089  13.041
57186W        W27786  26.922  25.172  14.938
57187W        W27787  33.194  40.125  12.111
57188W        W27788   1.405  33.355   0.878
57189W        W27789  15.532   2.179  12.869
57190W        W27790  19.655  34.437  13.293
57191W        W27791  34.491  21.491   0.877
57192W        W27792  22.946  25.793   2.742
57193W        W27793   0.444  29.950  13.364
57194W        W27794  14.288  31.671   4.909
57195W        W27795   8.923  36.543   3.689
57196W        W27796  24.689  28.614  11.568
57197W        W27797  23.078  26.766   2.978
57198W        W27798   5.094  14.647   0.466
57199W        W27799  36.134  24.162  10.694
57200W        W27800  27.695  30.908  12.441
57201W        W27801  13.575  16.835   3.282
57202W        W27802  27.928  44.788   3.609
57203W        W27803   3.073  21.444  11.111
57204W        W27804  17.565  24.617   4.095
57205W        W27805  29.117  16.191  14.369
57206W        W27806  42.826  11.862   4.622
57207W        W27807   5.843  16.209   2.425
57208W        W27808  34.282   3.918  13.726
57209W        W27809  10.704   4.051   3.584
57210W        W27810   6.706  30.045   3.175
57211W        W27811  28.133  24.694   2.650
57212W        W27812  17.389   9.310   3.401
57213W        W27813   1.433  23.542   1.413
57214W        W27814  31.436   6.665   3.954
57215W        W27815  19.191  12.707  11.388
57216W        W27816  29.154  17.359   2.236
57217W        W27817   0.339  39.392   0.049
57218W        W27818   3.412  35.562   3.749
57219W        W27819  33.475   1.853  10.695
57220W        W27820  19.279  17.233  12.488
57221W        W27821  21.326  23.664   4.965
57222W        W27822  31.632  40.251  13.075
57223W        W27823   7.403  12.811  12.985
57224W        W27824   6.745   9.188  14.441
57225W        W27825  40.888   7.491   2.823
57226W        W27826  11.239  34.570  10.626
57227W        W27827  11.190   3.166  10.851
57228W        W27828  16.751  22.657  12.751
57229W        W27829  12.730   4.604  13.341
57230W        W27830   7.468  15.026  13.490
57231W        W27831  38.160  21.130   3.980
57232W        W27832  35.895   2.992  11.620
57233W        W27833  17.606  41.087   4.634
57234W        W27834  43.076  14.386  14.438
57235W        W27835   6.983  28.613  13.799
57236W        W27836  11.745  28.237  11.058
57237W        W27837  26.462   6.772   0.300
57238W        W27838  32.601  37.017  11.649
57239W        W27839  34.948   8.398   0.817
57240W        W27840  33.476  10.522   4.612
57241W        W27841  26.444  40.836  13.304
57242W        W27842  15.163  25.104  13.369
57243W        W27843   6.128  24.065   4.697
57244W        W27844  13.834   4.323   1.005
57245W        W27845   1.249  25.701  13.796
57246W        W27846  18.078  28.905   0.419
57247W        W27847  30.513   7.662   3.385
57248W        W27848  10.368  21.120   0.380
57249W        W27849  17.998  34.949   1.441
57250W        W27850  33.602  22.071  10.137
57251W        W27851  21.090   8.623   0.847
57252W        W27852  27.174  24.965  12.061
57253W        W27853  21.389   4.130   0.538
57254W        W27854  40.786   1.878   3.051
57255W        W27855  27.060  12.132   2.397
57256W        W27856  24.669  41.685  13.719
57257W        W27857  44.920  33.482   4.483
57258W        W27858  31.202  33.178   3.355
57259W        W27859  24.945  23.015  14.894
57260W        W27860  13.184  23.146  12.199
57261W        W27861  43.517  12.991  12.522
57262W        W27862  21.299  19.704  11.567
57263W        W27863  20.707  27.153   2.874
57264W        W27864  13.257  23.189   4.784
57265W        W27865  42.284   0.927  13.775
57266W        W27866   1.069   9.138  13.772
57267W        W27867  36.317  41.451   0.858
57268W        W27868   9.632  22.962   1.771
57269W        W27869  40.598  33.508  12.562
57270W        W27870  27.579  15.328  10.920
57271W        W27871  25.592  12.060   1.097
57272W        W27872   5.840  28.559  14.747
57273W        W27873  11.535   1.537  13.594
57274W        W27874  33.612  15.593  12.018
57275W        W27875  25.889  24.184   3.270
57276W        W27876  23.143  26.548   4.602
57277W        W27877  37.036  20.520   0.038
57278W        W27878  14.408  44.539  11.163
57279W        W27879   9.893  24.128   3.531
57280W        W27880  42.021  20.013   3.446
57281W        W27881  38.901  43.032  14.792
57282W        W27882  40.570  22.041   2.753
57283W        W27883   7.155  34.033  14.382
57284W        W27884  39.653  25.055   3.795
57285W        W27885  12.115  23.792  10.626
57286W        W27886  26.119  24.761  14.492
57287W        W27887  12.778   0.497   3.823
57288W        W27888  41.850  11.107   3.579
57289W        W27889  17.185   7.210  14.314
57290W        W27890  22.124  26.583   3.158
57291W        W27891  14.520   9.595  14.756
57292W        W27892   1.265  24.698  11.380
57293W        W27893  15.809  22.956  10.760
57294W        W27894  34.161   2.931   1.774
57295W        W27895  24.904  23.689   1.398
57296W        W27896  44.019  12.889  13.414
57297W        W27897   1.975   8.464   3.732
57298W        W27898  32.041  37.071   2.390
57299W        W27899  13.714  42.483  14.429
57300W        W27900  14.421  20.351   4.150
57301W        W27901  17.253  16.709   4.908
57302W        W27902  22.161   2.141  14.345
57303W        W27903   7.650  15.320  12.624
57304W        W27904  25.088   5.397   2.600
57305W        W27905   5.241   0.457   4.557
57306W        W27906  31.332  24.458  10.864
57307W        W27907  43.852  19.068  11.758
57308W        W27908   1.388  19.760  11.658
57309W        W27909  12.660  18.834  12.511
57310W        W27910  37.467  16.611  12.193
57311W        W27911   2.024   0.729   3.755
57312W        W27912   8.297  22.497  13.873
57313W        W27913   5.221  18.294   4.949
57314W        W27914  43.441  16.315   1.904
57315W        W27915  22.020  23.230   4.365
57316W        W27916  18.650  15.290  11.070
57317W        W27917  22.109  10.108  10.181
57318W        W27918  23.641  22.547   4.716
57319W        W27919   0.945  11.007   1.384
57320W        W27920  31.698  12.488  11.514
57321W        W27921   8.197  33.881   4.157
57322W        W27922  42.231   1.311   3.564
57323W        W27923  34.523  23.263  13.080
57324W        W27924  18.027  29.943   9.477
57325W        W27925  40.030  15.520  13.337
57326W        W27926  39.410  18.669   3.151
57327W        W27927  29.470  15.526  11.585
57328W        W27928  37.754   5.753  13.953
57329W        W27929   3.323  30.580  12.552
57330W        W27930   4.100   1.796   3.328
57331W        W27931  21.052  23.217  10.636
57332W        W27932  36.034  31.447   4.232
57333W        W27933  20.210   2.263  11.944
57334W        W27934   5.651  32.556  12.906
57335W        W27935  12.166  41.353  12.446
57336W        W27936  13.511  25.027  10.277
57337W        W27937   5.763  36.911  12.357
57338W        W27938  17.767  36.878  13.981
57339W        W27939   4.536   4.767  10.419
57340W        W27940  28.675  34.035  14.438
57341W        W27941  37.897  27.731  10.663
57342W        W27942   6.283  10.511   0.547
57343W        W27943  21.684  41.861  12.075
57344W        W27944  44.922  38.418  10.747
57345W        W27945  33.904  10.218   0.721
57346W        W27946  44.911   6.793  10.682
57347W        W27947   2.391  18.263  14.434
57348W        W27948  19.729  33.817   1.610
57349W        W27949  34.510  30.690   3.886
57350W        W27950   1.542  35.785  11.171
57351W        W27951  34.902  29.487   2.844
57352W        W27952  11.331   4.589   1.415
57353W        W27953  16.162  42.397  11.693
57354W        W27954  44.193   4.859   2.332
57355W        W27955  41.760  42.901   5.044
57356W        W27956   6.297  35.622  14.433
57357W        W27957  36.355  25.614  13.995
57358W        W27958  25.787  18.318   3.946
57359W        W27959   0.513   3.866  12.400
57360W        W27960  33.613   4.136   0.368
57361W        W27961  24.755   0.997   0.318
57362W        W27962   6.585   7.905   3.327
57363W        W27963   9.260  37.851  13.980
57364W        W27964  39.034  36.912   0.189
57365W        W27965  34.821   9.291   1.798
57366W        W27966  43.395  28.873  10.982
57367W        W27967  20.820  36.464  13.530
57368W        W27968  17.076  22.199   2.946
57369W        W27969  12.741  17.794  11.595
57370W        W27970   4.940  35.908  12.109
57371W        W27971  30.104  13.741   2.257
57372W        W27972  13.886  15.979  14.503
57373W        W27973   8.793  44.079   1.348
57374W        W27974  42.824   4.726  14.925
57375W        W27975  18.720   6.965  10.492
57376W        W27976   5.659  40.534   4.736
57377W        W27977   0.171  22.574   3.549
57378W        W27978  31.391  38.538   1.887
57379W        W27979  42.376   1.708  12.882
57380W        W27980   7.205   2.379   0.199
57381W        W27981  19.356   9.259  13.475
57382W        W27982  22.001   9.058  11.205
57383W        W27983  34.682   3.753  12.424
57384W        W27984  34.088  23.524   3.242
57385W        W27985  41.335  10.809  11.499
57386W        W27986  24.598  29.214   2.624
57387W        W27987  26.966   9.182   2.280
57388W        W27988  16.774   4.183  13.937
57389W        W27989  18.074  35.787  14.682
57390W        W27990   3.213  44.334  13.800
57391W        W27991   4.233  33.012  11.590
57392W        W27992  30.591   2.436  10.703
57393W        W27993  27.615  44.236   0.924
57394W        W27994   6.459   4.596   1.381
57395W        W27995  31.033  16.824   1.277
57396W        W27996  28.489   4.347  11.330
57397W        W27997  27.667  25.209   3.209
57398W        W27998  25.740  15.323  13.928
57399W        W27999  38.886   9.483   2.670
57400W        W28000  22.971  15.383  10.715
57401W        W28001  17.089  29.969  14.926
57402W        W28002  24.538  24.720  10.581
57403W        W28003   4.926  25.484  14.431
57404W        W28004  30.603  30.371  10.351
57405W        W28005  41.435  34.473   0.344
57406W        W28006  12.777   4.164   0.802
57407W        W28007  32.675  26.025  14.250
57408W        W28008  34.643  41.845  13.296
57409W        W28009  40.270  17.011   1.972
57410W        W28010   1.947   8.912   2.331
57411W        W28011  25.959  26.020  12.104
57412W        W28012  25.748  22.768  12.567
57413W        W28013   6.329  38.562   3.300
57414W        W28014  11.033  35.894  12.152
57415W        W28015  41.422   9.389   0.384
57416W        W28016  36.148  26.621  13.386
57417W        W28017  35.371  40.281  14.327
57418W        W28018   2.559  38.991  13.383
57419W        W28019  16.361  34.966  12.103
57420W        W28020  26.223  21.203   0.766
57421W        W28021  22.466   0.978   2.811
57422W        W28022   1.495  24.412  11.735
57423W        W28023   4.002  15.160  13.409
57424W        W28024  31.337  18.700  11.244
57425W        W28025  38.770  39.342  13.827
57426W        W28026   3.944   2.215  12.077
57427W        W28027  15.688  18.157   2.458
57428W        W28028  37.997  28.657  11.961
57429W        W28029  40.039   9.675  14.337
57430W        W28030  44.032   5.715   1.838
57431W        W28031  15.601  32.890  10.236
57432W        W28032  41.632  13.195  13.486
57433W        W28033  35.657   9.194  10.450
57434W        W28034  23.767   5.332  14.677
57435W        W28035  30.205  11.807   0.333
57436W        W28036  34.474  13.562   3.778
57437W        W28037  20.157  26.393  12.381
57438W        W28038  16.316  30.603  10.548
57439W        W28039   0.488  20.550  11.045
57440W        W28040  34.080  23.810  14.079
57441W        W28041  11.104  11.732  10.938
57442W        W28042  41.193  15.963   4.928
57443W        W28043  25.486  31.382  14.751
57444W        W28044  22.340  11.564   3.170
57445W        W28045  22.081  37.413  10.896
57446W        W28046  35.107   0.294   0.698
57447W        W28047  31.705  17.515  12.938
57448W        W28048  37.533  14.794  12.981
57449W        W28049  15.661   4.501  13.865
57450W        W28050  34.346  12.151   1.410
57451W        W28051   4.017  26.138   4.120
57452W        W28052  33.868  19.941  11.311
57453W        W28053  15.477   0.797   4.991
57454W        W28054   0.481   1.950   3.107
57455W        W28055   5.734  29.447   0.940
57456W        W28056  18.613   1.243   1.263
57457W        W28057  13.567   0.316  12.092
57458W        W28058  35.390  39.934   0.760
57459W        W28059   7.915   9.769  14.420
57460W        W28060  21.109   4.402   0.892
57461W        W28061   2.560  41.001  14.785
57462W        W28062   0.158  35.631  11.030
57463W        W28063  22.654  24.362   1.856
57464W        W28064  37.440  33.140   2.689
57465W        W28065  41.388   0.222  12.907
57466W        W28066  22.744  42.789   2.824
57467W        W28067  40.413  38.869   2.366
57468W        W28068  17.987  32.053   2.765
57469W        W28069  15.074  38.886   4.666
57470W        W28070   5.916  24.682  10.808
57471W        W28071   1.494   1.761   3.292
57472W        W28072   1.333  16.749   4.464
57473W        W28073   7.257  41.024   1.007
57474W        W28074  21.671  36.072   4.225
57475W        W28075  38.873  33.787   1.702
57476W        W28076  42.977  43.508  12.582
57477W        W28077   5.330  19.392   1.877
57478W        W28078  18.281   6.230   1.879
57479W        W28079  23.991  33.891  11.593
57480W        W28080  29.515   8.430  14.021
57481W        W28081  13.366   8.803   3.732
57482W        W28082  41.445  27.896   2.702
57483W        W28083  44.904  14.541   2.387
57484W        W28084  33.673  13.311   1.965
57485W        W28085  39.947  35.233  14.022
57486W        W28086  24.841  14.688  12.378
57487W        W28087   1.992  20.652  10.525
57488W        W28088  18.577   8.767  10.486
57489W        W28089  19.447  12.234  12.045
57490W        W28090   5.352  18.240  12.755
57491W        W28091  40.837  44.516  10.749
57492W        W28092   7.624  20.696  11.024
57493W        W28093  31.097  38.249   5.607
57494W        W28094  33.876  17.146  11.644
57495W        W28095  19.220   0.485   3.993
57496W        W28096  18.290   5.115   0.948
57497W        W28097  34.492  28.084   1.742
57498W        W28098  31.473  13.467   3.956
57499W        W28099  22.563  13.855  13.444
57500W        W28100  17.873  27.572  12.542
57501W        W28101  39.562   1.639   5.069
57502W        W28102  29.419   4.166   1.312
57503W        W28103  32.927  37.345  12.891
57504W        W28104  17.283  42.997   2.309
57505W        W28105  26.023  12.774   0.139
57506W        W28106  39.781  27.161   0.320
57507W        W28107  36.857  41.201  11.559
57508W        W28108  11.712  23.183   2.745
57509W        W28109  15.982  37.405  13.266
57510W        W28110  28.883  23.242   2.617
57511W        W28111  39.558  18.805  12.007
57512W        W28112  37.375   4.200  12.870
57513W        W28113  24.316  36.871  12.092
57514W        W28114  44.368  15.833   0.023
57515W        W28115   9.389  20.475  13.927
57516W        W28116  32.085  20.609  13.373
57517W        W28117  39.519  33.678  13.295
57518W        W28118   8.294  38.480   2.450
57519W        W28119  35.579  23.134  14.417
57520W        W28120   7.722   6.967  10.915
57521W        W28121  37.855   8.425   0.326
57522W        W28122   4.852  17.798   0.308
57523W        W28123   0.542  12.578   0.244
57524W        W28124  41.596   6.844   3.731
57525W        W28125   6.868  36.584   3.672
57526W        W28126   8.585  39.778   4.542
57527W        W28127  17.595  20.686   3.989
57528W        W28128   7.199  27.452   0.738
57529W        W28129   6.313   5.372   1.793
57530W        W28130  41.283  20.479   1.846
57531W        W28131  37.637  36.076  11.516
57532W        W28132  39.873  13.969  13.116
57533W        W28133  10.575  16.781   0.838
57534W        W28134  22.711  16.008   4.171
57535W        W28135  20.466  14.563  10.384
57536W        W28136  30.450  23.208   1.211
57537W        W28137  42.470  33.617  13.793
57538W        W28138  42.585  17.214   3.534
57539W        W28139   0.118   7.873  11.555
57540W        W28140  21.208  20.989  14.784
57541W        W28141   9.560  15.927  13.520
57542W        W28142   1.776  29.484   4.391
57543W        W28143   9.166  25.636   4.803
57544W        W28144   8.970  24.496   1.269
57545W        W28145  36.971   8.344   0.790
57546W        W28146  14.141   9.234   4.070
57547W        W28147  39.454   4.886   1.208
57548W        W28148  29.602  39.914  12.499
57549W        W28149  32.378   1.327  13.024
57550W        W28150   1.657   4.260  14.947
57551W        W28151  32.099  26.676   2.195
57552W        W28152  41.212  10.129   4.650
57553W        W28153  19.572  16.825   4.161
57554W        W28154   5.163  29.277   3.426
57555W        W28155   0.892  21.694  10.671
57556W        W28156  12.164  41.818  10.602
57557W        W28157  28.088   4.915  11.984
57558W        W28158   9.244   7.263   0.888
57559W        W28159   5.890  23.174   0.711
57560W        W28160   4.421  32.520   0.399
57561W        W28161  38.606  16.889   4.562
57562W        W28162  28.530   1.186   4.591
57563W        W28163  28.551  44.019  14.768
57564W        W28164  26.979  38.990  13.389
57565W        W28165   4.976  32.459  11.141
57566W        W28166  34.867  36.830  14.509
57567W        W28167  14.159   1.481  10.602
57568W        W28168  21.809  27.728   3.566
57569W        W28169  19.285  38.867   4.041
57570W        W28170  22.124  24.428  10.886
57571W        W28171   2.221  30.663  11.643
57572W        W28172  43.505   0.949   3.677
57573W        W28173  13.264   2.921   3.679
57574W        W28174   9.089   1.053   2.425
57575W        W28175   0.399  36.382   2.853
57576W        W28176  40.377  10.865  13.977
57577W        W28177  27.760   8.608  12.589
57578W        W28178  20.331  36.346  13.509
57579W        W28179  27.505  10.040   4.144
57580W        W28180  18.595  20.006  12.155
57581W        W28181   0.240  27.840   0.326
57582W        W28182  35.904   1.862  11.209
57583W        W28183  44.320  16.053  14.209
57584W        W28184  23.921   3.326  11.112
57585W        W28185  16.621  10.242   1.388
57586W        W28186   5.937  34.832  12.132
57587W        W28187  35.763  14.337   0.480
57588W        W28188  39.897   2.405   3.210
57589W        W28189  11.020  34.101  10.522
57590W        W28190  39.960  38.312   3.167
57591W        W28191  18.540  30.997   2.929
57592W        W28192  20.232   6.320   3.656
57593W        W28193  11.872  18.498   1.796
57594W        W28194  33.345  15.133   2.165
57595W        W28195  21.104  25.234   0.891
57596W        W28196  36.029  32.826   4.039
57597W        W28197  30.931   7.459   3.666
57598W        W28198  19.636   3.806   2.726
57599W        W28199   8.316  40.558   0.403
57600W        W28200  25.035  25.890  12.938
57601W        W28201  33.560  23.003   3.738
57602W        W28202   8.891   3.447  11.376
57603W        W28203  38.458   4.150  14.270
57604W        W28204   0.126  37.045  12.585
57605W        W28205   7.086  42.458  11.605
57606W        W28206   0.801  33.953  13.320
57607W        W28207  25.093  21.253  10.740
57608W        W28208  16.110   5.607  11.708
57609W        W28209  15.707  34.022   1.422
57610W        W28210  16.424  15.336  12.081
57611W        W28211  39.733  39.583  12.381
57612W        W28212   0.561  43.294  10.494
57613W        W28213  38.604  20.316   0.363
57614W        W28214  17.042  41.216  10.943
57615W        W28215  39.900   5.594   2.650
57616W        W28216  17.584  29.056  14.246
57617W        W28217  44.538  33.886  10.714
57618W        W28218  11.812   9.424  13.969
57619W        W28219  26.435   9.298  14.468
57620W        W28220  19.239  16.466  11.046
57621W        W28221  31.202   5.888   1.547
57622W        W28222  17.797  44.944  11.566
57623W        W28223  30.822   0.434   3.504
57624W        W28224   6.364  24.468  13.950
57625W        W28225  33.090  10.352  13.505
57626W        W28226  41.240  37.768   5.006
57627W        W28227   3.104  36.167  12.941
57628W        W28228  35.528  29.080   0.569
57629W        W28229   5.828  18.749  12.160
57630W        W28230  40.039  10.545  11.903
57631W        W28231  44.097  10.859  11.235
57632W        W28232  24.753   5.291  13.612
57633W        W28233  12.354  44.171  13.014
57634W        W28234  37.309   0.538   4.550
57635W        W28235  26.740   5.162  10.764
57636W        W28236  43.391  24.091  14.691
57637W        W28237   4.101  13.199   3.599
57638W        W28238  35.972  23.962  13.642
57639W        W28239  32.186   2.709   4.269
57640W        W28240   4.311  32.033   1.237
57641W        W28241   7.114  32.963  11.205
57642W        W28242  16.740   7.696   2.395
57643W        W28243  30.680  41.241  13.934
57644W        W28244  21.055  31.594   3.358
57645W        W28245  15.064   0.891  11.074
57646W        W28246  15.677   6.320   0.391
57647W        W28247  40.124  27.065   0.903
57648W        W28248  11.830  13.762   1.896
57649W        W28249  29.126  44.853   3.513
57650W        W28250   4.878  41.346  14.749
57651W        W28251  33.477  33.637   3.604
57652W        W28252  33.098  20.784  14.939
57653W        W28253   5.276  23.041  12.961
57654W        W28254  24.498  43.083   2.921
57655W        W28255  20.577  31.333   4.284
57656W        W28256  38.424  28.902  10.509
57657W        W28257  44.215  34.749  10.668
57658W        W28258  41.303  13.440   5.024
57659W        W28259  15.573  41.820  13.736
57660W        W28260  13.901   5.359   2.466
57661W        W28261  36.184  13.974   5.063
57662W        W28262  35.493  31.143  12.402
57663W        W28263  32.913  19.017   1.866
57664W        W28264  36.738   0.225   0.961
57665W        W28265  25.580  26.883  11.181
57666W        W28266  41.906   1.837   4.153
57667W        W28267  35.133  14.832  12.907
57668W        W28268  42.518   2.031  11.551
57669W        W28269  44.191  37.899  11.460
57670W        W28270   8.763  12.447   4.187
57671W        W28271  33.119  36.373  12.385
57672W        W28272  31.739  16.865  12.388
57673W        W28273  11.704   8.415  12.446
57674W        W28274  19.162  20.245   1.881
57675W        W28275  42.488  39.915   1.347
57676W        W28276  18.247   5.889  11.608
57677W        W28277  25.990  26.165   2.274
57678W        W28278   5.731   0.542  10.714
57679W        W28279  29.217  33.839  11.715
57680W        W28280  34.282  21.778  12.570
57681W        W28281  38.484  13.542   2.405
57682W        W28282  12.984  14.898  11.563
57683W        W28283  14.690   3.742  14.366
57684W        W28284  36.897  30.438  10.658
57685W        W28285   0.861  24.459  13.958
57686W        W28286   5.706  40.844  12.110
57687W        W28287  43.545  41.833   2.380
57688W        W28288  16.640  22.118   2.606
57689W        W28289  21.448  13.737  13.035
57690W        W28290  17.234   9.946  10.669
57691W        W28291  41.550  11.742   0.876
57692W        W28292  29.850  34.071  13.122
57693W        W28293  24.238  32.504  14.197
57694W        W28294   0.480  32.835  14.541
57695W        W28295   9.784   0.960   0.296
57696W        W28296   8.335  13.799   4.186
57697W        W28297  38.118  38.062   3.859
57698W        W28298  44.804  41.837  13.966
57699W        W28299   4.827  33.402  12.532
57700W        W28300  24.941   7.443  14.010
57701W        W28301  26.390  12.887  14.746
57702W        W28302  16.289  28.309   4.131
57703W        W28303   4.630  31.403   4.613
57704W        W28304  38.911  14.827  12.452
57705W        W28305  31.530  41.141   1.265
57706W        W28306  44.426  37.171   1.769
57707W        W28307  37.260   2.454   1.376
57708W        W28308  17.368  25.679  12.014
57709W        W28309   0.902  23.603   2.235
57710W        W28310  18.104  13.608  13.337
57711W        W28311  42.039  23.928   4.110
57712W        W28312  20.217  19.547  12.080
57713W        W28313   7.581  25.776  13.974
57714W        W28314  21.035  22.796  12.976
57715W        W28315  27.681   3.366  14.202
57716W        W28316  29.564  20.279  10.997
57717W        W28317  16.150  17.696  10.605
57718W        W28318   4.876   4.299   1.369
57719W        W28319   1.922  36.905   3.218
57720W        W28320  23.163  29.927  14.908
57721W        W28321  26.272  30.861   3.195
57722W        W28322  32.231   0.242  12.260
57723W        W28323   8.617  13.127  10.669
57724W        W28324   5.939  19.091   1.106
57725W        W28325  28.897  26.953  10.002
57726W        W28326  39.504  35.958  10.649
57727W        W28327  34.860  13.614  13.027
57728W        W28328  21.142   4.889  14.532
57729W        W28329  41.421  29.585   2.954
57730W        W28330  42.933  40.297   3.994
57731W        W28331   9.856   0.728   0.772
57732W        W28332  22.254   0.363  14.029
57733W        W28333  20.851   2.264   2.214
57734W        W28334  15.055   0.702  10.039
57735W        W28335  43.324  16.004   1.307
57736W        W28336  37.015   9.901   2.869
57737W        W28337  20.046  35.027   2.150
57738W        W28338  18.722  33.802  12.335
57739W        W28339  32.396   8.772   0.419
57740W        W28340   6.271  26.998  12.179
57741W        W28341  39.848   7.314  12.517
57742W        W28342   0.235  37.952  12.593
57743W        W28343  11.115  44.212  14.853
57744W        W28344  34.619  23.770  11.579
57745W        W28345   9.714   0.876  12.086
57746W        W28346  38.906   7.419  10.750
57747W        W28347  39.545  32.480   1.306
57748W        W28348  36.232  31.831   0.410
57749W        W28349  37.954  18.555  13.396
57750W        W28350   7.800   9.942   0.851
57751W        W28351  38.585  13.698  11.712
57752W        W28352  11.920  37.063   0.943
57753W        W28353  37.969   0.123   0.577
57754W        W28354  27.551  21.715  11.719
57755W        W28355   8.928  21.125   1.837
57756W        W28356   4.400   8.681   2.012
57757W        W28357  17.644  39.670  12.855
57758W        W28358   2.890   0.949  12.571
57759W        W28359  25.847   3.327   0.380
57760W        W28360   4.170  23.206   2.912
57761W        W28361  19.071  37.278   2.661
57762W        W28362  35.576   1.066  11.183
57763W        W28363  30.519  10.800  10.479
57764W        W28364  42.182  34.168  11.070
57765W        W28365  15.854  20.443  13.971
57766W        W28366   9.220  15.564  10.330
57767W        W28367   2.419  42.919   1.627
57768W        W28368  24.419  36.309  11.145
57769W        W28369   6.480  20.603  10.288
57770W        W28370  31.422  44.258  11.999
57771W        W28371   9.927  39.808   2.912
57772W        W28372  40.001  28.074   4.115
57773W        W28373   2.729  32.051   3.088
57774W        W28374   3.884  12.818  12.202
57775W        W28375   0.277  40.921  12.940
57776W        W28376  39.575  31.050   1.492
57777W        W28377   0.719  28.339  14.649
57778W        W28378  34.868   9.811  12.606
57779W        W28379  31.670  15.566   3.317
57780W        W28380  39.951  35.052   4.666
57781W        W28381  41.479   9.903   0.438
57782W        W28382  35.843  19.210   0.668
57783W        W28383   2.299  20.236   1.945
57784W        W28384  22.315   4.329   1.332
57785W        W28385  40.520  26.713   0.650
57786W        W28386  27.159  11.580  14.391
57787W        W28387   6.302   1.847   2.170
57788W        W28388  15.725  30.392   1.348
57789W        W28389  27.745  14.351  11.712
57790W        W28390  28.937  12.730   1.298
57791W        W28391   4.709  29.666  11.955
57792W        W28392  11.606  30.902   2.928
57793W        W28393   9.645   4.993  10.921
57794W        W28394   4.796  28.229  11.947
57795W        W28395  32.041  27.196   0.430
57796W        W28396  36.859   7.319   4.066
57797W        W28397   4.305   9.215   4.247
57798W        W28398  37.353  41.623   2.319
57799W        W28399  20.871  39.551   1.786
57800W        W28400   8.753  23.383  10.746
57801W        W28401  24.642   2.856   3.936
57802W        W28402  14.911   6.392  12.906
57803W        W28403  15.205  37.990   2.168
57804W        W28404  29.493  38.977   3.824
57805W        W28405  37.310   5.327   3.720
57806W        W28406  10.502  44.675  11.573
57807W        W28407  37.171  12.860   1.189
57808W        W28408  27.487   1.810  11.881
57809W        W28409  38.921  37.333  11.510
57810W        W28410  13.324  13.511   5.248
57811W        W28411  19.991   7.738  13.358
57812W        W28412   5.063  12.621  13.691
57813W        W28413  40.143  23.947   0.088
57814W        W28414  38.300  30.623   1.845
57815W        W28415  41.408  22.598   3.160
57816W        W28416  34.839  12.624   4.987
57817W        W28417  20.795  26.920   0.857
57818W        W28418  25.698  27.693   4.286
57819W        W28419  41.299   4.117   1.791
57820W        W28420  37.440  24.949  14.302
57821W        W28421  40.051  18.895  11.739
57822W        W28422  31.501  19.939   4.105
57823W        W28423   8.470  35.293   0.293
57824W        W28424  11.370  24.718  12.931
57825W        W28425  30.387  18.350   0.485
57826W        W28426  36.881  14.850   4.466
57827W        W28427  26.573  23.618  12.001
57828W        W28428   5.230  10.486  11.134
57829W        W28429   4.920  30.933   2.679
57830W        W28430  33.337  32.057  14.255
57831W        W28431   9.584  30.581  12.921
57832W        W28432  20.203  38.124  13.377
57833W        W28433   9.340  33.957  14.418
57834W        W28434  20.324  35.991   2.412
57835W        W28435  25.703   6.699  11.010
57836W        W28436   5.806  22.244  14.643
57837W        W28437  36.458  18.028  13.107
57838W        W28438  12.254  11.412   2.463
57839W        W28439   9.377  20.692  12.109
57840W        W28440   2.291   9.651  10.559
57841W        W28441  44.680  37.129  11.432
57842W        W28442  11.085  30.262  13.439
57843W        W28443  36.131  21.765   3.282
57844W        W28444   3.745  24.182   3.221
57845W        W28445  30.354  23.363   3.757
57846W        W28446  21.203  30.948  11.649
57847W        W28447  14.691  18.823   1.625
57848W        W28448  15.516  26.149  12.124
57849W        W28449   0.786  18.745  11.494
57850W        W28450  11.582   3.229   0.957
57851W        W28451  13.046  18.280  10.308
57852W        W28452  16.812   6.689   1.214
57853W        W28453  23.959  17.530   0.780
57854W        W28454  19.254   2.017  12.646
57855W        W28455  10.627   9.706   4.663
57856W        W28456  10.710   0.942   0.765
57857W        W28457  23.065  16.269   1.071
57858W        W28458  41.431  30.470   2.374
57859W        W28459  35.452  44.761  13.391
57860W        W28460  42.192  30.901   0.619
57861W        W28461  32.415  20.046   4.981
57862W        W28462   8.299  21.510   4.634
57863W        W28463  21.205  43.786  11.572
57864W        W28464  39.089  24.058   3.229
57865W        W28465  40.067  40.481   4.012
57866W        W28466  31.558  32.402  11.897
57867W        W28467  14.747  31.353  11.639
57868W        W28468  38.900   7.537  13.378
57869W        W28469   4.516  36.237  11.202
57870W        W28470  41.884  13.107  14.583
57871W        W28471   6.031   3.775  13.114
57872W        W28472  11.568   6.828   4.202
57873W        W28473  19.934  44.329  14.435
57874W        W28474  25.406  44.835  12.428
57875W        W28475   9.848  15.400  11.123
57876W        W28476  24.459  41.420   4.174
57877W        W28477  23.737  18.571   4.640
57878W        W28478  22.754  32.546   1.246
57879W        W28479   9.456  19.482   0.714
57880W        W28480  16.995  19.605  13.910
57881W        W28481  28.430  40.270   1.384
57882W        W28482  16.199  16.773   1.615
57883W        W28483  38.941  28.168   2.045
57884W        W28484  36.392  23.000  11.080
57885W        W28485  23.864  17.230   4.325
57886W        W28486  17.989  39.947   2.826
57887W        W28487  17.758  40.758  12.548
57888W        W28488  15.721   4.220  12.028
57889W        W28489  15.951  20.219  11.983
57890W        W28490  33.846  29.005  11.784
57891W        W28491  26.942  14.135  14.579
57892W        W28492  28.158  38.883   1.191
57893W        W28493   9.869  20.014  11.193
57894W        W28494  19.175  37.036  11.711
57895W        W28495  31.365  19.624  14.029
57896W        W28496   7.004  13.463  10.988
57897W        W28497   8.474  26.762  13.794
57898W        W28498  32.765  43.398   0.388
57899W        W28499  12.415  16.520  13.149
57900W        W28500  31.154  38.468   2.365
57901W        W28501  31.949   5.193  13.272
57902W        W28502   4.748   1.312   1.012
57903W        W28503  16.153  44.387   3.676
57904W        W28504  44.842  42.896   2.713
57905W        W28505  26.943  42.338  13.880
57906W        W28506  21.595   1.265   0.629
57907W        W28507   6.326  43.973   3.651
57908W        W28508  23.101   6.377  11.692
57909W        W28509  10.088  25.961   5.091
57910W        W28510  18.264  19.313   2.397
57911W        W28511  30.561  30.967  12.589
57912W        W28512  34.469   3.616  11.943
57913W        W28513   8.894  28.156  14.001
57914W        W28514  21.894  30.442   3.144
57915W        W28515  25.404   3.778  11.464
57916W        W28516  33.081  22.543   3.212
57917W        W28517   2.223  21.503   3.343
57918W        W28518  24.255  19.064  11.876
57919W        W28519  30.560  11.208   3.623
57920W        W28520  27.179  38.035  13.018
57921W        W28521  34.090   8.301   2.364
57922W        W28522  13.704  19.322  14.546
57923W        W28523  19.664  37.797  14.213
57924W        W28524  20.682  24.543   4.675
57925W        W28525   8.735  30.115  10.675
57926W        W28526   5.886  22.608   3.749
57927W        W28527  34.507  26.506  14.374
57928W        W28528  30.847   6.225   0.392
57929W        W28529  30.159   9.976  13.514
57930W        W28530  21.705  32.598   4.521
57931W        W28531  37.407  43.782  14.794
57932W        W28532  18.535  22.516   2.309
57933W        W28533  16.101  36.467   4.089
57934W        W28534   4.363  40.799  11.930
57935W        W28535  40.863  20.338  13.424
57936W        W28536  32.996   8.807  14.574
57937W        W28537  40.530   4.950  11.658
57938W        W28538  16.767  31.901  11.153
57939W        W28539   1.192   6.896  13.405
57940W        W28540  12.272  44.539  14.018
57941W        W28541  36.196  41.728  12.037
57942W        W28542  35.885  39.539   4.169
57943W        W28543  36.040  28.602  12.086
57944W        W28544  21.521  33.139  13.962
57945W        W28545  20.586  24.633   4.152
57946W        W28546  16.566  27.593  14.263
57947W        W28547  22.686  10.909   0.971
57948W        W28548  41.482  11.417  14.984
57949W        W28549  11.283  23.989  11.524
57950W        W28550  18.019  12.836   0.936
57951W        W28551  41.896   1.854  13.619
57952W        W28552   0.852  34.368   3.196
57953W        W28553  34.341  16.725  13.349
57954W        W28554  15.661  43.271   0.725
57955W        W28555  25.189  11.131   4.505
57956W        W28556  34.501  23.056   2.674
57957W        W28557  37.466  16.161   3.810
57958W        W28558  19.219  29.448   5.127
57959W        W28559  39.317  37.911   4.424
57960W        W28560  40.985  42.946  13.437
57961W        W28561   2.571  18.921   0.766
57962W        W28562  14.462  44.972   3.738
57963W        W28563  32.294  43.586  13.194
57964W        W28564   6.497  19.770  13.006
57965W        W28565  24.344  29.619  12.244
57966W        W28566  16.959  40.060   4.932
57967W        W28567  19.231   6.843   1.428
57968W        W28568  30.478   5.642   1.749
57969W        W28569  11.755  40.007   1.951
57970W        W28570  44.987  29.857   2.394
57971W        W28571  18.709   9.292  13.778
57972W        W28572  44.007  31.676   1.808
57973W        W28573  32.325   4.499   0.052
57974W        W28574  12.488  43.658   5.038
57975W        W28575   3.781  12.695  14.094
57976W        W28576  26.663  36.345  14.735
57977W        W28577  14.857   5.866   4.244
57978W        W28578  29.462  38.440   2.572
57979W        W28579  21.577   9.312   2.639
57980W        W28580  40.937  43.528  13.289
57981W        W28581  23.546   9.727  13.078
57982W        W28582   7.210  28.954   3.224
57983W        W28583   1.332   4.800  13.624
57984W        W28584   2.243   1.491  12.618
57985W        W28585  33.420  17.747   1.252
57986W        W28586   9.731   9.995  12.643
57987W        W28587  27.900  11.529   2.397
57988W        W28588  44.580  39.359  12.066
57989W        W28589  28.652  13.904   3.338
57990W        W28590  12.634  39.929  10.594
57991W        W28591  31.703  29.410  14.403
57992W        W28592  16.584  42.893   3.156
57993W        W28593  34.029  24.829  11.182
57994W        W28594  27.727  31.617   2.667
57995W        W28595  13.340   0.029   2.266
57996W        W28596  20.341   4.880  12.192
57997W        W28597  36.134  44.273   4.098
57998W        W28598  22.291   1.422   2.205
57999W        W28599  34.932  29.551   1.920
58000W        W28600  41.031   9.753   0.671
58001W        W28601   5.822  21.696   2.040
58002W        W28602   8.464  17.640  11.669
58003W        W28603  37.047  33.872  11.546
58004W        W28604  23.679  31.450   1.577
58005W        W28605  11.587  12.140  12.940
58006W        W28606   6.776  13.307  11.442
58007W        W28607  11.095  14.858  11.573
58008W        W28608  38.400  23.563   4.135
58009W        W28609  11.695  18.242  14.392
58010W        W28610  20.187  28.650  13.241
58011W        W28611  43.376  36.907   0.919
58012W        W28612  39.181  12.250   0.395
58013W        W28613  23.000  20.044  12.022
58014W        W28614  15.736  39.889   1.530
58015W        W28615  10.620  31.390   1.163
58016W        W28616  21.078  24.040   4.607
58017W        W28617  25.893  12.407   0.870
58018W        W28618  23.751  23.094  10.895
58019W        W28619   1.576   9.260  11.495
58020W        W28620  34.307  21.543  10.673
58021W        W28621  39.416  13.747  12.213
58022W        W28622  32.468  10.840  10.651
58023W        W28623   7.135  12.746   1.496
58024W        W28624  14.752  34.286   1.861
58025W        W28625  22.591   2.595   1.724
58026W        W28626   6.376  16.998   1.322
58027W        W28627  34.682  31.020   2.813
58028W        W28628  24.942  16.735  12.028
58029W        W28629   2.340  26.451  13.415
58030W        W28630  25.272  15.662  13.020
58031W        W28631  15.186   2.519  11.639
58032W        W28632  34.741  23.306  13.560
58033W        W28633  12.243   0.406  12.520
58034W        W28634  22.144  24.425   3.625
58035W        W28635  19.255  16.771  14.651
58036W        W28636  27.993   6.800  11.519
58037W        W28637  42.271  34.840   3.133
58038W        W28638  42.595  43.706  13.971
58039W        W28639  38.572  41.424  11.200
58040W        W28640   7.246  14.249  10.949
58041W        W28641   3.256  16.078   0.199
58042W        W28642   3.697  29.527   1.767
58043W        W28643  34.586  15.535  12.877
58044W        W28644  43.072  31.129   2.665
58045W        W28645  26.566  40.839  12.501
58046W        W28646  17.471  18.116   3.172
58047W        W28647  15.798  37.918  14.922
58048W        W28648   5.793  11.653   4.575
58049W        W28649  28.397  18.547   0.756
58050W        W28650  38.113  15.717  10.730
58051W        W28651  23.087  40.834   0.660
58052W        W28652   6.372  44.660  12.277
58053W        W28653  34.607  11.394  13.487
58054W        W28654  16.237  41.167  10.651
58055W        W28655   5.995  35.993   2.376
58056W        W28656  43.300  25.943   0.434
58057W        W28657  37.453  39.248   0.296
58058W        W28658  43.492  14.379   4.225
58059W        W28659   6.444  30.694  11.593
58060W        W28660  42.857  42.222  13.542
58061W        W28661  32.160  42.246   3.546
58062W        W28662  42.710  44.476  14.438
58063W        W28663  14.707  32.944  10.679
58064W        W28664  16.063  37.016   2.276
58065W        W28665  15.737  16.086   3.200
58066W        W28666  43.504  22.013   1.332
58067W        W28667  27.415  23.999   4.066
58068W        W28668  28.366   7.564  13.732
58069W        W28669  17.776  27.610   3.938
58070W        W28670   6.894  41.081   3.683
58071W        W28671  40.011  16.961   5.015
58072W        W28672  35.964  37.408  14.489
58073W        W28673  31.141   7.744   2.181
58074W        W28674  25.889   5.090   4.299
58075W        W28675  31.770  44.041  11.570
58076W        W28676  30.085  25.927  12.157
58077W        W28677  43.358   9.727  13.100
58078W        W28678  10.272   9.807   5.014
58079W        W28679  31.482  16.052   1.164
58080W        W28680  38.859  30.344  11.944
58081W        W28681   8.271  22.420  11.545
58082W        W28682  11.813  15.354  10.754
58083W        W28683  26.737   6.685  11.097
58084W        W28684  30.964   8.861   3.605
58085W        W28685   6.375  23.689   0.521
58086W        W28686  33.504  18.443   2.016
58087W        W28687  18.577   3.439   1.916
58088W        W28688  32.087  26.104   1.331
58089W        W28689  36.968   3.701  14.342
58090W        W28690  16.818   7.948  14.998
58091W        W28691  33.700  16.670   1.509
58092W        W28692  44.849   4.821   0.336
58093W        W28693  10.205  20.049   2.781
58094W        W28694  32.907   7.299   2.033
58095W        W28695   4.471  15.439  12.373
58096W        W28696  24.193  43.436   0.907
58097W        W28697  35.469  10.637  13.028
58098W        W28698  41.523   8.777   1.564
58099W        W28699  12.068  37.983  12.940
58100W        W28700  13.027  33.512  10.673
58101W        W28701   9.264  14.333  11.910
58102W        W28702   1.326  43.846   4.611
58103W        W28703  26.197  32.856   3.573
58104W        W28704  29.353  16.720  12.080
58105W        W28705   4.929  40.067   1.984
58106W        W28706  34.366  35.446  13.951
58107W        W28707  43.401  15.423  12.026
58108W        W28708  13.774  21.327   0.049
58109W        W28709  21.756  40.535  11.608
58110W        W28710  18.042   3.824  11.573
58111W        W28711   3.702  43.142   4.207
58112W        W28712  25.263  40.389  11.756
58113W        W28713   5.357  29.917   4.634
58114W        W28714   6.689  39.344  14.873
58115W        W28715  36.012  18.324  12.591
58116W        W28716  16.301   2.725  14.318
58117W        W28717   2.380  23.943   0.016
58118W        W28718   7.541  30.768  12.372
58119W        W28719  42.794  44.295  12.116
58120W        W28720  36.914  21.409   1.472
58121W        W28721  23.744  38.438   1.856
58122W        W28722   8.574  44.242   4.967
58123W        W28723   0.923  12.273   0.397
58124W        W28724   8.029  32.100   1.224
58125W        W28725  26.375  37.533   4.546
58126W        W28726  39.523  13.321   3.593
58127W        W28727  31.561  19.809  14.480
58128W        W28728  32.580  30.682   0.435
58129W        W28729  42.353   9.322  14.991
58130W        W28730  37.816  36.099   3.161
58131W        W28731   8.730  32.387   0.795
58132W        W28732  39.878  11.740   4.870
58133W        W28733   0.268   0.805   0.362
58134W        W28734  17.190   9.326  14.452
58135W        W28735  31.458  24.610   3.732
58136W        W28736  19.865   9.083  13.458
58137W        W28737   1.236  32.922  11.196
58138W        W28738  14.330   1.330   4.129
58139W        W28739   3.970  16.763   4.047
58140W        W28740  41.841  39.191  10.155
58141W        W28741  30.841   2.472   0.154
58142W        W28742  32.054  32.493   5.321
58143W        W28743  14.116  43.555   1.770
58144W        W28744   8.654  24.218   3.321
58145W        W28745  36.520  17.026  11.370
58146W        W28746  44.537   5.785  12.442
58147W        W28747  33.484  34.726   2.192
58148W        W28748  36.901  18.236   2.639
58149W        W28749  21.673   6.966   1.149
58150W        W28750  34.880  37.579  12.966
58151W        W28751  27.430  43.183   1.839
58152W        W28752  27.010  19.299   3.169
58153W        W28753  32.375  36.450   3.905
58154W        W28754  18.173   5.313   1.438
58155W        W28755  17.681  37.450   4.717
58156W        W28756  11.430  29.554  11.579
58157W        W28757  29.661   3.164  13.789
58158W        W28758  40.438  41.575   1.029
58159W        W28759  14.848  12.684  13.752
58160W        W28760  40.603   7.634  10.783
58161W        W28761   7.377  35.809  12.577
58162W        W28762   1.220  39.976  11.655
58163W        W28763  25.171  17.318  13.864
58164W        W28764  35.917  25.173   4.324
58165W        W28765  27.385   8.383   1.363
58166W        W28766  16.582  44.698   3.663
58167W        W28767  29.584   7.372  13.975
58168W        W28768  15.225  19.545   0.740
58169W        W28769  26.739  38.138  11.082
58170W        W28770  21.032  24.436   4.292
58171W        W28771  40.924  34.100  14.834
58172W        W28772   4.943  44.004  14.349
58173W        W28773  27.058  19.062   4.031
58174W        W28774  32.547  36.814  14.833
58175W        W28775  37.405   7.197  13.920
58176W        W28776   2.431  24.646  10.967
58177W        W28777  18.862  21.545   2.316
58178W        W28778  19.762   3.201   2.893
58179W        W28779   2.783  25.100  13.011
58180W        W28780  42.410   7.251  11.181
58181W        W28781  19.028  24.178  10.702
58182W        W28782   7.343  43.959   0.249
58183W        W28783   8.921  30.145   3.768
58184W        W28784  31.630  13.134  10.809
58185W        W28785  43.796   5.207   0.896
58186W        W28786   0.921  44.237   3.367
58187W        W28787  18.587  35.656  11.109
58188W        W28788  18.302  12.644  13.862
58189W        W28789  28.211  30.472   4.809
58190W        W28790  31.259  18.180  11.213
58191W        W28791  36.338  36.431   3.272
58192W        W28792  40.629  20.350   0.737
58193W        W28793  11.202  38.389  11.893
58194W        W28794  40.215  32.074   0.325
58195W        W28795  15.096  26.063  10.830
58196W        W28796  16.649  27.273  11.690
58197W        W28797  19.891   4.915  11.939
58198W        W28798  23.473  44.544   3.178
58199W        W28799   9.097   6.466  13.410
58200W        W28800  10.712  32.671   1.634
58201W        W28801  16.240  32.094   2.371
58202W        W28802  38.408  18.645  14.852
58203W        W28803  29.923   3.697   4.228
58204W        W28804   7.787  38.746   4.098
58205W        W28805  16.844  10.576  11.099
58206W        W28806   3.791  32.017  12.193
58207W        W28807  26.687  14.937   4.558
58208W        W28808   1.391  33.095  14.424
58209W        W28809  11.897  38.354   1.335
58210W        W28810  36.501  20.609   2.967
58211W        W28811  23.500  36.889  14.798
58212W        W28812  42.941  34.435   0.393
58213W        W28813   6.843  16.076   4.758
58214W        W28814  25.479   1.330  12.163
58215W        W28815  34.581  21.046  14.087
58216W        W28816   0.257  21.519  12.891
58217W        W28817   4.225  28.943   3.598
58218W        W28818  12.812   7.342  12.397
58219W        W28819  38.983  43.332  14.317
58220W        W28820  28.604  10.127   0.393
58221W        W28821  30.411  44.389  14.575
58222W        W28822  15.373   0.696  11.438
58223W        W28823  26.611  23.169   4.548
58224W        W28824  32.922  44.681  14.905
58225W        W28825  24.008  36.873  14.583
58226W        W28826  37.945  24.919   1.311
58227W        W28827  22.048  41.868  11.033
58228W        W28828  17.587  12.070  10.334
58229W        W28829  31.408  37.781   3.751
58230W        W28830  23.497  14.271   4.038
58231W        W28831  35.550  23.113  13.556
58232W        W28832  40.360   9.173   0.991
58233W        W28833  13.765  34.435  11.401
58234W        W28834  31.407  18.991   0.569
58235W        W28835  18.044  28.472   3.040
58236W        W28836  36.480  28.388   1.928
58237W        W28837   6.106  36.475  13.938
58238W        W28838  16.379  27.088   3.717
58239W        W28839  15.546   4.512   3.706
58240W        W28840  11.912  12.337  14.279
58241W        W28841   2.947  19.521   1.780
58242W        W28842  34.385   9.701   0.354
58243W        W28843  28.188  40.102  12.486
58244W        W28844  23.944  29.658  11.472
58245W        W28845  24.080  44.363   3.730
58246W        W28846  39.384   2.756  12.092
58247W        W28847  27.630  32.433  10.778
58248W        W28848  20.588   5.798   4.428
58249W        W28849  44.679  21.758  14.467
58250W        W28850  36.271  44.931  10.515
58251W        W28851  43.238  15.671   4.567
58252W        W28852  37.515  13.818  14.048
58253W        W28853  34.009  38.196   3.317
58254W        W28854   7.908  38.763   4.593
58255W        W28855  39.276  27.565  11.157
58256W        W28856  17.088  27.549  13.838
58257W        W28857  16.011   4.810  11.943
58258W        W28858  13.831  11.348   1.438
58259W        W28859  21.501   3.466   4.193
58260W        W28860  16.471   6.228   2.336
58261W        W28861  43.918  14.004   2.912
58262W        W28862   0.915  25.387   2.307
58263W        W28863   1.312  30.091   3.029
58264W        W28864  34.217  26.239   2.730
58265W        W28865  23.105  44.993  12.189
58266W        W28866  13.682  41.224   1.588
58267W        W28867   3.070  42.795  11.918
58268W        W28868   4.267  18.112   1.266
58269W        W28869  31.925  40.990   2.998
58270W        W28870  39.693  37.054  11.141
58271W        W28871  35.942  32.464  11.906
58272W        W28872  16.082   3.464  12.980
58273W        W28873  36.260   1.727   4.145
58274W        W28874  36.341  21.557   0.747
58275W        W28875  39.383  33.920  11.108
58276W        W28876  32.535   0.590   3.829
58277W        W28877  41.910  21.508   0.321
58278W        W28878  22.251  24.415   0.865
58279W        W28879  10.535  19.619  10.641
58280W        W28880  27.156  18.314  12.969
58281W        W28881   4.165  14.894   3.103
58282W        W28882  27.732  15.338   0.327
58283W        W28883  19.235  13.063   2.593
58284W        W28884  28.896  17.176   0.841
58285W        W28885  12.813  24.007   2.792
58286W        W28886   5.159  31.254  14.046
58287W        W28887  13.170  35.862  11.885
58288W        W28888   3.793  25.486  11.382
58289W        W28889  24.519  38.622   0.305
58290W        W28890   1.627  28.052  14.302
58291W        W28891   2.811  22.626  14.440
58292W        W28892  18.751  10.206  14.336
58293W        W28893  10.281  40.716   2.552
58294W        W28894  20.274  17.073  10.728
58295W        W28895  33.062  30.610  14.271
58296W        W28896  42.958  27.878   0.913
58297W        W28897  44.921  31.653  10.690
58298W        W28898  10.607  16.099   4.118
58299W        W28899  34.689  20.697  10.845
58300W        W28900   6.894  16.759   2.510
58301W        W28901  42.780   8.946   3.999
58302W        W28902  33.012  19.459   1.241
58303W        W28903  26.424  10.307  10.693
58304W        W28904  40.349   3.259   1.301
58305W        W28905  11.138   2.537  12.112
58306W        W28906  37.939  13.649   4.176
58307W        W28907  41.409  18.185  13.509
58308W        W28908  16.781  42.575  11.116
58309W        W28909   5.910   3.264   2.798
58310W        W28910   5.160  22.148  11.504
58311W        W28911  25.678  23.050  10.942
58312W        W28912  39.429  19.727  11.173
58313W        W28913  26.100   4.357  11.501
58314W        W28914  25.573  43.844   3.026
58315W        W28915  14.423  44.033  11.183
58316W        W28916  16.305  30.113  12.064
58317W        W28917  29.951  36.880  14.799
58318W        W28918   8.065  22.832  12.413
58319W        W28919   8.592  41.550   1.937
58320W        W28920   6.250  25.225   1.059
58321W        W28921  13.334   3.853   2.376
58322W        W28922  10.911  25.947   2.357
58323W        W28923  12.079  16.922  14.329
58324W        W28924  19.242   6.288  14.469
58325W        W28925  44.521  10.418   4.538
58326W        W28926  40.472   4.902  12.190
58327W        W28927  44.289  30.986   2.227
58328W        W28928  27.887   6.860   1.708
58329W        W28929  43.871  11.671   4.310
58330W        W28930  23.120  15.648  11.735
58331W        W28931  10.843  26.569  11.591
58332W        W28932  10.395  26.890   4.626
58333W        W28933  44.270   8.198   2.711
58334W        W28934  11.231  35.614  10.713
58335W        W28935   2.946   2.784   3.258
58336W        W28936   7.821  33.235  13.800
58337W        W28937  33.707  26.327   1.279
58338W        W28938  39.722  10.833  13.519
58339W        W28939  35.606   8.175  12.002
58340W        W28940  42.877  11.894   1.719
58341W        W28941  34.304  15.078   0.883
58342W        W28942  27.675   2.249   0.706
58343W        W28943  35.326   9.582   3.345
58344W        W28944  36.683  16.841   2.297
58345W        W28945  38.055   9.428   0.310
58346W        W28946  31.840  42.891  11.105
58347W        W28947  26.757  35.338   4.080
58348W        W28948  26.203  37.933  13.301
58349W        W28949  42.822  35.995  12.400
58350W        W28950  21.269   7.755   1.040
58351W        W28951  18.550  17.928   4.224
58352W        W28952   6.196  19.577  12.033
58353W        W28953  38.057  39.973  11.351
58354W        W28954  35.462  12.883   4.142
58355W        W28955   9.791  34.809   4.743
58356W        W28956   7.643   1.931   3.409
58357W        W28957  41.393   5.491  13.430
58358W        W28958  34.883   1.267   1.909
58359W        W28959  16.175   2.470   4.800
58360W        W28960   1.977  24.728  12.999
58361W        W28961  32.117  20.311  13.841
58362W        W28962  12.709  32.502   4.310
58363W        W28963  10.550  44.912   4.195
58364W        W28964  20.990   6.846   0.758
58365W        W28965  37.367  25.204   4.233
58366W        W28966  33.074  40.343   2.260
58367W        W28967  26.530   9.798   0.292
58368W        W28968   9.470   1.555   4.148
58369W        W28969  20.001   0.185   2.308
58370W        W28970   2.982  44.948   0.342
58371W        W28971  28.589  38.365   5.542
58372W        W28972  42.753  15.047  13.877
58373W        W28973  39.520   9.408  11.732
58374W        W28974  36.653   4.207   4.054
58375W        W28975   3.457  30.084   4.465
58376W        W28976  28.076   8.923   1.410
58377W        W28977   2.031  24.130  14.673
58378W        W28978  41.963  31.342   2.264
58379W        W28979  15.813   2.189  13.818
58380W        W28980  14.019  11.712   3.304
58381W        W28981  36.154  30.995  13.062
58382W        W28982  23.776   9.272   1.456
58383W        W28983  37.969  39.498   1.747
58384W        W28984  13.601   5.945  12.934
58385W        W28985  18.225  33.373  14.897
58386W        W28986   0.211  31.520  11.115
58387W        W28987   5.381  12.341   1.686
58388W        W28988   9.124  40.798  12.518
58389W        W28989   5.456  29.026   4.595
58390W        W28990  14.545  36.310  10.789
58391W        W28991   8.347  16.377   0.860
58392W        W28992  43.668  40.905   2.846
58393W        W28993  38.934  44.659  10.768
58394W        W28994   5.948  11.124   9.967
58395W        W28995   6.688  42.536   4.721
58396W        W28996  39.422   5.282  13.121
58397W        W28997  13.159  16.275   2.683
58398W        W28998  17.820  14.877   1.805
58399W        W28999  24.569  13.721  11.799
58400W        W29000  35.468  32.482   0.359
58401W        W29001  11.560  19.210   4.021
58402W        W29002  19.452  21.537  12.674
58403W        W29003  40.135   3.263   1.760
58404W        W29004  34.580  24.779   4.125
58405W        W29005  17.704   0.295   1.871
58406W        W29006  40.750  18.515  12.990
58407W        W29007  14.718  34.017  11.656
58408W        W29008  30.019  29.367   0.245
58409W        W29009  22.588  12.133  13.262
58410W        W29010  44.324  42.194   2.670
58411W        W29011  25.151   9.457  13.940
58412W        W29012  27.108  39.586   1.641
58413W        W29013  24.001  16.115   3.195
58414W        W29014  34.378   7.346  13.898
58415W        W29015  26.177  25.094   4.712
58416W        W29016   0.788  15.403   2.763
58417W        W29017  10.417  36.148   1.687
58418W        W29018   8.174  22.771   1.763
58419W        W29019  20.578  34.437  13.016
58420W        W29020  27.904  11.248   1.517
58421W        W29021   1.037  36.712  14.055
58422W        W29022  43.796  12.580  10.655
58423W        W29023   0.047  25.420   1.302
58424W        W29024  28.422  13.356  10.670
58425W        W29025  44.815   1.697  11.502
58426W        W29026  17.051  14.897  13.181
58427W        W29027   4.804  17.696  10.619
58428W        W29028  27.188   0.284  12.473
58429W        W29029  44.782  39.750   0.815
58430W        W29030  16.257  22.143   2.260
58431W        W29031  39.056   8.769  14.475
58432W        W29032  27.918   2.554   1.756
58433W        W29033  36.722   4.411   1.299
58434W        W29034   1.698  25.144   0.850
58435W        W29035  37.036  34.244  13.382
58436W        W29036  28.259  29.594   4.697
58437W        W29037  42.216  25.686  13.010
58438W        W29038  38.371   3.038   2.204
58439W        W29039  40.581  39.263   4.121
58440W        W29040  38.826  29.783   1.025
58441W        W29041  16.618  36.028   1.150
58442W        W29042  36.845  26.616   2.352
58443W        W29043  23.362  44.737  14.068
58444W        W29044  10.177  44.312  11.687
58445W        W29045  22.006   4.172  12.593
58446W        W29046  33.014  44.404  10.921
58447W        W29047  31.053   5.762   3.196
58448W        W29048  32.903  29.851   2.272
58449W        W29049  23.020  14.666  12.652
58450W        W29050  37.662  41.858  14.006
58451W        W29051  19.282   0.251  10.760
58452W        W29052  32.126  21.577  14.399
58453W        W29053   0.356  41.944   1.696
58454W        W29054   7.272  20.677   4.074
58455W        W29055  43.985  24.057  11.047
58456W        W29056  40.507  26.101   3.212
58457W        W29057  44.939  34.914   0.991
58458W        W29058  28.485  35.266  12.083
58459W        W29059   2.273  14.695   0.872
58460W        W29060  36.430   0.379   3.324
58461W        W29061  35.168  11.181   2.624
58462W        W29062  30.016  41.688  11.298
58463W        W29063   2.516   9.102  13.074
58464W        W29064  41.416  26.740  14.031
58465W        W29065  26.912   6.550   0.337
58466W        W29066   1.883  32.465  12.078
58467W        W29067  41.561  35.801   2.123
58468W        W29068  33.973  35.807  14.007
58469W        W29069  37.017  40.338   4.622
58470W        W29070  44.097   3.473  12.485
58471W        W29071  10.274  26.420   4.852
58472W        W29072   6.747  27.023  13.480
58473W        W29073  41.575  34.455  13.358
58474W        W29074  11.893  24.309  12.690
58475W        W29075  21.114  42.415   2.522
58476W        W29076  34.363   6.313  10.990
58477W        W29077  24.222  35.692   2.167
58478W        W29078  34.603   5.547   2.847
58479W        W29079  31.010  20.166   4.013
58480W        W29080  38.914  33.309   1.919
58481W        W29081  35.633  34.047   4.499
58482W        W29082  20.486   7.357  13.977
58483W        W29083   0.330  14.270   0.376
58484W        W29084   4.664   7.961   4.267
58485W        W29085   0.068   9.124   3.674
58486W        W29086  18.038   9.809  11.144
58487W        W29087   2.698  25.903   1.335
58488W        W29088  34.548  21.180   4.604
58489W        W29089  14.294  31.572  11.678
58490W        W29090  28.914  34.949   0.285
58491W        W29091  15.665  42.459   1.394
58492W        W29092  29.533  34.807  11.023
58493W        W29093  31.123  26.488  10.168
58494W        W29094  43.035  14.353  12.656
58495W        W29095  15.143  39.225  13.369
58496W        W29096  11.428  33.398  11.037
58497W        W29097  27.144  43.752  14.791
58498W        W29098  43.496  32.987  13.427
58499W        W29099   6.429  21.064  12.125
58500W        W29100  15.255  42.047   2.947
58501W        W29101  24.426  14.094   2.408
58502W        W29102  31.084  32.645   1.193
58503W        W29103  43.309  39.930  13.591
58504W        W29104  41.904  36.086   0.895
58505W        W29105  14.180  29.165   0.299
58506W        W29106  27.678  22.107  10.391
58507W        W29107   1.831  16.787  11.566
58508W        W29108   3.163   3.450  10.718
58509W        W29109  25.023  38.601   3.219
58510W        W29110  23.561  16.400   1.714
58511W        W29111  34.186   8.666  12.468
58512W        W29112   9.257  22.185   3.341
58513W        W29113  27.197  36.439   1.284
58514W        W29114  36.508  19.734   2.427
58515W        W29115  37.485  21.974   0.185
58516W        W29116  38.473  26.556   2.682
58517W        W29117  17.115  14.578  14.131
58518W        W29118  12.529  43.905  11.136
58519W        W29119  20.102  41.352   2.305
58520W        W29120   0.340  25.416   4.047
58521W        W29121   6.133  16.864  14.990
58522W        W29122   1.735  33.858  12.112
58523W        W29123  38.340  30.114   3.464
58524W        W29124  18.761  18.040   5.053
58525W        W29125  16.904  43.265  12.554
58526W        W29126   7.902  16.868   0.332
58527W        W29127  16.207   3.223  13.426
58528W        W29128  33.035   0.492   2.620
58529W        W29129  37.070  24.654   1.136
58530W        W29130   8.466   8.138  13.887
58531W        W29131  23.818   2.193  12.066
58532W        W29132   9.314   7.693   2.315
58533W        W29133   7.267  30.730   3.633
58534W        W29134  13.836   4.340   4.078
58535W        W29135  40.957  24.977   0.210
58536W        W29136  33.404  39.015   3.165
58537W        W29137  40.752  15.384   3.706
58538W        W29138  13.811  19.469  13.795
58539W        W29139  11.359  27.917  11.679
58540W        W29140  43.271  11.493   3.739
58541W        W29141  41.359   6.910  11.575
58542W        W29142   9.777  24.267  10.854
58543W        W29143   4.150  31.937  12.564
58544W        W29144  26.148  44.771   3.812
58545W        W29145  34.804   8.180  11.582
58546W        W29146  13.615  25.086   1.277
58547W        W29147   7.436   9.346   2.432
58548W        W29148  31.775  29.139  13.257
58549W        W29149  16.582  14.746   1.403
58550W        W29150  11.306  21.524  12.586
58551W        W29151  25.322  18.733   2.271
58552W        W29152  15.061  32.162  12.989
58553W        W29153  18.211  41.876  14.931
58554W        W29154  32.157  33.724   4.203
58555W        W29155  20.266  27.612  13.028
58556W        W29156   9.359  21.302   0.875
58557W        W29157  32.701  20.095   3.339
58558W        W29158   8.902  23.643  13.509
58559W        W29159  19.682  43.263  13.564
58560W        W29160   2.406  10.413  11.020
58561W        W29161   1.286  25.938  12.004
58562W        W29162  33.405  44.468   0.836
58563W        W29163  28.477  38.999   4.893
58564W        W29164  33.061  29.421  14.809
58565W        W29165   7.266  22.569  12.091
58566W        W29166  28.113   4.344   3.392
58567W        W29167  39.690  12.654   4.068
58568W        W29168  18.625  14.304   3.656
58569W        W29169  13.133  26.721   3.053
58570W        W29170  37.692  12.363  14.822
58571W        W29171  25.305   7.677   2.978
58572W        W29172  28.840  32.889  14.004
58573W        W29173  38.963  34.978  14.276
58574W        W29174  43.941  17.281  12.616
58575W        W29175  41.978   9.592  14.441
58576W        W29176  35.640  11.274  14.386
58577W        W29177  24.251  39.884   4.494
58578W        W29178  43.371  23.911  11.007
58579W        W29179  17.722  34.470  13.110
58580W        W29180  17.977  42.014   1.860
58581W        W29181   0.443  39.018  14.315
58582W        W29182  37.923  38.572   4.665
58583W        W29183  11.785  16.530  14.479
58584W        W29184  14.437  24.788  12.961
58585W        W29185  25.791  19.134  11.649
58586W        W29186  43.426  24.789   4.989
58587W        W29187  30.083  33.858   1.680
58588W        W29188  27.252  24.289   3.637
58589W        W29189  27.550  42.795   0.535
58590W        W29190  21.092  41.110   0.855
58591W        W29191  22.999   1.189  13.862
58592W        W29192  42.330   7.496  14.148
58593W        W29193  30.843  30.503   2.181
58594W        W29194  17.381  19.711  13.499
58595W        W29195  18.854  18.190   4.555
58596W        W29196   7.130  22.101  11.044
58597W        W29197  32.471  17.263  11.926
58598W        W29198   1.940   8.359   1.127
58599W        W29199   9.479  32.459   2.424
58600W        W29200  17.784   9.316  13.554
58601W        W29201  14.417   8.678  10.907
58602W        W29202  41.268  22.577   4.148
58603W        W29203   8.881  23.921   3.765
58604W        W29204  20.073  24.528  14.389
58605W        W29205  18.729  25.257   2.103
58606W        W29206  22.164  37.022   2.710
58607W        W29207  28.992  35.590   3.679
58608W        W29208  32.573  24.487   2.931
58609W        W29209  41.850  22.740  13.739
58610W        W29210   8.615  37.075   0.950
58611W        W29211  42.861  39.457   3.572
58612W        W29212   1.372  10.776  13.702
58613W        W29213  22.274  18.270  12.958
58614W        W29214   0.830  38.602  12.448
58615W        W29215  14.574  13.108  13.931
58616W        W29216   1.304   0.685  10.992
58617W        W29217  28.381  35.022  14.349
58618W        W29218  36.074  38.471  14.501
58619W        W29219  24.268  34.462  12.603
58620W        W29220  29.675  41.960   0.226
58621W        W29221  28.088  13.420  14.059
58622W        W29222  16.336  10.799   0.308
58623W        W29223  12.368  26.661   4.109
58624W        W29224  44.807   8.203   0.760
58625W        W29225  28.754  28.575  12.353
58626W        W29226  21.108  31.164   4.991
58627W        W29227  12.111   5.660  14.206
58628W        W29228  12.324   8.918   2.202
58629W        W29229  10.729  30.507  14.226
58630W        W29230  16.054  37.646   1.473
58631W        W29231  30.319   1.163  11.230
58632W        W29232  30.066  21.770   4.176
58633W        W29233  38.572  18.361   0.738
58634W        W29234  43.828  10.263   2.002
58635W        W29235   6.829  35.340  12.020
58636W        W29236   8.321  29.111  14.581
58637W        W29237  29.492  13.495   1.699
58638W        W29238  31.797  25.786   5.082
58639W        W29239  12.717   4.059   0.278
58640W        W29240  40.254  14.175  11.071
58641W        W29241  31.938   4.841   1.926
58642W        W29242  29.298  27.606  11.065
58643W        W29243  13.697  23.126  11.988
58644W        W29244   2.939  20.240  12.846
58645W        W29245  12.714  28.273  14.301
58646W        W29246  26.907  13.668  10.762
58647W        W29247  22.199  13.741   3.147
58648W        W29248  11.694  19.772   5.092
58649W        W29249  39.196  14.966  13.472
58650W        W29250   4.795  20.743   3.753
58651W        W29251  40.041  35.397   1.470
58652W        W29252  32.742   0.216   5.125
58653W        W29253  17.064  24.065   3.357
58654W        W29254  33.324  39.154  12.699
58655W        W29255  44.761  16.082  14.511
58656W        W29256  20.695   1.257   3.365
58657W        W29257   6.267   7.456  11.488
58658W        W29258  33.031  30.350   1.426
58659W        W29259   3.367  11.121   1.726
58660W        W29260  34.991   9.202   3.103
58661W        W29261  34.947   2.789  11.356
58662W        W29262  28.628  33.084  11.407
58663W        W29263   3.015   8.716  14.548
58664W        W29264  21.146  20.563   2.401
58665W        W29265  24.057  13.296   3.356
58666W        W29266  20.685  21.699   4.280
58667W        W29267  13.701  43.030   4.149
58668W        W29268  33.666  26.200  12.429
58669W        W29269  36.556  13.157   0.452
58670W        W29270  27.266  18.554   0.298
58671W        W29271   5.176   2.358   2.369
58672W        W29272  15.231  14.571   2.303
58673W        W29273  33.477  28.103   3.282
58674W        W29274  19.487   5.844  14.288
58675W        W29275  22.527  19.649   1.179
58676W        W29276  42.751   0.440  13.970
58677W        W29277  40.474  18.475  14.716
58678W        W29278  16.602  11.729   1.700
58679W        W29279  25.926  21.802  14.433
58680W        W29280  41.884  19.877   1.398
58681W        W29281  23.498  27.384   1.913
58682W        W29282  25.111  12.826   3.894
58683W        W29283  33.554  29.369   0.627
58684W        W29284  12.839  18.196   0.937
58685W        W29285  32.426  27.197  11.972
58686W        W29286   9.214  23.307   2.521
58687W        W29287  44.240  33.920  14.334
58688W        W29288  41.744   8.125  14.290
58689W        W29289  35.345  23.517   4.068
58690W        W29290  18.050  10.899  11.413
58691W        W29291   1.775  44.757  11.015
58692W        W29292  12.300  16.424  14.443
58693W        W29293  15.771  13.067   4.188
58694W        W29294   7.879  18.852  13.413
58695W        W29295  37.574   6.685  13.931
58696W        W29296  25.724  25.044   1.066
58697W        W29297   1.146  34.874  14.725
58698W        W29298   0.225  30.033  11.098
58699W        W29299  10.183  15.331  10.016
58700W        W29300  29.361   2.778  10.541
58701W        W29301  33.071  15.602  13.659
58702W        W29302  18.024  42.470  12.334
58703W        W29303  23.808  32.352   1.496
58704W        W29304  40.384  44.554  11.605
58705W        W29305  43.791  15.540  11.452
58706W        W29306   4.811   4.685  11.366
58707W        W29307  21.999   8.762   0.905
58708W        W29308  39.574  13.547   4.094
58709W        W29309  40.062   6.797  11.137
58710W        W29310  26.289   3.071  13.314
58711W        W29311  15.829  32.521   0.456
58712W        W29312  36.526  43.812  11.172
58713W        W29313  12.730   9.997   4.965
58714W        W29314   9.322  36.843  13.905
58715W        W29315  37.624  44.993   2.163
58716W        W29316  30.002  33.562  14.052
58717W        W29317  38.064  41.491  11.124
58718W        W29318  26.601   8.759   4.949
58719W        W29319   6.383  29.783  13.073
58720W        W29320  14.298   7.662  10.657
58721W        W29321  40.488  37.516   1.112
58722W        W29322  38.854  16.570   0.413
58723W        W29323  37.907  29.162  11.963
58724W        W29324  20.673  15.153  14.398
58725W        W29325   0.837   1.973   2.688
58726W        W29326  33.624  24.005  14.872
58727W        W29327  44.938  15.782   3.682
58728W        W29328  31.566  39.183   1.344
58729W        W29329  38.067  43.478  10.700
58730W        W29330  44.319  19.074  11.026
58731W        W29331  16.894  20.732   2.192
58732W        W29332  25.601   7.619  10.690
58733W        W29333  37.888   9.818   2.341
58734W        W29334  42.975   0.193   1.228
58735W        W29335  40.452  12.357  14.922
58736W        W29336  30.386   9.977   3.215
58737W        W29337  12.689  33.035   2.659
58738W        W29338  44.324   6.800   3.312
58739W        W29339  36.588   1.315   3.248
58740W        W29340   1.526   7.362  13.455
58741W        W29341  25.870  27.458   3.243
58742W        W29342   1.625  12.246   4.599
58743W        W29343  17.719   1.233   3.311
58744W        W29344  43.018  19.483  12.476
58745W        W29345  33.063  35.320   3.731
58746W        W29346  30.449  15.042   2.681
58747W        W29347  18.448  16.769  11.500
58748W        W29348  39.345  10.357  11.660
58749W        W29349  23.073  21.143   4.640
58750W        W29350  30.181   5.776   0.069
58751W        W29351  42.276  34.585  13.987
58752W        W29352  40.497  43.955   1.838
58753W        W29353  30.712  29.964  11.170
58754W        W29354  34.086  11.269   0.408
58755W        W29355  40.313  27.179  10.649
58756W        W29356  38.519  34.927  12.980
58757W        W29357  37.803  42.107   2.765
58758W        W29358   9.196  19.675   2.202
58759W        W29359  23.294  34.185  13.908
58760W        W29360  37.942  28.532   4.154
58761W        W29361  29.104   1.754  14.347
58762W        W29362  39.479  10.742   1.002
58763W        W29363   2.689  28.109  14.361
58764W        W29364   7.772  31.330  12.009
58765W        W29365  12.090  25.374   0.597
58766W        W29366   6.808  34.566   4.717
58767W        W29367  20.556  30.581   3.593
58768W        W29368  36.373  12.989   3.605
58769W        W29369  10.182  30.665   3.114
58770W        W29370  30.715  39.830  10.758
58771W        W29371  33.093  33.533  14.745
58772W        W29372  42.251  41.834   1.747
58773W        W29373  40.257  13.747  13.712
58774W        W29374  10.619   5.614   2.747
58775W        W29375   0.298  22.792   3.100
58776W        W29376  15.628  20.515  10.647
58777W        W29377  13.608  15.541  13.104
58778W        W29378   7.354  27.254  14.299
58779W        W29379  36.504  31.232  12.122
58780W        W29380   1.219  21.155   3.831
58781W        W29381  41.884  41.623   1.284
58782W        W29382   4.110  29.102   4.957
58783W        W29383   3.949  10.614   4.620
58784W        W29384  36.882   3.721  13.818
58785W        W29385  17.970  14.387   2.363
58786W        W29386  33.146   9.921   2.690
58787W        W29387  38.484   8.418  12.788
58788W        W29388  22.170  15.811  13.427
58789W        W29389  36.262  16.232  14.811
58790W        W29390  21.831   0.992  11.037
58791W        W29391  44.040  28.894   4.081
58792W        W29392  25.086  10.705  13.336
58793W        W29393   2.515  19.953   0.816
58794W        W29394  35.918   0.008  10.894
58795W        W29395  31.560  31.771  14.851
58796W        W29396  26.889   4.270   3.870
58797W        W29397   7.769  21.511  12.606
58798W        W29398  40.975  15.683  12.140
58799W        W29399  25.193  12.991   0.891
58800W        W29400  29.246  27.569   4.655
58801W        W29401  23.969   0.751   0.779
58802W        W29402  30.112  14.228   0.371
58803W        W29403  18.473  13.784  14.633
58804W        W29404  43.722  35.846   2.769
58805W        W29405   2.809  40.316   2.088
58806W        W29406  17.006   5.177   3.682
58807W        W29407   9.166   5.370   1.807
58808W        W29408  23.164   5.721   4.120
58809W        W29409  33.607  36.544   1.453
58810W        W29410   2.757  28.941  11.117
58811W        W29411  23.774  33.626   2.273
58812W        W29412   7.234  23.254   3.323
58813W        W29413  15.121  22.813   3.292
58814W        W29414  22.625  32.225  14.928
58815W        W29415  21.743   6.086   0.140
58816W        W29416  31.334  39.996  13.547
58817W        W29417  35.904  37.288  14.995
58818W        W29418  37.093   9.165   3.680
58819W        W29419  36.916  19.346  11.110
58820W        W29420  44.457   8.840   2.492
58821W        W29421  32.874  16.740  14.722
58822W        W29422  30.874  19.657   4.058
58823W        W29423   2.600  19.363   1.432
58824W        W29424  32.040  15.209  12.456
58825W        W29425  11.371  13.695  12.928
58826W        W29426  37.397   5.499   2.207
58827W        W29427  10.172  44.007  12.353
58828W        W29428  24.954  15.673   4.607
58829W        W29429  24.197  23.395  12.707
58830W        W29430  43.892   4.360   4.259
58831W        W29431  43.778  34.459  14.997
58832W        W29432  22.555   6.356  13.764
58833W        W29433  42.433  15.782  13.006
58834W        W29434  41.831   3.715  10.811
58835W        W29435  26.730  43.920   2.743
58836W        W29436  32.864  25.005   4.030
58837W        W29437  12.925  43.052   0.440
58838W        W29438  26.351   8.865  12.998
58839W        W29439  20.439  12.619   2.616
58840W        W29440   8.264  43.489   4.363
58841W        W29441  38.954  16.806   4.101
58842W        W29442  31.054   3.933   1.873
58843W        W29443  19.691   5.147   3.229
58844W        W29444  32.505  12.662  12.137
58845W        W29445  17.584   8.403   1.764
58846W        W29446  25.083  31.660  11.580
58847W        W29447   6.391   1.936  14.686
58848W        W29448  13.136  33.008   0.869
58849W        W29449  33.319  34.788  10.931
58850W        W29450  19.052  28.359  14.466
58851W        W29451   6.246  30.672   1.161
58852W        W29452  17.975  23.652   1.184
58853W        W29453  35.101  40.189   3.678
58854W        W29454  26.638  29.588  13.370
58855W        W29455  43.674  35.642  14.334
58856W        W29456  40.528  39.504   1.798
58857W        W29457  17.589  13.242   3.170
58858W        W29458   4.200  42.886   0.276
58859W        W29459  43.879  39.238   1.022
58860W        W29460   7.686  33.890   0.261
58861W        W29461   9.265  21.976   4.657
58862W        W29462  19.948  38.579  12.531
58863W        W29463  26.758  43.584   3.622
58864W        W29464  28.346  17.969   1.951
58865W        W29465  27.057  39.042  12.060
58866W        W29466  26.252  19.659  13.327
58867W        W29467  17.264   9.571  11.964
58868W        W29468  27.652  19.311  13.824
58869W        W29469  39.917  23.228  10.779
58870W        W29470  21.665   7.350  11.723
58871W        W29471  43.961  41.006   2.414
58872W        W29472  25.973  34.497   2.659
58873W        W29473  25.558   1.580   4.146
58874W        W29474  40.967  37.339   2.853
58875W        W29475  20.013  30.844  14.940
58876W        W29476  17.010  42.346   3.581
58877W        W29477  15.220   9.486  13.187
58878W        W29478   6.421   3.463  13.280
58879W        W29479  15.861  41.944  11.601
58880W        W29480  37.106  32.397  13.363
58881W        W29481  35.238  34.627   4.586
58882W        W29482  39.151   6.274  14.296
58883W        W29483   8.965  13.075  13.480
58884W        W29484  34.026  13.724   4.052
58885W        W29485  11.613   3.703  13.360
58886W        W29486  43.905  38.796  10.629
58887W        W29487  19.092  33.127  13.573
58888W        W29488   0.501  28.101   2.491
58889W        W29489  20.110  23.205   3.141
58890W        W29490  30.511  44.759  12.143
58891W        W29491  41.099  24.948  13.815
58892W        W29492  42.831  37.071   2.814
58893W        W29493   9.273   4.720  10.138
58894W        W29494  26.883  16.314  11.989
58895W        W29495   1.419   6.590   2.341
58896W        W29496  13.156  21.916   2.762
58897W        W29497  33.380  40.686  11.435
58898W        W29498   9.265  22.794   2.329
58899W        W29499  10.460  27.783  13.062
58900W        W29500  28.602  33.939   4.214
58901W        W29501  41.463  31.898  12.555
58902W        W29502  37.413   1.672   0.326
58903W        W29503  35.306   9.312  12.443
58904W        W29504  25.527  38.828  13.083
58905W        W29505  31.963  12.030  11.569
58906W        W29506  19.778  15.435  13.942
58907W        W29507  16.364  36.269   2.173
58908W        W29508   2.643  37.461   4.059
58909W        W29509  11.811  12.752  13.950
58910W        W29510   8.150  44.119   9.973
58911W        W29511  12.092  33.711  11.762
58912W        W29512  40.507   6.007  13.509
58913W        W29513  23.977  11.634  13.083
58914W        W29514  44.579   6.286  12.984
58915W        W29515  33.042  18.369  14.363
58916W        W29516  43.357   7.265  12.157
58917W        W29517  35.920  21.711   1.899
58918W        W29518  32.963  33.575   2.764
58919W        W29519  14.135  12.811   4.579
58920W        W29520   3.394  26.780  10.847
58921W        W29521  40.486  39.107  13.543
58922W        W29522  21.163  15.804  11.549
58923W        W29523  26.179  14.323   0.305
58924W        W29524  34.304  42.869   2.218
58925W        W29525  32.769  43.863  12.684
58926W        W29526  40.348  39.910  10.802
58927W        W29527   5.732  25.465  13.422
58928W        W29528  32.619   4.162   2.241
58929W        W29529   4.735  44.842   0.186
58930W        W29530  13.718  44.275  11.909
58931W        W29531  25.506   0.823  10.909
58932W        W29532   5.129  11.202  14.055
58933W        W29533   3.921  41.495   3.066
58934W        W29534  38.648  16.314  12.098
58935W        W29535  17.700   0.847   1.133
58936W        W29536  23.647   8.315  11.489
58937W        W29537   0.140   8.458   1.809
58938W        W29538  15.707   9.736   4.499
58939W        W29539  14.094  32.557  11.504
58940W        W29540  17.640  30.860   4.533
58941W        W29541   9.346  19.014  13.941
58942W        W29542  22.738  21.720   3.706
58943W        W29543   9.089  32.128   5.354
58944W        W29544   8.457  14.320  14.043
58945W        W29545  18.910  35.631   2.186
58946W        W29546  19.991  18.072   1.319
58947W        W29547  37.098  10.445  11.093
58948W        W29548  25.600   6.179  12.399
58949W        W29549   9.401  33.710   1.841
58950W        W29550  39.823  43.472   4.260
58951W        W29551   5.077  36.203  13.351
58952W        W29552   4.797  31.864   0.986
58953W        W29553  24.772  18.650  14.506
58954W        W29554  20.717   9.401   2.714
58955W        W29555   7.235  36.128  11.906
58956W        W29556  37.417  17.250   2.193
58957W        W29557   1.986  37.991  14.718
58958W        W29558   7.545  25.685   4.332
58959W        W29559  20.968  28.074   2.278
58960W        W29560  21.775  19.907   0.726
58961W        W29561  10.820  22.696   9.692
58962W        W29562  30.667  20.590  11.922
58963W        W29563  26.387   2.394   2.714
58964W        W29564   6.280  44.316   4.037
58965W        W29565  32.785   3.234   2.753
58966W        W29566  19.639  18.272  11.163
58967W        W29567   7.929   6.231   0.772
58968W        W29568  12.272   0.341  14.466
58969W        W29569  37.502   2.179   1.759
58970W        W29570  35.612  25.807  13.363
58971W        W29571   1.714  24.054   3.094
58972W        W29572  19.838   9.341  14.484
58973W        W29573   3.160  41.034   2.253
58974W        W29574  37.017  11.945  13.372
58975W        W29575  21.618  16.714   1.322
58976W        W29576  24.539  35.057   3.723
58977W        W29577  34.997   0.656  13.421
58978W        W29578  17.678  24.995  11.808
58979W        W29579  28.922  43.960  11.259
58980W        W29580  31.103  23.043   4.085
58981W        W29581  20.518  33.448  14.924
58982W        W29582  11.621  35.946  12.039
58983W        W29583  35.416  34.165   1.881
58984W        W29584  15.801  19.998   1.191
58985W        W29585   5.703  13.204   0.999
58986W        W29586  30.042  39.757  12.733
58987W        W29587  36.178  20.651   3.839
58988W        W29588  36.439  20.422  10.609
58989W        W29589   9.367  20.296   0.996
58990W        W29590  24.994   0.824  10.743
58991W        W29591   9.588   5.933  13.972
58992W        W29592  20.202   9.452   3.267
58993W        W29593  20.437   9.486  11.131
58994W        W29594  15.617  17.663  12.588
58995W        W29595   4.134  27.526  14.402
58996W        W29596  11.325  40.980   2.665
58997W        W29597  31.682  22.203  11.122
58998W        W29598  24.366  14.416  10.608
58999W        W29599  17.152  23.495  14.003
59000W        W29600  37.287  21.623  14.356
59001W        W29601  30.553  18.216  12.418
59002W        W29602  38.004  32.297   1.921
59003W        W29603  23.749  21.701   1.817
59004W        W29604   5.187  33.422   0.957
59005W        W29605   5.856  38.464  13.318
59006W        W29606   4.301   3.917   2.766
59007W        W29607   1.136  11.837  12.328
59008W        W29608  10.377  16.859  14.348
59009W        W29609  31.440   0.573  10.774
59010W        W29610  44.583  23.858   0.315
59011W        W29611  25.603  24.678  12.543
59012W        W29612  11.742  28.951   1.391
59013W        W29613  36.058  16.720  14.749
59014W        W29614  41.408  38.431   3.245
59015W        W29615  17.688  11.189  14.246
59016W        W29616   1.685   7.452  12.168
59017W        W29617  17.103  42.484   2.253
59018W        W29618  23.481  43.721   2.015
59019W        W29619  32.937  30.655   1.031
59020W        W29620  27.605  23.169   4.611
59021W        W29621  21.398   7.699   1.551
59022W        W29622  23.116  25.815  12.062
59023W        W29623   4.345  38.001   0.230
59024W        W29624  15.591  44.371   0.158
59025W        W29625  38.736  29.106  12.551
59026W        W29626   0.873  39.419   3.225
59027W        W29627  18.125  19.646   1.011
59028W        W29628  20.171  34.136  13.067
59029W        W29629  33.155   6.420   4.327
59030W        W29630   2.269   4.127   2.300
59031W        W29631  39.977  28.105   3.052
59032W        W29632   0.409  22.491  10.983
59033W        W29633  17.866   1.178  12.177
59034W        W29634  38.426  34.607   3.464
59035W        W29635  19.614  11.289   2.582
59036W        W29636  26.178   1.989   3.681
59037W        W29637  18.949   0.837  13.508
59038W        W29638  36.293  13.162   4.931
59039W        W29639   7.816  29.084  14.658
59040W        W29640  41.442  17.434   4.053
59041W        W29641   2.443  29.711   2.240
59042W        W29642  37.372  22.477  13.473
59043W        W29643   0.967   6.845   2.256
59044W        W29644  29.732  29.707   0.558
59045W        W29645  29.169  43.522  12.202
59046W        W29646   4.929   1.552  14.283
59047W        W29647  22.715  44.083   0.413
59048W        W29648  24.642  20.855   0.352
59049W        W29649  43.780  10.971   3.670
59050W        W29650  35.412   1.571  14.257
59051W        W29651  13.155  40.494  14.995
59052W        W29652   0.370  15.118  11.190
59053W        W29653  32.058  24.603   2.886
59054W        W29654  37.022  23.181  11.149
59055W        W29655  31.977  20.758  14.883
59056W        W29656   1.997   1.943  12.482
59057W        W29657  28.592  25.559  14.254
59058W        W29658   1.339  29.647   2.256
59059W        W29659  13.063  16.914   3.313
59060W        W29660  27.358  11.806  11.494
59061W        W29661  16.189  16.865   1.108
59062W        W29662  14.738  38.017   0.499
59063W        W29663  39.510   2.822  12.613
59064W        W29664  26.948  41.315  10.802
59065W        W29665  42.842  33.880  12.148
59066W        W29666  12.414  30.601  13.416
59067W        W29667  21.030  21.987  12.392
59068W        W29668  44.176  33.836   2.159
59069W        W29669  35.894  19.335  13.603
59070W        W29670  34.855   9.255  13.159
59071W        W29671  19.634  36.436   2.610
59072W        W29672  15.386   7.653   0.447
59073W        W29673  18.264  28.591   5.087
59074W        W29674  20.392  20.030   3.840
59075W        W29675  12.550   6.045  12.868
59076W        W29676  32.892   4.430   2.946
59077W        W29677   4.744   0.356  13.053
59078W        W29678  12.196  42.572  14.119
59079W        W29679  21.566  31.297  14.775
59080W        W29680  44.583   4.676  10.501
59081W        W29681   1.376  44.033  11.515
59082W        W29682  17.069  16.769   3.079
59083W        W29683  42.760  40.950   1.927
59084W        W29684  29.385  25.582   3.807
59085W        W29685   6.285   3.489   3.588
59086W        W29686   6.406   8.109   3.787
59087W        W29687  39.819  32.059   1.154
59088W        W29688  36.407  16.256   0.305
59089W        W29689  37.070   6.516   2.641
59090W        W29690  17.625  28.574  12.318
59091W        W29691   0.008  20.158  11.492
59092W        W29692  12.894  12.689  14.500
59093W        W29693  42.573  11.773  11.201
59094W        W29694  30.657  38.428   1.398
59095W        W29695  31.037  24.525   4.569
59096W        W29696  23.514  40.415  14.841
59097W        W29697   2.915  30.685  14.000
59098W        W29698   6.902  14.944  11.050
59099W        W29699  33.386  10.426  11.564
59100W        W29700  17.792  11.703  12.892
59101W        W29701  32.410   4.287  12.032
59102W        W29702  18.463  43.737   2.175
59103W        W29703  24.971  31.048  10.748
59104W        W29704  21.884  43.518   1.334
59105W        W29705  34.864   3.471  13.199
59106W        W29706   2.495   7.372   4.187
59107W        W29707  39.057  22.077   0.661
59108W        W29708  32.959  44.715   4.958
59109W        W29709  10.711   2.653  10.850
59110W        W29710  30.053  35.480  11.109
59111W        W29711  32.444  34.814  12.111
59112W        W29712  44.256  33.576  14.774
59113W        W29713  16.698  41.858  12.479
59114W        W29714   5.675   9.332  13.415
59115W        W29715  36.899  35.600  12.949
59116W        W29716  14.430   6.510   5.089
59117W        W29717   6.621   9.389   4.170
59118W        W29718  29.561  28.127  14.812
59119W        W29719  23.157  10.776   2.320
59120W        W29720   5.648   5.857   0.902
59121W        W29721   7.364  12.235  10.556
59122W        W29722  18.680   8.238  11.756
59123W        W29723  26.927  22.496   1.192
59124W        W29724   7.658  13.820   0.250
59125W        W29725  39.176  25.309   0.249
59126W        W29726  21.562   0.521   1.143
59127W        W29727  28.565  11.193   3.614
59128W        W29728   6.902  23.141   2.960
59129W        W29729  25.680  40.850   0.872
59130W        W29730   1.892  20.717  11.017
59131W        W29731   6.172  23.676  11.654
59132W        W29732  37.149  27.716  11.625
59133W        W29733  42.919  14.147  10.612
59134W        W29734  19.316  42.344  12.396
59135W        W29735   6.019  22.949  11.973
59136W        W29736   1.611  41.773   3.283
59137W        W29737   8.364   8.105  11.356
59138W        W29738  22.712  21.994   3.196
59139W        W29739  13.110   8.391   0.775
59140W        W29740   9.252   4.681  12.618
59141W        W29741  29.963  18.609   0.322
59142W        W29742  30.191  21.084   3.871
59143W        W29743   9.677  42.763   1.192
59144W        W29744  24.930  14.669  13.368
59145W        W29745   0.754  38.895  12.945
59146W        W29746   5.903  44.470  10.536
59147W        W29747   1.478  29.209   4.075
59148W        W29748  27.619  33.736   1.905
59149W        W29749  21.696  37.053  14.934
59150W        W29750  33.056  34.526   1.401
59151W        W29751  32.165  28.459   4.632
59152W        W29752  11.681  10.892  11.630
59153W        W29753  41.547  21.683   4.747
59154W        W29754  44.289  28.012   1.163
59155W        W29755  23.506   7.153   4.039
59156W        W29756   7.397  34.390  14.671
59157W        W29757  43.315   4.115  13.436
59158W        W29758  25.628  15.299   0.725
59159W        W29759  15.803  37.146  12.128
59160W        W29760   2.528   9.931  14.949
59161W        W29761  12.828   5.042   1.206
59162W        W29762  14.285  29.743   1.854
59163W        W29763  38.456   9.284   1.842
59164W        W29764  22.050  41.983  14.487
59165W        W29765  32.359  14.000   1.280
59166W        W29766  41.128  17.335  14.395
59167W        W29767  26.275   8.353  12.489
59168W        W29768  25.021  33.400   3.043
59169W        W29769  27.630   8.147  12.835
59170W        W29770  17.881  11.248   0.270
59171W        W29771  26.838  28.984  14.780
59172W        W29772  33.724  12.953   3.702
59173W        W29773  10.127   7.305   5.065
59174W        W29774  12.222   6.157  12.475
59175W        W29775  12.587   5.233  14.885
59176W        W29776   4.292   0.910  12.372
59177W        W29777  20.583  30.283   0.808
59178W        W29778   2.044   3.163   4.625
59179W        W29779   2.300  31.256  12.445
59180W        W29780  11.606  22.438  11.602
59181W        W29781  31.920  43.090  14.478
59182W        W29782   8.951  40.291  12.388
59183W        W29783   5.385  35.675   0.375
59184W        W29784   5.944  10.195   3.597
59185W        W29785   3.186  12.725   3.360
59186W        W29786  12.328  11.042  12.040
59187W        W29787  37.587  20.605  12.459
59188W        W29788  18.050  43.474   3.900
59189W        W29789  28.155  28.025   3.247
59190W        W29790   4.154  28.041   3.329
59191W        W29791  14.508  17.847   1.420
59192W        W29792   5.474   2.345  11.986
59193W        W29793   7.319  28.207   0.477
59194W        W29794  38.924   9.878   2.344
59195W        W29795   1.781   6.298   2.117
59196W        W29796  31.704   4.269  10.652
59197W        W29797  32.993  34.451  12.984
59198W        W29798  26.198  41.886  11.953
59199W        W29799  35.064  15.798   0.704
59200W        W29800   6.145  10.361   1.851
59201W        W29801   8.805  23.672  14.012
59202W        W29802  28.149  28.375  14.323
59203W        W29803   2.595  35.127   3.214
59204W        W29804  41.317  41.497   1.297
59205W        W29805  31.015  37.541   1.628
59206W        W29806  28.201  27.895   4.223
59207W        W29807  38.609  13.855  13.081
59208W        W29808  39.635  10.743  10.487
59209W        W29809  37.388  21.035  11.237
59210W        W29810  27.219  10.368  12.484
59211W        W29811  22.045  22.512   2.869
59212W        W29812  37.751  27.379   3.305
59213W        W29813  37.841   4.087  11.165
59214W        W29814   5.606  39.434   4.350
59215W        W29815  35.650  14.804  13.359
59216W        W29816  22.335   5.231  14.776
59217W        W29817  25.448  22.019  14.459
59218W        W29818  13.860  37.067  13.592
59219W        W29819  18.537   0.300  14.109
59220W        W29820   8.843   5.768   0.703
59221W        W29821  37.307  18.700   1.439
59222W        W29822  44.253   0.460  14.593
59223W        W29823  31.883   1.943  13.616
59224W        W29824  38.283   8.684   0.500
59225W        W29825  25.290  17.092   1.696
59226W        W29826  16.373  33.384  10.515
59227W        W29827  13.212  15.080  13.540
59228W        W29828  28.342   6.027   4.546
59229W        W29829  22.203  35.093  10.626
59230W        W29830  35.796  43.235   3.185
59231W        W29831  18.634  39.434  11.561
59232W        W29832  42.681   6.272  10.734
59233W        W29833   1.784  38.021   2.619
59234W        W29834  33.286  34.364  12.227
59235W        W29835  25.847   2.139  11.076
59236W        W29836  39.512  44.794   3.682
59237W        W29837  11.573   7.655   2.390
59238W        W29838  28.699   6.123  13.292
59239W        W29839  40.979  38.089   2.320
59240W        W29840   9.266  32.683   4.943
59241W        W29841   1.871   6.843  12.875
59242W        W29842  36.587  43.423   4.176
59243W        W29843   9.703   8.145   3.652
59244W        W29844   3.225  13.296   1.278
59245W        W29845  40.921  17.618   4.126
59246W        W29846  39.957  37.495  11.124
59247W        W29847  40.911  35.639   4.085
59248W        W29848   0.881  32.539  12.536
59249W        W29849  44.864  34.505  12.948
59250W        W29850  41.304   5.708   0.416
59251W        W29851  32.671  41.351   0.643
59252W        W29852  30.070  36.231  11.740
59253W        W29853  41.781   9.959  14.778
59254W        W29854   6.286  37.891   4.606
59255W        W29855  11.596   4.911   5.183
59256W        W29856  40.798   0.456   3.179
59257W        W29857   1.561  41.848  14.269
59258W        W29858  17.257  37.043   2.448
59259W        W29859   5.419  22.015   3.934
59260W        W29860  20.638  34.481   3.225
59261W        W29861  24.726  10.345   3.761
59262W        W29862  14.365  11.627   2.934
59263W        W29863  41.048   1.696  13.893
59264W        W29864  15.586  26.205  10.757
59265W        W29865  17.639  35.619  13.499
59266W        W29866  40.148  44.049   4.647
59267W        W29867  22.524  42.849  13.413
59268W        W29868  38.040  15.291   1.759
59269W        W29869  22.152   6.195  13.468
59270W        W29870   0.895  36.156   1.880
59271W        W29871  43.129   3.689  11.190
59272W        W29872   2.058  44.568   1.351
59273W        W29873  42.246  43.800  12.675
59274W        W29874  32.351  18.183  14.555
59275W        W29875  30.899   2.255  12.088
59276W        W29876  14.921  33.587  14.440
59277W        W29877  30.027  18.862  14.447
59278W        W29878   6.374  22.833   5.030
59279W        W29879  15.665  11.146  13.432
59280W        W29880  21.984  38.557   0.973
59281W        W29881  31.601  10.311   3.167
59282W        W29882  39.287  16.123   2.635
59283W        W29883  41.301  34.396  14.306
59284W        W29884   2.566  41.687  11.944
59285W        W29885   2.765  43.528   0.490
59286W        W29886  40.279  27.115   2.250
59287W        W29887  41.992   9.259   2.464
59288W        W29888  24.567  20.856  12.333
59289W        W29889  28.785  44.529  13.515
59290W        W29890  11.852  37.485  12.981
59291W        W29891  35.036  38.425   3.198
59292W        W29892  42.242   0.905  12.322
59293W        W29893  43.284   3.781   1.329
59294W        W29894   2.224  34.483   0.164
59295W        W29895   5.864  23.815   2.557
59296W        W29896  15.278   2.841  14.426
59297W        W29897  42.364  19.308  14.028
59298W        W29898  34.585  23.290   3.157
59299W        W29899  14.082   7.243   1.836
59300W        W29900   2.349  13.630  12.047
59301W        W29901  38.771  16.481   3.574
59302W        W29902  43.030  21.832   1.210
59303W        W29903  17.049   8.011   3.214
59304W        W29904   8.976  30.097   0.280
59305W        W29905  14.385  30.174  12.012
59306W        W29906  38.352  13.821   0.587
59307W        W29907  20.191  17.644  11.153
59308W        W29908   6.499   7.572  14.865
59309W        W29909  37.793   7.227   9.775
59310W        W29910  37.578  32.987  13.894
59311W        W29911  19.162  22.331   4.684
59312W        W29912  21.658   6.971   4.731
59313W        W29913   0.330  42.073  11.151
59314W        W29914   6.229  35.756  11.719
59315W        W29915  31.735  34.924  12.508
59316W        W29916   0.288   8.925   1.974
59317W        W29917   9.294  13.790   2.219
59318W        W29918   7.725  41.492  13.365
59319W        W29919  43.551  11.662  11.393
59320W        W29920  11.226  30.034  11.493
59321W        W29921  11.336  31.324   3.752
59322W        W29922  39.945  38.835   3.140
59323W        W29923  11.540  35.185   0.821
59324W        W29924  27.263  14.345  11.042
59325W        W29925  38.755  12.815  13.765
59326W        W29926   6.945  28.437   2.733
59327W        W29927  21.724  27.410   2.194
59328W        W29928   8.206  11.582   2.386
59329W        W29929  25.242  42.308   3.476
59330W        W29930  21.283   0.007  14.921
59331W        W29931   8.053  21.241  12.045
59332W        W29932  29.234  19.869  14.428
59333W        W29933   6.352  21.925   4.538
59334W        W29934  14.624  26.460  14.478
59335W        W29935  25.705  42.492   3.659
59336W        W29936   9.945  44.153   5.007
59337W        W29937  15.116  24.158   3.191
59338W        W29938  15.296   0.368   3.634
59339W        W29939  34.115   6.425   1.833
59340W        W29940   6.312   6.431   1.741
59341W        W29941   0.818  27.637  10.604
59342W        W29942  32.101  29.912  12.853
59343W        W29943  10.751  21.117  10.591
59344W        W29944  12.298  40.091   1.165
59345W        W29945  27.761  22.627  13.120
59346W        W29946  39.999  40.247  10.646
59347W        W29947  11.633  25.145   0.436
59348W        W29948  24.592   9.483   0.978
59349W        W29949  18.912  10.897  13.113
59350W        W29950  43.930   7.809   0.018
59351W        W29951  34.965  30.626   2.583
59352W        W29952  15.271  15.557  14.820
59353W        W29953   9.228  35.678   5.034
59354W        W29954  12.208  36.921   0.496
59355W        W29955  23.966  14.416  12.084
59356W        W29956  29.183   2.941   3.688
59357W        W29957  36.630  34.472  14.477
59358W        W29958  23.816   8.831  13.410
59359W        W29959   7.315  25.551  11.571
59360W        W29960  34.591  10.793   1.914
59361W        W29961  38.654  21.237  11.484
59362W        W29962  23.593  15.147   2.360
59363W        W29963  25.765  14.945  11.181
59364W        W29964  13.875  24.157  10.416
59365W        W29965  22.906   3.321   2.420
59366W        W29966  30.301  35.018   1.726
59367W        W29967  12.900   5.632  12.089
59368W        W29968  38.293  42.948   2.423
59369W        W29969  33.992  44.759  14.077
59370W        W29970   4.755  28.291  10.658
59371W        W29971  13.434  38.288   4.150
59372W        W29972  37.988  36.200   0.893
59373W        W29973  10.884  37.576   2.281
59374W        W29974   2.482  27.607  11.256
59375W        W29975  18.896   4.715  11.037
59376W        W29976  20.266  25.570   1.240
59377W        W29977  26.577  32.070  13.198
59378W        W29978  32.978  33.871   2.143
59379W        W29979  12.365  32.129   4.094
59380W        W29980  15.540   1.331   4.493
59381W        W29981  27.775  36.666   2.112
59382W        W29982  38.921   9.397   1.126
59383W        W29983  24.519  25.551   3.632
59384W        W29984  39.518  35.835   4.477
59385W        W29985  33.535  41.172  13.934
59386W        W29986  25.752   6.925  11.999
59387W        W29987  20.550  13.852  10.846
59388W        W29988  28.475  26.502  10.646
59389W        W29989  36.448   6.497   1.425
59390W        W29990  16.895  16.504   1.390
59391W        W29991  10.350  33.328   2.703
59392W        W29992   1.232  32.032   4.121
59393W        W29993  19.192  28.359  13.915
59394W        W29994  24.619  23.655   4.173
59395W        W29995   0.405  13.094   0.270
59396W        W29996   3.143  12.980   5.109
59397W        W29997   2.333   5.483  12.449
59398W        W29998  11.100  27.992   3.782
59399W        W29999  44.557  41.041   3.113
59400W        W30000  24.620  15.056  12.099
59401W        W30001   2.548   1.855  10.238
59402W        W30002  21.095  36.780  13.088
59403W        W30003  36.293  29.155   1.895
59404W        W30004   0.720  15.142   2.294
59405W        W30005  10.787  38.599  13.240
59406W        W30006  38.845  22.487   4.002
59407W        W30007   4.636  26.705   1.177
59408W        W30008  36.622  44.778   2.202
59409W        W30009  32.238   0.320   2.006
59410W        W30010   6.089  28.997   3.822
59411W        W30011  22.007  28.365   3.374
59412W        W30012  32.511  23.679   0.814
59413W        W30013   1.296   9.060  10.615
59414W        W30014  14.258   7.923   2.630
59415W        W30015  24.613  13.862  14.297
59416W        W30016  24.533  24.225  14.712
59417W        W30017   3.228   1.377   3.581
59418W        W30018  10.272  15.973   3.355
59419W        W30019  35.989  28.815  10.796
59420W        W30020  38.089  25.088  11.554
59421W        W30021   3.481  14.848  13.070
59422W        W30022  17.340  13.119   4.187
59423W        W30023  17.776   8.908  13.971
59424W        W30024   8.710  38.797  13.371
59425W        W30025  40.580  33.352   1.727
59426W        W30026   2.471  15.558   4.503
59427W        W30027  34.007  32.042   0.535
59428W        W30028  28.674  32.196   1.165
59429W        W30029   6.213  24.329   2.219
59430W        W30030  23.897  27.914  13.962
59431W        W30031  12.056   6.973  10.486
59432W        W30032  35.151  28.673   1.746
59433W        W30033  13.350  28.326   4.937
59434W        W30034  11.269   3.930   2.325
59435W        W30035  16.934  10.057  11.107
59436W        W30036   6.181  21.642   0.467
59437W        W30037  40.205  28.108   4.977
59438W        W30038  21.947   8.895  13.585
59439W        W30039  23.453  15.196  10.616
59440W        W30040  23.544  26.254   2.404
59441W        W30041  11.340  22.137   2.289
59442W        W30042  23.741  40.631   3.059
59443W        W30043  19.527  22.135   0.784
59444W        W30044  29.922   1.202  12.554
59445W        W30045  35.780  18.676   2.230
59446W        W30046  29.034  27.712  10.638
59447W        W30047  40.328  24.521   4.394
59448W        W30048  35.874  37.802  14.878
59449W        W30049   4.303  17.063   2.958
59450W        W30050  30.325  42.734   2.462
59451W        W30051  28.469  33.982   3.261
59452W        W30052  33.998  15.579   2.812
59453W        W30053  17.637  34.302  11.697
59454W        W30054   3.750   5.809   2.311
59455W        W30055  11.643   5.424  11.550
59456W        W30056  32.875  12.407   2.798
59457W        W30057  14.281  23.730   2.335
59458W        W30058  17.378  25.402   2.725
59459W        W30059  13.714   2.510   4.213
59460W        W30060  34.962   8.163   4.197
59461W        W30061   8.270   8.632  14.981
59462W        W30062  34.770  13.161  12.746
59463W        W30063  36.817  38.794  12.617
59464W        W30064  23.677  12.468   2.728
59465W        W30065  32.260  39.247  11.043
59466W        W30066  40.284   0.346  14.380
59467W        W30067  35.477  41.039  10.649
59468W        W30068  25.066   2.013   2.632
59469W        W30069  44.157  15.141   2.253
59470W        W30070   9.609  23.133  13.821
59471W        W30071  13.079  44.758   2.607
59472W        W30072   6.952  12.837   4.580
59473W        W30073  32.587  22.414   0.310
59474W        W30074   4.337  17.310  14.894
59475W        W30075   7.303  17.077  12.833
59476W        W30076   1.001  39.003   1.272
59477W        W30077  13.815  27.998  14.940
59478W        W30078  31.714  33.382   0.316
59479W        W30079  38.899  38.149  14.691
59480W        W30080  18.099  33.414   1.248
59481W        W30081  24.465   3.344   4.149
59482W        W30082   7.651  42.400  10.728
59483W        W30083  26.275  25.150  12.496
59484W        W30084  33.440  42.926   0.338
59485W        W30085  42.092  23.713  11.535
59486W        W30086   1.949   8.881  11.621
59487W        W30087  16.189  22.372  14.469
59488W        W30088  21.572  36.464  13.115
59489W        W30089   0.367   7.348   0.410
59490W        W30090  20.999  20.043  14.737
59491W        W30091  43.817  27.396   3.242
59492W        W30092  38.622  19.275   0.596
59493W        W30093  16.323  39.079  11.417
59494W        W30094  23.886  19.714   1.815
59495W        W30095  36.258   5.806   4.364
59496W        W30096  15.577  10.283   1.426
59497W        W30097   1.658  20.671  13.810
59498W        W30098   9.817   2.238  10.472
59499W        W30099   1.951   2.949   2.714
59500W        W30100   7.805  25.574  12.526
59501W        W30101  35.073  23.116  14.506
59502W        W30102  19.360  40.429  12.353
59503W        W30103  11.863   3.709  12.452
59504W        W30104  15.525  31.961   4.703
59505W        W30105  31.900  39.419   1.680
59506W        W30106  41.720  20.426  14.347
59507W        W30107   6.831  12.613  12.616
59508W        W30108  32.086  22.787  12.858
59509W        W30109  38.641  43.936   3.669
59510W        W30110  21.216  40.864   1.740
59511W        W30111  21.510  22.243   3.702
59512W        W30112  24.980   2.225   1.163
59513W        W30113  16.618  26.160   2.188
59514W        W30114  42.974  27.657   3.766
59515W        W30115  26.229  14.879  10.897
59516W        W30116  38.375  21.252   1.434
59517W        W30117  37.126   2.769  11.843
59518W        W30118  40.039   2.849   4.192
59519W        W30119  27.426  36.925  14.331
59520W        W30120  11.917  12.091  10.676
59521W        W30121  21.734  32.857   1.822
59522W        W30122  43.163   2.421   0.405
59523W        W30123  27.191  40.638  11.945
59524W        W30124   8.950  34.229   2.441
59525W        W30125  16.828   6.983   4.008
59526W        W30126  43.778  34.159   2.268
59527W        W30127  12.792  20.415  11.580
59528W        W30128  36.447  37.460  10.193
59529W        W30129  25.061  17.179   3.090
59530W        W30130  32.679   5.900  12.444
59531W        W30131  31.596  16.164  12.130
59532W        W30132  29.102  18.034  14.083
59533W        W30133  14.220   0.533   2.909
59534W        W30134  43.068  10.845   4.507
59535W        W30135  38.449  32.830  12.862
59536W        W30136  13.702  23.271  14.725
59537W        W30137   1.696  41.655  13.824
59538W        W30138   7.465   3.660   0.127
59539W        W30139  30.961  10.782  14.088
59540W        W30140  29.245  22.773   2.583
59541W        W30141   5.558  13.533   1.377
59542W        W30142   9.385  10.198  10.079
59543W        W30143   1.605   6.611  14.815
59544W        W30144  26.092  43.736   2.226
59545W        W30145   6.185  25.212   4.193
59546W        W30146  31.608  39.966   2.804
59547W        W30147   8.434  37.554  10.425
59548W        W30148   5.835  43.490   1.664
59549W        W30149   1.479   0.422  14.535
59550W        W30150  35.419  23.515  10.629
59551W        W30151  18.871   5.787  12.447
59552W        W30152  42.937  44.508   4.997
59553W        W30153   4.194   0.787   2.371
59554W        W30154  34.557  10.839  12.613
59555W        W30155  24.125  24.512  14.877
59556W        W30156   2.939   4.311  11.095
59557W        W30157   2.921  20.712   1.844
59558W        W30158   0.267  39.032  12.824
59559W        W30159   6.156   1.324   2.922
59560W        W30160  40.381  12.105   3.880
59561W        W30161  20.396  41.336   4.576
59562W        W30162  27.457   1.808   2.373
59563W        W30163  20.805  44.399  11.113
59564W        W30164   1.903  31.845   0.867
59565W        W30165  19.239  30.110  11.036
59566W        W30166  21.491  38.464  13.437
59567W        W30167   5.285  15.705   0.788
59568W        W30168  20.639   8.677   2.206
59569W        W30169  13.125  31.685   1.424
59570W        W30170   4.340  20.496  11.101
59571W        W30171  42.079  42.620   4.718
59572W        W30172  29.590  31.626   2.989
59573W        W30173  40.123  12.215  11.600
59574W        W30174  27.486   2.765   2.911
59575W        W30175  24.392   8.928   1.847
59576W        W30176  43.331  37.511   2.249
59577W        W30177  28.965  29.238  12.489
59578W        W30178   9.125  14.179  14.466
59579W        W30179  16.776  16.215  12.456
59580W        W30180  42.002  22.018   2.923
59581W        W30181  13.880   5.468   2.960
59582W        W30182  44.477   3.992  14.119
59583W        W30183  37.518   6.928  14.396
59584W        W30184  14.743  22.005   4.182
59585W        W30185  32.651  39.553  13.243
59586W        W30186  11.346  20.256   3.676
59587W        W30187  38.425  29.344   3.159
59588W        W30188  25.103  40.492   2.227
59589W        W30189  39.315  24.770   4.084
59590W        W30190  41.062   1.486   2.339
59591W        W30191  32.079  12.278  14.169
59592W        W30192   6.318  32.685  10.750
59593W        W30193   3.805  11.287   1.929
59594W        W30194  41.343  39.563   3.681
59595W        W30195  35.510  15.007   3.633
59596W        W30196  33.281  40.933   2.640
59597W        W30197  22.606  28.303   1.513
59598W        W30198  33.368  16.324   1.283
59599W        W30199  31.647   0.763   0.497
59600W        W30200   1.541  24.271  10.636
59601W        W30201   5.677  25.787   0.891
59602W        W30202  14.741   6.287   1.359
59603W        W30203   5.518  10.616   1.205
59604W        W30204  39.807  20.013  12.431
59605W        W30205  39.832   2.941  13.032
59606W        W30206  38.957  22.451  13.966
59607W        W30207  20.409  12.269   2.965
59608W        W30208  11.145  14.641  10.926
59609W        W30209  21.690  21.696   0.940
59610W        W30210  23.160  21.109  14.524
59611W        W30211  11.535   1.703  12.382
59612W        W30212   5.882  12.796  14.276
59613W        W30213  18.526   0.808   2.293
59614W        W30214  41.894  23.088  12.424
59615W        W30215  41.030  27.855  14.953
59616W        W30216   7.855  31.628  13.353
59617W        W30217  28.867  19.043   1.928
59618W        W30218  42.762  14.831  11.909
59619W        W30219  20.689  18.076   4.956
59620W        W30220  41.889   3.927   4.537
59621W        W30221   6.659   8.658  13.947
59622W        W30222   6.569  35.011  11.588
59623W        W30223  25.279   2.149   5.031
59624W        W30224  28.905  26.694   0.486
59625W        W30225  40.073  17.048  14.793
59626W        W30226  12.661  34.019  14.384
59627W        W30227  39.964   2.808   1.944
59628W        W30228   9.833  15.084   4.789
59629W        W30229  15.322   0.417  11.009
59630W        W30230   1.453  20.914   4.568
59631W        W30231  42.907  16.006   3.135
59632W        W30232  30.547  38.285  12.171
59633W        W30233  21.174   5.856   3.695
59634W        W30234  17.607  21.227   4.490
59635W        W30235  42.032   5.763  14.709
59636W        W30236  24.122  37.625   2.218
59637W        W30237  26.182  42.996   0.305
59638W        W30238  29.801  32.873   1.684
59639W        W30239  12.882   1.929   1.908
59640W        W30240  40.077  16.167   2.244
59641W        W30241  42.523   2.630  12.520
59642W        W30242  42.464   3.955  14.764
59643W        W30243   5.134  39.592   1.880
59644W        W30244  28.210  34.389  11.185
59645W        W30245   7.237  13.128  11.799
59646W        W30246  24.643  35.429   2.389
59647W        W30247  22.439  10.899   4.865
59648W        W30248   3.912  18.593  12.583
59649W        W30249   0.591   1.533  14.985
59650W        W30250  41.289  37.847   3.853
59651W        W30251  20.608  12.182   2.395
59652W        W30252  28.261  11.272   3.234
59653W        W30253  24.929  41.858   0.423
59654W        W30254   8.691  23.170   1.677
59655W        W30255   7.843  21.104   3.250
59656W        W30256   3.329   9.834   4.575
59657W        W30257   7.438  31.703   0.446
59658W        W30258   5.228   3.930  12.906
59659W        W30259  11.604  38.401  14.462
59660W        W30260  15.310  41.460  12.042
59661W        W30261  21.534  32.630   2.835
59662W        W30262  16.549  39.404  14.276
59663W        W30263  31.316  43.404  13.560
59664W        W30264  18.150   0.882  11.853
59665W        W30265  10.236  15.626   3.736
59666W        W30266  39.551  34.670   0.964
59667W        W30267  22.117   3.374   4.601
59668W        W30268  21.015  26.731  14.135
59669W        W30269  27.170  24.393  10.761
59670W        W30270  34.844  13.807   2.323
59671W        W30271  22.441  25.733   4.573
59672W        W30272  11.030  27.451  13.511
59673W        W30273   5.777  43.812   0.544
59674W        W30274   1.631  15.067  12.990
59675W        W30275   7.018   5.350   2.251
59676W        W30276  21.752  10.427   4.654
59677W        W30277  25.545   1.041  13.106
59678W        W30278  32.619  34.640   2.247
59679W        W30279  13.392  21.895   0.637
59680W        W30280  12.267   0.054  13.996
59681W        W30281  33.596  10.235  13.513
59682W        W30282   7.075  10.715   0.921
59683W        W30283  27.327  34.428  14.867
59684W        W30284  27.507   2.357  10.592
59685W        W30285   5.921   9.167   0.330
59686W        W30286   2.675  21.245   0.777
59687W        W30287  28.356  21.403  14.956
59688W        W30288  28.533  16.683  11.491
59689W        W30289   9.649  30.811  14.960
59690W        W30290  38.153  13.765   1.788
59691W        W30291  43.405   4.840  12.924
59692W        W30292  27.492   5.768  12.080
59693W        W30293  19.352  24.306   2.735
59694W        W30294  18.403  10.153   1.019
59695W        W30295   8.714  38.012   4.300
59696W        W30296   7.257  33.153   4.633
59697W        W30297   1.473   5.367  10.639
59698W        W30298  15.020  28.481   1.714
59699W        W30299  22.640  22.990  12.402
59700W        W30300   6.956  11.523   2.776
59701W        W30301  35.192  24.973  11.522
59702W        W30302  12.713  30.549   1.577
59703W        W30303   1.010  44.580  10.759
59704W        W30304  10.104  11.488  12.394
59705W        W30305  26.573   0.202  11.256
59706W        W30306   0.203  20.051  11.976
59707W        W30307  33.004  26.058   3.093
59708W        W30308   9.831  27.547  10.961
59709W        W30309  22.373  10.422  10.507
59710W        W30310  31.516  19.190  13.492
59711W        W30311  21.710  21.805  13.438
59712W        W30312   5.674  31.180   0.943
59713W        W30313  15.362  32.517  13.294
59714W        W30314  17.034  25.474  11.683
59715W        W30315  35.464  10.202   3.640
59716W        W30316  11.784  24.431   0.826
59717W        W30317   3.626   6.266   4.990
59718W        W30318  35.505  43.068   2.757
59719W        W30319  15.245  27.893  12.961
59720W        W30320  38.321  28.641   1.910
59721W        W30321   8.530  31.907  11.648
59722W        W30322   9.461   1.310   2.684
59723W        W30323  27.962  14.546  12.999
59724W        W30324  38.987  19.065  14.746
59725W        W30325  10.710  20.618   1.007
59726W        W30326   8.874   5.289   2.245
59727W        W30327  16.287  34.506  11.584
59728W        W30328  35.360   2.316   2.749
59729W        W30329  32.554  32.065   3.552
59730W        W30330   6.059  26.537  10.592
59731W        W30331  39.010  42.550   2.102
59732W        W30332  31.201  34.419   1.418
59733W        W30333  29.451  18.050   1.251
59734W        W30334  23.507  16.608  13.441
59735W        W30335  20.687  37.439  14.371
59736W        W30336  19.789  38.558  14.551
59737W        W30337  27.514  19.636   3.731
59738W        W30338  25.396  39.984   2.245
59739W        W30339  19.477  13.211  13.777
59740W        W30340  20.474  32.659   2.245
59741W        W30341   3.243   1.774  13.100
59742W        W30342  24.163  20.695   3.764
59743W        W30343  35.958   1.563  11.627
59744W        W30344  29.726  11.777   0.904
59745W        W30345  23.480  30.967  10.819
59746W        W30346  41.771  43.577   0.881
59747W        W30347   9.211  13.180   3.744
59748W        W30348  19.972   7.388  14.070
59749W        W30349   2.347  42.878   2.139
59750W        W30350  36.475  15.350   2.313
59751W        W30351   8.595   1.944  13.288
59752W        W30352   1.282   6.006  12.138
59753W        W30353  24.009  21.169  10.686
59754W        W30354  35.334  19.102   0.725
59755W        W30355  21.221  38.731   2.227
59756W        W30356  17.490  10.760   3.336
59757W        W30357  41.428  10.844  12.836
59758W        W30358  44.781  19.565   0.970
59759W        W30359   3.870  35.929  13.817
59760W        W30360  36.430  20.177  13.303
59761W        W30361   2.119  25.625   4.247
59762W        W30362  31.423  39.289  12.931
59763W        W30363  13.462  37.606  11.195
59764W        W30364  38.383  18.204  12.432
59765W        W30365  40.364   2.857  14.164
59766W        W30366  19.775  35.280  14.950
59767W        W30367  30.972   8.304   2.889
59768W        W30368  20.541  10.667  11.388
59769W        W30369   3.920  40.428  10.936
59770W        W30370  20.520  35.751   4.447
59771W        W30371  18.673  30.167   3.325
59772W        W30372   7.987   6.503   3.138
59773W        W30373  42.694  34.108  14.377
59774W        W30374   0.354   8.675   3.318
59775W        W30375   7.538   7.821   4.303
59776W        W30376  34.095   1.444   3.536
59777W        W30377  37.810  30.541   1.632
59778W        W30378  36.134  34.488  11.064
59779W        W30379   2.968  28.538  14.386
59780W        W30380  35.506   9.672  11.270
59781W        W30381  23.712  10.607  11.045
59782W        W30382  36.114  14.065  13.934
59783W        W30383  21.624  36.939   2.836
59784W        W30384  35.483   3.967   3.285
59785W        W30385  21.358  12.604   3.169
59786W        W30386   2.638  36.656  12.153
59787W        W30387  39.909   5.683  12.024
59788W        W30388  28.146  14.098  11.146
59789W        W30389  15.574   0.871   0.792
59790W        W30390  21.134   6.351  13.172
59791W        W30391  44.659  38.641   1.958
59792W        W30392   6.634  17.982   3.182
59793W        W30393  24.566  43.225  13.119
59794W        W30394  20.715  42.992  12.869
59795W        W30395  35.385   8.637  11.999
59796W        W30396  31.563   5.675   1.829
59797W        W30397  38.294   0.819  12.493
59798W        W30398  29.532  43.390   0.794
59799W        W30399  40.442  11.819   0.723
59800W        W30400  32.431   2.865   2.866
59801W        W30401   1.902   1.423  10.809
59802W        W30402  33.001  42.541  13.908
59803W        W30403  38.074   6.298   4.686
59804W        W30404  39.212  20.536  11.657
59805W        W30405   6.449   9.921   1.772
59806W        W30406  14.819  20.749  12.394
59807W        W30407  34.388   4.117  11.643
59808W        W30408  14.075   3.794   3.790
59809W        W30409  35.329  25.059  12.032
59810W        W30410  12.411  27.011  14.279
59811W        W30411  19.860  18.874   2.703
59812W        W30412  44.283   4.307   1.672
59813W        W30413   0.007  12.030  10.318
59814W        W30414  14.617  35.409  14.318
59815W        W30415  42.553  25.160   4.549
59816W        W30416  13.343  42.278  14.141
59817W        W30417   9.235  29.073   4.288
59818W        W30418  44.354   2.141  12.558
59819W        W30419  16.005  21.162   0.650
59820W        W30420  11.946   4.632  13.362
59821W        W30421  21.221  27.907  12.108
59822W        W30422  27.424  10.772   3.371
59823W        W30423  32.497  43.766  11.830
59824W        W30424  22.226  25.429  11.408
59825W        W30425  30.627   7.897   2.926
59826W        W30426  35.885  14.688   2.123
59827W        W30427  43.792  13.113   4.748
59828W        W30428  40.409  43.240   2.196
59829W        W30429  18.274  30.494  13.315
59830W        W30430  42.807  17.128   2.621
59831W        W30431  30.012   6.161  13.787
59832W        W30432  11.170   2.007   1.182
59833W        W30433  42.622  18.652   3.311
59834W        W30434  34.763   5.722  12.940
59835W        W30435   8.534  30.120   2.823
59836W        W30436   0.479  17.448  11.615
59837W        W30437   5.401  23.541   4.145
59838W        W30438  31.262  27.205  12.979
59839W        W30439   3.799   1.905  10.742
59840W        W30440  26.539  36.188   2.374
59841W        W30441  37.436  12.675   4.598
59842W        W30442   2.459   7.577   3.712
59843W        W30443  37.294  43.459   0.948
59844W        W30444   4.914   3.443  12.827
59845W        W30445  31.982  10.734  13.433
59846W        W30446  21.539   0.957   1.923
59847W        W30447  36.075   4.872   1.648
59848W        W30448  37.002  18.004  14.771
59849W        W30449  35.513  31.828  10.670
59850W        W30450  11.201  19.579   2.299
59851W        W30451   4.803  34.128   2.866
59852W        W30452   3.470   1.017   0.502
59853W        W30453  28.009  44.848   2.689
59854W        W30454  11.014   9.788  10.713
59855W        W30455  23.123  44.257   4.000
59856W        W30456   8.724  33.408   3.601
59857W        W30457  40.367  42.456   0.955
59858W        W30458  34.927  29.428  12.509
59859W        W30459  17.314   8.317   4.321
59860W        W30460  18.863  29.053   2.116
59861W        W30461  29.923  42.160  10.335
59862W        W30462   3.327  39.096  12.520
59863W        W30463  30.200   7.424  14.385
59864W        W30464  28.837  39.028   2.342
59865W        W30465   8.231   5.429   3.952
59866W        W30466  28.492   0.590   2.401
59867W        W30467  43.677  31.161   4.798
59868W        W30468  36.866  17.032   0.099
59869W        W30469   9.049  34.396  13.610
59870W        W30470  44.891  26.420   0.424
59871W        W30471  11.886  21.687   3.745
59872W        W30472   7.800  11.164  14.420
59873W        W30473  22.686  43.191   5.403
59874W        W30474  27.924  39.667   0.442
59875W        W30475  41.026  24.442  11.977
59876W        W30476  39.987  29.300  12.533
59877W        W30477  12.335  18.066  10.745
59878W        W30478  16.762   3.188  14.745
59879W        W30479  21.054  27.095  12.862
59880W        W30480  41.429  39.741   1.936
59881W        W30481  16.829  22.679   1.395
59882W        W30482   0.478  39.762   1.380
59883W        W30483   6.514  39.549   0.468
59884W        W30484  32.137   8.708  11.705
59885W        W30485  40.751  41.904   2.691
59886W        W30486  43.802  29.113  11.585
59887W        W30487  14.878  23.715  12.266
59888W        W30488  18.382  42.816   1.325
59889W        W30489  24.225   6.395   0.432
59890W        W30490   4.410  32.856  12.063
59891W        W30491  24.912  28.456  12.083
59892W        W30492   3.967  39.032   1.187
59893W        W30493  11.417  21.259  14.953
59894W        W30494  24.636  27.808  14.393
59895W        W30495   3.501  25.633  13.936
59896W        W30496  24.194  18.555   3.219
59897W        W30497  22.091  15.028  13.852
59898W        W30498  23.324  31.329  13.859
59899W        W30499  27.403  13.061  13.961
59900W        W30500  21.148  39.493   4.785
59901W        W30501  36.111  26.956   4.400
59902W        W30502  23.125  10.482  12.957
59903W        W30503  41.954  26.636   3.228
59904W        W30504  19.676  42.807   2.802
59905W        W30505  41.944  35.930  13.958
59906W        W30506  27.193  20.176   4.568
59907W        W30507  37.253   9.728  12.946
59908W        W30508  44.392  13.088   2.760
59909W        W30509  12.069  34.110   3.294
59910W        W30510   1.044  21.058   3.285
59911W        W30511  12.369  11.629  12.957
59912W        W30512  40.855  16.547   0.374
59913W        W30513   0.582   0.425   2.362
59914W        W30514  13.751  40.197   3.127
59915W        W30515  19.383  26.142  13.229
59916W        W30516  12.695  21.140  12.112
59917W        W30517  11.045  18.342  11.104
59918W        W30518  12.886  18.654   3.998
59919W        W30519  43.906  30.642   4.856
59920W        W30520   3.670  44.373  12.070
59921W        W30521  20.300  22.271  14.363
59922W        W30522  33.953  31.726   1.282
59923W        W30523   8.968  23.543  11.173
59924W        W30524  36.343  30.638   4.614
59925W        W30525  41.037  19.319   3.237
59926W        W30526   1.943  42.671   3.186
59927W        W30527  10.239  34.548  12.941
59928W        W30528  21.368  39.152   5.093
59929W        W30529  17.579  33.560   2.620
59930W        W30530   0.478  26.927  10.989
59931W        W30531  17.764   0.266  13.064
59932W        W30532  23.436  39.637   4.116
59933W        W30533  23.770  39.967  13.044
59934W        W30534  13.857   2.520  13.946
59935W        W30535  32.443  43.562  10.683
59936W        W30536  17.077  10.422   2.168
59937W        W30537  17.483  13.331   0.867
59938W        W30538  28.833  39.931   2.445
59939W        W30539  32.945  26.660   4.616
59940W        W30540  10.390  11.410  11.151
59941W        W30541   4.229   7.258   1.639
59942W        W30542  18.119   8.419  12.421
59943W        W30543  22.023  23.952  13.552
59944W        W30544  16.371  12.238   0.743
59945W        W30545  29.660  44.406  12.585
59946W        W30546  14.615  26.043   1.432
59947W        W30547  31.027  30.158  11.547
59948W        W30548  38.193  11.373   0.679
59949W        W30549  18.541  44.756   2.771
59950W        W30550  39.029  38.825   2.945
59951W        W30551  38.859  35.373   4.025
59952W        W30552  18.852  23.100  14.294
59953W        W30553  34.351   3.991   4.083
59954W        W30554  29.908  37.945  12.933
59955W        W30555  29.826  29.531   4.263
59956W        W30556  34.068  21.198   0.920
59957W        W30557   0.393   6.746  14.963
59958W        W30558  26.653   4.437  11.525
59959W        W30559  36.791  18.561  13.925
59960W        W30560  41.895  35.915   5.207
59961W        W30561   1.667  16.622  10.694
59962W        W30562  20.922   3.767   1.478
59963W        W30563  24.933  25.469  11.521
59964W        W30564  15.075  18.171   2.714
59965W        W30565  31.011  34.262   2.642
59966W        W30566  44.027  27.415  12.855
59967W        W30567  22.664  29.062  14.001
59968W        W30568  31.562   0.977   1.981
59969W        W30569  21.234   3.877  12.038
59970W        W30570  24.709  10.250  13.095
59971W        W30571  12.906   8.321   1.286
59972W        W30572  12.283  18.833   1.142
59973W        W30573  43.251  14.094   2.372
59974W        W30574  22.981   1.785   1.688
59975W        W30575   5.416   2.610   0.848
59976W        W30576  26.283  26.619   4.430
59977W        W30577   0.972  14.578  14.932
59978W        W30578  15.121   0.200   0.033
59979W        W30579  19.542  43.313   2.161
59980W        W30580  16.719   3.407  13.506
59981W        W30581  18.317  23.485  12.593
59982W        W30582  12.918  15.160   3.243
59983W        W30583  44.464  26.634   3.119
59984W        W30584  25.198  32.642  14.488
59985W        W30585  28.035  23.116  14.882
59986W        W30586   1.136  28.128   3.268
59987W        W30587  20.756  41.027  12.084
59988W        W30588  16.570  11.295   1.420
59989W        W30589   6.802  40.740  11.912
59990W        W30590  22.599  32.718  13.127
59991W        W30591   3.175   1.534  12.636
59992W        W30592   3.349   0.297   0.977
59993W        W30593  24.729  35.616   1.234
59994W        W30594  28.191   3.334   4.973
59995W        W30595  41.732   7.881   5.030
59996W        W30596  14.180  34.762  11.402
59997W        W30597  43.371  43.485  11.167
59998W        W30598   4.732   0.416  10.704
59999W        W30599  33.632  31.943  11.253
60000W        W30600  43.250  31.338   1.825
60001W        W30601  38.988  27.609  11.568
60002W        W30602   6.355  43.246   4.157
60003W        W30603  12.729  34.412   3.069
60004W        W30604   0.053   5.456  11.027
60005W        W30605  20.170  10.887   0.748
60006W        W30606  14.568  34.715  12.975
60007W        W30607  20.087  15.662   0.342
60008W        W30608  24.597  21.725  14.844
60009W        W30609  35.564  20.754  11.052
60010W        W30610  33.283  38.214   1.890
60011W        W30611  13.799  18.136   0.009
60012W        W30612  23.708  16.001   2.639
60013W        W30613  18.386  10.780  13.858
60014W        W30614  15.227   1.322  10.777
60015W        W30615  38.134  38.791  12.548
60016W        W30616   5.967  18.570  13.037
60017W        W30617  41.976  28.866   2.273
60018W        W30618  38.310  34.409  10.762
60019W        W30619   7.647  41.763   0.732
60020W        W30620  30.932  32.120   4.519
60021W        W30621  31.532  34.455  13.462
60022W        W30622  24.220  10.299  10.922
60023W        W30623  42.354  42.428  13.605
60024W        W30624  35.117  35.243   3.316
60025W        W30625  32.948   9.479   0.286
60026W        W30626  30.567  33.018  11.182
60027W        W30627  13.645  39.377  14.918
60028W        W30628  38.356  10.899  13.426
60029W        W30629  41.321  27.983  13.397
60030W        W30630   0.293   1.153  14.456
60031W        W30631   2.663  16.100   3.625
60032W        W30632  41.395   4.736  11.678
60033W        W30633  35.494  38.785  12.758
60034W        W30634  19.934  36.062   3.636
60035W        W30635  26.120  35.623   1.446
60036W        W30636  19.853  17.975   3.407
60037W        W30637   3.373   4.936   0.511
60038W        W30638  10.239  27.263   1.890
60039W        W30639   8.161  37.754  14.939
60040W        W30640  22.204  12.749  13.334
60041W        W30641  18.598  42.784   4.154
60042W        W30642  44.043  11.814  14.427
60043W        W30643  16.798  37.335  12.942
60044W        W30644  33.490   2.207   1.261
60045W        W30645  11.821  17.274   0.837
60046W        W30646  42.249  27.863  11.665
60047W        W30647   8.743  23.151  12.746
60048W        W30648  24.666   4.198   3.227
60049W        W30649   5.797   7.733  14.412
60050W        W30650  13.266  10.693   2.714
60051W        W30651  30.137  20.205   3.129
60052W        W30652  11.670  17.119   0.366
60053W        W30653  29.155  42.554  12.952
60054W        W30654  43.565  26.500   5.049
60055W        W30655  10.709  10.838   4.145
60056W        W30656  24.714  13.822   0.504
60057W        W30657   3.856   3.813  11.210
60058W        W30658  26.099  23.796  11.903
60059W        W30659  10.864  22.916   4.122
60060W        W30660  37.837  11.339  11.615
60061W        W30661  28.431  34.646  13.952
60062W        W30662   4.931   8.264   3.370
60063W        W30663  35.038  34.310  12.038
60064W        W30664   9.294  18.154   0.663
60065W        W30665  38.081   0.813  11.051
60066W        W30666  17.805  38.785   1.232
60067W        W30667  44.607  26.274  14.959
60068W        W30668  30.980  32.488  13.363
60069W        W30669   1.237  37.875  12.493
60070W        W30670   2.911  42.568   0.031
60071W        W30671  20.724   1.971   2.639
60072W        W30672  34.752  34.255   3.424
60073W        W30673   1.221   5.915  11.194
60074W        W30674  34.987  44.683  12.610
60075W        W30675   5.096  25.325   3.059
60076W        W30676  19.716  32.515   1.379
60077W        W30677   6.143   4.734   4.282
60078W        W30678   9.173  33.006  10.438
60079W        W30679  28.009  41.159  13.430
60080W        W30680  28.790  43.020  11.000
60081W        W30681  42.713  34.440  14.916
60082W        W30682  38.617  35.926  13.848
60083W        W30683  26.681   7.125   1.253
60084W        W30684  40.979  39.882  13.859
60085W        W30685   4.906  15.420   1.558
60086W        W30686  35.000   0.937  10.686
60087W        W30687  37.027  40.848   1.757
60088W        W30688  26.276  30.846  14.839
60089W        W30689  31.931  36.520  14.901
60090W        W30690   6.637  40.935   2.854
60091W        W30691  30.150  32.487   3.793
60092W        W30692   4.741  26.287  12.986
60093W        W30693   5.742   2.064   3.577
60094W        W30694  39.974  23.535  11.192
60095W        W30695  30.155  12.659  14.269
60096W        W30696  43.476  32.524   0.313
60097W        W30697  29.942  34.615   1.759
60098W        W30698   3.256   1.708   4.536
60099W        W30699  40.489  16.689   4.987
60100W        W30700   2.538  21.528  12.470
60101W        W30701  21.666   6.593  12.230
60102W        W30702  17.529  38.020  11.532
60103W        W30703  11.313  24.147   0.418
60104W        W30704  12.517  32.348  11.518
60105W        W30705  16.283  32.360  13.411
60106W        W30706  42.293  14.852  13.086
60107W        W30707  18.573  19.523  12.335
60108W        W30708  37.908  35.803  14.523
60109W        W30709  40.485  24.083  13.737
60110W        W30710   3.954  13.194   1.663
60111W        W30711  44.897   2.712  11.598
60112W        W30712  11.332   1.532   1.253
60113W        W30713   5.239  19.053   2.716
60114W        W30714   1.250  24.987  12.377
60115W        W30715   7.593   4.741   2.751
60116W        W30716   0.749  40.052  12.440
60117W        W30717  19.755   9.176  12.062
60118W        W30718  26.062  38.183  12.106
60119W        W30719  25.611  20.461  14.503
60120W        W30720  40.991  29.660   0.274
60121W        W30721  37.221  16.767  13.798
60122W        W30722  14.670  21.299   1.708
60123W        W30723  11.180   0.894  11.154
60124W        W30724  12.294  25.757  10.639
60125W        W30725  10.845  42.297   0.189
60126W        W30726  11.023  40.306   2.248
60127W        W30727  12.651  31.053  13.353
60128W        W30728   8.761  12.348  11.566
60129W        W30729  18.595   9.202  11.398
60130W        W30730  17.955  40.127  14.268
60131W        W30731  19.632  18.278   2.675
60132W        W30732  38.129   4.501   0.089
60133W        W30733  30.235  38.560  13.464
60134W        W30734  28.206   2.244  14.864
60135W        W30735  24.646   0.762  14.875
60136W        W30736  20.557   9.512   4.120
60137W        W30737  10.255  20.545   4.679
60138W        W30738  20.300  14.114   0.835
60139W        W30739  14.693  33.121  14.336
60140W        W30740   0.896   8.866  11.522
60141W        W30741   9.644  21.568   3.058
60142W        W30742  21.652  27.261   3.733
60143W        W30743  36.323  14.862  14.963
60144W        W30744  35.111   7.799  13.980
60145W        W30745   6.773  18.894  14.324
60146W        W30746  29.191  34.828  11.435
60147W        W30747   3.030  31.743  11.562
60148W        W30748  42.974  40.530  13.115
60149W        W30749   3.733  16.101  14.283
60150W        W30750  44.038  25.637   4.849
60151W        W30751   8.415  16.928   4.440
60152W        W30752  25.060  13.346  13.964
60153W        W30753  12.547  11.170  11.589
60154W        W30754  38.029  39.800   2.259
60155W        W30755  22.481  41.899   1.385
60156W        W30756  11.076  42.729  14.109
60157W        W30757   4.905  10.100  12.786
60158W        W30758  32.026   7.554  10.690
60159W        W30759  36.420  43.924   1.160
60160W        W30760  42.543   5.981  11.187
60161W        W30761  33.083  35.367   4.241
60162W        W30762  35.118  38.372   2.111
60163W        W30763  11.637  35.060  11.494
60164W        W30764  33.209  38.425   1.435
60165W        W30765  34.159   1.653   1.287
60166W        W30766  41.842   3.240   4.900
60167W        W30767   8.813   1.530   4.498
60168W        W30768  44.772  27.011   1.275
60169W        W30769  44.961  23.499  14.623
60170W        W30770  37.203   1.872  10.442
60171W        W30771   6.711  26.484   5.055
60172W        W30772  17.705  14.336  12.815
60173W        W30773   5.422  20.070  12.028
60174W        W30774  19.100  33.443  12.455
60175W        W30775  35.469  37.370  12.023
60176W        W30776  36.905  14.567  10.711
60177W        W30777  39.943  26.533   3.727
60178W        W30778  36.538  12.289   1.525
60179W        W30779  24.211   3.124  13.070
60180W        W30780  40.340  24.870   3.442
60181W        W30781  28.759   4.206   2.399
60182W        W30782  44.445  16.982  11.950
60183W        W30783  41.406   2.299  12.612
60184W        W30784  38.634  19.120  13.444
60185W        W30785  22.074  35.390   1.705
60186W        W30786  17.687  11.778  11.560
60187W        W30787  41.237   2.284  11.078
60188W        W30788  12.256  29.169  13.363
60189W        W30789  11.232  27.014   2.192
60190W        W30790  32.704  24.118   4.749
60191W        W30791  38.421  37.499   1.822
60192W        W30792   3.765  25.667   3.341
60193W        W30793  18.863  10.415   3.192
60194W        W30794  38.964  27.345   4.965
60195W        W30795  12.733  32.507  11.955
60196W        W30796   4.386  37.872   2.278
60197W        W30797  27.125   3.005   0.615
60198W        W30798  29.784  41.788  12.948
60199W        W30799   4.427  35.406   2.765
60200W        W30800   8.419  14.683  13.693
60201W        W30801  11.235   6.836  14.527
60202W        W30802  40.394   0.469   1.979
60203W        W30803  28.411   0.693   3.422
60204W        W30804  29.691  31.873  12.136
60205W        W30805  32.370  42.377   2.625
60206W        W30806   4.188  29.165   1.686
60207W        W30807   4.657  20.921  11.561
60208W        W30808   7.396  20.995   4.650
60209W        W30809  39.566   5.514   0.023
60210W        W30810  40.415  35.958  14.319
60211W        W30811  18.238  18.695   4.587
60212W        W30812  21.667  40.261  11.177
60213W        W30813  18.728   5.158   2.152
60214W        W30814  13.585  22.092  14.361
60215W        W30815   3.439  33.625  13.586
60216W        W30816  24.711  26.565   4.207
60217W        W30817  16.721  22.589  10.952
60218W        W30818  10.175  42.780  11.120
60219W        W30819  12.622   8.257  11.976
60220W        W30820   7.208  33.706   0.309
60221W        W30821  22.204  15.787  14.343
60222W        W30822  39.776  15.202   2.194
60223W        W30823  37.341  19.322  14.200
60224W        W30824  14.673  40.595  11.113
60225W        W30825  23.527  41.048  14.823
60226W        W30826  24.980  21.043   2.598
60227W        W30827  10.809  10.381  10.705
60228W        W30828  29.652  22.835   4.608
60229W        W30829  32.607  41.258  11.059
60230W        W30830  25.261  26.177   2.732
60231W        W30831  11.272   7.831  14.323
60232W        W30832  24.080   6.412   3.759
60233W        W30833  23.742  31.127  12.518
60234W        W30834  18.044  28.197  14.829
60235W        W30835  20.468  34.660   2.099
60236W        W30836  10.447  13.932  14.440
60237W        W30837  21.879   9.301  10.723
60238W        W30838  32.968   8.179   0.837
60239W        W30839  22.199   9.931   4.631
60240W        W30840  14.950   8.396   1.315
60241W        W30841   8.002  20.761  14.275
60242W        W30842   9.746  44.253  11.232
60243W        W30843   0.029  33.997  13.093
60244W        W30844  39.887  13.228  13.357
60245W        W30845   6.638  10.120  13.760
60246W        W30846  21.033  30.966  10.652
60247W        W30847  43.299  41.369  14.927
60248W        W30848  35.824  32.974  11.228
60249W        W30849  33.147  13.471   3.612
60250W        W30850   8.327   7.207  10.462
60251W        W30851   2.226   6.611  11.139
60252W        W30852  39.177  14.731   4.170
60253W        W30853   2.305   4.353  14.256
60254W        W30854  10.668   8.592   2.722
60255W        W30855  33.070  41.426   3.068
60256W        W30856  35.413  42.048  10.810
60257W        W30857  16.866   5.791  13.257
60258W        W30858  21.645  18.140   1.380
60259W        W30859  39.873  35.531   1.944
60260W        W30860   0.896   2.299  14.509
60261W        W30861  28.492  41.335  12.607
60262W        W30862   8.870  39.394   4.328
60263W        W30863  37.936  41.716   0.789
60264W        W30864  17.421  10.166   4.114
60265W        W30865  30.154  12.456   4.103
60266W        W30866  32.977  37.266  12.376
60267W        W30867  41.689  38.569   3.682
60268W        W30868   6.477  35.901  11.246
60269W        W30869  20.065  13.374  13.974
60270W        W30870  40.264   6.848  13.445
60271W        W30871  13.076  29.132  12.873
60272W        W30872  21.453   6.245   3.502
60273W        W30873  38.564  40.461  10.719
60274W        W30874  33.063   7.087  10.688
60275W        W30875  15.726  26.220  11.632
60276W        W30876  16.246  10.662   2.837
60277W        W30877   8.707  11.349   3.129
60278W        W30878  42.929   6.003  13.384
60279W        W30879  35.668  25.226   2.889
60280W        W30880   2.461  11.660  12.132
60281W        W30881  44.746   0.969   1.439
60282W        W30882  11.575  11.724   0.802
60283W        W30883  19.480  32.093   5.003
60284W        W30884  33.127  20.881   0.787
60285W        W30885  44.505  29.692   1.739
60286W        W30886   3.532  12.651  13.409
60287W        W30887  33.934  35.775   3.679
60288W        W30888  31.697  36.358  10.649
60289W        W30889  30.921  26.130  11.942
60290W        W30890  14.187   1.200   1.734
60291W        W30891  33.927  11.148   2.700
60292W        W30892   5.916  17.742   1.607
60293W        W30893  26.157  27.562  12.961
60294W        W30894  32.336  21.206   3.207
60295W        W30895  27.134   0.865   4.760
60296W        W30896  23.922  31.286  10.799
60297W        W30897   7.297  30.716  13.286
60298W        W30898  27.036   7.439  13.482
60299W        W30899   6.464  29.682   2.252
60300W        W30900  15.599  41.909   2.151
60301W        W30901  42.417  13.099   2.801
60302W        W30902  18.577  14.902  14.731
60303W        W30903  23.936  17.311  13.091
60304W        W30904  18.018  12.784  12.996
60305W        W30905   7.150  21.786  13.450
60306W        W30906  13.361   3.691  10.520
60307W        W30907  38.931  35.357  11.564
60308W        W30908  20.810  14.722  12.670
60309W        W30909  32.921   0.194  14.880
60310W        W30910  36.805  24.008  13.936
60311W        W30911  22.069  35.558  12.526
60312W        W30912  34.059  10.729   0.715
60313W        W30913  34.581  39.803   1.789
60314W        W30914  25.797  24.731   0.663
60315W        W30915   4.112   1.718   1.435
60316W        W30916  25.004  23.763   4.540
60317W        W30917  10.724  26.058   3.784
60318W        W30918  32.847  31.166   1.230
60319W        W30919   9.713  22.921   3.196
60320W        W30920  12.252   0.367  11.500
60321W        W30921  19.983   4.021   4.186
60322W        W30922  36.683  44.812   1.304
60323W        W30923  15.673   4.873  11.549
60324W        W30924   6.275  33.484   3.348
60325W        W30925  42.950  38.592   5.166
60326W        W30926  22.837  36.111   3.611
60327W        W30927  25.940  20.772  14.262
60328W        W30928  37.537  34.579  12.080
60329W        W30929  28.077  39.337  14.333
60330W        W30930  14.577  36.500   4.074
60331W        W30931  25.182  28.095  13.461
60332W        W30932  34.404  21.977   3.765
60333W        W30933  30.417  28.545  11.644
60334W        W30934  39.055  15.568  10.363
60335W        W30935  31.127  26.558  11.729
60336W        W30936  40.954  35.055  10.986
60337W        W30937  43.548   7.756  14.092
60338W        W30938  11.025  16.527   4.762
60339W        W30939   9.164  23.494  14.347
60340W        W30940   8.190  44.329  10.529
60341W        W30941  25.144   3.325  13.623
60342W        W30942  44.344  17.017   3.630
60343W        W30943   1.988  43.430   1.958
60344W        W30944  31.592  14.858  12.438
60345W        W30945  28.871  23.452  11.213
60346W        W30946   9.345  14.891   1.793
60347W        W30947   0.690  24.392  13.431
60348W        W30948  19.273  40.894  12.567
60349W        W30949  24.884  11.666   1.737
60350W        W30950  42.468  40.359   1.672
60351W        W30951  22.843  21.257  12.159
60352W        W30952  17.138  39.543   4.233
60353W        W30953  27.056  33.264   2.444
60354W        W30954  43.697  32.107  10.672
60355W        W30955  33.888   6.289  11.245
60356W        W30956   7.599   2.986   4.065
60357W        W30957  32.430  17.668  14.825
60358W        W30958  19.305  27.742  14.704
60359W        W30959  42.888   6.281   2.421
60360W        W30960  34.665  24.730   2.353
60361W        W30961  13.749  36.659  11.454
60362W        W30962  10.125  36.087   0.825
60363W        W30963   7.273  15.715  13.048
60364W        W30964  31.611  16.659   0.336
60365W        W30965   1.765  35.472  13.384
60366W        W30966  14.598  43.910  12.598
60367W        W30967  24.780  19.049  11.663
60368W        W30968  25.061  28.085   2.404
60369W        W30969   9.556  28.682  11.688
60370W        W30970  34.017  35.866  12.548
60371W        W30971  34.186   9.634  14.841
60372W        W30972  14.006   0.553   1.240
60373W        W30973  23.894  23.092   1.804
60374W        W30974  15.323   5.396  11.072
60375W        W30975   2.031   7.126  11.258
60376W        W30976  16.459  35.126   1.354
60377W        W30977  24.562  30.018  12.963
60378W        W30978  39.897  18.539  13.246
60379W        W30979  28.991   2.520   1.812
60380W        W30980  34.927  19.736   2.386
60381W        W30981  13.373  39.983   0.935
60382W        W30982  13.473   9.815   1.748
60383W        W30983  42.820  35.702  12.871
60384W        W30984  15.469  21.281   0.645
60385W        W30985   5.295   4.508   2.788
60386W        W30986  16.176  20.814  13.093
60387W        W30987  33.511  33.988   0.753
60388W        W30988  27.867   1.584  11.159
60389W        W30989  37.670  44.308   2.043
60390W        W30990  34.052   6.373  14.980
60391W        W30991  35.756  44.031  13.785
60392W        W30992  38.282   7.201   5.114
60393W        W30993  14.802  16.588  12.605
60394W        W30994  30.067  26.996   2.725
60395W        W30995  21.505  39.406   1.208
60396W        W30996  18.518  22.169   4.261
60397W        W30997  39.006  17.091  12.222
60398W        W30998  26.953  43.437   2.691
60399W        W30999  26.380  39.343  11.210
60400W        W31000  19.729  38.801  11.658
60401W        W31001   2.865   7.735  11.432
60402W        W31002  37.568  32.923   3.146
60403W        W31003  13.812  32.632   0.814
60404W        W31004  28.158  19.376  10.450
60405W        W31005  37.486  42.305  13.808
60406W        W31006   0.506  41.038  10.628
60407W        W31007  41.380   2.610   1.819
60408W        W31008  44.986  24.985  11.819
60409W        W31009  25.215  39.435   4.452
60410W        W31010  42.427   4.417   1.287
60411W        W31011  39.889  25.987  11.994
60412W        W31012  13.201   4.282   4.718
60413W        W31013  31.195  33.610  11.838
60414W        W31014  33.395  35.323  14.470
60415W        W31015   7.425   8.189   1.164
60416W        W31016   6.940  20.793  11.683
60417W        W31017  19.066  43.868   4.334
60418W        W31018  40.619  36.710   0.768
60419W        W31019  16.346  30.668   4.973
60420W        W31020  21.785   4.820   4.540
60421W        W31021   2.362  34.989   0.983
60422W        W31022  27.547  35.050   4.376
60423W        W31023  16.627  23.349   0.245
60424W        W31024  36.920  25.895  10.527
60425W        W31025  38.148  40.371   4.431
60426W        W31026   2.602  37.535  11.979
60427W        W31027  14.679  30.536   2.685
60428W        W31028  33.450   9.841  12.847
60429W        W31029  38.342  37.472   0.989
60430W        W31030  40.820  34.534   1.315
60431W        W31031  18.003   8.846  13.481
60432W        W31032  44.328   1.723   2.306
60433W        W31033  27.994  44.401  11.410
60434W        W31034  42.481  27.132  11.978
60435W        W31035  44.340  11.369  10.505
60436W        W31036  12.111  31.839  12.081
60437W        W31037  41.517   0.847   3.165
60438W        W31038  18.108  24.737  11.611
60439W        W31039  36.616  11.769   1.721
60440W        W31040   3.422   5.642  11.469
60441W        W31041  25.231  26.450  14.640
60442W        W31042   7.981  16.309   1.786
60443W        W31043   8.741  28.136  11.612
60444W        W31044   8.727   4.891   3.519
60445W        W31045  37.297  38.010  14.800
60446W        W31046   3.310  11.940  13.797
60447W        W31047  26.540   6.222  14.063
60448W        W31048  40.878   3.346  13.385
60449W        W31049   2.391  21.782  14.710
60450W        W31050   9.709  36.870   1.908
60451W        W31051  13.697  15.130  13.394
60452W        W31052   7.196  32.082   0.902
60453W        W31053  23.524  40.074   0.248
60454W        W31054   7.623  12.971   1.093
60455W        W31055  40.317  29.712  10.662
60456W        W31056   7.436  17.612  13.597
60457W        W31057   5.716   0.283  13.822
60458W        W31058  22.198   3.879   4.609
60459W        W31059  20.762  34.492  13.502
60460W        W31060   7.242  19.204   3.817
60461W        W31061   4.679   5.286   1.985
60462W        W31062   5.726  21.174  12.638
60463W        W31063   5.799  32.961   0.383
60464W        W31064  21.960   5.248  11.511
60465W        W31065  18.094  40.269   2.431
60466W        W31066   2.146  20.614   1.201
60467W        W31067   7.222  30.537   2.350
60468W        W31068  12.620  24.179   0.875
60469W        W31069  30.871   7.071  12.966
60470W        W31070  31.902  25.174  13.868
60471W        W31071   0.484  18.141   0.751
60472W        W31072  20.750  24.732   3.620
60473W        W31073  17.105   5.327  13.465
60474W        W31074   0.216  10.484  14.323
60475W        W31075  16.848  16.909  11.979
60476W        W31076  13.285  29.631  14.966
60477W        W31077  22.020  41.384  11.707
60478W        W31078   6.187  33.071  14.437
60479W        W31079  35.071   1.796   2.777
60480W        W31080  10.731  32.848   3.366
60481W        W31081  20.044  12.359   3.427
60482W        W31082  12.783   6.885  12.656
60483W        W31083  25.650  23.655   1.694
60484W        W31084   9.805   7.177   0.414
60485W        W31085  33.444   7.094  11.036
60486W        W31086   2.938  37.556  12.367
60487W        W31087  32.355  34.106  12.466
60488W        W31088  17.078  32.560  13.888
60489W        W31089   4.051  37.718  10.223
60490W        W31090  29.168   4.194   3.235
60491W        W31091  17.827  13.883   1.452
60492W        W31092  21.653  13.369  10.694
60493W        W31093  29.636  14.344   3.111
60494W        W31094  19.962  27.695   1.889
60495W        W31095  15.252   1.190   1.826
60496W        W31096  25.538  13.594   1.475
60497W        W31097  29.661   2.662  13.926
60498W        W31098  30.716  24.666   4.187
60499W        W31099  16.635   1.819  13.462
60500W        W31100  18.645   7.909  10.473
60501W        W31101  40.583   0.789  11.935
60502W        W31102  22.498  18.555   3.395
60503W        W31103   8.617   7.130   1.420
60504W        W31104  24.800  32.094   1.792
60505W        W31105  30.857   3.399   0.315
60506W        W31106   6.489  21.213   1.673
60507W        W31107  36.299  37.601   0.174
60508W        W31108   6.366   5.280  11.526
60509W        W31109  13.079   8.908   1.702
60510W        W31110  28.993  19.374  10.933
60511W        W31111  12.067  31.076   2.768
60512W        W31112   1.721   8.401   4.626
60513W        W31113   4.191  10.869   1.345
60514W        W31114   7.652  42.003  11.073
60515W        W31115  44.363   3.720   3.216
60516W        W31116  19.492  33.833  11.646
60517W        W31117   0.045  33.519  11.728
60518W        W31118  19.659  37.918   3.653
60519W        W31119  23.658   5.849   3.987
60520W        W31120  31.558  18.118  10.772
60521W        W31121  43.876  25.712   0.900
60522W        W31122  36.921  19.604   2.734
60523W        W31123  25.585   5.822   4.556
60524W        W31124  28.252   7.884  11.475
60525W        W31125  35.900   8.037   2.697
60526W        W31126  43.414   7.721  10.277
60527W        W31127  26.412  39.056   3.295
60528W        W31128  31.979  16.235  11.434
60529W        W31129  21.077  34.780   3.200
60530W        W31130  39.691  22.902   2.944
60531W        W31131   3.635   1.529  14.773
60532W        W31132  19.596  27.299  14.711
60533W        W31133  10.683  23.957   3.212
60534W        W31134  10.227  21.946  13.861
60535W        W31135  19.093  34.032  10.797
60536W        W31136   9.632  23.188  13.284
60537W        W31137  14.335  36.878   2.188
60538W        W31138  32.574  19.829  12.421
60539W        W31139  33.556  22.739   3.306
60540W        W31140  11.222  30.550  14.330
60541W        W31141  41.134  27.696   3.664
60542W        W31142  11.075  29.453   3.914
60543W        W31143   9.278   2.665  12.539
60544W        W31144  27.431  44.408   4.305
60545W        W31145  26.917  30.191   3.757
60546W        W31146  11.416  19.757  11.128
60547W        W31147  21.209  15.871  14.102
60548W        W31148  44.255  12.340   3.257
60549W        W31149  44.069  12.715  14.347
60550W        W31150  26.327   4.396   0.530
60551W        W31151  18.255  13.528  11.511
60552W        W31152  34.378  39.356  13.835
60553W        W31153  11.870   9.587   0.837
60554W        W31154   7.855  42.941  12.099
60555W        W31155   0.642  27.655   2.710
60556W        W31156  12.887  40.315  10.365
60557W        W31157  38.044  28.057   4.681
60558W        W31158  40.487  43.448   4.877
60559W        W31159  14.852   0.829   3.590
60560W        W31160   9.713  37.716  10.363
60561W        W31161  20.779  41.893   0.686
60562W        W31162  24.862  21.583  12.992
60563W        W31163   4.639  32.630   3.344
60564W        W31164  23.942   3.041  10.681
60565W        W31165   2.235  23.330   1.143
60566W        W31166  13.695  36.345   4.317
60567W        W31167  23.686   0.946   1.745
60568W        W31168  33.542  38.502  14.461
60569W        W31169   0.536  41.838   2.789
60570W        W31170  21.084  23.783   2.258
60571W        W31171  40.149  18.175   3.811
60572W        W31172  34.190  40.258  13.903
60573W        W31173  31.746  10.548  11.506
60574W        W31174  28.036  26.652  12.913
60575W        W31175  20.335  36.396  12.597
60576W        W31176  10.591  35.665   4.389
60577W        W31177  25.060  25.232   4.302
60578W        W31178   4.226  18.222   5.160
60579W        W31179  15.860  39.128  13.845
60580W        W31180  27.929  43.167  10.054
60581W        W31181  37.265  20.568  11.084
60582W        W31182  22.798  33.790  10.103
60583W        W31183   9.081   6.271  12.465
60584W        W31184  21.282  20.065   4.139
60585W        W31185  20.869  35.504  11.579
60586W        W31186  29.378  29.650   2.304
60587W        W31187   5.026  27.005   3.791
60588W        W31188  13.226  26.609   2.353
60589W        W31189  42.241  22.252   3.673
60590W        W31190  32.147  19.322   3.187
60591W        W31191  12.737  27.807   0.927
60592W        W31192   5.155   9.333   2.829
60593W        W31193  15.753  12.339   9.801
60594W        W31194  39.858   5.229   2.295
60595W        W31195  27.727   3.324   4.657
60596W        W31196  18.634   8.286   1.164
60597W        W31197   1.019  23.566   3.429
60598W        W31198  33.433  38.004  13.249
60599W        W31199   3.873  18.782   2.375
60600W        W31200   3.983  35.503  12.891
60601W        W31201  44.872  13.060  12.915
60602W        W31202  24.277  40.839  11.191
60603W        W31203  35.397  31.593  14.294
60604W        W31204  43.661  25.585  12.126
60605W        W31205   9.844  26.439   3.748
60606W        W31206  12.007  33.958  13.424
60607W        W31207  39.974  21.292   1.416
60608W        W31208   9.149   1.759   0.912
60609W        W31209  20.649  10.395   3.676
60610W        W31210  18.516  38.345   4.584
60611W        W31211  33.083  18.282  12.454
60612W        W31212  22.827  14.914   2.861
60613W        W31213  32.619   2.105   4.667
60614W        W31214  38.790  35.940   2.790
60615W        W31215  12.146  42.748   0.035
60616W        W31216  21.852   2.139   1.363
60617W        W31217  39.966   7.936   0.777
60618W        W31218  42.698  24.545  12.365
60619W        W31219  33.667  24.164   1.779
60620W        W31220   1.584  18.237  12.339
60621W        W31221   5.001  39.572  11.184
60622W        W31222   8.234  21.166  10.805
60623W        W31223  31.518   9.597   1.738
60624W        W31224  11.312   2.983  11.987
60625W        W31225  38.152  17.615   4.214
60626W        W31226  16.133   9.143  10.552
60627W        W31227  40.295  41.087   1.181
60628W        W31228   4.947  29.992   1.862
60629W        W31229   1.444  17.630   1.604
60630W        W31230  40.944   4.888  12.489
60631W        W31231  21.365  38.392  12.441
60632W        W31232  26.368  24.025  14.557
60633W        W31233  15.917  19.222   0.371
60634W        W31234   3.782  27.094   2.254
60635W        W31235   3.476  31.086   0.969
60636W        W31236   7.636  23.646   0.931
60637W        W31237  41.204  37.763   2.706
60638W        W31238  23.552  14.186  13.385
60639W        W31239  18.063  12.858  10.970
60640W        W31240   8.728  14.683   4.326
60641W        W31241  34.557  39.048   0.559
60642W        W31242   5.098  27.556  12.295
60643W        W31243  35.360   8.795   1.263
60644W        W31244  18.526  42.947  11.095
60645W        W31245  20.657  19.547  12.897
60646W        W31246  19.311  32.149  13.370
60647W        W31247  10.816   5.399   3.751
60648W        W31248  16.083  18.929   3.684
60649W        W31249  37.864  27.462  12.439
60650W        W31250  14.723  26.902  11.090
60651W        W31251  31.922  25.508  13.446
60652W        W31252  10.822  24.697   3.896
60653W        W31253   1.815   9.700  12.540
60654W        W31254  24.456  23.576   3.295
60655W        W31255  19.535  16.410  14.880
60656W        W31256   6.491  43.949  13.317
60657W        W31257  17.193  14.080   1.488
60658W        W31258  14.725  36.530  11.751
60659W        W31259  28.181  20.418   2.871
60660W        W31260  33.549  39.349  14.995
60661W        W31261  19.059  11.806   3.127
60662W        W31262   2.201  34.116   2.307
60663W        W31263   7.964   5.705   3.605
60664W        W31264  33.811   1.282   0.377
60665W        W31265  31.549   9.689   4.548
60666W        W31266  41.959  10.901   2.207
60667W        W31267   4.118  15.642   1.390
60668W        W31268  30.591  28.563   1.404
60669W        W31269  39.885  34.654   3.916
60670W        W31270  19.181  11.268   3.799
60671W        W31271  19.039  34.676  12.078
60672W        W31272   4.740  41.788   3.218
60673W        W31273  41.224  32.757  13.612
60674W        W31274  39.398  12.038  14.962
60675W        W31275  43.123  24.071  13.636
60676W        W31276   9.329   8.728  13.844
60677W        W31277  15.312  22.624   1.572
60678W        W31278  34.066  37.784  13.979
60679W        W31279  29.082  29.732  12.443
60680W        W31280   7.679  32.370   3.653
60681W        W31281  11.658  16.150  13.980
60682W        W31282  19.014  37.006  12.616
60683W        W31283  23.361  40.296  12.992
60684W        W31284   2.370  31.712  14.661
60685W        W31285  22.761  28.645  10.326
60686W        W31286  40.170  14.120  11.884
60687W        W31287   2.976  19.098  14.706
60688W        W31288  31.005  13.842   0.864
60689W        W31289  38.608  21.138   3.164
60690W        W31290  32.673  19.209   2.282
60691W        W31291  28.968  35.799  11.396
60692W        W31292   7.212  22.720   5.075
60693W        W31293  14.841  33.411   2.175
60694W        W31294  20.280  17.219   4.647
60695W        W31295  14.906  39.466   3.295
60696W        W31296  22.562   3.869   1.438
60697W        W31297   9.100  25.220  12.101
60698W        W31298  10.155  29.227   4.896
60699W        W31299  29.569  14.105   1.322
60700W        W31300  27.653   4.736  13.552
60701W        W31301   2.803  24.667  13.827
60702W        W31302  41.891  24.298  13.954
60703W        W31303   3.520   8.369  11.805
60704W        W31304  25.973  28.136   3.693
60705W        W31305  42.433   5.723   3.040
60706W        W31306   1.688  41.567   4.382
60707W        W31307  18.481   1.489  11.564
60708W        W31308  15.266  38.595  14.415
60709W        W31309  21.051   5.342   4.951
60710W        W31310  28.484  26.527  13.889
60711W        W31311   8.317  23.406  14.009
60712W        W31312  42.969  40.314  10.810
60713W        W31313  14.871   5.123  12.405
60714W        W31314  39.168  19.732  10.726
60715W        W31315  35.488   0.474  13.297
60716W        W31316  38.052  21.584  14.375
60717W        W31317  17.936   4.451  14.965
60718W        W31318  25.667  34.386  13.991
60719W        W31319  37.940  23.897  12.413
60720W        W31320  36.512  22.097  12.444
60721W        W31321  14.694  29.272   2.284
60722W        W31322  23.980  25.471  14.917
60723W        W31323   6.702  21.620   1.955
60724W        W31324   4.419  41.562  12.813
60725W        W31325  30.966  25.485   2.804
60726W        W31326  18.159  37.848  11.907
60727W        W31327  42.947   9.883  12.062
60728W        W31328  36.453  24.989  10.746
60729W        W31329  16.875  15.289  14.180
60730W        W31330  29.608  16.410   0.462
60731W        W31331  18.028  28.654   1.257
60732W        W31332  18.732   7.995   2.417
60733W        W31333  31.218   6.847  13.378
60734W        W31334  43.784  13.505  12.147
60735W        W31335  30.200  40.307   2.687
60736W        W31336  39.270  17.938  10.911
60737W        W31337  10.211  11.432   1.204
60738W        W31338  14.536  38.999   2.187
60739W        W31339  11.274   1.523   4.828
60740W        W31340   9.739  20.876  11.134
60741W        W31341   3.945  39.551  10.954
60742W        W31342   9.972  44.412   3.086
60743W        W31343  24.848  37.469   3.648
60744W        W31344  16.935  25.995  14.415
60745W        W31345  16.547  44.711   2.171
60746W        W31346   9.632  32.424   3.161
60747W        W31347  35.379  42.691  14.308
60748W        W31348  20.694   0.430  11.198
60749W        W31349  10.388   9.205   1.185
60750W        W31350  40.718  24.724  11.566
60751W        W31351   8.711  43.517   1.003
60752W        W31352   3.318  23.779  13.856
60753W        W31353  25.636  19.984  12.737
60754W        W31354  38.986  15.136  10.053
60755W        W31355  39.078  42.422  14.565
60756W        W31356  27.143  26.768   0.754
60757W        W31357  42.398   9.809   3.699
60758W        W31358  34.934   2.456  14.498
60759W        W31359   7.392  21.759   0.868
60760W        W31360  16.815  43.025   0.249
60761W        W31361  14.103  26.567  13.073
60762W        W31362  43.550  36.363   4.558
60763W        W31363  28.871  37.291   3.932
60764W        W31364  33.843  19.722   4.581
60765W        W31365  20.692  41.517  12.949
60766W        W31366  23.774  39.376  14.540
60767W        W31367  10.647   6.869   2.267
60768W        W31368  21.578  19.706   2.566
60769W        W31369  36.273  38.600   4.475
60770W        W31370   4.737  30.215   1.402
60771W        W31371   6.076  44.785   0.385
60772W        W31372  12.659   1.834   0.520
60773W        W31373  31.764  14.733   3.691
60774W        W31374  21.066  15.080  14.724
60775W        W31375   3.933   8.741  11.229
60776W        W31376  19.197  14.320   2.265
60777W        W31377  11.328  24.961   3.992
60778W        W31378  40.418   1.253  13.405
60779W        W31379  27.685  28.727   0.185
60780W        W31380  10.842  14.206  12.976
60781W        W31381  30.650  11.621  11.558
60782W        W31382  42.815  27.614  14.227
60783W        W31383   0.407  30.446  14.538
60784W        W31384  15.874   9.294  11.139
60785W        W31385  12.607  27.611   0.479
60786W        W31386  39.322   5.321   2.436
60787W        W31387  34.840  28.815  12.949
60788W        W31388   8.310  41.169  14.407
60789W        W31389  40.462  24.207  14.726
60790W        W31390  31.899  22.121   3.172
60791W        W31391  28.994  17.076  11.027
60792W        W31392   1.496  23.573   2.295
60793W        W31393  27.842  33.247   3.284
60794W        W31394  25.654  23.152   4.876
60795W        W31395  37.060  17.060  14.530
60796W        W31396  44.513  20.280   0.886
60797W        W31397  30.155  10.302   1.782
60798W        W31398  15.667  32.463   4.749
60799W        W31399  39.595  37.904   0.867
60800W        W31400  33.545  17.466  12.260
60801W        W31401  22.702  22.945   3.658
60802W        W31402  10.230  41.360  10.733
60803W        W31403  37.798  36.670   0.878
60804W        W31404   6.298   7.673  10.141
60805W        W31405  32.363   7.583  11.965
60806W        W31406  23.128   4.376   2.028
60807W        W31407   4.521  41.942   3.719
60808W        W31408  21.442   7.769  12.911
60809W        W31409  33.666   2.123  14.812
60810W        W31410  17.461   8.828   4.245
60811W        W31411  14.165  39.389  11.166
60812W        W31412  22.452  18.842   4.709
60813W        W31413  17.136  30.967  14.627
60814W        W31414  40.881   4.320  13.763
60815W        W31415  34.072  23.502  13.648
60816W        W31416   8.384  22.298   2.234
60817W        W31417  36.296  42.265  11.167
60818W        W31418  23.458   4.360  10.695
60819W        W31419  42.962   1.173  14.077
60820W        W31420  27.008  23.236  14.680
60821W        W31421   0.251  42.243   2.549
60822W        W31422  39.252  40.830   0.241
60823W        W31423  27.491   6.395  10.734
60824W        W31424   1.579   7.415   1.339
60825W        W31425   7.732   0.600   2.235
60826W        W31426   5.880  21.949   4.280
60827W        W31427  27.553  26.903  12.115
60828W        W31428  34.815  12.015   0.051
60829W        W31429  38.490  27.285   1.349
60830W        W31430  39.562  29.206   1.389
60831W        W31431  35.336  37.356  12.923
60832W        W31432  32.080  36.288  14.395
60833W        W31433  15.295  28.905   1.801
60834W        W31434   4.740   9.954   3.145
60835W        W31435   2.460  40.480   0.518
60836W        W31436  18.860  41.325   4.814
60837W        W31437  23.769  38.253  12.149
60838W        W31438  10.498   0.743  10.352
60839W        W31439  33.725  36.864   2.787
60840W        W31440  44.870  40.813   1.659
60841W        W31441  34.838   1.977  14.298
60842W        W31442  42.865  24.124  12.605
60843W        W31443  43.962   5.990   3.767
60844W        W31444  30.002  17.008  12.459
60845W        W31445  13.168  20.256   1.403
60846W        W31446  32.143  12.092   3.683
60847W        W31447  32.473   5.230   0.472
60848W        W31448  17.161  27.963   1.383
60849W        W31449  15.148   2.257  11.184
60850W        W31450  30.907  26.582  13.467
60851W        W31451   2.725   8.811   4.049
60852W        W31452   5.456  43.061  13.423
60853W        W31453   7.869   0.047   1.172
60854W        W31454  44.664  36.917   2.793
60855W        W31455   0.269  13.922  13.845
60856W        W31456  31.610  29.530   4.428
60857W        W31457  38.242   1.005   1.443
60858W        W31458   6.836   7.513  10.678
60859W        W31459  29.370  42.045   0.643
60860W        W31460  14.665  27.322  10.773
60861W        W31461  16.601  27.414   3.207
60862W        W31462   9.939  24.539  12.660
60863W        W31463   1.704  31.963  14.492
60864W        W31464  23.126  43.396   5.157
60865W        W31465  21.460   7.786   0.531
60866W        W31466  37.467   5.283  10.514
60867W        W31467  42.122  34.659   0.743
60868W        W31468  37.515  32.427   1.837
60869W        W31469  12.323  36.580   4.248
60870W        W31470  41.120  31.238  13.055
60871W        W31471  36.045   3.541  12.651
60872W        W31472  43.399  22.000  12.891
60873W        W31473  30.850  31.391  11.052
60874W        W31474  30.688  17.066   0.964
60875W        W31475  43.331  18.187  14.500
60876W        W31476  26.248  17.762  14.445
60877W        W31477  13.737  23.283   5.004
60878W        W31478   6.911  16.804   0.199
60879W        W31479   2.831   0.306   1.048
60880W        W31480  26.486  28.439   1.082
60881W        W31481  10.298  19.792  12.188
60882W        W31482  26.069  31.522  10.589
60883W        W31483  44.224  15.263  12.996
60884W        W31484  14.548  24.239   0.697
60885W        W31485   2.394   9.356  14.047
60886W        W31486  34.936  34.634   4.171
60887W        W31487  37.749  22.519   1.781
60888W        W31488  42.830   7.017   1.306
60889W        W31489  25.221  12.609  11.700
60890W        W31490  12.155   2.865   3.744
60891W        W31491  23.742  31.983  13.736
60892W        W31492  19.965  44.500   2.826
60893W        W31493  31.787  15.268  11.144
60894W        W31494  31.714  25.682   4.201
60895W        W31495  22.063  33.672   0.935
60896W        W31496  32.589   9.825  11.952
60897W        W31497   1.693   0.355  12.482
60898W        W31498  37.907  34.724   4.566
60899W        W31499  26.486  40.130   2.887
60900W        W31500  11.393  37.441   4.508
60901W        W31501  29.600  24.494  10.922
60902W        W31502  42.624  14.112   1.637
60903W        W31503  29.599  24.768   1.251
60904W        W31504   9.896  11.590  11.252
60905W        W31505  37.418  13.069  12.609
60906W        W31506  33.548   3.802  11.554
60907W        W31507  14.560  25.441   1.871
60908W        W31508  31.542  42.166  14.797
60909W        W31509  12.522  40.176   3.665
60910W        W31510  42.820  13.063  12.042
60911W        W31511  20.507  18.262   2.878
60912W        W31512  12.718  31.021  14.369
60913W        W31513  43.754  15.674  13.316
60914W        W31514  26.457  34.801  10.806
60915W        W31515   8.215  29.651   1.964
60916W        W31516  21.670   7.410  14.320
60917W        W31517  14.366  44.357   2.175
60918W        W31518  21.269  16.902  13.371
60919W        W31519  25.927  32.340   4.235
60920W        W31520  15.205  13.724   0.802
60921W        W31521  42.769  15.873   4.537
60922W        W31522   7.557  32.278   0.281
60923W        W31523  22.904  33.353  10.326
60924W        W31524   8.616  20.533   2.118
60925W        W31525  24.845  36.040   0.954
60926W        W31526   7.388  41.250   3.703
60927W        W31527   9.724  39.411   0.027
60928W        W31528  10.864  23.456  11.161
60929W        W31529   6.209   4.329  13.867
60930W        W31530  36.073  34.534   1.777
60931W        W31531   2.788  29.026  14.459
60932W        W31532  15.655  16.368  10.170
60933W        W31533  26.836   2.168   2.634
60934W        W31534  15.842  34.451   0.184
60935W        W31535  28.062  38.831  11.495
60936W        W31536   5.384  23.570   4.689
60937W        W31537  11.141   9.200  12.970
60938W        W31538  26.877  30.640   4.397
60939W        W31539  23.905  14.757   4.587
60940W        W31540  38.795  41.293  13.535
60941W        W31541  37.881  31.558   0.277
60942W        W31542   8.983  34.479   1.981
60943W        W31543   8.719   8.680   0.342
60944W        W31544  26.821  32.013  14.043
60945W        W31545  41.456   5.981   3.286
60946W        W31546  14.165  16.875   3.261
60947W        W31547   0.935  30.598  12.936
60948W        W31548   0.333  33.757  10.763
60949W        W31549  32.897  18.585  11.539
60950W        W31550  29.755  14.578  10.766
60951W        W31551  29.376  22.302   1.356
60952W        W31552  38.516  39.958   2.098
60953W        W31553  15.831  35.120   2.361
60954W        W31554   5.909  25.277  14.521
60955W        W31555  20.616  25.160  10.770
60956W        W31556  42.728  18.321  11.930
60957W        W31557   1.396  24.074   0.393
60958W        W31558   8.834  40.965   3.874
60959W        W31559  16.112  39.889   0.749
60960W        W31560  23.300  24.136  13.810
60961W        W31561  41.756  28.592   4.259
60962W        W31562  27.654  37.482  10.417
60963W        W31563  21.794  38.984   1.227
60964W        W31564  31.014  26.966   2.786
60965W        W31565  40.189  17.822  13.895
60966W        W31566  15.610  31.141   0.984
60967W        W31567  30.953  23.653   4.930
60968W        W31568  39.589  26.535  14.211
60969W        W31569  21.679  44.668  14.897
60970W        W31570  36.582  14.508  14.548
60971W        W31571   5.758  27.404  13.959
60972W        W31572  30.888  10.642   1.414
60973W        W31573  23.460   7.165   0.010
60974W        W31574  10.046   1.433   0.773
60975W        W31575  27.680   8.800  12.123
60976W        W31576   7.726  20.527  12.372
60977W        W31577  28.018   7.327   3.755
60978W        W31578  30.716  24.367  12.135
60979W        W31579   3.294  22.500  14.563
60980W        W31580  29.695  23.630   4.214
60981W        W31581   5.100  43.261  13.106
60982W        W31582  41.369   9.633   1.842
60983W        W31583  34.122  14.266   4.043
60984W        W31584  25.311  34.307   4.508
60985W        W31585   8.236   6.840   4.516
60986W        W31586  12.209   8.061  14.291
60987W        W31587   8.432  27.290   2.024
60988W        W31588  36.330  40.012   4.897
60989W        W31589  36.846  14.236  10.317
60990W        W31590  31.955  41.895   3.237
60991W        W31591  30.367  41.441   2.516
60992W        W31592   9.126  37.528  13.021
60993W        W31593  33.813   1.723   4.170
60994W        W31594  21.952  15.143  10.755
60995W        W31595  34.455  10.385   2.814
60996W        W31596  11.202  31.367   2.394
60997W        W31597  35.724  43.938  12.992
60998W        W31598  38.577   9.654   0.286
60999W        W31599  25.543  34.561   1.609
61000W        W31600  22.146  26.580   4.137
61001W        W31601   8.325   6.645  14.347
61002W        W31602  14.447  11.869   1.948
61003W        W31603  19.095   5.832   1.737
61004W        W31604  43.148  31.615  11.279
61005W        W31605  10.748  17.899   4.173
61006W        W31606  29.956  29.915  10.797
61007W        W31607  40.941  27.558  13.877
61008W        W31608  14.500  26.883   2.424
61009W        W31609  18.393   2.038   5.031
61010W        W31610  19.774  41.579  14.169
61011W        W31611  10.162   5.780  14.312
61012W        W31612  36.438  11.575   0.259
61013W        W31613  44.443  23.674  12.598
61014W        W31614  39.849  11.289   4.311
61015W        W31615   8.394  22.228  12.964
61016W        W31616  36.566  44.248   2.899
61017W        W31617  33.968   7.910  12.904
61018W        W31618   6.986  22.749   3.738
61019W        W31619  12.421  17.662   0.321
61020W        W31620   7.158  44.797   1.799
61021W        W31621  21.480  35.064   2.959
61022W        W31622  36.924  13.047  14.322
61023W        W31623   8.501  44.329  11.386
61024W        W31624   4.464   1.220   0.195
61025W        W31625  27.011   5.955  13.529
61026W        W31626  23.037  33.550  11.320
61027W        W31627   0.709  31.389   4.934
61028W        W31628  21.240  26.598  10.223
61029W        W31629  12.932   1.951   1.401
61030W        W31630  16.812  34.341   0.472
61031W        W31631  44.008  37.751  12.922
61032W        W31632  31.425  32.619  10.728
61033W        W31633   1.212  41.594  13.030
61034W        W31634  34.792  34.402  12.924
61035W        W31635  25.647   3.858   3.762
61036W        W31636  16.689   5.489  14.955
61037W        W31637   1.013  35.088  12.014
61038W        W31638  39.499  42.515  11.953
61039W        W31639  21.720  18.104  10.483
61040W        W31640  19.826  10.628  14.876
61041W        W31641  38.907  33.606   5.291
61042W        W31642  35.425   4.366  13.526
61043W        W31643  36.093   4.701  14.406
61044W        W31644   1.774  22.629   4.401
61045W        W31645  27.645   4.455   1.045
61046W        W31646  35.963  22.705   4.068
61047W        W31647  33.774  23.652  10.707
61048W        W31648  27.494   1.407  14.010
61049W        W31649   7.820   0.818  13.529
61050W        W31650   5.146  33.632   1.843
61051W        W31651  40.026   9.917  11.289
61052W        W31652  31.801  43.265   2.296
61053W        W31653  12.621  40.563   3.324
61054W        W31654  31.593  42.348   0.707
61055W        W31655   1.413  14.547  10.701
61056W        W31656   0.231  11.096  10.718
61057W        W31657  39.997  16.872  10.249
61058W        W31658  23.758  18.054   2.397
61059W        W31659  19.293  42.457   1.722
61060W        W31660   5.227  30.868  10.513
61061W        W31661  13.205   5.996   2.418
61062W        W31662  15.671  17.408   1.727
61063W        W31663   0.858  34.140  13.801
61064W        W31664  16.214  24.141  11.175
61065W        W31665   8.136   2.235  13.531
61066W        W31666  10.644  19.583  11.816
61067W        W31667  38.384  41.057  13.320
61068W        W31668  25.874  44.290   4.192
61069W        W31669  21.058  34.483  12.220
61070W        W31670  16.052  10.700  11.899
61071W        W31671   7.963  39.885  14.400
61072W        W31672  10.962  22.692   0.469
61073W        W31673  44.940  25.577   4.311
61074W        W31674  27.194  23.642  13.775
61075W        W31675   0.820   9.254  10.691
61076W        W31676  24.482  19.616  10.674
61077W        W31677  40.214   8.803   4.472
61078W        W31678  13.641   9.273   4.902
61079W        W31679  12.665  13.700  13.138
61080W        W31680   0.940  21.594  14.246
61081W        W31681  35.408  40.005  14.768
61082W        W31682  40.869  31.647  13.333
61083W        W31683  37.324  32.402   0.436
61084W        W31684  43.265   6.610   0.431
61085W        W31685  14.324  26.111   0.967
61086W        W31686  33.075  33.940  12.970
61087W        W31687  18.302  41.994   0.926
61088W        W31688  12.639  42.347   0.492
61089W        W31689  16.068  37.231  10.178
61090W        W31690  31.213  20.125  14.726
61091W        W31691  43.256   3.323  13.257
61092W        W31692  10.042  23.750   9.943
61093W        W31693  26.526  33.477  10.702
61094W        W31694  23.747  13.955  12.949
61095W        W31695   3.706  43.684   3.730
61096W        W31696  21.550   5.467  13.299
61097W        W31697  44.617  21.216  14.586
61098W        W31698  42.573   3.438  10.749
61099W        W31699   2.269  33.118  12.524
61100W        W31700  33.507  20.272   0.406
61101W        W31701  34.366   7.844  10.889
61102W        W31702  20.083  32.880  14.129
61103W        W31703  34.983  13.586  14.914
61104W        W31704  10.801  39.959   0.536
61105W        W31705  34.019  15.033   1.912
61106W        W31706  25.074  26.651  10.783
61107W        W31707  30.170  12.587  11.596
61108W        W31708  31.957  42.729   2.192
61109W        W31709  28.541  35.327   3.740
61110W        W31710  35.055  22.576   2.151
61111W        W31711   2.993  20.712  13.599
61112W        W31712   7.894  17.949   1.874
61113W        W31713   3.708  22.556   1.374
61114W        W31714  44.457  32.171  12.920
61115W        W31715  26.988  28.952   4.082
61116W        W31716  38.246  31.212   0.333
61117W        W31717  40.085  37.255   1.379
61118W        W31718  31.590  31.432  12.996
61119W        W31719   3.670  15.354   0.786
61120W        W31720  31.778  21.277   4.172
61121W        W31721  10.341   6.667   1.414
61122W        W31722  12.615  21.566  13.415
61123W        W31723  28.717  24.923  14.345
61124W        W31724   2.735   7.619   0.981
61125W        W31725  41.650  34.981   0.870
61126W        W31726  15.251  33.341   3.663
61127W        W31727  44.718  32.103  10.597
61128W        W31728  44.752  38.581  14.425
61129W        W31729  41.288  43.756   0.826
61130W        W31730  31.392   2.232   1.913
61131W        W31731  35.997  17.015   1.717
61132W        W31732  16.197  16.667   4.862
61133W        W31733  31.393  44.904   4.635
61134W        W31734  28.647   1.089   2.271
61135W        W31735   5.165  24.122  13.551
61136W        W31736  18.398   9.836   3.980
61137W        W31737   1.095  30.067  14.020
61138W        W31738  30.107  37.994   2.675
61139W        W31739  15.217   3.662   4.141
61140W        W31740  39.004  22.755  11.065
61141W        W31741  33.813  36.914  12.445
61142W        W31742   1.354   9.812   4.685
61143W        W31743  16.381   8.048  13.458
61144W        W31744   9.094   9.273   0.077
61145W        W31745  14.004  39.074   0.123
61146W        W31746  33.634  37.430   4.012
61147W        W31747  14.725  16.318  10.740
61148W        W31748  32.786  18.206  13.956
61149W        W31749  42.757   2.511   0.717
61150W        W31750   3.732  41.932  11.306
61151W        W31751  31.120  32.053  13.062
61152W        W31752  41.476  34.851   2.299
61153W        W31753   4.423  11.500  10.468
61154W        W31754  44.523   9.243   4.174
61155W        W31755  20.320  12.292  12.375
61156W        W31756  12.732  26.759  10.432
61157W        W31757  35.446  11.073   4.156
61158W        W31758  12.814  23.139   1.716
61159W        W31759  10.389  37.592   4.934
61160W        W31760  28.439   8.181  10.958
61161W        W31761  12.477  40.046  13.326
61162W        W31762   6.880  25.017  12.914
61163W        W31763  18.660  31.952   3.392
61164W        W31764  20.647  20.960   3.602
61165W        W31765  20.257  14.604   0.647
61166W        W31766  18.220  29.730  13.483
61167W        W31767  21.580  44.257  13.481
61168W        W31768  42.609  34.597  12.341
61169W        W31769   3.264  38.378   4.197
61170W        W31770  21.085  26.195  12.473
61171W        W31771  42.930   4.167  10.358
61172W        W31772  16.773  17.342   4.768
61173W        W31773  30.123  30.396  11.583
61174W        W31774   1.221  38.642  14.923
61175W        W31775  16.285  36.334  11.091
61176W        W31776  43.758  25.727   4.378
61177W        W31777  14.367  22.797   1.298
61178W        W31778   3.921   3.949   3.133
61179W        W31779   3.781  13.258   4.077
61180W        W31780  25.429  14.637  13.496
61181W        W31781  19.466  35.051   1.211
61182W        W31782  35.522   6.577  14.196
61183W        W31783  18.096  25.242  11.536
61184W        W31784  27.387   5.863   4.149
61185W        W31785   8.891  28.410  11.144
61186W        W31786  24.810   0.430  10.443
61187W        W31787  17.654   2.680  14.983
61188W        W31788  22.171  29.564   2.745
61189W        W31789  22.117   8.903  12.160
61190W        W31790  16.194  44.393   1.379
61191W        W31791   5.273   1.311  10.729
61192W        W31792  39.826  42.712  11.135
61193W        W31793   1.492  36.207  13.966
61194W        W31794  22.534   3.158  13.567
61195W        W31795  40.201  37.054  11.154
61196W        W31796  10.816  15.326   1.839
61197W        W31797  22.001   5.405   0.968
61198W        W31798  18.750  19.726  11.372
61199W        W31799  31.640  14.266   2.872
61200W        W31800  33.141   4.303  12.974
61201W        W31801  15.110  16.308   2.407
61202W        W31802  26.937  34.200  13.030
61203W        W31803  39.281  29.407   3.650
61204W        W31804   1.716   3.867  11.561
61205W        W31805  37.236  30.672  13.613
61206W        W31806  11.781  31.464  10.523
61207W        W31807  13.750  42.878  13.079
61208W        W31808  24.524  42.922  12.705
61209W        W31809  41.799  22.654   0.917
61210W        W31810  31.450  27.612   3.722
61211W        W31811  43.815  15.069   4.722
61212W        W31812   7.424  40.507   4.084
61213W        W31813  21.278  11.213  13.101
61214W        W31814  28.395  17.244   0.694
61215W        W31815  11.323   9.653  13.832
61216W        W31816  28.482  25.140  14.797
61217W        W31817   7.650  10.281  13.537
61218W        W31818  34.698  25.126  11.583
61219W        W31819  17.198  10.261  14.458
61220W        W31820  38.899  37.325   3.194
61221W        W31821  21.512  20.229  11.631
61222W        W31822  20.487  34.419   2.563
61223W        W31823  33.937   7.075   3.936
61224W        W31824  17.109  22.614  12.310
61225W        W31825   5.436  44.228   4.071
61226W        W31826  18.279   9.995   0.538
61227W        W31827  39.450  43.169   1.796
61228W        W31828  17.092  37.261   0.452
61229W        W31829  20.072  30.998   4.603
61230W        W31830  34.411  17.927   4.786
61231W        W31831  29.078  10.156  13.355
61232W        W31832  20.880  25.171  11.944
61233W        W31833  15.647   6.231   1.339
61234W        W31834  29.538  26.109  14.871
61235W        W31835  38.016  29.632   0.835
61236W        W31836  17.526  23.009  14.838
61237W        W31837  29.584  26.081   4.553
61238W        W31838  14.273  44.384   1.652
61239W        W31839  20.006  16.211  14.228
61240W        W31840  13.779  32.800   4.066
61241W        W31841  30.653  29.880   0.932
61242W        W31842  31.118  44.394  10.144
61243W        W31843  16.833  11.038  12.456
61244W        W31844  21.550   1.878  14.351
61245W        W31845  10.167  30.469   1.103
61246W        W31846  12.275   4.361   0.249
61247W        W31847   9.675  21.122   0.495
61248W        W31848  27.440  30.705   2.709
61249W        W31849  31.680   9.324   3.271
61250W        W31850  24.806   4.156  11.969
61251W        W31851  17.695  15.571   0.463
61252W        W31852   0.425  32.411   4.102
61253W        W31853  26.865  14.690  13.371
61254W        W31854  37.437  23.668   1.129
61255W        W31855  39.465  10.144   2.220
61256W        W31856  16.820   6.184   3.693
61257W        W31857  10.056  21.795   4.197
61258W        W31858  38.419  32.685   3.170
61259W        W31859   7.229  26.156  13.273
61260W        W31860  29.195  39.414   4.594
61261W        W31861  43.753  38.099   2.841
61262W        W31862   0.770  11.464  12.376
61263W        W31863  40.385  13.307   0.965
61264W        W31864  43.653  27.233  14.734
61265W        W31865  14.043  25.602  11.590
61266W        W31866  18.931   0.132   0.070
61267W        W31867  40.633   6.780  14.063
61268W        W31868  38.431  20.158   0.836
61269W        W31869   9.624  29.568  11.227
61270W        W31870  31.869  22.141  11.595
61271W        W31871   6.017  44.968  12.067
61272W        W31872  31.398  29.013  14.898
61273W        W31873  13.673  43.381  14.918
61274W        W31874  41.182  11.597  14.444
61275W        W31875  40.505  43.042   4.490
61276W        W31876  13.643   9.562   1.328
61277W        W31877  20.824   6.743  11.665
61278W        W31878  27.652   0.072   0.490
61279W        W31879  44.988  40.505  11.532
61280W        W31880  16.816  40.013  11.554
61281W        W31881  11.236   1.800   0.724
61282W        W31882   9.115  37.036   1.226
61283W        W31883  32.549  22.003  10.746
61284W        W31884  32.109   1.330   4.222
61285W        W31885  44.752  24.542  14.731
61286W        W31886  42.075   3.189   3.637
61287W        W31887  31.600  26.456  12.969
61288W        W31888  13.193  23.515   1.430
61289W        W31889  34.395  17.953  12.417
61290W        W31890  24.041  14.899  13.214
61291W        W31891   2.495  39.400  14.921
61292W        W31892  16.681   4.371  13.447
61293W        W31893  17.488  11.729   2.756
61294W        W31894  42.374  38.873   1.786
61295W        W31895  15.186  42.041   0.846
61296W        W31896   1.717  25.175   2.683
61297W        W31897  25.465  29.183   3.163
61298W        W31898  18.017  38.052   2.798
61299W        W31899   9.850   1.364   2.123
61300W        W31900  17.353   5.911   3.207
61301W        W31901  17.193  20.272  10.391
61302W        W31902  19.028   3.225   0.260
61303W        W31903   7.646   5.228  10.597
61304W        W31904   5.903   1.607   0.477
61305W        W31905   1.718  20.201  10.533
61306W        W31906   9.597   9.657  12.270
61307W        W31907  19.463   4.291  13.995
61308W        W31908  30.836   7.160   1.721
61309W        W31909  31.420  42.569  11.223
61310W        W31910  12.885  31.997  11.593
61311W        W31911  41.973   5.927   2.787
61312W        W31912   6.280  23.481   2.344
61313W        W31913   4.458  35.051   3.704
61314W        W31914  44.533  37.251   2.338
61315W        W31915  36.998  22.757   2.143
61316W        W31916  31.981  36.386   1.550
61317W        W31917  39.013   3.239   2.775
61318W        W31918  43.036  41.509   0.866
61319W        W31919  41.864  21.755  13.318
61320W        W31920  40.530  15.617   1.095
61321W        W31921   8.754  11.888  13.972
61322W        W31922  43.115  18.647  14.369
61323W        W31923  27.966   4.939  12.530
61324W        W31924  10.806  21.432   4.120
61325W        W31925  36.923  33.467   0.475
61326W        W31926  37.909  19.566   5.054
61327W        W31927  15.850  12.603   2.476
61328W        W31928  31.966  24.589   1.396
61329W        W31929  17.649  36.551  11.630
61330W        W31930  33.479   1.080  11.634
61331W        W31931  28.562  37.316  12.068
61332W        W31932  20.587  36.318  13.060
61333W        W31933  31.312  24.803   4.190
61334W        W31934  20.094  23.158  12.807
61335W        W31935  37.303  34.141   3.746
61336W        W31936  22.777  31.715   1.930
61337W        W31937  38.577   8.609   1.494
61338W        W31938  34.922   6.681   1.333
61339W        W31939  20.611  15.078   1.691
61340W        W31940  13.495  16.159  14.747
61341W        W31941  41.876  24.776   4.534
61342W        W31942  40.386  19.182  13.995
61343W        W31943   8.031  17.804  11.413
61344W        W31944  31.559  10.461   2.249
61345W        W31945  43.981  23.071   3.044
61346W        W31946   9.931  38.265   0.804
61347W        W31947   0.248   9.844   2.506
61348W        W31948  24.035  19.313  10.566
61349W        W31949  27.720  29.961   0.857
61350W        W31950   8.586  18.519  14.921
61351W        W31951  42.908  33.933  13.942
61352W        W31952  40.091  30.585  10.746
61353W        W31953  11.132  43.023  10.995
61354W        W31954  28.978   6.285  11.352
61355W        W31955  17.404   7.712  12.514
61356W        W31956  16.311  37.001  10.571
61357W        W31957   3.729   5.359   1.990
61358W        W31958  21.988  43.317  10.699
61359W        W31959   4.389   9.252  14.980
61360W        W31960  27.620   8.604  13.091
61361W        W31961  20.193  35.399   0.952
61362W        W31962  38.516  40.534   2.972
61363W        W31963  29.405   2.202   1.802
61364W        W31964  34.487   6.675  14.986
61365W        W31965  17.271  13.287  10.670
61366W        W31966  18.263  40.063   1.445
61367W        W31967  27.117  37.825  14.639
61368W        W31968   5.664  21.053   1.387
61369W        W31969  17.232  28.862  12.525
61370W        W31970   2.049  40.884   3.676
61371W        W31971  42.845  41.585  12.014
61372W        W31972   6.105  29.556  12.685
61373W        W31973  32.594  19.697   2.573
61374W        W31974  21.558  15.435   0.906
61375W        W31975  37.505  29.228  12.782
61376W        W31976  39.431   5.696  10.685
61377W        W31977  10.373  24.910   3.247
61378W        W31978  16.175  10.992  13.501
61379W        W31979  18.077  18.834   1.469
61380W        W31980  14.919  20.021  12.063
61381W        W31981  34.148   9.959   1.093
61382W        W31982  15.268  26.837   5.162
61383W        W31983  40.354  21.694   4.049
61384W        W31984  43.776  38.335  13.493
61385W        W31985  11.848  43.910   4.166
61386W        W31986  12.370   1.803  13.315
61387W        W31987  10.285  40.847  13.847
61388W        W31988  43.828   0.942   2.152
61389W        W31989   4.394  11.335   0.715
61390W        W31990   8.185  25.990  11.756
61391W        W31991  41.278  30.872  13.394
61392W        W31992  12.074  17.105   3.691
61393W        W31993   2.219  18.041  11.081
61394W        W31994  35.552  12.280   0.722
61395W        W31995  17.345   8.412   3.361
61396W        W31996  11.430  27.737   0.025
61397W        W31997   7.421  44.731  11.594
61398W        W31998   9.240  15.011  11.426
61399W        W31999  28.425  23.176  11.218
61400W        W32000  27.461  14.789  11.589
61401W        W32001  29.991  31.898   1.735
61402W        W32002  26.997  42.858  13.849
61403W        W32003  21.624  12.337  14.925
61404W        W32004  30.343  13.899   4.168
61405W        W32005  32.254  24.410   4.220
61406W        W32006  22.201  20.204   1.473
61407W        W32007  20.047   9.408   4.162
61408W        W32008   9.340   9.239  12.067
61409W        W32009  39.475  24.096  10.506
61410W        W32010   4.489  15.946   1.805
61411W        W32011  36.031   7.201   3.153
61412W        W32012  21.273   4.677  10.535
61413W        W32013  42.729  35.043   2.778
61414W        W32014  15.752  15.760  13.842
61415W        W32015  25.715  39.699  11.601
61416W        W32016  38.990  39.486   3.181
61417W        W32017  29.044  17.367  11.465
61418W        W32018  27.163  35.010   3.993
61419W        W32019   1.852  23.969   0.668
61420W        W32020  17.839   4.427   1.859
61421W        W32021   0.759   5.953   2.986
61422W        W32022  26.912  10.177  13.471
61423W        W32023  26.206  33.959   4.846
61424W        W32024  25.668  26.261  14.905
61425W        W32025  18.787   2.619  11.567
61426W        W32026  25.705  18.703   1.288
61427W        W32027  33.156  41.339   0.819
61428W        W32028   7.314  36.386   3.222
61429W        W32029  40.645   1.974   4.944
61430W        W32030  38.752  26.915  10.846
61431W        W32031  18.328  41.354   1.374
61432W        W32032  29.474  43.655  13.399
61433W        W32033  33.397  18.559   4.207
61434W        W32034  41.014   3.414  10.673
61435W        W32035  25.092  34.868  11.513
61436W        W32036  24.210  44.919  13.990
61437W        W32037  16.570   2.421   0.258
61438W        W32038  34.122  28.459   4.531
61439W        W32039  25.454  35.728  14.634
61440W        W32040   9.939  40.418  14.764
61441W        W32041  14.981  17.171   3.712
61442W        W32042  42.260   6.811   4.746
61443W        W32043  21.752  21.941  10.807
61444W        W32044  13.066  33.145   0.262
61445W        W32045  38.712   3.798   0.083
61446W        W32046  42.810  34.604  10.704
61447W        W32047  19.582   0.825  12.011
61448W        W32048   0.305  42.594  11.148
61449W        W32049  41.056  27.491   0.383
61450W        W32050  24.855   4.561  12.959
61451W        W32051  18.218  19.329   1.419
61452W        W32052  13.744  18.240   2.332
61453W        W32053  21.725  29.484  11.592
61454W        W32054  18.319  29.511  14.337
61455W        W32055  23.135  15.658   0.434
61456W        W32056  17.952  14.671   5.280
61457W        W32057  17.096  33.441   2.820
61458W        W32058   4.991   6.680   3.284
61459W        W32059  36.305  35.532  14.828
61460W        W32060  18.118  27.663  14.802
61461W        W32061   4.788   0.277  14.875
61462W        W32062  36.571  20.654  13.450
61463W        W32063  15.668  35.737   1.481
61464W        W32064   7.606   5.415   0.419
61465W        W32065  19.712  26.246  14.063
61466W        W32066  25.110  42.322  14.845
61467W        W32067  18.632   9.913  11.941
61468W        W32068  28.011   1.870   0.210
61469W        W32069  16.808   8.875   3.789
61470W        W32070  22.653  26.415   0.783
61471W        W32071  25.020  44.073  11.264
61472W        W32072  33.625  43.417  14.813
61473W        W32073  34.602  44.318   2.208
61474W        W32074  42.001   8.212  10.656
61475W        W32075  26.209  43.608  12.048
61476W        W32076   5.352  18.339  14.829
61477W        W32077   3.373  28.423  14.855
61478W        W32078  26.935  11.926  13.092
61479W        W32079  33.010   5.980   0.283
61480W        W32080  10.192  44.727  13.398
61481W        W32081  38.024   6.320  13.012
61482W        W32082  18.139  31.018   4.594
61483W        W32083  20.788  17.105  10.717
61484W        W32084  42.730  28.616   1.245
61485W        W32085  35.873  16.389   0.105
61486W        W32086  26.784  18.333  11.149
61487W        W32087  25.209  37.113   3.603
61488W        W32088  34.349   8.636   1.485
61489W        W32089  23.269  21.522  12.212
61490W        W32090   6.638  33.117   2.604
61491W        W32091  19.024   3.324   2.198
61492W        W32092  34.805  34.922  14.330
61493W        W32093  33.148   1.805   1.315
61494W        W32094  23.692  18.603   1.446
61495W        W32095  41.898  29.172  11.319
61496W        W32096   7.973   1.881   4.716
61497W        W32097  18.058  20.707   0.248
61498W        W32098  12.291  14.367   1.955
61499W        W32099  15.789  31.182   0.499
61500W        W32100  38.458  25.874  13.047
61501W        W32101  16.859  41.490   3.303
61502W        W32102  13.718  21.598  14.196
61503W        W32103  16.678  18.710   4.247
61504W        W32104  23.747  29.055   1.564
61505W        W32105  10.741   7.917   2.437
61506W        W32106  35.435  42.760   2.069
61507W        W32107  18.350  21.762  12.216
61508W        W32108   5.959  33.829   5.015
61509W        W32109  28.099  34.925   1.329
61510W        W32110  34.653  20.238  14.473
61511W        W32111  19.182   4.288  10.830
61512W        W32112  20.476   7.603   0.490
61513W        W32113  10.381  27.506   0.118
61514W        W32114  29.551  11.341   3.581
61515W        W32115  11.588  29.523  13.884
61516W        W32116  16.791  36.297   0.445
61517W        W32117  10.767   1.457   3.065
61518W        W32118   0.933  30.094  10.634
61519W        W32119  17.190   2.762   0.182
61520W        W32120   4.662  16.673  12.047
61521W        W32121  26.981  42.621  11.132
61522W        W32122  43.904   5.619  10.732
61523W        W32123   4.763  40.302  14.584
61524W        W32124   0.790  11.941   3.810
61525W        W32125  21.594  19.114  14.896
61526W        W32126  28.165  19.009   4.488
61527W        W32127  31.098   1.256   3.874
61528W        W32128  39.749  38.456  12.404
61529W        W32129  28.274  43.091  11.099
61530W        W32130  22.932   4.355  12.541
61531W        W32131   7.918  23.313  12.419
61532W        W32132  31.405  23.972  10.638
61533W        W32133  40.037  22.081   0.949
61534W        W32134   8.637   2.209  14.483
61535W        W32135  28.717   7.186  10.996
61536W        W32136   7.790  33.436   1.915
61537W        W32137   2.867   6.883  10.365
61538W        W32138   8.865  23.906  12.148
61539W        W32139   7.911  19.335  11.093
61540W        W32140   2.686   4.784  13.508
61541W        W32141  27.516   5.144   4.213
61542W        W32142   2.654  14.405   2.379
61543W        W32143  17.197  21.515   1.190
61544W        W32144  41.314  24.836   1.045
61545W        W32145  27.488  39.048  10.682
61546W        W32146   2.814  11.202  11.125
61547W        W32147  25.126   6.920  14.072
61548W        W32148  16.590  33.707  13.517
61549W        W32149  20.320  41.405   3.631
61550W        W32150  40.313  39.628  14.527
61551W        W32151  28.292  44.754  12.640
61552W        W32152  40.010   4.870   3.359
61553W        W32153   1.322  27.007  10.969
61554W        W32154  29.586  41.445   2.986
61555W        W32155   0.386  24.222  13.848
61556W        W32156  15.783  17.024   1.407
61557W        W32157  31.144  41.096   2.152
61558W        W32158  29.784  12.783  10.354
61559W        W32159   1.924  35.600  10.883
61560W        W32160  11.147  20.348  14.846
61561W        W32161  26.046  22.003  13.955
61562W        W32162   3.002  15.395  13.417
61563W        W32163  33.461   8.519  13.357
61564W        W32164  37.876  21.060  14.276
61565W        W32165  10.593  38.359   0.347
61566W        W32166  39.318  13.320   1.653
61567W        W32167   2.869  14.291  12.965
61568W        W32168  32.484  41.891  13.364
61569W        W32169  42.825  19.780   3.520
61570W        W32170  28.108   9.409  12.895
61571W        W32171  23.461   3.926  14.811
61572W        W32172  16.526  42.062   1.019
61573W        W32173   7.807   5.527   4.580
61574W        W32174  12.287  23.228   0.843
61575W        W32175  31.319  34.211  13.047
61576W        W32176  37.248  35.374   2.012
61577W        W32177  33.395   2.483  12.992
61578W        W32178  35.604   7.981   1.789
61579W        W32179  21.999   7.669   2.336
61580W        W32180  31.479  22.190   1.312
61581W        W32181  18.623   3.223  12.993
61582W        W32182  21.882  34.796  12.441
61583W        W32183  26.697  41.060   0.167
61584W        W32184  18.515  36.853   3.744
61585W        W32185  15.581  30.938  14.954
61586W        W32186  17.277  39.263   0.435
61587W        W32187   0.459   8.664  12.049
61588W        W32188  31.131  30.592   4.548
61589W        W32189  29.835  37.943   3.141
61590W        W32190   1.675  11.887  13.086
61591W        W32191  38.487   1.901  13.486
61592W        W32192  20.021  22.767  10.188
61593W        W32193  29.632   6.367   0.986
61594W        W32194   5.399  18.362   3.432
61595W        W32195   4.808  43.972   0.985
61596W        W32196  38.955  19.895   3.184
61597W        W32197  35.908  42.996  11.881
61598W        W32198  35.902   4.280  13.346
61599W        W32199   5.207  33.322   2.672
61600W        W32200  12.969  35.850  14.389
61601W        W32201   5.857  25.900  13.696
61602W        W32202  24.306   1.893  11.215
61603W        W32203   8.152  44.720   0.849
61604W        W32204  15.266   5.639   1.054
61605W        W32205  30.068  14.313  12.511
61606W        W32206  40.781  41.922  11.554
61607W        W32207  26.498  13.478   4.632
61608W        W32208  40.493  21.374   3.377
61609W        W32209  43.839  35.546   3.167
61610W        W32210  15.989   2.391  12.966
61611W        W32211  27.197   7.938  12.561
61612W        W32212  33.126  14.727  13.352
61613W        W32213  32.940  35.867  12.345
61614W        W32214  29.188  42.620  12.143
61615W        W32215   7.773  18.982  12.597
61616W        W32216  37.107   4.999  14.332
61617W        W32217  16.543   9.614  13.537
61618W        W32218   8.448  27.503  11.992
61619W        W32219  33.514  35.796  12.901
61620W        W32220  34.282  19.629   4.954
61621W        W32221  43.297  32.616  14.837
61622W        W32222  20.811  19.906   0.510
61623W        W32223  12.333  21.675   1.739
61624W        W32224  28.964  15.094  13.755
61625W        W32225  31.214  42.396  13.349
61626W        W32226  21.059  38.167  14.550
61627W        W32227  38.348  41.556  13.409
61628W        W32228  11.191   6.994   1.881
61629W        W32229   1.426  12.110   2.837
61630W        W32230  15.796   4.267  12.931
61631W        W32231   2.464   5.229   2.367
61632W        W32232  31.859  36.103   2.762
61633W        W32233  35.211  36.864   2.397
61634W        W32234  35.848  24.033  13.147
61635W        W32235  21.740   5.260  12.328
61636W        W32236  44.890  18.049  10.705
61637W        W32237  22.758   3.471   0.682
61638W        W32238  12.267  11.336  14.771
61639W        W32239   7.903  12.627   0.815
61640W        W32240  24.599  18.729  12.056
61641W        W32241  10.689   5.176  12.041
61642W        W32242  30.461  18.293   3.823
61643W        W32243  40.343  35.173  13.454
61644W        W32244  17.997  24.520  10.168
61645W        W32245  21.262  31.617   4.730
61646W        W32246  31.647   3.927  11.043
61647W        W32247  35.926   4.777  11.387
61648W        W32248  29.492  10.266   4.494
61649W        W32249  32.560  26.375   2.158
61650W        W32250   2.389  11.279   4.799
61651W        W32251   5.956   2.144   0.445
61652W        W32252  35.111  17.155  14.420
61653W        W32253  38.930  39.222  14.915
61654W        W32254  13.240  13.795  13.938
61655W        W32255  20.174  11.683  13.671
61656W        W32256   0.007   2.973   0.738
61657W        W32257  21.742  10.647   4.186
61658W        W32258  26.542  26.240  10.790
61659W        W32259  38.003  37.858  11.423
61660W        W32260  20.515   9.169   0.476
61661W        W32261  32.635   2.196   3.635
61662W        W32262  21.231  39.012   4.620
61663W        W32263   8.791   9.690  11.426
61664W        W32264   2.069   4.193   3.765
61665W        W32265  34.899  21.512  12.044
61666W        W32266  29.453  17.339  11.136
61667W        W32267   2.420  40.002   1.931
61668W        W32268  25.777  15.827  12.890
61669W        W32269  42.532  29.549   5.114
61670W        W32270  27.655  43.090   2.375
61671W        W32271  12.953  37.945  12.282
61672W        W32272   6.867  15.843   2.405
61673W        W32273   6.968  10.307   2.640
61674W        W32274  16.411  35.580  14.801
61675W        W32275  13.348  36.828   4.744
61676W        W32276  25.162  29.955  13.263
61677W        W32277  14.628  39.505   2.336
61678W        W32278  40.849  22.788  10.746
61679W        W32279   1.775  29.118  14.398
61680W        W32280  43.387  38.713  14.835
61681W        W32281  12.595  36.085   0.089
61682W        W32282   6.420  25.021  11.609
61683W        W32283  12.298  29.693  13.349
61684W        W32284   0.837  23.181  14.587
61685W        W32285  29.180  38.974  14.918
61686W        W32286   7.420   7.289   3.733
61687W        W32287   3.845  29.058   3.946
61688W        W32288   8.895  27.003   1.911
61689W        W32289  11.981  36.856  13.731
61690W        W32290  25.144   4.229  13.596
61691W        W32291  12.167  12.039  11.166
61692W        W32292  31.541  31.815  13.368
61693W        W32293  16.113  35.591  10.454
61694W        W32294  27.659   8.941   3.596
61695W        W32295  42.643  33.903  13.019
61696W        W32296   3.780  14.376  10.969
61697W        W32297  34.136  24.033  14.928
61698W        W32298  12.409   1.911   3.623
61699W        W32299  44.325  14.104   0.366
61700W        W32300  38.107  35.037   2.270
61701W        W32301  19.112  27.467  12.916
61702W        W32302  43.984  23.864  11.551
61703W        W32303  44.339  28.557   2.579
61704W        W32304   4.485  22.563  12.603
61705W        W32305  11.797  13.321   2.159
61706W        W32306   9.253  20.450   4.610
61707W        W32307  38.557   1.364  10.454
61708W        W32308  35.158  26.884  10.690
61709W        W32309   0.965   7.663   3.646
61710W        W32310  15.162  32.302  10.913
61711W        W32311  11.805  27.414  14.851
61712W        W32312  15.335   5.738  13.564
61713W        W32313   7.692  17.660  10.622
61714W        W32314   0.481   2.751  12.182
61715W        W32315  36.323  24.205  13.972
61716W        W32316  25.911  10.327   1.728
61717W        W32317  19.433  36.136   3.748
61718W        W32318   5.201   5.977  10.801
61719W        W32319  28.088   4.484   1.844
61720W        W32320  37.976  42.106  10.616
61721W        W32321  18.694  16.061   1.712
61722W        W32322  11.650   8.384   1.213
61723W        W32323  41.736  20.720  14.789
61724W        W32324  43.894  32.679  11.542
61725W        W32325  32.076  35.918   2.297
61726W        W32326  25.011   8.268  12.273
61727W        W32327  13.244  15.257  10.406
61728W        W32328  33.906  36.569   2.330
61729W        W32329  28.142  19.618  12.416
61730W        W32330  11.649  20.506  11.985
61731W        W32331   1.816   4.886  11.865
61732W        W32332   8.442   1.203  12.338
61733W        W32333   4.386  20.653   1.164
61734W        W32334   4.682  23.048  11.259
61735W        W32335  44.487  37.243   4.190
61736W        W32336  14.741  21.248  14.911
61737W        W32337  12.813  26.091   0.770
61738W        W32338  10.665  39.055  13.633
61739W        W32339  14.068   5.809   2.171
61740W        W32340  13.383  41.733   0.825
61741W        W32341  30.371  19.232   1.882
61742W        W32342  21.266  29.683  12.452
61743W        W32343  43.665  14.365  12.980
61744W        W32344  43.506  40.917  12.517
61745W        W32345  24.183  40.990  11.677
61746W        W32346   6.523  38.758   9.946
61747W        W32347  41.767  28.066  10.765
61748W        W32348  30.405  29.263   3.705
61749W        W32349   5.143  10.245   3.342
61750W        W32350  32.676   4.402   4.329
61751W        W32351   0.893  16.199  10.537
61752W        W32352  36.501  19.750   3.820
61753W        W32353  14.661  39.816   2.803
61754W        W32354  11.272  15.786  11.127
61755W        W32355  30.081  16.701   3.487
61756W        W32356  40.904  22.961   0.158
61757W        W32357   6.209  40.007   0.460
61758W        W32358  13.583  18.784  12.227
61759W        W32359   0.014   8.037   1.545
61760W        W32360  12.659  26.406   3.427
61761W        W32361   1.362   7.708  13.076
61762W        W32362  18.993  30.013   4.654
61763W        W32363   5.215  23.749  14.808
61764W        W32364  29.580  10.698   0.941
61765W        W32365  40.329  20.202  14.156
61766W        W32366  40.633  23.742   4.196
61767W        W32367  16.291   6.286   2.808
61768W        W32368  31.617  32.911  12.044
61769W        W32369   6.006  10.663   0.960
61770W        W32370   6.934   6.165  11.176
61771W        W32371  10.766  27.628   3.224
61772W        W32372  28.904  29.467  12.016
61773W        W32373  35.338  39.102  14.908
61774W        W32374  16.615  36.619  13.950
61775W        W32375  31.728  27.405  12.914
61776W        W32376  19.541  40.894  13.991
61777W        W32377   7.224   1.446   4.584
61778W        W32378   9.853  17.500   3.217
61779W        W32379  32.405  15.933  12.560
61780W        W32380  13.023  19.632  14.376
61781W        W32381  18.880  35.408  10.760
61782W        W32382  26.655  29.053  12.206
61783W        W32383  37.586  29.394   0.700
61784W        W32384  27.041   1.812  14.347
61785W        W32385  39.326  38.636  13.406
61786W        W32386   5.721  18.815  13.432
61787W        W32387  12.664  10.746  14.431
61788W        W32388  22.235  13.344  12.048
61789W        W32389  28.856   3.823   0.590
61790W        W32390  36.026  29.450   0.734
61791W        W32391  17.368   4.880  13.424
61792W        W32392  27.960  29.480   3.377
61793W        W32393  43.817  43.016  12.609
61794W        W32394  29.967   3.915  10.917
61795W        W32395  38.800  44.443   2.901
61796W        W32396  36.296  31.281   2.411
61797W        W32397   2.604  17.771  13.559
61798W        W32398  16.844  39.005  14.865
61799W        W32399  21.958   8.984   4.495
61800W        W32400   6.885  41.705  11.264
61801W        W32401  31.441  38.340  12.200
61802W        W32402  30.132   6.382   4.046
61803W        W32403  36.308  38.771  13.522
61804W        W32404  33.194   1.766  11.124
61805W        W32405  32.202  36.171  13.891
61806W        W32406  17.171  31.820   4.076
61807W        W32407  32.332  20.679   4.110
61808W        W32408   6.171   4.693   0.494
61809W        W32409   5.697   3.440   4.353
61810W        W32410  43.210  43.942   3.639
61811W        W32411  41.443   7.814  12.008
61812W        W32412  33.116  23.272   3.743
61813W        W32413  11.593  26.389   1.685
61814W        W32414  18.829  21.071  10.770
61815W        W32415  23.239  40.888   3.050
61816W        W32416   0.072  30.125  14.319
61817W        W32417  36.041  24.944  14.954
61818W        W32418  30.524   8.950   2.807
61819W        W32419  18.275  26.490   2.203
61820W        W32420  10.086  17.052   0.794
61821W        W32421  31.527  22.467   0.882
61822W        W32422  30.725   3.366   2.243
61823W        W32423  28.562   4.067   3.347
61824W        W32424  21.550  15.167   0.474
61825W        W32425   5.183  16.162  12.388
61826W        W32426  34.834  31.455  12.502
61827W        W32427  44.236  29.187  10.765
61828W        W32428  16.917   9.795  14.283
61829W        W32429  37.704  29.140   2.376
61830W        W32430  22.007  31.875   3.146
61831W        W32431  25.398  41.392  12.154
61832W        W32432  19.573   8.297   2.842
61833W        W32433   9.679   3.748   3.868
61834W        W32434  32.203  24.769  14.616
61835W        W32435  12.189   3.318  14.767
61836W        W32436  38.278   8.234   1.267
61837W        W32437  10.512  10.511   1.338
61838W        W32438  32.528  26.756  13.499
61839W        W32439   9.932   1.537   2.654
61840W        W32440  32.486  29.947   4.196
61841W        W32441  40.949  11.153   0.640
61842W        W32442   7.340  25.635  13.349
61843W        W32443  35.805  38.858  13.596
61844W        W32444  33.961  31.170  13.397
61845W        W32445  19.140   7.269   3.233
61846W        W32446  12.790  24.017  12.351
61847W        W32447  17.646  18.524  14.454
61848W        W32448  32.656   7.771   0.846
61849W        W32449  42.975  30.556  12.406
61850W        W32450   5.709  32.062   2.767
61851W        W32451  38.014  14.333   3.717
61852W        W32452   1.607   3.885   4.263
61853W        W32453  10.832  33.674   3.723
61854W        W32454  29.264  21.065   2.542
61855W        W32455  37.453  33.568  12.485
61856W        W32456  33.726  20.526  11.982
61857W        W32457  33.383  42.907   5.085
61858W        W32458  40.272  39.007   1.706
61859W        W32459   3.724  10.197   3.708
61860W        W32460  31.226  44.060   3.199
61861W        W32461   1.966   7.960   4.498
61862W        W32462  16.843  14.215   2.825
61863W        W32463  29.729  35.270   3.074
61864W        W32464  41.935  41.351  12.311
61865W        W32465  18.346  27.575   4.012
61866W        W32466  38.558  28.445   5.014
61867W        W32467  35.984  25.980   0.019
61868W        W32468   3.907   3.025  10.659
61869W        W32469  21.763  40.411   2.122
61870W        W32470  31.394  14.206   4.694
61871W        W32471  37.385  25.229   3.128
61872W        W32472  37.456  39.754  13.390
61873W        W32473   7.456  43.950  12.044
61874W        W32474  20.091   6.233   1.785
61875W        W32475  17.543  41.445   0.847
61876W        W32476   6.765  30.297   2.318
61877W        W32477  18.170  25.015   3.274
61878W        W32478   4.920  29.353  14.529
61879W        W32479  23.046  16.505  13.635
61880W        W32480  16.289   8.392  14.195
61881W        W32481   5.951   4.210  13.400
61882W        W32482  44.507  22.319   0.328
61883W        W32483   0.261  18.179  13.409
61884W        W32484  18.780  35.380   3.662
61885W        W32485  36.944   1.295  14.632
61886W        W32486  36.128  22.054   3.696
61887W        W32487   8.353  17.501  13.071
61888W        W32488   7.134   1.996  11.609
61889W        W32489  22.019   2.133  12.400
61890W        W32490  19.034  15.301   3.182
61891W        W32491  27.835   7.785   1.189
61892W        W32492   9.898  31.283  14.928
61893W        W32493  33.651  29.878  13.230
61894W        W32494  37.061   7.330   3.095
61895W        W32495  29.890   6.791   3.190
61896W        W32496  10.175   7.161  13.146
61897W        W32497   4.678  26.215   1.015
61898W        W32498   8.714   3.290   0.985
61899W        W32499  15.248  28.856  11.179
61900W        W32500  22.521  41.149  10.552
61901W        W32501  36.939   9.167  11.487
61902W        W32502  33.935  27.637   0.519
61903W        W32503  12.670   1.218   2.593
61904W        W32504  36.806  19.968   4.184
61905W        W32505  43.742  30.533  10.740
61906W        W32506   6.674   0.679   0.232
61907W        W32507   4.106  14.643   4.417
61908W        W32508   2.421   8.304   1.364
61909W        W32509  10.769  31.565   2.175
61910W        W32510   0.686  28.577   4.065
61911W        W32511   8.848  28.480   4.447
61912W        W32512  31.564  24.768   2.835
61913W        W32513  36.095  32.768   3.545
61914W        W32514  37.019   5.310  12.119
61915W        W32515   9.248  37.663  13.505
61916W        W32516  34.969   4.194  12.391
61917W        W32517  36.356  40.500   3.214
61918W        W32518  31.704   3.706  13.526
61919W        W32519  27.998  36.014   4.558
61920W        W32520  29.906  32.636  14.359
61921W        W32521   3.447  10.299   1.272
61922W        W32522   7.387  28.048   4.224
61923W        W32523   1.535  14.343  12.846
61924W        W32524  25.298  35.050  13.831
61925W        W32525  18.766  40.957  11.662
61926W        W32526  22.185  31.967  12.352
61927W        W32527  40.606  17.203  14.419
61928W        W32528   6.691  25.978   2.923
61929W        W32529  33.321  30.398   0.094
61930W        W32530  14.781   2.941   0.338
61931W        W32531  17.769  40.992   0.930
61932W        W32532  32.039  42.308  14.920
61933W        W32533  38.263  12.743  13.872
61934W        W32534  44.803  11.709   4.213
61935W        W32535  35.135   2.079   3.630
61936W        W32536  12.152  33.292   0.384
61937W        W32537  32.947  27.756  11.069
61938W        W32538  20.063  36.941   3.645
61939W        W32539  44.759  33.126  11.569
61940W        W32540  36.929  30.194   4.206
61941W        W32541  33.288  29.149  11.681
61942W        W32542  33.168  41.255   4.151
61943W        W32543  13.753   2.744   3.749
61944W        W32544  33.821  20.476  13.029
61945W        W32545  26.596  41.039   4.092
61946W        W32546   2.680  37.559  14.734
61947W        W32547  11.903  43.944  14.757
61948W        W32548  14.974  31.444  12.467
61949W        W32549  22.434  23.653  10.112
61950W        W32550  41.645  42.525  13.985
61951W        W32551  15.352  17.642  13.461
61952W        W32552  22.014  11.614  13.554
61953W        W32553  36.071  41.525  11.139
61954W        W32554  29.572  23.551   3.331
61955W        W32555  14.489  35.572   4.133
61956W        W32556  44.914  18.720   4.634
61957W        W32557  35.291  40.610  11.805
61958W        W32558  23.018  24.626  13.072
61959W        W32559  21.541  19.842  11.997
61960W        W32560  37.966  14.589   2.891
61961W        W32561  18.548  17.784  10.737
61962W        W32562  17.023  32.926   4.503
61963W        W32563  19.779  31.935  13.369
61964W        W32564   9.465  34.854   4.170
61965W        W32565  20.899   4.242   3.882
61966W        W32566  21.698   0.690  14.289
61967W        W32567  20.103   3.911   4.699
61968W        W32568  21.615   4.899  11.113
61969W        W32569  44.899  32.622  12.459
61970W        W32570  34.502   5.845  13.356
61971W        W32571  30.482  14.575  11.062
61972W        W32572  12.905  16.547   4.186
61973W        W32573  10.370   1.216   2.847
61974W        W32574  37.539  29.982   3.987
61975W        W32575  22.190  33.237   2.697
61976W        W32576  35.044  27.937   4.256
61977W        W32577   0.839  33.013  12.876
61978W        W32578   8.268  42.498  12.920
61979W        W32579   7.923  19.292  12.038
61980W        W32580   8.991  13.412  12.711
61981W        W32581  36.937  33.269   1.023
61982W        W32582  41.349  42.881   1.119
61983W        W32583  39.419  25.466   4.659
61984W        W32584  26.418  43.386   2.833
61985W        W32585   1.939  25.432  11.231
61986W        W32586  24.197  36.971   4.717
61987W        W32587   6.813  23.997  12.870
61988W        W32588  14.514  43.806  11.647
61989W        W32589  23.638  43.507  13.249
61990W        W32590  18.005  13.301  11.916
61991W        W32591  35.063  27.011  14.870
61992W        W32592  42.102   6.795  11.170
61993W        W32593  19.807  42.498   4.240
61994W        W32594  39.625  36.025  12.885
61995W        W32595  34.392  22.599  14.885
61996W        W32596   8.271  17.459   4.486
61997W        W32597  11.388  30.073  12.942
61998W        W32598   3.435   7.581  10.734
61999W        W32599  30.522  22.260  12.569
62000W        W32600   5.081  42.583  10.654
62001W        W32601   9.918  37.467   4.734
62002W        W32602  17.840  20.294   0.528
62003W        W32603   6.399  22.066  14.735
62004W        W32604  11.715  27.158   3.345
62005W        W32605  21.657  30.668   1.695
62006W        W32606  34.477  36.840   0.896
62007W        W32607  25.240  31.845  11.130
62008W        W32608  12.639   7.629   3.447
62009W        W32609  44.834  27.749  10.263
62010W        W32610  27.028  29.574   2.448
62011W        W32611   2.618   0.403  11.397
62012W        W32612  33.961  25.295  13.970
62013W        W32613   4.430   4.040   3.748
62014W        W32614   6.228  22.643   0.302
62015W        W32615  39.112  21.422  12.665
62016W        W32616  25.373  18.197  12.046
62017W        W32617  23.474   4.439  14.760
62018W        W32618   1.361  22.110  11.718
62019W        W32619  26.114   6.393  13.727
62020W        W32620  13.712  43.004   3.640
62021W        W32621   6.312  35.398   1.241
62022W        W32622  31.120  17.803   2.413
62023W        W32623  17.618  14.633   0.471
62024W        W32624  14.620  23.516   1.819
62025W        W32625  42.979  10.883   3.207
62026W        W32626  23.670  15.837  14.650
62027W        W32627   9.380  40.077   4.655
62028W        W32628  21.725  44.486   0.366
62029W        W32629  42.017  28.204   4.028
62030W        W32630   4.961  15.988   2.984
62031W        W32631  31.189   7.290  12.135
62032W        W32632   0.180  42.200  12.906
62033W        W32633  29.666  31.377  12.181
62034W        W32634  15.549  43.007  13.968
62035W        W32635  40.268  27.525   1.708
62036W        W32636  11.257  12.943  14.183
62037W        W32637  36.522  11.177   2.368
62038W        W32638   1.203  29.535  13.632
62039W        W32639   1.672  38.979   2.623
62040W        W32640  28.572   3.279   0.818
62041W        W32641  11.052  20.587  11.140
62042W        W32642  32.962  22.540  13.584
62043W        W32643  39.428  25.501  10.930
62044W        W32644  18.750  22.700  12.480
62045W        W32645  40.459  32.938   3.125
62046W        W32646  27.646  41.774   1.671
62047W        W32647  37.122   0.531   4.058
62048W        W32648   7.164  36.503  11.534
62049W        W32649  16.828  15.771  11.550
62050W        W32650   8.294   4.217   3.211
62051W        W32651  33.834  28.526   1.053
62052W        W32652  22.686  23.061  11.481
62053W        W32653  31.678  31.067  11.263
62054W        W32654  10.730  20.348  12.829
62055W        W32655  43.294  30.674   0.587
62056W        W32656  41.578   6.884  14.756
62057W        W32657  18.301   2.201  10.515
62058W        W32658   1.482  39.827  12.599
62059W        W32659  34.517  13.934   4.126
62060W        W32660  22.093  42.623  11.258
62061W        W32661  16.760  23.265  12.125
62062W        W32662  25.123  25.763  11.100
62063W        W32663  16.202  41.370   4.087
62064W        W32664  35.448  39.875  12.536
62065W        W32665  18.161   0.087   4.742
62066W        W32666  34.801   0.378  13.836
62067W        W32667  36.231  17.040  12.077
62068W        W32668  37.071  18.681   1.899
62069W        W32669  44.969   9.356   3.226
62070W        W32670  13.155  18.054   4.668
62071W        W32671  43.013  15.294  12.728
62072W        W32672   0.797  18.149   2.197
62073W        W32673  14.514  21.186  10.039
62074W        W32674  39.302  33.362   0.476
62075W        W32675  10.638   7.433   0.935
62076W        W32676  27.992   2.906  11.125
62077W        W32677  24.327  12.139   0.506
62078W        W32678  17.730  33.006  11.137
62079W        W32679  19.976  32.598  11.155
62080W        W32680   8.248  37.087   1.339
62081W        W32681   1.307  44.025  12.915
62082W        W32682  16.686  28.734  14.303
62083W        W32683  34.478  31.150  11.632
62084W        W32684  15.044  43.566   2.611
62085W        W32685  17.708  25.101   4.183
62086W        W32686  36.415  17.021   1.414
62087W        W32687  14.093  27.806   3.195
62088W        W32688  12.253  30.965   1.747
62089W        W32689  31.965   3.226   4.835
62090W        W32690  41.743   6.739   5.542
62091W        W32691  28.148  29.952   1.316
62092W        W32692  26.117  41.754  10.646
62093W        W32693  29.656   1.798   0.443
62094W        W32694  18.017  17.191   2.626
62095W        W32695  29.925   6.356   1.459
62096W        W32696   5.434   0.997  14.987
62097W        W32697   9.292  19.775  10.667
62098W        W32698  34.714  29.432  11.497
62099W        W32699  22.189  17.074   3.305
62100W        W32700  34.505  43.490   1.949
62101W        W32701  23.926   8.245   3.173
62102W        W32702  30.456  15.697   0.897
62103W        W32703  19.793  31.343   3.318
62104W        W32704  32.868   8.108  10.802
62105W        W32705  22.741  13.156  11.994
62106W        W32706  14.038  33.543  13.372
62107W        W32707   7.901  22.344   1.577
62108W        W32708  34.677  35.509   3.241
62109W        W32709  22.570  28.239  13.022
62110W        W32710  18.828  10.200   3.751
62111W        W32711   8.949  12.623   4.936
62112W        W32712  39.931  22.594   0.928
62113W        W32713  17.480  32.228   2.697
62114W        W32714  25.734   7.582   1.354
62115W        W32715  33.233  35.409  14.952
62116W        W32716  40.514   8.248   0.163
62117W        W32717   0.574   9.769  12.965
62118W        W32718   9.385  12.084  12.307
62119W        W32719  27.075  35.952  11.068
62120W        W32720  40.820  20.523   2.582
62121W        W32721  36.982  37.784  12.596
62122W        W32722  29.580  43.510   4.245
62123W        W32723  16.281  42.949  11.868
62124W        W32724  34.066  34.071   2.156
62125W        W32725  11.659  22.693   5.016
62126W        W32726  22.812  17.547  11.662
62127W        W32727  17.527  41.254  11.189
62128W        W32728  25.603  20.975  11.560
62129W        W32729  31.517   3.202  12.380
62130W        W32730   5.418  14.163  11.212
62131W        W32731  36.053  20.495  13.066
62132W        W32732  24.480  29.742  11.418
62133W        W32733  33.912  42.379  14.525
62134W        W32734  16.842   6.451  12.262
62135W        W32735  24.725  19.631   2.324
62136W        W32736  35.491  40.649   2.324
62137W        W32737  25.722   9.336   9.449
62138W        W32738  37.354  37.872   2.180
62139W        W32739  35.372  24.525   0.747
62140W        W32740  40.311  39.445  11.572
62141W        W32741  11.702  12.234  14.785
62142W        W32742  13.673  20.170  11.885
62143W        W32743  36.304  20.814  12.113
62144W        W32744  32.374  17.622   0.690
62145W        W32745  31.055  24.961   2.807
62146W        W32746  21.215   3.191   0.438
62147W        W32747  22.173  43.423   0.024
62148W        W32748  33.478  16.865  13.952
62149W        W32749   1.170   2.880   2.829
62150W        W32750  35.662  14.966  11.595
62151W        W32751   1.466  17.243   1.934
62152W        W32752  20.254  42.114   2.463
62153W        W32753  33.693  44.209  10.341
62154W        W32754   2.972  12.850   2.305
62155W        W32755  18.213   4.937  11.235
62156W        W32756  27.329  19.161   2.796
62157W        W32757   8.799  21.999   3.591
62158W        W32758   3.978  25.688  10.948
62159W        W32759  33.144  25.201  11.261
62160W        W32760   0.452   9.608   4.258
62161W        W32761  26.456  16.120  14.073
62162W        W32762  26.447  37.073   2.410
62163W        W32763  22.356  20.576  14.438
62164W        W32764   4.834  31.859   4.494
62165W        W32765  16.866  41.833  14.384
62166W        W32766  30.431   0.201   1.462
62167W        W32767  25.498  44.292  14.441
62168W        W32768  19.652  32.412   3.260
62169W        W32769  39.891   7.167   2.335
62170W        W32770  25.491  21.507  14.504
62171W        W32771   2.617  37.924   4.585
62172W        W32772  25.534   1.539  13.641
62173W        W32773  41.088   1.748  14.987
62174W        W32774  41.030  41.267   4.676
62175W        W32775  13.364   4.460   4.258
62176W        W32776  26.669  26.147   1.712
62177W        W32777  18.523  17.216   1.762
62178W        W32778   5.336  43.028   0.303
62179W        W32779  29.219  42.487   3.854
62180W        W32780  35.547  44.711  12.575
62181W        W32781  42.556  31.027   1.215
62182W        W32782   7.366  40.502   1.931
62183W        W32783  28.590  41.802  10.983
62184W        W32784   1.495  15.055   2.830
62185W        W32785  21.636  24.082   1.395
62186W        W32786  13.286  26.487   4.072
62187W        W32787  35.539  12.600   2.362
62188W        W32788  43.295  29.476   1.411
62189W        W32789  27.156  39.286   3.102
62190W        W32790  13.345  28.665   3.316
62191W        W32791  15.120   3.971  12.798
62192W        W32792  18.053   2.996  14.943
62193W        W32793  14.156   9.926  12.533
62194W        W32794  34.177   9.140  10.730
62195W        W32795   0.454  16.068   0.920
62196W        W32796  10.208  42.726   2.305
62197W        W32797  44.936  32.527  10.979
62198W        W32798   7.919  32.122   2.334
62199W        W32799  33.366  22.176   4.282
62200W        W32800  42.844  16.304   2.701
62201W        W32801   3.464   0.497   0.510
62202W        W32802  43.724   3.495   1.361
62203W        W32803   1.588  35.498  14.138
62204W        W32804   6.568  18.013  11.145
62205W        W32805  26.108  37.525  10.421
62206W        W32806  26.106  22.640   4.821
62207W        W32807  20.076  30.570  11.968
62208W        W32808  38.272   0.680  11.627
62209W        W32809  11.820  16.663   3.619
62210W        W32810   0.884  29.949  11.951
62211W        W32811  15.804  17.099  11.954
62212W        W32812   0.427  14.147  13.376
62213W        W32813   3.536  34.156  13.977
62214W        W32814   1.053  41.411   1.868
62215W        W32815   3.850  28.460  10.653
62216W        W32816  38.891  17.597   1.857
62217W        W32817  10.398  27.506  12.620
62218W        W32818   1.880  42.546   4.599
62219W        W32819   2.500  22.076   0.320
62220W        W32820  29.356   9.660  14.416
62221W        W32821  27.602  40.557  11.420
62222W        W32822  43.832  22.044  13.540
62223W        W32823  38.839  20.154  12.175
62224W        W32824  13.855  40.765   4.462
62225W        W32825  17.672  27.635   2.133
62226W        W32826  15.275  37.345  13.940
62227W        W32827  27.145  20.935  10.132
62228W        W32828  29.588   1.889   2.271
62229W        W32829  33.546   7.051   0.065
62230W        W32830  25.823   1.378  14.939
62231W        W32831  17.880   8.705   4.480
62232W        W32832   9.718   9.031  12.508
62233W        W32833   0.746  17.642   0.097
62234W        W32834   7.240   3.160  11.026
62235W        W32835   7.390   5.686   3.186
62236W        W32836  22.724  11.124  12.061
62237W        W32837  36.844  31.582  10.659
62238W        W32838   1.356  29.626   3.301
62239W        W32839  13.975   8.967   3.065
62240W        W32840  20.158  13.905   3.745
62241W        W32841  39.651  16.253   0.315
62242W        W32842  22.687  31.567   4.379
62243W        W32843  30.477  32.552  12.060
62244W        W32844  43.719  16.670   2.183
62245W        W32845  12.099  14.644  13.896
62246W        W32846  12.347  29.905  13.886
62247W        W32847  28.583  16.039  12.649
62248W        W32848  35.803  40.792   4.937
62249W        W32849  28.370  36.920   0.268
62250W        W32850  31.365   1.980  11.060
62251W        W32851   3.189  17.022  12.150
62252W        W32852  20.287  38.661   1.790
62253W        W32853  26.601  36.174  11.117
62254W        W32854  12.259  41.421  13.226
62255W        W32855   0.508  10.212  14.724
62256W        W32856  42.319  36.389  10.704
62257W        W32857  25.145   4.460   4.157
62258W        W32858   5.451  38.022   3.934
62259W        W32859   1.452   3.649  14.392
62260W        W32860  31.835  43.653   0.137
62261W        W32861  20.748  19.139   3.875
62262W        W32862   0.200  21.295  13.339
62263W        W32863  34.910  28.080   0.506
62264W        W32864  12.030   7.662   2.116
62265W        W32865   5.010  39.186   0.315
62266W        W32866   5.139  11.265  11.544
62267W        W32867  31.501   4.150   1.690
62268W        W32868  42.947  44.751   4.014
62269W        W32869  16.875   4.771  10.767
62270W        W32870  27.096  27.552   1.295
62271W        W32871  12.788  39.537  10.872
62272W        W32872   4.098  38.301  10.604
62273W        W32873  30.654   5.236   0.182
62274W        W32874  41.466  13.242  11.229
62275W        W32875  11.759  37.316  13.820
62276W        W32876   6.979  37.456  13.658
62277W        W32877  10.463  28.988  13.495
62278W        W32878   2.177  17.751  11.512
62279W        W32879   5.901   1.864  12.503
62280W        W32880  12.468   0.641  10.784
62281W        W32881  12.372  11.272  10.749
62282W        W32882  19.733   6.185   2.183
62283W        W32883   0.288  31.880  12.581
62284W        W32884  43.733  44.583  10.628
62285W        W32885  27.763  23.112   3.125
62286W        W32886  13.626  20.252  14.261
62287W        W32887  32.415  27.665   3.746
62288W        W32888  34.446  16.136   1.277
62289W        W32889  30.207  44.131   0.766
62290W        W32890   4.500  33.352   3.739
62291W        W32891  33.878   4.462  10.427
62292W        W32892  35.933   3.517  11.621
62293W        W32893  13.346   2.405   2.406
62294W        W32894  30.617  32.165  12.819
62295W        W32895   6.449  22.219   1.661
62296W        W32896  32.928  10.139  11.562
62297W        W32897   6.467  34.507   0.338
62298W        W32898  28.054   1.071   1.931
62299W        W32899  15.282   6.503  12.526
62300W        W32900   3.154  32.943   4.495
62301W        W32901  36.897  20.323   3.195
62302W        W32902  29.316   4.287   2.245
62303W        W32903  13.902  18.779  13.115
62304W        W32904  21.543  41.910   3.205
62305W        W32905  39.000  41.077   4.266
62306W        W32906  14.300   9.322   2.124
62307W        W32907   3.191  31.473  14.705
62308W        W32908  26.608  27.540  14.531
62309W        W32909  27.960  37.071   1.207
62310W        W32910   3.942  37.039  11.970
62311W        W32911  14.788  20.765  11.628
62312W        W32912  15.008  16.651  14.400
62313W        W32913   2.814   1.488   0.122
62314W        W32914   1.716  14.897   4.593
62315W        W32915  26.991  24.100  12.827
62316W        W32916  25.109  37.514   0.170
62317W        W32917  41.631  23.316   0.815
62318W        W32918  35.937  20.771   0.828
62319W        W32919  19.636  19.972   2.023
62320W        W32920  38.370  23.737   0.964
62321W        W32921  36.639  43.010  10.202
62322W        W32922  31.133  41.040   2.987
62323W        W32923  32.147  37.934   4.316
62324W        W32924   8.274  12.849  11.755
62325W        W32925   2.768  13.312  12.973
62326W        W32926   3.122  42.718   0.490
62327W        W32927  43.443  18.287   3.375
62328W        W32928   5.167  34.932  13.818
62329W        W32929  18.269  28.712  11.652
62330W        W32930  35.444  33.866  10.615
62331W        W32931  37.171   2.772   4.080
62332W        W32932  39.935  35.596  12.985
62333W        W32933  18.164  27.749  12.937
62334W        W32934  15.947   8.654  10.667
62335W        W32935  34.618  38.482  13.723
62336W        W32936   9.144  40.472   1.730
62337W        W32937  31.032  13.203   4.290
62338W        W32938   6.865  42.235  11.213
62339W        W32939   1.961   2.596  12.997
62340W        W32940  36.096  32.875   0.214
62341W        W32941   8.594  15.790   0.191
62342W        W32942   3.449  23.113   4.088
62343W        W32943  40.605  14.205  14.945
62344W        W32944  42.919  12.398   1.606
62345W        W32945  42.825  41.218  12.395
62346W        W32946  40.079  39.094  13.871
62347W        W32947  29.947  30.863  10.692
62348W        W32948  20.909   5.474  10.677
62349W        W32949  29.858  25.141   4.147
62350W        W32950  35.698  38.997   1.104
62351W        W32951  28.959  12.162   1.754
62352W        W32952  14.100  23.493   1.905
62353W        W32953  31.727  18.375  11.184
62354W        W32954  19.375  28.144  12.000
62355W        W32955  16.560  36.584  13.397
62356W        W32956   5.208  38.908  12.408
62357W        W32957  32.875  26.199  12.044
62358W        W32958  23.451  18.222   3.787
62359W        W32959   7.921   3.387  12.321
62360W        W32960   9.777  12.203  10.650
62361W        W32961  34.574  24.193  13.538
62362W        W32962  36.515  36.135   2.771
62363W        W32963  24.367  10.130   1.422
62364W        W32964   6.417  34.184  10.257
62365W        W32965  29.185  18.563   2.787
62366W        W32966   9.921  35.608   2.210
62367W        W32967  29.962  31.382   2.659
62368W        W32968   4.839  26.465   4.636
62369W        W32969  34.384  41.605   0.874
62370W        W32970   2.009  30.649  12.959
62371W        W32971  19.506  43.303  11.670
62372W        W32972  27.165  32.869  13.887
62373W        W32973  11.867  35.986  12.491
62374W        W32974  19.496   7.311   2.661
62375W        W32975   1.293  27.793  11.522
62376W        W32976  31.579  14.534  14.318
62377W        W32977  38.986   2.142   2.945
62378W        W32978  10.294  19.831   0.900
62379W        W32979  20.310  24.458  12.043
62380W        W32980  40.979  27.719  12.557
62381W        W32981  15.144  29.991  12.430
62382W        W32982   3.023  37.111   4.136
62383W        W32983  26.927  28.638   0.373
62384W        W32984  22.078  14.102   0.924
62385W        W32985  13.677  28.438  13.816
62386W        W32986   1.865  32.416   4.530
62387W        W32987  36.068  20.685   2.114
62388W        W32988   0.569  42.886  10.821
62389W        W32989  14.570  11.544  10.813
62390W        W32990  10.368  26.547   2.396
62391W        W32991  36.078   0.502  10.790
62392W        W32992  37.102  26.639  14.467
62393W        W32993  12.399  42.312  14.966
62394W        W32994   2.527   1.829  11.994
62395W        W32995  30.328  13.130   2.967
62396W        W32996  16.062  43.042  12.868
62397W        W32997   8.296  35.997  14.824
62398W        W32998   9.337  18.223  13.297
62399W        W32999  42.278  38.037  14.880
62400W        W33000  18.196  18.031  13.444
62401W        W33001  26.659  41.571   4.048
62402W        W33002  18.850  34.334  12.805
62403W        W33003  30.387  30.113  13.979
62404W        W33004  20.696  27.915  11.496
62405W        W33005   7.795  18.457  12.501
62406W        W33006   1.415  26.907   4.050
62407W        W33007  16.242  27.061   1.833
62408W        W33008  27.984  25.498   1.563
62409W        W33009  42.111  37.725  14.328
62410W        W33010  18.843  11.108  11.539
62411W        W33011  25.746  40.262   1.960
62412W        W33012   6.556  40.081  11.260
62413W        W33013  12.231  11.834   4.807
62414W        W33014  11.359   5.009   3.086
62415W        W33015   6.778   1.868   2.900
62416W        W33016   9.176  37.361   1.732
62417W        W33017  14.010  32.026  12.810
62418W        W33018  14.156  36.996  14.836
62419W        W33019  25.282  11.670   0.874
62420W        W33020  19.158  12.417  12.433
62421W        W33021  27.052  23.306  12.559
62422W        W33022  43.066  37.372  11.104
62423W        W33023   7.270  44.973  14.305
62424W        W33024  32.473  23.348  13.948
62425W        W33025  29.136   4.167  12.392
62426W        W33026  20.737  37.089  13.955
62427W        W33027  27.623   8.697   0.629
62428W        W33028   3.196   4.531  14.415
62429W        W33029   4.499  43.326   1.432
62430W        W33030   4.300  44.239   1.008
62431W        W33031   0.856  14.704  12.686
62432W        W33032  13.198  29.578   2.711
62433W        W33033  37.827  29.971   0.058
62434W        W33034  19.708  27.688  11.470
62435W        W33035  19.255  10.750  14.065
62436W        W33036  16.875  27.211  11.216
62437W        W33037  25.273   6.481  11.230
62438W        W33038   8.762   3.978  14.972
62439W        W33039  33.892   7.572  13.888
62440W        W33040  18.676  33.799   3.313
62441W        W33041  28.138   0.706  12.453
62442W        W33042  23.507  33.740  11.436
62443W        W33043   0.282  29.208   0.304
62444W        W33044  32.911  35.059  10.767
62445W        W33045   9.891  11.183  14.389
62446W        W33046  37.582  32.698   0.814
62447W        W33047  32.741  39.067  12.581
62448W        W33048  12.241  38.025   2.531
62449W        W33049   3.858   0.028   1.892
62450W        W33050  17.859  14.130   2.828
62451W        W33051  33.328  27.594   3.299
62452W        W33052  42.764  17.599  14.874
62453W        W33053  10.651  15.390  14.380
62454W        W33054  15.763  28.627   3.314
62455W        W33055  30.084   9.670  13.052
62456W        W33056  33.740   8.205  10.881
62457W        W33057   8.841   3.893   1.972
62458W        W33058  13.316   9.426  14.381
62459W        W33059  33.896  29.015   0.839
62460W        W33060  16.773  10.316  10.666
62461W        W33061   4.223   7.879   3.970
62462W        W33062  26.450  10.794   1.575
62463W        W33063  42.040   8.277   0.679
62464W        W33064  38.558  36.948   3.306
62465W        W33065  18.291  13.862  11.876
62466W        W33066  39.286  16.371   0.660
62467W        W33067  11.292  42.542  13.283
62468W        W33068  36.442  25.928   1.302
62469W        W33069  16.533  16.018  10.593
62470W        W33070   5.493  41.113  11.008
62471W        W33071  17.678  41.612   2.182
62472W        W33072   3.278  33.480  14.057
62473W        W33073  11.657  12.524   2.312
62474W        W33074  39.087  36.827   3.254
62475W        W33075  31.083   2.830  13.934
62476W        W33076  15.080  40.889   1.516
62477W        W33077  36.059  29.951   4.224
62478W        W33078   0.331  38.946  12.324
62479W        W33079  29.393  30.602   2.356
62480W        W33080  29.057   5.123  14.722
62481W        W33081  14.176  21.012  12.343
62482W        W33082  20.528  16.684  10.502
62483W        W33083   1.042  29.422   0.752
62484W        W33084  31.059   4.383   0.875
62485W        W33085  17.999  34.894  14.967
62486W        W33086  33.131  39.209   0.874
62487W        W33087  32.167  17.218   1.012
62488W        W33088  37.298  41.845   4.536
62489W        W33089  17.067  37.028  12.595
62490W        W33090  17.312  12.241   2.768
62491W        W33091   3.579   1.610   3.292
62492W        W33092  34.084  32.051  12.109
62493W        W33093   4.802  38.578   4.221
62494W        W33094  42.575   3.967  11.639
62495W        W33095  34.622  34.339   1.434
62496W        W33096  20.036  41.756   3.346
62497W        W33097   9.496  29.893  10.375
62498W        W33098  30.630  16.199   0.891
62499W        W33099  30.623  36.549   0.477
62500W        W33100  40.279  39.586  13.663
62501W        W33101  21.001  23.763  14.111
62502W        W33102   6.298  12.703  14.954
62503W        W33103  43.246   5.442  12.300
62504W        W33104   6.502  16.800  11.587
62505W        W33105  34.035  22.496   2.275
62506W        W33106   4.262  38.992  14.657
62507W        W33107  12.135   2.893   0.957
62508W        W33108   6.348  25.963  10.681
62509W        W33109   1.519  27.685   1.134
62510W        W33110  10.447   6.869  12.371
62511W        W33111  14.350  41.464   3.227
62512W        W33112  21.699  33.227   4.482
62513W        W33113  15.230  22.785   0.158
62514W        W33114  34.225  36.805   2.729
62515W        W33115  38.956  29.562   4.435
62516W        W33116  12.539  33.114  14.113
62517W        W33117  44.503   1.430   1.204
62518W        W33118  35.367  35.487  13.287
62519W        W33119  14.139  38.469  11.912
62520W        W33120  17.573   0.879  10.614
62521W        W33121  11.907   3.135   0.497
62522W        W33122  35.415  43.567   4.521
62523W        W33123   5.222  10.375  12.491
62524W        W33124   6.865  41.796   4.209
62525W        W33125   7.805  32.607  12.607
62526W        W33126  39.354  12.751   4.484
62527W        W33127  23.548  35.968   1.563
62528W        W33128  33.684  37.297  13.139
62529W        W33129  34.877  18.039  12.585
62530W        W33130   9.071  32.392  12.842
62531W        W33131  16.263  41.749  10.098
62532W        W33132  37.969  27.974  12.523
62533W        W33133  17.063  22.246  12.699
62534W        W33134   3.244  26.002  13.115
62535W        W33135  38.925   0.839   4.460
62536W        W33136  41.495  32.927  12.477
62537W        W33137  31.666  19.965   4.589
62538W        W33138  15.471  31.532   5.075
62539W        W33139  14.262  11.143  13.862
62540W        W33140  11.653  29.219   0.270
62541W        W33141   0.753  38.088  10.697
62542W        W33142  44.168   8.474  13.987
62543W        W33143  44.937  28.966   3.159
62544W        W33144   0.563  33.402   3.065
62545W        W33145  31.593  38.050  13.522
62546W        W33146  33.355  37.472  11.584
62547W        W33147  33.614  20.381   3.754
62548W        W33148  14.717  42.285   0.886
62549W        W33149  15.378   7.914   3.787
62550W        W33150  26.584  10.227  11.196
62551W        W33151   1.200  43.454   4.229
62552W        W33152  31.951  23.979  12.456
62553W        W33153  12.254  18.864  12.155
62554W        W33154  27.177  15.331  11.998
62555W        W33155  21.603  26.715  12.366
62556W        W33156   5.745  30.110   3.115
62557W        W33157   7.147  20.511   2.199
62558W        W33158  38.289  13.881   4.578
62559W        W33159  40.058  43.779   1.608
62560W        W33160  35.782   7.327   0.843
62561W        W33161  26.448  27.108   1.878
62562W        W33162   9.882  40.712   2.885
62563W        W33163  18.799   6.848  12.859
62564W        W33164  17.704  43.918  12.619
62565W        W33165  10.072  10.618   4.579
62566W        W33166  15.754  12.852   0.350
62567W        W33167   1.092  29.315   2.853
62568W        W33168   6.293  22.773   9.426
62569W        W33169  31.581  18.505   4.535
62570W        W33170  35.888   8.867   3.300
62571W        W33171   0.019  40.820   3.091
62572W        W33172   5.712   5.304  10.643
62573W        W33173  10.727  32.229   4.733
62574W        W33174  11.600  38.294  12.716
62575W        W33175  24.168  22.100  12.237
62576W        W33176  34.592   2.673  12.187
62577W        W33177  28.092   8.892  10.378
62578W        W33178   0.521  36.949   4.023
62579W        W33179  35.666   2.660  12.932
62580W        W33180  10.419  31.985   0.389
62581W        W33181  26.490  15.272  12.533
62582W        W33182   5.765   6.820   2.917
62583W        W33183  33.316  26.907  11.119
62584W        W33184  42.476   7.905  11.541
62585W        W33185  18.346  15.635   3.791
62586W        W33186  44.456  28.055  14.794
62587W        W33187  16.536  44.278  11.906
62588W        W33188  22.591   2.288  12.560
62589W        W33189  10.215  13.699   1.224
62590W        W33190  44.876  42.567   2.294
62591W        W33191  44.743  24.078  11.880
62592W        W33192   6.714   2.763   1.345
62593W        W33193  40.114   7.329  12.969
62594W        W33194  35.001  41.969  12.535
62595W        W33195  11.210  32.317   3.669
62596W        W33196   5.258  24.986   0.341
62597W        W33197  29.232  28.510  13.420
62598W        W33198  15.092  30.205  14.355
62599W        W33199  33.374  17.372  13.912
62600W        W33200  30.913   9.987  11.140
62601W        W33201  19.437   4.688   0.277
62602W        W33202  30.627  39.350   1.369
62603W        W33203  10.851  41.398   0.561
62604W        W33204  16.152  29.097  12.996
62605W        W33205   8.828  17.603  12.039
62606W        W33206   4.486  21.834   0.024
62607W        W33207  19.406  41.579  11.153
62608W        W33208   8.316  18.281   1.882
62609W        W33209  41.888   2.655  11.892
62610W        W33210  28.722  20.066   0.274
62611W        W33211   3.910  11.136  12.893
62612W        W33212  43.029   1.367   2.440
62613W        W33213   8.190  42.103   4.092
62614W        W33214  38.477  36.204  13.412
62615W        W33215  10.927  22.689  13.912
62616W        W33216  35.139  22.641   1.191
62617W        W33217  24.435  10.201  12.213
62618W        W33218  28.692  29.567   1.684
62619W        W33219  19.929  24.623  10.888
62620W        W33220  24.530  43.397   0.009
62621W        W33221  40.065  40.947  14.512
62622W        W33222  13.902   0.084   4.969
62623W        W33223  38.518  22.613   3.207
62624W        W33224  23.472  24.129   2.973
62625W        W33225  23.556  26.608  13.158
62626W        W33226  29.120  19.590   3.672
62627W        W33227  39.346  10.583   4.619
62628W        W33228  20.526  25.644   3.524
62629W        W33229  34.021  18.041   1.252
62630W        W33230  36.332  22.564  13.444
62631W        W33231  23.543  20.707  12.578
62632W        W33232  44.588  19.762  11.416
62633W        W33233  43.446  28.744  14.028
62634W        W33234   3.917  41.599   0.851
62635W        W33235  15.791  22.014   3.685
62636W        W33236  25.428  37.154  10.429
62637W        W33237  10.279   3.308   1.691
62638W        W33238  13.249  32.455   3.110
62639W        W33239  35.668  20.551   3.647
62640W        W33240  16.225  20.952   4.764
62641W        W33241  21.946  16.696   2.664
62642W        W33242  40.486  42.536  14.312
62643W        W33243   8.174  33.098   2.917
62644W        W33244  38.875  12.467  10.025
62645W        W33245   8.769  24.339  13.278
62646W        W33246  10.262   0.955   1.008
62647W        W33247  19.070  30.221   3.826
62648W        W33248   1.716  34.301  10.210
62649W        W33249  31.645  34.369  12.463
62650W        W33250  28.291  23.585  14.941
62651W        W33251   0.816   4.551  11.139
62652W        W33252   3.281   8.376  14.264
62653W        W33253  42.953   9.280  12.425
62654W        W33254   3.011  41.730   3.405
62655W        W33255  41.269  14.001  13.394
62656W        W33256  19.764   4.409  12.039
62657W        W33257  14.110  18.661  10.905
62658W        W33258  13.673  21.764  12.480
62659W        W33259   6.395  38.634  12.019
62660W        W33260   3.395  20.824   1.671
62661W        W33261   5.623  17.037  13.811
62662W        W33262   2.318   1.228  11.604
62663W        W33263   1.509  35.008   4.907
62664W        W33264  12.834   7.770   1.475
62665W        W33265  22.246  35.633  10.736
62666W        W33266  22.204  14.317  11.162
62667W        W33267  13.862   7.845   0.846
62668W        W33268  20.770  32.862  12.864
62669W        W33269  35.937  17.349  10.760
62670W        W33270  29.575  24.430   4.599
62671W        W33271  28.341  19.656   3.172
62672W        W33272  18.573   2.696   1.407
62673W        W33273  37.436  43.502  12.345
62674W        W33274   3.357  14.800  11.490
62675W        W33275  13.876   7.653   3.551
62676W        W33276  17.540  43.252   3.907
62677W        W33277  36.666  17.588  12.174
62678W        W33278  36.112  24.633   1.245
62679W        W33279  31.634  25.774  11.526
62680W        W33280   3.784  15.379  11.187
62681W        W33281  12.150  29.409  12.925
62682W        W33282   4.750  18.850  14.401
62683W        W33283   1.771   8.034   4.994
62684W        W33284  35.544  26.460   2.609
62685W        W33285  28.405  43.289  12.387
62686W        W33286  23.533  13.274  14.332
62687W        W33287   1.289  30.367   2.084
62688W        W33288  14.048  11.715  12.003
62689W        W33289   3.503  37.853  14.875
62690W        W33290   6.297  42.922  14.411
62691W        W33291  44.215  14.740  12.522
62692W        W33292  40.280  15.765   0.174
62693W        W33293   1.286  33.896   4.063
62694W        W33294   4.984  13.278   1.719
62695W        W33295  19.174  42.396  14.118
62696W        W33296  12.518  10.030  12.089
62697W        W33297   8.720  10.721   2.305
62698W        W33298  10.425   0.623  10.845
62699W        W33299  31.628  34.808  11.573
62700W        W33300  17.025  37.541  12.540
62701W        W33301  34.389  24.310   2.991
62702W        W33302  11.169  25.134   4.802
62703W        W33303  41.467  42.328  11.659
62704W        W33304  34.969  12.107   2.707
62705W        W33305  32.962  44.793   1.819
62706W        W33306   2.233  27.072  10.500
62707W        W33307  13.586  34.192  11.004
62708W        W33308  15.293   2.759   2.704
62709W        W33309  17.412   1.431  14.480
62710W        W33310  23.557  35.379  12.722
62711W        W33311   7.264  40.561  12.022
62712W        W33312  12.502  31.421  14.052
62713W        W33313  28.890  40.039   1.348
62714W        W33314  20.193  42.223   0.712
62715W        W33315  37.478  23.460  10.115
62716W        W33316  12.274   6.863   3.671
62717W        W33317  24.269   3.224   5.062
62718W        W33318  28.907  10.310  11.561
62719W        W33319  32.871   7.227  11.147
62720W        W33320  15.337  23.280   0.250
62721W        W33321  16.489  20.557  12.155
62722W        W33322   3.504  36.562  11.227
62723W        W33323   1.009  44.742   3.336
62724W        W33324  37.633  18.780  10.708
62725W        W33325   5.891  34.825   4.221
62726W        W33326   4.801  32.370  14.916
62727W        W33327  31.509  21.387   4.598
62728W        W33328   6.415  33.383   2.234
62729W        W33329  40.801   0.444  11.611
62730W        W33330  38.088  25.423   0.395
62731W        W33331  23.532  24.453   1.298
62732W        W33332  43.258  10.276  10.547
62733W        W33333   6.381  30.563  10.756
62734W        W33334   7.181   6.570  10.926
62735W        W33335  16.047  16.875  13.332
62736W        W33336   6.656  39.507   2.620
62737W        W33337  15.270  18.991  14.457
62738W        W33338  43.814  41.439  14.824
62739W        W33339  41.560  42.300   2.837
62740W        W33340  10.452  22.573  12.646
62741W        W33341   5.973  20.756  10.432
62742W        W33342   0.013  41.369  11.776
62743W        W33343  43.268  12.507   1.176
62744W        W33344  19.135   3.860   2.589
62745W        W33345  33.378  24.810  11.038
62746W        W33346  31.251  25.199  14.807
62747W        W33347   2.677  31.844  14.254
62748W        W33348  35.375  23.720  11.098
62749W        W33349  41.478   9.902   1.387
62750W        W33350  18.305   7.399  14.533
62751W        W33351  35.345  21.195  14.988
62752W        W33352  10.685  12.460  11.721
62753W        W33353  18.051  17.043   1.682
62754W        W33354   6.151  15.666  12.963
62755W        W33355  13.865  29.998   1.101
62756W        W33356  32.147   5.621   0.714
62757W        W33357  36.055  40.248   2.181
62758W        W33358   8.371  19.117   1.458
62759W        W33359  19.748   3.159   3.819
62760W        W33360   2.852  27.174   3.800
62761W        W33361  31.135  25.280   3.261
62762W        W33362   1.989  10.234  10.751
62763W        W33363   5.216   7.705   2.233
62764W        W33364  25.232  13.694  13.533
62765W        W33365  12.410   0.867  11.723
62766W        W33366  26.981  36.103  10.580
62767W        W33367  26.781  13.384  13.326
62768W        W33368  21.626  28.546  13.770
62769W        W33369  31.854  30.960  13.038
62770W        W33370  15.165  27.051  14.078
62771W        W33371  17.354   9.394   2.898
62772W        W33372  19.803  13.633   2.410
62773W        W33373  35.892  16.325   0.605
62774W        W33374  14.129  43.349   4.148
62775W        W33375  33.891  40.543  11.214
62776W        W33376   5.774   6.584   0.355
62777W        W33377  43.813   9.823  12.883
62778W        W33378   3.744   4.992   4.709
62779W        W33379  17.220  13.195  13.429
62780W        W33380   3.367  32.750   1.007
62781W        W33381  36.882  25.204   0.250
62782W        W33382  21.565  43.419  10.962
62783W        W33383  15.179  26.664  11.065
62784W        W33384  17.938  30.543  10.699
62785W        W33385  13.057  43.313   2.622
62786W        W33386  29.459  19.624   1.197
62787W        W33387  35.753  13.988  14.321
62788W        W33388  25.602  33.070   4.146
62789W        W33389  29.538  15.084  10.672
62790W        W33390  30.835  42.234  13.910
62791W        W33391  38.941  27.831   1.640
62792W        W33392  30.247  27.648   4.775
62793W        W33393   4.911   6.976  13.373
62794W        W33394  15.184  36.778  11.637
62795W        W33395  20.723   4.476   3.147
62796W        W33396  21.648  27.544  11.628
62797W        W33397   6.437  14.134  11.991
62798W        W33398  21.282  34.583   3.680
62799W        W33399  33.060   3.903  11.512
62800W        W33400   6.837   4.862  10.365
62801W        W33401  12.378  39.404  14.612
62802W        W33402  13.022   8.050  14.041
62803W        W33403  24.172  13.822  13.997
62804W        W33404   7.339   4.130  12.086
62805W        W33405  35.730  12.137  11.967
62806W        W33406  12.336   9.076   4.163
62807W        W33407  12.162  37.804   0.250
62808W        W33408  40.846  34.793  10.553
62809W        W33409   0.698  34.465  13.404
62810W        W33410  41.330  32.375   4.818
62811W        W33411  41.892  35.362   1.231
62812W        W33412  21.600  10.773   1.234
62813W        W33413  42.567  25.063   3.548
62814W        W33414   4.877   3.746  13.840
62815W        W33415  24.255  29.692   3.662
62816W        W33416  37.846  21.731  11.368
62817W        W33417  10.458   2.301  11.212
62818W        W33418   0.801  26.160   4.192
62819W        W33419  40.866  35.637  14.424
62820W        W33420  14.071  33.614   3.326
62821W        W33421  36.630  19.397  13.007
62822W        W33422   6.646  33.966  13.599
62823W        W33423   0.685  23.949   2.555
62824W        W33424  42.079  34.365   4.153
62825W        W33425  34.857  43.226  11.127
62826W        W33426   2.864  34.131   2.745
62827W        W33427  40.086  10.114   3.790
62828W        W33428  40.775  32.173   1.892
62829W        W33429  33.451   9.357  10.726
62830W        W33430  23.530  39.100  14.157
62831W        W33431  23.717  27.967   0.690
62832W        W33432  10.740  23.774  10.756
62833W        W33433   2.956  44.414  14.948
62834W        W33434  31.723   6.594   0.322
62835W        W33435  39.158  31.094  12.572
62836W        W33436  39.895   7.506  11.643
62837W        W33437  29.548  19.060  14.414
62838W        W33438  10.906  11.535   2.983
62839W        W33439  31.854  33.608   4.607
62840W        W33440  18.708   6.003  14.961
62841W        W33441   8.900  10.947  12.366
62842W        W33442  17.195  30.478  14.768
62843W        W33443  42.521  30.634  11.250
62844W        W33444   8.835  38.441   2.377
62845W        W33445  33.851  35.070  13.519
62846W        W33446  14.763  11.172  13.380
62847W        W33447  29.209  12.302   1.335
62848W        W33448  42.064  25.749   2.613
62849W        W33449  43.530   7.782  14.610
62850W        W33450   7.740   3.909  10.662
62851W        W33451  27.538  22.158  12.468
62852W        W33452   5.342   0.783  11.441
62853W        W33453  10.341  11.887   1.397
62854W        W33454  28.666  34.170   1.388
62855W        W33455  25.749  43.487   3.359
62856W        W33456  44.348  15.391  10.382
62857W        W33457  19.764  24.602   1.808
62858W        W33458   2.376  14.869   2.453
62859W        W33459  38.959  15.732  12.972
62860W        W33460  16.964  44.502  14.969
62861W        W33461   5.709  13.822  13.151
62862W        W33462   5.732  40.087  11.591
62863W        W33463  42.825   5.374  12.576
62864W        W33464  17.768   9.302  12.488
62865W        W33465  37.518  45.000  12.537
62866W        W33466  42.577  13.023  13.484
62867W        W33467  41.058  38.695  14.588
62868W        W33468  28.054  25.672   3.900
62869W        W33469   8.621   1.985  12.429
62870W        W33470  19.701  30.300  14.479
62871W        W33471  32.716   6.947  14.855
62872W        W33472  40.415  31.603  13.543
62873W        W33473  17.275   1.462   3.185
62874W        W33474  44.476  27.424  11.598
62875W        W33475  22.047  42.347   0.430
62876W        W33476  37.505  40.861   0.950
62877W        W33477  42.872  39.409  10.558
62878W        W33478  13.157  19.741  11.725
62879W        W33479   2.812  39.347  14.301
62880W        W33480  23.423  40.983  11.484
62881W        W33481  38.315  28.918   2.404
62882W        W33482  23.447  10.211  13.788
62883W        W33483  43.950  28.138  14.834
62884W        W33484  33.499  40.520  12.763
62885W        W33485  39.564  23.144   2.513
62886W        W33486   7.398  34.448  14.164
62887W        W33487  32.758  17.908  12.677
62888W        W33488  27.088  15.852   1.978
62889W        W33489  38.133   6.618   2.791
62890W        W33490  41.290  19.257   2.789
62891W        W33491   0.943  15.420  14.434
62892W        W33492  31.505   4.626   0.734
62893W        W33493  28.884   2.275   0.407
62894W        W33494  13.610  38.115  11.019
62895W        W33495  36.869  38.546   1.883
62896W        W33496   8.085   0.209   2.922
62897W        W33497  27.579  44.233  12.161
62898W        W33498  25.997  12.901  12.733
62899W        W33499  26.395   3.385  10.685
62900W        W33500  38.460  42.907  13.488
62901W        W33501  40.277  15.245   1.393
62902W        W33502  25.223  16.062   0.883
62903W        W33503  22.759  41.246   4.124
62904W        W33504   7.141  39.356  11.489
62905W        W33505  19.857  29.043  11.233
62906W        W33506  37.807  19.357   2.766
62907W        W33507  36.313  31.524  12.472
62908W        W33508  42.839   3.946   0.414
62909W        W33509  39.953  43.337   1.921
62910W        W33510  32.090  13.564   4.577
62911W        W33511  20.019  44.550   4.174
62912W        W33512  43.217  14.591  13.128
62913W        W33513  37.231  29.892   5.167
62914W        W33514   5.246  40.248  12.835
62915W        W33515  28.399  22.057   1.147
62916W        W33516  32.517  40.897  11.907
62917W        W33517  21.251  20.648   4.521
62918W        W33518  22.420  30.951  13.030
62919W        W33519  14.297  19.188   2.180
62920W        W33520  33.572  44.762   1.271
62921W        W33521  41.274  27.066   2.392
62922W        W33522  27.164  17.481   2.120
62923W        W33523  43.496  19.709  12.538
62924W        W33524  43.270  26.825  14.761
62925W        W33525  27.276  20.335  11.634
62926W        W33526  36.122  16.054   1.968
62927W        W33527  33.971  37.606   0.269
62928W        W33528  32.552  38.553   0.506
62929W        W33529  42.820  11.222   3.647
62930W        W33530  43.231  29.739   0.508
62931W        W33531   2.402  31.135   3.260
62932W        W33532  14.876  35.558  12.043
62933W        W33533  17.341  31.481  10.579
62934W        W33534  30.036   8.387   0.315
62935W        W33535  30.619  29.760   1.818
62936W        W33536  26.444  35.883  14.828
62937W        W33537  30.562  44.779   1.847
62938W        W33538  19.442  30.949  12.765
62939W        W33539  12.813   9.956  14.012
62940W        W33540  17.277  43.429  14.255
62941W        W33541  19.300  43.441   3.301
62942W        W33542  42.815   7.753  10.586
62943W        W33543  30.755  39.899   3.980
62944W        W33544   7.689  18.948   1.827
62945W        W33545  26.568  33.997  12.650
62946W        W33546  37.434  33.879  14.296
62947W        W33547  14.444  37.276  11.147
62948W        W33548  25.508  38.971  12.203
62949W        W33549  21.756  12.848  10.743
62950W        W33550  36.761  25.931   1.702
62951W        W33551  35.011  31.039   4.900
62952W        W33552  18.504  28.466   3.302
62953W        W33553  26.994  40.855  13.372
62954W        W33554   4.698   1.403   3.912
62955W        W33555  19.219  35.987  13.864
62956W        W33556  29.102   7.643   0.740
62957W        W33557   1.970  18.645  11.460
62958W        W33558  36.525  36.342  13.648
62959W        W33559  19.153  15.716  12.847
62960W        W33560   5.264  26.100  14.050
62961W        W33561   8.723  15.825  13.817
62962W        W33562  27.104   2.992   5.142
62963W        W33563  18.018  43.978   3.691
62964W        W33564  28.597  22.038   3.410
62965W        W33565  17.992  13.311  13.824
62966W        W33566  22.757   0.830  14.578
62967W        W33567  33.503   2.179   4.610
62968W        W33568   2.544  23.693  11.188
62969W        W33569  12.610  18.105   0.477
62970W        W33570   6.296  39.302  14.379
62971W        W33571  27.139   1.235  11.590
62972W        W33572  30.101  31.686  13.971
62973W        W33573   1.062  43.048  10.755
62974W        W33574  37.429  12.641  12.315
62975W        W33575  28.863  27.427   2.785
62976W        W33576  27.432   0.989   3.780
62977W        W33577  25.994   4.614  10.478
62978W        W33578  40.262  28.510   0.736
62979W        W33579  12.387   7.892  10.638
62980W        W33580  44.377  38.609  11.927
62981W        W33581   4.338  27.617  11.093
62982W        W33582  44.462  25.612  14.252
62983W        W33583  24.906  42.957  10.649
62984W        W33584  16.757  12.420  10.649
62985W        W33585  13.798  19.300   4.564
62986W        W33586  35.484  17.592   4.333
62987W        W33587  35.610  26.802   3.075
62988W        W33588  24.147  18.829   0.179
62989W        W33589  22.001  28.880   4.184
62990W        W33590   3.261   1.378  11.092
62991W        W33591  20.176  34.617   4.562
62992W        W33592  17.970  40.531   0.779
62993W        W33593  22.606  32.098   1.587
62994W        W33594  31.937  25.021  10.588
62995W        W33595   9.618   2.447  14.502
62996W        W33596  28.149  32.389   2.764
62997W        W33597   7.898   7.693   4.767
62998W        W33598  23.158  44.753  13.116
62999W        W33599  14.762  10.345   3.654
63000W        W33600  22.696  23.336  13.355
63001W        W33601  32.870  31.971   0.842
63002W        W33602   0.390  11.706  10.486
63003W        W33603   0.776  41.587  10.168
63004W        W33604   7.856  42.599  12.558
63005W        W33605  17.067  17.676  13.906
63006W        W33606  41.612   7.043  10.286
63007W        W33607  40.566  21.227   0.437
63008W        W33608  36.287   8.292  14.313
63009W        W33609  33.375  11.850   1.550
63010W        W33610  12.860  17.234  13.586
63011W        W33611  32.885  17.293  14.057
63012W        W33612  25.251   1.827  12.164
63013W        W33613   7.645  29.662   1.488
63014W        W33614  14.668  44.083  13.095
63015W        W33615  32.544  34.574  13.200
63016W        W33616  17.775  10.797   2.913
63017W        W33617  10.108  14.124  12.483
63018W        W33618  34.309   0.580  13.941
63019W        W33619  22.552   4.866   1.836
63020W        W33620  21.079   9.894  11.194
63021W        W33621  27.944  33.505  12.338
63022W        W33622  12.149  38.361  12.026
63023W        W33623  32.268  39.076  11.680
63024W        W33624   5.245  30.526  12.129
63025W        W33625   2.102  28.589   4.213
63026W        W33626   4.938  35.390  11.140
63027W        W33627  20.432   7.021  14.442
63028W        W33628  29.887   2.381   1.857
63029W        W33629   8.111  19.072   1.026
63030W        W33630   6.671  22.595  13.903
63031W        W33631  32.457   1.975  10.695
63032W        W33632  30.911   5.574  11.362
63033W        W33633  35.453   8.037  11.200
63034W        W33634  21.985  43.478  12.341
63035W        W33635  13.223  41.376  14.626
63036W        W33636  24.968  38.892   0.360
63037W        W33637   6.327  22.938  10.568
63038W        W33638  40.225  27.979   1.334
63039W        W33639  16.617   5.026  11.220
63040W        W33640  38.608   1.779   0.908
63041W        W33641  41.629  34.438   0.841
63042W        W33642  28.592  35.049   3.320
63043W        W33643  19.504  40.798  13.052
63044W        W33644  41.411  15.413   0.417
63045W        W33645  13.861  31.842   2.885
63046W        W33646   4.697  14.271  11.146
63047W        W33647   6.343  27.484   0.289
63048W        W33648  13.337  26.431  12.503
63049W        W33649  44.987  22.262   2.318
63050W        W33650  10.891  40.230  14.529
63051W        W33651  19.695  13.156  14.269
63052W        W33652  41.026   7.910  12.925
63053W        W33653  39.236  41.970  11.400
63054W        W33654  20.285  28.038  14.946
63055W        W33655   6.651  30.896  10.466
63056W        W33656  23.615  42.630  12.882
63057W        W33657  31.542   3.895   0.014
63058W        W33658  33.873  42.678   0.434
63059W        W33659  15.831  10.129   0.895
63060W        W33660  23.187  13.849   4.073
63061W        W33661  36.970  38.480   4.223
63062W        W33662  39.943  12.001   0.797
63063W        W33663  15.057  44.967  11.077
63064W        W33664  18.596  23.131   3.714
63065W        W33665  13.749  24.246   4.061
63066W        W33666  28.550  31.586   0.469
63067W        W33667  22.317   1.252   3.649
63068W        W33668  22.181   5.197  10.641
63069W        W33669   7.955  10.377  10.845
63070W        W33670   9.234  33.876   1.388
63071W        W33671  18.666   1.756   1.164
63072W        W33672  11.062   9.461  13.417
63073W        W33673  44.765  18.569   3.299
63074W        W33674   8.523  29.583  11.462
63075W        W33675  22.584  22.309  10.997
63076W        W33676  38.980  22.576  14.836
63077W        W33677  41.429  28.132   1.216
63078W        W33678  27.930  33.721  12.832
63079W        W33679  27.453  32.237   3.825
63080W        W33680  17.203   2.910   3.092
63081W        W33681  17.603  10.862  11.639
63082W        W33682   9.912   9.778   2.458
63083W        W33683  19.122   9.752  12.568
63084W        W33684  22.255  24.600   2.768
63085W        W33685  41.906  41.448  10.952
63086W        W33686  17.725  30.121   3.290
63087W        W33687  29.960  39.235  11.469
63088W        W33688  13.176  42.905  12.334
63089W        W33689  11.921   0.158   9.213
63090W        W33690   6.007  29.387   0.070
63091W        W33691  20.800   7.385  14.383
63092W        W33692  27.971  37.585   1.400
63093W        W33693   8.192   9.957   1.771
63094W        W33694  28.205  44.530  14.037
63095W        W33695  31.673  39.401   2.344
63096W        W33696  25.826  17.695  10.511
63097W        W33697   2.500  19.525   3.514
63098W        W33698  36.504   1.315   2.329
63099W        W33699  26.006  19.545   4.209
63100W        W33700  33.537  41.581  14.958
63101W        W33701  23.667  22.100   4.435
63102W        W33702  32.783   5.644   2.309
63103W        W33703   4.168   3.447   3.118
63104W        W33704  20.302  14.777  14.434
63105W        W33705  12.118  21.697  13.403
63106W        W33706  44.529  36.653  11.598
63107W        W33707  25.530  19.513  12.388
63108W        W33708  25.792   6.224   2.850
63109W        W33709   5.316  40.851  13.444
63110W        W33710  36.162  28.520   2.995
63111W        W33711  10.163  36.233  12.308
63112W        W33712  12.124  44.259   2.644
63113W        W33713  38.086  10.629   4.335
63114W        W33714  21.224  40.880   2.879
63115W        W33715  38.880  10.522   1.787
63116W        W33716  31.690  30.281   0.119
63117W        W33717   9.359   9.544  11.249
63118W        W33718  25.476   0.551  12.880
63119W        W33719  14.851  31.334   3.856
63120W        W33720  27.211  21.156  10.599
63121W        W33721  42.055  39.749  11.519
63122W        W33722  25.621  39.481   0.434
63123W        W33723  33.111  19.145  14.904
63124W        W33724  31.656  42.762   1.019
63125W        W33725  14.809  35.549  11.165
63126W        W33726   8.426  30.643  14.185
63127W        W33727  28.134   5.048   2.756
63128W        W33728  24.683   6.418   4.553
63129W        W33729  23.227  18.113  14.863
63130W        W33730   0.670  32.034   1.481
63131W        W33731   4.450  13.966  12.769
63132W        W33732   8.786  43.508   3.618
63133W        W33733  13.818   0.646   2.190
63134W        W33734  28.674  37.326   2.749
63135W        W33735   4.083  14.912  13.842
63136W        W33736  38.886  37.896  12.047
63137W        W33737  29.433  44.204   4.994
63138W        W33738  20.699  39.480  14.472
63139W        W33739  10.102   8.196  14.793
63140W        W33740  42.498  20.571  13.809
63141W        W33741   9.220  36.602   3.252
63142W        W33742  13.086  17.727   0.942
63143W        W33743  36.511  19.773   5.129
63144W        W33744  15.186  41.979   1.370
63145W        W33745  20.642  35.605  13.737
63146W        W33746  14.033  23.035  11.582
63147W        W33747   2.335  43.449   0.789
63148W        W33748  14.821  26.430   0.321
63149W        W33749  43.369  31.550   1.138
63150W        W33750   8.100  44.805  13.385
63151W        W33751  19.653  34.801  11.167
63152W        W33752  24.146  42.386  10.975
63153W        W33753  10.560  44.451   0.310
63154W        W33754   9.499  33.575  11.196
63155W        W33755   6.880  32.368   4.310
63156W        W33756  34.390  29.009  13.788
63157W        W33757  44.444  31.935   0.024
63158W        W33758   2.212  19.050   4.266
63159W        W33759   0.051  34.562   4.753
63160W        W33760  12.091   8.621   1.001
63161W        W33761  33.416  37.212   1.950
63162W        W33762  27.187  11.241   3.259
63163W        W33763   1.407   7.609   2.320
63164W        W33764  10.686  42.744  11.881
63165W        W33765  44.774   3.786  14.495
63166W        W33766   2.686  42.821  12.926
63167W        W33767  11.255  33.024  13.672
63168W        W33768  27.501  33.949  14.987
63169W        W33769  19.349  44.997   4.738
63170W        W33770  41.030  12.177   4.094
63171W        W33771  15.346  15.805  13.517
63172W        W33772  17.813  40.329  12.285
63173W        W33773  17.925  19.010  13.439
63174W        W33774   6.683   5.721  11.449
63175W        W33775  34.979   7.985  14.796
63176W        W33776  28.426   1.225  13.526
63177W        W33777  12.281  15.189  12.878
63178W        W33778  39.537  42.672   2.676
63179W        W33779  25.573  12.036  13.949
63180W        W33780  42.876  36.976   1.209
63181W        W33781  15.118   9.219  12.386
63182W        W33782   3.340  15.072   4.637
63183W        W33783  25.753  34.002   4.568
63184W        W33784  33.435  37.152  14.108
63185W        W33785  24.385   1.916  12.916
63186W        W33786  26.078  14.353   3.722
63187W        W33787  41.394  28.104  11.865
63188W        W33788  26.724  43.232   3.226
63189W        W33789  33.197  30.843   1.452
63190W        W33790  12.234  20.705   1.625
63191W        W33791  19.545   7.619   0.774
63192W        W33792  17.898  16.725  13.996
63193W        W33793  18.777  37.645  13.446
63194W        W33794  29.049  15.679   1.853
63195W        W33795  10.663  35.833   4.976
63196W        W33796   9.830  27.033   2.150
63197W        W33797  31.329  21.173   3.151
63198W        W33798  18.043  31.604   3.850
63199W        W33799  14.312  28.235   0.841
63200W        W33800  19.196  39.020  10.973
63201W        W33801  23.024  22.794  13.915
63202W        W33802  37.000  41.243  14.063
63203W        W33803  41.936  42.420  10.705
63204W        W33804  43.420  41.122   0.446
63205W        W33805   5.314  12.259  14.958
63206W        W33806  27.213  36.519  12.017
63207W        W33807  42.719  40.468   3.050
63208W        W33808  31.043  44.937  12.839
63209W        W33809  15.824  10.805   2.541
63210W        W33810  26.646  15.793   1.511
63211W        W33811  14.709  20.214   0.819
63212W        W33812  26.214  14.367  13.956
63213W        W33813  39.509  39.388   4.959
63214W        W33814   2.903  31.497   1.270
63215W        W33815   0.245  19.783   4.483
63216W        W33816   9.389  26.179   1.497
63217W        W33817  31.833  32.487   1.685
63218W        W33818   5.050  23.208  13.392
63219W        W33819  24.399  31.991  10.220
63220W        W33820  35.389   2.950  11.140
63221W        W33821  27.179  34.016  10.825
63222W        W33822  12.355  27.034   3.714
63223W        W33823  25.650  37.533  10.699
63224W        W33824  19.136  25.248   0.763
63225W        W33825  10.113  36.486  11.416
63226W        W33826  30.644  18.051  10.507
63227W        W33827  29.946  14.118   2.781
63228W        W33828  23.181  41.843   3.660
63229W        W33829  27.001  16.844  11.189
63230W        W33830  18.693  19.011   0.593
63231W        W33831  10.629   8.111   2.894
63232W        W33832  10.852  37.600   1.555
63233W        W33833  27.671  43.803   0.594
63234W        W33834   6.337  24.520   1.754
63235W        W33835  29.595  13.751   4.935
63236W        W33836  14.714  41.766   0.875
63237W        W33837  32.046  17.840   2.352
63238W        W33838  18.053  17.853   4.385
63239W        W33839  44.730  35.807  11.771
63240W        W33840   3.914  18.394  10.557
63241W        W33841  35.853  13.121  14.498
63242W        W33842  10.258  34.778  10.509
63243W        W33843  26.711  12.510  14.484
63244W        W33844  13.378  37.458   2.932
63245W        W33845  33.688  39.755   1.848
63246W        W33846   0.444  12.370  12.083
63247W        W33847  11.714  19.125  11.333
63248W        W33848   4.942   9.813   3.619
63249W        W33849  25.406  18.227   0.266
63250W        W33850  19.853   6.993   0.337
63251W        W33851   9.300  10.967  10.498
63252W        W33852  32.557  21.418   0.095
63253W        W33853  27.259  28.912   1.285
63254W        W33854   2.794  10.064  11.135
63255W        W33855  12.376  12.771  12.303
63256W        W33856  36.030  23.108  10.725
63257W        W33857  35.024  11.373   4.018
63258W        W33858  40.305   0.828   3.305
63259W        W33859  42.900   3.177  14.976
63260W        W33860  27.383  20.836  11.534
63261W        W33861  22.996  44.423  14.278
63262W        W33862  19.245   2.684  14.308
63263W        W33863  31.370  16.774  10.456
63264W        W33864  16.862  14.188  13.131
63265W        W33865  35.102  41.738  14.333
63266W        W33866   5.357  15.077  12.537
63267W        W33867  29.882  22.198   1.446
63268W        W33868  31.924  40.073   3.209
63269W        W33869  23.547  17.628   2.184
63270W        W33870   9.562  37.132   1.463
63271W        W33871  23.283  24.305  11.033
63272W        W33872  41.010   2.253  10.283
63273W        W33873   6.162  25.686   2.632
63274W        W33874  40.705   1.671  13.501
63275W        W33875  11.551  14.612  11.648
63276W        W33876  22.681  44.954  13.386
63277W        W33877  15.530  41.536  11.612
63278W        W33878  21.564  26.197   4.229
63279W        W33879  40.553  36.858  12.068
63280W        W33880  27.492  11.023  11.069
63281W        W33881  31.797  18.287  13.888
63282W        W33882  31.337  40.412  13.895
63283W        W33883  13.796  22.571  10.773
63284W        W33884  26.014  21.761   3.336
63285W        W33885  27.072  21.634  13.819
63286W        W33886  38.124  39.534   0.776
63287W        W33887  38.302  27.744   4.366
63288W        W33888  30.771  40.128  12.147
63289W        W33889  20.751  27.235   5.078
63290W        W33890  26.692  30.071   3.159
63291W        W33891   3.215  41.984  11.451
63292W        W33892  31.210  16.295  10.628
63293W        W33893   2.919   3.654  12.185
63294W        W33894   0.989  30.956   4.994
63295W        W33895   5.336  39.896   2.270
63296W        W33896   2.140   2.308   0.536
63297W        W33897   0.546  15.351  10.709
63298W        W33898  38.226  26.975   3.942
63299W        W33899  36.444  15.695   0.486
63300W        W33900  10.886  39.817  11.806
63301W        W33901  41.145  42.874  11.609
63302W        W33902   4.624  11.239  11.532
63303W        W33903   7.633  41.087  12.428
63304W        W33904  38.156   4.285   3.645
63305W        W33905  37.893   8.939   0.229
63306W        W33906  32.890  31.667  14.388
63307W        W33907   0.882  14.598   3.136
63308W        W33908  10.422  25.000   3.790
63309W        W33909  24.400  22.814   2.364
63310W        W33910  34.927  15.573  13.252
63311W        W33911   0.668  22.699  12.388
63312W        W33912  22.475  29.615  13.313
63313W        W33913  19.899   5.743  12.524
63314W        W33914  20.613   0.781   2.224
63315W        W33915   4.132  24.679  14.855
63316W        W33916   6.799  11.154   0.843
63317W        W33917  20.668  40.018   1.698
63318W        W33918  12.416  30.345  12.961
63319W        W33919  41.398  28.613   3.878
63320W        W33920   7.355   0.466   3.658
63321W        W33921  35.976  32.886  12.179
63322W        W33922  41.775  37.353  13.414
63323W        W33923   4.394  37.900  10.641
63324W        W33924  20.372  38.875   4.821
63325W        W33925   0.395  20.014   2.165
63326W        W33926  14.814   8.698   4.645
63327W        W33927   6.902  43.720  13.586
63328W        W33928  42.834  23.575  13.507
63329W        W33929  31.036  34.105   0.654
63330W        W33930  21.448   3.415   5.033
63331W        W33931  33.231  43.594  11.017
63332W        W33932  39.262  20.035  13.821
63333W        W33933   4.488  27.612   3.277
63334W        W33934  18.624  29.153   1.694
63335W        W33935  29.413  20.193  13.112
63336W        W33936  39.518  33.397  13.990
63337W        W33937  41.291   3.230  11.639
63338W        W33938  10.302   7.505  11.102
63339W        W33939  37.854  21.685  12.938
63340W        W33940  31.156  20.115   2.360
63341W        W33941  35.740  22.245   4.004
63342W        W33942  38.289  25.817   0.078
63343W        W33943   4.775  29.597  13.484
63344W        W33944  38.971  26.637   5.024
63345W        W33945  37.876  19.182   1.863
63346W        W33946   3.029   6.350   0.834
63347W        W33947   4.743  42.293  11.990
63348W        W33948   4.902   3.356   5.133
63349W        W33949  31.077  20.778  10.378
63350W        W33950  19.171  30.446  13.012
63351W        W33951  32.020  25.626   0.368
63352W        W33952  30.134  12.968   4.175
63353W        W33953  12.780  24.466   1.300
63354W        W33954  17.618  28.356  14.247
63355W        W33955   2.493  44.017  14.776
63356W        W33956  30.884  26.586   3.683
63357W        W33957  26.726   7.396   1.718
63358W        W33958   6.381  41.120   3.724
63359W        W33959   3.816  21.201   3.718
63360W        W33960  30.725   7.798  14.843
63361W        W33961  37.564  11.094   2.797
63362W        W33962  24.208  10.739  12.057
63363W        W33963  15.806   3.705   2.419
63364W        W33964  36.366  30.161  13.955
63365W        W33965  43.679  10.939  14.723
63366W        W33966  33.924  36.538   4.066
63367W        W33967   1.434  24.456   2.957
63368W        W33968  35.032  36.495   1.845
63369W        W33969  24.700  39.894   1.642
63370W        W33970  33.821  34.947  10.950
63371W        W33971  41.354  38.703  11.061
63372W        W33972  39.901  17.458   3.240
63373W        W33973  16.614  16.793   4.201
63374W        W33974  20.030  21.265   0.458
63375W        W33975  23.249  42.439   1.320
63376W        W33976   5.795  13.128   4.608
63377W        W33977  38.464  25.477   0.869
63378W        W33978  38.824  21.523  10.483
63379W        W33979   9.169  18.930  10.991
63380W        W33980  18.779  31.703   4.406
63381W        W33981   2.892  39.302   2.226
63382W        W33982  34.410  35.390  10.982
63383W        W33983  25.541  11.193   1.438
63384W        W33984   1.908  12.027   1.179
63385W        W33985  43.484  32.375   0.851
63386W        W33986   5.232  44.660   1.947
63387W        W33987  13.039  22.677   1.652
63388W        W33988  36.056   1.791  14.746
63389W        W33989  14.125  31.906   1.436
63390W        W33990  20.569   8.368   2.632
63391W        W33991  20.255  34.033   4.070
63392W        W33992  32.996   7.431   2.530
63393W        W33993  26.426  10.557   3.390
63394W        W33994  39.897  11.947   3.836
63395W        W33995  18.781  21.145  10.273
63396W        W33996  33.531  18.402  10.711
63397W        W33997  11.488  40.100  13.456
63398W        W33998  19.242  11.193   0.443
63399W        W33999  35.671   0.725   1.557
63400W        W34000  26.106  17.282  14.259
63401W        W34001  12.808  22.334  12.945
63402W        W34002  44.743  17.140   1.422
63403W        W34003  40.888  30.498   4.710
63404W        W34004  35.747   0.379  11.198
63405W        W34005  24.470  43.323  11.391
63406W        W34006  17.552  29.507  13.922
63407W        W34007  15.345  13.182   2.780
63408W        W34008  15.664   5.415   1.766
63409W        W34009  32.051  16.333   3.450
63410W        W34010  13.455  39.328   4.192
63411W        W34011  24.696  33.693   2.720
63412W        W34012   9.344  42.933   1.943
63413W        W34013  25.518  38.421  11.598
63414W        W34014  18.475  17.164   0.901
63415W        W34015  14.391  23.021  13.346
63416W        W34016  38.363  33.996   4.725
63417W        W34017  44.210   8.941  10.236
63418W        W34018  20.260  43.317  12.878
63419W        W34019  26.184  40.582  12.258
63420W        W34020  15.635  38.436   3.883
63421W        W34021  10.314  19.093   3.674
63422W        W34022  26.224  26.481  13.062
63423W        W34023   5.367  41.810   4.392
63424W        W34024  32.883  10.401   2.654
63425W        W34025  12.802  12.605  11.556
63426W        W34026  24.970  20.222  10.678
63427W        W34027  16.756  39.252  12.946
63428W        W34028  44.681   9.080   2.876
63429W        W34029  16.830   5.885   3.168
63430W        W34030  38.213  17.662   1.058
63431W        W34031  17.869  22.053   1.893
63432W        W34032  29.357  22.534  12.360
63433W        W34033   4.207  27.899  14.768
63434W        W34034  28.833   7.847  10.945
63435W        W34035  38.104   1.433  14.125
63436W        W34036  27.517   8.621   2.081
63437W        W34037  43.373  43.920  10.375
63438W        W34038   0.898  29.524   4.612
63439W        W34039   5.894  23.707   1.552
63440W        W34040  31.385  29.410  11.858
63441W        W34041  14.260  30.649  14.403
63442W        W34042  12.406  26.137  13.171
63443W        W34043   8.434   5.570   2.162
63444W        W34044  11.133  20.195  12.427
63445W        W34045  12.697  26.646  11.433
63446W        W34046  33.673  17.899  14.807
63447W        W34047  40.971  41.126   2.884
63448W        W34048  10.683  23.033  12.483
63449W        W34049  18.469   0.835  13.293
63450W        W34050   4.438  17.539  12.586
63451W        W34051   4.293  26.158   3.663
63452W        W34052  23.063   2.834  10.443
63453W        W34053  29.326  13.811  11.250
63454W        W34054   9.877  38.757   3.420
63455W        W34055   4.641  38.955   2.660
63456W        W34056  42.370  38.372   1.957
63457W        W34057  37.890  30.044  13.084
63458W        W34058   6.704  31.962   2.769
63459W        W34059  38.394   1.827   4.314
63460W        W34060  31.613   7.932   0.233
63461W        W34061   1.785  16.882   2.604
63462W        W34062  10.352  23.645  12.359
63463W        W34063  33.857  21.080   2.330
63464W        W34064  14.438  39.866   0.672
63465W        W34065   5.383   2.452   3.587
63466W        W34066  12.453   1.637   1.851
63467W        W34067  25.655  41.935   2.402
63468W        W34068   9.221  33.700   0.895
63469W        W34069  16.703   8.430  14.468
63470W        W34070   7.784  26.496   1.292
63471W        W34071  18.663  43.687  14.921
63472W        W34072   0.859  33.855  11.863
63473W        W34073  18.428  20.590   1.618
63474W        W34074  24.428  41.995   0.311
63475W        W34075  17.393  14.163  13.600
63476W        W34076  34.775  21.526  14.002
63477W        W34077  14.255   0.039  12.147
63478W        W34078  35.314  37.924  12.501
63479W        W34079  27.619   3.115  13.245
63480W        W34080   6.833  18.663   0.690
63481W        W34081  35.931   2.032   2.285
63482W        W34082  29.882  40.422  12.049
63483W        W34083  10.454  19.677   0.406
63484W        W34084   2.463  39.068   3.303
63485W        W34085  17.186  30.278  12.216
63486W        W34086  14.818  37.129  11.712
63487W        W34087   3.215  34.498   3.676
63488W        W34088   0.910  21.581   4.769
63489W        W34089   8.433  38.745  12.643
63490W        W34090   2.995  21.177   2.067
63491W        W34091  20.137   0.570  12.453
63492W        W34092  37.554  27.908   0.852
63493W        W34093  22.884  41.395  12.656
63494W        W34094  14.643  25.137  14.831
63495W        W34095  34.591  18.671   3.842
63496W        W34096  19.010  44.997   2.327
63497W        W34097  42.534  23.425   0.965
63498W        W34098  26.709  29.769  11.428
63499W        W34099  15.071  13.905   0.341
63500W        W34100   0.482  12.406   1.306
63501W        W34101   0.360   0.338  12.882
63502W        W34102  16.239  33.166  13.801
63503W        W34103  12.661  20.305   4.939
63504W        W34104  44.580  19.270   0.302
63505W        W34105  44.338  32.678  11.170
63506W        W34106  42.258   0.016   0.760
63507W        W34107  32.427  35.384   2.865
63508W        W34108  38.587   5.943  10.375
63509W        W34109  15.541  16.137  11.881
63510W        W34110  32.233   7.126  14.779
63511W        W34111   3.932   5.790  12.858
63512W        W34112   9.194  33.620   3.701
63513W        W34113  29.985  40.193   3.168
63514W        W34114   9.767  32.150   0.831
63515W        W34115  42.244   5.359   1.815
63516W        W34116  26.807  34.488  14.983
63517W        W34117  13.142  11.635  12.024
63518W        W34118  25.445  17.846   0.952
63519W        W34119   1.810  17.348  13.047
63520W        W34120  44.784  15.594  13.327
63521W        W34121  12.921  15.318   2.343
63522W        W34122  42.084   8.279  11.524
63523W        W34123  29.872   4.570  13.011
63524W        W34124  14.728  28.904  11.980
63525W        W34125  21.093  39.169   2.489
63526W        W34126  24.721   0.498  11.061
63527W        W34127  20.239  13.596  11.195
63528W        W34128   5.280   6.278   0.684
63529W        W34129  24.647  26.214  12.851
63530W        W34130  25.496  29.053  14.071
63531W        W34131  10.967  10.143  11.924
63532W        W34132   4.650  12.253  11.626
63533W        W34133   9.844  10.128   2.934
63534W        W34134  33.003   6.013  11.442
63535W        W34135   1.612  41.563   3.835
63536W        W34136   3.219  34.528   0.808
63537W        W34137  14.767   0.724  14.148
63538W        W34138  10.864  13.634  12.360
63539W        W34139  30.564  37.528   2.942
63540W        W34140  18.975   5.257   2.913
63541W        W34141  30.010  32.870  12.688
63542W        W34142   2.889   8.984   3.574
63543W        W34143   8.694  44.479   4.525
63544W        W34144  28.155  35.577  14.860
63545W        W34145  36.634  39.051   2.670
63546W        W34146  11.160  11.614   1.597
63547W        W34147  25.504  12.482  12.116
63548W        W34148  28.884   6.896   3.284
63549W        W34149  17.300  15.382   0.117
63550W        W34150  29.484  16.640   2.780
63551W        W34151  13.206  42.019   1.217
63552W        W34152  32.311  33.596   3.318
63553W        W34153  36.176  16.314  12.485
63554W        W34154  13.879  32.005   2.399
63555W        W34155  17.886  35.387   2.186
63556W        W34156  30.805  27.064  13.159
63557W        W34157   2.255  17.513   1.112
63558W        W34158  30.856  37.605  14.868
63559W        W34159  20.086   1.299  13.130
63560W        W34160  37.898  42.302  11.940
63561W        W34161  31.939   9.095   4.899
63562W        W34162  42.828  38.287   4.423
63563W        W34163  30.458  24.242   1.287
63564W        W34164  25.196  32.990  12.171
63565W        W34165  26.702  40.544  12.943
63566W        W34166  32.048  28.147  11.001
63567W        W34167   7.863  32.628  13.121
63568W        W34168  33.269   4.074   0.780
63569W        W34169  22.230  38.343  10.709
63570W        W34170  25.880  35.469  14.526
63571W        W34171   0.516  29.052   4.195
63572W        W34172  15.621  29.960  11.430
63573W        W34173  23.518  38.691   0.213
63574W        W34174  23.467  44.634   1.474
63575W        W34175  20.253  12.655  14.110
63576W        W34176  26.379  40.323  14.844
63577W        W34177  16.153   5.222  11.080
63578W        W34178  17.798   0.501   2.868
63579W        W34179  18.225  38.048   3.312
63580W        W34180  15.159   7.629  13.387
63581W        W34181  14.422  30.031   2.749
63582W        W34182  21.727  16.710  14.443
63583W        W34183   3.581  30.588   0.855
63584W        W34184  38.393  29.730   3.864
63585W        W34185  37.357  13.753   4.826
63586W        W34186   7.917   5.556  12.881
63587W        W34187  25.075  26.686   1.277
63588W        W34188  42.023  13.857   4.111
63589W        W34189   3.133  27.998  13.447
63590W        W34190  21.217  19.338   0.244
63591W        W34191  13.089   3.783   0.962
63592W        W34192  34.630  23.000  10.869
63593W        W34193   8.050   7.811   4.277
63594W        W34194  40.320  20.126  11.789
63595W        W34195  10.148  10.927   2.752
63596W        W34196  18.853  30.412  11.126
63597W        W34197  34.566  18.530   2.877
63598W        W34198  19.264   2.397  13.003
63599W        W34199  30.432   1.231  14.739
63600W        W34200   6.753  20.196   2.003
63601W        W34201  44.190  42.218   1.726
63602W        W34202  44.536  30.640   4.049
63603W        W34203  41.540   8.315   4.855
63604W        W34204   1.800  33.562  14.114
63605W        W34205  42.404  26.951   0.841
63606W        W34206  24.678  33.194   4.277
63607W        W34207  23.414  25.211  13.813
63608W        W34208   5.894  27.744  11.210
63609W        W34209  15.006  28.015  10.149
63610W        W34210   5.848  32.019   1.462
63611W        W34211  39.161   8.821   2.983
63612W        W34212  13.344  20.800   0.674
63613W        W34213   2.219  37.905   1.363
63614W        W34214   2.305  17.088   4.552
63615W        W34215  23.288   1.869   4.094
63616W        W34216   0.943  12.192  12.674
63617W        W34217  19.673  21.006  12.881
63618W        W34218  43.966  44.294   0.936
63619W        W34219   3.271  41.600   3.871
63620W        W34220  37.354  30.177  13.737
63621W        W34221  11.250  10.175   2.473
63622W        W34222   8.194  35.180   3.815
63623W        W34223  24.647  32.655   2.478
63624W        W34224   8.385  16.674  14.359
63625W        W34225  39.942  37.858   0.424
63626W        W34226   8.985  31.646  11.587
63627W        W34227   1.822  42.088  11.278
63628W        W34228   1.814   4.350   2.230
63629W        W34229  18.020   7.744   3.275
63630W        W34230  19.566  25.652   2.971
63631W        W34231  14.801  15.735   1.222
63632W        W34232  26.243  39.026   0.465
63633W        W34233   2.927   7.591   1.930
63634W        W34234  22.039   9.764  12.622
63635W        W34235  22.791  24.176  12.963
63636W        W34236  14.993  21.560   2.023
63637W        W34237  26.230  41.026  12.870
63638W        W34238  23.026  29.118  12.375
63639W        W34239   7.358  15.859   2.203
63640W        W34240  22.238  15.342  11.136
63641W        W34241  14.958  26.456  11.470
63642W        W34242  19.518  16.079  12.971
63643W        W34243  10.924  11.306   4.344
63644W        W34244  40.878  15.024  11.228
63645W        W34245  14.274   9.894  11.517
63646W        W34246  10.268  13.226  12.012
63647W        W34247  33.704   2.929   2.381
63648W        W34248  22.192   4.476   1.829
63649W        W34249   9.780  35.573  11.717
63650W        W34250   3.058  36.839  11.033
63651W        W34251   1.812  20.557  11.499
63652W        W34252  39.075  32.075   2.717
63653W        W34253   4.959  34.541   1.898
63654W        W34254  43.315   3.798  13.038
63655W        W34255   0.772  32.498   1.706
63656W        W34256  16.694  32.414  10.731
63657W        W34257  22.064  18.407  13.422
63658W        W34258  24.668   3.710  13.825
63659W        W34259  40.210  18.445  13.903
63660W        W34260   7.777  29.140  10.649
63661W        W34261   4.654  24.664  14.957
63662W        W34262  10.340   6.018  11.939
63663W        W34263  40.583  16.197   2.270
63664W        W34264  18.590  20.630   1.138
63665W        W34265  42.001  40.498   1.882
63666W        W34266  40.218  24.745  11.388
63667W        W34267   0.270  33.139   3.593
63668W        W34268   4.786  17.297  14.342
63669W        W34269  43.011  34.272  11.040
63670W        W34270  23.708  37.495   0.936
63671W        W34271   7.627   0.976   0.522
63672W        W34272  33.649   6.665  12.935
63673W        W34273  31.522  11.424   4.446
63674W        W34274  27.734  38.442  12.419
63675W        W34275   0.694  38.480   2.312
63676W        W34276  28.927  21.136  10.044
63677W        W34277   2.301  31.377   3.717
63678W        W34278  38.886   6.237  12.778
63679W        W34279  35.915  25.177  14.020
63680W        W34280  37.685  21.911  14.210
63681W        W34281  22.717  33.962  11.960
63682W        W34282  28.147  20.106  11.541
63683W        W34283  22.996   8.775   1.088
63684W        W34284  35.768  33.075   4.398
63685W        W34285  28.947   8.403  11.674
63686W        W34286  37.016   5.212   3.204
63687W        W34287  39.120   4.214   4.100
63688W        W34288   0.497  42.433  13.704
63689W        W34289   7.909  39.862   1.419
63690W        W34290  20.834  41.492   2.813
63691W        W34291  41.222   0.510   2.380
63692W        W34292  12.601  35.371   2.295
63693W        W34293  31.891  27.190  11.962
63694W        W34294  30.534  15.700  11.976
63695W        W34295  30.389  10.719   3.648
63696W        W34296   6.835  39.204   4.108
63697W        W34297  41.091  21.249   5.158
63698W        W34298  36.166  36.449   4.470
63699W        W34299  35.993  11.606   1.197
63700W        W34300  42.407  36.513  12.063
63701W        W34301   2.732  14.294  11.948
63702W        W34302   6.390  19.656   4.563
63703W        W34303  39.427  11.367  13.392
63704W        W34304  13.389  18.739   0.338
63705W        W34305  10.949   4.951  13.434
63706W        W34306   5.875   8.814  12.531
63707W        W34307  35.923  13.862   0.350
63708W        W34308   3.403  26.383  10.529
63709W        W34309   9.339  29.889   0.745
63710W        W34310  15.699   4.923   0.937
63711W        W34311  26.576  41.755  13.440
63712W        W34312  44.280  39.560   4.696
63713W        W34313  34.055  26.521  13.133
63714W        W34314  37.631   0.402   4.136
63715W        W34315  27.548  30.543  13.145
63716W        W34316  18.191  16.143   3.836
63717W        W34317  38.064  26.464   1.677
63718W        W34318  39.962   2.160   0.274
63719W        W34319  22.728  16.556   4.208
63720W        W34320  38.628  21.053  14.916
63721W        W34321   6.430  18.285   0.873
63722W        W34322  12.661   1.473   3.625
63723W        W34323   4.643  24.507   4.617
63724W        W34324   5.420   0.634  14.613
63725W        W34325   7.755  29.486  11.197
63726W        W34326  22.316  10.318  14.489
63727W        W34327   6.233   2.868  10.816
63728W        W34328  41.744  12.204   0.091
63729W        W34329   3.649  28.159   0.882
63730W        W34330  32.526   1.018   2.330
63731W        W34331   5.283  33.937  12.062
63732W        W34332  23.884  42.411   0.748
63733W        W34333  38.474   7.182  10.863
63734W        W34334  35.632   2.515   4.312
63735W        W34335  23.359  11.439  13.066
63736W        W34336  41.362  25.465   4.682
63737W        W34337  16.139  27.225   0.343
63738W        W34338  15.573  22.161   1.660
63739W        W34339  38.168  12.371   1.702
63740W        W34340   5.749  38.465   0.204
63741W        W34341  25.703  26.468  13.036
63742W        W34342  41.248  11.617   0.416
63743W        W34343   7.272  10.108  11.199
63744W        W34344  10.052  14.035  14.749
63745W        W34345  11.114  38.787  12.634
63746W        W34346  39.955  13.609   0.003
63747W        W34347  35.200  27.112   2.867
63748W        W34348   4.594  19.896   3.661
63749W        W34349  16.268  28.680   3.148
63750W        W34350  10.103  38.380   4.386
63751W        W34351  18.476  15.490  13.857
63752W        W34352  40.504  36.360  12.023
63753W        W34353  42.292  11.332   4.485
63754W        W34354   9.436  25.009   2.635
63755W        W34355   2.642  39.189   4.767
63756W        W34356  15.154  35.625   3.703
63757W        W34357  18.648  33.382  10.611
63758W        W34358  34.762  24.322  14.498
63759W        W34359  18.074  30.358  12.840
63760W        W34360  25.600  28.908   0.919
63761W        W34361  42.359  36.825  13.863
63762W        W34362  36.399  36.060   1.819
63763W        W34363  16.562  17.527   1.876
63764W        W34364  34.647  13.978   1.082
63765W        W34365  21.504  29.955  13.442
63766W        W34366  27.197  12.847  11.137
63767W        W34367  27.659  22.580   1.660
63768W        W34368  23.581  38.149   0.065
63769W        W34369  17.775  21.468   4.050
63770W        W34370   8.750   2.966   5.096
63771W        W34371  35.136   7.224  13.069
63772W        W34372   9.929   9.670   1.384
63773W        W34373  21.220  30.085   1.113
63774W        W34374  21.928  11.538   0.962
63775W        W34375  22.539  44.266   1.492
63776W        W34376  20.066  13.566   4.105
63777W        W34377  40.364  19.430   1.849
63778W        W34378  43.700  39.147  10.303
63779W        W34379   4.365  36.482   3.653
63780W        W34380  28.516  30.402   0.823
63781W        W34381   4.271  18.710   2.950
63782W        W34382  31.448  34.652  14.967
63783W        W34383   8.276  19.214   3.656
63784W        W34384  26.640  25.052  12.125
63785W        W34385   2.956  35.326  12.983
63786W        W34386  24.713  28.405   0.460
63787W        W34387   2.706   7.159   3.520
63788W        W34388  29.591  14.402  12.068
63789W        W34389  20.026  11.828   0.318
63790W        W34390  10.218  26.748   1.949
63791W        W34391  19.316   1.379   1.834
63792W        W34392  21.939  37.091   1.767
63793W        W34393   4.708  20.413  11.481
63794W        W34394   8.935  40.482  11.568
63795W        W34395   1.874  39.590   1.322
63796W        W34396   6.643  44.388   0.830
63797W        W34397   5.857   7.898  12.326
63798W        W34398  40.020  30.337   0.186
63799W        W34399  16.606  33.470  13.983
63800W        W34400   0.805  20.284   0.321
63801W        W34401  15.015  11.674   3.665
63802W        W34402   8.800  16.020  11.985
63803W        W34403  25.873   6.759   4.111
63804W        W34404  43.972  16.271   2.740
63805W        W34405  32.583  32.608   3.298
63806W        W34406  32.466  13.101   4.163
63807W        W34407  38.783  26.954   4.671
63808W        W34408  33.902  37.913   1.883
63809W        W34409  27.675  12.622  11.107
63810W        W34410   9.373   2.072  13.747
63811W        W34411  24.632   6.547   2.880
63812W        W34412  12.061  11.316  11.691
63813W        W34413  35.587  24.712   1.197
63814W        W34414  11.093  44.820  13.332
63815W        W34415  18.541   0.568   3.136
63816W        W34416  10.173  14.697  13.397
63817W        W34417  23.060  32.525   4.602
63818W        W34418  10.139  33.275   4.063
63819W        W34419  31.970  40.223   0.436
63820W        W34420  26.457  19.652  11.608
63821W        W34421  37.198   4.486   1.473
63822W        W34422  42.095  17.294   3.395
63823W        W34423   4.272   4.368  10.643
63824W        W34424  13.835  29.854   1.604
63825W        W34425  15.892  23.716  11.754
63826W        W34426  11.565  11.565   3.725
63827W        W34427   1.841  28.408  14.933
63828W        W34428  19.772  24.078  14.461
63829W        W34429  10.561  21.073  13.206
63830W        W34430  10.383   3.898   1.011
63831W        W34431  36.541  10.201  11.918
63832W        W34432   7.268  41.981  11.432
63833W        W34433  44.920  41.181  12.300
63834W        W34434   6.865  12.889  13.035
63835W        W34435  41.420  26.611   3.289
63836W        W34436  41.757   8.179   3.168
63837W        W34437   7.899  38.825   1.434
63838W        W34438  12.346   4.612   4.542
63839W        W34439  19.781  43.127  11.258
63840W        W34440   1.004  19.047   3.090
63841W        W34441  34.653  16.950   0.242
63842W        W34442  32.604  39.109  13.999
63843W        W34443  18.523  22.586   2.842
63844W        W34444  16.010  10.774  14.863
63845W        W34445   6.395  31.569  12.591
63846W        W34446  43.426  12.434  13.322
63847W        W34447  25.676  30.891  12.445
63848W        W34448  22.052  33.773   3.942
63849W        W34449  43.577  24.182  10.630
63850W        W34450  17.115  12.733   3.575
63851W        W34451   3.647  39.812   3.788
63852W        W34452  26.145   9.835  10.647
63853W        W34453  33.901  19.590   2.298
63854W        W34454   9.720  41.508  10.716
63855W        W34455  37.374   6.736  13.077
63856W        W34456  16.141  36.186   4.666
63857W        W34457  41.951  12.672   3.665
63858W        W34458  36.134  15.261  13.228
63859W        W34459  24.109  30.002   2.650
63860W        W34460  19.243  15.732   3.371
63861W        W34461   1.976   7.866  12.332
63862W        W34462  14.779  21.230  11.377
63863W        W34463  29.554   9.583   3.190
63864W        W34464  42.809  30.387  13.950
63865W        W34465  20.760   9.263   0.918
63866W        W34466  22.973  33.993   2.292
63867W        W34467  43.169   1.025  10.650
63868W        W34468  30.045  29.188  12.191
63869W        W34469   2.554  31.618   3.286
63870W        W34470  36.933  39.255   0.388
63871W        W34471   1.814  14.240   0.202
63872W        W34472  18.064  43.031   3.065
63873W        W34473  43.533  36.499  13.437
63874W        W34474   8.072  14.124   1.485
63875W        W34475   4.397  17.091  13.467
63876W        W34476  36.617   8.330   5.012
63877W        W34477  14.185   7.800  11.633
63878W        W34478  35.117  12.816   3.657
63879W        W34479  14.787  28.398   4.363
63880W        W34480  38.796  23.209  14.244
63881W        W34481   3.288   4.383   4.441
63882W        W34482   8.413  37.855  14.503
63883W        W34483  22.462  17.670  10.691
63884W        W34484   1.531  33.326   1.831
63885W        W34485  36.989   1.969   0.518
63886W        W34486  38.146  33.965  12.042
63887W        W34487  20.846   5.727   0.487
63888W        W34488  32.610  28.880  11.134
63889W        W34489  17.611   2.214   0.912
63890W        W34490  21.052   1.533   2.738
63891W        W34491  36.046  43.186  14.941
63892W        W34492  36.967   8.426   3.065
63893W        W34493  27.281  18.184   0.679
63894W        W34494  18.615   8.845  11.016
63895W        W34495  34.504  11.248  10.751
63896W        W34496   1.495  32.420  13.022
63897W        W34497   0.922  24.740   0.644
63898W        W34498  34.975  43.617  11.884
63899W        W34499  35.981  41.891   3.159
63900W        W34500  27.849  14.552  11.240
63901W        W34501  18.946  39.970   2.595
63902W        W34502  29.338  33.509  10.532
63903W        W34503  34.852  31.099   2.322
63904W        W34504   5.770  18.773   0.178
63905W        W34505  33.462   5.217  14.677
63906W        W34506  10.090  25.452   1.414
63907W        W34507  35.369  11.224  13.954
63908W        W34508  23.190  40.413   3.832
63909W        W34509  33.578  15.128  12.503
63910W        W34510  17.081  20.292   0.952
63911W        W34511  40.711  26.502  12.051
63912W        W34512   6.679  26.713   2.284
63913W        W34513  14.116  19.805  11.430
63914W        W34514   0.319  19.663   3.980
63915W        W34515  33.651   9.900  10.313
63916W        W34516  18.228  18.318   4.210
63917W        W34517  36.668  33.853  13.361
63918W        W34518  18.749  20.276   0.753
63919W        W34519  13.130   1.804   2.872
63920W        W34520   8.654  31.413   3.225
63921W        W34521  44.088  20.348  14.536
63922W        W34522  24.644  24.658  12.956
63923W        W34523  34.991  32.119   1.701
63924W        W34524  36.938  22.569   3.641
63925W        W34525  44.404   3.893  12.662
63926W        W34526  26.418  19.553   2.720
63927W        W34527  10.050   5.985  11.135
63928W        W34528  37.426  37.513  14.554
63929W        W34529  12.966  32.971   3.091
63930W        W34530  29.170   2.683   0.511
63931W        W34531  40.115  25.110  13.931
63932W        W34532  11.648  43.427   4.304
63933W        W34533  12.887  16.694  13.369
63934W        W34534   5.919  21.746   0.915
63935W        W34535  30.940  17.867  12.411
63936W        W34536   9.802  37.225  12.182
63937W        W34537  32.562  32.098  12.453
63938W        W34538   9.923  27.975  13.913
63939W        W34539   6.296  42.909   9.885
63940W        W34540  15.338  27.689  12.507
63941W        W34541   7.843  24.052  11.181
63942W        W34542  10.092  40.158  14.326
63943W        W34543  34.077  20.170   3.684
63944W        W34544  24.176  44.068   2.847
63945W        W34545  16.232  31.844  12.034
63946W        W34546   9.407  20.836   4.164
63947W        W34547  16.771  28.711   2.811
63948W        W34548  16.573  17.614  11.026
63949W        W34549  33.700  13.235  13.995
63950W        W34550  31.204  41.359   0.852
63951W        W34551   5.900   5.904   2.187
63952W        W34552  22.781   4.908   3.586
63953W        W34553  38.649   3.440  13.875
63954W        W34554  16.097  10.263  13.568
63955W        W34555   9.273  42.992   0.230
63956W        W34556  14.643  25.675   0.991
63957W        W34557  26.029  39.930   0.379
63958W        W34558   6.822   8.148   2.202
63959W        W34559  29.400  37.460  11.039
63960W        W34560  31.173  20.300   1.378
63961W        W34561  24.906  18.781   0.919
63962W        W34562  21.492  30.493  14.903
63963W        W34563  44.205   9.217  11.969
63964W        W34564   1.729  34.234  12.508
63965W        W34565  15.817   0.866   2.243
63966W        W34566  43.555   4.071  11.836
63967W        W34567  35.607  28.466  14.415
63968W        W34568  36.172  18.041   1.880
63969W        W34569   9.691  28.800  14.392
63970W        W34570  22.547   5.796   9.881
63971W        W34571  43.471  20.684   0.271
63972W        W34572  41.973  32.137  12.510
63973W        W34573  16.047  17.198   0.151
63974W        W34574  21.654   3.679   1.933
63975W        W34575  41.736   5.419   0.453
63976W        W34576  36.770  41.766   1.750
63977W        W34577   1.055   3.303  14.315
63978W        W34578   9.809  31.846  11.434
63979W        W34579  24.008   9.388   0.303
63980W        W34580  38.384  39.665  12.575
63981W        W34581  30.954  17.746  14.191
63982W        W34582   0.976  15.174   1.845
63983W        W34583  14.071  41.050   1.245
63984W        W34584  15.479  31.580  12.417
63985W        W34585   7.713  25.435   3.691
63986W        W34586  12.258  30.403   2.314
63987W        W34587  39.170   1.481   2.270
63988W        W34588  43.145  36.958   2.374
63989W        W34589  18.655   2.209  14.026
63990W        W34590   5.350  28.491   4.011
63991W        W34591  38.797   5.067   3.590
63992W        W34592  15.277   3.676  11.110
63993W        W34593  39.753  30.147   4.722
63994W        W34594   1.471   5.455   4.027
63995W        W34595  14.626  43.250  10.376
63996W        W34596   1.254   7.184   0.978
63997W        W34597  37.044  37.152  14.639
63998W        W34598  37.936  12.753  11.050
63999W        W34599  22.846  13.125  11.387
64000W        W34600   2.760   2.504   4.139
64001W        W34601   7.692  14.065  10.776
64002W        W34602  41.098  25.655  14.271
64003W        W34603  24.602   1.912   3.965
64004W        W34604  18.263   8.635  13.913
64005W        W34605  26.501  30.460  12.982
64006W        W34606  28.730  11.110  11.015
64007W        W34607  34.529   0.400   2.414
64008W        W34608  15.970  28.581  14.764
64009W        W34609  10.663   9.059  12.860
64010W        W34610  22.630  10.797   2.427
64011W        W34611  24.725  20.081  11.101
64012W        W34612   0.660   2.981   2.891
64013W        W34613  25.873  27.285  12.026
64014W        W34614  14.706  28.073   1.648
64015W        W34615  31.737   5.692   3.786
64016W        W34616  27.543  28.438  11.986
64017W        W34617  33.888  38.937   0.917
64018W        W34618  15.730   4.821   1.444
64019W        W34619   7.905   7.126  12.110
64020W        W34620  24.545  16.142  12.114
64021W        W34621  27.569  10.737  10.660
64022W        W34622   2.458   3.424  10.104
64023W        W34623   9.850  41.415   0.528
64024W        W34624  12.588   9.812  10.707
64025W        W34625   3.525  36.843  13.333
64026W        W34626  16.719   3.712   3.538
64027W        W34627  16.240  13.680   0.930
64028W        W34628  27.622  32.584  13.832
64029W        W34629  21.058  38.096  11.887
64030W        W34630  17.277  33.950  14.046
64031W        W34631   0.307  36.716  14.498
64032W        W34632   5.782  20.301  10.835
64033W        W34633   6.488  18.546  11.119
64034W        W34634   3.127  32.744   1.887
64035W        W34635   9.395  23.179   0.480
64036W        W34636  41.018  35.400  13.989
64037W        W34637  28.050  38.776   3.194
64038W        W34638   7.918   0.482   0.792
64039W        W34639  43.453  19.201   1.932
64040W        W34640  44.475  14.268  12.597
64041W        W34641  31.024  22.662  10.699
64042W        W34642  43.726  44.383   0.454
64043W        W34643  33.867   3.355  14.857
64044W        W34644   1.867  20.057  12.502
64045W        W34645  27.887  36.837  12.498
64046W        W34646  14.671   7.362  10.826
64047W        W34647   4.846  41.898  13.991
64048W        W34648  37.405  17.159   1.659
64049W        W34649  27.890  19.060  14.724
64050W        W34650  14.340  14.226   3.678
64051W        W34651  26.786  18.311  14.832
64052W        W34652  28.337  33.085   2.220
64053W        W34653  27.152  11.552   0.881
64054W        W34654   7.369  44.447   0.473
64055W        W34655  35.995  43.437   2.291
64056W        W34656  40.553  23.837  12.973
64057W        W34657  22.760  33.009  11.979
64058W        W34658  31.146  16.167   0.717
64059W        W34659  19.142  22.650  14.283
64060W        W34660   9.868  18.812   3.738
64061W        W34661  41.672  18.826  13.242
64062W        W34662  34.897  20.221   2.202
64063W        W34663  41.856  44.070  11.632
64064W        W34664  38.684  34.475   0.476
64065W        W34665  13.169  13.745   3.264
64066W        W34666   8.191  36.651  12.455
64067W        W34667  30.467  16.474   2.290
64068W        W34668   3.626  23.987   5.286
64069W        W34669   2.219  40.218   1.452
64070W        W34670  22.738  30.689   2.859
64071W        W34671  38.981  40.413  13.439
64072W        W34672  12.697   9.415  14.928
64073W        W34673  44.322  28.389  11.155
64074W        W34674   6.080  25.788  11.850
64075W        W34675  11.443  35.565  13.760
64076W        W34676  38.953   0.911  13.027
64077W        W34677   6.383  34.680  10.128
64078W        W34678  36.439  39.920  14.956
64079W        W34679  40.437  22.113  14.240
64080W        W34680  29.764  34.885   4.769
64081W        W34681  37.233  43.426  11.886
64082W        W34682   2.926  32.904  11.989
64083W        W34683   4.220  29.494   3.400
64084W        W34684  24.491  24.733   0.411
64085W        W34685  23.689  25.430  13.412
64086W        W34686   6.005  22.641  12.384
64087W        W34687  38.566  10.225  12.937
64088W        W34688  17.790   2.932  13.483
64089W        W34689  13.116  28.003  13.611
64090W        W34690  38.322   9.758  12.939
64091W        W34691  19.621  11.448   1.249
64092W        W34692   0.361  23.705  13.924
64093W        W34693  30.799  39.412  14.130
64094W        W34694  15.870  30.704   0.353
64095W        W34695  29.554  12.572  10.767
64096W        W34696   0.322   0.042  11.138
64097W        W34697  36.617  44.401   0.226
64098W        W34698   5.803  32.878   4.766
64099W        W34699   6.966   0.800  12.537
64100W        W34700  35.194   9.202  10.695
64101W        W34701  34.912   8.275  13.970
64102W        W34702  24.676  38.792  11.950
64103W        W34703   1.436  43.242   2.466
64104W        W34704  39.377  21.570  11.372
64105W        W34705   8.399  20.016  12.823
64106W        W34706  30.438   8.668   4.651
64107W        W34707  31.273  38.140   0.534
64108W        W34708  43.389  24.008   4.923
64109W        W34709  42.524  19.578  12.274
64110W        W34710   3.669  34.208  11.055
64111W        W34711  42.684   5.146   2.664
64112W        W34712   7.302  11.175  13.066
64113W        W34713  11.212  37.150  10.931
64114W        W34714  32.000   1.122   2.232
64115W        W34715  13.890  14.100   2.833
64116W        W34716   6.566  21.528   3.688
64117W        W34717   2.764  27.196   3.000
64118W        W34718  29.249   3.617  12.925
64119W        W34719  30.669  21.453  13.071
64120W        W34720  20.480  32.467  11.227
64121W        W34721   2.666  20.184  11.062
64122W        W34722   7.874  15.097   3.119
64123W        W34723  33.089  36.157   0.263
64124W        W34724  30.415  22.508  14.985
64125W        W34725  11.802   3.484  11.678
64126W        W34726  19.694  19.567   1.278
64127W        W34727  31.490  33.648   1.265
64128W        W34728   5.728   4.795   2.703
64129W        W34729  32.072  22.042   2.140
64130W        W34730  33.185   5.727  12.388
64131W        W34731  38.265  15.582   1.383
64132W        W34732  22.922  17.247  13.019
64133W        W34733  28.973  28.218  10.765
64134W        W34734  29.342  39.855   1.489
64135W        W34735  43.889  30.896  11.937
64136W        W34736  12.231   5.926  10.683
64137W        W34737  30.819  31.276  13.412
64138W        W34738  43.908  30.646   3.935
64139W        W34739  44.799  38.286  13.338
64140W        W34740  14.072   0.803  13.294
64141W        W34741  44.534  22.618  13.470
64142W        W34742  42.736  10.223   3.698
64143W        W34743  18.777  30.490   4.663
64144W        W34744   1.212  13.372  12.843
64145W        W34745  29.605  40.818   0.366
64146W        W34746  38.668  21.317  10.929
64147W        W34747  41.383  34.616  13.845
64148W        W34748  31.204   5.593  12.607
64149W        W34749  17.387  35.069  12.936
64150W        W34750  24.221  34.144  12.026
64151W        W34751  15.924  29.962   3.729
64152W        W34752   6.012  33.618   0.674
64153W        W34753   5.657  40.703   2.516
64154W        W34754  25.503  13.043  14.481
64155W        W34755  11.185  43.788   3.110
64156W        W34756  32.132   7.756  11.545
64157W        W34757  43.975   3.876  14.259
64158W        W34758   3.406   0.429  11.188
64159W        W34759  24.608   9.979  13.499
64160W        W34760   7.891  34.693  10.693
64161W        W34761  34.968  25.369   3.706
64162W        W34762  23.578  19.005  10.712
64163W        W34763  10.720  14.507  14.638
64164W        W34764  19.313  29.494  12.060
64165W        W34765   0.422   2.990   4.226
64166W        W34766   2.237  38.166  14.286
64167W        W34767  17.320  19.370   0.923
64168W        W34768  35.824  34.419   0.094
64169W        W34769  10.723  19.324   4.589
64170W        W34770  20.502  40.415   3.399
64171W        W34771  17.748  12.415   1.141
64172W        W34772  26.198  19.922  11.933
64173W        W34773  22.021  35.491  14.806
64174W        W34774   5.657  21.978   1.356
64175W        W34775  12.765  26.027   2.319
64176W        W34776  38.174  44.309   4.295
64177W        W34777  28.657  41.387  12.133
64178W        W34778  20.723   1.829  12.930
64179W        W34779  21.769  40.509  12.945
64180W        W34780  22.008  31.510  12.176
64181W        W34781   1.490  29.554  11.419
64182W        W34782   7.628   1.463   1.620
64183W        W34783   1.004  38.136   0.150
64184W        W34784   7.771  12.118   0.855
64185W        W34785  31.836  22.138  12.524
64186W        W34786  16.313  39.403   0.684
64187W        W34787  21.682   4.634  13.522
64188W        W34788  21.688  41.048   2.653
64189W        W34789  15.604   0.998  13.586
64190W        W34790  23.514   6.846  12.078
64191W        W34791  11.792  35.394   2.261
64192W        W34792  21.141  29.986   4.396
64193W        W34793   1.721  24.104  12.178
64194W        W34794  17.319  23.176   2.713
64195W        W34795  40.974  16.792  10.065
64196W        W34796  12.015   6.657  11.610
64197W        W34797  40.781  25.450  12.070
64198W        W34798  25.627   6.641   3.671
64199W        W34799  43.513  15.258   0.798
64200W        W34800  19.980   8.168   3.714
64201W        W34801  44.205  18.750  10.130
64202W        W34802   8.642   1.692   0.829
64203W        W34803  22.519  19.579  12.791
64204W        W34804  25.252  33.427   5.388
64205W        W34805  38.362  11.128  14.336
64206W        W34806  13.133  40.121   0.358
64207W        W34807  42.956  40.074  11.680
64208W        W34808  35.630  21.959   3.585
64209W        W34809  43.278  10.982   3.652
64210W        W34810  31.769  44.003  12.921
64211W        W34811  19.620  19.577  11.866
64212W        W34812  19.337  34.592   3.121
64213W        W34813  13.473  36.029  14.294
64214W        W34814  34.072  14.615   3.682
64215W        W34815   5.919  42.305   0.163
64216W        W34816  21.924  30.950  10.529
64217W        W34817  27.611   8.343  10.591
64218W        W34818  42.171  37.710  13.506
64219W        W34819  27.497  40.397  14.788
64220W        W34820  10.126  36.960  12.514
64221W        W34821  27.072  14.893  13.819
64222W        W34822  30.410  34.506   1.955
64223W        W34823  42.993  29.882   0.067
64224W        W34824  10.720  38.151  12.380
64225W        W34825  30.140   7.819   0.664
64226W        W34826   8.021  11.454   5.098
64227W        W34827  13.844   0.843   0.670
64228W        W34828  14.196  26.259  11.072
64229W        W34829   6.768  41.228   1.687
64230W        W34830  13.391  30.144  11.086
64231W        W34831  13.775  15.713  14.952
64232W        W34832   2.813   8.077   0.086
64233W        W34833  37.412  23.430   3.658
64234W        W34834  18.549  38.290   0.237
64235W        W34835  10.299  41.772  13.039
64236W        W34836  31.244  34.805  12.399
64237W        W34837  22.240  26.699   0.880
64238W        W34838  22.764  35.329   0.379
64239W        W34839  25.809  40.826   2.766
64240W        W34840  17.966   0.266   3.781
64241W        W34841   0.941   7.892  10.026
64242W        W34842  16.200  18.518   2.729
64243W        W34843  33.369  40.303   0.271
64244W        W34844  30.588  25.439   3.234
64245W        W34845  31.139  20.601  14.286
64246W        W34846  36.507  16.662  14.983
64247W        W34847  20.978  25.695  12.521
64248W        W34848  29.951   2.635  12.165
64249W        W34849  44.238   5.477   0.864
64250W        W34850  42.180  30.873   4.400
64251W        W34851  26.439  13.271  11.569
64252W        W34852  12.945  36.925  13.380
64253W        W34853  18.198  38.012   4.324
64254W        W34854  43.460  17.488  13.325
64255W        W34855   2.923   9.588  11.334
64256W        W34856  25.476   0.750   0.812
64257W        W34857  41.923  41.707   4.224
64258W        W34858  30.983  19.280  14.931
64259W        W34859  15.789  33.213   9.881
64260W        W34860  25.283  23.311  12.047
64261W        W34861  24.946  22.814  14.378
64262W        W34862  40.251  16.042   0.940
64263W        W34863  19.793  12.616  12.973
64264W        W34864  29.149  20.010   1.871
64265W        W34865   6.727  33.869   5.035
64266W        W34866  14.099  31.704  11.059
64267W        W34867  40.566  25.511   4.104
64268W        W34868  21.506  20.098  14.774
64269W        W34869   9.624  32.670  13.471
64270W        W34870  19.238   9.781  13.479
64271W        W34871  27.051  23.824   3.597
64272W        W34872  32.659   5.388   4.634
64273W        W34873  28.072  29.131   4.814
64274W        W34874  40.956   8.418   4.199
64275W        W34875   1.848   7.637   0.360
64276W        W34876   2.500  43.491   3.824
64277W        W34877  37.158  32.631  11.187
64278W        W34878   0.043  44.854   0.497
64279W        W34879  27.999  25.595  13.098
64280W        W34880  18.690   9.660   4.370
64281W        W34881  26.371  15.358   2.414
64282W        W34882  40.977  12.379  14.310
64283W        W34883   5.286  10.440  13.596
64284W        W34884  39.537  28.958   0.443
64285W        W34885   7.324  15.685   0.703
64286W        W34886  34.503   0.550   4.324
64287W        W34887  14.918   6.870   4.243
64288W        W34888  20.204  22.929  11.106
64289W        W34889  43.929  17.464   2.268
64290W        W34890  27.067  22.912   2.653
64291W        W34891  13.596   1.894  14.856
64292W        W34892  11.651   1.060  13.503
64293W        W34893  17.858   5.113  11.613
64294W        W34894   0.799  44.044   2.680
64295W        W34895  23.416   6.569   1.702
64296W        W34896  19.492  12.229   0.732
64297W        W34897  37.946  31.668   4.272
64298W        W34898   4.220   3.481  13.476
64299W        W34899  12.882   3.125   4.245
64300W        W34900  23.260  36.066   0.870
64301W        W34901  43.648  36.569  11.171
64302W        W34902  18.246  14.207   3.183
64303W        W34903  27.641  27.300   0.464
64304W        W34904  29.015  40.595  12.003
64305W        W34905   7.321   8.900  10.655
64306W        W34906  13.936   7.948  10.976
64307W        W34907  31.878   1.792   0.019
64308W        W34908   0.337  29.651   0.539
64309W        W34909  35.980  41.238  10.697
64310W        W34910  27.895  42.408   4.268
64311W        W34911  25.719   5.701  10.887
64312W        W34912   7.797  11.665  12.472
64313W        W34913  35.342  33.141  11.118
64314W        W34914  42.868  38.767  12.097
64315W        W34915  12.096   7.895  11.061
64316W        W34916  27.895  36.898   2.572
64317W        W34917  40.413  24.560  13.548
64318W        W34918  35.600   8.462  13.437
64319W        W34919   1.435  29.280  14.027
64320W        W34920   9.697  18.414  11.508
64321W        W34921  11.224  21.108  10.827
64322W        W34922  11.766   2.428   4.072
64323W        W34923   5.486  13.216   1.831
64324W        W34924  38.373  42.971   1.508
64325W        W34925  25.099   6.835   3.733
64326W        W34926  27.592  32.491  14.326
64327W        W34927  19.745  31.373   0.878
64328W        W34928   9.333   3.288  11.175
64329W        W34929  40.446  24.958   0.886
64330W        W34930   0.416  41.030   0.922
64331W        W34931  34.334  34.028  11.114
64332W        W34932  37.573  29.625   2.264
64333W        W34933   9.505  38.547  13.974
64334W        W34934   1.358   6.348  12.508
64335W        W34935  32.439  28.489  12.611
64336W        W34936  26.023  18.103  13.442
64337W        W34937  20.511  34.952  12.963
64338W        W34938  19.820  17.145  12.508
64339W        W34939  40.652   1.173   2.381
64340W        W34940   2.972  16.080   1.803
64341W        W34941  23.226  14.123   3.124
64342W        W34942   8.158  36.432  11.623
64343W        W34943  26.764  14.154  11.521
64344W        W34944  23.978  22.124   2.691
64345W        W34945  10.639  36.787  13.061
64346W        W34946  12.113  31.146   0.014
64347W        W34947  16.536   7.956  14.332
64348W        W34948   2.410  21.962   4.836
64349W        W34949  42.588  20.285  10.336
64350W        W34950   9.374  33.892  13.757
64351W        W34951  23.607  26.064  13.167
64352W        W34952  11.751  40.829   2.401
64353W        W34953   7.646   1.897   2.380
64354W        W34954   7.065   8.831  11.097
64355W        W34955   9.373  44.348  13.432
64356W        W34956  23.285  34.370   0.443
64357W        W34957   6.011   9.979  12.081
64358W        W34958  37.051   1.881  13.238
64359W        W34959   2.507  26.609  10.911
64360W        W34960   2.899  22.096   0.700
64361W        W34961   0.823  39.749  13.907
64362W        W34962  37.886  18.031  14.366
64363W        W34963  42.209   2.658  10.709
64364W        W34964   8.949  34.333   3.281
64365W        W34965   8.828  35.483   1.903
64366W        W34966   7.209  14.398  14.191
64367W        W34967  20.973  33.661  12.545
64368W        W34968  31.087  35.027  14.511
64369W        W34969  14.398   6.203  11.485
64370W        W34970  44.780  24.558   0.263
64371W        W34971  31.888  15.587   0.743
64372W        W34972  33.544  40.443   1.407
64373W        W34973   0.342  35.047   4.721
64374W        W34974  43.988  15.795   4.111
64375W        W34975  39.482  18.101  11.948
64376W        W34976   0.889   9.094   1.865
64377W        W34977  36.869   2.721  14.314
64378W        W34978   8.620   3.083   4.620
64379W        W34979  44.331  19.571  10.976
64380W        W34980   9.455  41.916   2.170
64381W        W34981  38.039  41.297  12.049
64382W        W34982  11.134  28.357  13.360
64383W        W34983  11.692  40.760   3.762
64384W        W34984  30.634  42.343  11.746
64385W        W34985  25.473   8.993  13.264
64386W        W34986   7.829  22.868   2.630
64387W        W34987   8.919  13.619  11.941
64388W        W34988  20.595   1.824  13.437
64389W        W34989  40.910   8.059   3.618
64390W        W34990  43.962  12.710   2.294
64391W        W34991  10.288  23.404  13.943
64392W        W34992   7.504  39.742   2.846
64393W        W34993  26.680  27.706   1.552
64394W        W34994  13.420  19.380  11.468
64395W        W34995  15.581  10.357  11.827
64396W        W34996  23.400  37.106  11.314
64397W        W34997  44.998  43.325   4.956
64398W        W34998  19.168  12.360   4.644
64399W        W34999  41.059  22.235  12.491
64400W        W35000   6.749  34.459  13.468
64401W        W35001   2.831  36.063   1.198
64402W        W35002  22.857  23.247  14.924
64403W        W35003  25.411  13.741  12.491
64404W        W35004  28.745  16.631   3.731
64405W        W35005  28.520  34.776   3.748
64406W        W35006   5.480  42.427  12.560
64407W        W35007  13.510  43.253   2.342
64408W        W35008  44.743  41.275  11.051
64409W        W35009   9.393  22.754  11.286
64410W        W35010  38.858  13.944   1.284
64411W        W35011  25.011  42.824   0.728
64412W        W35012  40.983   0.319  12.576
64413W        W35013   2.617  11.596   0.088
64414W        W35014  23.613   1.527  10.479
64415W        W35015  20.612  20.664   4.275
64416W        W35016  31.511  15.717   2.830
64417W        W35017  23.807  16.748  13.049
64418W        W35018  24.796  17.975  13.034
64419W        W35019  35.696  17.716   0.239
64420W        W35020  29.590  18.083  14.248
64421W        W35021  18.149  29.651   3.753
64422W        W35022  24.412  27.342  14.462
64423W        W35023   4.762   1.351  14.786
64424W        W35024  33.633  17.826   3.235
64425W        W35025  40.959  22.227  14.283
64426W        W35026  18.574  26.590  14.270
64427W        W35027  44.528  29.933   2.216
64428W        W35028  38.189  33.456  13.308
64429W        W35029  35.916   7.437  11.147
64430W        W35030   2.333  26.052  12.151
64431W        W35031  28.133  20.371  11.097
64432W        W35032  30.881   9.924   4.547
64433W        W35033   9.402  41.960   4.938
64434W        W35034  23.609  27.924  11.678
64435W        W35035   2.954  39.036   3.081
64436W        W35036  35.290   8.569   2.349
64437W        W35037   9.302  30.495   1.426
64438W        W35038  41.424   1.936   0.866
64439W        W35039  22.744  17.779   0.522
64440W        W35040  36.842   7.947  14.885
64441W        W35041   3.433  10.612   2.435
64442W        W35042  16.294  35.069  13.976
64443W        W35043  18.667  29.644   1.520
64444W        W35044  22.011  15.018   4.521
64445W        W35045  11.448  12.663  14.984
64446W        W35046  44.056  23.288  10.526
64447W        W35047  12.043   5.748  11.525
64448W        W35048  41.688   9.219  11.563
64449W        W35049  22.262   5.948   2.769
64450W        W35050  44.472  15.653   3.239
64451W        W35051  36.048  21.698  14.737
64452W        W35052   0.043  26.550  14.941
64453W        W35053  21.995  43.326  11.496
64454W        W35054   0.516  16.720   1.257
64455W        W35055  32.112  11.321   1.081
64456W        W35056  41.365   5.433  10.815
64457W        W35057   2.940  26.627  10.618
64458W        W35058  41.561   1.453  13.799
64459W        W35059  20.712  33.947  14.811
64460W        W35060   8.526  14.089   1.251
64461W        W35061  26.291  31.986   4.400
64462W        W35062  20.366  44.279   3.073
64463W        W35063  35.440  12.418  12.778
64464W        W35064  39.558  42.308   3.792
64465W        W35065  13.320  44.289   1.035
64466W        W35066  32.563  10.673   0.820
64467W        W35067  22.590  40.189   4.978
64468W        W35068  23.686   2.989   3.116
64469W        W35069   1.414  25.899   4.931
64470W        W35070  31.688  18.674   2.662
64471W        W35071  18.276  27.902  14.341
64472W        W35072  12.155  42.575   0.518
64473W        W35073   0.413   3.940   3.284
64474W        W35074  10.616  29.585  12.082
64475W        W35075  36.782  10.894   4.412
64476W        W35076  30.060   5.915   2.228
64477W        W35077  16.667   6.267   0.924
64478W        W35078   8.419  30.603   3.053
64479W        W35079  43.131  25.199   2.237
64480W        W35080   6.484  10.198  11.936
64481W        W35081  21.076  10.733   0.254
64482W        W35082  16.787   3.314  11.802
64483W        W35083  29.160  34.797   4.107
64484W        W35084  43.764   4.285  12.642
64485W        W35085  23.312  20.078   2.883
64486W        W35086  20.028  22.635   2.886
64487W        W35087  41.483  23.876   1.876
64488W        W35088  26.055  19.605  14.458
64489W        W35089   3.985  37.370   2.116
64490W        W35090   9.102  18.957  12.563
64491W        W35091  23.404  42.855   0.019
64492W        W35092  29.550   6.168  10.670
64493W        W35093  16.546  30.743   2.436
64494W        W35094  20.563   5.977   1.831
64495W        W35095   7.787  41.948   0.174
64496W        W35096  40.333   3.823   4.107
64497W        W35097  15.177  36.490   0.505
64498W        W35098  25.119   9.130  11.945
64499W        W35099   3.465  19.752  12.216
64500W        W35100   5.366   9.929  13.546
64501W        W35101  43.259  25.279   0.490
64502W        W35102   6.315  19.957  13.658
64503W        W35103   5.157  33.076  14.339
64504W        W35104   2.855  36.592  13.603
64505W        W35105  19.774  34.010   3.847
64506W        W35106  39.802  33.720  12.696
64507W        W35107  39.234  18.197   3.643
64508W        W35108  20.059  18.522  14.383
64509W        W35109   2.738  38.647   3.487
64510W        W35110   6.667  18.836   0.227
64511W        W35111  29.016  26.549   1.524
64512W        W35112   9.244  15.294  13.890
64513W        W35113  43.192  22.876  11.946
64514W        W35114  16.311  44.838  14.628
64515W        W35115   0.784   0.991   4.208
64516W        W35116  26.245   4.178   4.527
64517W        W35117  30.053  28.672   4.649
64518W        W35118  22.936  19.824   0.933
64519W        W35119  10.635  41.286  11.473
64520W        W35120   9.187  28.103  11.865
64521W        W35121  34.172  42.506  13.683
64522W        W35122  44.450  34.843  11.976
64523W        W35123  31.984  36.521   3.074
64524W        W35124  42.104  23.107   0.853
64525W        W35125  12.595  31.361   0.001
64526W        W35126  31.151  13.765  11.952
64527W        W35127  31.473  13.847   3.209
64528W        W35128  41.352  41.313   2.549
64529W        W35129  41.038  14.355   2.759
64530W        W35130   5.920  22.097   0.516
64531W        W35131  18.214  32.476  14.425
64532W        W35132  35.831  43.444   3.687
64533W        W35133  24.204  25.964  14.924
64534W        W35134   3.936  44.216  14.364
64535W        W35135  33.551  13.122   3.251
64536W        W35136   7.443  17.069  12.310
64537W        W35137  15.323  24.251  13.007
64538W        W35138  34.856   3.314  12.203
64539W        W35139  28.242  28.631  12.561
64540W        W35140  23.816  10.729   3.393
64541W        W35141  19.237  21.741  11.870
64542W        W35142  34.460  18.834  12.755
64543W        W35143  40.794  17.694  14.543
64544W        W35144  22.823  34.174   1.213
64545W        W35145  11.297  11.399  12.152
64546W        W35146  39.754  44.461  14.327
64547W        W35147  28.415  30.417   2.150
64548W        W35148  26.694  32.338  10.809
64549W        W35149   8.125  15.229  14.460
64550W        W35150   6.606  41.863  12.168
64551W        W35151  37.178  15.155   3.208
64552W        W35152  43.940  23.661   3.673
64553W        W35153   2.027  23.981   4.010
64554W        W35154  28.046  10.227   0.403
64555W        W35155  39.042  34.896  11.314
64556W        W35156  32.570  24.414   0.459
64557W        W35157  17.635   3.967   1.821
64558W        W35158  13.786  39.894   4.980
64559W        W35159  15.454  33.311  12.445
64560W        W35160  22.688   9.945   0.247
64561W        W35161  24.414  44.493  14.341
64562W        W35162   6.184  40.733   1.290
64563W        W35163   8.274  36.832   4.752
64564W        W35164  41.461  26.735  11.609
64565W        W35165   2.807   9.107   1.746
64566W        W35166  44.519  10.853   2.442
64567W        W35167  32.117   7.605  13.922
64568W        W35168   4.290  30.410   4.446
64569W        W35169   1.102  12.425   0.864
64570W        W35170  16.744  27.691   2.763
64571W        W35171  42.711  29.454  13.331
64572W        W35172  38.893  17.775   3.208
64573W        W35173   8.592  39.080  14.969
64574W        W35174  37.579  37.841   0.468
64575W        W35175  39.311  10.227   1.316
64576W        W35176  26.999  14.641   3.304
64577W        W35177  18.980  30.913   1.688
64578W        W35178  39.088  34.465  12.058
64579W        W35179  37.580  16.712  10.848
64580W        W35180  36.469   5.230  10.798
64581W        W35181   4.683  37.494  14.415
64582W        W35182  16.232  15.322   2.144
64583W        W35183  26.654  43.231  13.930
64584W        W35184  11.058  14.065   4.332
64585W        W35185  24.134   4.827  13.378
64586W        W35186   2.824  17.690   3.925
64587W        W35187  31.734  43.087  13.466
64588W        W35188  15.825   2.994   0.488
64589W        W35189  44.020  34.045  14.784
64590W        W35190  21.444  16.377  10.779
64591W        W35191   5.603  25.122   3.077
64592W        W35192  40.261   3.701   5.378
64593W        W35193  13.562   7.097   0.433
64594W        W35194  33.222   5.722   1.336
64595W        W35195   4.898  38.876   0.760
64596W        W35196  24.150  37.192  10.754
64597W        W35197   6.345  30.119  14.949
64598W        W35198  23.175  21.653   4.585
64599W        W35199  13.509  22.161  11.622
64600W        W35200  34.477  36.350  14.102
64601W        W35201  14.855  41.726   2.760
64602W        W35202   3.627  35.292   5.680
64603W        W35203   2.840   9.951   1.926
64604W        W35204  30.357  13.720  11.056
64605W        W35205  43.830  35.380   4.619
64606W        W35206  11.095  24.673  10.771
64607W        W35207   5.226  41.327   0.191
64608W        W35208   8.500   7.147   3.750
64609W        W35209  15.652   0.852  14.070
64610W        W35210  15.400   1.630  14.442
64611W        W35211  22.190   4.005  12.143
64612W        W35212   0.680   9.295   2.712
64613W        W35213  40.961  25.034   0.721
64614W        W35214  13.905   8.449   2.898
64615W        W35215  35.182   4.294  14.386
64616W        W35216  41.484  23.152   2.594
64617W        W35217  36.810  18.683   2.375
64618W        W35218   7.937   1.148  12.372
64619W        W35219  35.039  33.806  12.132
64620W        W35220  10.942   2.435   0.978
64621W        W35221  12.683  21.032   0.425
64622W        W35222  13.042  21.155   3.500
64623W        W35223  17.505  26.708  12.864
64624W        W35224  33.775  43.060  13.855
64625W        W35225  21.228  44.072  11.126
64626W        W35226  11.142  23.873   4.215
64627W        W35227  37.160  25.282  13.473
64628W        W35228  10.388   1.100  11.554
64629W        W35229  29.433  23.228   1.231
64630W        W35230  31.518   7.519   3.247
64631W        W35231   7.991  11.901  12.951
64632W        W35232  13.244  17.792  11.480
64633W        W35233   7.723   5.119   1.839
64634W        W35234  15.358  30.279  11.996
64635W        W35235  13.334  40.095  12.711
64636W        W35236  13.364   6.721  13.797
64637W        W35237  15.775   3.488  11.510
64638W        W35238  14.530  30.898  11.674
64639W        W35239  31.547  30.400  14.351
64640W        W35240  15.614  32.127  13.026
64641W        W35241  34.373  29.659   4.617
64642W        W35242   1.832  36.653   3.688
64643W        W35243  11.718  32.835  13.967
64644W        W35244  43.812   4.686   0.983
64645W        W35245   4.735  24.093   2.615
64646W        W35246  27.229  15.272   0.347
64647W        W35247  18.448   4.315  14.845
64648W        W35248  33.119  20.686   3.750
64649W        W35249  12.087  42.951   0.865
64650W        W35250   9.761  21.864   2.604
64651W        W35251  34.450  28.486  13.795
64652W        W35252   0.988  14.228  12.518
64653W        W35253  27.470   4.855  14.890
64654W        W35254  24.653   4.431   0.205
64655W        W35255  26.805  38.930   2.338
64656W        W35256  40.490  36.891  10.749
64657W        W35257   2.864  32.329   1.742
64658W        W35258  17.323  16.707  14.063
64659W        W35259  10.837   3.264   4.224
64660W        W35260  14.660   2.300   1.004
64661W        W35261   0.607   9.317  11.559
64662W        W35262  16.751  44.316  10.943
64663W        W35263  12.633  26.343  14.881
64664W        W35264  40.464  39.980  13.952
64665W        W35265  11.815  22.222  14.179
64666W        W35266  38.499  29.497   4.795
64667W        W35267  33.479  33.515   0.978
64668W        W35268  31.121  21.069   1.861
64669W        W35269  20.376  28.691   3.349
64670W        W35270   1.311  35.659   2.226
64671W        W35271   7.241  21.590   2.358
64672W        W35272   1.933   1.262  14.244
64673W        W35273  14.092  34.857   2.228
64674W        W35274  18.764  18.996   2.226
64675W        W35275  22.671  30.748  10.358
64676W        W35276  29.065  29.373   2.659
64677W        W35277  35.462   5.836   2.129
64678W        W35278  12.691   7.327  14.601
64679W        W35279  28.148  14.271  13.410
64680W        W35280   2.894   8.516  13.533
64681W        W35281  10.931   8.815   3.100
64682W        W35282  16.910  37.078   3.272
64683W        W35283  31.250   7.071   4.200
64684W        W35284  32.121  17.288  10.703
64685W        W35285   8.806  37.823   1.446
64686W        W35286  40.126  14.860  12.856
64687W        W35287  18.808   7.327  14.695
64688W        W35288   2.021  29.939  13.918
64689W        W35289  43.095   2.758   5.021
64690W        W35290  38.898   8.052  13.456
64691W        W35291  30.956  36.390   1.771
64692W        W35292   3.863  26.648   3.295
64693W        W35293   5.774  35.631  14.351
64694W        W35294  20.623   0.422   0.816
64695W        W35295  34.515  40.841  12.671
64696W        W35296  44.323   8.212   0.348
64697W        W35297  38.143  10.597   3.364
64698W        W35298  21.580  37.563   0.991
64699W        W35299  15.648  11.321   2.895
64700W        W35300   1.253  40.488  10.750
64701W        W35301  12.758  16.686   1.291
64702W        W35302  16.266  16.221  11.572
64703W        W35303  22.137  33.569  11.597
64704W        W35304  37.306  23.685  11.094
64705W        W35305  37.146  34.588   1.451
64706W        W35306  34.499  23.584   1.785
64707W        W35307  35.485  11.636   0.335
64708W        W35308   3.179   0.951   2.217
64709W        W35309   5.730  10.231  12.534
64710W        W35310   9.925   3.715   3.389
64711W        W35311  34.931   2.093  11.405
64712W        W35312   2.714  32.659  11.567
64713W        W35313  31.546   3.727   4.258
64714W        W35314   2.014  22.996  11.447
64715W        W35315  29.649  35.399   2.271
64716W        W35316  12.415   9.463   3.787
64717W        W35317  42.882   9.792   3.943
64718W        W35318   1.342  11.122   0.429
64719W        W35319  38.873   6.271  14.939
64720W        W35320  36.103   2.316  14.905
64721W        W35321  22.437  11.448   3.719
64722W        W35322  15.843  38.875  10.675
64723W        W35323  22.094  44.028   1.706
64724W        W35324  15.665  12.391  11.170
64725W        W35325   8.256   4.612  12.972
64726W        W35326   1.431   4.534   3.015
64727W        W35327  16.311  15.266   0.310
64728W        W35328  12.186   3.829  13.593
64729W        W35329   9.957  25.099   2.668
64730W        W35330  14.343  31.437   3.905
64731W        W35331   3.224  14.077  11.969
64732W        W35332   1.382  20.484  11.149
64733W        W35333   2.481  26.268   3.261
64734W        W35334   6.083  19.239   4.585
64735W        W35335  42.731  31.614   3.280
64736W        W35336   0.426  35.906   2.639
64737W        W35337  15.031  13.106  14.827
64738W        W35338   8.539  26.984  14.645
64739W        W35339  34.800  33.084   1.333
64740W        W35340  35.196  44.965  14.003
64741W        W35341  38.871  21.525  14.876
64742W        W35342  28.355   9.120  13.962
64743W        W35343  42.289  44.286  12.914
64744W        W35344  29.476   5.733  12.034
64745W        W35345   1.895  18.849  13.344
64746W        W35346   6.924  31.896   3.234
64747W        W35347  12.595  25.395  13.895
64748W        W35348  20.602   7.244   3.674
64749W        W35349  16.505  28.077  11.139
64750W        W35350  19.085  14.481  10.982
64751W        W35351  31.354  34.200   3.735
64752W        W35352  13.494  14.275  12.095
64753W        W35353  13.336   8.670   4.218
64754W        W35354  17.478  38.372   4.931
64755W        W35355  39.060  32.642  12.456
64756W        W35356  41.418  30.470   4.813
64757W        W35357  11.316  22.370   4.091
64758W        W35358  13.626  31.156  11.603
64759W        W35359   0.830  11.044  14.649
64760W        W35360  15.954  23.917  14.698
64761W        W35361  38.924   0.612   0.539
64762W        W35362  19.114  38.125   4.607
64763W        W35363  28.632  32.725   2.436
64764W        W35364  43.456  23.588  14.950
64765W        W35365   0.113   6.076  11.441
64766W        W35366  41.507  24.800   0.586
64767W        W35367  18.556  22.278  11.581
64768W        W35368  19.260  21.662   0.189
64769W        W35369  44.802   4.807   4.176
64770W        W35370  11.508  14.021   4.043
64771W        W35371  25.960   8.805   1.741
64772W        W35372  27.055  39.859   5.153
64773W        W35373  24.458  25.981  14.447
64774W        W35374   4.787  13.695   3.741
64775W        W35375  29.626  21.186  11.377
64776W        W35376  33.507  36.610  13.966
64777W        W35377  26.751   6.142   0.044
64778W        W35378   5.346  14.634  13.830
64779W        W35379   8.848  32.618  13.744
64780W        W35380   0.421   6.032   0.808
64781W        W35381   4.196   8.238   2.133
64782W        W35382  21.331  21.538   3.195
64783W        W35383  39.834  39.409   1.486
64784W        W35384  43.439  21.078   4.449
64785W        W35385   0.113   6.326   4.623
64786W        W35386  23.788  36.944  12.046
64787W        W35387   7.858  34.157  10.717
64788W        W35388  21.604  33.844   1.743
64789W        W35389   5.765  14.298   5.043
64790W        W35390  13.856   6.157   3.753
64791W        W35391  21.201  10.146   4.407
64792W        W35392   2.337  41.063  10.708
64793W        W35393  30.590  18.746   0.775
64794W        W35394  14.048   0.079   1.456
64795W        W35395  42.034   6.574  12.981
64796W        W35396  34.592   5.272  13.103
64797W        W35397   1.713   2.874  13.989
64798W        W35398  37.592   6.658  12.602
64799W        W35399  21.102  29.188   3.770
64800W        W35400   0.313  18.848   0.271
64801W        W35401  33.883  11.762   4.183
64802W        W35402   7.934  41.046   1.810
64803W        W35403  42.424  22.463  12.421
64804W        W35404  17.076  13.634  14.846
64805W        W35405  17.110  20.268  11.389
64806W        W35406  28.191  13.714   3.535
64807W        W35407  18.785  38.242   2.773
64808W        W35408  37.986  27.033   0.194
64809W        W35409  22.127  43.929  12.106
64810W        W35410  39.378  38.921   0.002
64811W        W35411   0.838  27.582   1.784
64812W        W35412  36.341  44.965  13.346
64813W        W35413  12.215   1.071   4.633
64814W        W35414  30.087  38.327  14.777
64815W        W35415  40.901   6.898  14.529
64816W        W35416  29.189   5.785   4.399
64817W        W35417  23.981  26.248  12.426
64818W        W35418  37.956  35.517  13.519
64819W        W35419  25.718  17.674   2.750
64820W        W35420  36.490  23.754   3.081
64821W        W35421   0.415  15.236   0.693
64822W        W35422   4.323  29.908  14.373
64823W        W35423   1.913  32.321  14.869
64824W        W35424  13.189  14.012   5.110
64825W        W35425   9.642  32.077   1.688
64826W        W35426  43.490  15.920  11.992
64827W        W35427  33.170   4.775  14.812
64828W        W35428  10.758  24.198   4.019
64829W        W35429  44.473  43.421   3.727
64830W        W35430  24.045  22.747  10.588
64831W        W35431  36.407  25.552   3.701
64832W        W35432  44.519  42.441   1.406
64833W        W35433  23.235  42.728  11.530
64834W        W35434  14.189  11.453   0.266
64835W        W35435  21.176   9.460   1.359
64836W        W35436  21.341  21.143   1.565
64837W        W35437   3.748  31.277   3.627
64838W        W35438   6.923   8.939  12.506
64839W        W35439  29.047   5.881   2.819
64840W        W35440   1.820  44.056  11.792
64841W        W35441   2.341  20.342   3.839
64842W        W35442  22.256  42.456  13.144
64843W        W35443  23.556  15.742  13.173
64844W        W35444  22.107  44.998   0.982
64845W        W35445   1.726  36.276   1.836
64846W        W35446  16.762  22.287   3.808
64847W        W35447  24.958   6.022   4.092
64848W        W35448  10.004  26.739   1.173
64849W        W35449  22.735   7.818   1.278
64850W        W35450  26.374  40.066  10.806
64851W        W35451  16.161  34.373   3.527
64852W        W35452  26.525  30.436  13.885
64853W        W35453  23.944   6.131   3.249
64854W        W35454  37.439  27.923   4.587
64855W        W35455   1.263  32.466   0.336
64856W        W35456  33.528  38.508  14.985
64857W        W35457  31.310   8.484   0.228
64858W        W35458  33.184  42.511  11.722
64859W        W35459  22.965  30.136  13.572
64860W        W35460   8.457  36.535   4.053
64861W        W35461   0.656  32.389   0.285
64862W        W35462  18.124  10.711  10.927
64863W        W35463  31.709  10.901   4.135
64864W        W35464  21.554  15.822   4.787
64865W        W35465  32.662  13.406   0.042
64866W        W35466   8.872  16.780   4.709
64867W        W35467  37.770  13.616  13.221
64868W        W35468  12.794  32.139  14.520
64869W        W35469  19.994  13.776   3.285
64870W        W35470  23.249  38.752   3.167
64871W        W35471  18.240  21.973  10.991
64872W        W35472  39.598  40.570  10.739
64873W        W35473   2.427   0.006  11.154
64874W        W35474  16.127  30.422   2.415
64875W        W35475   4.922  10.443  14.258
64876W        W35476   8.773  36.330   3.253
64877W        W35477  29.928  35.272   4.046
64878W        W35478  35.291  15.319  13.858
64879W        W35479  13.814  32.163   1.054
64880W        W35480  34.583  12.653   4.319
64881W        W35481  20.495  43.043  14.579
64882W        W35482  42.214  29.584   3.114
64883W        W35483  32.984  19.482   3.977
64884W        W35484  24.656  15.221  12.589
64885W        W35485  29.931  39.725   3.409
64886W        W35486   9.650  12.832   3.149
64887W        W35487  27.043  17.630  13.962
64888W        W35488  35.307  39.516   2.923
64889W        W35489  30.180  21.592   4.756
64890W        W35490  43.581   0.268   4.889
64891W        W35491  21.055   2.163  13.460
64892W        W35492   0.313  42.334   2.043
64893W        W35493  13.222  33.892   0.664
64894W        W35494  23.782   3.957  12.943
64895W        W35495  41.024  23.469  13.813
64896W        W35496  20.567  24.992   2.271
64897W        W35497  24.887   6.740   2.449
64898W        W35498  16.182   9.320   2.329
64899W        W35499  39.214  44.447   3.208
64900W        W35500  42.264  34.931  11.605
64901W        W35501  16.749  34.022   1.314
64902W        W35502  38.759  42.457  12.008
64903W        W35503  20.551   5.299  12.416
64904W        W35504   8.316  15.825  12.345
64905W        W35505  35.617  38.113   1.163
64906W        W35506  43.955   8.710  13.171
64907W        W35507   4.493  41.021   3.593
64908W        W35508   3.514  40.233  13.287
64909W        W35509   1.337  28.429   1.625
64910W        W35510  26.777   4.807  11.938
64911W        W35511   9.757  30.789   1.219
64912W        W35512   1.269  44.695   1.380
64913W        W35513  33.923  22.781   2.713
64914W        W35514  36.873  28.481  13.393
64915W        W35515  32.039  11.734  14.913
64916W        W35516  11.672   7.254   1.983
64917W        W35517  41.888  39.205   1.148
64918W        W35518  24.591  21.539   4.719
64919W        W35519  41.148  21.158  14.213
64920W        W35520   7.649  31.097   3.176
64921W        W35521  22.662  36.017  14.453
64922W        W35522  37.276  39.102   0.763
64923W        W35523  31.403  20.440   4.186
64924W        W35524   7.841  36.125  11.126
64925W        W35525  30.506  33.968  14.473
64926W        W35526  18.195  10.683  12.410
64927W        W35527  42.575   6.284  11.773
64928W        W35528  32.660  36.539   4.323
64929W        W35529  13.677  11.097  10.665
64930W        W35530  14.349   9.783   1.830
64931W        W35531  33.626   4.796   9.997
64932W        W35532   9.355   9.332   3.722
64933W        W35533  38.063   3.648   0.957
64934W        W35534   9.775  26.004   0.428
64935W        W35535  34.327  39.445   4.237
64936W        W35536  38.869  17.672  14.876
64937W        W35537  24.514  17.685   2.153
64938W        W35538   7.359  37.130  14.470
64939W        W35539  19.635   5.525  10.626
64940W        W35540   5.926  34.649  14.373
64941W        W35541  14.987  41.802  11.818
64942W        W35542  28.092  35.106   2.660
64943W        W35543  17.791   8.431   0.851
64944W        W35544  35.442  44.446   0.367
64945W        W35545  23.252  41.757  11.803
64946W        W35546   4.779  28.685   3.265
64947W        W35547  25.036  14.228  14.323
64948W        W35548  19.901   2.350   3.787
64949W        W35549  13.438  10.174   4.338
64950W        W35550  12.863  33.082  11.145
64951W        W35551  21.941  35.793  13.382
64952W        W35552  31.357  20.793  12.503
64953W        W35553  40.393  13.848   0.259
64954W        W35554   7.423  21.176   4.156
64955W        W35555  37.318   6.243  10.921
64956W        W35556  44.908  17.995   4.144
64957W        W35557  26.707  42.454  11.576
64958W        W35558  10.236  27.772   1.857
64959W        W35559  44.704   6.845  11.166
64960W        W35560  29.223  38.265  13.430
64961W        W35561  24.031  14.920  13.748
64962W        W35562   2.514  14.522   4.603
64963W        W35563   3.725   6.743  12.599
64964W        W35564  10.201   8.973   3.575
64965W        W35565  11.198  31.183   0.584
64966W        W35566  32.540   5.414  14.918
64967W        W35567  21.271  15.374  12.006
64968W        W35568   2.199  17.637  12.812
64969W        W35569  44.146  32.082   2.406
64970W        W35570  16.227  39.107  12.399
64971W        W35571  10.692  13.189  11.099
64972W        W35572  39.991  17.929  11.990
64973W        W35573  26.463  44.895   1.024
64974W        W35574  19.011  42.299  10.678
64975W        W35575  15.380  12.746  13.054
64976W        W35576   0.158   0.261  10.710
64977W        W35577  20.289  31.993  11.216
64978W        W35578  34.036  24.563   3.268
64979W        W35579  20.747  43.882   3.698
64980W        W35580  42.881  39.540  11.482
64981W        W35581   0.781  35.492   0.342
64982W        W35582  23.714  41.124  12.998
64983W        W35583  37.757  20.676   0.742
64984W        W35584  44.817  32.828  10.069
64985W        W35585  33.273  40.002   1.312
64986W        W35586  31.077   1.353  12.575
64987W        W35587   8.302  33.866  14.841
64988W        W35588   4.858  25.733  10.536
64989W        W35589   7.194   4.969  12.276
64990W        W35590  14.141   1.157  11.005
64991W        W35591  24.165   8.515   2.777
64992W        W35592  30.537  24.476   3.157
64993W        W35593  11.923  31.365  12.282
64994W        W35594  12.919  13.121  12.405
64995W        W35595  16.308  20.368   3.629
64996W        W35596  35.837  32.974  13.467
64997W        W35597  21.270  25.725  12.976
64998W        W35598   8.889  23.139   0.649
64999W        W35599  15.672  39.883   3.048
65000W        W35600  37.014  13.132  14.824
65001W        W35601  12.376  29.908   2.378
65002W        W35602   0.467  25.977   3.353
65003W        W35603  36.869   0.077   2.617
65004W        W35604   1.240   1.934  11.521
65005W        W35605  22.188  38.827  10.451
65006W        W35606   9.380  27.659   3.019
65007W        W35607   9.181  35.026  13.002
65008W        W35608  18.271   1.916  13.802
65009W        W35609  39.887  22.994   4.091
65010W        W35610  25.119   9.985  13.940
65011W        W35611   4.206   6.864  12.994
65012W        W35612  24.708   4.468  14.702
65013W        W35613  28.967  17.588  11.017
65014W        W35614  12.552   2.670   0.008
65015W        W35615  41.392  32.127  14.453
65016W        W35616  30.679  35.281   1.458
65017W        W35617  22.350   1.826  13.840
65018W        W35618   0.882  31.444  13.053
65019W        W35619  33.698   8.688   3.838
65020W        W35620   8.026  14.379   3.636
65021W        W35621   1.236  11.326  14.071
65022W        W35622  34.005  40.927  10.838
65023W        W35623   1.366  44.436   0.529
65024W        W35624  29.565  42.092  14.284
65025W        W35625  26.098  41.226   4.035
65026W        W35626  15.027   3.928  11.492
65027W        W35627  28.526  23.590   4.714
65028W        W35628  39.492  37.389   1.787
65029W        W35629  16.270  15.927   3.225
65030W        W35630  32.427  36.660   2.283
65031W        W35631  17.564   0.733   3.267
65032W        W35632  35.603  37.125   1.531
65033W        W35633   7.551  19.726  11.176
65034W        W35634  39.536  38.283  11.026
65035W        W35635  18.629  31.090   0.530
65036W        W35636  33.641   7.913   4.249
65037W        W35637  14.196  32.938   4.411
65038W        W35638  38.037  16.565   1.297
65039W        W35639  38.481  34.108   1.901
65040W        W35640  21.559  41.497  14.439
65041W        W35641   1.675  25.090   1.813
65042W        W35642  27.412  43.449  12.540
65043W        W35643   6.223   8.139  11.912
65044W        W35644   9.402  34.177  12.797
65045W        W35645  29.499   3.391  13.364
65046W        W35646  28.753  40.498   2.721
65047W        W35647  13.172  26.554  12.014
65048W        W35648  16.281  41.034   3.719
65049W        W35649  24.528  20.145  13.982
65050W        W35650  38.014  14.567   1.342
65051W        W35651  16.427  37.226   3.141
65052W        W35652   0.473  22.317   3.888
65053W        W35653  36.930  23.189   0.520
65054W        W35654   4.750  36.111  11.663
65055W        W35655  40.460   0.563   3.720
65056W        W35656   6.121  41.371   1.877
65057W        W35657  40.021  17.121  10.703
65058W        W35658   9.828  10.290  10.719
65059W        W35659  38.239  18.112  12.932
65060W        W35660  30.519   2.287   2.276
65061W        W35661   9.723  27.225  10.431
65062W        W35662   3.916  40.064  14.351
65063W        W35663  24.498  23.357   0.399
65064W        W35664  39.536  15.122   4.095
65065W        W35665  40.067  35.375  11.148
65066W        W35666  21.788  34.670  13.539
65067W        W35667  32.149   0.028  11.584
65068W        W35668   1.422   4.668   2.337
65069W        W35669  31.072   9.464  14.498
65070W        W35670  10.073  16.311   0.303
65071W        W35671  35.572  24.684   3.538
65072W        W35672  21.119  30.593   1.345
65073W        W35673   8.623  23.236   4.381
65074W        W35674  39.008  25.667   1.632
65075W        W35675  24.541  14.310  12.607
65076W        W35676  19.625  20.394   2.323
65077W        W35677  39.354  15.581  12.153
65078W        W35678  42.770  38.662  13.485
65079W        W35679  42.988  21.537   3.662
65080W        W35680   7.277  41.673  13.570
65081W        W35681   8.324  20.614   2.572
65082W        W35682   5.710   4.118  12.906
65083W        W35683  32.896  10.316   3.668
65084W        W35684   1.856  20.538   3.371
65085W        W35685  19.571   6.469   0.225
65086W        W35686  29.074   9.307  13.150
65087W        W35687  17.505  22.146   0.951
65088W        W35688   4.462  40.633  14.885
65089W        W35689  33.000  38.229  11.066
65090W        W35690  32.595   2.101   0.225
65091W        W35691  12.801  43.954  11.596
65092W        W35692  25.238  14.868   4.793
65093W        W35693   8.171  10.613  12.878
65094W        W35694  33.396  27.997   1.904
65095W        W35695   5.766  11.529   3.085
65096W        W35696   7.623  17.045   0.781
65097W        W35697   3.664   9.845   4.970
65098W        W35698  22.586   3.833   1.943
65099W        W35699   9.454  21.993  10.607
65100W        W35700  19.370  23.301  11.095
65101W        W35701  19.220   0.024   1.243
65102W        W35702  13.645  16.022  12.909
65103W        W35703  11.864  31.536  13.628
65104W        W35704   6.851  12.053   2.095
65105W        W35705  14.582  22.154  11.680
65106W        W35706  14.415  24.641  12.215
65107W        W35707   5.318  29.290   0.703
65108W        W35708  16.475  40.930  12.540
65109W        W35709  32.555  43.145  13.364
65110W        W35710  24.305  25.140   2.819
65111W        W35711   8.479  35.990  13.441
65112W        W35712   2.262  23.560   3.576
65113W        W35713  28.373  36.313   0.310
65114W        W35714  25.084  21.410   4.985
65115W        W35715  11.351  14.236   3.044
65116W        W35716  37.135  36.079  12.856
65117W        W35717  38.806  39.914   0.108
65118W        W35718  27.409  12.105  11.053
65119W        W35719   9.862  25.698  11.588
65120W        W35720  40.985  14.785  11.797
65121W        W35721  29.072   3.397   3.492
65122W        W35722  27.346   2.352  11.116
65123W        W35723  25.829  38.090  14.304
65124W        W35724  24.620   1.461   0.996
65125W        W35725  11.600  18.462   4.115
65126W        W35726  33.101  36.585   4.633
65127W        W35727   9.228  33.991  11.471
65128W        W35728  13.131   0.339  12.966
65129W        W35729  36.372  42.038  10.720
65130W        W35730   3.910  36.543   1.925
65131W        W35731   5.125  20.512   0.624
65132W        W35732  18.795   6.297   1.824
65133W        W35733  38.314   5.115   3.750
65134W        W35734   8.114  35.140   1.193
65135W        W35735   9.234  17.505  10.613
65136W        W35736  10.281  31.401  12.124
65137W        W35737   3.881  36.552  14.149
65138W        W35738  22.707  16.031   1.354
65139W        W35739  25.691  44.976   3.658
65140W        W35740  10.134  42.552  12.478
65141W        W35741  33.521  14.108   4.675
65142W        W35742   6.460  34.981  12.143
65143W        W35743  29.475  10.666  12.595
65144W        W35744  36.131  36.567   3.974
65145W        W35745   9.531  23.847   9.983
65146W        W35746  30.746  19.034  13.808
65147W        W35747  24.866  27.718   3.074
65148W        W35748   8.785  31.217  13.113
65149W        W35749  34.417  44.931   0.264
65150W        W35750  30.155  18.744  13.959
65151W        W35751  32.393  11.724  12.894
65152W        W35752  28.722  24.681  14.805
65153W        W35753   8.953  25.982  13.944
65154W        W35754  24.676  27.958   0.182
65155W        W35755  11.074  16.671  13.628
65156W        W35756  26.688  24.928  11.641
65157W        W35757  34.078  22.857  11.018
65158W        W35758  39.127   5.381   4.377
65159W        W35759  40.332  14.230  12.351
65160W        W35760  34.490  23.149  12.562
65161W        W35761   8.441  42.007  12.986
65162W        W35762  40.973  37.322   1.933
65163W        W35763  37.422  13.812  10.960
65164W        W35764  23.071   2.567   1.969
65165W        W35765  43.822  26.007   3.154
65166W        W35766   3.052  13.804   4.572
65167W        W35767  20.852  32.775   4.146
65168W        W35768  42.404  27.506  10.657
65169W        W35769  21.918  31.871   0.372
65170W        W35770  28.439  44.901  13.416
65171W        W35771  32.134  34.441  10.916
65172W        W35772  25.895  11.623  13.878
65173W        W35773  37.930  24.924  12.396
65174W        W35774   2.287  32.189   4.334
65175W        W35775  16.745  25.279  12.946
65176W        W35776  29.410  22.506  13.445
65177W        W35777  27.127   8.450   2.882
65178W        W35778  23.695   1.075  14.304
65179W        W35779   5.739  29.945  13.152
65180W        W35780  37.564  39.410  10.373
65181W        W35781  28.393  33.442   3.309
65182W        W35782  43.895   0.420  12.357
65183W        W35783  13.173  38.428  14.915
65184W        W35784  25.556  39.151   3.581
65185W        W35785  27.050  16.559  12.446
65186W        W35786  43.050   7.691   4.690
65187W        W35787   6.327  30.941   0.292
65188W        W35788  14.750  38.986  11.497
65189W        W35789  32.930  34.597   3.312
65190W        W35790  29.951  13.930   3.265
65191W        W35791  12.780  29.027  10.736
65192W        W35792  28.961  42.034   1.506
65193W        W35793  39.928  38.786  10.293
65194W        W35794  16.777   2.802   1.434
65195W        W35795   0.758  32.028  12.439
65196W        W35796  34.192  25.715   2.897
65197W        W35797  27.920  40.931   2.673
65198W        W35798  24.716  11.720   3.331
65199W        W35799  13.872  41.289   4.177
65200W        W35800  37.359  17.762   4.851
65201W        W35801  26.529  19.110   5.267
65202W        W35802  44.228  44.359   0.417
65203W        W35803  24.953  38.018  11.598
65204W        W35804  32.110  18.375   3.212
65205W        W35805  15.326   1.340  12.035
65206W        W35806  12.355  43.962  12.525
65207W        W35807   2.235  26.653   2.269
65208W        W35808  18.258  26.699   3.628
65209W        W35809  38.504  15.613  13.898
65210W        W35810  18.376  14.831   0.898
65211W        W35811  30.927  30.432   2.680
65212W        W35812  24.916   9.795   4.177
65213W        W35813   2.473  19.672  13.463
65214W        W35814  44.511  23.660   1.819
65215W        W35815  42.538   3.785   2.532
65216W        W35816  25.489  44.207  13.892
65217W        W35817  44.826  22.606   2.947
65218W        W35818  15.202  38.945   3.779
65219W        W35819  17.032  25.064   3.199
65220W        W35820  32.523  18.353  11.796
65221W        W35821  10.876   6.235   2.592
65222W        W35822  35.849  36.619   0.828
65223W        W35823   9.316  19.155   2.233
65224W        W35824  13.900  10.117  13.409
65225W        W35825  41.614  13.648   3.327
65226W        W35826  23.075   2.289   0.792
65227W        W35827  43.428   6.174   3.720
65228W        W35828  36.494  37.398  13.801
65229W        W35829  12.893  42.280   0.023
65230W        W35830  38.438   9.203   3.401
65231W        W35831  16.343  28.486   0.217
65232W        W35832   4.463   8.597  11.966
65233W        W35833  17.638  12.751   3.415
65234W        W35834  41.510  43.284  12.581
65235W        W35835  32.637  28.507  10.745
65236W        W35836   6.712   8.481   4.090
65237W        W35837  19.468  40.286   0.885
65238W        W35838  39.365  15.814  11.666
65239W        W35839  31.715  24.038   0.780
65240W        W35840  36.544  11.663   3.262
65241W        W35841  12.598  19.368   1.196
65242W        W35842  15.136  14.413   1.639
65243W        W35843   2.774  26.680  12.522
65244W        W35844  35.852  42.029   4.522
65245W        W35845   3.439  35.939  13.485
65246W        W35846  25.957   5.448   2.148
65247W        W35847  24.234  36.582   0.839
65248W        W35848   0.433   4.182   0.775
65249W        W35849  20.469  35.885  12.815
65250W        W35850  37.495  25.717   1.170
65251W        W35851  30.416  43.868  12.111
65252W        W35852  39.915  33.524   3.648
65253W        W35853  39.049  17.148  14.903
65254W        W35854   3.380  28.663   2.698
65255W        W35855  19.589   2.228   4.213
65256W        W35856   1.977  30.361  12.548
65257W        W35857  19.089   1.484   0.889
65258W        W35858  40.799   6.449   5.174
65259W        W35859  24.033  22.584   5.102
65260W        W35860   0.895  40.086   1.351
65261W        W35861  29.538  24.636  11.429
65262W        W35862  35.099   4.429   2.026
65263W        W35863  24.097  12.193   0.036
65264W        W35864  27.993  30.987   3.612
65265W        W35865  40.423  23.959  10.341
65266W        W35866  32.436  44.450  14.863
65267W        W35867   5.418  43.927   4.510
65268W        W35868   3.428   8.868  13.480
65269W        W35869  25.156  15.228   4.410
65270W        W35870  42.716  21.448  14.329
65271W        W35871  39.791  10.841   3.709
65272W        W35872  39.568  26.558   0.220
65273W        W35873  25.947  19.636  11.526
65274W        W35874   4.680  41.812  10.955
65275W        W35875  44.215  42.754  10.216
65276W        W35876  13.349  23.938   1.706
65277W        W35877  13.286  35.702   4.197
65278W        W35878  27.063   9.245   2.773
65279W        W35879  35.921  34.513  10.593
65280W        W35880  43.543   2.067   0.558
65281W        W35881  27.708  19.632  12.878
65282W        W35882  36.357   7.393   4.827
65283W        W35883  42.085  11.749   1.279
65284W        W35884  13.720  12.893  13.409
65285W        W35885   6.675  16.739   4.172
65286W        W35886   8.161  26.909   0.947
65287W        W35887  18.133  11.775   1.252
65288W        W35888  43.497  31.527   0.609
65289W        W35889  39.461  24.951   4.556
65290W        W35890  32.673   4.910   2.752
65291W        W35891  40.240  44.092  13.516
65292W        W35892  41.325  34.069  13.658
65293W        W35893  40.797  36.813  12.528
65294W        W35894  34.928   0.106   2.211
65295W        W35895  31.004  10.196   4.088
65296W        W35896  37.139   2.143   2.442
65297W        W35897   1.782  43.925   4.337
65298W        W35898  32.369  36.364  11.008
65299W        W35899  21.124   1.091   0.968
65300W        W35900   4.348  41.626  11.411
65301W        W35901   4.145   0.665  11.508
65302W        W35902  26.156  23.136  10.726
65303W        W35903  31.514  33.318   0.859
65304W        W35904   5.233  12.866   2.839
65305W        W35905   0.964  33.852  14.579
65306W        W35906   7.690  40.332  14.381
65307W        W35907   0.042  33.149  13.436
65308W        W35908  19.840  18.813   0.457
65309W        W35909   1.228  39.056   0.781
65310W        W35910  30.603  34.350  11.670
65311W        W35911  31.959  13.885  14.476
65312W        W35912  15.616  27.517  12.947
65313W        W35913  26.148  14.918  13.989
65314W        W35914  38.550  39.185  11.069
65315W        W35915  19.429  35.686  11.468
65316W        W35916   3.254  24.268   4.115
65317W        W35917  41.786  16.787   3.348
65318W        W35918  30.871  16.265  14.192
65319W        W35919   0.856  18.594   3.830
65320W        W35920  28.562   1.998   1.210
65321W        W35921  44.039  39.274  12.903
65322W        W35922  18.743  24.743  12.423
65323W        W35923  41.022  29.007   0.872
65324W        W35924  36.098  10.279  10.997
65325W        W35925  28.179  31.219   0.451
65326W        W35926   1.260  27.686   0.209
65327W        W35927  17.086  33.434   3.331
65328W        W35928  16.346  28.991   0.877
65329W        W35929  38.107  20.994   5.128
65330W        W35930  17.695  37.300   1.470
65331W        W35931  18.509  36.587   1.701
65332W        W35932  17.253  18.422   9.769
65333W        W35933  39.834   0.311  11.990
65334W        W35934   3.429  31.056  11.886
65335W        W35935  25.041   3.040  12.732
65336W        W35936   9.331  13.258   3.130
65337W        W35937   0.380  24.882   3.788
65338W        W35938  33.403  20.773   0.365
65339W        W35939  25.330  23.510  12.889
65340W        W35940  40.974  12.733   2.218
65341W        W35941   9.603  38.364  11.076
65342W        W35942  20.738   5.473   1.814
65343W        W35943  25.979  16.239   4.315
65344W        W35944   9.582  25.411  11.967
65345W        W35945   4.806   3.224   3.639
65346W        W35946  16.337   1.198   1.772
65347W        W35947  30.904  35.943   3.138
65348W        W35948  10.333  27.480   4.585
65349W        W35949  35.640  43.242  11.505
65350W        W35950   2.837  39.613   1.349
65351W        W35951   9.443  14.743  12.657
65352W        W35952  11.231  34.545  11.960
65353W        W35953   1.506  22.120   4.056
65354W        W35954  37.935  12.382  13.701
65355W        W35955  38.113  18.302  11.492
65356W        W35956  12.137  31.396   2.379
65357W        W35957  40.650  32.700  14.993
65358W        W35958  36.841  44.401  12.932
65359W        W35959   4.346  23.754  10.559
65360W        W35960  18.964   6.287  12.574
65361W        W35961  24.231   4.846   0.756
65362W        W35962  29.156  25.733  10.776
65363W        W35963  16.297  42.411  11.195
65364W        W35964  12.641  29.636   4.410
65365W        W35965   1.275  26.064  11.158
65366W        W35966  28.077  25.159   0.703
65367W        W35967  19.655  32.351  10.804
65368W        W35968  12.088  41.597   0.336
65369W        W35969  44.226   7.727  11.306
65370W        W35970  37.740  28.432  11.567
65371W        W35971   4.611  20.821   4.244
65372W        W35972  26.826  32.834   2.238
65373W        W35973  41.172   0.086  13.413
65374W        W35974  14.023  12.380   4.071
65375W        W35975  31.233  35.063  10.742
65376W        W35976  26.018  38.383  13.498
65377W        W35977  13.276  15.859  11.055
65378W        W35978  43.226   1.878   2.686
65379W        W35979  11.063  24.768  12.009
65380W        W35980   7.764  14.424  10.084
65381W        W35981   2.939  27.170  14.402
65382W        W35982  42.559  28.497  12.876
65383W        W35983   2.526  36.249  12.947
65384W        W35984  23.629  38.309   0.547
65385W        W35985  26.450  12.559   4.701
65386W        W35986  11.911  26.896  14.359
65387W        W35987  24.142  25.698   0.375
65388W        W35988  26.068  43.861   3.175
65389W        W35989  33.865   0.750   4.332
65390W        W35990  39.636  26.748   4.121
65391W        W35991  25.345  14.238   4.950
65392W        W35992  27.434   9.149   3.134
65393W        W35993  25.972  20.759  12.899
65394W        W35994  25.174  29.664  14.421
65395W        W35995  40.466   0.343   4.178
65396W        W35996  41.992  43.874   3.065
65397W        W35997  23.307  31.162   3.647
65398W        W35998   0.571  32.537   2.199
65399W        W35999  32.035  21.510   2.162
65400W        W36000   9.249  15.281   4.144
65401W        W36001  19.147  24.722   0.771
65402W        W36002  44.508  36.146  12.692
65403W        W36003  38.548  42.373   3.832
65404W        W36004  15.091  42.296  11.770
65405W        W36005  10.597  15.247  10.727
65406W        W36006  36.715   0.951   1.401
65407W        W36007  30.458   7.576   3.904
65408W        W36008  14.758  44.004   2.196
65409W        W36009  19.879  18.027   4.622
65410W        W36010  36.804  20.010  14.834
65411W        W36011   6.814  38.517   3.570
65412W        W36012  29.882  30.614   2.172
65413W        W36013  25.168  22.616   0.853
65414W        W36014  41.722  37.773   1.822
65415W        W36015  18.162  25.529   1.862
65416W        W36016  16.681   0.149  11.123
65417W        W36017  33.030  31.885   4.340
65418W        W36018  28.389  32.136  12.872
65419W        W36019  15.247  11.887  13.249
65420W        W36020  34.165  32.091  14.562
65421W        W36021  33.160  13.879  11.087
65422W        W36022   8.893  26.992   0.474
65423W        W36023  30.772   3.907  11.955
65424W        W36024  44.807  33.643  13.900
65425W        W36025  41.771  36.107   3.423
65426W        W36026  10.448  36.661   3.666
65427W        W36027  29.216  26.670  12.991
65428W        W36028  10.766   5.410   4.587
65429W        W36029  25.732  13.116  13.127
65430W        W36030  19.105  39.737   0.235
65431W        W36031  41.142  15.190  12.084
65432W        W36032  29.676  17.761  13.013
65433W        W36033  10.307  21.271  12.210
65434W        W36034  36.558   4.054  11.392
65435W        W36035  43.143  44.688   0.840
65436W        W36036  37.942  16.895  12.321
65437W        W36037   1.834   5.182   1.766
65438W        W36038  24.605  29.042   3.107
65439W        W36039  31.259  12.264  12.583
65440W        W36040  21.217  19.108   4.153
65441W        W36041  33.418   2.036   2.689
65442W        W36042   1.377  11.195   2.384
65443W        W36043  27.584   2.292   3.076
65444W        W36044   2.007   0.234   2.315
65445W        W36045   5.333  35.777  11.733
65446W        W36046  21.970   5.120  14.329
65447W        W36047   0.753   0.445   4.200
65448W        W36048  43.058  18.234   0.474
65449W        W36049  27.603   6.212   1.978
65450W        W36050  16.542  19.585   0.874
65451W        W36051  27.469   0.041  13.299
65452W        W36052  32.991  31.385  13.920
65453W        W36053  32.519   4.925   4.406
65454W        W36054  21.215  12.066  12.087
65455W        W36055  27.720  20.102   3.716
65456W        W36056  32.134  24.165  11.106
65457W        W36057  25.169  44.302  14.847
65458W        W36058   3.324  26.676   1.573
65459W        W36059  23.134  31.119  11.657
65460W        W36060  24.412   9.702   0.167
65461W        W36061   9.914   7.248  11.305
65462W        W36062  28.411  31.532  13.646
65463W        W36063  20.168  13.634   2.807
65464W        W36064  16.736  21.171  14.439
65465W        W36065  39.111  43.396   2.551
65466W        W36066  36.918  24.524   2.577
65467W        W36067  24.915  35.363  11.348
65468W        W36068  31.554   0.304   3.720
65469W        W36069  25.475  31.182  13.515
65470W        W36070  34.080   0.832  10.809
65471W        W36071  14.700  13.913   0.002
65472W        W36072   5.915  24.187   1.757
65473W        W36073  34.348  14.785  12.732
65474W        W36074   8.485  10.330  12.602
65475W        W36075   4.349   5.761   4.190
65476W        W36076  34.630  16.442   4.140
65477W        W36077  38.427   1.320   0.740
65478W        W36078   3.025  21.715   2.759
65479W        W36079  17.684   2.403   4.577
65480W        W36080  34.965  35.613  10.704
65481W        W36081  32.235  13.845  12.011
65482W        W36082  12.069  30.843  14.606
65483W        W36083  12.609  16.853  14.379
65484W        W36084  33.184  25.849  12.360
65485W        W36085  38.086  13.637   3.303
65486W        W36086  12.117   8.448  12.069
65487W        W36087  13.117  26.199   3.185
65488W        W36088  13.724  12.060   0.911
65489W        W36089  14.297   8.753   0.006
65490W        W36090  44.441   9.956  12.993
65491W        W36091  26.992  13.880  12.184
65492W        W36092  42.695  42.875   2.317
65493W        W36093   1.227   1.976  13.388
65494W        W36094  44.221  21.749  13.777
65495W        W36095  25.644   5.199  10.765
65496W        W36096   8.685   6.999  14.198
65497W        W36097  30.649  28.629   2.441
65498W        W36098  37.567  11.729   4.160
65499W        W36099  24.596  12.649  14.749
65500W        W36100  41.567   3.289  13.801
65501W        W36101  28.484  25.543  10.581
65502W        W36102  13.208  13.314   1.039
65503W        W36103   2.799  35.300   2.087
65504W        W36104  18.780  36.385   3.687
65505W        W36105  12.327  32.281   2.200
65506W        W36106   7.936  22.128  10.717
65507W        W36107   1.894   3.769  12.450
65508W        W36108   4.780  22.371  11.808
65509W        W36109  42.569  38.452   2.840
65510W        W36110  12.769  41.569  14.002
65511W        W36111   0.747  17.650  14.562
65512W        W36112  39.884   8.194  13.370
65513W        W36113  36.629   1.766  14.472
65514W        W36114  30.964  39.079  10.644
65515W        W36115  11.236  35.985  14.011
65516W        W36116  44.925  29.663   4.848
65517W        W36117  23.006  41.929   2.295
65518W        W36118  35.372  21.293   3.128
65519W        W36119   8.682  33.843   0.297
65520W        W36120  13.405  42.323  12.099
65521W        W36121  32.260  27.672   0.449
65522W        W36122  44.138  31.218  10.522
65523W        W36123  30.549  21.684   1.419
65524W        W36124  31.398  32.398  14.349
65525W        W36125  28.985  33.015  14.467
65526W        W36126  40.703  10.913  12.591
65527W        W36127   9.796  41.399  11.733
65528W        W36128  13.752  39.521  14.397
65529W        W36129  24.087  42.452  10.463
65530W        W36130  29.522  29.730  14.078
65531W        W36131  16.658   8.890   0.978
65532W        W36132  34.267  13.494   4.456
65533W        W36133  35.125   1.350  11.977
65534W        W36134   2.177  25.797  14.076
65535W        W36135  41.817   5.775   3.755
65536W        W36136  44.021   5.862  12.453
65537W        W36137  34.132  10.615   3.905
65538W        W36138  38.910   6.713   2.216
65539W        W36139   9.602  20.178   3.848
65540W        W36140  42.404  12.210  10.944
65541W        W36141  10.121  44.821  14.330
65542W        W36142   7.207  39.374  14.321
65543W        W36143  37.197  29.790   4.335
65544W        W36144  27.218   1.380   2.199
65545W        W36145  40.353  18.493   2.153
65546W        W36146  19.560  20.279   4.526
65547W        W36147  10.143   3.478   1.232
65548W        W36148  21.626  20.199  12.606
65549W        W36149  35.601  21.855   2.284
65550W        W36150   8.098  21.666  14.375
65551W        W36151  35.955  43.312   0.822
65552W        W36152  39.044   3.395  11.333
65553W        W36153  11.383  29.172   1.698
65554W        W36154  24.850  37.060  11.971
65555W        W36155  15.165  26.357   4.033
65556W        W36156  41.483   7.089   0.587
65557W        W36157  15.228  36.753   2.934
65558W        W36158  17.348  43.911  12.111
65559W        W36159  11.886  29.122   4.152
65560W        W36160  21.232  37.270  13.015
65561W        W36161  23.935  25.862  11.515
65562W        W36162  35.386  31.888   4.040
65563W        W36163  19.202  43.951   3.428
65564W        W36164  28.076   9.786  11.565
65565W        W36165  14.769  11.739  13.888
65566W        W36166  20.006  11.356  10.437
65567W        W36167  30.965  16.818  12.254
65568W        W36168  28.100  25.026   1.784
65569W        W36169  22.673  23.834   3.783
65570W        W36170  23.844  21.007   0.795
65571W        W36171  16.157  40.449   3.739
65572W        W36172  24.501  24.156  11.665
65573W        W36173  30.410  14.705  12.637
65574W        W36174   6.788   6.885   3.398
65575W        W36175   1.002  31.207  10.689
65576W        W36176   2.936  38.000  13.972
65577W        W36177  12.138  33.153  13.787
65578W        W36178  35.422  24.803  13.474
65579W        W36179   3.415  39.048  13.841
65580W        W36180  33.265  42.204   1.391
65581W        W36181  36.348  23.474  14.668
65582W        W36182   7.007  14.832  13.304
65583W        W36183  44.137  25.262   4.264
65584W        W36184   5.665  38.539  14.317
65585W        W36185  12.305  15.625  13.661
65586W        W36186  16.196  19.064  14.378
65587W        W36187   6.912  19.397   2.675
65588W        W36188  31.672  42.332   3.288
65589W        W36189   5.218   6.173   3.374
65590W        W36190   3.302  30.191   3.987
65591W        W36191  42.305   2.268   0.472
65592W        W36192  28.661  10.532   4.734
65593W        W36193  22.750  32.946   4.972
65594W        W36194   4.753  42.818  12.010
65595W        W36195  43.360  28.725  10.333
65596W        W36196  16.520  13.109  11.983
65597W        W36197  26.991  40.315   4.885
65598W        W36198  25.586  36.115   5.329
65599W        W36199  24.087   3.826  11.081
65600W        W36200  10.332  39.276   4.190
65601W        W36201  28.832  39.371  14.865
65602W        W36202   7.180   7.216   3.262
65603W        W36203  18.338  25.025   1.862
65604W        W36204  16.327  22.942   2.800
65605W        W36205  19.219  24.222   4.046
65606W        W36206  30.920  12.295   4.482
65607W        W36207  38.600  30.492  13.104
65608W        W36208  13.450   9.839  11.190
65609W        W36209  16.271  31.360   0.621
65610W        W36210   6.374  11.777   1.340
65611W        W36211  44.091  43.452   0.928
65612W        W36212  39.204  20.430   4.513
65613W        W36213  36.822  26.131  12.549
65614W        W36214  27.229  27.459  13.430
65615W        W36215  30.124  35.428  12.513
65616W        W36216  44.727  11.632   2.209
65617W        W36217   7.256  44.423  11.991
65618W        W36218  42.483  26.236  13.238
65619W        W36219  36.400  44.351   4.802
65620W        W36220  30.943  44.795   2.730
65621W        W36221  17.622   1.142   0.707
65622W        W36222  28.440  36.173   3.361
65623W        W36223   1.959  20.800   2.914
65624W        W36224  15.555  33.150   1.981
65625W        W36225  32.952  28.970  10.719
65626W        W36226  19.266  22.084  14.891
65627W        W36227   1.446  15.490  12.178
65628W        W36228  19.286  19.022  13.857
65629W        W36229  10.390  38.410  11.463
65630W        W36230   1.542   9.679   2.539
65631W        W36231  14.649  14.214   3.272
65632W        W36232  34.211  34.831  12.646
65633W        W36233   3.906  11.359  11.945
65634W        W36234  29.103  20.020  11.621
65635W        W36235   0.352  38.462  10.474
65636W        W36236   4.421  44.502   1.427
65637W        W36237   9.223  32.628   1.987
65638W        W36238  26.721   2.805   3.872
65639W        W36239   7.851  43.962   0.246
65640W        W36240  20.138   5.353  12.780
65641W        W36241  35.472  13.064  11.618
65642W        W36242  28.972  34.550   3.652
65643W        W36243  29.426   0.368   2.460
65644W        W36244  41.536  19.515  11.160
65645W        W36245  21.800   4.390   0.273
65646W        W36246   5.032  37.935   0.829
65647W        W36247  28.071   7.672  13.308
65648W        W36248  29.769  32.092  11.641
65649W        W36249  39.513   8.800   1.349
65650W        W36250  10.088  38.839  12.055
65651W        W36251  31.732  42.544  10.762
65652W        W36252   0.196   1.907   3.558
65653W        W36253   6.354  41.814   4.300
65654W        W36254  39.368  25.166  12.137
65655W        W36255   5.316  20.531  11.085
65656W        W36256   6.868  40.359  13.941
65657W        W36257  16.775  22.151   2.105
65658W        W36258  23.137  19.018  10.419
65659W        W36259  44.467  17.032   5.042
65660W        W36260  39.255  29.857  13.046
65661W        W36261  40.777  30.033   3.886
65662W        W36262  25.909   3.792  11.618
65663W        W36263  15.059  42.733   3.112
65664W        W36264  19.008  20.684  14.372
65665W        W36265  43.379   4.839   1.210
65666W        W36266  40.809  16.148   4.142
65667W        W36267  12.011  29.925  12.106
65668W        W36268  28.240  40.455   2.872
65669W        W36269   7.387   6.168   1.384
65670W        W36270   7.756  25.863   4.778
65671W        W36271  26.381   0.344  12.999
65672W        W36272  38.897   8.172   0.326
65673W        W36273   0.370  38.104  14.802
65674W        W36274  35.389  17.862   1.398
65675W        W36275  27.471  43.434  14.345
65676W        W36276   3.861  10.426   3.234
65677W        W36277  29.814   6.310   2.937
65678W        W36278  29.536  14.547  11.548
65679W        W36279  19.835  25.604   0.307
65680W        W36280   8.732  43.802   3.196
65681W        W36281  13.087   0.408  11.907
65682W        W36282  17.506  28.758   2.869
65683W        W36283  42.710  19.480   5.486
65684W        W36284  32.405  22.254   1.165
65685W        W36285  20.573  11.975  10.631
65686W        W36286  17.257   7.723   0.226
65687W        W36287  24.210  19.799   2.583
65688W        W36288   9.639   6.430   3.168
65689W        W36289   3.453  25.063   0.879
65690W        W36290  24.413   3.846  11.733
65691W        W36291  10.572   4.392  12.454
65692W        W36292   9.361  22.311   2.050
65693W        W36293  24.031  27.686  11.339
65694W        W36294   7.875  23.159  13.885
65695W        W36295  20.617  25.760   5.371
65696W        W36296  28.724  36.577  11.146
65697W        W36297  11.440  30.469  11.836
65698W        W36298  42.333  25.253   1.199
65699W        W36299  19.623  40.244  13.279
65700W        W36300  16.698  31.670  10.031
65701W        W36301  34.668  32.561   4.945
65702W        W36302  23.205  21.985   1.387
65703W        W36303  16.357  24.485   2.240
65704W        W36304  22.112   3.161   0.402
65705W        W36305  28.597  33.470   2.035
65706W        W36306  30.114  14.777   3.618
65707W        W36307   9.438  39.463  12.241
65708W        W36308  35.147  42.508  13.872
65709W        W36309  35.347  27.506  11.665
65710W        W36310  33.978   9.358  14.425
65711W        W36311  32.584   0.196  11.866
65712W        W36312  30.041  44.603  14.045
65713W        W36313  32.479   5.986  13.466
65714W        W36314  23.071  18.463  13.164
65715W        W36315  44.367   7.709   2.839
65716W        W36316  30.568  12.585  14.616
65717W        W36317  26.098  15.459   2.867
65718W        W36318  24.235  40.398   0.977
65719W        W36319  31.910  33.831  13.551
65720W        W36320  11.781  20.465   4.431
65721W        W36321  18.218  41.731   2.238
65722W        W36322  36.962  41.718   4.096
65723W        W36323  30.108  26.047  13.076
65724W        W36324  28.526  26.933  10.928
65725W        W36325  23.991   4.142   2.217
65726W        W36326  37.996  17.041  14.219
65727W        W36327  32.877  22.084   4.553
65728W        W36328  40.800   3.972   4.285
65729W        W36329  33.931  43.354   1.388
65730W        W36330  39.313   4.539  10.275
65731W        W36331  42.885  36.749   1.687
65732W        W36332  38.924  16.327  13.943
65733W        W36333   0.548  33.360  13.454
65734W        W36334   1.498  42.615  13.895
65735W        W36335   4.631  38.489   2.953
65736W        W36336  33.192  32.424   4.752
65737W        W36337   8.821  42.983  10.850
65738W        W36338  29.496   6.796  13.406
65739W        W36339  25.362  33.029   3.241
65740W        W36340   0.289  28.529   1.296
65741W        W36341   9.283  43.331  14.399
65742W        W36342  16.713  36.617  11.104
65743W        W36343  22.921  30.488  12.165
65744W        W36344  38.650  26.073  12.556
65745W        W36345  24.449   7.351   3.119
65746W        W36346  12.244  20.692   3.123
65747W        W36347  24.728  24.584   1.705
65748W        W36348  16.789   6.314  12.778
65749W        W36349  12.298  35.902   3.404
65750W        W36350  22.506  13.683   0.248
65751W        W36351  26.682  23.102  10.567
65752W        W36352  29.909  37.932  13.994
65753W        W36353   3.867  25.151   0.554
65754W        W36354  16.011  23.085   4.932
65755W        W36355   4.505  27.502  11.567
65756W        W36356  30.075  17.019  13.433
65757W        W36357  22.434  10.452   1.034
65758W        W36358   9.570  12.312  13.631
65759W        W36359  38.120   9.415   1.467
65760W        W36360   3.270   7.738  14.955
65761W        W36361  23.488  10.162  12.412
65762W        W36362  11.552  44.786   1.692
65763W        W36363  38.937   6.407  13.856
65764W        W36364   7.319  42.433  13.090
65765W        W36365  13.676   6.143  10.738
65766W        W36366  21.694  19.388  11.776
65767W        W36367  13.253  42.945   3.371
65768W        W36368  16.565   8.243   0.365
65769W        W36369  29.047   3.627  12.420
65770W        W36370   1.018  39.527   4.460
65771W        W36371  44.302  16.249  14.713
65772W        W36372  14.374  28.684  11.151
65773W        W36373  19.805  13.632   1.396
65774W        W36374  25.908  39.160   3.214
65775W        W36375   2.813  23.565   2.622
65776W        W36376  27.241  11.655   1.618
65777W        W36377  24.984   5.569  11.230
65778W        W36378  35.953  27.035   3.909
65779W        W36379   5.972  35.689   4.439
65780W        W36380   6.129   7.667   2.557
65781W        W36381  24.207  43.802   9.815
65782W        W36382   8.916  14.768   0.893
65783W        W36383  35.379  15.838  12.502
65784W        W36384  43.359   0.591  10.887
65785W        W36385   4.304  43.981  13.372
65786W        W36386  44.591   4.430   4.714
65787W        W36387  12.268  26.007   3.580
65788W        W36388  25.115   0.172   0.426
65789W        W36389  38.368  20.137  12.427
65790W        W36390   5.456  19.030  12.365
65791W        W36391   0.270  21.552  11.123
65792W        W36392  15.565   2.936  14.852
65793W        W36393  24.366   6.347  11.134
65794W        W36394   1.423  13.654  10.693
65795W        W36395  39.698   7.686  13.224
65796W        W36396  37.806  24.495  12.632
65797W        W36397  29.267  17.389   0.498
65798W        W36398  43.391  33.157  10.983
65799W        W36399  12.512  23.254   0.365
65800W        W36400   2.754   9.130   3.068
65801W        W36401   2.248  26.191   1.317
65802W        W36402  29.282  29.430   0.423
65803W        W36403  12.167  14.405  11.634
65804W        W36404  19.636   2.757  10.920
65805W        W36405   0.253  36.363   1.743
65806W        W36406  12.374  14.140   0.308
65807W        W36407   3.444   4.453   2.711
65808W        W36408  33.418  42.105   3.193
65809W        W36409  32.989  42.428  10.737
65810W        W36410  14.768  17.997   1.894
65811W        W36411  13.592  42.065   3.233
65812W        W36412  26.966  43.781   1.360
65813W        W36413  33.012  37.512   3.740
65814W        W36414  20.086  35.583  12.954
65815W        W36415  16.354   0.637  11.081
65816W        W36416  27.224   0.925  13.905
65817W        W36417  28.456  39.003   4.370
65818W        W36418  20.264  34.980   1.679
65819W        W36419   7.048  12.021   2.775
65820W        W36420  37.199  23.579  12.944
65821W        W36421  38.800  18.654   9.812
65822W        W36422   5.624  41.752   2.788
65823W        W36423   5.385  14.256   0.667
65824W        W36424  34.062  10.256  13.017
65825W        W36425  36.542  34.603  11.998
65826W        W36426   4.982  37.411   1.782
65827W        W36427  39.726   0.426   0.001
65828W        W36428  22.724   1.954  11.273
65829W        W36429  32.911  10.752   1.213
65830W        W36430  44.444   6.260  12.070
65831W        W36431  33.519  33.863  10.518
65832W        W36432  26.719   7.789  12.388
65833W        W36433  16.953  26.562   3.117
65834W        W36434  20.875  26.967  14.583
65835W        W36435  31.453  28.899  11.746
65836W        W36436  44.551  31.909   3.673
65837W        W36437  31.944  30.509  11.993
65838W        W36438  20.583  12.720  11.425
65839W        W36439  20.655  36.101   3.207
65840W        W36440  10.275  20.814   4.210
65841W        W36441  39.747  38.930   1.649
65842W        W36442  15.556  39.055   0.769
65843W        W36443  15.286  29.528  11.509
65844W        W36444  28.466  16.089   2.244
65845W        W36445  10.220   4.709   4.779
65846W        W36446  37.391   7.834   2.322
65847W        W36447  24.292  34.970  11.187
65848W        W36448  36.181   8.133   3.540
65849W        W36449  18.451   6.694  13.212
65850W        W36450  37.993  24.283  10.619
65851W        W36451  41.456   5.522   3.508
65852W        W36452  42.811  37.746  11.996
65853W        W36453   0.285   2.197   2.633
65854W        W36454  29.612  36.023  12.569
65855W        W36455  35.587  28.814  11.980
65856W        W36456  24.312   5.321  13.349
65857W        W36457  17.493  37.992   2.695
65858W        W36458  44.945  23.575   4.680
65859W        W36459  24.302  15.318  13.424
65860W        W36460  39.953  17.553  14.852
65861W        W36461  40.413  35.316   4.777
65862W        W36462  15.114  31.534  13.320
65863W        W36463  43.936  29.201   0.313
65864W        W36464  21.380  30.530   3.152
65865W        W36465  24.114  38.928  13.809
65866W        W36466  17.377  34.267   2.770
65867W        W36467  20.513  35.583   3.161
65868W        W36468  15.755  21.725   4.535
65869W        W36469  14.602  33.901   2.206
65870W        W36470  38.933  37.127  14.338
65871W        W36471  10.433  19.605   1.858
65872W        W36472  43.421  11.020  13.350
65873W        W36473  12.709  15.161  14.839
65874W        W36474   7.818  33.296  14.315
65875W        W36475  12.972   8.353   3.180
65876W        W36476  32.935  37.942  14.081
65877W        W36477  44.567  28.021  13.341
65878W        W36478  32.893   1.290   0.688
65879W        W36479  10.753  36.202   2.707
65880W        W36480  39.781   2.735   4.613
65881W        W36481   3.400  10.762   4.611
65882W        W36482   8.938  36.013   0.405
65883W        W36483  21.835  43.495  14.589
65884W        W36484  19.865  24.190  11.156
65885W        W36485  14.512  13.130   3.717
65886W        W36486   5.883  23.663   4.922
65887W        W36487   6.320  43.669  14.859
65888W        W36488  42.787  27.950  12.400
65889W        W36489   2.434  37.483   3.592
65890W        W36490  31.059  32.399   3.844
65891W        W36491  19.002  17.352  12.914
65892W        W36492  17.745  20.832   4.818
65893W        W36493  27.632  21.086  14.474
65894W        W36494  32.532   3.929  10.915
65895W        W36495  23.680  44.249   2.802
65896W        W36496  24.162  13.167  10.802
65897W        W36497   6.543  26.676   4.556
65898W        W36498  35.976  38.989   0.669
65899W        W36499  14.554   8.397  13.839
65900W        W36500  12.033   8.364  12.850
65901W        W36501  24.225  30.835  12.530
65902W        W36502  43.102  13.664   4.970
65903W        W36503   1.500   8.316  13.362
65904W        W36504  20.570  40.773  11.677
65905W        W36505  39.823  29.516  11.186
65906W        W36506  36.887  35.962  11.954
65907W        W36507  27.025   8.733  14.908
65908W        W36508  37.939  23.812   4.040
65909W        W36509   0.917  42.863  14.275
65910W        W36510  38.321  39.821   4.598
65911W        W36511  33.506  21.203  11.218
65912W        W36512  20.856  19.656  13.943
65913W        W36513  20.664  10.380   1.365
65914W        W36514   8.410  38.114  14.052
65915W        W36515  21.172  32.744   1.121
65916W        W36516   0.661   1.860  14.129
65917W        W36517  22.217  14.864  12.603
65918W        W36518  34.320  31.599   4.983
65919W        W36519  37.622   2.326  12.280
65920W        W36520  12.221  27.321   3.299
65921W        W36521   2.222  15.665  11.148
65922W        W36522  36.917  14.297   1.916
65923W        W36523  24.592  41.330  11.622
65924W        W36524  24.995  22.324   2.683
65925W        W36525  44.309  23.957  14.892
65926W        W36526  37.231  31.029   3.185
65927W        W36527  14.516  30.642   5.046
65928W        W36528  36.836  35.347   4.246
65929W        W36529  31.363  35.348  13.378
65930W        W36530  18.010  36.409  14.052
65931W        W36531  37.991  31.894   4.761
65932W        W36532  42.534   0.872  13.248
65933W        W36533  32.079  41.953  12.527
65934W        W36534  38.371  10.665   2.691
65935W        W36535  26.757  29.436  13.995
65936W        W36536  29.619  41.744   2.176
65937W        W36537  41.923  38.803   1.483
65938W        W36538  34.544  27.412   1.149
65939W        W36539   5.648   3.723  14.655
65940W        W36540  41.276  40.522   4.628
65941W        W36541  19.950  40.246   4.180
65942W        W36542   7.409  15.722   1.221
65943W        W36543  23.977  44.185  14.407
65944W        W36544  25.622  23.658   5.122
65945W        W36545  27.199  42.997  10.771
65946W        W36546  40.100   3.934  14.899
65947W        W36547  34.796   9.349   3.559
65948W        W36548  14.570  40.811  13.181
65949W        W36549  13.672  13.404  11.102
65950W        W36550  42.049   9.563  11.535
65951W        W36551  10.600  39.812   3.756
65952W        W36552   5.353  33.456  12.404
65953W        W36553  12.411  43.641   1.332
65954W        W36554  11.747  10.637  13.713
65955W        W36555  20.118  18.233   0.841
65956W        W36556  16.860  28.567   2.086
65957W        W36557  19.964   0.472  13.928
65958W        W36558  10.837  42.084  11.097
65959W        W36559  42.438  35.392  13.934
65960W        W36560  43.289  10.289   0.719
65961W        W36561   8.420  10.836   1.284
65962W        W36562  29.021  42.960   3.790
65963W        W36563   9.276  40.513   0.329
65964W        W36564   7.370   2.410   3.611
65965W        W36565  12.836  11.586  11.581
65966W        W36566  17.800   1.724  12.884
65967W        W36567  23.573  20.506   3.082
65968W        W36568  37.449  36.500  12.915
65969W        W36569  20.191  36.370  14.005
65970W        W36570  38.917  31.341  14.191
65971W        W36571  10.856  23.342  12.101
65972W        W36572  24.007  22.138   1.824
65973W        W36573  13.917  10.688  14.797
65974W        W36574  42.954   7.661   3.657
65975W        W36575  31.701  12.776   3.262
65976W        W36576  15.046  28.088   3.745
65977W        W36577  30.935   8.514  10.033
65978W        W36578  25.810  18.111  12.974
65979W        W36579  20.492  29.856  13.359
65980W        W36580   6.919  34.833  11.952
65981W        W36581  44.397  43.429  12.615
65982W        W36582  18.640  33.476   3.809
65983W        W36583  36.387   0.447  12.620
65984W        W36584  24.041  20.271  13.852
65985W        W36585  12.762  14.133   1.719
65986W        W36586  17.614  11.412  13.510
65987W        W36587  41.929   7.245  11.017
65988W        W36588  15.272  38.577  12.066
65989W        W36589  22.705  42.685  12.948
65990W        W36590  44.383  24.909   1.187
65991W        W36591   0.928  19.253   1.351
65992W        W36592  31.834  11.818   0.401
65993W        W36593  32.729  32.239   4.568
65994W        W36594   6.952  18.178   0.888
65995W        W36595   6.772  39.260   3.307
65996W        W36596  31.001   6.091  13.904
65997W        W36597  27.603  36.029  11.259
65998W        W36598   7.451  37.417  10.793
65999W        W36599  14.938  33.552  11.632
66000W        W36600  21.522  30.106  11.605
66001W        W36601  31.263  29.937  13.351
66002W        W36602  26.931   0.412  14.079
66003W        W36603   5.330  28.055   2.601
66004W        W36604  11.869  39.430  10.832
66005W        W36605   9.028   6.616  14.301
66006W        W36606  13.578  20.102   2.118
66007W        W36607  31.591  25.087   3.461
66008W        W36608   9.778   5.360  13.061
66009W        W36609  12.242  23.751  14.634
66010W        W36610   0.727  19.113  13.527
66011W        W36611   1.378  31.435  13.815
66012W        W36612  36.330  31.372   0.215
66013W        W36613  39.466  16.381   1.747
66014W        W36614  23.469  28.101   0.256
66015W        W36615  21.777   3.272  12.744
66016W        W36616   3.748  23.662  13.051
66017W        W36617  13.394  36.815  10.551
66018W        W36618  19.849  19.175  12.095
66019W        W36619   4.389  29.718   2.430
66020W        W36620  42.249  40.426  14.840
66021W        W36621  41.051  19.085  11.672
66022W        W36622   6.718  44.881   2.660
66023W        W36623  39.079  41.597  12.004
66024W        W36624  28.546   3.854   0.190
66025W        W36625  34.117  40.046  11.133
66026W        W36626  39.033   7.341  14.377
66027W        W36627   3.772  12.814   2.677
66028W        W36628   7.629  15.707  10.755
66029W        W36629  35.262  29.945  13.989
66030W        W36630   6.371  23.943   2.553
66031W        W36631   8.343  20.105   2.327
66032W        W36632  25.544  13.019  11.848
66033W        W36633  25.648   5.458  14.279
66034W        W36634  40.110  44.789   2.409
66035W        W36635  27.097  10.353   4.102
66036W        W36636  22.735  18.815  10.148
66037W        W36637  41.459   5.509  10.302
66038W        W36638  37.475   8.978   0.548
66039W        W36639   9.287   8.232  11.775
66040W        W36640  25.395  43.805   4.519
66041W        W36641  40.299   5.892  13.964
66042W        W36642   1.663  31.949  12.735
66043W        W36643  13.338  26.659   1.864
66044W        W36644  22.049  43.436  10.193
66045W        W36645  25.576  35.811   2.348
66046W        W36646  34.918  30.880  14.021
66047W        W36647  15.847  30.494   2.855
66048W        W36648   4.012   0.105   3.166
66049W        W36649  20.727  12.303   4.763
66050W        W36650  40.883  23.267  11.556
66051W        W36651  22.714  31.106  12.600
66052W        W36652  39.861  39.901  14.410
66053W        W36653  41.060  33.622   2.829
66054W        W36654   5.008  32.407   1.854
66055W        W36655  24.911   8.543  11.400
66056W        W36656  37.096   7.224  13.002
66057W        W36657  14.473  15.694  11.653
66058W        W36658  17.270  16.445   0.991
66059W        W36659  14.985  14.302   0.670
66060W        W36660  31.648   7.942   2.253
66061W        W36661   5.507  20.685  10.627
66062W        W36662  23.974  11.679  11.815
66063W        W36663  27.144  36.685  13.358
66064W        W36664  19.381  12.257  11.221
66065W        W36665  39.820  17.059   0.249
66066W        W36666   7.615  36.139   0.386
66067W        W36667  19.112  44.728   4.330
66068W        W36668  19.045  10.359   4.654
66069W        W36669  27.123  10.047   0.422
66070W        W36670   7.310  21.307  12.485
66071W        W36671  39.725  20.903   0.404
66072W        W36672  28.120  18.630  14.136
66073W        W36673  21.770  35.960  12.381
66074W        W36674  40.925  29.779  12.470
66075W        W36675  25.459   4.881   4.675
66076W        W36676  27.949  36.532   0.492
66077W        W36677  17.194  41.835   2.330
66078W        W36678   4.612   3.114  11.019
66079W        W36679   1.621  15.709   4.496
66080W        W36680  15.011   8.776   3.992
66081W        W36681  32.690  19.449   1.683
66082W        W36682  16.265  13.705  12.659
66083W        W36683   8.390   6.878   0.351
66084W        W36684  36.309  40.787   4.732
66085W        W36685   0.920  33.339  14.427
66086W        W36686  10.659  16.900  13.422
66087W        W36687  30.167   4.508   3.358
66088W        W36688  32.242  39.995   1.973
66089W        W36689  28.945   9.060   2.428
66090W        W36690  10.214   9.531  13.402
66091W        W36691  40.830   4.818  11.216
66092W        W36692  33.742   6.307  11.845
66093W        W36693  25.531   2.428   2.537
66094W        W36694  11.255  36.468   0.870
66095W        W36695  11.850   2.275  11.593
66096W        W36696  32.614  40.000  11.468
66097W        W36697  13.446  15.440   3.250
66098W        W36698   9.131  41.981  13.456
66099W        W36699  33.098   1.322  13.944
66100W        W36700  37.828  20.141  13.567
66101W        W36701   1.874  27.407   3.794
66102W        W36702  33.501  14.180   1.924
66103W        W36703  20.692   9.744  12.221
66104W        W36704  28.074  21.908  13.519
66105W        W36705   1.476  32.816  13.461
66106W        W36706  33.637  17.576   4.119
66107W        W36707  12.927  17.622   0.439
66108W        W36708  33.188  16.100  13.527
66109W        W36709   6.847   4.051  11.957
66110W        W36710  29.645  11.865  11.737
66111W        W36711  42.868   0.909   4.617
66112W        W36712   0.966  26.634   4.010
66113W        W36713  43.824  34.014   3.122
66114W        W36714  28.552  36.128   4.115
66115W        W36715  26.613  14.614  12.724
66116W        W36716  19.104   7.901   0.823
66117W        W36717  43.420  27.290  12.386
66118W        W36718  40.428  28.748  14.267
66119W        W36719  42.006  13.543  13.791
66120W        W36720  41.816   5.154   3.460
66121W        W36721  12.827  42.344  12.921
66122W        W36722  28.049   1.707  12.467
66123W        W36723  19.034  43.030   1.942
66124W        W36724  15.310   2.995   0.310
66125W        W36725  23.680  30.119  14.785
66126W        W36726  43.518  27.729   1.925
66127W        W36727  33.668   5.395   0.957
66128W        W36728  34.452  42.677  12.068
66129W        W36729  22.666  42.177  13.025
66130W        W36730  27.588  39.127   4.857
66131W        W36731   6.224  13.469  11.456
66132W        W36732  11.772   3.991  11.559
66133W        W36733  13.249  24.144   4.296
66134W        W36734  33.513  41.520  10.599
66135W        W36735  26.931  10.310  10.778
66136W        W36736  34.534   8.859   1.909
66137W        W36737  37.786  40.471  12.487
66138W        W36738  23.029   7.879   2.179
66139W        W36739  23.286  36.049   0.063
66140W        W36740  12.683  42.423  13.991
66141W        W36741  30.912  23.375   1.889
66142W        W36742  26.587  28.995  13.769
66143W        W36743   8.479  43.832   4.674
66144W        W36744   8.854  22.799  13.502
66145W        W36745  22.613  37.869   1.975
66146W        W36746  39.838  19.768  14.818
66147W        W36747  43.083   9.467   3.147
66148W        W36748  10.254  35.967  14.342
66149W        W36749  42.403   1.216   4.601
66150W        W36750  37.913   0.623   3.165
66151W        W36751  43.536  44.427  11.550
66152W        W36752  37.465  18.913  12.696
66153W        W36753  25.693  29.188  10.574
66154W        W36754  39.247  17.682   1.003
66155W        W36755  37.527  35.392  13.008
66156W        W36756   7.112  26.292  11.109
66157W        W36757  29.661  30.432   4.116
66158W        W36758  33.874  43.447   3.224
66159W        W36759  27.606   8.188  12.340
66160W        W36760  28.384  28.182  11.501
66161W        W36761   4.862  22.294   2.163
66162W        W36762  36.486  27.592  14.028
66163W        W36763  14.770   2.970   2.738
66164W        W36764  32.885  11.365  10.721
66165W        W36765  16.231  35.980  10.129
66166W        W36766   5.410  13.679  12.652
66167W        W36767  38.639  37.993   3.769
66168W        W36768  11.268  43.444   1.734
66169W        W36769   4.227  10.222   0.514
66170W        W36770   8.387  17.758   1.885
66171W        W36771  16.415   3.365  12.130
66172W        W36772   8.298  11.339  14.320
66173W        W36773  11.165  21.765   2.779
66174W        W36774  27.013  20.242  12.061
66175W        W36775  35.839  35.423  11.296
66176W        W36776  39.771  20.701   2.693
66177W        W36777  27.750  21.979   3.280
66178W        W36778   1.266  18.645  14.917
66179W        W36779  40.575   5.928   2.438
66180W        W36780  42.515  17.695   1.147
66181W        W36781  12.506  10.475  14.883
66182W        W36782  23.977   0.346  11.525
66183W        W36783  33.582  27.242  14.336
66184W        W36784  35.089  12.650   0.382
66185W        W36785   3.299  27.072   0.203
66186W        W36786   1.782  41.407   0.806
66187W        W36787  42.235  11.339  11.297
66188W        W36788  39.757  31.883   0.152
66189W        W36789  37.925  42.003  11.122
66190W        W36790   9.692   5.483  11.171
66191W        W36791  27.513   2.244  12.188
66192W        W36792  26.443  44.818   2.744
66193W        W36793  32.420   5.011  12.036
66194W        W36794  13.451  27.800  12.926
66195W        W36795  24.957  12.591   1.148
66196W        W36796   2.211   1.100  12.988
66197W        W36797   7.712   6.794   3.802
66198W        W36798  20.640  30.009  13.839
66199W        W36799  41.528  35.418  13.394
66200W        W36800   5.725  20.439   0.060
66201W        W36801   8.569  30.028   1.418
66202W        W36802  28.541  24.936   0.714
66203W        W36803  17.029  28.711   1.605
66204W        W36804  16.620  22.060  12.912
66205W        W36805  21.587  29.616   3.054
66206W        W36806  33.942  44.538  11.150
66207W        W36807  20.047  36.009  13.252
66208W        W36808  18.488  15.840   2.386
66209W        W36809   1.864  20.609  14.289
66210W        W36810   2.708  26.440   1.295
66211W        W36811  33.447   7.473  13.541
66212W        W36812  11.269  40.841  10.907
66213W        W36813  21.559  38.270  14.359
66214W        W36814  29.483  31.526   2.494
66215W        W36815   1.486  39.798   4.600
66216W        W36816  34.449  23.475  11.990
66217W        W36817   2.965  11.813  12.069
66218W        W36818  26.547  16.538  14.405
66219W        W36819  29.356   3.936  13.298
66220W        W36820  41.937   5.829  11.867
66221W        W36821   7.233  23.494   3.794
66222W        W36822  39.041  20.063  13.353
66223W        W36823  44.419  17.777  10.664
66224W        W36824  41.028  20.101  10.715
66225W        W36825  17.409  33.236   2.173
66226W        W36826  16.323  32.592  12.930
66227W        W36827  10.492  17.756   2.833
66228W        W36828   4.995   2.780  10.230
66229W        W36829  11.133  37.916  12.689
66230W        W36830  24.254   4.799   0.230
66231W        W36831   1.398   8.451  12.143
66232W        W36832  37.842  39.074  10.668
66233W        W36833  44.844  22.412  13.098
66234W        W36834  15.814  22.759   2.895
66235W        W36835  31.075  25.587   1.406
66236W        W36836   5.945  35.793   1.234
66237W        W36837  27.006  18.184   1.146
66238W        W36838  39.514   5.687   3.679
66239W        W36839   4.941   8.377   5.382
66240W        W36840  42.451  22.278  10.970
66241W        W36841  28.174  20.672  12.790
66242W        W36842  38.249  22.499   2.694
66243W        W36843  36.126  19.423   2.613
66244W        W36844  23.279  15.170  13.373
66245W        W36845  13.426  26.269  10.522
66246W        W36846   7.763  14.917  13.085
66247W        W36847  15.595  30.340  12.860
66248W        W36848  34.218  13.081   2.014
66249W        W36849  28.625   8.093   1.404
66250W        W36850  44.975  16.717   1.230
66251W        W36851   8.212  34.393   4.165
66252W        W36852   7.634  43.267  13.032
66253W        W36853   0.972  29.000   3.266
66254W        W36854   9.939  21.518   1.678
66255W        W36855  28.461  25.248  11.421
66256W        W36856  24.921  29.160  14.912
66257W        W36857  35.332   5.946   3.380
66258W        W36858  12.284  26.890  12.847
66259W        W36859  19.270  37.763  13.345
66260W        W36860  39.517  10.375   9.871
66261W        W36861  24.965   4.328   0.590
66262W        W36862  37.365  40.309   4.254
66263W        W36863  32.041  34.842   0.405
66264W        W36864  28.001  28.193  13.856
66265W        W36865  29.722  41.566  14.878
66266W        W36866   6.908  18.791   1.330
66267W        W36867   2.769  21.700   3.745
66268W        W36868  17.689  37.446  10.686
66269W        W36869   4.468  18.212   3.860
66270W        W36870  43.714   2.755  12.885
66271W        W36871  23.195  29.956  14.027
66272W        W36872   3.377  19.814   2.704
66273W        W36873  12.510  33.838  14.870
66274W        W36874  40.442  19.507   2.372
66275W        W36875  17.846  43.859  13.156
66276W        W36876   8.188  26.606   2.280
66277W        W36877  16.001  20.706  12.224
66278W        W36878  30.055   9.974   0.412
66279W        W36879  35.944  22.408   1.827
66280W        W36880   7.991  16.215  12.351
66281W        W36881   6.342  18.058  14.238
66282W        W36882  24.817   2.363  13.985
66283W        W36883   8.727  19.779  13.109
66284W        W36884  33.586  23.956  11.896
66285W        W36885   4.873  12.739   0.869
66286W        W36886   9.596  20.754  14.324
66287W        W36887   5.469  44.029  11.425
66288W        W36888  39.439  34.377   3.714
66289W        W36889  30.209   7.240   3.329
66290W        W36890  24.176  32.143   4.203
66291W        W36891  31.988  16.250  12.498
66292W        W36892   5.186  10.781  14.546
66293W        W36893   1.471  23.218  14.106
66294W        W36894   9.191  43.223   3.345
66295W        W36895  28.911  30.385  12.914
66296W        W36896  33.785   6.742  14.739
66297W        W36897  42.682  15.803   2.689
66298W        W36898   5.868  36.269  14.932
66299W        W36899   4.520  24.510  13.114
66300W        W36900  20.503  30.793   4.358
66301W        W36901  19.937  24.304  14.893
66302W        W36902   1.219  16.152  11.028
66303W        W36903   3.363  42.395   1.942
66304W        W36904  37.322  15.271  14.182
66305W        W36905  24.784  15.177   0.961
66306W        W36906   5.194  31.835   3.594
66307W        W36907  20.989  11.356   1.381
66308W        W36908   8.946  20.142   2.142
66309W        W36909   6.149  21.758   3.413
66310W        W36910  15.694   3.978   3.816
66311W        W36911  35.435  35.052  12.506
66312W        W36912  18.087  34.434   1.319
66313W        W36913  10.186  10.936   4.097
66314W        W36914  18.641  30.922  10.521
66315W        W36915  23.281  36.249  11.587
66316W        W36916  31.973  25.535   4.657
66317W        W36917  27.170   1.665   4.101
66318W        W36918  41.710  17.215   3.064
66319W        W36919  41.250   0.850  13.083
66320W        W36920  26.564  41.549   2.207
66321W        W36921  10.632   5.098   2.707
66322W        W36922  44.507  42.394  12.587
66323W        W36923  27.138  21.956  11.049
66324W        W36924  38.838   1.995  12.813
66325W        W36925  10.032  34.150  12.089
66326W        W36926  29.569  35.564  14.895
66327W        W36927  14.425  34.834  13.478
66328W        W36928  36.104  27.303   5.332
66329W        W36929  18.252   4.840  11.746
66330W        W36930   1.484   5.163   2.236
66331W        W36931  31.202  42.216   3.117
66332W        W36932  20.329  29.967   1.132
66333W        W36933  21.504  28.611   3.317
66334W        W36934  33.614  37.475  11.131
66335W        W36935  32.350  25.461  12.510
66336W        W36936  22.611  15.687  13.129
66337W        W36937   3.997   4.800  11.649
66338W        W36938  16.936  32.818  11.515
66339W        W36939  18.816  28.676  14.047
66340W        W36940   0.449  37.030   0.817
66341W        W36941  32.611  14.815   1.763
66342W        W36942   9.498  35.858  14.800
66343W        W36943  19.015   5.763   1.233
66344W        W36944  14.404  19.141   3.569
66345W        W36945  25.107   7.688  14.427
66346W        W36946  23.288  27.297  12.068
66347W        W36947  20.623  36.106  13.881
66348W        W36948  10.139  31.454  13.044
66349W        W36949  23.376  19.482  13.299
66350W        W36950  44.631  17.757   0.923
66351W        W36951   4.211  31.602  14.928
66352W        W36952   8.782  33.954  13.457
66353W        W36953   4.214  42.379  13.996
66354W        W36954  36.501   4.713   2.946
66355W        W36955  35.179  32.507   0.817
66356W        W36956   4.089  11.240  12.404
66357W        W36957   1.350   4.491  12.746
66358W        W36958  19.523   7.789  11.999
66359W        W36959  12.530  27.903   2.749
66360W        W36960   1.167  42.026   3.194
66361W        W36961   3.394  18.288  14.282
66362W        W36962   7.900  28.422  12.455
66363W        W36963  20.553  35.869  11.440
66364W        W36964   7.005  10.528  12.477
66365W        W36965  23.726  33.443  13.252
66366W        W36966  23.983  17.152  14.400
66367W        W36967  26.810  23.535  13.437
66368W        W36968  21.590  29.950  10.597
66369W        W36969  10.135  28.723  10.635
66370W        W36970  12.813  36.778   2.350
66371W        W36971   5.981  36.905  11.902
66372W        W36972   7.446  41.532  11.163
66373W        W36973  13.589  15.610  12.604
66374W        W36974  39.276  31.772   0.013
66375W        W36975   2.154  37.021  12.463
66376W        W36976  21.905  22.681  11.262
66377W        W36977  18.227  44.652  10.697
66378W        W36978  29.622  33.986   4.315
66379W        W36979   4.993   8.887  13.837
66380W        W36980   1.839  38.895   4.585
66381W        W36981  30.888   1.756  11.839
66382W        W36982  42.633   9.707  13.335
66383W        W36983  38.364   6.341  14.864
66384W        W36984   7.984  30.058   0.508
66385W        W36985  28.199  37.937   0.512
66386W        W36986  25.518  39.874   4.275
66387W        W36987   5.231  27.227   3.083
66388W        W36988   4.660  27.779   0.887
66389W        W36989  15.548  10.599   0.763
66390W        W36990   2.271  34.988  14.972
66391W        W36991   0.057   4.524   0.715
66392W        W36992  29.556  15.847  12.497
66393W        W36993  11.830  24.069   1.885
66394W        W36994  15.803  12.322   3.481
66395W        W36995  24.124  23.545   1.803
66396W        W36996  37.529  40.085  14.332
66397W        W36997   6.429  34.482  11.573
66398W        W36998   4.805  19.816   4.323
66399W        W36999  43.251  17.123   4.123
66400W        W37000  17.582  29.915  14.230
66401W        W37001  31.390  11.882  13.454
66402W        W37002  11.107  28.627  13.815
66403W        W37003  26.509  31.632  14.958
66404W        W37004  43.335  35.330   4.821
66405W        W37005   6.174  43.302  11.232
66406W        W37006  29.601  32.422   2.344
66407W        W37007  29.516  24.144  13.398
66408W        W37008  19.513  43.832   2.977
66409W        W37009  38.128  11.278   4.878
66410W        W37010  12.847   9.180  14.471
66411W        W37011  13.720  31.660  13.081
66412W        W37012  25.020  35.545   0.744
66413W        W37013  32.652  10.292   0.424
66414W        W37014  35.646  21.719   3.131
66415W        W37015   1.555  23.249  13.604
66416W        W37016  23.654  42.755   1.500
66417W        W37017  38.529  28.164   1.685
66418W        W37018   7.524  18.122  11.298
66419W        W37019  27.378  40.077  10.640
66420W        W37020  14.662  33.092  11.162
66421W        W37021  28.982  39.082  12.448
66422W        W37022   6.636  24.215   4.775
66423W        W37023  37.561  16.368   1.244
66424W        W37024  16.140  19.074   4.891
66425W        W37025  22.918   4.397  14.805
66426W        W37026   5.941  21.693  10.528
66427W        W37027  12.569  11.249   2.851
66428W        W37028  16.522  27.566  11.253
66429W        W37029  22.653  17.545   1.589
66430W        W37030  43.448  23.810   1.868
66431W        W37031   0.345  44.302   1.191
66432W        W37032  41.852  15.304  13.424
66433W        W37033  10.304  29.208  10.684
66434W        W37034   6.979  28.414   1.829
66435W        W37035   1.245  31.890   3.249
66436W        W37036  39.992   7.997   2.874
66437W        W37037  13.195  17.181   4.336
66438W        W37038  26.541  23.316  13.873
66439W        W37039  19.636  14.170  12.071
66440W        W37040   0.493  31.154  10.680
66441W        W37041  16.730  37.601  13.691
66442W        W37042  43.420  27.264   2.599
66443W        W37043  38.893  37.242  13.385
66444W        W37044  16.830  44.283  12.330
66445W        W37045  44.482  27.644   1.495
66446W        W37046   3.707  41.899   4.457
66447W        W37047  10.171  43.360   3.130
66448W        W37048  12.743  37.754  11.038
66449W        W37049  44.303   3.519  13.986
66450W        W37050  14.709   2.318  10.924
66451W        W37051  41.813   4.697  13.928
66452W        W37052  43.654   8.273  13.922
66453W        W37053  38.806  16.025   2.773
66454W        W37054  33.872  44.864   1.713
66455W        W37055   7.244   1.476   0.401
66456W        W37056  17.370  31.616   4.660
66457W        W37057  14.253  11.373   0.849
66458W        W37058  38.148  19.012   1.395
66459W        W37059  25.764   0.311   0.767
66460W        W37060   6.612  39.397   1.749
66461W        W37061  28.056   5.467   0.500
66462W        W37062  28.901  28.745  11.474
66463W        W37063  15.628  11.380  14.474
66464W        W37064   4.245  14.166  12.347
66465W        W37065  33.090  38.548  14.733
66466W        W37066  38.998  27.688  10.730
66467W        W37067   2.311  18.996   1.219
66468W        W37068  40.465  23.132   2.483
66469W        W37069   8.558  16.216   1.633
66470W        W37070   2.236  39.182   5.104
66471W        W37071  43.598  27.936  12.012
66472W        W37072   3.293  31.507  11.164
66473W        W37073  22.723  40.538  13.536
66474W        W37074   5.966  32.442   3.979
66475W        W37075  27.579  43.738   3.206
66476W        W37076   1.234   6.248  14.817
66477W        W37077  36.836  43.014  11.950
66478W        W37078  22.529   5.369   3.655
66479W        W37079   9.036  20.162   1.371
66480W        W37080  34.404  38.923  13.512
66481W        W37081  26.981   4.336  13.549
66482W        W37082  36.984  22.257  11.100
66483W        W37083  17.631  29.473   0.193
66484W        W37084  27.646  25.154  11.519
66485W        W37085  34.366  11.885   0.926
66486W        W37086  19.496   0.462  12.977
66487W        W37087  37.597  21.242  12.955
66488W        W37088   2.191  21.664   0.162
66489W        W37089  20.964  20.989  11.219
66490W        W37090  21.681  40.961   4.526
66491W        W37091  43.689  44.283  11.081
66492W        W37092  17.258  32.832  11.121
66493W        W37093  18.217   7.125   2.274
66494W        W37094  27.507  27.423  12.981
66495W        W37095  39.107  12.244   4.497
66496W        W37096  15.833  39.632  12.996
66497W        W37097  21.970  17.689  13.789
66498W        W37098  43.532  44.439   4.579
66499W        W37099   2.881   7.847   0.536
66500W        W37100  15.542  24.534   0.844
66501W        W37101  37.464  16.731  11.681
66502W        W37102  39.768  30.004   2.298
66503W        W37103  22.111  42.323  10.776
66504W        W37104  43.235  31.597  14.758
66505W        W37105  35.510   6.926   1.097
66506W        W37106   9.304  19.531  12.567
66507W        W37107  19.774  17.114   4.606
66508W        W37108  41.218   7.222  11.159
66509W        W37109   9.763  42.459   4.494
66510W        W37110   8.275  42.782   1.232
66511W        W37111  43.826   9.801   2.791
66512W        W37112  29.210  36.655  11.325
66513W        W37113  20.194  15.280   2.377
66514W        W37114  15.278  33.431  13.984
66515W        W37115   3.511  33.426  14.520
66516W        W37116  34.336   9.712  13.927
66517W        W37117  42.321  20.170  11.907
66518W        W37118  30.691  44.959   3.744
66519W        W37119  31.880   3.505   2.648
66520W        W37120  35.591  34.161  14.411
66521W        W37121  29.668  18.893   0.924
66522W        W37122  11.425  14.047  11.013
66523W        W37123  36.515   1.836  13.965
66524W        W37124   7.137  18.990   1.887
66525W        W37125  26.181   9.602  14.969
66526W        W37126  39.812  39.680   0.296
66527W        W37127   8.309  29.675   0.724
66528W        W37128  17.242   2.770   1.640
66529W        W37129   0.286  21.306   1.412
66530W        W37130   0.414  20.636  12.878
66531W        W37131  30.475  36.795  13.874
66532W        W37132  32.148  18.655  10.974
66533W        W37133  15.683  44.383  11.629
66534W        W37134  15.008   8.257   4.073
66535W        W37135  31.802  23.635  14.918
66536W        W37136  30.195  38.899  13.869
66537W        W37137  22.286  40.319   3.624
66538W        W37138  39.925  10.187   2.457
66539W        W37139  22.531  35.520  14.827
66540W        W37140  40.917   8.926   2.404
66541W        W37141  42.059  43.830   1.268
66542W        W37142  19.348   0.304  12.067
66543W        W37143  28.617  43.759  13.940
66544W        W37144   4.576  28.934  14.458
66545W        W37145  29.646   8.203   3.704
66546W        W37146  38.214  17.615   2.418
66547W        W37147  37.779   3.893   3.597
66548W        W37148   1.524  13.137  11.449
66549W        W37149  38.860  29.175   3.436
66550W        W37150   0.871  35.897   2.331
66551W        W37151   4.399  36.944   4.475
66552W        W37152   2.198  22.912   2.362
66553W        W37153  20.368  40.888   1.293
66554W        W37154   5.252   8.694   4.857
66555W        W37155  10.302  38.446   3.385
66556W        W37156  21.656  42.886   4.660
66557W        W37157   2.247  13.207  12.324
66558W        W37158  41.622  34.510  12.482
66559W        W37159  42.437  40.248   0.298
66560W        W37160  38.156  19.162   0.369
66561W        W37161   3.808  24.245   2.220
66562W        W37162  21.233  42.575  11.191
66563W        W37163  44.557  41.093  11.941
66564W        W37164   7.504  39.392   0.480
66565W        W37165  15.420   5.023   3.675
66566W        W37166   9.483   5.907   3.675
66567W        W37167   5.258   8.615   1.368
66568W        W37168  28.015  41.431   2.446
66569W        W37169  10.635   5.786   3.442
66570W        W37170  22.586   3.367   1.707
66571W        W37171  33.932   3.761  13.354
66572W        W37172  41.453  13.498   2.572
66573W        W37173   8.799  30.931   3.106
66574W        W37174  11.022  37.229   1.914
66575W        W37175  25.227   5.655  14.487
66576W        W37176  30.164  13.631   2.801
66577W        W37177   4.566  28.140  12.386
66578W        W37178  44.654   3.119  13.836
66579W        W37179  44.321  29.153  14.193
66580W        W37180  10.272   0.265   2.990
66581W        W37181   3.895  44.439   1.648
66582W        W37182  22.648   8.309   0.004
66583W        W37183   8.261  40.013  12.972
66584W        W37184  44.321   6.330   3.544
66585W        W37185  19.211  32.940  14.029
66586W        W37186  36.507  25.200  14.891
66587W        W37187   7.811  21.699   0.293
66588W        W37188  15.261  26.688  12.377
66589W        W37189  44.791  20.269  13.994
66590W        W37190  21.168  23.470   0.894
66591W        W37191   5.998  10.378  11.708
66592W        W37192  43.964   9.675  12.040
66593W        W37193  27.150  41.851  13.491
66594W        W37194  28.101  24.617   0.697
66595W        W37195  43.098  10.082  14.853
66596W        W37196  17.292   5.778  12.287
66597W        W37197  29.639  27.796  13.489
66598W        W37198  44.692  12.167   2.322
66599W        W37199   1.274   3.492   4.198
66600W        W37200  31.410  36.854  13.471
66601W        W37201   9.606  16.263   4.242
66602W        W37202   5.856  20.789   0.925
66603W        W37203  26.985  34.484   1.820
66604W        W37204  42.522  40.271  12.996
66605W        W37205  36.610  16.774   3.196
66606W        W37206  12.692   5.254  10.639
66607W        W37207   9.092  44.840   4.504
66608W        W37208  31.443  20.782   0.063
66609W        W37209  10.711  20.210  13.740
66610W        W37210  11.927  41.288   1.263
66611W        W37211  36.397   0.972  12.446
66612W        W37212  20.242  17.260   1.887
66613W        W37213  38.604  32.507  14.613
66614W        W37214  35.913  11.125   4.345
66615W        W37215   2.400  14.172  14.345
66616W        W37216  22.125  37.688   2.996
66617W        W37217  25.492   9.437  13.535
66618W        W37218  36.254  31.970   1.346
66619W        W37219  10.707  36.588  11.468
66620W        W37220   7.624  23.612  13.314
66621W        W37221   4.723  14.559   0.983
66622W        W37222  40.004   7.231   1.366
66623W        W37223  22.493  14.182  12.153
66624W        W37224  10.887   4.206  12.825
66625W        W37225  23.183  25.537   2.326
66626W        W37226  41.475  29.011   4.219
66627W        W37227  44.978  44.554  12.822
66628W        W37228  18.836  16.802   2.890
66629W        W37229  34.929  24.620  13.625
66630W        W37230  27.199  44.001  11.928
66631W        W37231   5.327  43.969  14.719
66632W        W37232  18.618   7.423  10.703
66633W        W37233  18.737  22.099  11.136
66634W        W37234  11.892   1.032  13.011
66635W        W37235  21.511  30.143  12.562
66636W        W37236  41.454  44.342   1.989
66637W        W37237  32.454  38.291  12.062
66638W        W37238  10.168  27.475   2.801
66639W        W37239  23.980  44.438   1.874
66640W        W37240   8.703  13.245   1.774
66641W        W37241  41.426   9.204   4.199
66642W        W37242  21.385   2.062   3.897
66643W        W37243  28.118  23.552   0.722
66644W        W37244  35.834  23.049  13.988
66645W        W37245  28.074  41.467  13.863
66646W        W37246  20.336  25.665   4.016
66647W        W37247  37.870  23.198  11.714
66648W        W37248   3.436  40.310  11.819
66649W        W37249  15.052  10.751   2.148
66650W        W37250  21.787  11.312   4.854
66651W        W37251  21.412  33.078  13.443
66652W        W37252  31.092  44.260  12.380
66653W        W37253  22.925  44.845   4.350
66654W        W37254  16.247   4.404   3.193
66655W        W37255  11.640  33.566   4.282
66656W        W37256  43.440  32.924  11.467
66657W        W37257  31.144  41.010   3.521
66658W        W37258   4.930  20.748   1.054
66659W        W37259   6.740  14.282  11.603
66660W        W37260   8.962  11.153   0.523
66661W        W37261  38.180  16.996  11.862
66662W        W37262  41.585   5.430   9.791
66663W        W37263  14.999  27.197   2.454
66664W        W37264  23.503  23.683  13.912
66665W        W37265  25.222  19.662   3.627
66666W        W37266  21.009  17.871   0.477
66667W        W37267  27.130  20.933  11.069
66668W        W37268  27.106  26.039   3.022
66669W        W37269  39.588  14.184   3.571
66670W        W37270  21.424   2.789   3.482
66671W        W37271   7.337  25.960   0.304
66672W        W37272  20.156  10.574   0.297
66673W        W37273  37.670  34.931  11.067
66674W        W37274  21.257  33.639   1.388
66675W        W37275  41.306  30.457  14.880
66676W        W37276  41.846  29.865  13.654
66677W        W37277   1.347  20.330   0.379
66678W        W37278  37.036  34.595  12.123
66679W        W37279   3.933  37.931  12.110
66680W        W37280  34.657  27.217  13.062
66681W        W37281   4.202  26.786   4.818
66682W        W37282   2.868  27.594  12.323
66683W        W37283  38.021  33.324   3.664
66684W        W37284  38.785   8.886   1.881
66685W        W37285  44.617   5.402   4.574
66686W        W37286   8.220  39.248  10.774
66687W        W37287   7.656  38.308  12.591
66688W        W37288  43.385   2.288  14.939
66689W        W37289  41.295  15.338   3.731
66690W        W37290  42.949   3.987   4.139
66691W        W37291  15.814  12.065   1.606
66692W        W37292   0.754   4.203  10.778
66693W        W37293   0.506   3.932   1.961
66694W        W37294  17.957  17.760   2.178
66695W        W37295  32.650  44.218  14.459
66696W        W37296  12.080   2.798   4.252
66697W        W37297  16.192  28.952  10.686
66698W        W37298  30.143  26.649  11.152
66699W        W37299   4.165  21.045  14.282
66700W        W37300   9.533   9.592  11.753
66701W        W37301   7.951  39.274  12.467
66702W        W37302  18.616   7.410  11.199
66703W        W37303  22.565  33.521  14.093
66704W        W37304  10.849  25.442   4.397
66705W        W37305  13.879  32.160  11.768
66706W        W37306  39.967  35.051   3.597
66707W        W37307  30.256   5.884  12.529
66708W        W37308   3.244   7.719   4.558
66709W        W37309  43.466   6.181  14.798
66710W        W37310  33.967  10.894  11.937
66711W        W37311  14.820  35.028   0.773
66712W        W37312  13.135  41.783  14.319
66713W        W37313  41.785  40.394   0.069
66714W        W37314  38.071  43.294  12.949
66715W        W37315  31.931  43.347   4.874
66716W        W37316   3.723  27.580  12.357
66717W        W37317   8.929  39.781   2.688
66718W        W37318  34.580  27.929   1.258
66719W        W37319  43.408   0.023   2.729
66720W        W37320  44.031  19.117   2.581
66721W        W37321   6.338  42.041   3.488
66722W        W37322  41.267  29.000   1.727
66723W        W37323  33.273  25.565  10.470
66724W        W37324  21.366  35.013   3.960
66725W        W37325   3.826  37.494   0.777
66726W        W37326  22.542  12.162  11.710
66727W        W37327   4.291  28.676  13.610
66728W        W37328  42.214  33.925   0.352
66729W        W37329  31.795  16.771  14.819
66730W        W37330  15.078  26.174   3.550
66731W        W37331  17.396  40.745   2.770
66732W        W37332  37.187   4.380  14.996
66733W        W37333  13.816  10.079  11.938
66734W        W37334   8.929   1.680  10.683
66735W        W37335  42.606  30.650   4.175
66736W        W37336  18.361   7.977  12.630
66737W        W37337  31.048   3.358  12.460
66738W        W37338  38.898  13.125   1.865
66739W        W37339   9.271  44.026   0.580
66740W        W37340   9.918  12.697   1.830
66741W        W37341  40.277   1.201  14.320
66742W        W37342   3.278  37.641   3.449
66743W        W37343  28.940  39.938  13.740
66744W        W37344  24.075  19.560  11.949
66745W        W37345  17.625   5.314  13.568
66746W        W37346   5.686  33.415  12.840
66747W        W37347  31.657  41.309  14.802
66748W        W37348  41.532  33.486   2.621
66749W        W37349   8.146  44.752  12.120
66750W        W37350   6.907  38.407  10.819
66751W        W37351  24.464  23.487  13.937
66752W        W37352  17.242  42.235  11.774
66753W        W37353  18.285  18.399  13.787
66754W        W37354   8.936   4.823   2.505
66755W        W37355  16.256  24.045   0.926
66756W        W37356  15.795  23.574   3.371
66757W        W37357  17.422  20.539  13.403
66758W        W37358   7.715  37.563  14.340
66759W        W37359  36.842  44.289  14.414
66760W        W37360  16.217   2.762   3.642
66761W        W37361  19.581   7.644   2.197
66762W        W37362  34.805  34.856   1.749
66763W        W37363  35.672   8.277   3.424
66764W        W37364  27.438  18.508   1.824
66765W        W37365  27.460  24.377  13.599
66766W        W37366  16.291  29.823   1.937
66767W        W37367   6.538  35.008  13.554
66768W        W37368  11.860   8.985   3.540
66769W        W37369  41.691  41.275  13.928
66770W        W37370  38.374  24.141   1.321
66771W        W37371   2.442  28.701   3.794
66772W        W37372  43.456  27.304   1.620
66773W        W37373  22.622  39.730  13.323
66774W        W37374  25.796   2.194   3.363
66775W        W37375  43.719  27.501   1.223
66776W        W37376   3.927  43.732  12.620
66777W        W37377   5.401   3.186  12.490
66778W        W37378  31.914  12.543   4.546
66779W        W37379  29.113  25.729  14.021
66780W        W37380   7.900  41.270   3.238
66781W        W37381  30.017   9.589   1.292
66782W        W37382  42.349  26.206   0.224
66783W        W37383  25.404  18.243   3.600
66784W        W37384  41.545  24.748  14.102
66785W        W37385  23.050  26.670  14.892
66786W        W37386  30.174   9.269   0.876
66787W        W37387   6.197  42.347  11.143
66788W        W37388  23.553   9.724  11.237
66789W        W37389  10.234  32.392  13.022
66790W        W37390   5.437  22.551  12.911
66791W        W37391   9.226  18.468  12.673
66792W        W37392   9.988   1.314   1.627
66793W        W37393  11.901  30.166   1.505
66794W        W37394  30.668  37.079  13.466
66795W        W37395  40.799  31.865  11.242
66796W        W37396  28.245  44.236  12.627
66797W        W37397  40.822   8.969  10.594
66798W        W37398  12.473  37.708  14.833
66799W        W37399  15.541  34.210  14.240
66800W        W37400  21.657   7.789  14.683
66801W        W37401  42.042  17.288  14.311
66802W        W37402  30.344  42.760  11.599
66803W        W37403  24.914  14.016  14.771
66804W        W37404   4.965  26.057   1.406
66805W        W37405  33.045  34.468  14.420
66806W        W37406   7.090  33.796   3.190
66807W        W37407  22.698  27.354  13.115
66808W        W37408  28.491  37.814  14.772
66809W        W37409   6.779   3.911  10.474
66810W        W37410   5.738   9.856   4.455
66811W        W37411  34.696   2.465   4.255
66812W        W37412   5.328  40.270   0.321
66813W        W37413  16.329  38.380  14.012
66814W        W37414  23.609  24.087  10.716
66815W        W37415  10.745  18.951   3.909
66816W        W37416  22.536  19.100   4.227
66817W        W37417  41.351  20.927   0.487
66818W        W37418  40.068   0.219   1.665
66819W        W37419  14.044  20.512  10.703
66820W        W37420  44.585  23.186  14.460
66821W        W37421  28.195  23.989  14.362
66822W        W37422  30.116  42.178   0.449
66823W        W37423  17.832  30.070   2.355
66824W        W37424  33.210   1.713  14.920
66825W        W37425  26.661   4.282  12.577
66826W        W37426  24.012  37.829  13.931
66827W        W37427  12.243  28.578   2.674
66828W        W37428  17.119  27.655  12.009
66829W        W37429  13.314  36.676   2.248
66830W        W37430  32.159   1.917   1.984
66831W        W37431  13.154  23.007   4.080
66832W        W37432  14.650   1.297   3.423
66833W        W37433   4.323  43.086   3.390
66834W        W37434  10.607  21.721  14.526
66835W        W37435  19.874  21.253  11.368
66836W        W37436  26.172  18.722   3.088
66837W        W37437   6.659  22.232  11.146
66838W        W37438   3.720  27.018  12.489
66839W        W37439  12.209  44.202   4.385
66840W        W37440  30.681   2.577   0.641
66841W        W37441  40.383  13.326   3.278
66842W        W37442   6.634  12.326   2.760
66843W        W37443  40.799  37.621   3.299
66844W        W37444   0.799  22.643   4.064
66845W        W37445   8.205   6.008  13.543
66846W        W37446  30.198  22.020   0.053
66847W        W37447  14.819  40.590  13.586
66848W        W37448  40.009  14.783  11.095
66849W        W37449  44.075  20.944   1.784
66850W        W37450  37.401  24.226  12.461
66851W        W37451  44.423  37.157  14.804
66852W        W37452  12.628  29.459  11.218
66853W        W37453   1.421   0.307   2.573
66854W        W37454   8.124  17.492   2.818
66855W        W37455  32.608  43.890   3.247
66856W        W37456  32.377  16.854   0.700
66857W        W37457  41.526  43.785  14.744
66858W        W37458  33.172   2.497   4.372
66859W        W37459  29.595   6.849  14.834
66860W        W37460  13.646  24.970   1.812
66861W        W37461  27.489  13.735  14.977
66862W        W37462  29.660  27.110   1.757
66863W        W37463   9.795   4.320  13.960
66864W        W37464  18.367  36.863  12.016
66865W        W37465   3.496   0.086  12.936
66866W        W37466  33.414  36.713  10.851
66867W        W37467  11.696  17.072   3.227
66868W        W37468  21.491  13.319  11.589
66869W        W37469  16.038  43.886  11.050
66870W        W37470   5.391  28.195  13.948
66871W        W37471  26.717  18.716  10.796
66872W        W37472  38.167  43.010   2.924
66873W        W37473  18.748  31.452   2.839
66874W        W37474  18.643  32.441   4.881
66875W        W37475   0.691  44.905   4.647
66876W        W37476  12.694   1.281   4.655
66877W        W37477  40.285  40.574   3.158
66878W        W37478  29.086  25.169   3.629
66879W        W37479  20.603   2.656   3.107
66880W        W37480   8.408  17.605   4.979
66881W        W37481  19.777  15.168  14.399
66882W        W37482   5.335  10.529  14.981
66883W        W37483  27.738  11.114  13.997
66884W        W37484   9.204  38.026   4.746
66885W        W37485  16.993  42.879  12.925
66886W        W37486  29.921  23.618   1.643
66887W        W37487  43.293   2.926   4.563
66888W        W37488  31.126  41.568  12.193
66889W        W37489  12.786   9.370   0.958
66890W        W37490  21.970  43.862  13.546
66891W        W37491  16.741  29.852   1.265
66892W        W37492  35.137   3.376   3.304
66893W        W37493  38.454  39.049  11.555
66894W        W37494  12.784   7.727   2.884
66895W        W37495  21.630  14.375   0.960
66896W        W37496  10.687   6.164   1.255
66897W        W37497  44.203  32.834  14.556
66898W        W37498  44.336  14.357  14.412
66899W        W37499   6.930  32.966   0.808
66900W        W37500   5.665  39.510  13.957
66901W        W37501  21.507   6.105  12.545
66902W        W37502  31.842  21.927   3.646
66903W        W37503   6.394  37.529  11.950
66904W        W37504  36.137  14.850  11.383
66905W        W37505  36.010   2.408   3.828
66906W        W37506  21.668  33.118   2.723
66907W        W37507  29.466  36.607   1.884
66908W        W37508   2.374  16.745  10.745
66909W        W37509  35.949  38.545   9.762
66910W        W37510   4.950  24.590  14.074
66911W        W37511  31.357  14.585   0.170
66912W        W37512  20.190  44.019  13.414
66913W        W37513  21.939  29.925   0.268
66914W        W37514  34.345  37.133   2.367
66915W        W37515  12.629  37.372   0.793
66916W        W37516  12.625  13.252  11.957
66917W        W37517  35.159  21.365  10.871
66918W        W37518  44.391  23.167  13.491
66919W        W37519  33.268  11.338   1.467
66920W        W37520  21.324  12.230   2.063
66921W        W37521  15.073   4.407   4.844
66922W        W37522  10.133   1.713  13.504
66923W        W37523  33.032  20.645  12.468
66924W        W37524  34.959   5.193   0.288
66925W        W37525  17.802  36.499   0.363
66926W        W37526  38.354  41.933  13.060
66927W        W37527  41.111   8.266   2.320
66928W        W37528  35.482   4.271   4.947
66929W        W37529   7.677  35.918  12.050
66930W        W37530  30.190  16.072  12.070
66931W        W37531  25.128   8.411  10.530
66932W        W37532  24.180  15.428   1.487
66933W        W37533  27.531   7.668   2.389
66934W        W37534  30.359  43.749  13.559
66935W        W37535  39.797  41.828   2.775
66936W        W37536  41.368  11.850  11.443
66937W        W37537  21.491  10.924   4.561
66938W        W37538   1.647  40.611  12.873
66939W        W37539  22.272   4.160   0.433
66940W        W37540   2.407  44.254   1.118
66941W        W37541  37.938  34.448  14.155
66942W        W37542  26.697   2.425   3.128
66943W        W37543  32.947  34.601   4.868
66944W        W37544  26.147   3.896  12.998
66945W        W37545  28.980  38.445   0.811
66946W        W37546  23.630  31.631  10.548
66947W        W37547  22.264   0.198  14.550
66948W        W37548  13.166  28.337  14.012
66949W        W37549   5.182  17.128  11.569
66950W        W37550   7.888   3.863  11.532
66951W        W37551  10.127  25.110  13.468
66952W        W37552   0.363  38.479  12.593
66953W        W37553  10.841  31.500  11.495
66954W        W37554  25.738  36.412  14.775
66955W        W37555  12.960  19.835  12.562
66956W        W37556  17.172  19.053  12.902
66957W        W37557  33.630   4.478  12.943
66958W        W37558  26.474  23.124   1.815
66959W        W37559  25.020  16.064  11.859
66960W        W37560  19.227  27.503   1.184
66961W        W37561  39.676   3.785   0.202
66962W        W37562   4.823   8.442   4.373
66963W        W37563  31.012  34.916   0.029
66964W        W37564  34.153  14.093  13.897
66965W        W37565  29.300  27.137  14.586
66966W        W37566  20.776  19.229   4.406
66967W        W37567   3.207   9.694  12.150
66968W        W37568  15.773  32.168  14.797
66969W        W37569  13.697  17.571  11.265
66970W        W37570  20.180  20.564  12.073
66971W        W37571  42.968  28.544   1.691
66972W        W37572  13.339  24.017  11.121
66973W        W37573  43.991  40.380   5.002
66974W        W37574  32.946  38.559  10.680
66975W        W37575  18.690  20.417   3.453
66976W        W37576  43.854  27.844   3.520
66977W        W37577  20.883   4.380  13.861
66978W        W37578   4.235   0.375   1.205
66979W        W37579  23.501  12.881   3.050
66980W        W37580  31.416  17.641   3.979
66981W        W37581  36.843  28.168   0.068
66982W        W37582  27.535  21.624   0.264
66983W        W37583  34.264  27.050   0.920
66984W        W37584  41.149  27.104  14.400
66985W        W37585   6.758  30.359  12.468
66986W        W37586  25.629  39.010  10.976
66987W        W37587  33.856  31.806  14.896
66988W        W37588   3.693  29.848   2.176
66989W        W37589  11.176  14.912  13.545
66990W        W37590  37.177  24.120  14.328
66991W        W37591  28.996   2.260   4.690
66992W        W37592  17.931   1.318   4.643
66993W        W37593  42.341  14.123   1.166
66994W        W37594  18.191  21.215   2.845
66995W        W37595  19.791  21.218  10.516
66996W        W37596  40.859  27.177  13.401
66997W        W37597  42.181  18.110   1.079
66998W        W37598  19.174   5.365  12.455
66999W        W37599   3.877  15.029  14.296
67000W        W37600   8.821  41.646  12.908
67001W        W37601  42.006   3.841  14.979
67002W        W37602  15.270  16.154  14.473
67003W        W37603  30.373  13.543  14.922
67004W        W37604  25.742  39.191  11.802
67005W        W37605  27.665  33.971   2.883
67006W        W37606   1.096  42.954  12.041
67007W        W37607  21.029  22.638  13.841
67008W        W37608  34.128  12.158   0.517
67009W        W37609   5.782  36.768  14.762
67010W        W37610   8.356  13.858   1.821
67011W        W37611  13.227  28.441   1.500
67012W        W37612  11.787  24.970  11.648
67013W        W37613  27.675  31.140   2.841
67014W        W37614  15.607  14.647   1.155
67015W        W37615  11.235  41.727  10.960
67016W        W37616  25.524  19.952  11.437
67017W        W37617  10.076  44.345   0.523
67018W        W37618  20.016  20.004  10.659
67019W        W37619  32.818   1.482   0.159
67020W        W37620  44.716  42.008   0.262
67021W        W37621  42.872  40.078  13.859
67022W        W37622  40.422  41.595   0.517
67023W        W37623  17.490  17.874   3.861
67024W        W37624  41.117  26.397   2.870
67025W        W37625   7.726   4.583   5.146
67026W        W37626   7.304  12.775   2.415
67027W        W37627  30.496   2.984   3.020
67028W        W37628  31.176  27.034  13.512
67029W        W37629  41.787   5.387  12.102
67030W        W37630  38.703   0.567  12.735
67031W        W37631   0.239  17.861   0.305
67032W        W37632  28.684  37.850   2.841
67033W        W37633   4.469  31.539   1.281
67034W        W37634  39.286  38.882   4.356
67035W        W37635   1.724   0.802  14.063
67036W        W37636  42.992  37.430   1.420
67037W        W37637   0.836  33.929  12.811
67038W        W37638  14.734  41.813  14.943
67039W        W37639  28.484  43.660   4.243
67040W        W37640   0.515  35.137  11.956
67041W        W37641  20.436  37.295   3.742
67042W        W37642  24.186  32.650   1.235
67043W        W37643  42.839   7.471  13.355
67044W        W37644  37.707  33.965   4.076
67045W        W37645  13.840  23.453   2.353
67046W        W37646   4.275  44.095   3.227
67047W        W37647  30.053   7.616   1.561
67048W        W37648  17.805  42.095   2.339
67049W        W37649  10.510  33.687  11.187
67050W        W37650  11.878  29.699  14.283
67051W        W37651  44.255   4.944   0.907
67052W        W37652  31.060  44.482   1.052
67053W        W37653  42.735   0.936  12.243
67054W        W37654   8.977  27.599  12.487
67055W        W37655  15.893   8.702   9.737
67056W        W37656  40.920  21.040   1.195
67057W        W37657  26.263  36.371   4.278
67058W        W37658  14.069  26.009   3.762
67059W        W37659  11.025  25.640   3.659
67060W        W37660   5.370  27.795   3.034
67061W        W37661  27.930  37.964  12.449
67062W        W37662  44.510  39.903   2.129
67063W        W37663  27.590  35.915   3.635
67064W        W37664   8.281  10.291  11.223
67065W        W37665  31.893  34.344  14.244
67066W        W37666  44.980  36.042   3.946
67067W        W37667  24.455   8.112  13.044
67068W        W37668   8.156  18.405  14.294
67069W        W37669  21.263   4.513   1.779
67070W        W37670  28.740  20.188  14.451
67071W        W37671  22.971  14.378   0.789
67072W        W37672  32.370  22.163  12.489
67073W        W37673  34.362  12.349   3.689
67074W        W37674  13.120  25.854  13.539
67075W        W37675  19.605  25.029  11.593
67076W        W37676   1.850  38.455   4.019
67077W        W37677  20.945  24.193  13.804
67078W        W37678  29.754  15.733   2.121
67079W        W37679   8.027  16.028   0.028
67080W        W37680  20.657  31.525   3.716
67081W        W37681  44.628  28.814  10.824
67082W        W37682  25.015   2.184  12.673
67083W        W37683  22.511   8.740   4.105
67084W        W37684  43.880  32.734  12.061
67085W        W37685   8.896  27.887   1.746
67086W        W37686  19.984  31.875  10.788
67087W        W37687  10.844  35.829  12.681
67088W        W37688  31.368  41.885   0.817
67089W        W37689  16.598  29.617  11.370
67090W        W37690   2.458  28.667  12.843
67091W        W37691   2.207  43.308  14.325
67092W        W37692  24.731  23.028  13.885
67093W        W37693  37.040  28.393   4.055
67094W        W37694  44.973  33.454   2.218
67095W        W37695  34.284  11.752   1.770
67096W        W37696  28.034  32.446  14.581
67097W        W37697  37.379  20.366   0.932
67098W        W37698  10.900  28.470   0.384
67099W        W37699  38.562  20.130   2.634
67100W        W37700  38.099  11.556   4.432
67101W        W37701  10.260  43.068  12.438
67102W        W37702   7.421  31.782   3.715
67103W        W37703  29.312  41.796  12.525
67104W        W37704  20.175  27.566  11.685
67105W        W37705  39.993  23.731  11.653
67106W        W37706  38.111  30.403  11.782
67107W        W37707  38.579  38.974  13.485
67108W        W37708  42.931   1.930  10.751
67109W        W37709  14.529  12.312   4.117
67110W        W37710   9.794   3.518  11.074
67111W        W37711  35.604   4.410   0.437
67112W        W37712  40.790  26.720   1.483
67113W        W37713  37.460   8.128  10.905
67114W        W37714  18.298  31.086   0.947
67115W        W37715  35.754   4.988  12.391
67116W        W37716  36.377  37.464   4.671
67117W        W37717  36.292   4.404  11.094
67118W        W37718   3.757  34.032  13.515
67119W        W37719  31.126  39.403   1.411
67120W        W37720  34.971  12.265  10.820
67121W        W37721  16.600  23.088   4.229
67122W        W37722  23.471   3.460  11.627
67123W        W37723  41.100  21.610   3.297
67124W        W37724  36.870  30.885  12.181
67125W        W37725  29.570  26.554   4.277
67126W        W37726   1.334  42.102  13.874
67127W        W37727  26.116   8.828   3.097
67128W        W37728  23.646  29.044   3.413
67129W        W37729  42.775   2.184  13.576
67130W        W37730  23.069  17.898   1.369
67131W        W37731  31.628  29.482   3.380
67132W        W37732   3.344  16.683  12.583
67133W        W37733  13.744  18.707   2.716
67134W        W37734  39.772  41.847   3.668
67135W        W37735  28.116   2.429  14.019
67136W        W37736   7.883  44.495   0.447
67137W        W37737  15.743  28.795  10.986
67138W        W37738  10.145  23.575  10.425
67139W        W37739  25.041  17.771  14.947
67140W        W37740   6.859  22.434  14.422
67141W        W37741  44.671  32.955  14.383
67142W        W37742   0.907   0.999   1.520
67143W        W37743  27.053  28.889  12.484
67144W        W37744  21.868  43.458  13.854
67145W        W37745  19.598  27.779   5.021
67146W        W37746  31.731  30.437  10.048
67147W        W37747  37.357  19.622  11.129
67148W        W37748   8.172  21.670  10.697
67149W        W37749  10.223  41.943   2.808
67150W        W37750  14.141  40.261  10.499
67151W        W37751  41.753  15.895   5.057
67152W        W37752  37.217  42.549  11.268
67153W        W37753   3.481  41.763   3.181
67154W        W37754   7.938   1.104   1.373
67155W        W37755  30.962   9.150  12.996
67156W        W37756   7.523   8.583  11.089
67157W        W37757  17.204   4.229  12.745
67158W        W37758  11.788  42.418  13.519
67159W        W37759  14.237  40.782  14.378
67160W        W37760  10.747  41.360  10.594
67161W        W37761  29.131  10.745   4.657
67162W        W37762  27.529  38.025  13.417
67163W        W37763  32.193  12.528  11.480
67164W        W37764  42.309  35.927  12.321
67165W        W37765  29.864  44.517   1.714
67166W        W37766  24.240  20.448   4.208
67167W        W37767  21.605  22.627   0.059
67168W        W37768  24.130  24.213   1.251
67169W        W37769  37.447  30.461  11.128
67170W        W37770  18.771  39.331  14.500
67171W        W37771  35.124  13.758   3.331
67172W        W37772  22.577  39.503  13.817
67173W        W37773   6.903  42.033   1.842
67174W        W37774  24.515  13.815   3.378
67175W        W37775  43.931  42.255   4.256
67176W        W37776  44.183   1.675   1.795
67177W        W37777  17.839  25.600   0.273
67178W        W37778  17.798  39.539   0.961
67179W        W37779  17.727   9.375  11.090
67180W        W37780  31.459  21.010  10.629
67181W        W37781  40.160  18.981   3.164
67182W        W37782   4.866  12.311  12.105
67183W        W37783  26.346   2.235  11.209
67184W        W37784  28.379   7.738   0.293
67185W        W37785   5.743  10.853  10.415
67186W        W37786  16.433   5.210   4.804
67187W        W37787  27.835   9.838   3.621
67188W        W37788  19.073  13.638  13.039
67189W        W37789  21.847  11.691   3.103
67190W        W37790  36.378  36.159  12.568
67191W        W37791  24.907  11.242  14.084
67192W        W37792   1.949  41.864   2.026
67193W        W37793  40.035  32.215  11.014
67194W        W37794   8.204  12.425  12.462
67195W        W37795  23.078   5.975  14.525
67196W        W37796  34.707   4.261   1.748
67197W        W37797  10.519   1.736  12.068
67198W        W37798  13.290  24.214   0.396
67199W        W37799  36.901  34.785  13.402
67200W        W37800  31.607  14.387  10.653
67201W        W37801  15.662  17.551  13.080
67202W        W37802  25.662  24.442  12.980
67203W        W37803  21.910  21.696  12.591
67204W        W37804  36.039  37.389   1.455
67205W        W37805  42.317   7.782   4.322
67206W        W37806  32.993  31.921   3.783
67207W        W37807  30.630  12.924   3.957
67208W        W37808  13.262  36.520  13.381
67209W        W37809  13.143  34.878  10.881
67210W        W37810   4.941  37.935  14.501
67211W        W37811   5.919  38.922   1.043
67212W        W37812   2.281   7.800  13.526
67213W        W37813  42.616  34.250   4.121
67214W        W37814  31.915  39.943   0.876
67215W        W37815   1.348  29.201   4.571
67216W        W37816   2.788   5.904   0.739
67217W        W37817   8.703   3.511   2.858
67218W        W37818  12.864  11.355   0.971
67219W        W37819  20.791  29.599   3.824
67220W        W37820  13.189  27.911   4.158
67221W        W37821  31.556  28.661   0.529
67222W        W37822   7.875  43.460   3.663
67223W        W37823  23.538  34.871  14.408
67224W        W37824  42.993   6.213  12.906
67225W        W37825   9.517  23.811   4.193
67226W        W37826  19.060   7.734   3.413
67227W        W37827  34.887  40.814  12.043
67228W        W37828  41.523  36.517  11.188
67229W        W37829  42.451   2.926  13.869
67230W        W37830  41.694  16.299  12.906
67231W        W37831  31.094   4.922   0.829
67232W        W37832  27.982  34.829   1.827
67233W        W37833  19.575  19.136  11.596
67234W        W37834  10.898   5.272  13.005
67235W        W37835  22.874  14.377   2.862
67236W        W37836  31.893   2.330   2.122
67237W        W37837  31.386  39.841   2.334
67238W        W37838   9.588  40.299  14.341
67239W        W37839  27.228  32.775   2.591
67240W        W37840   0.212  13.073  14.346
67241W        W37841   9.362  34.269   2.775
67242W        W37842  23.523  25.466  11.354
67243W        W37843  11.885   5.826   0.749
67244W        W37844  34.651  28.985  11.206
67245W        W37845  15.368   6.173   1.768
67246W        W37846  23.423  24.500  14.299
67247W        W37847  23.016  37.770  12.444
67248W        W37848  30.906   0.528  13.432
67249W        W37849   1.005  12.425   1.355
67250W        W37850  28.514  42.251  11.689
67251W        W37851   8.871  19.112   1.354
67252W        W37852  10.735   5.034  14.593
67253W        W37853   9.584  27.883  10.593
67254W        W37854  41.547   1.327   2.401
67255W        W37855  21.576  14.838  11.507
67256W        W37856  39.269  13.830   2.822
67257W        W37857   7.356   9.582   1.678
67258W        W37858  19.089  33.287   0.453
67259W        W37859  29.297   4.905  14.257
67260W        W37860  40.371  20.690  14.334
67261W        W37861  28.271  17.684   3.957
67262W        W37862  18.117  40.721  11.546
67263W        W37863  21.968  31.448   2.286
67264W        W37864   2.934   1.438  13.348
67265W        W37865  38.773   3.304   0.828
67266W        W37866  11.698   2.731  11.373
67267W        W37867  22.751  30.371   0.271
67268W        W37868  44.763  26.383  13.128
67269W        W37869  37.473  25.112   2.215
67270W        W37870  44.027  31.588   4.892
67271W        W37871   3.457   0.986  13.492
67272W        W37872  27.920  41.833   2.123
67273W        W37873  20.540  13.142   3.274
67274W        W37874   1.967   6.852   2.278
67275W        W37875  32.115  42.436   3.063
67276W        W37876  18.931  15.745   0.954
67277W        W37877   1.984  29.144   1.656
67278W        W37878  20.851   6.158   1.234
67279W        W37879  13.769  34.550   3.076
67280W        W37880  43.822  20.633   1.299
67281W        W37881   6.982  14.223  12.831
67282W        W37882  16.032   3.222   2.404
67283W        W37883   6.826   8.136  11.632
67284W        W37884  41.461   5.201  12.619
67285W        W37885   3.457  34.959  13.355
67286W        W37886  39.999  12.908   1.220
67287W        W37887  25.285  34.041  11.091
67288W        W37888  34.104  18.577   3.600
67289W        W37889  43.946   9.323  13.442
67290W        W37890  26.467  25.451  12.885
67291W        W37891  27.525   7.790   1.877
67292W        W37892  11.557  26.778  13.978
67293W        W37893  38.221   0.895  10.536
67294W        W37894  40.576   8.859  14.254
67295W        W37895   7.382  20.011   0.232
67296W        W37896   2.049  24.039  13.584
67297W        W37897  42.341  10.260   2.787
67298W        W37898  22.810   4.318   3.279
67299W        W37899   1.240  44.010   1.773
67300W        W37900  40.348  40.839   2.253
67301W        W37901  41.487  10.232  10.703
67302W        W37902  21.829   5.671   0.531
67303W        W37903  40.041  22.104   4.055
67304W        W37904   2.829   9.417  11.899
67305W        W37905  31.405  10.466   0.466
67306W        W37906  33.977  22.767   1.829
67307W        W37907  25.882  13.106   4.107
67308W        W37908  24.988  29.154  13.887
67309W        W37909   4.107  40.366   2.707
67310W        W37910  44.495   4.228  11.995
67311W        W37911  17.727   8.989  14.999
67312W        W37912  19.135  11.845   4.692
67313W        W37913  24.356  16.658   1.609
67314W        W37914  26.667   2.803   0.473
67315W        W37915  12.966  40.455   3.699
67316W        W37916   6.134  28.134  14.593
67317W        W37917  30.923  20.830  11.426
67318W        W37918   4.365   3.116   2.154
67319W        W37919  30.455   8.033   4.561
67320W        W37920  16.650  22.995  10.415
67321W        W37921  34.905   7.413   3.878
67322W        W37922   4.841  15.942   0.695
67323W        W37923  32.810  32.531   2.818
67324W        W37924  23.122   8.243  11.506
67325W        W37925  33.882  16.860   4.245
67326W        W37926  22.396  37.040  12.891
67327W        W37927  28.612   2.827   1.947
67328W        W37928  12.389   6.108  14.420
67329W        W37929   2.935  27.617   2.757
67330W        W37930  12.463  40.201  14.333
67331W        W37931  13.252  25.941  10.878
67332W        W37932  41.514  17.338  13.023
67333W        W37933  23.518  12.728  14.337
67334W        W37934   2.821  25.239   4.537
67335W        W37935  25.905  31.628  11.720
67336W        W37936  23.917   4.162  13.805
67337W        W37937   8.036   8.105  14.367
67338W        W37938  22.563  19.057   3.355
67339W        W37939  13.915  36.053   1.161
67340W        W37940   8.164   6.623  14.942
67341W        W37941  37.848   2.282   0.723
67342W        W37942   5.910  42.434   3.407
67343W        W37943   5.237   5.009   2.712
67344W        W37944  22.261  21.261  14.887
67345W        W37945  22.221  30.506  10.564
67346W        W37946  43.580  16.713   4.052
67347W        W37947  43.365  26.009   2.906
67348W        W37948  27.011  12.766  14.131
67349W        W37949  43.724  20.298  13.292
67350W        W37950   2.357  11.916   2.943
67351W        W37951  20.593  18.758   4.238
67352W        W37952   4.748  30.913  13.949
67353W        W37953  39.395  24.119  11.979
67354W        W37954  29.853  21.149  14.184
67355W        W37955   3.200  10.932   1.002
67356W        W37956   7.932  19.131   3.245
67357W        W37957   5.856   8.366   0.715
67358W        W37958  25.149  22.220  10.543
67359W        W37959   6.417  10.410  10.735
67360W        W37960  14.966  15.367  10.694
67361W        W37961  30.588   5.249  14.299
67362W        W37962  22.259  37.278  14.878
67363W        W37963  26.105  28.493  12.665
67364W        W37964  29.308  22.776   0.321
67365W        W37965  26.189  28.063   2.746
67366W        W37966  15.320   1.677  13.507
67367W        W37967  23.737   7.471   4.396
67368W        W37968   0.823  34.598   3.632
67369W        W37969  35.515  41.335   1.305
67370W        W37970  25.115  32.005   0.167
67371W        W37971  17.293  19.745  12.993
67372W        W37972  38.857  26.558   2.143
67373W        W37973   6.622  40.802  14.024
67374W        W37974   5.045  38.786   9.830
67375W        W37975  19.436  23.465   0.348
67376W        W37976  44.541  11.809  14.585
67377W        W37977  27.778  21.281  11.954
67378W        W37978  38.131  18.189  14.801
67379W        W37979  28.195  28.534  11.123
67380W        W37980  41.483  15.668   1.410
67381W        W37981  27.437  16.823  13.943
67382W        W37982  23.054  29.919   4.055
67383W        W37983  13.749  34.842   3.605
67384W        W37984   4.193  19.622  14.809
67385W        W37985  17.941  43.030  12.596
67386W        W37986  29.011  33.142   1.756
67387W        W37987  13.701  22.798   4.732
67388W        W37988   5.127  21.390  12.013
67389W        W37989  14.797   4.384  14.021
67390W        W37990  37.537  40.069  12.998
67391W        W37991  14.669   8.779   3.030
67392W        W37992  37.052   6.197  11.992
67393W        W37993   8.273  12.514  14.730
67394W        W37994  10.936  11.342  14.321
67395W        W37995  38.782  40.996   1.999
67396W        W37996  38.676  24.603   4.102
67397W        W37997   0.863   4.864   4.554
67398W        W37998  24.180  25.054   3.776
67399W        W37999  13.676  31.986   3.730
67400W        W38000   8.780  35.303   4.145
67401W        W38001  19.829  19.168   3.869
67402W        W38002  40.473   5.590  14.338
67403W        W38003  20.023  18.398  11.570
67404W        W38004   4.017  27.730   4.101
67405W        W38005  13.288  12.323   0.775
67406W        W38006   3.711   1.833   0.421
67407W        W38007  16.749  32.167  13.575
67408W        W38008  34.963  23.696   3.272
67409W        W38009  22.459  37.158   0.385
67410W        W38010   5.472  14.244  14.230
67411W        W38011  35.128  26.580   2.891
67412W        W38012  17.140  37.452  10.745
67413W        W38013  13.250  34.587   0.405
67414W        W38014  21.017  31.335  14.410
67415W        W38015  39.833  15.039  10.664
67416W        W38016  33.113  29.049  11.209
67417W        W38017  43.227   9.441  11.971
67418W        W38018   0.697  39.980   3.298
67419W        W38019  28.174  13.772   1.261
67420W        W38020  29.938  25.471  12.356
67421W        W38021   3.689  27.695  14.583
67422W        W38022  24.220  20.116   1.751
67423W        W38023   5.779  16.736  12.605
67424W        W38024   6.380  11.020  11.439
67425W        W38025  19.748  16.218  12.524
67426W        W38026  16.504  37.247   2.418
67427W        W38027   2.910  37.092  13.914
67428W        W38028   4.254  37.587  13.100
67429W        W38029  32.926   5.202  14.607
67430W        W38030  36.961  32.124   3.258
67431W        W38031  20.815  11.593  14.777
67432W        W38032  13.226  19.167  13.445
67433W        W38033  16.497  14.131   1.876
67434W        W38034  19.545  29.153   1.789
67435W        W38035  23.724  13.285   3.786
67436W        W38036  18.553  41.996  12.086
67437W        W38037  40.843  12.883   4.403
67438W        W38038   5.402   9.247   0.272
67439W        W38039  14.827  19.631   4.578
67440W        W38040  44.787  44.919   0.036
67441W        W38041  37.507   3.410   0.212
67442W        W38042  22.194  23.180  12.054
67443W        W38043   5.329  27.659  14.799
67444W        W38044  42.026  36.636   2.201
67445W        W38045  28.797  31.241   0.793
67446W        W38046   2.468  19.047   0.267
67447W        W38047  37.554   6.934   4.628
67448W        W38048  27.876  25.017   4.627
67449W        W38049   7.859  40.767   4.110
67450W        W38050  18.169  34.253  14.332
67451W        W38051   7.016  43.479  14.387
67452W        W38052   1.963  23.533  13.868
67453W        W38053  27.102  41.569  12.646
67454W        W38054  33.074  40.758   4.322
67455W        W38055  34.399  34.332  14.488
67456W        W38056   0.702   0.160   3.757
67457W        W38057  34.568   3.370   4.995
67458W        W38058  43.059   3.515   3.841
67459W        W38059  31.926  44.382   1.445
67460W        W38060  18.606  33.235  11.107
67461W        W38061  29.667  10.674   0.001
67462W        W38062  20.240  33.895  13.964
67463W        W38063  19.300   4.001  14.440
67464W        W38064  14.371  40.056   4.561
67465W        W38065   7.951  43.865   4.585
67466W        W38066  10.129  38.380  11.025
67467W        W38067   2.018  17.189  14.518
67468W        W38068   8.392  38.540   4.580
67469W        W38069  20.812  17.088   0.453
67470W        W38070  35.411   0.906  11.970
67471W        W38071  18.700  36.876  11.618
67472W        W38072  43.276   6.246   1.608
67473W        W38073  32.264   2.116  14.806
67474W        W38074  22.520   8.591  12.067
67475W        W38075  30.125  23.031  14.435
67476W        W38076   2.897  21.045  13.970
67477W        W38077   0.036  15.104  13.381
67478W        W38078  10.138   9.811   1.927
67479W        W38079  21.030  23.994   0.927
67480W        W38080  29.215  32.014  13.899
67481W        W38081  14.853   3.715  12.402
67482W        W38082  17.630  30.648  14.969
67483W        W38083  12.901  38.421   1.747
67484W        W38084  44.564   5.918   4.113
67485W        W38085  25.236  14.605   0.379
67486W        W38086   7.815  33.651  14.752
67487W        W38087   8.971  23.765   3.278
67488W        W38088  30.339  15.186   4.453
67489W        W38089  39.990   7.170   3.214
67490W        W38090  23.154  43.191   5.658
67491W        W38091  35.086  20.644  12.272
67492W        W38092  27.910   6.790   3.209
67493W        W38093  42.466  15.980   3.631
67494W        W38094  19.082   6.456   0.459
67495W        W38095  19.654  37.592  12.394
67496W        W38096  40.269  29.452   5.162
67497W        W38097   1.956  44.314  10.836
67498W        W38098   5.852  10.668  13.806
67499W        W38099  39.298  38.114  13.332
67500W        W38100   0.836  42.985  13.037
67501W        W38101   3.512  21.175  14.794
67502W        W38102  15.328  17.608   2.423
67503W        W38103  29.940  40.970  14.613
67504W        W38104  33.441   8.009  13.461
67505W        W38105  43.020  28.113  14.987
67506W        W38106  31.340  33.127   4.186
67507W        W38107  43.379   2.693   2.255
67508W        W38108  21.807   9.347  12.029
67509W        W38109   4.762  32.297   4.753
67510W        W38110  21.158   3.799  14.592
67511W        W38111  42.815  29.202  10.308
67512W        W38112  42.506  26.930   1.916
67513W        W38113  43.848  10.927  12.589
67514W        W38114   7.251  28.072  11.464
67515W        W38115  27.736  22.047  12.949
67516W        W38116  20.529  41.494   4.100
67517W        W38117  35.794  44.002  14.296
67518W        W38118   4.148  38.564   3.808
67519W        W38119  38.406  36.480  12.939
67520W        W38120  15.827  43.414   3.080
67521W        W38121   6.467  29.409  11.270
67522W        W38122  28.747  44.970   3.852
67523W        W38123  31.489  36.716   4.219
67524W        W38124   5.994   7.389   2.088
67525W        W38125  28.669  36.512   1.632
67526W        W38126  21.238  14.425  13.521
67527W        W38127   2.444  44.414   3.393
67528W        W38128  22.985  15.194   0.245
67529W        W38129   2.932  24.031   1.335
67530W        W38130  38.553  26.752   3.197
67531W        W38131  14.715  29.771   4.547
67532W        W38132  24.807  32.123   0.984
67533W        W38133  26.521  23.191  14.896
67534W        W38134  34.339  30.687   4.744
67535W        W38135  20.211  28.901   1.453
67536W        W38136  23.965  28.653  10.712
67537W        W38137   8.414   2.482  11.467
67538W        W38138   0.176   3.046   3.768
67539W        W38139  14.348  41.451  11.975
67540W        W38140  30.551   0.440  11.104
67541W        W38141  34.342  10.856  10.457
67542W        W38142  35.460  22.610   4.917
67543W        W38143  20.320   2.875   0.737
67544W        W38144  27.705  16.108   2.620
67545W        W38145  43.913  16.124   0.068
67546W        W38146   3.109  20.757  11.709
67547W        W38147  21.796  16.232  11.573
67548W        W38148  23.111   6.821  12.574
67549W        W38149  28.410   3.385  12.888
67550W        W38150  29.645  35.993   1.046
67551W        W38151  41.137  36.355  12.553
67552W        W38152   4.670  30.136   2.275
67553W        W38153   3.420  12.379   4.695
67554W        W38154  32.349  30.645   3.632
67555W        W38155  35.158   1.805  13.829
67556W        W38156   3.107  43.554   3.077
67557W        W38157  29.627  42.340  12.026
67558W        W38158  10.357   0.482  14.719
67559W        W38159  16.558  36.555  10.635
67560W        W38160  38.289  16.147  13.324
67561W        W38161  20.788  29.828   0.944
67562W        W38162  19.492  31.657  11.212
67563W        W38163  42.843  29.912   0.818
67564W        W38164  10.018  39.584   2.436
67565W        W38165  23.532  23.397  11.291
67566W        W38166   4.599  20.621  13.015
67567W        W38167  29.949   8.743   4.828
67568W        W38168  22.250  39.819   1.487
67569W        W38169   9.281   2.430  10.845
67570W        W38170  18.689  12.596  12.505
67571W        W38171  34.338  24.372   0.301
67572W        W38172  32.459  34.732  13.711
67573W        W38173  13.565  27.499   1.951
67574W        W38174  26.045  28.618   0.853
67575W        W38175  38.378  28.085  11.040
67576W        W38176  41.331   8.870  10.638
67577W        W38177   1.467  38.325   3.318
67578W        W38178   2.903  26.741   2.752
67579W        W38179  10.188  13.421  13.109
67580W        W38180  32.460   9.570  13.764
67581W        W38181   6.308  30.163  11.672
67582W        W38182   0.874   2.495  11.943
67583W        W38183   3.739  17.767   0.837
67584W        W38184  24.451  10.424   1.895
67585W        W38185   3.595  21.040   4.176
67586W        W38186   0.335   2.265   1.348
67587W        W38187  31.730  11.587  12.433
67588W        W38188  25.322  18.142   4.132
67589W        W38189  17.245  18.020   2.346
67590W        W38190   8.275  14.820  12.241
67591W        W38191  17.856  31.161  12.887
67592W        W38192  29.883  34.377   0.050
67593W        W38193  24.014  26.893  11.626
67594W        W38194  18.772  18.832  11.379
67595W        W38195  40.782  18.379  14.300
67596W        W38196  41.500  26.994   3.909
67597W        W38197   6.741  23.222  11.679
67598W        W38198   8.527  17.824   2.790
67599W        W38199  27.594   3.245  11.119
67600W        W38200  16.053  44.693  12.631
67601W        W38201   9.601  11.340  10.711
67602W        W38202  38.984   6.511  13.347
67603W        W38203  22.638  23.145  10.929
67604W        W38204  22.292  26.502   1.738
67605W        W38205  26.519  42.117   3.997
67606W        W38206   8.215  14.667   3.048
67607W        W38207  24.941  36.536  13.059
67608W        W38208  23.236  18.243  11.360
67609W        W38209  10.549  17.019  10.242
67610W        W38210  15.557   7.519  12.616
67611W        W38211  34.075  14.560  10.824
67612W        W38212  35.900  11.641  12.134
67613W        W38213  11.788  11.897  10.213
67614W        W38214  15.023   9.701   3.151
67615W        W38215  35.587  20.716   3.129
67616W        W38216  13.830  23.670   4.294
67617W        W38217   3.400  20.415  13.609
67618W        W38218  25.060  33.369   4.588
67619W        W38219  42.381   5.355  14.294
67620W        W38220  13.226  28.223   3.040
67621W        W38221  26.225  38.311  14.006
67622W        W38222  39.880   2.848  12.136
67623W        W38223   7.769   0.991   1.868
67624W        W38224  41.618  15.091  11.920
67625W        W38225   4.079  29.586   0.089
67626W        W38226  22.028   4.454  11.985
67627W        W38227  10.261  26.210   0.392
67628W        W38228  17.715  42.005   4.607
67629W        W38229  37.199  13.850  10.484
67630W        W38230  18.042  23.028   1.829
67631W        W38231  40.779  42.510  12.116
67632W        W38232  22.004  12.826  14.413
67633W        W38233  38.246  20.321  11.513
67634W        W38234  28.720  26.206   0.387
67635W        W38235  25.286  37.007   0.214
67636W        W38236  41.122  32.503   2.783
67637W        W38237  32.371  34.159  11.300
67638W        W38238   4.873  16.727   1.209
67639W        W38239  42.319  44.599   0.303
67640W        W38240   5.260  20.963  12.657
67641W        W38241  12.616  23.717  10.831
67642W        W38242  15.754  22.070  10.961
67643W        W38243  17.025  13.050   0.832
67644W        W38244  35.058  24.552  11.114
67645W        W38245   5.891  30.987   1.385
67646W        W38246  12.205   1.499   4.908
67647W        W38247  41.752  43.321  13.035
67648W        W38248  38.797  19.180   3.615
67649W        W38249  18.388  27.635  13.380
67650W        W38250   8.769  42.111   0.729
67651W        W38251  38.375  20.740   1.319
67652W        W38252   3.814  20.333   0.889
67653W        W38253  19.334  37.014   4.104
67654W        W38254  34.632  10.730  13.937
67655W        W38255  40.744  41.874  14.553
67656W        W38256  38.794   3.946  12.999
67657W        W38257  38.570  39.545  14.451
67658W        W38258  26.306  29.006  14.558
67659W        W38259  38.100   7.866   4.072
67660W        W38260   8.194  42.516  14.806
67661W        W38261  26.674  20.187   0.262
67662W        W38262  25.562   2.552   4.152
67663W        W38263  13.409  12.047  12.417
67664W        W38264  22.983  34.650  12.083
67665W        W38265  36.165  33.173   1.762
67666W        W38266  41.430  15.022  13.478
67667W        W38267  22.484   7.285  14.178
67668W        W38268  23.542  29.030  12.493
67669W        W38269  15.283  26.757  14.474
67670W        W38270  40.254  37.406  13.319
67671W        W38271   2.271  42.800  14.336
67672W        W38272  43.701  24.294   4.513
67673W        W38273  39.342  40.813  14.740
67674W        W38274   4.663  12.012   3.397
67675W        W38275  44.621  34.618  13.444
67676W        W38276   7.184  16.693  14.772
67677W        W38277  37.969  22.351  11.936
67678W        W38278  12.898  33.868  13.882
67679W        W38279  37.058   0.734   1.852
67680W        W38280  25.484  36.785   1.370
67681W        W38281  18.152  41.851  14.022
67682W        W38282  35.809   3.594  10.655
67683W        W38283  35.245  34.194  13.013
67684W        W38284  15.563   2.159  14.475
67685W        W38285  33.357  20.561  12.875
67686W        W38286   5.248  42.771  12.957
67687W        W38287  23.156  16.904   2.715
67688W        W38288   1.401   0.817   2.749
67689W        W38289  13.303  22.541  14.881
67690W        W38290  29.600  28.750  13.946
67691W        W38291  44.972  16.310   3.686
67692W        W38292  27.013   9.368   3.860
67693W        W38293   7.205  22.948  14.956
67694W        W38294  15.400  36.953   0.681
67695W        W38295  26.852  11.587  10.721
67696W        W38296  36.035  25.542  13.289
67697W        W38297  41.297  19.079  10.859
67698W        W38298  41.006   3.760   9.674
67699W        W38299  19.001  32.556   1.733
67700W        W38300  41.080  17.149   4.315
67701W        W38301  24.554  18.831   0.530
67702W        W38302  38.356  32.886  11.557
67703W        W38303  43.375  30.015  12.904
67704W        W38304  39.913  33.830   2.286
67705W        W38305   8.376  36.966  11.097
67706W        W38306   0.986  41.304  12.595
67707W        W38307   2.800  12.854  10.790
67708W        W38308  30.642  37.289  13.976
67709W        W38309  10.073  30.487  10.358
67710W        W38310  19.905  12.778  10.180
67711W        W38311  24.160  38.370  13.948
67712W        W38312  23.398  27.544  14.520
67713W        W38313  40.908  12.368   2.610
67714W        W38314  41.759  18.668  14.399
67715W        W38315   9.724  40.099  13.785
67716W        W38316  18.643  27.199  10.323
67717W        W38317  34.779  34.007  13.433
67718W        W38318  22.488  36.910  13.920
67719W        W38319  19.264  11.618   4.195
67720W        W38320  44.337  23.901  12.131
67721W        W38321  22.431  41.456  13.946
67722W        W38322  20.515  14.756  13.112
67723W        W38323   3.322  31.959  12.921
67724W        W38324  22.661   6.934   3.333
67725W        W38325  23.420  24.568  11.483
67726W        W38326  15.672  11.214  13.966
67727W        W38327  42.281  22.518   2.124
67728W        W38328  27.382  15.615  13.342
67729W        W38329  16.759  38.328  13.110
67730W        W38330   8.373  31.020   4.807
67731W        W38331  18.815  12.730  13.983
67732W        W38332  41.412  14.522  12.571
67733W        W38333   8.230  17.660  10.689
67734W        W38334  13.191  39.368  13.479
67735W        W38335  33.843  33.925   1.147
67736W        W38336  17.786  20.706  14.770
67737W        W38337  34.584  35.372  14.452
67738W        W38338  42.005  22.662  12.710
67739W        W38339  12.229   3.231  11.910
67740W        W38340  19.300  14.876   4.962
67741W        W38341  37.213  11.143  13.127
67742W        W38342  16.559   5.466   2.989
67743W        W38343  42.177  13.577  11.124
67744W        W38344   0.398  25.434   2.221
67745W        W38345  10.818  44.708  14.910
67746W        W38346  10.854   9.907   2.231
67747W        W38347  39.289  38.778   3.851
67748W        W38348   1.549  20.121   4.958
67749W        W38349  39.260   9.570   1.960
67750W        W38350  26.857  35.501   3.149
67751W        W38351  18.706  33.215   2.087
67752W        W38352  31.235  24.324  12.202
67753W        W38353  37.717   7.599  14.060
67754W        W38354  28.032   1.391  12.869
67755W        W38355  20.350   1.802  12.082
67756W        W38356  13.183   0.755  12.598
67757W        W38357  18.190  38.397   1.862
67758W        W38358  30.120  10.440  10.453
67759W        W38359  37.415  24.195  14.797
67760W        W38360   4.359  18.668  11.894
67761W        W38361  40.937  18.689  10.790
67762W        W38362   6.264   9.710   4.560
67763W        W38363  18.172  36.042   1.355
67764W        W38364  15.658  21.666   4.063
67765W        W38365  14.845  35.527  13.873
67766W        W38366  17.112  28.764  13.052
67767W        W38367   8.405   0.207  12.602
67768W        W38368  41.361  42.756  14.864
67769W        W38369  19.018  31.663  11.033
67770W        W38370   6.821  14.453  11.142
67771W        W38371   4.344  28.773   1.374
67772W        W38372  40.602  15.943  10.953
67773W        W38373  22.770   5.943   2.593
67774W        W38374  28.860   1.237   0.327
67775W        W38375  32.208  27.193  14.897
67776W        W38376  42.104  35.378   4.381
67777W        W38377  27.043  39.602  14.642
67778W        W38378  36.947  35.870   2.860
67779W        W38379  28.480  30.774  11.186
67780W        W38380  29.958  30.331   2.698
67781W        W38381  44.530  22.931   4.250
67782W        W38382  15.095   6.650   2.390
67783W        W38383  15.812  18.257  14.440
67784W        W38384   2.976  10.492  13.105
67785W        W38385  22.171   2.322  13.851
67786W        W38386  14.089  14.158  12.288
67787W        W38387  36.325  21.170   2.571
67788W        W38388   3.783  41.259  12.601
67789W        W38389  19.755  33.536   2.552
67790W        W38390   6.258  16.101  11.544
67791W        W38391  38.355  43.253   0.518
67792W        W38392   2.102  44.468  12.178
67793W        W38393  37.212  38.450   4.775
67794W        W38394  19.209   5.403  11.546
67795W        W38395   6.332  19.945  14.537
67796W        W38396  16.276  32.392  14.812
67797W        W38397  44.347   0.540   0.474
67798W        W38398  30.479  19.433  12.466
67799W        W38399  14.457  19.850   4.906
67800W        W38400  11.840   5.155  13.486
67801W        W38401  32.378  15.252  14.388
67802W        W38402  38.328   2.565   2.469
67803W        W38403  26.683  11.391   0.995
67804W        W38404  17.648  21.917  11.657
67805W        W38405  29.836  11.713   3.775
67806W        W38406   6.915   2.933  14.844
67807W        W38407  30.107  15.564  13.311
67808W        W38408  22.560  41.004  12.527
67809W        W38409  21.870  26.320  12.597
67810W        W38410   7.631  20.702   2.215
67811W        W38411  23.337   6.308  13.076
67812W        W38412  17.773  43.397   4.337
67813W        W38413  23.402  20.220   4.141
67814W        W38414  10.042  31.879  13.402
67815W        W38415  22.296  37.643  11.307
67816W        W38416  10.651  28.684   4.224
67817W        W38417  26.747  18.557   0.346
67818W        W38418  20.500   3.174   3.173
67819W        W38419  14.830   0.353   3.369
67820W        W38420  15.352   0.833  11.959
67821W        W38421   5.106   4.192   0.896
67822W        W38422  18.840  42.828  14.806
67823W        W38423   4.638  19.152  11.903
67824W        W38424   8.904   6.817   3.694
67825W        W38425  39.329   6.429  14.753
67826W        W38426  32.041   5.784   1.669
67827W        W38427  31.365  30.542   0.480
67828W        W38428  14.609  30.048  10.492
67829W        W38429  29.457  30.615   1.040
67830W        W38430  33.401   7.169   1.896
67831W        W38431  19.866  20.991   1.273
67832W        W38432   6.706  20.069   4.695
67833W        W38433   6.666  32.478  12.917
67834W        W38434  16.749  24.030  14.432
67835W        W38435  13.585  34.046  12.596
67836W        W38436  31.027   0.937  11.989
67837W        W38437  26.454  19.323  11.143
67838W        W38438   0.130  35.857   4.921
67839W        W38439  35.888  43.856   4.324
67840W        W38440   2.824  10.096   1.374
67841W        W38441  33.340  40.860   1.117
67842W        W38442  16.355  22.913   0.282
67843W        W38443  21.552  13.866  10.712
67844W        W38444   1.552  41.303  13.442
67845W        W38445  37.204   0.298  12.860
67846W        W38446  41.854  19.087   1.459
67847W        W38447  18.817  36.394  12.614
67848W        W38448  33.553  37.987   3.165
67849W        W38449   6.968  34.293   3.307
67850W        W38450  25.581  13.135   2.408
67851W        W38451  14.621   3.432   0.446
67852W        W38452  38.897  40.272  11.696
67853W        W38453   5.329   3.229  13.020
67854W        W38454  29.481  43.289   0.258
67855W        W38455  43.318  31.722  10.800
67856W        W38456  38.966  25.240   1.936
67857W        W38457   0.281  22.767  10.564
67858W        W38458   1.887   7.264  11.728
67859W        W38459  23.802   4.795  11.177
67860W        W38460   0.895  38.582   3.666
67861W        W38461  17.836  14.294  11.116
67862W        W38462  23.347   5.710   1.628
67863W        W38463  41.287  10.538   3.871
67864W        W38464  25.850  16.550   3.382
67865W        W38465  35.237   6.530   0.839
67866W        W38466   7.896   3.306   2.490
67867W        W38467  32.089  19.007   1.426
67868W        W38468  39.785  32.012   0.648
67869W        W38469  29.213  17.851  11.376
67870W        W38470  28.101   6.968  14.838
67871W        W38471  26.153   4.400   2.155
67872W        W38472  17.143  12.924  10.279
67873W        W38473  12.585   2.436  11.666
67874W        W38474  17.295  15.923   0.856
67875W        W38475   1.797  14.854  14.368
67876W        W38476  24.204   2.399  13.105
67877W        W38477  18.074  23.016  12.587
67878W        W38478   0.341  41.558   0.706
67879W        W38479  26.716   0.804   0.223
67880W        W38480  16.172   2.753   2.177
67881W        W38481  33.145  33.235   3.109
67882W        W38482  39.143  21.985  14.871
67883W        W38483  37.167  44.477   1.319
67884W        W38484  16.939  29.460   3.241
67885W        W38485   3.751  33.577  12.147
67886W        W38486  19.033   6.578   2.293
67887W        W38487  43.190  13.393  11.275
67888W        W38488  29.964  42.768   4.169
67889W        W38489  19.311  30.003   0.809
67890W        W38490   5.281  25.020   1.895
67891W        W38491   1.009   8.148  10.995
67892W        W38492  37.300  22.711  11.018
67893W        W38493  27.517  29.713   2.659
67894W        W38494  15.763  19.466  10.459
67895W        W38495  35.453  30.522   1.731
67896W        W38496  17.301   1.192   3.648
67897W        W38497  42.898  38.162   3.146
67898W        W38498  41.514  12.450   4.604
67899W        W38499  25.627  35.750   1.435
67900W        W38500  12.115  17.834  12.111
67901W        W38501   4.453   7.201  12.370
67902W        W38502  43.938   2.927   3.194
67903W        W38503  43.304  32.642   2.354
67904W        W38504  24.490  21.222   3.854
67905W        W38505  13.768  12.894   0.041
67906W        W38506   6.623   3.651   1.313
67907W        W38507  23.662  40.266   0.728
67908W        W38508  18.652  27.951  11.539
67909W        W38509  43.589  26.573  10.791
67910W        W38510  44.515  34.487  12.539
67911W        W38511  25.063  24.160  11.117
67912W        W38512  26.237   8.783  12.016
67913W        W38513  22.506  34.423  12.090
67914W        W38514  43.927  31.429   4.417
67915W        W38515  14.060  13.180  11.357
67916W        W38516  20.017  11.814  10.722
67917W        W38517   7.581  10.024   2.954
67918W        W38518  25.109  44.216   3.710
67919W        W38519  22.517  12.688   1.227
67920W        W38520  22.846  32.041  14.482
67921W        W38521  32.825  20.727  11.143
67922W        W38522   7.416   5.161   3.181
67923W        W38523  36.150  37.529  11.249
67924W        W38524   6.973  38.006   1.328
67925W        W38525  17.547  10.639   2.456
67926W        W38526  34.161  27.134  14.239
67927W        W38527  34.882  15.218  14.144
67928W        W38528  23.587  16.815   4.180
67929W        W38529   7.874  11.815   1.814
67930W        W38530   5.572  17.069   2.661
67931W        W38531  29.384  26.904   1.365
67932W        W38532  33.385  42.342  14.444
67933W        W38533  33.649  14.723  13.323
67934W        W38534  13.166  26.998   4.115
67935W        W38535  14.876  27.912   3.304
67936W        W38536  25.511  25.493   4.556
67937W        W38537  43.258  20.467  12.965
67938W        W38538   4.575  17.789  14.009
67939W        W38539   7.905  28.449  11.166
67940W        W38540  34.173  13.107  10.748
67941W        W38541  16.808  17.585   2.840
67942W        W38542  44.041  30.110   0.398
67943W        W38543  26.942  31.321   0.313
67944W        W38544  44.025  37.649   3.006
67945W        W38545  22.156  17.157  11.884
67946W        W38546  13.545  33.880   1.435
67947W        W38547  43.496  30.390   4.617
67948W        W38548   4.238  30.911  10.871
67949W        W38549  23.419  20.079   2.257
67950W        W38550  18.696  19.456   2.711
67951W        W38551  39.099  32.124  12.503
67952W        W38552  16.289   4.551   4.072
67953W        W38553  29.056   1.967   3.399
67954W        W38554  32.031  31.803  13.565
67955W        W38555  19.185  29.951  13.914
67956W        W38556  11.722   9.760   4.288
67957W        W38557  33.583  34.916   4.496
67958W        W38558  37.024  19.506   0.677
67959W        W38559  16.407  33.977   2.774
67960W        W38560   9.290  39.941  13.023
67961W        W38561  39.360   1.684   3.587
67962W        W38562  37.464  44.067   2.432
67963W        W38563   1.665  10.488  13.409
67964W        W38564  27.875  34.315   1.877
67965W        W38565  20.059  14.350  11.617
67966W        W38566  11.088   3.487  11.227
67967W        W38567   1.271  15.769   5.048
67968W        W38568  30.864  21.097   0.983
67969W        W38569  32.156  31.971   3.927
67970W        W38570  12.893  18.992  11.130
67971W        W38571  15.961  31.014  12.158
67972W        W38572   3.611  21.616   5.065
67973W        W38573  33.685  38.046   0.184
67974W        W38574   1.244  44.267   2.826
67975W        W38575  35.901  36.684   3.178
67976W        W38576  30.278  25.700  11.410
67977W        W38577  35.059   8.689   0.394
67978W        W38578  31.454  33.822   0.771
67979W        W38579   9.639  43.614   1.647
67980W        W38580  26.486   0.593   3.850
67981W        W38581  24.101  16.879   0.374
67982W        W38582  33.036  30.764  12.502
67983W        W38583  31.001   1.469   0.022
67984W        W38584  26.172  31.990  12.896
67985W        W38585  20.116  30.459   4.359
67986W        W38586  10.454  26.038  13.768
67987W        W38587  31.003  23.544   3.274
67988W        W38588  22.278  32.441  11.689
67989W        W38589  13.658  17.229   2.176
67990W        W38590  27.527   8.026  10.993
67991W        W38591   4.707   7.143   3.180
67992W        W38592  18.207  14.606   3.755
67993W        W38593  39.840  32.115   3.980
67994W        W38594  32.453   0.965   1.352
67995W        W38595  25.000  33.846   4.793
67996W        W38596  37.298   4.495   2.323
67997W        W38597  28.177   0.840  13.784
67998W        W38598  10.851   4.690  10.654
67999W        W38599  40.954   7.319  13.273
68000W        W38600  10.641  12.741   1.294
68001W        W38601  23.745  15.674   3.338
68002W        W38602  18.014  41.056  12.886
68003W        W38603   1.233  22.593  11.613
68004W        W38604   6.715  21.742  11.017
68005W        W38605  10.294  34.449  10.942
68006W        W38606   6.894  22.447   1.483
68007W        W38607  42.598  42.841   5.019
68008W        W38608  29.054  36.810   3.807
68009W        W38609  43.889  32.424  11.072
68010W        W38610  20.061  16.949  10.281
68011W        W38611   7.889  35.115  13.535
68012W        W38612  42.309  42.521   4.053
68013W        W38613  10.189  35.466  14.495
68014W        W38614   1.351  22.745  12.926
68015W        W38615   3.598  15.837   1.367
68016W        W38616  31.302  41.605   1.287
68017W        W38617  23.967  15.748  13.506
68018W        W38618  35.448  19.787   1.406
68019W        W38619  30.123  32.375  12.849
68020W        W38620  21.131  39.076  12.964
68021W        W38621  24.469  43.399   3.727
68022W        W38622  43.410  24.912   3.186
68023W        W38623  36.157   9.598   3.734
68024W        W38624   1.961   0.231   3.283
68025W        W38625  17.373  15.812  14.723
68026W        W38626  25.055  42.950   1.781
68027W        W38627  31.112  24.709  13.101
68028W        W38628   3.186  27.566  14.614
68029W        W38629  25.795  26.672   0.304
68030W        W38630   2.899  34.440  11.549
68031W        W38631  39.052  36.795   3.767
68032W        W38632   8.562  12.374   3.143
68033W        W38633  34.926  44.738   0.430
68034W        W38634  11.669  12.409   0.393
68035W        W38635  10.369  42.254  14.962
68036W        W38636  31.459  23.299   3.166
68037W        W38637  28.165   7.294   1.519
68038W        W38638  40.217   6.379  10.838
68039W        W38639  13.529  35.892   3.346
68040W        W38640  30.489  24.171   4.102
68041W        W38641  31.436  18.661  13.353
68042W        W38642  15.165   9.186  10.643
68043W        W38643  23.610  40.670  14.397
68044W        W38644  28.571  43.850  10.450
68045W        W38645  14.263   9.760   4.187
68046W        W38646  33.903  20.616   4.909
68047W        W38647  42.897  21.181  14.734
68048W        W38648  30.905  19.148  12.880
68049W        W38649  39.376  24.899   2.800
68050W        W38650  44.332  30.382  13.423
68051W        W38651  19.030  32.261  12.964
68052W        W38652  33.587  32.146   0.243
68053W        W38653   8.757   9.641   0.700
68054W        W38654  36.280   5.360   3.630
68055W        W38655  12.190  15.099  14.869
68056W        W38656  38.099  25.689  14.541
68057W        W38657  17.590  33.163  14.974
68058W        W38658   0.526  44.497   0.710
68059W        W38659   9.324  35.068   3.280
68060W        W38660  42.124  20.574  12.867
68061W        W38661  22.732  26.780   1.765
68062W        W38662  26.709   1.453   4.692
68063W        W38663   8.715  34.673  11.192
68064W        W38664   7.577  11.408   1.906
68065W        W38665  32.937  17.153  12.119
68066W        W38666  34.854  35.447   3.749
68067W        W38667  43.017  15.137   0.786
68068W        W38668  15.315   0.299   5.148
68069W        W38669  35.882  38.098   2.975
68070W        W38670  41.092  19.186  14.887
68071W        W38671  14.749   5.620  12.569
68072W        W38672   1.687  33.087   4.241
68073W        W38673  30.620  39.406  14.994
68074W        W38674  21.801  15.563  11.033
68075W        W38675  28.540  37.392   0.535
68076W        W38676  14.648  30.562  11.191
68077W        W38677  42.896  18.408   4.597
68078W        W38678   2.948  29.852  11.126
68079W        W38679  12.223   9.220   2.630
68080W        W38680   2.795  11.255   0.430
68081W        W38681  22.278  43.788  14.484
68082W        W38682  21.090  39.432  13.427
68083W        W38683  36.834   9.686  11.573
68084W        W38684  33.399   8.855  10.775
68085W        W38685   8.776  38.999   3.983
68086W        W38686  41.836   9.498   4.312
68087W        W38687  22.817  20.693   4.586
68088W        W38688  26.290  34.865   2.903
68089W        W38689   6.626   3.710  14.529
68090W        W38690   0.788  17.649   3.724
68091W        W38691   7.137  43.246  12.971
68092W        W38692  15.927  25.741   4.480
68093W        W38693  36.441  20.037  10.960
68094W        W38694  36.153   8.893   1.835
68095W        W38695  29.192  18.655  11.659
68096W        W38696   1.314  40.932  11.723
68097W        W38697   9.225   5.324   0.275
68098W        W38698  13.352   5.416  14.767
68099W        W38699  30.027  43.260   4.114
68100W        W38700  43.575  34.727   0.826
68101W        W38701  40.487   7.243   2.645
68102W        W38702   8.363   1.973  11.475
68103W        W38703  32.626  23.450  10.522
68104W        W38704  17.680  16.343   2.643
68105W        W38705  32.361  42.770  11.604
68106W        W38706   8.436   3.707   1.710
68107W        W38707  12.750  23.098  14.931
68108W        W38708   2.170  42.689  12.949
68109W        W38709  35.449  12.374   4.345
68110W        W38710  19.919  28.629   3.587
68111W        W38711  37.609  42.404  14.831
68112W        W38712  24.129  22.639   1.894
68113W        W38713  35.521  22.364   2.238
68114W        W38714  13.018  16.116  13.744
68115W        W38715  32.461  17.249   1.442
68116W        W38716  25.628  10.850   3.748
68117W        W38717  12.056   6.524  14.327
68118W        W38718  43.894  27.638   4.502
68119W        W38719  17.989   2.454   3.618
68120W        W38720  11.833  38.602  14.911
68121W        W38721   0.015  36.494   2.170
68122W        W38722  44.155  40.839  11.534
68123W        W38723  32.874  22.086  13.340
68124W        W38724  10.302  36.972  13.451
68125W        W38725   4.529  31.868  13.700
68126W        W38726  14.641  23.259   1.261
68127W        W38727  20.578   4.422   0.823
68128W        W38728  39.090  33.414  13.096
68129W        W38729  27.148  32.437  10.567
68130W        W38730  30.467  38.763   4.137
68131W        W38731  16.940  17.777   3.848
68132W        W38732  15.725  38.181   0.918
68133W        W38733  13.710  14.421   0.234
68134W        W38734   3.948  38.351   1.693
68135W        W38735   1.845  40.027  14.911
68136W        W38736   4.557  30.451   0.962
68137W        W38737  38.473   5.199   0.399
68138W        W38738  39.319   2.632   3.602
68139W        W38739  16.410  23.585   4.218
68140W        W38740  35.532   3.351   0.311
68141W        W38741  31.062  26.901   1.906
68142W        W38742   7.929   0.233  11.137
68143W        W38743   7.181  34.117   1.952
68144W        W38744  11.776  14.439  12.844
68145W        W38745   4.228  31.495   3.667
68146W        W38746  30.642  17.247  14.841
68147W        W38747  29.959   3.828  14.832
68148W        W38748   6.046   6.123  13.917
68149W        W38749  41.371  39.285   0.949
68150W        W38750   6.739  30.922   4.377
68151W        W38751  39.707   9.106  12.119
68152W        W38752   0.528  39.413  13.652
68153W        W38753  14.895  35.891   2.701
68154W        W38754  18.788  36.982   0.482
68155W        W38755  27.144   0.319   2.713
68156W        W38756   9.065   5.726  14.532
68157W        W38757  19.170  42.013   4.348
68158W        W38758  16.239  14.646  12.353
68159W        W38759  32.109  41.956   2.741
68160W        W38760   7.730  24.096   4.913
68161W        W38761  14.729  39.337  14.277
68162W        W38762  19.751  22.625  12.564
68163W        W38763  42.996  35.516  13.344
68164W        W38764   1.825  43.030  12.775
68165W        W38765   2.133  26.273  13.880
68166W        W38766  17.934  17.115   3.875
68167W        W38767  10.724  43.349   4.424
68168W        W38768  35.296  40.310   1.985
68169W        W38769  41.432  43.827  14.208
68170W        W38770  22.492  17.697   0.051
68171W        W38771  15.893   9.147   1.333
68172W        W38772   7.905  31.284   0.739
68173W        W38773  36.621  33.942  11.203
68174W        W38774  27.065  40.417  12.387
68175W        W38775  34.527  22.765   5.074
68176W        W38776  43.449  27.929   0.833
68177W        W38777  33.049  24.226  14.451
68178W        W38778   5.890  32.591   0.730
68179W        W38779  40.770   1.383  12.553
68180W        W38780  28.220  35.874  14.015
68181W        W38781  16.357  25.034  11.252
68182W        W38782   2.974  44.488   3.671
68183W        W38783  18.227  43.254   0.485
68184W        W38784   0.496  33.085   0.049
68185W        W38785  39.816  11.836  14.453
68186W        W38786   7.463  35.886  10.433
68187W        W38787   4.333   0.244   1.686
68188W        W38788  25.981  42.473  11.162
68189W        W38789  13.724  37.838   2.772
68190W        W38790  24.939  15.684   3.673
68191W        W38791  42.995  38.999  14.560
68192W        W38792  15.001  26.430  13.065
68193W        W38793  23.975  36.021   1.837
68194W        W38794   9.336  14.556  10.604
68195W        W38795  44.379  43.950  10.726
68196W        W38796  29.227  22.042  12.193
68197W        W38797  21.967  44.509  13.825
68198W        W38798  33.112   1.193   3.289
68199W        W38799  18.803  27.875  14.544
68200W        W38800  37.151  17.518   1.360
68201W        W38801  21.996  31.858  10.422
68202W        W38802  17.035  24.956  14.964
68203W        W38803  25.522  31.173  10.593
68204W        W38804  41.427  26.190   0.230
68205W        W38805  22.555  37.413   3.133
68206W        W38806   5.418  30.953  11.426
68207W        W38807  27.627  19.744   0.221
68208W        W38808  44.004  43.011   3.168
68209W        W38809  13.742  29.571   0.764
68210W        W38810  21.371  32.550   3.866
68211W        W38811  38.415  11.053   1.841
68212W        W38812   6.495   5.196   3.146
68213W        W38813  42.095  12.877  12.625
68214W        W38814  43.282  26.012  11.709
68215W        W38815  18.804  14.438  13.570
68216W        W38816  29.497  39.666  12.988
68217W        W38817  29.181  31.205  12.483
68218W        W38818  40.494  26.180  13.176
68219W        W38819  27.456  17.166   1.384
68220W        W38820   4.029  42.162  13.537
68221W        W38821  30.948   8.844   0.358
68222W        W38822  31.434   5.395   1.419
68223W        W38823  26.102  16.641   0.923
68224W        W38824  28.434  14.690  13.143
68225W        W38825  11.352  39.353  13.521
68226W        W38826  10.109   4.257  14.894
68227W        W38827  24.071  39.529  11.154
68228W        W38828  18.117  27.367   2.137
68229W        W38829   9.356  27.489   1.150
68230W        W38830   7.511   0.243   1.541
68231W        W38831  15.099  40.369  11.927
68232W        W38832  20.324  15.898  14.891
68233W        W38833  31.383   0.997  12.362
68234W        W38834  32.671  21.234   2.815
68235W        W38835   1.742  28.583  13.484
68236W        W38836  39.543  38.565   2.890
68237W        W38837  20.455  41.633  12.521
68238W        W38838   3.215  39.446   4.140
68239W        W38839  41.789  27.563  11.560
68240W        W38840   1.486  37.212  14.875
68241W        W38841  32.772  40.910   4.745
68242W        W38842  40.335   7.491  12.531
68243W        W38843  13.713   3.149  11.747
68244W        W38844  12.032   1.472  12.387
68245W        W38845  17.095   3.890  10.532
68246W        W38846  33.017  42.555   4.998
68247W        W38847  24.208  12.313   1.842
68248W        W38848  41.176  21.769   5.125
68249W        W38849  17.675  30.667  13.019
68250W        W38850  22.537   7.757   4.110
68251W        W38851  16.726   7.415   0.002
68252W        W38852   1.684  15.837  14.331
68253W        W38853  33.355  26.500   0.298
68254W        W38854  40.066  33.249   3.215
68255W        W38855  43.796   4.446   0.138
68256W        W38856   5.784  41.233   2.731
68257W        W38857  28.156  13.838   0.382
68258W        W38858  19.306  37.114  14.014
68259W        W38859  37.841  37.997   1.863
68260W        W38860  34.141  22.566   1.370
68261W        W38861  22.734  42.349   1.274
68262W        W38862  15.436  33.554   0.806
68263W        W38863  31.889   5.390   1.134
68264W        W38864  28.221  25.194   3.324
68265W        W38865   4.468  40.985  11.468
68266W        W38866  13.691  35.428  11.492
68267W        W38867  12.880  39.934   0.768
68268W        W38868  33.636  41.377  10.096
68269W        W38869  19.845  12.306   0.361
68270W        W38870   9.693   9.345   5.062
68271W        W38871  14.282  37.129  10.655
68272W        W38872   9.773   3.906  11.410
68273W        W38873   3.979  39.415   4.664
68274W        W38874  10.400  16.335  14.351
68275W        W38875   8.654   5.805  13.722
68276W        W38876  13.267  13.753   3.770
68277W        W38877  43.113  38.064   3.594
68278W        W38878  39.471  12.115   1.306
68279W        W38879  23.239  23.505  14.680
68280W        W38880  40.850  27.075  11.442
68281W        W38881  38.424  17.606   0.156
68282W        W38882   4.106  40.979   0.671
68283W        W38883  18.151  13.178   0.251
68284W        W38884   9.845   8.676  11.533
68285W        W38885  33.980  33.926   3.682
68286W        W38886  15.743  26.390   0.275
68287W        W38887  28.491  35.704   1.535
68288W        W38888  28.157  42.393   1.989
68289W        W38889  37.500  34.972  13.325
68290W        W38890   8.814   5.962  10.337
68291W        W38891  32.681  41.434   1.646
68292W        W38892  41.571   7.327   3.949
68293W        W38893   1.757   7.674   1.810
68294W        W38894  33.410  43.930   3.689
68295W        W38895  14.595  44.219  12.162
68296W        W38896  43.339   3.337  14.207
68297W        W38897  27.255  25.578   2.802
68298W        W38898  42.833   5.908   4.901
68299W        W38899  21.334  22.572   0.520
68300W        W38900  31.677   7.604  13.404
68301W        W38901  43.956  19.550   2.256
68302W        W38902  27.347  32.543   0.750
68303W        W38903   5.288  33.063   3.936
68304W        W38904  11.274   3.717   4.096
68305W        W38905   1.585   8.428  11.668
68306W        W38906  42.346  22.024  13.235
68307W        W38907  20.742  17.221  12.586
68308W        W38908  19.724  31.799   4.205
68309W        W38909  10.339  39.899   2.168
68310W        W38910  23.507  38.593  10.829
68311W        W38911  35.977  37.877   1.990
68312W        W38912   7.656  40.805   3.175
68313W        W38913  11.221  39.770   4.150
68314W        W38914  22.962  18.652   0.576
68315W        W38915  35.826  32.749   1.726
68316W        W38916  37.483  35.344   0.592
68317W        W38917   5.955  13.070   1.988
68318W        W38918  29.946  37.837  14.740
68319W        W38919  13.378  10.216  13.099
68320W        W38920  27.360  20.146  14.493
68321W        W38921   2.795  27.655   2.260
68322W        W38922   4.789  18.260  13.990
68323W        W38923  13.000  19.219   0.855
68324W        W38924   1.781  40.448  11.106
68325W        W38925   4.843  17.250   0.268
68326W        W38926   3.445  25.118  11.303
68327W        W38927  32.162  29.145  14.440
68328W        W38928   4.945  19.763   0.342
68329W        W38929  20.276  40.943  12.340
68330W        W38930  26.980  10.365  12.972
68331W        W38931  40.182  41.973   1.773
68332W        W38932  41.925  30.836   2.265
68333W        W38933   8.276  12.105  13.825
68334W        W38934  42.430  31.844  13.420
68335W        W38935   6.798  20.853   4.182
68336W        W38936  16.296   1.511  12.027
68337W        W38937  16.647   7.130  13.448
68338W        W38938  24.137  32.886  11.508
68339W        W38939  18.060  36.705   2.596
68340W        W38940  17.170  27.161   1.729
68341W        W38941  33.617  37.054   1.481
68342W        W38942  34.423  13.113   1.545
68343W        W38943   8.042  10.036   4.266
68344W        W38944  31.362  36.035   4.933
68345W        W38945  30.106  15.045  13.554
68346W        W38946  15.361  23.943   2.745
68347W        W38947  11.960  14.277  10.948
68348W        W38948  44.042   7.754  14.521
68349W        W38949  14.664  29.948  12.815
68350W        W38950  38.436  11.165   4.458
68351W        W38951  36.801  40.397   1.852
68352W        W38952  22.126  20.016   2.366
68353W        W38953   7.853  32.927   1.773
68354W        W38954  32.546  26.886   3.184
68355W        W38955   8.863   1.037   4.640
68356W        W38956  39.871  38.299  10.607
68357W        W38957   7.587  14.483  13.860
68358W        W38958  22.773  38.087  11.918
68359W        W38959  42.325  19.129  11.656
68360W        W38960   5.611  24.464  12.012
68361W        W38961   4.304  22.004  11.988
68362W        W38962  40.545  14.506   2.665
68363W        W38963  28.425  39.307  13.893
68364W        W38964  33.685  43.492   3.836
68365W        W38965   4.979  21.036  13.783
68366W        W38966  38.662  16.476  13.494
68367W        W38967   9.420  26.579   4.498
68368W        W38968  29.062  35.085  10.988
68369W        W38969  30.112   7.401  11.897
68370W        W38970  15.762   2.702  14.316
68371W        W38971  36.189  14.672  14.249
68372W        W38972  22.645  35.268  11.438
68373W        W38973  19.724  36.770  11.568
68374W        W38974  11.025  22.556   4.480
68375W        W38975  15.273   4.159   1.981
68376W        W38976  32.973  44.394  13.361
68377W        W38977  20.064  32.348  11.590
68378W        W38978  33.977  36.431  12.582
68379W        W38979  40.064  38.524   1.611
68380W        W38980  15.858   9.074   4.063
68381W        W38981  13.301  32.706   0.031
68382W        W38982  31.680  43.754   4.065
68383W        W38983  13.135  30.206  11.523
68384W        W38984  38.112  38.785   2.860
68385W        W38985  22.061  41.508  13.203
68386W        W38986  19.575  42.069   1.458
68387W        W38987   5.485   7.254   2.173
68388W        W38988   0.541  36.558   4.368
68389W        W38989  17.573   1.508   2.732
68390W        W38990  36.622  24.607  14.056
68391W        W38991  30.924   3.792  10.671
68392W        W38992  17.766  24.019   1.499
68393W        W38993  31.836  27.958  13.927
68394W        W38994  30.460  21.755  13.461
68395W        W38995  19.775  22.630   0.100
68396W        W38996   8.985  33.384  13.256
68397W        W38997  11.703  26.926  11.601
68398W        W38998   8.896   8.182  12.136
68399W        W38999   5.927  12.759   0.867
68400W        W39000  34.453   6.635  10.562
68401W        W39001  34.472  26.262   4.083
68402W        W39002  41.412  13.228   4.093
68403W        W39003  21.863  17.534   2.098
68404W        W39004  41.879  39.688  10.375
68405W        W39005  35.013  36.808  11.680
68406W        W39006  38.423  38.672  11.180
68407W        W39007  13.381  26.364   0.315
68408W        W39008  29.102  38.562  12.200
68409W        W39009  39.895  22.496  14.833
68410W        W39010  35.167  20.019   0.235
68411W        W39011  31.556   3.398   3.489
68412W        W39012  11.448  35.594   4.305
68413W        W39013  24.644  38.563   4.163
68414W        W39014  34.767  18.466  14.358
68415W        W39015  23.286  36.848   1.551
68416W        W39016  32.169  19.172   4.484
68417W        W39017  29.865  18.252  12.924
68418W        W39018   4.348  10.225  13.822
68419W        W39019  23.267  18.415   1.687
68420W        W39020   6.244  20.187  13.180
68421W        W39021  32.029   5.979  10.239
68422W        W39022   8.887  41.137  14.842
68423W        W39023  32.473  39.788   4.143
68424W        W39024  30.930   8.618   1.240
68425W        W39025   3.698  20.484  11.624
68426W        W39026  22.634  25.675  11.926
68427W        W39027  16.586  32.650  14.477
68428W        W39028  11.729  28.732   5.009
68429W        W39029   6.926  19.881   2.851
68430W        W39030  30.525  32.646  12.567
68431W        W39031  30.589   9.755  11.935
68432W        W39032  23.153   1.770   3.098
68433W        W39033  28.635  14.974   0.608
68434W        W39034  36.048  14.906  12.838
68435W        W39035  16.446  27.052   2.810
68436W        W39036   6.645  11.208   0.348
68437W        W39037  19.725  39.053  14.551
68438W        W39038  44.277  20.851  10.653
68439W        W39039   0.409  22.024  12.881
68440W        W39040  29.526  40.938   1.250
68441W        W39041  39.291  38.372   4.171
68442W        W39042  14.779  11.796  11.768
68443W        W39043  42.509   3.864  10.304
68444W        W39044   4.917  19.962  11.311
68445W        W39045  22.798  39.900   2.763
68446W        W39046  26.000  21.493   1.335
68447W        W39047   8.966  23.200   4.004
68448W        W39048  33.371  23.991   2.172
68449W        W39049  29.192  29.989  11.226
68450W        W39050  29.637  34.405  14.280
68451W        W39051  34.510  22.301   0.309
68452W        W39052  27.940  26.174  14.776
68453W        W39053  40.906  18.514   1.455
68454W        W39054  28.213   3.126   4.503
68455W        W39055   9.638  34.915  14.985
68456W        W39056   2.950   5.237  12.109
68457W        W39057   6.607  38.975   3.712
68458W        W39058  15.874   4.796  10.646
68459W        W39059  29.046  32.577   0.429
68460W        W39060  36.422  12.777  10.950
68461W        W39061  44.537   8.705   1.307
68462W        W39062  43.014  20.700  13.744
68463W        W39063  16.714  23.534  11.149
68464W        W39064   6.086  38.934   3.829
68465W        W39065  16.847  16.534   0.372
68466W        W39066   7.694  15.018  14.128
68467W        W39067  33.029  33.962   4.119
68468W        W39068   0.518   0.018   0.741
68469W        W39069  29.394  14.250   4.998
68470W        W39070  24.840  42.330  12.113
68471W        W39071  26.621  44.517  13.582
68472W        W39072  28.970  34.910   2.097
68473W        W39073  24.447  11.040   4.250
68474W        W39074  38.205  43.145  12.106
68475W        W39075  40.416  12.488   2.525
68476W        W39076  41.474  42.835   4.597
68477W        W39077  36.766  10.302   2.312
68478W        W39078  44.778  22.536  14.932
68479W        W39079  21.558  36.610   3.342
68480W        W39080  17.101   0.865  12.851
68481W        W39081  36.433  31.539   4.557
68482W        W39082  22.686  19.313   4.680
68483W        W39083  26.247  25.534   4.354
68484W        W39084  18.065  41.477  12.557
68485W        W39085  43.942   7.970   1.427
68486W        W39086  16.652   2.233  11.232
68487W        W39087  16.723  18.457   2.553
68488W        W39088  40.983   8.740  14.577
68489W        W39089   0.470  22.351   2.880
68490W        W39090  13.825  19.482  11.143
68491W        W39091  15.741  12.385   5.327
68492W        W39092  13.544  34.592   2.602
68493W        W39093  30.480  37.258   0.756
68494W        W39094  33.917   0.724  11.669
68495W        W39095  36.830  29.014   4.521
68496W        W39096  39.554  17.336  13.464
68497W        W39097  43.263   4.368   2.840
68498W        W39098  20.842  18.743   2.836
68499W        W39099  33.555  14.327  14.741
68500W        W39100   2.529  20.817  14.823
68501W        W39101  10.750   3.203   1.445
68502W        W39102   8.359   7.793   0.218
68503W        W39103  32.987  17.160   4.001
68504W        W39104   4.374  12.723  10.913
68505W        W39105  17.060  14.041  14.102
68506W        W39106  33.455  34.547   4.161
68507W        W39107  20.053   7.217  12.670
68508W        W39108  22.343   5.714  13.430
68509W        W39109  28.887   1.906  12.928
68510W        W39110  12.723  20.116   3.697
68511W        W39111  27.726  41.313   0.235
68512W        W39112   9.267  13.269  14.504
68513W        W39113   8.216  39.718  12.548
68514W        W39114  29.969  10.487   0.401
68515W        W39115  40.519  16.837  11.929
68516W        W39116  14.612  39.759   0.101
68517W        W39117  43.919  33.395   2.281
68518W        W39118  24.300   0.976   3.681
68519W        W39119  23.725   5.892   1.233
68520W        W39120  30.341  39.790   2.250
68521W        W39121  41.330  18.923   0.300
68522W        W39122  11.284  42.074   3.903
68523W        W39123  30.376  39.070   4.546
68524W        W39124  30.975  10.723  13.065
68525W        W39125  36.944  35.771   3.373
68526W        W39126  28.533  13.410  13.822
68527W        W39127  31.194  23.072   3.567
68528W        W39128  28.651  12.955   1.792
68529W        W39129  35.246  38.781  14.505
68530W        W39130  15.576  15.097  14.841
68531W        W39131  15.192   3.335  14.238
68532W        W39132  34.903  20.588   4.530
68533W        W39133  24.104  11.142   4.662
68534W        W39134  19.570  23.512  11.605
68535W        W39135   3.000  41.344   3.072
68536W        W39136   7.949  41.803  12.964
68537W        W39137  29.004  12.574  13.299
68538W        W39138  14.763  32.699   0.920
68539W        W39139  17.863  24.493   1.290
68540W        W39140   0.113  27.230   2.536
68541W        W39141   7.037   8.147  14.440
68542W        W39142  15.211  16.869  12.423
68543W        W39143  40.320  36.504   0.352
68544W        W39144  19.058  17.692   0.231
68545W        W39145  21.912  36.733  12.014
68546W        W39146  21.912  15.534   2.143
68547W        W39147  43.501  14.428  14.719
68548W        W39148  39.471   8.568   1.915
68549W        W39149   9.480  42.943  14.728
68550W        W39150  15.367  16.032  14.982
68551W        W39151   6.721  32.922   0.329
68552W        W39152  42.168  34.115  14.390
68553W        W39153  43.000   6.684  14.955
68554W        W39154   6.814  23.751   1.244
68555W        W39155  35.494   7.406   0.363
68556W        W39156  22.610  28.680   2.484
68557W        W39157  43.728  26.611  12.659
68558W        W39158  14.881  36.436  14.826
68559W        W39159  31.183  43.956   1.177
68560W        W39160  31.281  33.098  10.652
68561W        W39161  16.601  23.085  10.916
68562W        W39162  17.963  20.347   1.582
68563W        W39163  32.556   7.578   2.782
68564W        W39164  44.059   8.282  14.859
68565W        W39165  35.057  31.524   3.899
68566W        W39166  18.718   1.986   1.611
68567W        W39167   1.341  12.657   2.686
68568W        W39168  37.775  34.981  11.854
68569W        W39169  34.084  22.427  13.107
68570W        W39170  10.151  22.469  14.025
68571W        W39171  26.020  29.300   3.324
68572W        W39172  29.423   9.058   1.997
68573W        W39173  27.399  28.572  13.899
68574W        W39174  40.060  41.259  12.000
68575W        W39175  38.700  14.926   4.149
68576W        W39176   4.972  19.155  10.950
68577W        W39177  37.268   7.618  14.951
68578W        W39178  41.789  35.730   4.201
68579W        W39179  10.342  43.403   0.887
68580W        W39180  34.028  37.026  13.417
68581W        W39181   0.247  41.486  13.961
68582W        W39182  38.768  19.846   0.527
68583W        W39183   7.676   8.710   1.882
68584W        W39184  36.530  24.175  14.914
68585W        W39185  39.893  37.569  14.978
68586W        W39186  40.345  24.092  12.368
68587W        W39187   9.923  22.736  10.532
68588W        W39188  22.919  20.705   2.383
68589W        W39189  28.929  24.544   3.841
68590W        W39190   0.455  26.849   2.310
68591W        W39191  42.827  19.962  12.385
68592W        W39192  34.172  36.070   4.048
68593W        W39193   0.661  22.919  14.987
68594W        W39194  23.664  33.952  13.073
68595W        W39195  18.388   3.881   2.282
68596W        W39196  31.132   4.298   3.294
68597W        W39197  17.142  15.301   2.049
68598W        W39198  18.765  32.438  13.913
68599W        W39199  11.225  40.991   0.007
68600W        W39200  44.314   2.405   0.717
68601W        W39201  42.524  42.916  12.952
68602W        W39202  42.932   9.819   1.093
68603W        W39203  20.784  44.725  11.519
68604W        W39204   9.817  25.120  12.892
68605W        W39205  24.381  41.270  13.827
68606W        W39206   6.382  19.459  13.463
68607W        W39207  28.209  13.885  10.126
68608W        W39208  13.551   2.905  10.807
68609W        W39209  23.578   1.460  10.994
68610W        W39210  16.941  33.019  14.438
68611W        W39211  10.882  35.986   0.381
68612W        W39212  38.377  40.489  11.566
68613W        W39213  33.321  18.270  13.894
68614W        W39214   0.300  37.738  14.424
68615W        W39215  10.381  44.807   3.271
68616W        W39216  34.337  10.088   3.213
68617W        W39217  30.163  26.590  11.653
68618W        W39218  13.683  33.410   3.637
68619W        W39219   8.247   4.077  10.662
68620W        W39220  12.524   4.172  12.035
68621W        W39221  33.638  30.141   0.414
68622W        W39222  26.770   9.648   2.901
68623W        W39223  25.131  44.494  14.120
68624W        W39224  30.331  17.680  14.870
68625W        W39225  21.205  13.265   5.366
68626W        W39226   2.360  40.033  12.928
68627W        W39227  43.533  27.989  10.610
68628W        W39228   8.863  44.027  11.633
68629W        W39229   7.232  18.747  12.003
68630W        W39230  27.918   4.433  13.882
68631W        W39231   5.235  31.251  12.854
68632W        W39232   4.321   3.488   0.800
68633W        W39233  42.868  31.927  10.993
68634W        W39234  33.094   6.198  14.365
68635W        W39235  23.596  16.887  12.129
68636W        W39236  43.820  20.247  11.596
68637W        W39237   0.954  35.994  14.556
68638W        W39238   2.357  36.160   2.230
68639W        W39239  34.858   6.317  10.695
68640W        W39240  26.632  26.062   3.285
68641W        W39241  16.973  44.900   4.654
68642W        W39242   3.349  36.543   0.695
68643W        W39243  10.435  16.715  11.559
68644W        W39244   8.703  11.624  13.489
68645W        W39245  38.849  33.517  11.174
68646W        W39246  14.071   9.911   0.905
68647W        W39247  30.211  36.535   4.669
68648W        W39248  35.153  33.246   0.366
68649W        W39249   3.044  33.532   3.946
68650W        W39250  27.577  33.209   1.727
68651W        W39251  41.418  24.144   2.352
68652W        W39252  24.173  42.112   4.167
68653W        W39253  27.269  44.264  14.928
68654W        W39254  22.685  15.760  14.145
68655W        W39255  12.804  30.460   0.575
68656W        W39256  36.431  15.575   4.560
68657W        W39257  13.488   3.069  11.279
68658W        W39258   3.307   9.570  11.674
68659W        W39259  35.349  21.147   4.049
68660W        W39260  28.718  24.862   1.183
68661W        W39261  29.718  11.894   2.780
68662W        W39262   6.347   3.452   0.811
68663W        W39263  41.890  38.133  12.383
68664W        W39264  25.098  27.066  12.518
68665W        W39265  17.038   0.796   1.853
68666W        W39266  25.419  18.266   1.234
68667W        W39267  32.167   7.214   1.268
68668W        W39268   3.128  30.221  11.451
68669W        W39269  12.925  37.194  14.338
68670W        W39270  32.369   5.153  12.539
68671W        W39271   7.532   2.001   3.886
68672W        W39272   5.947  14.150   4.080
68673W        W39273  37.146  38.470   2.422
68674W        W39274  40.460  42.086   0.390
68675W        W39275  16.440   1.156  13.359
68676W        W39276  17.700  37.826  12.902
68677W        W39277  42.015  31.893  13.861
68678W        W39278  32.541  27.170  13.173
68679W        W39279   3.429  19.987  13.331
68680W        W39280  18.457  27.170   3.557
68681W        W39281   7.950  24.086  12.094
68682W        W39282  21.327  43.743   5.073
68683W        W39283  43.410  36.368   0.048
68684W        W39284  41.326   8.266   1.852
68685W        W39285  18.335   3.779   1.284
68686W        W39286   8.892  16.475  13.356
68687W        W39287   7.979  18.331  11.343
68688W        W39288  37.699  40.418  10.999
68689W        W39289  13.396   1.813   1.236
68690W        W39290   6.625  24.244   1.161
68691W        W39291  30.378  34.662  13.367
68692W        W39292  39.539  13.743   3.260
68693W        W39293   3.724   3.606  12.180
68694W        W39294  22.575  24.206  10.719
68695W        W39295   0.498  44.471   2.358
68696W        W39296  19.512  13.601  14.503
68697W        W39297  24.094  22.757   0.484
68698W        W39298  40.013   8.930  10.991
68699W        W39299  24.267  40.567  12.926
68700W        W39300  37.341  20.590   4.880
68701W        W39301  42.973  12.053  14.795
68702W        W39302  37.939  42.260  12.990
68703W        W39303  18.762  13.168   4.915
68704W        W39304  14.146  12.910   0.649
68705W        W39305  33.434  44.172  11.611
68706W        W39306  43.039   7.206  13.987
68707W        W39307  24.776   1.886   2.186
68708W        W39308   0.677  36.142  12.896
68709W        W39309  26.587   3.059   0.925
68710W        W39310  11.221  37.344   3.999
68711W        W39311   7.279  35.551  11.606
68712W        W39312   8.933  23.490   0.263
68713W        W39313   0.404  24.731  11.516
68714W        W39314  37.613  24.265  10.182
68715W        W39315   4.675   4.211  13.980
68716W        W39316   9.108  12.735  11.423
68717W        W39317   3.054  41.072   3.736
68718W        W39318   2.493  29.393  12.384
68719W        W39319  13.047  36.128  14.836
68720W        W39320  17.115  41.671   2.830
68721W        W39321   9.530  44.482   0.845
68722W        W39322  24.394  33.178   3.487
68723W        W39323  33.871  12.205  14.329
68724W        W39324  24.389  26.449  14.958
68725W        W39325  17.522   0.722  13.985
68726W        W39326  18.030  34.609   1.864
68727W        W39327   6.211   2.702   1.536
68728W        W39328  31.539  38.906  10.609
68729W        W39329   0.798  23.520  13.684
68730W        W39330  19.206  30.052   3.304
68731W        W39331  18.676  10.115  12.583
68732W        W39332  22.385   9.406  10.801
68733W        W39333   0.974  25.893   2.320
68734W        W39334  34.348  23.351   0.355
68735W        W39335  11.107  18.125   2.404
68736W        W39336  29.242  31.292  14.895
68737W        W39337  16.807   1.746  11.240
68738W        W39338  31.469  25.171   4.935
68739W        W39339  24.497  31.067  13.180
68740W        W39340  44.756  13.452   2.587
68741W        W39341   9.094  25.549   4.302
68742W        W39342  20.257   9.506   4.690
68743W        W39343  14.877  43.486   0.302
68744W        W39344  38.922  29.020  14.385
68745W        W39345  13.035  19.751   0.250
68746W        W39346  31.752   1.712  11.317
68747W        W39347   9.263  41.022   0.259
68748W        W39348  43.714  33.672   0.929
68749W        W39349  25.023  21.738  13.442
68750W        W39350  16.716  38.032  14.000
68751W        W39351  17.255  20.165   3.783
68752W        W39352  42.969  15.224  12.236
68753W        W39353  10.392  21.250  11.695
68754W        W39354   1.989  36.058  11.158
68755W        W39355  29.578  16.818  13.536
68756W        W39356   1.444  13.650  14.037
68757W        W39357   1.634  15.328   0.133
68758W        W39358  14.648  10.187   1.369
68759W        W39359  38.548  18.239   2.360
68760W        W39360  43.914  17.351  14.440
68761W        W39361   7.133   8.493  11.898
68762W        W39362  37.411  15.214   1.433
68763W        W39363  23.179  13.349  11.045
68764W        W39364  27.112  32.683  14.364
68765W        W39365  32.885  10.254   1.773
68766W        W39366  27.407  13.174   2.956
68767W        W39367  11.224  15.132  12.012
68768W        W39368  10.118  11.269   3.653
68769W        W39369  32.369  39.819   1.145
68770W        W39370   3.252  43.827   2.056
68771W        W39371  31.947   8.190   2.684
68772W        W39372   6.654  42.394   2.202
68773W        W39373  43.979  34.563   4.732
68774W        W39374  17.746  43.308   2.751
68775W        W39375  41.296   5.714   1.900
68776W        W39376  42.708  12.366   2.144
68777W        W39377  38.353  13.687  11.243
68778W        W39378  11.237  41.961   1.822
68779W        W39379  38.454  18.422  10.176
68780W        W39380  23.950  39.818  13.499
68781W        W39381   3.477  44.554   3.763
68782W        W39382  22.462  24.418  11.286
68783W        W39383  10.419  22.388   9.480
68784W        W39384  10.324  34.045   0.798
68785W        W39385  11.914  22.356  10.210
68786W        W39386  26.441  43.945   4.577
68787W        W39387   2.999   0.089  11.213
68788W        W39388   4.826  35.486  14.478
68789W        W39389  12.119  21.705   4.646
68790W        W39390  37.028  32.122   0.056
68791W        W39391  13.110  13.296   3.544
68792W        W39392  28.020  25.176   2.820
68793W        W39393  28.853  11.356   1.202
68794W        W39394  34.420  43.768   3.652
68795W        W39395  28.728  20.551   1.282
68796W        W39396   2.916  26.606   4.578
68797W        W39397   0.174   4.159  14.628
68798W        W39398   0.004  16.648  12.994
68799W        W39399  20.750  44.783  14.973
68800W        W39400  17.847  35.872   2.356
68801W        W39401   8.876  43.464   5.084
68802W        W39402  25.056  18.265  13.401
68803W        W39403  34.533  13.254   2.400
68804W        W39404  36.745   8.955   4.306
68805W        W39405  17.130  27.869  12.903
68806W        W39406  15.537  40.804  12.459
68807W        W39407  30.465  41.104  13.390
68808W        W39408  31.716   4.704  14.013
68809W        W39409  16.659  19.567   3.152
68810W        W39410  38.527  26.595   9.957
68811W        W39411  17.120  20.223   1.465
68812W        W39412   9.710  25.054   3.114
68813W        W39413  38.530  36.501   1.609
68814W        W39414  18.490  35.109   1.414
68815W        W39415  30.440  41.013   0.788
68816W        W39416  34.951  19.673   5.041
68817W        W39417   5.889  25.770  14.608
68818W        W39418  40.558  33.342  13.870
68819W        W39419  33.951  37.297   3.586
68820W        W39420  15.412   6.195  11.515
68821W        W39421  23.971  13.520   4.197
68822W        W39422  26.723  36.064   1.905
68823W        W39423  34.477  33.550  11.428
68824W        W39424   8.577  21.225  12.915
68825W        W39425  30.902  11.178  11.835
68826W        W39426   4.383  43.369   2.426
68827W        W39427  14.189  40.536   1.337
68828W        W39428   3.794  13.090  11.174
68829W        W39429  39.484   9.811   0.170
68830W        W39430  39.704  22.506   4.031
68831W        W39431  17.657  10.416  14.844
68832W        W39432  30.616  26.104  12.884
68833W        W39433  38.483  21.716   3.232
68834W        W39434   1.299  37.295  11.958
68835W        W39435  31.678  44.314  11.109
68836W        W39436  35.628  13.682   3.196
68837W        W39437  27.458   9.217  11.584
68838W        W39438  30.153  31.658   1.306
68839W        W39439  20.299   2.989   1.847
68840W        W39440  39.300   8.307   2.349
68841W        W39441  18.677   4.899   3.123
68842W        W39442  20.243   7.581  10.307
68843W        W39443  26.926   5.341  11.243
68844W        W39444   6.673   7.099  11.666
68845W        W39445  10.838  22.644   3.658
68846W        W39446  19.994  28.009   3.301
68847W        W39447  38.034  25.576   1.833
68848W        W39448   4.921  36.483   0.895
68849W        W39449  28.838  12.093   3.107
68850W        W39450   9.172  42.892  11.185
68851W        W39451  19.513   7.393   0.306
68852W        W39452   6.877  11.385  14.505
68853W        W39453  33.733  38.115  14.194
68854W        W39454  42.617  16.593  14.965
68855W        W39455  23.265  42.668  14.180
68856W        W39456  44.808  11.841   1.747
68857W        W39457   6.846  37.488   0.362
68858W        W39458  14.190  25.888   0.082
68859W        W39459   7.705  18.212   2.302
68860W        W39460  40.772  36.360   1.117
68861W        W39461  44.646   8.108  10.653
68862W        W39462  41.749  25.748  11.260
68863W        W39463   3.708  36.991  11.515
68864W        W39464  11.303   2.435   0.451
68865W        W39465  41.435  31.607  10.813
68866W        W39466   7.371  44.453  10.339
68867W        W39467  14.284  38.515  10.599
68868W        W39468  14.957  30.019   2.802
68869W        W39469  30.823  25.478   1.849
68870W        W39470  19.092  18.121   1.774
68871W        W39471  17.242  14.905  12.204
68872W        W39472  32.641  24.195  11.088
68873W        W39473  10.615  41.801  14.796
68874W        W39474  14.382  41.915  10.776
68875W        W39475  24.097  11.135   1.263
68876W        W39476   8.520  38.279  10.533
68877W        W39477  41.298  16.759  11.659
68878W        W39478  38.322  23.595   3.162
68879W        W39479   4.662   5.129   0.506
68880W        W39480   4.817  40.364  13.129
68881W        W39481  14.043  15.834  13.788
68882W        W39482   9.762  24.559   0.864
68883W        W39483   6.173  22.007   1.292
68884W        W39484  16.946   7.660  14.266
68885W        W39485  28.018  32.891   1.840
68886W        W39486  21.713  33.927  12.023
68887W        W39487  15.822  12.115   0.040
68888W        W39488  20.508  24.595   2.598
68889W        W39489  13.669   0.937   1.782
68890W        W39490  42.500   7.414  11.651
68891W        W39491   0.428  20.308   3.150
68892W        W39492  36.283   9.389  10.924
68893W        W39493  21.507   3.910  11.563
68894W        W39494  33.877   9.726   4.215
68895W        W39495  32.662  24.709  11.062
68896W        W39496  31.994  41.737  13.484
68897W        W39497  33.461  13.346   1.453
68898W        W39498  12.923  24.495   2.167
68899W        W39499  29.186  31.275   1.767
68900W        W39500  37.001   7.756  12.591
68901W        W39501  29.564   6.336   0.043
68902W        W39502   1.294  27.616  13.419
68903W        W39503   9.225  13.631   0.312
68904W        W39504  19.238  27.665  13.372
68905W        W39505  24.477  43.725   5.568
68906W        W39506  39.844  19.532  14.341
68907W        W39507   6.643  24.734  14.856
68908W        W39508  20.010  22.507   4.256
68909W        W39509  26.131  36.893   4.255
68910W        W39510  13.670   4.324   0.517
68911W        W39511  22.321  12.873  11.881
68912W        W39512  22.166  12.536  11.544
68913W        W39513  39.837  27.980   2.575
68914W        W39514  29.766  43.828   3.121
68915W        W39515  17.429  30.801   4.041
68916W        W39516  18.589  20.684  10.527
68917W        W39517  27.923  44.836  13.411
68918W        W39518  22.114   8.078  12.822
68919W        W39519  26.951   0.171  11.599
68920W        W39520  36.347  14.358  10.135
68921W        W39521  20.772  33.949  10.847
68922W        W39522  10.715  24.277  10.823
68923W        W39523  38.131  31.144  13.558
68924W        W39524  14.640  33.081   1.736
68925W        W39525  35.996   1.332   3.912
68926W        W39526  39.042  35.535  12.079
68927W        W39527  20.110  29.470   4.626
68928W        W39528  38.487   1.782  12.445
68929W        W39529   6.280  10.196  12.568
68930W        W39530  41.758  21.874   3.872
68931W        W39531   5.726  24.941  13.509
68932W        W39532   6.032   2.549   2.761
68933W        W39533  39.877  43.192  13.805
68934W        W39534  17.231   1.285  10.647
68935W        W39535  30.114   6.761  11.644
68936W        W39536  30.427  34.984   1.145
68937W        W39537  14.156   4.299  12.833
68938W        W39538  34.049  25.300  11.601
68939W        W39539  16.773  32.289   0.393
68940W        W39540   3.698  38.000   2.867
68941W        W39541  15.844  36.254   1.267
68942W        W39542  26.708  13.562  11.245
68943W        W39543  12.077  24.213   3.217
68944W        W39544  43.956  13.144  14.979
68945W        W39545  26.914  37.925  12.548
68946W        W39546  16.355   9.206   3.233
68947W        W39547  22.944  26.550  11.593
68948W        W39548   0.731  24.216   1.221
68949W        W39549   9.108  18.439  14.728
68950W        W39550  43.078  44.544  14.829
68951W        W39551  39.298  21.605   3.698
68952W        W39552   6.997  18.386  13.411
68953W        W39553  10.421  31.915  13.044
68954W        W39554  21.794  43.492  12.848
68955W        W39555  11.695  29.566  10.963
68956W        W39556   5.026  16.187  10.984
68957W        W39557  33.063  44.567   1.235
68958W        W39558  37.012   5.729   3.317
68959W        W39559  34.495  36.368   2.724
68960W        W39560   4.131  11.665   1.775
68961W        W39561  38.837  40.598  12.510
68962W        W39562  43.896   3.928   3.298
68963W        W39563  18.492  23.076   4.241
68964W        W39564  25.036  39.432   0.287
68965W        W39565  34.813  40.245   1.845
68966W        W39566   4.283  32.352   4.465
68967W        W39567   8.404  20.645   1.084
68968W        W39568  26.404   5.186  12.118
68969W        W39569  14.103  43.618   4.880
68970W        W39570  23.144  33.170  13.915
68971W        W39571  10.261  44.336  11.103
68972W        W39572  11.200   5.116  14.796
68973W        W39573  23.360  24.636  12.429
68974W        W39574  41.412  13.940   1.178
68975W        W39575  31.112  29.124   2.159
68976W        W39576  40.448  25.919  14.389
68977W        W39577   9.397  31.402  14.695
68978W        W39578  29.490  35.102  12.225
68979W        W39579   6.912  26.932  14.433
68980W        W39580  16.063   6.724  11.020
68981W        W39581  36.940  33.458  12.850
68982W        W39582  37.403   1.715  10.999
68983W        W39583  32.683   7.173  12.046
68984W        W39584  13.371   7.204  13.340
68985W        W39585   5.494   1.758  13.897
68986W        W39586  37.967  39.279  12.615
68987W        W39587  15.114  30.181  12.912
68988W        W39588  30.095  23.454  11.593
68989W        W39589  36.891  43.813   0.965
68990W        W39590   0.211  23.114   0.278
68991W        W39591  12.129  32.708  11.552
68992W        W39592  24.922  29.678  14.875
68993W        W39593  20.638  43.542  10.944
68994W        W39594  22.568  40.488   4.562
68995W        W39595  16.983   2.327   1.587
68996W        W39596  23.594   6.456   4.547
68997W        W39597   6.136  38.350   1.302
68998W        W39598  36.859  23.567   3.402
68999W        W39599  38.039  12.119  13.279
69000W        W39600   5.255  38.148   2.884
69001W        W39601  28.888  41.216  11.199
69002W        W39602  29.009  21.583  11.405
69003W        W39603  32.457  39.096  13.446
69004W        W39604  25.502  33.915  14.162
69005W        W39605  30.974  22.235  13.890
69006W        W39606  25.052  31.974  11.999
69007W        W39607  28.512  27.688   1.643
69008W        W39608  34.929   0.272   1.673
69009W        W39609  15.501  17.957   2.905
69010W        W39610  24.993  22.770   1.315
69011W        W39611  15.657  27.731  14.718
69012W        W39612  29.187  44.808   4.514
69013W        W39613   7.665  21.123   1.432
69014W        W39614  18.774  29.990   2.328
69015W        W39615  10.093  44.476  13.877
69016W        W39616  23.690   7.816  14.129
69017W        W39617   2.321   9.980  13.034
69018W        W39618  24.756  35.401  11.889
69019W        W39619  17.686  35.898   4.480
69020W        W39620   3.364  36.540  14.278
69021W        W39621  28.874  36.058   2.315
69022W        W39622  34.515  34.430  13.564
69023W        W39623  43.864  38.189   0.841
69024W        W39624  19.674  20.406   3.269
69025W        W39625  41.495   8.653   3.107
69026W        W39626  19.031   3.934  12.669
69027W        W39627  32.599  28.376  14.369
69028W        W39628  30.619  19.921  12.488
69029W        W39629  39.708  23.692  12.091
69030W        W39630  17.300  35.984  13.578
69031W        W39631  22.916  24.452  11.557
69032W        W39632  32.862  26.139  13.769
69033W        W39633  25.000  29.398  13.044
69034W        W39634  11.163  32.629  10.685
69035W        W39635  21.762  23.550   0.461
69036W        W39636   3.472   7.796  13.344
69037W        W39637   0.758  14.733   4.657
69038W        W39638   0.941  11.469   1.129
69039W        W39639  35.127  12.605  14.011
69040W        W39640   4.080  43.722  14.379
69041W        W39641   2.580  33.719  14.457
69042W        W39642  18.572  24.961  11.631
69043W        W39643  35.678  39.561  10.734
69044W        W39644  31.521  12.582   0.747
69045W        W39645  28.662  21.219  11.307
69046W        W39646  16.457  10.971  14.212
69047W        W39647  42.813  19.864   1.234
69048W        W39648   8.453  42.473   4.336
69049W        W39649  40.531  12.715   1.729
69050W        W39650   3.021  12.246   0.185
69051W        W39651  21.734  38.995   4.665
69052W        W39652  24.256  36.698   2.388
69053W        W39653  26.172   8.953   5.178
69054W        W39654  38.023   8.089   1.726
69055W        W39655  22.265   2.098   3.321
69056W        W39656  39.158   4.880  12.882
69057W        W39657  27.955  40.743   4.085
69058W        W39658   9.252  41.125   1.182
69059W        W39659   6.189   1.692  12.949
69060W        W39660  14.567  29.999   0.041
69061W        W39661  37.042   4.187   4.856
69062W        W39662   2.787  32.731   4.824
69063W        W39663  36.430  35.324  14.352
69064W        W39664  24.797   7.225   2.105
69065W        W39665   8.599  42.162  14.854
69066W        W39666  42.507   0.342   1.479
69067W        W39667  31.729  42.687  14.764
69068W        W39668  30.043  24.561   3.111
69069W        W39669  28.143  25.163  12.234
69070W        W39670  27.267  35.624  11.398
69071W        W39671  19.786  19.979   0.019
69072W        W39672  39.829   9.826  10.825
69073W        W39673   1.777  35.654   2.790
69074W        W39674  24.288  18.797   2.769
69075W        W39675   9.685  10.205   1.414
69076W        W39676  33.393  13.269   2.770
69077W        W39677   9.242  44.391   9.996
69078W        W39678  14.204  18.673   3.850
69079W        W39679  26.517  27.943   2.326
69080W        W39680  33.174  22.282   2.120
69081W        W39681  43.799  27.877   4.062
69082W        W39682   4.233  43.448  13.514
69083W        W39683   2.687   0.567  13.762
69084W        W39684  24.149  19.572   5.090
69085W        W39685  42.365  30.118   1.690
69086W        W39686  30.985   7.585   3.148
69087W        W39687  33.816  24.838  11.662
69088W        W39688  20.103  24.783   4.115
69089W        W39689  42.081  20.393   4.860
69090W        W39690  42.916  39.908  14.509
69091W        W39691  12.195  11.354   1.968
69092W        W39692   4.643  13.643   0.435
69093W        W39693  24.515  23.672  14.484
69094W        W39694  16.951  33.653   0.231
69095W        W39695  31.320  32.530   1.735
69096W        W39696  20.642  19.697   3.117
69097W        W39697  33.448  17.586  11.040
69098W        W39698  44.707   7.203  13.389
69099W        W39699  38.655  15.061  11.611
69100W        W39700  33.472  27.013   4.808
69101W        W39701   3.184   3.269  12.409
69102W        W39702  10.133  11.711  14.365
69103W        W39703  16.700  32.902   0.437
69104W        W39704  34.876   0.906  12.017
69105W        W39705  33.523  36.834  11.728
69106W        W39706  40.149  30.648   3.690
69107W        W39707  39.767  26.490   2.501
69108W        W39708  11.448  13.516  11.151
69109W        W39709  37.210  30.625   2.728
69110W        W39710  15.166   2.419   1.060
69111W        W39711   1.441  30.416  10.962
69112W        W39712   7.735  21.702   2.384
69113W        W39713   9.228  16.877   3.070
69114W        W39714  33.828  26.149   4.813
69115W        W39715   2.602  15.710  12.525
69116W        W39716  39.771  38.976   2.614
69117W        W39717  18.704   8.719  11.994
69118W        W39718  27.448  18.129   1.448
69119W        W39719   3.002  41.631  10.657
69120W        W39720  21.005  10.677   1.972
69121W        W39721  27.008  42.945  11.871
69122W        W39722   9.299   4.556   3.229
69123W        W39723   3.781   2.418   1.309
69124W        W39724   7.255   9.772   2.177
69125W        W39725  24.691  38.551  12.394
69126W        W39726  24.271   5.235  10.744
69127W        W39727  27.431  35.990   1.231
69128W        W39728  40.881  23.451   1.213
69129W        W39729  21.655   9.820   2.698
69130W        W39730  42.319  22.310  11.938
69131W        W39731  40.446  15.261  13.889
69132W        W39732  33.915  38.295  12.591
69133W        W39733  11.813   6.451  12.650
69134W        W39734  25.575  25.985   3.236
69135W        W39735  29.800  25.305  11.196
69136W        W39736  26.448   8.232  13.501
69137W        W39737  18.194  31.095  11.419
69138W        W39738  19.340   0.174   0.380
69139W        W39739  17.236  29.468  13.513
69140W        W39740  24.035  29.175  10.667
69141W        W39741  15.397  21.450   4.799
69142W        W39742  44.296  31.015  12.444
69143W        W39743  11.441  12.225  10.478
69144W        W39744  16.201  18.037   0.814
69145W        W39745  38.973  33.986  11.930
69146W        W39746   3.940  29.981   1.734
69147W        W39747  29.889  42.850  12.918
69148W        W39748  36.503  32.605  13.849
69149W        W39749  30.663  33.560   2.524
69150W        W39750  18.129   3.973  11.066
69151W        W39751  13.227  36.859   0.274
69152W        W39752  34.888  44.518  14.455
69153W        W39753   3.841  26.165  10.755
69154W        W39754  17.152  36.788  14.393
69155W        W39755  33.503  21.182  10.682
69156W        W39756  32.102  16.895  12.013
69157W        W39757  15.302  17.037   1.687
69158W        W39758  38.940  27.407   0.332
69159W        W39759  33.043  28.407  12.871
69160W        W39760  25.040  34.005  12.445
69161W        W39761  43.366   4.110  11.022
69162W        W39762  37.123  40.541   3.607
69163W        W39763  18.472   8.018   5.134
69164W        W39764  36.451  24.371   2.428
69165W        W39765   4.997  22.253   0.679
69166W        W39766  33.864  14.203  14.338
69167W        W39767  26.735   8.971   1.267
69168W        W39768  17.174   3.242   0.418
69169W        W39769  14.112  30.166   3.181
69170W        W39770   2.300   4.749  10.845
69171W        W39771  20.533  33.386  12.384
69172W        W39772  16.263  22.721  10.694
69173W        W39773  16.320  30.922  14.366
69174W        W39774  13.094   4.683   5.017
69175W        W39775  24.759  41.621  11.204
69176W        W39776  44.519  10.790   3.289
69177W        W39777  44.921  26.753   2.341
69178W        W39778  42.523  26.320   1.410
69179W        W39779   1.948  11.039   1.467
69180W        W39780   7.975   7.376   2.194
69181W        W39781  34.500  37.854   1.880
69182W        W39782  37.369  39.568   1.739
69183W        W39783  24.877  25.490   1.689
69184W        W39784  24.924  44.147   2.382
69185W        W39785  15.789  40.423  12.712
69186W        W39786  20.067  19.680   0.951
69187W        W39787  27.869  37.188  14.298
69188W        W39788  31.148  22.215  10.451
69189W        W39789  36.946  10.163  12.859
69190W        W39790  13.095   7.250  12.861
69191W        W39791  42.657   2.310  14.768
69192W        W39792  17.263  32.341   3.164
69193W        W39793  44.442   1.633   2.829
69194W        W39794  16.359  21.020  13.750
69195W        W39795  28.976   0.745   4.391
69196W        W39796  26.628  44.542   3.824
69197W        W39797  22.952  19.784   3.794
69198W        W39798  30.138  40.158  14.815
69199W        W39799  41.587  39.911  11.552
69200W        W39800  12.402  36.294  12.024
69201W        W39801   5.171  14.543   1.469
69202W        W39802  23.497  33.761  14.463
69203W        W39803  37.465  34.576   4.776
69204W        W39804  44.869  41.900   3.864
69205W        W39805  18.124  21.752  14.435
69206W        W39806  26.872  37.767  11.545
69207W        W39807  15.440  31.827   2.646
69208W        W39808   1.798  14.772   1.716
69209W        W39809   8.764  37.538  12.026
69210W        W39810   9.930  31.872   0.381
69211W        W39811   7.986  10.243   2.717
69212W        W39812  32.649  22.528   3.711
69213W        W39813  15.198  37.320   3.771
69214W        W39814  35.390  29.623  12.288
69215W        W39815  43.857  13.403   1.958
69216W        W39816   4.932  35.027  11.998
69217W        W39817   0.710  15.296   0.289
69218W        W39818  22.524  23.231  12.859
69219W        W39819  19.258  41.344  11.977
69220W        W39820  15.815  24.483  12.387
69221W        W39821  31.597  20.737  13.534
69222W        W39822   3.624   1.507  12.342
69223W        W39823  23.422  11.369   0.866
69224W        W39824   0.257  12.195  10.739
69225W        W39825  17.152  40.764   3.708
69226W        W39826  12.604   8.139   4.061
69227W        W39827  12.343  21.593  12.943
69228W        W39828  37.853   0.231   2.824
69229W        W39829   8.508  27.547  14.819
69230W        W39830  15.783  18.511   3.666
69231W        W39831  21.913  29.660  12.040
69232W        W39832  16.482  21.286   3.756
69233W        W39833  24.192  13.711   1.650
69234W        W39834  12.048  34.982   2.866
69235W        W39835  25.095  16.275   2.906
69236W        W39836  14.428   3.298  13.660
69237W        W39837   0.806   9.453   0.893
69238W        W39838  40.194  29.057   3.838
69239W        W39839  15.101  17.892   4.035
69240W        W39840  39.328  44.026   4.179
69241W        W39841  34.384  11.054  12.184
69242W        W39842   2.524  18.560  14.915
69243W        W39843   1.426  31.249  12.410
69244W        W39844  13.188  10.695  13.087
69245W        W39845  42.142   4.240   0.877
69246W        W39846  28.453  29.232   1.996
69247W        W39847   3.315  30.186   1.203
69248W        W39848  15.246  20.969   2.859
69249W        W39849   0.376  29.900  11.942
69250W        W39850   2.747  10.781  11.401
69251W        W39851  15.128  34.807   0.164
69252W        W39852  17.632  21.076  13.380
69253W        W39853  34.140   4.454   4.004
69254W        W39854  39.913  25.786  13.394
69255W        W39855  36.441  25.941  11.655
69256W        W39856   5.297   2.400  10.623
69257W        W39857  22.681  11.634  12.030
69258W        W39858   7.666  33.031   1.308
69259W        W39859  39.999   1.402  13.134
69260W        W39860   1.961  34.583   3.758
69261W        W39861  24.112  22.781   4.619
69262W        W39862  24.024  43.388   4.568
69263W        W39863  19.700  33.891   4.885
69264W        W39864  18.098  19.822   3.205
69265W        W39865  19.796   0.435   1.779
69266W        W39866  39.307  43.763  12.555
69267W        W39867   8.675  16.324  13.973
69268W        W39868  17.814  12.816  14.581
69269W        W39869  12.772  36.639  12.129
69270W        W39870  11.019   7.465   0.091
69271W        W39871  37.360   0.399  11.436
69272W        W39872  25.670  22.254  10.500
69273W        W39873  42.571  31.332  13.411
69274W        W39874   2.530   7.365  13.361
69275W        W39875  32.688  40.794  14.311
69276W        W39876  11.386  16.862  11.289
69277W        W39877   3.401  26.805   2.512
69278W        W39878  41.297  30.508  12.150
69279W        W39879  38.848  23.650   2.907
69280W        W39880  24.044  35.966  12.049
69281W        W39881  18.728   4.427   3.333
69282W        W39882  36.505  16.887  14.480
69283W        W39883  37.340  37.592   9.862
69284W        W39884  23.338  23.303   4.124
69285W        W39885  18.349  37.137   4.177
69286W        W39886  27.167  29.745  11.114
69287W        W39887  16.656   9.381  14.017
69288W        W39888  31.548  10.170  14.026
69289W        W39889  11.668  40.457  14.710
69290W        W39890  34.863  23.954   3.726
69291W        W39891  26.188  41.729   3.981
69292W        W39892   9.912  24.604   1.360
69293W        W39893  39.540  23.061   1.502
69294W        W39894  43.357  33.157  13.949
69295W        W39895  26.038  28.972  12.931
69296W        W39896  12.828  34.845   0.245
69297W        W39897  41.310  36.625   0.306
69298W        W39898  30.625  34.046   3.200
69299W        W39899  23.315  39.391  12.128
69300W        W39900  10.232  29.303  13.849
69301W        W39901  42.522  24.109  10.710
69302W        W39902   1.541   7.159  12.573
69303W        W39903  26.154   0.244   3.612
69304W        W39904   1.081   1.877   2.179
69305W        W39905  37.963  14.067  11.179
69306W        W39906  16.834  30.391  13.931
69307W        W39907   3.817  41.329  13.956
69308W        W39908  21.120  38.735   4.208
69309W        W39909  27.739  38.059   4.527
69310W        W39910  17.465   6.517   2.311
69311W        W39911  29.335  40.422   3.923
69312W        W39912   8.848   8.445  11.549
69313W        W39913  37.808  13.606  11.264
69314W        W39914   3.854   7.150  11.500
69315W        W39915  34.655  10.719  11.422
69316W        W39916  44.799  28.932  13.178
69317W        W39917  40.405  34.577   0.133
69318W        W39918  21.448  43.450  14.153
69319W        W39919  29.722  31.076  14.764
69320W        W39920  40.969   1.941  14.359
69321W        W39921  26.394  31.331  14.001
69322W        W39922  42.870  19.254   3.564
69323W        W39923  21.746  16.714  11.054
69324W        W39924  28.958   6.893   1.718
69325W        W39925  32.315  23.621   4.156
69326W        W39926  11.329  21.185  14.421
69327W        W39927   9.862  26.495   2.259
69328W        W39928  19.789  42.438  14.770
69329W        W39929  42.722  40.552   0.805
69330W        W39930   0.357  16.360  10.671
69331W        W39931  29.395  42.287  13.819
69332W        W39932  44.431   7.921  14.868
69333W        W39933   9.733  43.041  13.341
69334W        W39934  34.837   4.790   4.872
69335W        W39935  10.349   4.372  10.851
69336W        W39936   4.226  41.920   4.159
69337W        W39937  44.067  23.398  11.798
69338W        W39938  24.925  42.819  14.826
69339W        W39939  24.542   9.927   1.900
69340W        W39940  41.687  15.676   3.610
69341W        W39941   3.739  39.728   0.304
69342W        W39942  44.376  26.686   1.104
69343W        W39943  17.159  18.176   3.600
69344W        W39944  36.997  44.520  14.866
69345W        W39945  41.314   5.968  13.594
69346W        W39946   1.876  15.714   3.449
69347W        W39947   7.240  37.004  13.605
69348W        W39948  43.138  29.526   3.581
69349W        W39949  30.362  43.241  13.751
69350W        W39950   7.858   4.442   3.068
69351W        W39951  39.945  27.031   2.814
69352W        W39952  26.637  22.278  12.576
69353W        W39953  23.293  35.107  13.506
69354W        W39954  21.913   6.295  12.800
69355W        W39955  11.691  18.980   1.878
69356W        W39956   0.906  24.720   3.719
69357W        W39957  13.324  40.082  14.694
69358W        W39958  39.437  35.533  12.891
69359W        W39959  34.980  44.242   0.348
69360W        W39960  12.897   2.269   0.135
69361W        W39961   3.109   3.874  11.667
69362W        W39962  43.726  39.419   2.460
69363W        W39963  39.539  10.247  10.687
69364W        W39964  14.712  32.394  14.903
69365W        W39965  41.959  31.346   0.778
69366W        W39966  17.698  10.220   2.725
69367W        W39967  18.615  42.231  11.515
69368W        W39968  27.118  10.430  11.246
69369W        W39969  44.219  19.945  11.703
69370W        W39970  38.827  40.323   3.842
69371W        W39971  44.784   5.262  14.321
69372W        W39972  10.737  31.534  14.717
69373W        W39973  30.060  30.876   1.671
69374W        W39974   0.942  22.081   1.429
69375W        W39975  10.708  33.457   0.901
69376W        W39976  12.369  35.845  12.437
69377W        W39977  16.782   2.716  13.011
69378W        W39978  21.767   7.866   0.958
69379W        W39979  42.432  10.804  14.706
69380W        W39980  20.904   7.165  10.058
69381W        W39981  19.235  17.249  14.796
69382W        W39982  16.504  34.878   1.815
69383W        W39983  36.371  33.264   2.250
69384W        W39984  25.671  20.499   4.695
69385W        W39985  26.871  14.324   2.923
69386W        W39986   8.438  44.383  11.890
69387W        W39987  17.746  36.942  12.964
69388W        W39988  23.086  20.322   3.302
69389W        W39989  22.437  42.918  12.550
69390W        W39990  42.373  18.171  11.170
69391W        W39991  19.486  36.691   2.163
69392W        W39992  41.342  34.352   2.285
69393W        W39993  22.278  22.192   4.701
69394W        W39994   3.925  41.109  13.482
69395W        W39995   4.546  27.200  12.794
69396W        W39996  41.069  33.565   4.775
69397W        W39997  10.756   3.584   3.807
69398W        W39998   2.479  43.897  11.563
69399W        W39999   7.814   6.309  14.709
69400W        W40000   8.900  19.518  11.753
69401W        W40001  31.833   4.665   0.138
69402W        W40002   0.973  15.665   2.347
69403W        W40003  38.841   9.086  10.135
69404W        W40004  35.935   1.149   2.144
69405W        W40005   6.946   5.438   3.189
69406W        W40006  18.168  16.127  13.429
69407W        W40007   3.737  25.724  14.899
69408W        W40008  29.383  24.871  13.363
69409W        W40009  35.056  24.052   1.891
69410W        W40010  23.102  12.860  10.250
69411W        W40011  43.958   4.900  14.452
69412W        W40012  32.117  11.244   0.103
69413W        W40013  44.411  19.280   4.285
69414W        W40014  22.705  17.183  10.694
69415W        W40015  40.870  12.408  13.304
69416W        W40016  21.189  13.158  13.141
69417W        W40017  33.433   9.110  14.369
69418W        W40018  35.317  28.206   1.908
69419W        W40019  42.347   1.728  13.388
69420W        W40020  14.316  27.617   2.729
69421W        W40021  30.759  17.061  11.397
69422W        W40022  18.769  33.423  13.003
69423W        W40023   7.241  23.028   4.632
69424W        W40024  32.013  34.951  12.954
69425W        W40025  33.650  41.911  14.393
69426W        W40026  43.312  40.430  11.850
69427W        W40027   8.780  30.525   1.371
69428W        W40028  22.236  42.357   3.620
69429W        W40029  38.419  44.864  10.682
69430W        W40030  24.619   9.343   2.800
69431W        W40031  26.047   6.436   1.191
69432W        W40032   9.899  20.049  13.204
69433W        W40033   2.988  43.978   0.695
69434W        W40034  19.277  15.621   2.856
69435W        W40035  35.493  39.592   2.422
69436W        W40036  36.445  37.890   2.361
69437W        W40037  17.698  43.440  12.825
69438W        W40038  35.258  23.003  13.999
69439W        W40039   4.133   1.410  14.848
69440W        W40040   1.033  25.161   4.339
69441W        W40041  24.499  13.238   1.790
69442W        W40042  16.018  16.240  12.045
69443W        W40043  32.716   0.827  11.193
69444W        W40044  23.029  13.473   1.765
69445W        W40045  41.585   4.722   3.244
69446W        W40046  32.962   3.435  13.518
69447W        W40047  19.744   9.870   3.564
69448W        W40048   8.638  14.599   2.360
69449W        W40049   2.396  39.622  14.440
69450W        W40050  16.070   7.081  13.467
69451W        W40051   1.502   9.920  14.889
69452W        W40052  16.095   5.831   2.678
69453W        W40053  17.883  22.418  14.035
69454W        W40054  39.700   2.589   2.755
69455W        W40055  33.942  38.334  14.766
69456W        W40056  27.201  38.893  13.866
69457W        W40057  33.169  25.748   0.361
69458W        W40058  12.276  22.893  14.068
69459W        W40059  27.785  43.620   2.184
69460W        W40060  17.162   4.434  13.640
69461W        W40061  19.656  27.150   0.717
69462W        W40062  32.123   3.247   4.345
69463W        W40063  25.703  21.255   1.949
69464W        W40064  32.595  29.371  10.975
69465W        W40065  43.071  17.788  11.159
69466W        W40066  15.520  15.728   0.383
69467W        W40067  44.907   7.196   0.619
69468W        W40068  31.466  40.027  12.603
69469W        W40069   0.906  13.335  14.100
69470W        W40070   6.640   0.308  11.472
69471W        W40071   6.293  23.366  10.836
69472W        W40072   2.680  30.605   0.954
69473W        W40073  28.364   6.843   0.273
69474W        W40074   9.667   8.968   3.426
69475W        W40075  21.075  36.866  11.137
69476W        W40076  12.536   7.636   3.994
69477W        W40077  38.491   1.726  13.964
69478W        W40078  10.573  26.531   1.657
69479W        W40079   2.351  20.013   4.299
69480W        W40080  44.410  22.016  10.043
69481W        W40081  26.420  39.396  13.784
69482W        W40082  30.483  41.838  11.913
69483W        W40083  33.645  19.112  13.987
69484W        W40084  27.876  33.316  14.534
69485W        W40085  30.107  21.296   4.352
69486W        W40086   1.183  34.298  13.429
69487W        W40087  10.338  21.903  10.692
69488W        W40088  14.835  14.734  11.996
69489W        W40089  43.051  24.132  10.658
69490W        W40090  13.350   2.782   2.771
69491W        W40091  44.352   4.387   2.197
69492W        W40092  39.390  20.247   4.053
69493W        W40093  36.417  27.063   0.356
69494W        W40094  11.580  36.852  11.153
69495W        W40095   7.249  39.476   3.227
69496W        W40096  43.276  29.225  10.591
69497W        W40097   7.364  35.172  13.224
69498W        W40098   6.354  36.447   4.673
69499W        W40099  17.880  35.621   2.824
69500W        W40100   0.727  11.382  10.719
69501W        W40101  43.843  20.436  14.088
69502W        W40102  39.353  13.844  11.221
69503W        W40103  11.769  35.421   2.904
69504W        W40104  19.673   0.370  14.347
69505W        W40105  16.551  14.578   2.218
69506W        W40106  34.065  15.328   3.262
69507W        W40107  39.461   1.405  12.536
69508W        W40108  16.270  36.595   1.326
69509W        W40109  35.051  19.163   0.278
69510W        W40110  12.193  35.436   2.622
69511W        W40111  38.546  40.483  12.082
69512W        W40112  42.642  38.545   1.457
69513W        W40113  24.580   9.018  14.705
69514W        W40114  33.141   1.732   2.365
69515W        W40115   9.679  23.564   1.969
69516W        W40116  34.612   2.890   1.505
69517W        W40117  14.265  12.884  10.093
69518W        W40118   0.687  22.475   1.762
69519W        W40119  20.084   7.663   3.756
69520W        W40120   5.021  31.984   4.038
69521W        W40121  29.948  23.297  14.889
69522W        W40122  27.963  33.738   3.268
69523W        W40123  30.135  11.722  11.605
69524W        W40124  42.059  31.529  11.623
69525W        W40125   9.041   1.306   0.674
69526W        W40126  41.814  20.776   2.721
69527W        W40127  11.901  32.504  14.753
69528W        W40128   7.285  20.718   2.690
69529W        W40129   4.634  23.915   1.844
69530W        W40130   1.971  10.832   2.767
69531W        W40131   5.831  11.226   3.488
69532W        W40132  41.452  21.039  13.290
69533W        W40133  32.632  21.703  12.511
69534W        W40134  24.422  26.729  10.523
69535W        W40135   6.039  24.060  13.928
69536W        W40136  40.289   9.369   2.899
69537W        W40137  13.160  43.434   0.107
69538W        W40138  17.113  32.859  10.213
69539W        W40139  15.784  32.774  13.644
69540W        W40140  41.018  44.973  12.076
69541W        W40141  35.684  32.396   4.152
69542W        W40142   7.859   2.391  13.934
69543W        W40143  14.150   1.889  12.601
69544W        W40144   2.254  32.545  13.998
69545W        W40145  20.529  27.731   5.005
69546W        W40146  23.783   5.063  11.607
69547W        W40147  16.267   7.689  10.782
69548W        W40148  37.576   2.139   3.562
69549W        W40149  39.015   3.857   3.428
69550W        W40150  20.907  40.195   2.198
69551W        W40151  41.418  40.972   4.858
69552W        W40152  21.969  10.641  13.639
69553W        W40153   2.395  10.924  11.011
69554W        W40154   4.462   6.325  12.347
69555W        W40155  36.107  19.678   0.741
69556W        W40156  10.580  13.249  13.936
69557W        W40157  39.256   7.286  13.912
69558W        W40158  40.486  11.844  14.920
69559W        W40159  18.286   7.887   4.669
69560W        W40160  10.802  26.836   2.411
69561W        W40161  10.991  42.397  10.457
69562W        W40162  11.703  10.414   1.191
69563W        W40163  10.678  29.436   4.739
69564W        W40164  19.642  26.189  12.784
69565W        W40165  13.601  29.102   2.177
69566W        W40166  41.993   3.670  13.129
69567W        W40167   5.005  22.435  12.613
69568W        W40168  36.356  40.099  11.186
69569W        W40169  18.281  43.394  11.059
69570W        W40170  18.012  44.856  13.450
69571W        W40171   8.294  41.229  13.492
69572W        W40172  14.822   6.378   4.167
69573W        W40173  37.391   5.353  13.428
69574W        W40174  27.003   5.838  11.271
69575W        W40175  21.493  11.064   0.252
69576W        W40176  30.866   8.683   2.537
69577W        W40177  43.499  10.709   1.075
69578W        W40178  21.011  23.513  11.070
69579W        W40179  21.086  25.184  12.432
69580W        W40180   7.204   0.702   4.086
69581W        W40181  23.399  23.018   4.596
69582W        W40182  33.131  13.885   1.702
69583W        W40183   8.065   2.725   1.801
69584W        W40184  20.423  16.277  13.920
69585W        W40185  28.354  12.221   4.230
69586W        W40186   3.880   4.255  10.956
69587W        W40187  21.283  20.551  11.255
69588W        W40188  25.191   2.760  11.327
69589W        W40189   1.600  28.754   4.276
69590W        W40190   6.304   8.193   2.402
69591W        W40191   8.106  32.038   0.713
69592W        W40192   2.147   7.927   2.890
69593W        W40193   7.967   2.435  12.128
69594W        W40194  24.059   9.416  12.887
69595W        W40195  41.133  11.258  13.757
69596W        W40196  42.861  34.454   3.652
69597W        W40197  20.740   9.615  13.691
69598W        W40198  31.429   7.849   1.327
69599W        W40199  13.982  40.347   4.801
69600W        W40200  26.761  31.343  14.361
69601W        W40201  16.703  21.907  13.391
69602W        W40202  27.873  36.323  12.565
69603W        W40203  24.986  12.704   2.868
69604W        W40204  38.840  34.540   2.136
69605W        W40205  20.126  12.867   4.534
69606W        W40206  16.994  24.013  14.882
69607W        W40207  41.561  17.952   4.071
69608W        W40208  25.082   5.276   3.574
69609W        W40209  35.826  20.992  12.293
69610W        W40210  18.681  28.294   5.110
69611W        W40211  25.071   9.090   2.742
69612W        W40212  30.547  28.721   1.929
69613W        W40213  37.597  26.061   2.825
69614W        W40214   8.832  42.510  11.159
69615W        W40215   6.876  35.054  12.447
69616W        W40216  12.628   1.726   2.759
69617W        W40217   2.480  39.138  11.098
69618W        W40218  44.053  40.410  13.397
69619W        W40219  36.138   5.250  12.119
69620W        W40220  21.133  36.301   4.096
69621W        W40221   7.315  23.516   4.354
69622W        W40222  28.620  15.559   2.190
69623W        W40223  22.361  32.826  11.089
69624W        W40224  29.036  18.310   1.461
69625W        W40225  22.075   1.998  11.749
69626W        W40226  32.096  13.087  14.749
69627W        W40227  18.034  33.644   1.702
69628W        W40228   1.768  31.642  14.066
69629W        W40229  28.911  13.606  13.552
69630W        W40230  28.889  17.062   4.781
69631W        W40231  18.139   7.984  12.124
69632W        W40232  26.545   9.265   2.567
69633W        W40233  16.322  23.483  11.955
69634W        W40234  13.398  21.412  13.756
69635W        W40235  16.900  27.222  12.151
69636W        W40236  40.634  27.555  12.916
69637W        W40237  33.401   3.129  14.757
69638W        W40238  27.667  42.807  11.701
69639W        W40239  22.705  38.375   1.211
69640W        W40240   4.643  34.557  13.033
69641W        W40241  27.953  21.695  10.864
69642W        W40242  16.959  33.118   3.837
69643W        W40243  44.857  28.264   4.217
69644W        W40244  12.800  35.805   2.116
69645W        W40245  40.431  10.817   4.788
69646W        W40246  39.955  39.944  13.881
69647W        W40247  35.471  43.078   3.619
69648W        W40248   3.226  10.597  12.666
69649W        W40249  44.785  40.681  11.082
69650W        W40250  27.391  35.215  10.648
69651W        W40251   4.216  19.116   1.319
69652W        W40252  27.987  43.114   4.634
69653W        W40253  22.116  38.145  12.194
69654W        W40254  37.926  44.607  13.360
69655W        W40255  21.088  22.553  11.726
69656W        W40256  13.376   2.373  12.034
69657W        W40257  34.419  20.605  11.269
69658W        W40258  19.098  35.063  12.442
69659W        W40259  36.627  42.307  14.161
69660W        W40260  14.483  43.215   2.667
69661W        W40261  40.466  33.180   4.283
69662W        W40262  15.967  30.754   4.150
69663W        W40263  35.925  35.510  14.434
69664W        W40264  32.941  27.573   3.671
69665W        W40265  15.364  33.044  13.609
69666W        W40266  14.442  37.812   3.515
69667W        W40267  38.767  38.852   3.773
69668W        W40268  22.207  19.197   1.271
69669W        W40269  17.964  26.762  11.646
69670W        W40270  37.442  41.288   4.789
69671W        W40271  13.182  15.324  11.762
69672W        W40272  24.666   1.007  11.110
69673W        W40273  26.202  30.214  12.571
69674W        W40274  32.002  11.587   2.815
69675W        W40275  38.823   7.874  12.968
69676W        W40276  43.204  37.397   0.825
69677W        W40277  28.316   2.711   4.781
69678W        W40278  30.412  18.738   4.649
69679W        W40279  35.043  42.050  13.586
69680W        W40280  18.989  24.940   3.097
69681W        W40281  15.044  10.368  10.064
69682W        W40282  18.671   5.410  10.484
69683W        W40283  10.987  10.888   3.644
69684W        W40284  39.523  11.475  14.791
69685W        W40285   2.850  17.884   2.918
69686W        W40286  17.300  39.315  10.265
69687W        W40287  21.163  23.058   0.497
69688W        W40288  14.408  39.582   3.200
69689W        W40289  30.214  10.052   2.248
69690W        W40290   4.642  13.217   3.645
69691W        W40291   3.704  42.969   1.173
69692W        W40292   1.451  29.671   2.775
69693W        W40293   2.873  29.706  14.713
69694W        W40294  25.356  10.224  14.404
69695W        W40295  32.900  16.868   0.631
69696W        W40296  28.679   3.131   4.248
69697W        W40297  44.321  40.280   2.408
69698W        W40298  36.969  40.032  14.918
69699W        W40299  32.009  20.592  14.293
69700W        W40300  34.912  25.040   2.710
69701W        W40301  44.010   2.977  12.542
69702W        W40302  43.501  29.864   4.720
69703W        W40303  28.085   9.434   1.389
69704W        W40304  10.367  26.444   3.799
69705W        W40305  44.269  36.812   3.103
69706W        W40306  19.178   3.173   4.664
69707W        W40307  29.458   8.809   3.652
69708W        W40308  33.574  25.223  12.538
69709W        W40309  11.672   7.924  12.624
69710W        W40310   9.655   0.809  11.074
69711W        W40311  35.477  30.064   0.563
69712W        W40312  38.803  41.522  12.455
69713W        W40313  23.613  22.942   0.272
69714W        W40314  12.574   1.998   2.325
69715W        W40315  13.556  21.068   2.261
69716W        W40316   6.467  22.044  12.107
69717W        W40317  26.443  30.237   3.581
69718W        W40318  24.455  37.944  11.627
69719W        W40319  16.121   8.830   2.106
69720W        W40320   0.522   4.369  12.012
69721W        W40321  19.111  26.649  11.989
69722W        W40322  15.943  44.541  14.442
69723W        W40323  40.349   0.511   2.892
69724W        W40324   8.006  40.038   0.911
69725W        W40325  35.983  27.084  11.182
69726W        W40326  32.168  11.518  11.664
69727W        W40327  13.267  36.011   2.246
69728W        W40328  30.810   0.820   1.810
69729W        W40329  35.147   0.463  14.310
69730W        W40330   7.875  28.235   1.757
69731W        W40331   7.182  35.356  14.625
69732W        W40332  28.882  39.574  10.725
69733W        W40333  11.213  29.543   0.866
69734W        W40334  14.574   6.391  11.942
69735W        W40335   1.735  24.657   3.752
69736W        W40336   3.804  37.437  14.862
69737W        W40337  21.097  38.668   2.766
69738W        W40338  17.109  41.529  14.999
69739W        W40339  20.545   7.600   4.477
69740W        W40340  37.540  25.227   1.336
69741W        W40341  10.159  28.629   4.086
69742W        W40342  15.108   4.800  11.732
69743W        W40343  16.839   6.695   4.443
69744W        W40344   2.828  44.913  14.844
69745W        W40345  15.011  29.273   4.341
69746W        W40346  17.655  17.037  14.344
69747W        W40347  38.497   1.203   1.868
69748W        W40348  27.046  12.815  12.899
69749W        W40349  33.926  16.999   1.171
69750W        W40350   3.433  18.212  12.092
69751W        W40351  26.554  21.584   4.550
69752W        W40352  19.553  13.632  11.963
69753W        W40353  18.025  16.377  14.857
69754W        W40354   4.062  22.089   0.214
69755W        W40355   8.580  34.406  13.264
69756W        W40356  35.537  23.067  12.194
69757W        W40357  20.267  35.948  12.310
69758W        W40358  21.240  28.842  12.016
69759W        W40359  16.903  15.699  14.910
69760W        W40360   3.919  31.413   4.083
69761W        W40361  32.863  15.586  10.452
69762W        W40362  36.912   7.711   0.370
69763W        W40363  36.698  24.589   3.986
69764W        W40364  19.711  38.592   0.556
69765W        W40365  26.226  17.728   0.425
69766W        W40366  17.621   9.845   3.755
69767W        W40367  35.285  27.673  14.489
69768W        W40368  33.587  35.144   3.102
69769W        W40369   6.624  32.317  13.856
69770W        W40370   5.620  28.091  14.660
69771W        W40371   6.161   4.538   2.856
69772W        W40372  33.183  19.455   1.744
69773W        W40373  43.553   5.181  14.738
69774W        W40374  18.221  28.884   3.270
69775W        W40375  16.525  36.976   3.601
69776W        W40376   9.983  11.039  12.630
69777W        W40377  28.402  37.322   1.331
69778W        W40378  16.096   4.742  11.223
69779W        W40379  12.679  30.816  10.372
69780W        W40380  27.153  43.932   0.410
69781W        W40381  43.007  33.113   4.576
69782W        W40382  27.069  25.122   1.848
69783W        W40383  17.751  36.375   2.200
69784W        W40384  13.986  39.800  11.944
69785W        W40385  11.632  10.177   4.614
69786W        W40386   5.111  36.598   4.422
69787W        W40387  26.716  21.259   3.149
69788W        W40388  19.831  19.160   0.935
69789W        W40389   3.755  14.536  14.577
69790W        W40390  28.462  13.696   0.805
69791W        W40391  38.523  41.461   1.955
69792W        W40392  43.230  33.359   4.188
69793W        W40393  22.462  16.215  13.046
69794W        W40394  17.091  42.672  11.522
69795W        W40395  17.875  43.946  12.144
69796W        W40396  17.770  30.143  11.038
69797W        W40397  22.229  21.208  12.809
69798W        W40398  43.060  27.520  11.220
69799W        W40399  39.100   3.864  11.516
69800W        W40400   5.500   7.528  10.921
69801W        W40401  17.549  21.146  11.185
69802W        W40402  22.050  19.022   4.034
69803W        W40403  43.741  28.197   1.753
69804W        W40404  30.483  26.726   4.079
69805W        W40405  34.054  17.108   3.558
69806W        W40406  32.564   2.668   0.461
69807W        W40407  33.847   7.307   0.378
69808W        W40408  43.687  36.290  10.729
69809W        W40409  37.130  29.000  13.046
69810W        W40410  11.053  44.796   4.179
69811W        W40411  15.367   0.460  12.830
69812W        W40412  40.261  25.963  13.878
69813W        W40413  33.920   6.897  11.213
69814W        W40414  34.668  37.023  10.729
69815W        W40415  41.033   0.965  10.725
69816W        W40416   5.700  16.609  13.114
69817W        W40417  36.566  41.438   3.574
69818W        W40418  34.347  20.808   1.498
69819W        W40419  37.662   2.940   3.980
69820W        W40420  19.055  34.541  10.650
69821W        W40421  44.266  18.276  11.447
69822W        W40422  44.627  27.501   2.900
69823W        W40423  27.680  10.005   2.249
69824W        W40424  17.062   0.509  14.847
69825W        W40425  44.968  36.809  13.588
69826W        W40426  27.203  19.476  14.961
69827W        W40427  24.895  20.276   3.648
69828W        W40428  11.276  18.446  11.539
69829W        W40429  21.123  27.678  10.630
69830W        W40430  23.131   8.815   3.254
69831W        W40431  28.677  17.836  13.722
69832W        W40432   7.342  10.929  12.590
69833W        W40433   3.614  42.850   0.296
69834W        W40434  14.799  26.149   4.856
69835W        W40435  28.022  18.187   2.308
69836W        W40436  37.961   5.085  11.162
69837W        W40437  41.102   9.717   2.872
69838W        W40438  22.516  39.745  12.060
69839W        W40439  35.594   3.408  12.434
69840W        W40440  11.616  37.463  11.684
69841W        W40441  31.819   1.412  11.920
69842W        W40442  20.286  30.109  12.047
69843W        W40443   4.820  30.863   0.744
69844W        W40444  12.900   5.961   0.812
69845W        W40445  26.022  37.124   3.197
69846W        W40446  35.859  18.070  14.836
69847W        W40447   2.663  42.861  10.656
69848W        W40448  24.886  37.360   2.691
69849W        W40449  19.957   6.657   3.927
69850W        W40450  21.091   1.336   0.490
69851W        W40451  17.714  24.781  13.841
69852W        W40452  11.169   6.477   3.236
69853W        W40453  37.604  41.570  12.076
69854W        W40454  41.337   9.771  10.910
69855W        W40455  23.146  28.992  10.255
69856W        W40456  12.877   3.211   0.248
69857W        W40457  14.776  10.585   1.724
69858W        W40458   8.763   7.431  10.677
69859W        W40459  39.662  23.685  10.767
69860W        W40460   9.730   3.583   1.558
69861W        W40461  21.003  39.406  11.634
69862W        W40462   6.779  44.629  13.526
69863W        W40463  15.216  41.896  13.372
69864W        W40464  13.515   1.414   0.099
69865W        W40465   9.606  32.078   0.047
69866W        W40466  35.618  19.802  10.990
69867W        W40467   0.895  19.501   4.156
69868W        W40468   3.843  11.282   1.402
69869W        W40469   8.722  30.411  13.390
69870W        W40470   7.427  36.899  10.790
69871W        W40471   2.359  40.208   4.719
69872W        W40472   3.959  16.862   1.539
69873W        W40473   9.843  43.496   0.809
69874W        W40474   2.795   4.283   4.481
69875W        W40475  44.255  31.697   0.900
69876W        W40476  11.774  35.603  10.765
69877W        W40477  13.577  25.736  12.358
69878W        W40478  27.906  11.761  14.233
69879W        W40479  38.784  37.865   1.957
69880W        W40480  24.565  23.144  12.482
69881W        W40481  40.284   5.307  11.930
69882W        W40482  12.040   3.378  13.405
69883W        W40483  33.630  12.886  12.465
69884W        W40484   3.228   9.089  11.776
69885W        W40485   1.172   2.099  10.998
69886W        W40486   9.078  26.289  14.421
69887W        W40487  22.326   3.308  11.516
69888W        W40488  17.791   7.697   4.646
69889W        W40489   6.273  38.579   0.858
69890W        W40490  25.913  39.777   1.272
69891W        W40491  30.229  11.403  14.506
69892W        W40492  21.718  28.785  12.266
69893W        W40493  33.164  33.145  11.172
69894W        W40494   5.373  32.633   1.551
69895W        W40495  25.274  12.260   2.796
69896W        W40496   5.450   4.936  13.038
69897W        W40497  39.382   2.450   3.130
69898W        W40498  42.367  32.895   2.914
69899W        W40499  16.305   3.478  13.885
69900W        W40500  12.738  22.698   4.145
69901W        W40501  10.387  32.209  12.568
69902W        W40502  41.308   3.974  12.120
69903W        W40503  27.263  12.134   0.301
69904W        W40504  12.306  17.054   2.866
69905W        W40505  26.178  38.944   1.510
69906W        W40506   0.929  29.124  11.598
69907W        W40507  39.530  16.940  10.489
69908W        W40508  23.536  17.704  14.026
69909W        W40509  42.748  34.795   4.125
69910W        W40510  24.259  26.983   2.220
69911W        W40511   5.952  43.886   2.373
69912W        W40512  23.378   8.150  13.844
69913W        W40513  35.160  15.792   0.180
69914W        W40514  10.932  13.310   1.133
69915W        W40515  34.410  16.767   1.450
69916W        W40516  11.553  35.667  14.452
69917W        W40517  20.240  44.920  10.309
69918W        W40518  26.000  44.435   1.785
69919W        W40519  29.983  14.709  11.229
69920W        W40520  19.957  30.028  12.652
69921W        W40521  15.485  29.541  13.455
69922W        W40522   3.442  29.344  10.271
69923W        W40523   3.829   9.941   0.258
69924W        W40524  20.258   3.529  12.105
69925W        W40525  15.604  10.726  13.785
69926W        W40526  30.397  26.104  14.078
69927W        W40527  38.517  33.903  11.688
69928W        W40528  32.430   1.262  11.147
69929W        W40529   6.339  24.016   1.511
69930W        W40530   1.504   3.045  14.462
69931W        W40531  25.038  27.299   3.825
69932W        W40532  25.541   6.054   5.007
69933W        W40533  40.773  34.905  13.294
69934W        W40534  25.096  24.298   3.689
69935W        W40535  26.471   9.217  11.152
69936W        W40536  11.283  25.674   2.132
69937W        W40537  20.199  21.130   3.886
69938W        W40538  42.843  33.665  12.603
69939W        W40539  23.415   8.752  11.695
69940W        W40540  38.766  41.258  11.639
69941W        W40541  14.567   2.839  10.712
69942W        W40542  15.591   5.853  12.648
69943W        W40543  31.260  18.530   3.593
69944W        W40544  26.917  41.583  12.161
69945W        W40545  25.506  37.955   2.900
69946W        W40546   0.329  16.324   4.070
69947W        W40547   9.181   3.132  11.650
69948W        W40548  15.119  14.064   2.165
69949W        W40549  11.291  43.586  11.598
69950W        W40550   6.925  13.931  11.214
69951W        W40551  41.136  13.818   4.088
69952W        W40552  31.196  42.906   4.633
69953W        W40553   7.307  33.937   4.701
69954W        W40554  24.148   7.978  13.442
69955W        W40555  25.831   4.213   4.193
69956W        W40556  37.250  37.989  13.010
69957W        W40557  13.244  24.912  10.717
69958W        W40558  34.577  11.423   0.837
69959W        W40559  14.590  41.438  10.129
69960W        W40560  22.834  29.254  13.517
69961W        W40561  39.717  44.435   3.338
69962W        W40562  34.647  25.320  14.415
69963W        W40563  30.672  26.949   3.184
69964W        W40564  29.588  20.764   0.886
69965W        W40565  21.092  26.207   1.927
69966W        W40566  28.219  44.716   2.221
69967W        W40567  16.572   3.779  10.715
69968W        W40568  16.504  29.643  13.348
69969W        W40569  41.520  44.405  13.369
69970W        W40570  11.240   3.414   2.254
69971W        W40571  34.302  29.662  10.626
69972W        W40572  42.347  10.835  12.978
69973W        W40573  11.273  15.828  14.107
69974W        W40574  32.017   2.111  12.650
69975W        W40575  16.560  43.298   3.746
69976W        W40576  42.334  28.054  12.677
69977W        W40577   9.726  37.866  13.495
69978W        W40578  23.316  28.200  13.489
69979W        W40579  16.220  30.597  11.922
69980W        W40580  43.469  15.292  13.524
69981W        W40581  13.199  26.065  12.145
69982W        W40582   9.272   0.897   0.424
69983W        W40583  33.876  24.456   0.004
69984W        W40584  25.546  28.599  13.388
69985W        W40585  43.747   7.635  12.185
69986W        W40586   9.574  43.790   2.521
69987W        W40587  12.224  35.465   3.128
69988W        W40588  39.124  44.058  14.006
69989W        W40589  34.472  10.283   1.937
69990W        W40590  13.262  44.371   4.199
69991W        W40591   7.673  13.302  13.016
69992W        W40592  11.026  36.185   3.153
69993W        W40593   7.311   5.389  14.969
69994W        W40594  19.213   9.078   4.163
69995W        W40595   9.631  37.949   4.427
69996W        W40596  17.351  30.127   3.696
69997W        W40597  38.582   9.633  14.752
69998W        W40598  29.283  17.921   1.723
69999W        W40599  21.254  26.436   2.811
70000W        W40600   2.205  19.381  10.855
70001W        W40601  30.330  15.102   0.636
70002W        W40602  16.926   4.758  14.306
70003W        W40603  37.514  31.915  11.016
70004W        W40604  24.700  12.805   0.758
70005W        W40605   4.344  11.771  11.368
70006W        W40606  36.927  19.207  13.395
70007W        W40607  44.016  12.611   0.288
70008W        W40608  34.395  17.582   2.837
70009W        W40609  16.686   1.354   4.583
70010W        W40610  11.060  35.050   2.789
70011W        W40611   7.886  38.978   2.741
70012W        W40612  32.616  34.161   1.346
70013W        W40613  23.220  42.248  11.686
70014W        W40614  42.128  33.162   1.717
70015W        W40615   5.717  40.588  11.619
70016W        W40616   3.628  37.385  10.680
70017W        W40617   3.572   1.816  11.210
70018W        W40618   7.409  13.389  14.997
70019W        W40619  40.976  36.126  11.801
70020W        W40620  44.486  31.643   0.449
70021W        W40621  43.414  11.294  14.275
70022W        W40622  39.089  19.784   2.306
70023W        W40623  24.613  18.121  11.629
70024W        W40624  32.673  41.035   4.155
70025W        W40625  28.132   7.784  14.807
70026W        W40626  30.786  31.122  11.480
70027W        W40627  35.171  44.300   0.820
70028W        W40628  11.119  26.281   4.070
70029W        W40629  15.760  33.288  13.829
70030W        W40630  26.111   1.655  10.589
70031W        W40631   2.973  30.671  10.685
70032W        W40632  36.497   9.393  14.392
70033W        W40633  24.696   0.646   1.622
70034W        W40634  39.093   6.957   1.786
70035W        W40635  41.844  23.986  12.558
70036W        W40636   1.391  20.823   0.168
70037W        W40637  42.750  38.085  12.949
70038W        W40638  31.969  10.372   0.688
70039W        W40639  36.034  11.597   4.128
70040W        W40640  21.512  38.355   0.934
70041W        W40641  35.615   3.897  11.060
70042W        W40642  41.892  28.243  11.623
70043W        W40643  36.477  21.961  10.393
70044W        W40644  14.345  34.985   2.739
70045W        W40645  34.402  10.400  12.392
70046W        W40646  28.467  28.035   2.338
70047W        W40647  28.635  26.978  14.709
70048W        W40648  34.157  16.246   4.087
70049W        W40649  22.237  43.539   2.755
70050W        W40650  34.902  33.967   1.700
70051W        W40651  34.363  39.794  13.510
70052W        W40652   6.290  18.507  13.449
70053W        W40653  38.104  44.362  12.032
70054W        W40654  10.865  31.341   2.778
70055W        W40655  43.651   6.838   2.234
70056W        W40656  22.441  42.279   1.794
70057W        W40657   7.708  15.333   2.676
70058W        W40658  20.666  20.686   2.628
70059W        W40659  11.760  10.589  12.046
70060W        W40660  37.552   2.857  13.089
70061W        W40661  25.641  15.471  10.298
70062W        W40662  15.522  22.601   4.201
70063W        W40663   4.301   9.688   1.314
70064W        W40664  14.164  11.755  12.961
70065W        W40665  36.906  38.222  13.430
70066W        W40666  14.320  33.408   2.279
70067W        W40667  21.193  26.532  11.605
70068W        W40668   2.798  38.418   0.779
70069W        W40669  18.355  29.145   2.183
70070W        W40670  31.632  29.863  12.059
70071W        W40671   7.709  10.840  10.791
70072W        W40672  43.456  36.906   3.259
70073W        W40673  28.577   0.986   0.878
70074W        W40674   2.297  17.221  13.173
70075W        W40675  40.510  26.759  13.842
70076W        W40676  35.943  34.003  10.432
70077W        W40677  30.106   1.847   0.194
70078W        W40678  22.300  29.398   0.256
70079W        W40679   0.067   1.407  14.856
70080W        W40680  32.691   7.688   1.794
70081W        W40681  34.572  26.613  11.224
70082W        W40682   0.349  31.121  12.866
70083W        W40683   7.720  40.411  10.320
70084W        W40684  16.639  32.926  12.021
70085W        W40685  15.714  33.469  11.117
70086W        W40686  27.212  19.000  13.881
70087W        W40687  17.511  31.150  11.926
70088W        W40688  29.000  23.507  14.347
70089W        W40689  25.502   7.987   2.241
70090W        W40690  37.313  14.174   3.560
70091W        W40691  14.512  11.725   3.475
70092W        W40692   5.970  33.094  11.591
70093W        W40693  16.721  25.454   0.337
70094W        W40694  18.211  37.985   4.852
70095W        W40695   6.942   2.380   2.796
70096W        W40696   8.044  14.633  14.062
70097W        W40697   6.884  35.635  12.450
70098W        W40698  23.517   1.994  13.488
70099W        W40699   1.009   1.469  12.144
70100W        W40700  14.459  12.019  12.095
70101W        W40701   8.445  37.996  12.700
70102W        W40702  12.169  39.884  10.344
70103W        W40703  22.516   1.541   1.684
70104W        W40704  13.169  20.532  10.749
70105W        W40705  25.960  30.414   4.083
70106W        W40706  14.774  31.381   0.450
70107W        W40707   0.745  36.701   3.626
70108W        W40708  33.896  14.463   4.491
70109W        W40709  22.223  39.813   0.097
70110W        W40710  11.385  10.977  13.480
70111W        W40711   2.459  35.673  12.090
70112W        W40712  21.340   9.905   3.634
70113W        W40713   1.284  22.563   4.211
70114W        W40714  16.626   1.283   0.886
70115W        W40715   2.826   0.835   1.255
70116W        W40716  41.065  17.276   0.779
70117W        W40717  11.128  10.787   1.955
70118W        W40718  40.893   5.940  14.467
70119W        W40719  20.115  15.745  11.913
70120W        W40720  28.740  10.423   0.791
70121W        W40721  20.577  38.065  12.147
70122W        W40722  27.641  38.628  13.766
70123W        W40723  34.641  22.781   1.280
70124W        W40724  33.472  20.261   1.300
70125W        W40725   2.240  23.201  13.047
70126W        W40726   1.714  29.672  11.957
70127W        W40727  40.737  28.529   3.174
70128W        W40728  28.231  14.297  11.602
70129W        W40729   1.500   8.256  11.183
70130W        W40730  32.743  22.992  11.792
70131W        W40731  10.842  40.832  10.620
70132W        W40732  16.133  41.147  12.191
70133W        W40733  32.986  26.330  10.251
70134W        W40734  37.497  35.562   3.894
70135W        W40735  10.382  26.392   1.199
70136W        W40736  44.407  20.291  13.607
70137W        W40737  25.481  24.146  14.881
70138W        W40738  27.659  20.715   2.202
70139W        W40739  42.979  24.511   0.338
70140W        W40740  31.371   2.198   0.934
70141W        W40741  16.033  36.510   0.830
70142W        W40742   0.182   5.216  13.608
70143W        W40743   8.262  43.655   0.245
70144W        W40744  40.921   5.821   0.061
70145W        W40745   0.867  20.537  12.609
70146W        W40746  24.416   2.860   1.389
70147W        W40747   5.215   9.683   4.566
70148W        W40748  30.103   5.133  14.478
70149W        W40749  19.529   0.488  11.620
70150W        W40750  10.509  33.132   1.803
70151W        W40751  23.005  38.198   2.234
70152W        W40752   7.392  41.430  14.059
70153W        W40753  26.968  40.378  14.709
70154W        W40754  28.863  10.331   1.680
70155W        W40755  12.063  33.576   3.091
70156W        W40756  30.200  20.619  13.012
70157W        W40757   5.761  26.870  13.998
70158W        W40758  28.182  18.204   0.218
70159W        W40759  27.868  25.569  12.042
70160W        W40760   8.204  22.642   0.384
70161W        W40761  13.628   1.426   0.965
70162W        W40762  24.546  20.247   2.679
70163W        W40763   7.221  25.112   0.592
70164W        W40764  29.542  22.720  11.589
70165W        W40765  14.159  20.138   4.575
70166W        W40766  25.272  42.818   3.609
70167W        W40767  13.555  22.399   0.752
70168W        W40768  29.362  26.196  10.948
70169W        W40769  25.542   6.710   0.393
70170W        W40770  14.642  32.914  12.611
70171W        W40771   1.906  43.702   3.312
70172W        W40772  40.469  31.562  12.479
70173W        W40773  42.988   5.683  12.956
70174W        W40774  27.751   8.657   1.117
70175W        W40775  44.260  12.631   4.203
70176W        W40776  27.147  15.920   1.447
70177W        W40777  41.252  29.585  11.619
70178W        W40778  20.016  35.736   3.241
70179W        W40779  27.096  19.738  13.370
70180W        W40780   7.429  33.003  11.610
70181W        W40781   5.815  36.672   0.715
70182W        W40782  35.446   4.982   3.119
70183W        W40783  24.608  18.028  12.522
70184W        W40784  20.960  41.758  12.597
70185W        W40785  32.514  29.177   2.826
70186W        W40786  20.049   0.880   1.884
70187W        W40787  43.313   8.279  12.316
70188W        W40788  37.750   1.899   3.084
70189W        W40789  33.874  44.947  12.050
70190W        W40790  34.204  29.710   2.385
70191W        W40791  44.212  17.613   1.228
70192W        W40792  18.104  18.526  13.303
70193W        W40793  32.826  37.028   3.768
70194W        W40794  12.108  33.388  10.545
70195W        W40795  14.145   3.395   2.535
70196W        W40796  26.944   5.453   2.824
70197W        W40797  41.710  27.951  11.246
70198W        W40798   4.727  25.626  11.629
70199W        W40799  43.993  11.777  11.184
70200W        W40800  33.327   5.641  13.222
70201W        W40801   0.206  37.500   1.842
70202W        W40802  10.785  26.908  13.326
70203W        W40803  39.334   4.026  10.208
70204W        W40804  24.857   6.432  10.924
70205W        W40805  20.052  37.640   4.560
70206W        W40806   0.112   5.718   2.063
70207W        W40807  26.707  10.652  14.255
70208W        W40808   4.912   2.877   4.021
70209W        W40809  17.590   7.800  14.843
70210W        W40810  30.469  28.958  12.053
70211W        W40811  34.356   0.724   1.705
70212W        W40812  41.459  26.680   4.323
70213W        W40813  41.640   4.054   2.799
70214W        W40814  23.657  10.217  11.408
70215W        W40815   8.119  18.670  14.735
70216W        W40816  43.174  38.032  11.737
70217W        W40817  17.405   7.295  13.824
70218W        W40818  40.851   9.962   0.225
70219W        W40819  14.161  19.592  14.498
70220W        W40820   0.949   0.979   2.935
70221W        W40821  15.362  20.658  12.402
70222W        W40822  40.019   9.573  11.652
70223W        W40823   3.933  15.064   3.509
70224W        W40824   8.444  25.173   1.400
70225W        W40825   6.834   1.430  13.910
70226W        W40826  24.313  11.673  12.337
70227W        W40827  19.251  20.080   4.138
70228W        W40828   5.646   3.331   1.904
70229W        W40829   7.157  16.534   3.294
70230W        W40830   6.329   0.905  14.473
70231W        W40831   0.322  32.771   0.415
70232W        W40832  24.411  43.191   4.204
70233W        W40833  15.796   6.396   2.685
70234W        W40834  33.049   2.336   4.852
70235W        W40835  27.875  10.645  13.292
70236W        W40836  22.115  16.578   1.301
70237W        W40837  13.567   1.704   4.942
70238W        W40838   3.218  30.218   0.262
70239W        W40839  38.901  24.927   3.280
70240W        W40840   8.964  36.816   4.150
70241W        W40841   7.786  17.232  13.633
70242W        W40842  13.832  22.347   4.478
70243W        W40843   6.565   9.406  10.773
70244W        W40844  22.054   8.379  13.726
70245W        W40845  40.999  13.626   1.014
70246W        W40846  40.986  41.779   0.026
70247W        W40847   9.980   3.419   2.960
70248W        W40848  30.567  20.271  13.661
70249W        W40849  28.029   1.843  13.810
70250W        W40850  11.377  40.275  14.317
70251W        W40851  29.652  43.037   4.484
70252W        W40852   9.943  32.820  13.069
70253W        W40853  21.098   8.886  12.736
70254W        W40854  21.263  13.148   4.448
70255W        W40855  13.372  42.210   1.701
70256W        W40856  29.333  31.851  11.752
70257W        W40857  12.101  20.315  12.147
70258W        W40858  17.850  40.082   4.684
70259W        W40859  40.762  19.122   2.796
70260W        W40860   3.336  14.746   2.233
70261W        W40861  12.310  22.298  14.819
70262W        W40862  15.181  33.000  12.065
70263W        W40863   6.695   5.343   3.653
70264W        W40864  29.132  40.255   0.939
70265W        W40865   1.497  40.387  13.434
70266W        W40866  26.311   0.079  11.797
70267W        W40867   4.636  25.460   4.510
70268W        W40868  15.290  22.282   0.314
70269W        W40869  38.541  41.440  12.044
70270W        W40870  24.682   7.014  13.839
70271W        W40871  44.459  11.737   5.378
70272W        W40872  17.544   8.630  11.575
70273W        W40873  15.140  44.054   3.157
70274W        W40874  27.210  13.304  12.991
70275W        W40875  40.728  19.822  14.290
70276W        W40876  34.419  15.290   2.690
70277W        W40877   6.702  14.678  12.865
70278W        W40878  10.104  29.039   4.392
70279W        W40879  16.259  12.880   0.431
70280W        W40880  26.326  35.947   4.619
70281W        W40881  24.538  37.517  10.624
70282W        W40882  11.043  35.946   2.337
70283W        W40883  19.932   1.403  14.543
70284W        W40884   5.867   2.449  14.081
70285W        W40885  42.862  31.341   2.209
70286W        W40886  23.936   1.424  12.467
70287W        W40887  44.473  23.434   4.212
70288W        W40888  35.544   9.115   2.130
70289W        W40889  39.704  18.404  12.320
70290W        W40890  20.692  13.493   2.913
70291W        W40891  37.780  22.564  11.082
70292W        W40892   7.813  44.604  12.483
70293W        W40893   3.874  20.543   2.993
70294W        W40894  40.986   1.009   4.503
70295W        W40895  19.815  26.926  14.378
70296W        W40896  18.583  33.928  13.652
70297W        W40897  12.571  15.066   4.482
70298W        W40898  22.233  21.285   4.149
70299W        W40899  34.979  14.739  12.006
70300W        W40900  14.231  10.351  11.722
70301W        W40901  16.961   9.568  10.920
70302W        W40902  27.022  15.792   3.800
70303W        W40903  22.080   3.977  14.950
70304W        W40904  23.189  25.767  13.340
70305W        W40905  28.058  12.835   3.712
70306W        W40906  24.452  15.169   0.554
70307W        W40907  26.137  30.646   0.732
70308W        W40908  33.180  22.064  12.898
70309W        W40909  26.928  21.662  14.314
70310W        W40910  20.523  40.821   0.061
70311W        W40911  26.158  36.403  14.474
70312W        W40912  34.421  11.810   3.804
70313W        W40913  36.848  42.438   2.761
70314W        W40914  25.151  28.116   4.332
70315W        W40915   4.246  10.113   1.044
70316W        W40916  42.339  28.920   3.736
70317W        W40917  11.518  20.633  10.203
70318W        W40918  34.326  39.213   3.359
70319W        W40919   5.785   0.323   4.621
70320W        W40920  24.126  24.488  13.810
70321W        W40921   4.919  23.693   3.383
70322W        W40922  27.623   7.671  13.011
70323W        W40923  13.701  24.518  14.077
70324W        W40924  25.987  37.586   1.330
70325W        W40925  11.660  30.910  14.948
70326W        W40926  17.492   9.656   2.308
70327W        W40927  22.252   5.832   3.625
70328W        W40928  19.967  23.481  11.978
70329W        W40929  42.829  13.780   0.298
70330W        W40930  35.417  33.840  14.030
70331W        W40931  15.351  21.734  12.966
70332W        W40932  22.918  33.004  13.460
70333W        W40933   8.245  18.899  12.005
70334W        W40934  26.031  36.134   0.702
70335W        W40935  16.608  31.599   3.288
70336W        W40936   0.495  16.137   1.791
70337W        W40937  39.525  21.101  11.464
70338W        W40938  43.153  38.882  12.718
70339W        W40939  38.175  20.021   0.395
70340W        W40940  21.935  11.567  11.642
70341W        W40941   1.778  19.052  10.754
70342W        W40942  33.518  29.692  14.046
70343W        W40943  22.909  29.456  11.929
70344W        W40944   1.494  32.075   0.055
70345W        W40945  32.073  13.169   0.741
70346W        W40946  23.119  15.322   3.682
70347W        W40947  44.205  21.721  14.326
70348W        W40948  15.822  40.734   1.691
70349W        W40949  22.104  33.576   2.304
70350W        W40950  25.406  26.553   4.784
70351W        W40951  18.504  39.879   2.340
70352W        W40952  44.318  44.806   5.101
70353W        W40953  24.273  32.923   2.786
70354W        W40954  16.612  38.324  14.453
70355W        W40955  26.062  13.809   4.744
70356W        W40956  23.124   1.470  10.709
70357W        W40957  10.744   7.683   0.503
70358W        W40958   4.536  13.711   4.870
70359W        W40959  32.508   0.287   3.378
70360W        W40960  23.969   8.916  12.163
70361W        W40961  36.400   3.349   2.326
70362W        W40962  39.187   7.917   3.723
70363W        W40963  22.350  32.064  13.476
70364W        W40964   5.951  24.510   0.437
70365W        W40965   8.132  17.918   3.148
70366W        W40966  23.309   5.973  12.123
70367W        W40967  26.003  28.507   1.367
70368W        W40968  33.215  22.555  14.054
70369W        W40969  30.983  22.627  10.138
70370W        W40970  25.125  28.230  13.960
70371W        W40971  27.683  15.634   2.193
70372W        W40972  41.896  35.048  14.833
70373W        W40973  21.919  38.366   2.371
70374W        W40974  13.010  41.011   3.941
70375W        W40975   2.803  16.572   0.926
70376W        W40976  23.599  16.948   0.525
70377W        W40977  30.940  28.199   1.232
70378W        W40978  39.309  17.515  14.600
70379W        W40979  16.900  29.650  12.581
70380W        W40980   4.600  43.020   9.974
70381W        W40981  15.135   5.984  12.461
70382W        W40982  17.499  27.185   3.771
70383W        W40983  42.306  10.701   1.392
70384W        W40984  10.209  44.521   4.159
70385W        W40985   4.253  39.796   2.837
70386W        W40986  22.708  36.536   1.734
70387W        W40987  19.544  17.340   4.184
70388W        W40988   0.390  27.459  14.741
70389W        W40989  30.156  37.981   4.543
70390W        W40990  40.760  22.287   4.602
70391W        W40991  39.430  19.285   1.901
70392W        W40992  36.964   9.290   3.155
70393W        W40993  42.444  27.234   0.402
70394W        W40994   7.133   3.244   0.182
70395W        W40995  20.129  27.190   3.712
70396W        W40996  10.270  17.383   1.229
70397W        W40997   3.031  22.562   3.254
70398W        W40998  18.385  30.884   4.135
70399W        W40999  22.395  39.250   4.186
70400W        W41000  36.680  18.181   1.733
70401W        W41001  15.815  40.010   0.352
70402W        W41002  29.342  31.062   1.312
70403W        W41003  20.724  38.758   2.075
70404W        W41004  26.928  20.151  12.567
70405W        W41005  26.161  32.018   0.328
70406W        W41006  14.614   4.693  12.567
70407W        W41007   4.673  41.638  13.568
70408W        W41008  11.319   8.373  11.616
70409W        W41009  23.522  22.777  13.811
70410W        W41010   3.870   5.406   1.487
70411W        W41011  43.417  15.655   3.211
70412W        W41012  30.009  40.230   2.215
70413W        W41013  18.509  43.408  13.556
70414W        W41014  17.049   9.128  13.796
70415W        W41015  30.406  23.575  14.919
70416W        W41016  28.453  30.635   2.941
70417W        W41017  18.468  13.140  13.907
70418W        W41018  36.845  18.309  12.900
70419W        W41019   6.148  31.123  12.511
70420W        W41020  13.415  29.402   1.767
70421W        W41021  21.266  21.115  11.627
70422W        W41022  38.895  29.967  10.450
70423W        W41023   7.274  38.721   5.457
70424W        W41024  21.513   2.478  11.006
70425W        W41025   7.919  21.837  12.954
70426W        W41026  10.320  21.122   1.822
70427W        W41027  12.296  13.411   0.906
70428W        W41028  31.014  37.077   1.933
70429W        W41029  22.252  16.820  11.112
70430W        W41030  40.603  25.987  14.907
70431W        W41031  16.548   0.512   4.119
70432W        W41032  43.956  36.871  13.496
70433W        W41033  33.724  27.455   4.726
70434W        W41034   4.223   6.912  10.612
70435W        W41035  15.943  42.729   5.577
70436W        W41036  17.542   2.948  11.201
70437W        W41037  12.236   6.685   4.751
70438W        W41038  29.040  12.619  10.571
70439W        W41039  11.382  34.585  13.051
70440W        W41040  44.701  37.162  10.922
70441W        W41041   7.401  42.352  12.579
70442W        W41042  34.681   1.798   0.378
70443W        W41043  31.935  22.484   1.269
70444W        W41044  21.135  40.041   2.741
70445W        W41045  23.487  20.634   0.729
70446W        W41046  36.547  43.984  13.405
70447W        W41047  35.573   7.382   3.293
70448W        W41048  43.732  36.831   4.467
70449W        W41049  43.207  18.128   0.959
70450W        W41050  14.057  12.151   2.143
70451W        W41051  39.275  31.405   2.415
70452W        W41052  25.459  33.947   1.982
70453W        W41053  37.103   5.227  14.790
70454W        W41054  21.157  31.084   3.247
70455W        W41055   2.607  13.578   4.351
70456W        W41056  34.150   1.528  11.332
70457W        W41057   0.453  36.080  11.922
70458W        W41058   0.662  24.211  12.120
70459W        W41059  35.701  32.077   3.113
70460W        W41060  20.264  32.597   4.147
70461W        W41061  19.261  13.592  11.523
70462W        W41062   9.235   4.471  13.528
70463W        W41063  10.106  35.999  11.195
70464W        W41064  18.700  15.517  12.914
70465W        W41065  19.100  25.934   2.951
70466W        W41066  29.525  32.967   4.753
70467W        W41067  22.161  42.527  13.841
70468W        W41068  41.738  13.133   3.353
70469W        W41069  15.286  11.238  12.571
70470W        W41070  32.855  21.517   1.707
70471W        W41071  17.715  27.389   0.869
70472W        W41072  19.662  31.865   0.769
70473W        W41073  37.562  24.941  13.528
70474W        W41074  34.569  37.813   3.857
70475W        W41075  22.106  36.873   3.604
70476W        W41076  15.995  15.306  13.901
70477W        W41077  25.057  40.670  11.316
70478W        W41078   6.322  34.974   2.239
70479W        W41079  33.628  12.756  11.580
70480W        W41080  10.776  30.025  14.938
70481W        W41081   2.253  14.658  14.461
70482W        W41082  15.564  38.578  11.452
70483W        W41083  42.024  27.456   0.206
70484W        W41084  22.449  28.722   1.235
70485W        W41085  44.931  28.593  12.186
70486W        W41086  35.134  13.852   0.953
70487W        W41087  41.319  43.275   4.824
70488W        W41088  23.921  36.399  13.868
70489W        W41089   4.051  27.144  10.711
70490W        W41090   7.451   3.230  13.832
70491W        W41091  26.295  19.851  11.169
70492W        W41092  26.495  11.795   3.495
70493W        W41093  12.005  34.915  14.285
70494W        W41094  15.882  24.692   1.272
70495W        W41095  30.852  26.167  14.375
70496W        W41096  16.413  25.534   3.708
70497W        W41097  43.837  23.143  13.984
70498W        W41098  21.628  29.425  10.661
70499W        W41099   9.039  44.951   2.701
70500W        W41100  27.461  33.622  11.136
70501W        W41101  39.014   4.449   0.445
70502W        W41102   7.817  39.241   0.092
70503W        W41103  32.953  28.972   4.327
70504W        W41104  41.829  20.647   2.200
70505W        W41105   0.751   7.313   4.909
70506W        W41106  13.384  30.029   4.904
70507W        W41107  24.191   1.730  13.688
70508W        W41108  22.937  38.257  14.338
70509W        W41109   2.857   3.317   3.287
70510W        W41110  44.821  11.673  14.171
70511W        W41111  22.138   7.114   4.630
70512W        W41112  43.821   5.650  12.890
70513W        W41113  37.924   5.230  11.649
70514W        W41114  17.585   6.432   4.099
70515W        W41115  19.097  14.705   4.458
70516W        W41116   3.727  17.596   2.414
70517W        W41117  13.285  15.806  11.960
70518W        W41118  39.960  43.719   0.197
70519W        W41119  13.370  44.291   2.442
70520W        W41120  17.616  20.898  11.622
70521W        W41121  11.903  35.571   0.824
70522W        W41122  20.458  29.514   1.865
70523W        W41123   8.669   9.408  13.511
70524W        W41124  21.277  17.112   1.848
70525W        W41125   4.457  31.968  14.190
70526W        W41126  25.082  15.200  12.293
70527W        W41127  35.826   5.910  14.906
70528W        W41128  39.213  18.643  13.906
70529W        W41129  35.610  44.432  14.849
70530W        W41130  41.289  11.484   1.381
70531W        W41131   5.796  12.813  11.093
70532W        W41132   9.328   2.124   0.603
70533W        W41133  33.568  14.079   3.388
70534W        W41134  29.411  28.901   1.793
70535W        W41135  22.817  34.360  14.000
70536W        W41136  39.034   5.415  14.060
70537W        W41137   3.661  17.145   3.710
70538W        W41138   9.689  20.020  11.661
70539W        W41139   0.828  21.290   1.350
70540W        W41140   4.054  11.128   3.874
70541W        W41141  41.094  38.647  14.080
70542W        W41142  25.102  44.398   9.913
70543W        W41143   7.755  40.005  10.642
70544W        W41144  38.378  33.176   0.382
70545W        W41145  31.948   0.790  10.750
70546W        W41146  40.524  14.606  13.133
70547W        W41147  18.255  24.544   0.942
70548W        W41148   2.817   1.608  10.955
70549W        W41149   7.428   9.628  11.108
70550W        W41150  44.292   5.764   0.421
70551W        W41151  33.046  31.389   4.488
70552W        W41152  12.230  32.341  11.948
70553W        W41153  42.913  10.955   2.688
70554W        W41154  10.149  17.943  12.013
70555W        W41155  40.579  41.430  10.743
70556W        W41156  15.392  16.967  13.969
70557W        W41157  34.527   7.882   0.811
70558W        W41158  32.482  44.823  12.517
70559W        W41159  13.469  13.342  13.283
70560W        W41160  22.928  13.830  14.937
70561W        W41161  44.447  43.452   1.315
70562W        W41162  28.058   7.591  12.767
70563W        W41163  32.475  31.236   3.271
70564W        W41164  13.039  26.306   2.702
70565W        W41165  23.948   3.303  10.209
70566W        W41166  28.890  36.408  13.588
70567W        W41167   1.142  10.179   2.861
70568W        W41168  12.621  10.687  10.911
70569W        W41169  26.160  33.623  14.866
70570W        W41170  42.979   6.961  11.978
70571W        W41171  34.985  11.795   3.133
70572W        W41172   1.604  39.069  11.967
70573W        W41173  33.445  24.794  12.274
70574W        W41174  24.711  39.864  11.457
70575W        W41175  19.965  33.361   1.665
70576W        W41176  35.514   7.360  13.395
70577W        W41177  18.806  33.450   0.839
70578W        W41178  30.335  41.826  14.770
70579W        W41179  38.070  18.545  10.560
70580W        W41180  16.188   9.140   0.865
70581W        W41181  15.765  31.654   4.329
70582W        W41182  15.898   1.826   0.427
70583W        W41183   2.731  17.350   4.721
70584W        W41184  34.281  33.537   0.460
70585W        W41185  33.329  41.707  13.059
70586W        W41186  23.083  35.457  11.671
70587W        W41187  12.610  37.117   1.839
70588W        W41188  35.101  29.233  11.250
70589W        W41189  25.547  44.693   3.252
70590W        W41190  16.502   0.365  12.016
70591W        W41191  13.676  12.360  11.141
70592W        W41192  31.594  11.813   1.945
70593W        W41193   3.177   9.725  14.413
70594W        W41194  38.070  32.072  11.200
70595W        W41195  17.790  28.544   1.732
70596W        W41196   1.483   9.229   0.336
70597W        W41197   1.174   7.282  12.186
70598W        W41198  16.350  24.186  11.666
70599W        W41199  31.334  41.396  12.636
70600W        W41200  20.979   2.557   4.554
70601W        W41201  19.527  25.934  11.530
70602W        W41202  39.483   0.695   2.860
70603W        W41203   8.637  23.651  14.498
70604W        W41204   0.433  36.890  11.554
70605W        W41205  27.107  28.929   1.781
70606W        W41206  21.233  36.505  12.656
70607W        W41207   8.241   3.395  13.464
70608W        W41208  20.996  24.366  11.105
70609W        W41209  31.399  31.887  14.361
70610W        W41210   0.789   8.667   1.270
70611W        W41211   7.826  29.624   3.955
70612W        W41212  26.162   4.856  11.332
70613W        W41213  13.915   3.747  10.657
70614W        W41214  39.848  16.636  14.541
70615W        W41215  10.782  39.513   4.144
70616W        W41216  42.341  38.424   0.502
70617W        W41217  25.174   6.375  12.616
70618W        W41218  20.768  27.589   2.279
70619W        W41219  22.074  34.733  11.978
70620W        W41220  28.758  31.551   4.361
70621W        W41221   4.347  22.020  13.937
70622W        W41222  11.256  16.804   0.488
70623W        W41223   1.908   4.886   1.311
70624W        W41224  25.599  27.713   0.473
70625W        W41225   1.577  31.656   4.115
70626W        W41226   8.918  13.175   1.273
70627W        W41227  29.442  14.623   4.384
70628W        W41228   1.022  38.716  13.809
70629W        W41229  23.083  25.876   0.277
70630W        W41230   4.294  41.343  13.791
70631W        W41231  20.151  16.595   2.824
70632W        W41232  39.398  20.671  11.184
70633W        W41233  39.355  38.931  11.579
70634W        W41234  16.730  20.082  10.607
70635W        W41235  31.446  34.130  10.825
70636W        W41236  25.023  21.074   4.015
70637W        W41237   7.143  37.798   3.975
70638W        W41238  31.498  10.357  10.592
70639W        W41239  10.782   6.221  12.140
70640W        W41240  17.638  19.310   2.267
70641W        W41241   7.600   6.423   3.462
70642W        W41242   3.624  16.337  12.900
70643W        W41243   1.850  38.073  10.515
70644W        W41244   8.376  27.282   4.558
70645W        W41245  33.184  35.786   1.715
70646W        W41246  42.247  14.851   0.621
70647W        W41247   1.439  38.353   1.308
70648W        W41248   3.476  16.310  13.410
70649W        W41249  13.836  11.312  11.097
70650W        W41250  22.548  19.290  11.085
70651W        W41251  29.615   2.939  14.613
70652W        W41252   7.785  36.904  14.711
70653W        W41253  12.179   7.653   3.158
70654W        W41254  23.607  41.301   2.625
70655W        W41255  38.285  37.798  14.460
70656W        W41256  32.950   3.940   4.183
70657W        W41257  16.787   8.188  11.985
70658W        W41258   8.808  35.346  14.378
70659W        W41259  27.020  37.048   1.674
70660W        W41260  21.581  28.243   0.285
70661W        W41261  24.073  41.794   3.749
70662W        W41262  39.843  35.879  12.446
70663W        W41263   8.257  23.788   1.736
70664W        W41264  38.458  27.936  14.396
70665W        W41265  10.096   5.285  10.951
70666W        W41266  43.790  34.980  14.816
70667W        W41267  18.734  13.660  13.985
70668W        W41268  44.922   3.021   3.268
70669W        W41269  25.784  38.831  11.441
70670W        W41270  31.498  21.451  10.920
70671W        W41271  34.603  24.742   1.228
70672W        W41272   4.938  20.139   1.822
70673W        W41273   1.360  11.273  13.572
70674W        W41274  40.003   9.875   4.271
70675W        W41275  27.974  39.598  12.002
70676W        W41276  16.318  27.728   0.404
70677W        W41277  16.648   8.360  13.821
70678W        W41278  40.800  37.552  11.274
70679W        W41279  29.536  21.233  14.616
70680W        W41280  34.077  27.653  13.955
70681W        W41281  22.332  13.609   4.145
70682W        W41282  38.134  27.537  14.330
70683W        W41283  38.640  19.278  13.954
70684W        W41284  13.448  41.750   3.646
70685W        W41285  14.242  27.403  11.686
70686W        W41286  26.082  37.441   0.848
70687W        W41287   1.502  15.734   0.498
70688W        W41288   5.567  21.163   2.842
70689W        W41289  24.282  27.354  11.651
70690W        W41290  29.972  32.860  11.182
70691W        W41291  11.924   1.953  12.094
70692W        W41292   0.216   8.021   1.032
70693W        W41293  12.793   8.831  12.646
70694W        W41294  40.266  33.600   0.345
70695W        W41295  34.627  41.139  13.088
70696W        W41296  27.905   4.271   3.871
70697W        W41297  13.754  35.370   0.404
70698W        W41298  26.598  40.485   2.468
70699W        W41299  10.659  15.594   1.428
70700W        W41300  31.952  44.014   0.485
70701W        W41301  22.698  42.935  10.216
70702W        W41302   0.346  17.287  10.622
70703W        W41303  40.495  17.401  13.921
70704W        W41304  18.636   2.942   2.186
70705W        W41305  30.112  12.179  14.464
70706W        W41306  25.718   0.402   1.734
70707W        W41307  25.066  41.076  11.619
70708W        W41308   1.463   1.294  14.034
70709W        W41309  22.989  19.691   2.880
70710W        W41310  21.917   6.225   2.305
70711W        W41311  35.890  13.600  13.919
70712W        W41312  19.027   0.815   0.891
70713W        W41313  31.193  26.034  14.732
70714W        W41314  10.556  13.832   2.932
70715W        W41315  40.161   9.767  12.549
70716W        W41316  11.246  42.592   0.424
70717W        W41317  23.008  41.917   1.407
70718W        W41318  30.576   6.560   3.721
70719W        W41319  35.145  42.996  13.104
70720W        W41320  23.999  31.757   2.301
70721W        W41321  36.970  10.259   0.359
70722W        W41322   0.909  29.009  10.777
70723W        W41323  15.250  37.262   2.847
70724W        W41324   8.644  31.454   4.725
70725W        W41325   5.394   4.189   4.379
70726W        W41326  12.614  22.053   1.022
70727W        W41327   1.872  39.233  12.381
70728W        W41328  41.548   7.410  14.103
70729W        W41329  33.880  16.205  12.970
70730W        W41330  19.273   1.714   4.476
70731W        W41331  10.032  12.339  13.889
70732W        W41332   9.665  39.640  10.598
70733W        W41333  41.577   6.852  12.867
70734W        W41334  37.070  12.752   0.652
70735W        W41335   0.584  29.500   0.958
70736W        W41336  37.298  38.783  13.366
70737W        W41337  42.220  21.653   1.770
70738W        W41338   6.492   0.741   4.643
70739W        W41339  33.620  22.025  14.852
70740W        W41340   4.250  16.970   1.942
70741W        W41341  26.953   1.828   2.258
70742W        W41342  13.565  35.862   0.306
70743W        W41343   5.247  25.439  10.382
70744W        W41344  12.090  16.749   2.510
70745W        W41345  39.813  20.208  11.906
70746W        W41346  24.463  26.602  13.582
70747W        W41347  25.931  26.918   4.162
70748W        W41348  17.288  21.198   4.949
70749W        W41349  31.668  39.057  12.398
70750W        W41350  34.316  43.867  11.533
70751W        W41351   6.772  38.919  10.760
70752W        W41352  31.618  37.898   0.124
70753W        W41353  18.768   6.456   4.991
70754W        W41354  34.156  44.076  11.106
70755W        W41355  38.394  25.358  12.977
70756W        W41356  24.129  31.460  13.324
70757W        W41357   5.734  30.289  13.543
70758W        W41358  29.998  37.046  12.002
70759W        W41359  19.589  33.055   2.625
70760W        W41360  23.788  13.320  14.805
70761W        W41361  44.871  26.883   4.069
70762W        W41362  29.378  36.411   0.856
70763W        W41363  23.223  34.784   3.479
70764W        W41364  21.550  36.885  14.366
70765W        W41365  20.891   0.807  14.746
70766W        W41366  33.935  27.484  11.096
70767W        W41367  27.764  22.459  14.907
70768W        W41368  32.225  40.836   3.966
70769W        W41369  38.902   9.286   2.188
70770W        W41370  19.616   2.707   3.554
70771W        W41371   9.677  39.923   2.222
70772W        W41372  40.321  11.104  13.437
70773W        W41373  31.387  39.625   1.016
70774W        W41374  33.563  36.134  12.537
70775W        W41375   1.250  40.829  12.588
70776W        W41376  16.377  34.034  11.837
70777W        W41377  40.725  39.026   1.955
70778W        W41378  19.855   0.876  14.304
70779W        W41379  19.091  34.988   3.871
70780W        W41380  18.468  15.212   1.231
70781W        W41381  24.323   5.446   1.752
70782W        W41382   5.947   5.073  14.052
70783W        W41383  25.565  37.774   4.958
70784W        W41384  21.427  31.138   4.553
70785W        W41385  21.223  16.193  10.355
70786W        W41386  26.500  43.349  12.852
70787W        W41387  18.692   9.181   0.216
70788W        W41388  38.879  19.510  14.470
70789W        W41389  38.091  17.340  12.494
70790W        W41390   8.865  24.543  14.197
70791W        W41391  13.907   5.262  10.867
70792W        W41392  12.832   2.898   1.946
70793W        W41393  32.095  16.542   4.642
70794W        W41394   2.468   0.084  13.432
70795W        W41395  34.902  10.360  14.868
70796W        W41396  41.157  30.871   0.833
70797W        W41397   2.480   3.282   2.597
70798W        W41398  23.018  18.010   4.750
70799W        W41399  43.841   3.203  11.229
70800W        W41400  42.473  27.315   1.553
70801W        W41401  44.516  37.818   1.294
70802W        W41402   5.459  38.157  12.133
70803W        W41403  25.802  14.065  13.902
70804W        W41404  39.912   7.811  14.250
70805W        W41405  44.865  41.780  13.034
70806W        W41406  11.647   2.724   0.199
70807W        W41407  33.996  41.627   0.232
70808W        W41408  31.288  33.145   1.301
70809W        W41409  21.463  26.323   3.733
70810W        W41410  24.130  26.092   4.510
70811W        W41411   9.870  20.924  12.351
70812W        W41412  10.875  20.198   4.870
70813W        W41413  44.355  20.536  14.935
70814W        W41414   1.900  38.170   0.208
70815W        W41415   4.609  42.746  10.813
70816W        W41416   8.680  14.834   5.201
70817W        W41417  32.061  20.804  11.393
70818W        W41418  15.650   1.303   3.570
70819W        W41419  38.836  10.297   4.075
70820W        W41420  36.319  14.282   3.178
70821W        W41421  16.686  20.309   2.659
70822W        W41422  26.905  11.739   0.316
70823W        W41423   6.228  23.627  13.659
70824W        W41424  38.544  43.554  13.842
70825W        W41425  25.968  12.534  12.346
70826W        W41426  32.308  10.594  14.503
70827W        W41427  13.118  20.749   1.572
70828W        W41428   8.255   2.292  10.512
70829W        W41429  24.524  11.558   0.373
70830W        W41430  39.342  43.007  14.523
70831W        W41431  33.532   9.366   2.895
70832W        W41432   1.422   1.539  10.624
70833W        W41433  38.027  19.569  11.942
70834W        W41434   9.810   4.239   2.241
70835W        W41435  10.783  31.904  12.436
70836W        W41436  33.156  13.775  12.150
70837W        W41437  37.396  15.267   0.397
70838W        W41438   6.687  11.755  13.525
70839W        W41439  16.094  44.314  13.464
70840W        W41440   8.127  25.253   1.946
70841W        W41441  33.492  27.102   3.447
70842W        W41442  40.109  35.581  12.105
70843W        W41443   0.868  26.748  12.097
70844W        W41444   0.461  36.462   0.382
70845W        W41445  23.758  33.963  13.966
70846W        W41446  10.794  39.492   1.945
70847W        W41447  20.536  21.674   2.767
70848W        W41448  40.646   8.497   2.285
70849W        W41449  41.100  20.275  14.710
70850W        W41450  12.743  18.106   2.414
70851W        W41451  36.024  34.378   2.752
70852W        W41452   0.839   0.712  11.223
70853W        W41453  30.567  11.310   4.481
70854W        W41454   5.171  26.017   0.936
70855W        W41455  16.984  13.295  12.076
70856W        W41456  30.374  22.840   3.747
70857W        W41457  35.207  20.333   3.174
70858W        W41458  41.284  13.225   2.148
70859W        W41459  12.819  22.106  14.087
70860W        W41460  42.809  25.229  11.348
70861W        W41461  15.607  18.943  13.366
70862W        W41462  31.755  44.161   3.219
70863W        W41463   3.405  38.019  11.062
70864W        W41464   1.345  20.309  14.297
70865W        W41465  25.687  32.081  13.035
70866W        W41466  31.399  19.345   0.953
70867W        W41467  11.379  35.061  13.327
70868W        W41468   5.305  41.176  13.026
70869W        W41469  37.504  24.497   3.747
70870W        W41470  12.040   6.796   2.137
70871W        W41471  14.874  38.337   1.899
70872W        W41472   8.443   2.944   0.335
70873W        W41473  17.633  36.850   3.530
70874W        W41474  34.797  29.074   1.770
70875W        W41475   7.137  29.642   1.262
70876W        W41476   6.341  33.894  13.194
70877W        W41477  43.549   3.662   0.902
70878W        W41478  34.395   3.372  14.914
70879W        W41479  28.463  29.498   0.670
70880W        W41480  33.436  22.684   2.337
70881W        W41481  16.490  31.928  11.586
70882W        W41482  13.689  26.413   0.760
70883W        W41483  40.949  12.386   4.569
70884W        W41484  20.753  24.224   3.848
70885W        W41485   4.907  30.612   5.044
70886W        W41486  25.071  30.899   3.846
70887W        W41487   9.381  17.737   4.027
70888W        W41488   6.742  10.349   1.710
70889W        W41489  36.451  14.893   0.776
70890W        W41490   6.854  25.533   3.296
70891W        W41491  24.343   2.788  12.712
70892W        W41492   9.421  40.828  12.987
70893W        W41493  14.381  16.434   3.447
70894W        W41494   8.925  12.723  12.462
70895W        W41495  32.672  33.639  12.697
70896W        W41496  37.045  31.678   1.979
70897W        W41497  38.348  32.407  13.138
70898W        W41498  20.371  43.968  10.448
70899W        W41499  39.633  10.780  11.709
70900W        W41500  43.039  28.262   5.057
70901W        W41501  37.960  31.168   4.135
70902W        W41502   7.440  34.300   2.368
70903W        W41503  16.175  41.088   2.745
70904W        W41504  29.980   8.212  13.913
70905W        W41505  42.428  42.955   4.540
70906W        W41506  22.493  27.117  12.441
70907W        W41507  44.772  29.869  13.978
70908W        W41508  17.270  30.514   4.670
70909W        W41509   7.330   6.333  10.412
70910W        W41510  43.035  17.198  13.077
70911W        W41511  27.657  10.833   1.939
70912W        W41512  22.127   9.441   4.611
70913W        W41513   0.801   1.270  14.399
70914W        W41514  38.011  33.598  10.728
70915W        W41515  15.882  32.465  10.262
70916W        W41516  28.187   8.230   1.981
70917W        W41517   6.938  31.558   3.660
70918W        W41518  37.425  38.243  13.428
70919W        W41519  27.166  40.050   1.848
70920W        W41520  38.061  40.823  12.228
70921W        W41521  17.143  28.959   0.014
70922W        W41522   3.484  18.302   1.777
70923W        W41523  17.272   2.342   4.896
70924W        W41524  12.680  20.777   2.789
70925W        W41525  22.337  19.472  10.285
70926W        W41526  10.557  35.983   3.269
70927W        W41527  11.883   4.210   3.327
70928W        W41528  15.174   4.919  11.239
70929W        W41529  29.840  44.903   4.760
70930W        W41530  38.608  25.607   4.269
70931W        W41531  15.229  19.109   1.177
70932W        W41532   5.813   7.551   0.305
70933W        W41533  26.516  32.646  14.959
70934W        W41534  20.504  34.939  13.508
70935W        W41535  41.421  23.539   4.587
70936W        W41536  32.831  34.123  11.515
70937W        W41537   6.627  11.448   3.684
70938W        W41538  30.024   2.454  11.011
70939W        W41539  10.602  31.104  11.825
70940W        W41540  15.239  17.759  10.765
70941W        W41541  13.599   9.290   2.864
70942W        W41542  41.997   3.447  11.642
70943W        W41543  40.312  30.727  12.072
70944W        W41544  38.649   1.562   2.243
70945W        W41545  25.005  21.109  13.083
70946W        W41546  28.549  38.880   2.804
70947W        W41547  27.509  24.163   1.941
70948W        W41548  25.092  39.859   2.644
70949W        W41549  36.036  39.428   4.666
70950W        W41550  19.677  30.360   0.798
70951W        W41551  30.936  17.956  11.534
70952W        W41552  18.783   1.347   3.648
70953W        W41553  43.493  34.412  11.711
70954W        W41554   8.892  39.814   1.467
70955W        W41555  28.948  11.694  13.801
70956W        W41556  33.987  37.803   3.633
70957W        W41557  38.336  44.406  13.592
70958W        W41558  34.515  24.013  12.083
70959W        W41559  22.762  22.713   0.068
70960W        W41560  16.815  39.538  11.181
70961W        W41561  18.551   0.241   2.299
70962W        W41562   5.657  18.738   2.875
70963W        W41563  16.388   8.429   2.922
70964W        W41564   6.239  39.400  10.698
70965W        W41565  35.652  29.146  12.354
70966W        W41566  40.435   6.420   3.542
70967W        W41567  17.840  34.570   2.792
70968W        W41568  30.380  12.372   1.408
70969W        W41569   4.506  13.693  12.316
70970W        W41570  28.408   3.255   2.141
70971W        W41571   0.807  13.270  12.071
70972W        W41572  13.587  31.731  12.562
70973W        W41573  24.742  40.400  14.313
70974W        W41574  25.099  13.595  11.707
70975W        W41575   0.052  22.217   3.166
70976W        W41576   8.768   0.934  13.982
70977W        W41577  31.073  13.267   0.402
70978W        W41578  20.507  43.477  11.521
70979W        W41579  40.395  37.143  12.466
70980W        W41580  40.859  29.700   1.822
70981W        W41581   8.682  32.432   4.567
70982W        W41582   9.922   2.297   0.824
70983W        W41583  35.796  12.939   1.768
70984W        W41584  36.298  38.793  10.576
70985W        W41585  24.907  23.045   0.788
70986W        W41586  26.057  16.512   2.030
70987W        W41587  27.366  12.129   3.867
70988W        W41588  12.705  16.769  14.927
70989W        W41589  11.660  42.232  12.667
70990W        W41590  29.378  17.579  14.989
70991W        W41591  42.116  20.521   3.580
70992W        W41592  12.961  25.049  13.980
70993W        W41593  43.757  18.539   1.887
70994W        W41594  12.609  35.069   3.669
70995W        W41595  17.698  32.783  10.678
70996W        W41596   8.881  33.994  14.837
70997W        W41597  44.604  29.108   0.077
70998W        W41598  15.440  39.749  11.101
70999W        W41599   2.347  42.524   4.317
71000W        W41600  22.774  31.408  11.416
71001W        W41601  24.358   2.993   2.381
71002W        W41602  27.300  30.211   5.205
71003W        W41603  33.242  42.912   1.955
71004W        W41604   4.470   2.369  12.940
71005W        W41605  22.705  26.710  14.516
71006W        W41606  34.832  39.414   4.222
71007W        W41607   4.885  35.014  14.256
71008W        W41608  11.750  41.257  14.094
71009W        W41609  28.556  22.029  13.354
71010W        W41610  37.887  29.940  11.609
71011W        W41611  19.523  29.508   0.987
71012W        W41612  43.459   3.852   2.994
71013W        W41613  18.964   2.220   3.514
71014W        W41614  44.444  27.868   0.684
71015W        W41615  19.011  16.030  12.024
71016W        W41616   5.573  44.634   0.435
71017W        W41617  26.309   0.332   0.812
71018W        W41618   9.104   2.415  13.469
71019W        W41619  40.324  22.585   3.538
71020W        W41620  33.916  13.212  14.633
71021W        W41621  23.613   6.216  14.468
71022W        W41622  14.647   5.880  11.152
71023W        W41623  22.291  21.737   3.442
71024W        W41624   6.341  32.591  14.249
71025W        W41625   0.605  14.151   2.215
71026W        W41626  43.536  43.008   0.471
71027W        W41627  24.717   4.551  11.164
71028W        W41628  14.556  36.444   0.823
71029W        W41629   8.196  20.793  12.296
71030W        W41630  30.382  27.726  14.412
71031W        W41631  40.838  13.219   2.402
71032W        W41632  16.216  43.565   2.781
71033W        W41633  34.888  39.298   2.694
71034W        W41634  29.436  20.180  12.009
71035W        W41635  15.555  34.366   3.674
71036W        W41636  42.918  39.047  13.986
71037W        W41637   3.014  33.673   0.343
71038W        W41638  35.092  22.824  12.326
71039W        W41639   7.142  24.633   0.772
71040W        W41640   9.645  23.069   4.570
71041W        W41641  17.663  30.112  11.952
71042W        W41642  24.598  33.678   1.253
71043W        W41643  39.598  43.556   1.444
71044W        W41644   0.575   5.510   2.183
71045W        W41645  11.715  34.065  11.652
71046W        W41646  25.572  22.540  11.705
71047W        W41647  32.174   2.452   0.216
71048W        W41648  14.880  43.448   1.229
71049W        W41649   2.768   7.668  14.789
71050W        W41650  30.909  19.563   0.988
71051W        W41651  31.855  33.354   1.999
71052W        W41652  43.041  28.580  13.009
71053W        W41653  12.044  22.624   4.622
71054W        W41654  34.090   8.711   2.701
71055W        W41655  16.630   5.993  14.800
71056W        W41656  14.657  42.185  12.077
71057W        W41657   4.965   0.120  11.108
71058W        W41658  19.945   6.689   1.996
71059W        W41659  30.284  42.447  13.126
71060W        W41660   2.941  37.023   3.171
71061W        W41661  23.701  25.981   2.804
71062W        W41662  32.226  31.204  12.786
71063W        W41663  12.893  44.451   3.330
71064W        W41664  37.973  43.517  14.446
71065W        W41665   3.270  31.060  10.412
71066W        W41666   4.107  18.589   3.929
71067W        W41667  17.543  21.408  11.639
71068W        W41668  33.746  26.148   1.777
71069W        W41669   5.151  44.165   1.806
71070W        W41670   7.755  11.617   3.196
71071W        W41671  32.715  23.547  12.516
71072W        W41672  27.060  26.569   0.275
71073W        W41673  36.592  37.066   1.946
71074W        W41674  29.634  31.035   1.911
71075W        W41675  12.724   2.760   0.481
71076W        W41676  10.969   8.562   0.156
71077W        W41677  23.556  31.482   0.588
71078W        W41678  26.061  22.754  11.636
71079W        W41679  43.316  23.490   4.672
71080W        W41680   8.212  13.356   1.821
71081W        W41681  13.683  24.650   2.728
71082W        W41682  13.313   7.680   2.770
71083W        W41683  31.326   2.876  13.155
71084W        W41684   1.758  21.840   1.527
71085W        W41685   5.176  11.153   4.636
71086W        W41686   6.101  17.323   0.916
71087W        W41687  13.329  41.878  11.805
71088W        W41688  44.976  23.450  11.935
71089W        W41689  25.334  29.540  13.957
71090W        W41690  17.222  18.652   4.288
71091W        W41691  33.253  20.930  12.068
71092W        W41692   4.234   7.741   4.484
71093W        W41693   2.862  32.573   2.751
71094W        W41694  36.991  41.635   0.110
71095W        W41695  39.002   8.831   3.471
71096W        W41696  38.521  16.080  12.523
71097W        W41697   4.333  10.807  11.531
71098W        W41698   7.853  16.232  14.508
71099W        W41699  13.842   1.471   4.080
71100W        W41700  41.754  11.461  11.154
71101W        W41701  26.753   9.187  13.098
71102W        W41702  23.537   2.465  14.031
71103W        W41703  19.621  41.317  11.568
71104W        W41704  16.242  36.094  14.771
71105W        W41705  22.582  35.562   2.821
71106W        W41706  44.214  42.318   3.833
71107W        W41707  11.210  14.667   0.411
71108W        W41708   8.748  24.041  12.857
71109W        W41709  36.860  31.990  13.158
71110W        W41710   3.707   4.845  13.374
71111W        W41711   7.975   8.724   0.800
71112W        W41712   7.304  25.316  12.911
71113W        W41713  40.931  22.293   3.814
71114W        W41714  27.702  31.972  13.535
71115W        W41715  12.631  23.158  12.186
71116W        W41716  27.993  33.384   1.978
71117W        W41717  28.226  29.372   2.956
71118W        W41718  19.026  21.172   0.244
71119W        W41719  42.903  27.402  10.746
71120W        W41720  23.960  12.339   2.312
71121W        W41721  19.055   6.192  13.916
71122W        W41722  39.061  31.919  10.039
71123W        W41723  22.300  24.110  13.133
71124W        W41724  18.601  14.774  10.894
71125W        W41725   2.903   5.951   3.809
71126W        W41726  29.033  37.585   0.508
71127W        W41727  36.624  16.064   4.687
71128W        W41728  27.977  26.001   2.289
71129W        W41729  44.894  29.923   3.350
71130W        W41730   6.138  20.264   0.355
71131W        W41731   9.844   7.645   3.642
71132W        W41732  22.402  22.130   1.899
71133W        W41733   8.507  16.018   4.357
71134W        W41734  34.849  36.451  13.168
71135W        W41735  14.383   1.875  13.461
71136W        W41736  22.929  22.059  11.719
71137W        W41737  18.687  24.147   3.671
71138W        W41738  25.798  38.508   0.773
71139W        W41739  19.042  34.350  14.576
71140W        W41740  40.529   1.651   2.211
71141W        W41741  30.765  32.214  12.319
71142W        W41742  27.049  40.133  11.946
71143W        W41743  11.785  44.393   3.108
71144W        W41744  12.299  35.098  11.447
71145W        W41745  24.254  21.210  13.483
71146W        W41746  17.453  40.988  12.188
71147W        W41747  23.547  18.484  10.597
71148W        W41748  12.846  27.023   0.359
71149W        W41749  35.525   0.206  11.666
71150W        W41750  17.301  40.487  12.379
71151W        W41751   5.431   1.687  11.194
71152W        W41752  10.507  28.054  11.158
71153W        W41753   9.342  42.022   2.868
71154W        W41754  35.984  33.885  14.232
71155W        W41755   0.888  29.674  13.237
71156W        W41756   3.749  25.170  14.053
71157W        W41757  37.783  41.300  11.534
71158W        W41758  19.639   1.318  14.098
71159W        W41759  17.744  12.822   4.801
71160W        W41760  44.507  23.573   3.702
71161W        W41761  42.830  30.320   2.441
71162W        W41762   6.555  28.429  11.540
71163W        W41763  22.532  37.565   4.436
71164W        W41764  17.200  13.177  11.458
71165W        W41765  11.350  16.722   3.407
71166W        W41766   3.291  11.363   1.284
71167W        W41767  13.262  17.846   1.780
71168W        W41768  13.396  24.164  14.313
71169W        W41769  37.070  13.539  14.414
71170W        W41770  29.551   7.678   1.683
71171W        W41771  40.086  31.068   4.885
71172W        W41772  27.606  22.572  11.221
71173W        W41773   1.420   4.854   1.818
71174W        W41774  17.659  18.148  11.090
71175W        W41775  13.183   3.780  11.510
71176W        W41776  35.295  18.155  11.279
71177W        W41777   7.803   9.760  12.391
71178W        W41778  13.820  15.338   0.360
71179W        W41779  16.853   3.218   2.837
71180W        W41780  30.772  38.016  14.521
71181W        W41781  42.277   3.019   3.200
71182W        W41782  14.472  13.003   1.803
71183W        W41783  33.495  34.615  12.955
71184W        W41784   1.337   4.903   4.837
71185W        W41785   1.278  35.480   0.439
71186W        W41786  24.603  41.366   1.636
71187W        W41787  39.196  31.880  13.969
71188W        W41788  41.533  24.224  13.060
71189W        W41789  13.628  38.359  11.945
71190W        W41790  33.003  41.226   1.309
71191W        W41791  36.556   6.185  12.230
71192W        W41792  29.979  37.486   0.930
71193W        W41793  12.691  12.388   2.380
71194W        W41794  27.036  44.847  14.818
71195W        W41795  12.159  14.827   2.151
71196W        W41796  27.473  35.378  11.878
71197W        W41797  35.471  33.457  12.455
71198W        W41798   1.855  17.596   0.773
71199W        W41799  29.722  30.579  10.318
71200W        W41800   6.897  29.155   1.455
71201W        W41801  27.199  39.509   1.146
71202W        W41802   7.427   7.397  10.685
71203W        W41803   0.767  30.670  14.809
71204W        W41804  28.124  43.540  10.907
71205W        W41805   1.284  12.190   4.194
71206W        W41806  30.660  10.157  14.861
71207W        W41807  31.844  31.851   4.337
71208W        W41808  35.561   5.988   0.355
71209W        W41809  27.271  15.785   2.468
71210W        W41810  13.442  35.300  11.064
71211W        W41811  32.625  21.208  11.264
71212W        W41812  34.283  43.957   1.912
71213W        W41813  10.232  14.420  14.439
71214W        W41814  28.090  34.973  13.713
71215W        W41815  20.526  37.315  12.517
71216W        W41816  19.735  38.256   4.291
71217W        W41817  42.847  12.335  12.361
71218W        W41818  26.002  21.951   2.855
71219W        W41819  39.791  30.233  10.987
71220W        W41820  11.583   4.958   3.552
71221W        W41821  34.006  20.074  10.830
71222W        W41822  20.534   1.469   2.663
71223W        W41823   5.974   5.364  11.953
71224W        W41824  18.112  16.346   3.375
71225W        W41825  17.239  36.846  11.440
71226W        W41826  41.111  38.615  12.120
71227W        W41827  21.099   0.806   0.375
71228W        W41828   5.142  34.340   1.014
71229W        W41829   5.416  37.548   4.157
71230W        W41830  35.338  28.312   3.292
71231W        W41831   4.549   9.601  14.189
71232W        W41832  20.358  39.924   4.893
71233W        W41833  20.215  17.690  13.810
71234W        W41834  25.184  28.595   3.653
71235W        W41835  35.844  36.852   4.359
71236W        W41836  10.795  27.384  13.055
71237W        W41837  44.335  39.219  14.539
71238W        W41838  35.430   3.999   1.340
71239W        W41839  22.314  43.253   1.534
71240W        W41840  35.289  14.601  11.462
71241W        W41841  10.519  19.250  11.009
71242W        W41842   5.307  22.074   2.403
71243W        W41843  30.536  21.514   4.170
71244W        W41844  33.873  18.456   4.359
71245W        W41845  14.660  24.798  11.602
71246W        W41846  44.950  23.080   2.799
71247W        W41847  14.815  12.301  12.555
71248W        W41848  13.682  34.104  13.092
71249W        W41849   0.435   1.231   3.696
71250W        W41850   1.996  11.877  12.061
71251W        W41851  32.824   8.860   4.610
71252W        W41852  27.176  31.873   2.056
71253W        W41853   3.622  34.609   4.604
71254W        W41854  22.594  14.694   3.716
71255W        W41855  26.081  27.144   1.325
71256W        W41856  39.545   9.639   4.418
71257W        W41857  25.375   9.415  10.299
71258W        W41858   6.302  20.780   4.054
71259W        W41859  43.561   2.910  10.296
71260W        W41860  37.309  34.053  13.806
71261W        W41861  30.468  29.949  10.618
71262W        W41862  12.154  44.717   2.844
71263W        W41863  15.524  39.285   2.221
71264W        W41864  44.789  34.237   3.109
71265W        W41865  23.307  25.135  12.043
71266W        W41866  37.181  36.296  11.624
71267W        W41867  22.820  22.173   4.615
71268W        W41868  25.550   6.830   4.506
71269W        W41869  39.768  44.967  13.276
71270W        W41870  37.372  34.122  12.350
71271W        W41871   4.725  36.639   2.646
71272W        W41872  19.435   5.358   0.740
71273W        W41873  42.011  20.312   2.668
71274W        W41874   7.804   9.312   3.831
71275W        W41875   8.804  41.330  11.044
71276W        W41876  43.045  40.773   0.314
71277W        W41877  40.537  16.755   2.785
71278W        W41878   9.184  25.773  14.364
71279W        W41879   5.794  15.115  12.913
71280W        W41880  14.267  25.295  13.782
71281W        W41881  12.181  21.965   2.413
71282W        W41882  17.144  19.817   1.860
71283W        W41883   9.634  43.298   1.218
71284W        W41884   7.895  37.201   3.169
71285W        W41885  28.839  27.226  13.822
71286W        W41886  35.459  43.939  14.704
71287W        W41887  22.607  17.241   0.843
71288W        W41888   0.882   6.896  12.980
71289W        W41889   8.917  19.045   0.376
71290W        W41890  38.374  29.664  12.986
71291W        W41891   7.466  43.841   1.210
71292W        W41892  27.949   1.076  11.223
71293W        W41893  20.640  40.472  14.482
71294W        W41894   3.408  22.360   0.061
71295W        W41895  18.571  28.036  12.871
71296W        W41896  36.547   6.565   3.754
71297W        W41897  30.644  29.250   1.925
71298W        W41898   5.789   3.115  12.859
71299W        W41899   3.221  37.111   2.339
71300W        W41900  25.128  10.866   3.477
71301W        W41901   4.392   8.991   2.426
71302W        W41902  39.977   7.457   2.777
71303W        W41903  21.916  41.087   4.077
71304W        W41904   2.781  29.975   3.799
71305W        W41905   0.361  16.181   3.122
71306W        W41906  44.317  41.818   4.000
71307W        W41907  32.865  15.836   4.878
71308W        W41908  11.775  41.018  13.335
71309W        W41909   0.168  21.783  13.731
71310W        W41910   1.238  13.814   3.706
71311W        W41911  18.782  22.178   3.812
71312W        W41912  41.438  27.272  14.009
71313W        W41913   7.775  26.942  14.963
71314W        W41914  23.908  22.610  11.077
71315W        W41915  36.804  29.611  14.431
71316W        W41916  10.615   2.362   5.298
71317W        W41917  30.372   3.274  14.247
71318W        W41918  26.673  29.097   0.366
71319W        W41919  33.614  24.457  11.951
71320W        W41920  39.941  29.547   1.457
71321W        W41921  19.753  29.927  10.785
71322W        W41922   4.283  30.453   3.662
71323W        W41923   5.250  14.366   4.660
71324W        W41924  32.177  15.085  13.946
71325W        W41925  42.679  29.358   2.231
71326W        W41926   8.279   9.399   3.645
71327W        W41927  35.112  24.752   1.398
71328W        W41928   5.479  28.890  13.418
71329W        W41929  36.080  26.234   0.489
71330W        W41930  19.531   7.923  10.639
71331W        W41931  28.085  21.261  11.108
71332W        W41932   1.149  43.306   2.893
71333W        W41933   5.343  31.167   2.836
71334W        W41934  43.512  10.390  12.378
71335W        W41935  25.142  30.752   0.337
71336W        W41936  40.814  27.701   2.847
71337W        W41937  32.628   9.844   2.662
71338W        W41938  39.109  25.515  14.380
71339W        W41939  22.655  32.521  13.589
71340W        W41940  28.826  43.421   2.024
71341W        W41941  34.108  15.170  12.487
71342W        W41942   5.192  37.839  12.522
71343W        W41943  30.718   0.880  11.360
71344W        W41944  21.687  28.500  13.237
71345W        W41945   3.239   6.827  13.390
71346W        W41946  28.991   7.175   1.011
71347W        W41947   5.679   2.854  13.299
71348W        W41948  28.581  28.718   3.719
71349W        W41949  19.818   1.358  13.617
71350W        W41950  27.164  24.634  11.661
71351W        W41951   5.609  31.124  10.767
71352W        W41952   2.272  20.019  14.543
71353W        W41953  22.055  32.375  11.245
71354W        W41954   4.426  11.211  14.708
71355W        W41955   2.275  25.431  14.494
71356W        W41956  43.113  31.111  13.404
71357W        W41957  25.030  15.240  14.583
71358W        W41958  15.956  22.694   0.946
71359W        W41959  23.586   3.974  11.581
71360W        W41960   7.447  36.565  13.416
71361W        W41961  32.902   1.924   2.779
71362W        W41962  24.711  20.132  12.993
71363W        W41963  19.576  15.799   4.229
71364W        W41964  33.941  25.264   0.372
71365W        W41965  21.132  35.374  13.826
71366W        W41966  31.303  13.554   1.305
71367W        W41967   8.324   1.031   2.632
71368W        W41968  32.469  25.357   3.302
71369W        W41969   2.949  42.262   3.305
71370W        W41970  19.266  22.560  11.534
71371W        W41971   2.431  18.569  14.009
71372W        W41972  44.707  10.087   1.326
71373W        W41973  40.767  19.373  13.320
71374W        W41974  23.723  21.184  12.454
71375W        W41975  22.471  27.240   0.517
71376W        W41976  28.428  30.714  12.089
71377W        W41977  21.166  34.501   4.748
71378W        W41978   3.351   5.176  14.779
71379W        W41979  17.437  36.486  13.441
71380W        W41980  10.618   7.285  11.437
71381W        W41981  14.563  32.957   2.223
71382W        W41982  37.328  14.938   2.462
71383W        W41983   4.226  43.784   4.614
71384W        W41984   6.919  44.203   0.445
71385W        W41985  44.344  25.221  10.630
71386W        W41986  26.902  40.505   0.660
71387W        W41987  37.132   8.274   2.144
71388W        W41988  13.335  27.165   0.688
71389W        W41989  18.116  14.380   0.505
71390W        W41990   5.943  28.227   0.125
71391W        W41991  23.780  40.583  13.086
71392W        W41992   8.621  14.172  14.526
71393W        W41993  22.082  20.783   3.392
71394W        W41994  28.758  22.188  12.351
71395W        W41995  20.764  26.961  11.999
71396W        W41996   1.006  20.057   2.884
71397W        W41997  18.178  23.555  13.882
71398W        W41998  37.076  37.931   0.310
71399W        W41999  21.291   0.840   1.432
71400W        W42000  42.595  23.620  11.455
71401W        W42001  33.004  34.774   1.926
71402W        W42002  14.762   7.259   4.630
71403W        W42003  22.513   2.406  11.129
71404W        W42004  33.569   7.770   3.772
71405W        W42005  15.783  19.227   1.860
71406W        W42006  44.814  37.558   3.203
71407W        W42007  18.128  12.130   2.852
71408W        W42008   3.270  27.827   2.355
71409W        W42009  39.023  20.794   3.829
71410W        W42010   7.321  26.058  11.529
71411W        W42011  43.764  11.962  14.869
71412W        W42012  31.928   8.566   0.297
71413W        W42013  41.023  11.172  12.892
71414W        W42014  32.423  43.281   4.059
71415W        W42015  15.198  29.240  13.083
71416W        W42016  44.096  34.105  12.877
71417W        W42017  11.505  19.806  12.546
71418W        W42018  12.336  44.627   4.140
71419W        W42019   2.001  22.226   3.579
71420W        W42020  26.722   8.421  10.667
71421W        W42021  23.257  37.395   0.532
71422W        W42022  10.752  21.031   0.699
71423W        W42023   1.233  31.414  11.104
71424W        W42024  13.270   4.157   2.809
71425W        W42025  43.718  38.516   2.236
71426W        W42026  11.652  20.004  12.067
71427W        W42027  18.905  42.751   1.483
71428W        W42028  22.223  10.946  11.170
71429W        W42029  42.486  17.844   2.956
71430W        W42030   2.307   4.052  11.952
71431W        W42031   5.665   4.265  11.479
71432W        W42032  36.019   3.619  14.417
71433W        W42033  30.683  38.301  10.477
71434W        W42034  40.368  44.519   4.592
71435W        W42035   5.439  37.972  13.243
71436W        W42036  12.314  35.375   4.166
71437W        W42037   7.973  27.923  13.314
71438W        W42038  12.170   8.151   0.796
71439W        W42039  37.641  23.987  11.547
71440W        W42040   9.692  43.987   0.926
71441W        W42041  25.311  26.151   3.665
71442W        W42042  23.002  31.987  10.661
71443W        W42043  21.624   9.410   4.543
71444W        W42044   9.611   5.604   1.928
71445W        W42045  17.173  21.497  14.343
71446W        W42046  37.103  24.135   2.837
71447W        W42047  39.521  17.120  11.951
71448W        W42048  38.716   5.687   1.089
71449W        W42049  19.165   5.447  14.331
71450W        W42050  40.864  21.559   4.150
71451W        W42051  24.551  22.170  12.572
71452W        W42052  23.135   1.027   1.329
71453W        W42053   1.218  21.005  14.724
71454W        W42054  32.888  30.019  11.539
71455W        W42055  16.620  16.261   2.281
71456W        W42056  25.352  17.796  10.699
71457W        W42057  12.584  24.576   1.786
71458W        W42058  31.962  39.944  12.508
71459W        W42059  43.974  43.692  11.916
71460W        W42060  31.980  19.582   0.714
71461W        W42061  10.037   0.820  14.460
71462W        W42062  16.393  14.405   0.492
71463W        W42063  18.632   5.546   0.185
71464W        W42064  43.948  40.517  12.494
71465W        W42065  17.854  26.872  13.222
71466W        W42066  32.601  23.184  14.865
71467W        W42067  17.258   7.145   3.615
71468W        W42068  19.345  19.137   3.646
71469W        W42069  29.909  27.595   0.816
71470W        W42070  44.518  37.563  11.211
71471W        W42071  20.189  44.948  10.857
71472W        W42072  11.377  35.847  12.527
71473W        W42073  35.438  43.774  10.665
71474W        W42074  24.401  19.667  12.919
71475W        W42075  34.232  43.100   1.773
71476W        W42076  15.277  35.405   1.370
71477W        W42077  33.869  35.288  13.982
71478W        W42078  27.059   2.823  11.718
71479W        W42079  26.766  39.411   3.421
71480W        W42080  35.287  16.864  11.401
71481W        W42081  15.554   3.640   4.785
71482W        W42082  20.227  36.088  11.790
71483W        W42083  35.551  27.505  12.614
71484W        W42084  18.475  26.975   2.249
71485W        W42085   9.405  26.021   0.039
71486W        W42086   3.468  21.762   0.928
71487W        W42087  14.646  44.331  11.620
71488W        W42088   3.318  27.699  12.644
71489W        W42089  12.090  41.848  14.868
71490W        W42090  39.169  31.065   0.184
71491W        W42091  33.035  29.687  13.276
71492W        W42092   4.812  33.757  11.554
71493W        W42093  44.554  29.476   3.683
71494W        W42094  36.423  39.853   0.810
71495W        W42095  11.266   2.817   0.842
71496W        W42096   0.906   4.280   4.565
71497W        W42097  31.644  21.492   0.587
71498W        W42098  42.239  31.406   1.355
71499W        W42099  22.026  23.560   0.904
71500W        W42100  13.464  21.767  12.985
71501W        W42101  36.564  43.550  11.597
71502W        W42102   3.346  26.131  11.563
71503W        W42103  24.332   5.600  13.805
71504W        W42104  33.075  31.556  13.036
71505W        W42105   5.946  21.150  13.457
71506W        W42106  23.895   2.299   3.611
71507W        W42107  18.730   3.072   4.942
71508W        W42108  17.454  33.568   0.311
71509W        W42109  38.536  18.779   0.395
71510W        W42110   0.907  36.926  11.971
71511W        W42111   2.300  13.559   2.343
71512W        W42112  24.400   7.763  12.680
71513W        W42113  26.044   1.550   0.406
71514W        W42114  23.482  42.347  11.236
71515W        W42115   3.221  28.234  11.754
71516W        W42116  25.162  44.071   4.903
71517W        W42117   7.436  42.809  11.785
71518W        W42118  12.220   0.551  14.019
71519W        W42119   4.698  30.614  10.268
71520W        W42120  43.414  12.169  11.251
71521W        W42121   6.813  37.458  14.159
71522W        W42122  43.242  17.119  11.550
71523W        W42123  25.046  19.200  11.235
71524W        W42124   1.896  42.876  14.716
71525W        W42125  42.836  10.893   0.503
71526W        W42126  16.024  18.399  14.903
71527W        W42127   0.513  27.450  12.350
71528W        W42128  39.525  32.177  10.015
71529W        W42129  17.728   9.239  14.491
71530W        W42130   0.987  10.047  14.823
71531W        W42131  34.965  13.629  13.932
71532W        W42132   0.511  23.070  11.623
71533W        W42133  24.544  43.019   3.409
71534W        W42134   1.199  24.145  12.095
71535W        W42135  10.194   8.490   0.274
71536W        W42136   8.204   2.936  11.428
71537W        W42137  32.683   7.363   1.173
71538W        W42138  33.149  39.537   9.910
71539W        W42139  22.549  41.387  13.455
71540W        W42140  38.070  32.796  13.915
71541W        W42141  28.998  22.790  13.548
71542W        W42142  30.888  27.619  14.327
71543W        W42143   0.377  11.232   0.803
71544W        W42144  21.480   9.608   4.074
71545W        W42145  32.954   8.325  14.786
71546W        W42146  28.717  41.853  11.937
71547W        W42147  41.430  15.614  13.586
71548W        W42148  29.901  34.085   2.599
71549W        W42149  42.529  37.545  14.620
71550W        W42150  36.007  14.493   4.801
71551W        W42151  44.728  18.128  11.609
71552W        W42152  18.720  29.906  11.130
71553W        W42153   7.958   0.008  13.830
71554W        W42154  44.658   2.680   0.473
71555W        W42155  10.291  31.620  14.995
71556W        W42156  22.202   7.774   3.208
71557W        W42157   3.730  43.934   4.512
71558W        W42158  10.094  17.152   3.550
71559W        W42159  41.948  44.029  14.926
71560W        W42160  38.612  22.792  14.535
71561W        W42161  42.146  34.473  12.587
71562W        W42162  39.492   9.466  12.505
71563W        W42163  34.096  12.044  11.050
71564W        W42164  44.001  31.410  13.574
71565W        W42165  16.628  16.522   1.831
71566W        W42166  19.755   2.312  11.674
71567W        W42167  18.028  27.722   4.393
71568W        W42168  22.322   0.061  12.927
71569W        W42169  37.143   5.753  10.475
71570W        W42170  36.286  42.898   1.719
71571W        W42171   7.912  21.539  11.161
71572W        W42172  33.836  26.227   0.594
71573W        W42173  43.328  13.851   0.963
71574W        W42174  36.231  27.930   1.201
71575W        W42175  21.491  25.538   1.820
71576W        W42176   1.224   1.852   1.622
71577W        W42177   2.242  40.048  11.278
71578W        W42178   4.588   3.122  11.906
71579W        W42179  38.616  28.790  11.344
71580W        W42180  22.080  17.905  13.302
71581W        W42181  21.677  37.446  13.541
71582W        W42182  17.501   0.965  12.487
71583W        W42183  43.247  22.855   2.581
71584W        W42184  24.771  22.798  13.364
71585W        W42185  20.464  28.963   1.932
71586W        W42186  42.849  44.384   3.171
71587W        W42187  16.970  26.776   0.027
71588W        W42188  17.287  15.025   3.606
71589W        W42189   1.765  44.661  10.498
71590W        W42190  22.563   6.146  11.544
71591W        W42191  33.651   2.884   1.865
71592W        W42192  34.167  33.083   2.154
71593W        W42193  33.915  36.235   4.503
71594W        W42194   1.400  26.423   1.710
71595W        W42195  11.238  30.447   1.148
71596W        W42196   8.770   7.004   0.940
71597W        W42197  27.127  21.437  11.016
71598W        W42198  15.863  28.078   2.329
71599W        W42199  34.057   9.407   4.674
71600W        W42200  44.933  21.978  12.035
71601W        W42201   6.411   5.698   3.348
71602W        W42202  24.781  42.077   2.881
71603W        W42203  17.463  17.588   2.032
71604W        W42204  44.496   7.638   3.879
71605W        W42205  42.787  17.430  13.516
71606W        W42206   5.928  27.753  14.903
71607W        W42207   4.063   8.246   0.855
71608W        W42208  39.299  26.980   0.367
71609W        W42209   7.662  30.452  13.665
71610W        W42210  16.867  38.819   1.319
71611W        W42211   6.799  37.277   4.516
71612W        W42212   1.044  23.198  10.987
71613W        W42213   2.990   3.481  12.862
71614W        W42214   3.777  28.895  11.427
71615W        W42215  29.193  15.821  12.110
71616W        W42216  10.724  34.428   0.794
71617W        W42217   4.512   9.613   5.240
71618W        W42218  18.204  24.949  13.930
71619W        W42219   5.803   1.925   4.549
71620W        W42220  28.084  40.522  11.635
71621W        W42221  39.906  20.687   4.082
71622W        W42222  25.663  28.193   4.167
71623W        W42223   7.692  36.722   3.124
71624W        W42224  11.662  41.920  13.597
71625W        W42225  30.896  33.429  11.427
71626W        W42226   1.850   6.293  14.365
71627W        W42227  28.713  25.684  11.526
71628W        W42228  19.996  13.730  10.769
71629W        W42229  18.989  11.917  11.282
71630W        W42230  30.153   3.026   3.435
71631W        W42231  26.462  38.523  14.400
71632W        W42232  31.679  27.037   3.757
71633W        W42233  23.181  14.295   1.281
71634W        W42234   4.393   0.067  13.519
71635W        W42235  43.998   9.282   1.945
71636W        W42236  21.108  26.715   3.222
71637W        W42237   3.205  28.814  12.447
71638W        W42238  32.648  37.656   2.309
71639W        W42239  14.259   5.964  11.918
71640W        W42240  41.025   0.542  14.425
71641W        W42241  32.609  15.814   0.789
71642W        W42242   6.720  26.422   4.126
71643W        W42243  25.950  12.904  14.203
71644W        W42244  34.973  23.128   2.370
71645W        W42245  31.481   0.245  11.174
71646W        W42246  20.557  15.166   1.187
71647W        W42247  24.649  13.116  10.993
71648W        W42248   4.017   4.431  13.400
71649W        W42249  43.236   8.848  12.571
71650W        W42250  29.402  15.547   4.326
71651W        W42251  19.857  42.010  11.770
71652W        W42252   4.538  23.794   4.172
71653W        W42253   2.762  41.591  14.804
71654W        W42254  27.439  10.192   2.747
71655W        W42255   6.135  31.801   5.146
71656W        W42256  19.768  22.215   2.640
71657W        W42257  34.925   4.801   3.839
71658W        W42258   8.403   4.722  11.175
71659W        W42259  24.605  40.422  11.204
71660W        W42260   6.066   1.359  11.672
71661W        W42261   9.417  20.472  11.629
71662W        W42262  24.233  35.433  13.342
71663W        W42263  39.850   5.953  14.990
71664W        W42264  10.486  32.065  13.555
71665W        W42265  17.825  22.227  12.950
71666W        W42266  15.643   9.743   0.498
71667W        W42267  43.413  39.226  14.888
71668W        W42268  32.084  14.642  10.716
71669W        W42269   5.692   4.193  13.841
71670W        W42270  14.597  41.287   2.801
71671W        W42271  13.895  14.411  14.044
71672W        W42272  29.056  41.704  11.150
71673W        W42273  20.317  17.202  13.937
71674W        W42274  29.947  29.687  12.186
71675W        W42275   4.328  22.550  12.064
71676W        W42276  34.795  44.797  13.692
71677W        W42277  44.900  37.524   4.086
71678W        W42278  28.252  20.796   1.212
71679W        W42279  33.839  22.098   4.040
71680W        W42280  24.210  28.888  13.484
71681W        W42281  25.039  10.332  14.818
71682W        W42282  10.724  32.479  11.540
71683W        W42283  20.800  23.094  11.907
71684W        W42284  11.587  29.266  14.363
71685W        W42285  40.499   4.035   1.272
71686W        W42286  26.256  33.537   2.725
71687W        W42287  20.588  37.105  10.538
71688W        W42288  42.361  36.317  14.611
71689W        W42289   1.771   8.657   3.296
71690W        W42290   9.192  25.129   0.451
71691W        W42291  12.614  17.633  13.972
71692W        W42292  15.494  11.316  12.080
71693W        W42293  39.506  26.584   1.815
71694W        W42294  33.436  11.424   1.940
71695W        W42295   8.274  13.194   0.449
71696W        W42296  24.498  30.968   0.372
71697W        W42297   9.576  28.166   3.617
71698W        W42298   5.855  43.505   4.124
71699W        W42299   0.996  33.630   1.046
71700W        W42300  44.791  11.480   1.372
71701W        W42301  35.348  10.455   2.346
71702W        W42302  30.732   5.256   4.665
71703W        W42303  39.496  43.694   2.889
71704W        W42304  11.022  40.710  14.350
71705W        W42305  40.492  26.361  14.160
71706W        W42306  35.888  25.459  11.150
71707W        W42307   2.019  21.686  12.552
71708W        W42308  18.051   8.132   1.776
71709W        W42309  33.098   8.815  11.190
71710W        W42310   1.896  15.658  14.784
71711W        W42311  38.596  44.312   2.040
71712W        W42312  18.215  37.651   2.114
71713W        W42313  41.798  31.915   0.765
71714W        W42314  25.638  34.427   2.115
71715W        W42315  36.046  25.637   4.111
71716W        W42316   5.881  41.832   1.843
71717W        W42317  31.165  21.310   1.354
71718W        W42318  13.427   0.177   2.909
71719W        W42319  30.243  26.710   2.329
71720W        W42320  28.976  28.255  13.813
71721W        W42321  29.720  41.987   3.090
71722W        W42322  20.494  20.039  10.449
71723W        W42323  32.462  36.118   1.237
71724W        W42324  21.141   9.876   3.157
71725W        W42325  37.850  34.896   0.538
71726W        W42326  24.884  42.839   2.694
71727W        W42327  24.528  34.472   3.418
71728W        W42328   0.937  36.908   4.347
71729W        W42329  33.686  32.101  10.755
71730W        W42330  35.565  27.024   2.121
71731W        W42331   8.634   7.037  12.462
71732W        W42332   2.454  36.846   3.316
71733W        W42333   8.966  21.660  11.140
71734W        W42334  40.053   9.343   2.223
71735W        W42335  28.551  37.160  13.676
71736W        W42336  19.819   8.241  13.526
71737W        W42337  22.821  10.610   4.664
71738W        W42338  23.762  28.203   2.161
71739W        W42339  34.680  38.235   4.664
71740W        W42340  28.933  28.694   3.201
71741W        W42341  19.304  15.249   4.627
71742W        W42342  20.142  23.490   4.564
71743W        W42343  22.045  44.316   3.166
71744W        W42344  15.636   3.919   4.340
71745W        W42345  26.022  42.240   2.189
71746W        W42346  14.494  11.702   4.537
71747W        W42347   3.416  31.148  14.347
71748W        W42348   1.395  43.690  11.915
71749W        W42349   2.830  23.240  12.120
71750W        W42350  24.961  42.288  13.108
71751W        W42351  27.902  34.452   1.230
71752W        W42352  43.164   1.154   0.820
71753W        W42353   4.867  24.905  13.181
71754W        W42354  25.434  32.043  10.702
71755W        W42355   8.797  29.830  11.109
71756W        W42356  22.537   0.989   4.498
71757W        W42357  11.180  10.884  11.416
71758W        W42358  41.956   3.175   2.744
71759W        W42359  17.045  23.465   0.509
71760W        W42360  40.071   9.653   0.987
71761W        W42361  37.776  30.649   2.842
71762W        W42362  40.892   7.471   0.825
71763W        W42363  35.173  14.784  14.334
71764W        W42364  40.262   1.803   4.644
71765W        W42365  36.892  37.251   0.891
71766W        W42366  17.609  30.146  12.818
71767W        W42367   9.380  37.094  14.366
71768W        W42368  38.455  40.268   2.513
71769W        W42369  26.552  35.557   1.166
71770W        W42370   4.212   4.656   1.838
71771W        W42371  29.149   6.374   1.875
71772W        W42372  25.883  11.303  12.056
71773W        W42373   8.608  38.891   2.289
71774W        W42374  10.847  22.196  12.078
71775W        W42375   7.225   9.183   1.973
71776W        W42376   6.764   7.120  11.183
71777W        W42377  22.978  40.296  11.416
71778W        W42378  35.536   4.265   2.233
71779W        W42379  42.976  41.477  12.989
71780W        W42380  40.107  32.420   0.860
71781W        W42381  32.527  43.469   1.694
71782W        W42382  21.996  41.565  14.179
71783W        W42383  24.647  25.483   2.159
71784W        W42384  34.501  30.066  14.292
71785W        W42385  17.740  16.083   0.638
71786W        W42386  12.914  35.386  12.036
71787W        W42387  30.983  25.014   0.765
71788W        W42388  36.341  17.969   1.395
71789W        W42389  44.225   4.698  11.986
71790W        W42390  43.977  34.785  14.344
71791W        W42391  19.592  23.833  12.090
71792W        W42392   2.301  39.408  11.543
71793W        W42393  40.434  12.551   0.391
71794W        W42394  37.287  25.609   2.336
71795W        W42395  18.698   6.764  12.360
71796W        W42396   7.132  43.428   0.938
71797W        W42397  28.108   3.074  12.544
71798W        W42398   1.463  24.209  14.844
71799W        W42399   0.427   7.297  14.261
71800W        W42400  24.037  43.146  14.314
71801W        W42401  32.025  42.745   0.277
71802W        W42402  38.433  31.120  11.366
71803W        W42403  25.705  11.725  14.798
71804W        W42404  34.041   1.887  13.370
71805W        W42405  25.110  27.043  11.124
71806W        W42406  21.347   9.158  11.899
71807W        W42407  27.948  24.846   0.271
71808W        W42408  21.575  18.237   5.045
71809W        W42409  16.376  13.914  11.586
71810W        W42410   5.702  15.822  14.599
71811W        W42411  44.094   7.299  11.010
71812W        W42412  43.370  14.017   4.595
71813W        W42413   6.168  18.688  12.555
71814W        W42414  41.438  39.403  10.413
71815W        W42415  27.354  28.901  14.797
71816W        W42416  30.181  31.857  10.714
71817W        W42417  33.801   0.574   3.822
71818W        W42418   2.587  16.335  10.470
71819W        W42419   1.311  27.244  11.468
71820W        W42420  13.579  37.658   0.489
71821W        W42421  37.639   9.870  12.017
71822W        W42422  40.419   2.469  12.590
71823W        W42423   9.659   4.058   1.754
71824W        W42424  22.136  31.084  14.557
71825W        W42425  11.711  16.047   3.142
71826W        W42426  14.005  28.586   1.917
71827W        W42427  23.621  26.882   1.802
71828W        W42428   3.757  30.223  14.588
71829W        W42429  28.052  39.642   1.651
71830W        W42430   9.613  12.167   3.908
71831W        W42431  43.354   0.995  14.865
71832W        W42432  18.770  44.176   3.640
71833W        W42433   0.589  39.346   1.838
71834W        W42434   1.402  27.875  14.727
71835W        W42435  27.844  42.809   1.966
71836W        W42436   7.031  43.158   3.816
71837W        W42437  36.882  29.210  14.849
71838W        W42438  39.545  12.075  12.862
71839W        W42439  16.852  42.475   2.971
71840W        W42440  27.185   3.676  12.143
71841W        W42441  18.475  22.261  12.411
71842W        W42442  39.640  37.498   2.719
71843W        W42443   7.258   1.206   1.891
71844W        W42444  42.966  33.724   1.953
71845W        W42445  40.053  41.281   0.349
71846W        W42446  11.036  11.353  11.639
71847W        W42447  32.676  39.618   2.882
71848W        W42448   7.402   3.765   3.501
71849W        W42449  17.603  34.877  10.389
71850W        W42450  22.633   8.662  12.970
71851W        W42451  43.822   7.729   0.984
71852W        W42452  22.547  17.175  13.384
71853W        W42453  29.940   0.463   2.510
71854W        W42454  37.788  30.031  13.977
71855W        W42455   7.903   3.943   2.966
71856W        W42456  43.025  38.538  11.617
71857W        W42457  29.231  19.522   5.142
71858W        W42458  40.324   3.333   2.632
71859W        W42459  10.114  20.372  10.453
71860W        W42460  31.544  17.483  11.559
71861W        W42461  16.966  11.832   2.746
71862W        W42462  26.121  33.695  11.591
71863W        W42463  21.003   0.178  10.372
71864W        W42464   9.881  42.798   4.108
71865W        W42465  18.585   8.241   4.424
71866W        W42466  12.118  21.009  11.295
71867W        W42467   0.703   6.665   3.680
71868W        W42468  41.195  26.231   0.685
71869W        W42469  37.409   5.318   4.858
71870W        W42470  41.160  29.534   4.855
71871W        W42471  11.299  20.209   4.578
71872W        W42472  44.971  35.372  11.426
71873W        W42473  26.242   5.253  11.631
71874W        W42474   1.285  34.763  12.814
71875W        W42475  37.071  40.968  14.501
71876W        W42476   7.991  44.958   3.364
71877W        W42477  39.018  31.532   2.851
71878W        W42478   2.873  27.591  10.921
71879W        W42479  19.790  41.481   0.199
71880W        W42480  12.258  25.243  10.544
71881W        W42481  39.813  35.807   1.228
71882W        W42482  23.790  28.488  14.442
71883W        W42483  20.172  18.655  13.868
71884W        W42484  23.342   4.519  11.184
71885W        W42485  11.917  17.677   0.210
71886W        W42486  18.608  11.853   2.876
71887W        W42487  14.674   5.944  14.860
71888W        W42488  36.656  10.636  12.999
71889W        W42489   3.163   0.483   1.423
71890W        W42490  42.800   2.909   3.262
71891W        W42491  22.153  29.756  11.554
71892W        W42492  44.831  34.164  13.569
71893W        W42493  18.660   6.172  11.517
71894W        W42494  41.396  40.314   1.017
71895W        W42495  38.333   5.395   1.825
71896W        W42496  21.602  42.353  11.950
71897W        W42497  30.422  25.571   0.015
71898W        W42498  31.141  15.779  10.768
71899W        W42499  18.776  31.898   1.842
71900W        W42500  44.543  14.254  11.711
71901W        W42501  19.831   8.847  11.461
71902W        W42502   5.806  28.402  14.255
71903W        W42503  21.781  31.989   2.121
71904W        W42504  30.450  40.562   3.519
71905W        W42505  19.234  19.880  13.513
71906W        W42506  21.809  20.217   1.135
71907W        W42507  14.724  38.424  13.451
71908W        W42508   1.816   9.317   0.721
71909W        W42509   1.291   8.403   3.343
71910W        W42510  23.026  27.201  12.495
71911W        W42511   6.476   6.187   2.198
71912W        W42512  12.539  10.714   1.466
71913W        W42513  28.917  37.063   3.389
71914W        W42514  42.538  33.679   2.256
71915W        W42515  10.065  18.530  11.163
71916W        W42516  37.943   3.472   4.796
71917W        W42517  16.792  33.982  12.145
71918W        W42518  40.272  16.486  11.042
71919W        W42519  40.569  41.339  10.228
71920W        W42520  36.538  28.162   2.934
71921W        W42521   3.449  14.824   1.380
71922W        W42522  10.677  44.670  13.579
71923W        W42523  26.162  14.174  12.878
71924W        W42524  30.824  33.469   4.792
71925W        W42525  43.618  26.147   0.835
71926W        W42526  31.931  26.950   0.883
71927W        W42527  23.251  27.179  14.909
71928W        W42528  15.134  41.120   2.859
71929W        W42529  42.723  37.837   1.293
71930W        W42530  24.648  16.332  14.421
71931W        W42531  39.437  24.427   4.485
71932W        W42532   8.369  31.434  11.577
71933W        W42533   3.783  31.800   3.676
71934W        W42534  42.751  28.911   1.972
71935W        W42535   9.632   0.951  14.147
71936W        W42536  40.048  23.003  12.845
71937W        W42537  18.733  31.668  14.795
71938W        W42538  23.982  23.640  14.084
71939W        W42539  32.533  11.485  13.739
71940W        W42540  37.554   6.488   3.339
71941W        W42541   5.162   6.917  13.829
71942W        W42542   4.389  21.992   2.334
71943W        W42543  41.623  25.629   2.863
71944W        W42544  31.489  43.831  11.146
71945W        W42545  31.171  40.745   2.532
71946W        W42546  33.392  34.307  10.724
71947W        W42547  22.493   1.921   2.563
71948W        W42548  31.617  31.510   3.104
71949W        W42549  33.810  25.071   2.159
71950W        W42550   6.450  29.174  10.688
71951W        W42551   6.481   3.433  13.779
71952W        W42552  42.600  15.983  14.361
71953W        W42553  10.884  20.014  10.608
71954W        W42554  31.153   9.193  14.956
71955W        W42555  42.890  17.852   3.705
71956W        W42556  12.398  28.011   4.064
71957W        W42557  22.249  15.852   0.791
71958W        W42558  19.880  14.346  14.897
71959W        W42559  42.973  27.210  13.287
71960W        W42560   1.863  13.439  12.029
71961W        W42561  35.396  41.293  14.412
71962W        W42562  12.222  19.032   0.296
71963W        W42563  27.284  31.839  13.833
71964W        W42564  40.306  40.012   1.760
71965W        W42565  15.309  43.414  12.575
71966W        W42566  35.381  18.072   0.047
71967W        W42567  23.002  40.876   2.588
71968W        W42568  17.091  21.855  13.057
71969W        W42569  24.891  37.893  10.721
71970W        W42570  23.270  37.851  14.268
71971W        W42571  20.251  29.072  10.900
71972W        W42572  23.013  18.532  10.556
71973W        W42573   4.078  33.848  10.232
71974W        W42574  20.528  16.252   1.733
71975W        W42575   7.851  28.218  12.929
71976W        W42576  35.721  19.716  13.292
71977W        W42577  32.043  41.536  14.461
71978W        W42578  28.917  41.052  12.917
71979W        W42579  40.264   2.945   4.654
71980W        W42580  19.980  22.088   4.921
71981W        W42581  33.897  15.551   1.850
71982W        W42582  38.348   6.693  10.746
71983W        W42583  38.653   6.793   2.667
71984W        W42584   4.150  12.224  11.595
71985W        W42585  26.208  14.963   2.774
71986W        W42586  15.368  18.513  11.573
71987W        W42587  42.502  26.997   4.366
71988W        W42588   7.927  21.317  10.399
71989W        W42589  44.989  29.613  14.399
71990W        W42590  33.064  44.419  13.880
71991W        W42591  31.237  27.949  14.532
71992W        W42592  14.152   1.315   3.623
71993W        W42593   1.905  25.611  12.158
71994W        W42594   1.084  20.221  14.884
71995W        W42595  41.918  36.683  12.103
71996W        W42596  29.544  14.500  14.461
71997W        W42597  31.982   0.580  14.354
71998W        W42598  26.217  18.235  14.806
71999W        W42599  28.153  36.104  14.886
72000W        W42600   9.196  43.270  13.885
72001W        W42601  36.608   7.112  12.087
72002W        W42602   7.110  16.101   1.402
72003W        W42603  42.361  39.332   3.640
72004W        W42604  36.469  26.256  12.936
72005W        W42605  30.726   5.104  13.051
72006W        W42606   1.188  41.338   0.421
72007W        W42607  40.202   7.948   4.287
72008W        W42608   3.424  34.408   4.157
72009W        W42609  44.915  26.272   3.221
72010W        W42610   2.893  36.316   3.916
72011W        W42611  27.552  38.791  11.129
72012W        W42612  26.797  19.607  12.563
72013W        W42613   3.347  30.117  11.932
72014W        W42614  32.725  13.735   4.536
72015W        W42615  28.048  20.861  11.852
72016W        W42616  14.773   7.914  12.530
72017W        W42617   4.610  12.302   0.743
72018W        W42618   6.972  17.166   4.024
72019W        W42619  38.542   0.268  13.754
72020W        W42620   2.537  22.500  13.415
72021W        W42621  32.294  14.683   3.895
72022W        W42622  39.058  30.993   1.474
72023W        W42623   9.779  17.389  11.669
72024W        W42624  13.284  23.267  14.427
72025W        W42625  35.087  11.817  12.655
72026W        W42626  18.663  19.304  14.673
72027W        W42627  35.639  26.582  12.263
72028W        W42628  20.878  35.436   1.431
72029W        W42629  27.587  25.415  14.314
72030W        W42630  43.070  40.261  12.687
72031W        W42631  20.668  11.435   0.356
72032W        W42632  20.619   4.726  10.967
72033W        W42633  31.146  11.156  10.635
72034W        W42634  34.837  27.790   3.803
72035W        W42635  39.041   9.771  14.470
72036W        W42636  38.841   0.393  14.597
72037W        W42637  39.006  41.058  14.424
72038W        W42638  41.194  39.234   2.831
72039W        W42639   8.901  29.169   1.279
72040W        W42640   6.166  32.073  12.461
72041W        W42641   8.243  32.488   0.950
72042W        W42642   1.708  40.026  14.025
72043W        W42643  14.643   2.269   2.198
72044W        W42644  32.177  20.507   0.868
72045W        W42645  18.142   8.676  14.763
72046W        W42646   6.236  20.722   3.559
72047W        W42647   4.913  28.710  11.868
72048W        W42648  26.615  30.376   2.182
72049W        W42649  20.132  23.031  13.381
72050W        W42650  22.513  17.848  12.119
72051W        W42651  27.562  19.831  13.701
72052W        W42652  32.733  33.366  13.160
72053W        W42653   4.236  21.655   0.515
72054W        W42654  33.467  22.397  14.503
72055W        W42655  16.658  32.808  11.093
72056W        W42656  34.241  23.041  13.453
72057W        W42657  22.775  33.146  11.153
72058W        W42658   2.311  25.059  12.085
72059W        W42659  40.389   4.534   1.352
72060W        W42660  12.279  26.146  14.160
72061W        W42661  32.470  43.943   0.826
72062W        W42662  17.675  18.304   3.608
72063W        W42663  27.627   0.499   0.781
72064W        W42664   1.236  21.026   2.721
72065W        W42665  14.472  43.918   1.723
72066W        W42666  23.142  32.055  14.943
72067W        W42667  16.308  42.470   0.718
72068W        W42668  44.789  43.644   3.257
72069W        W42669  27.093  11.341  11.141
72070W        W42670  26.069  38.492   1.317
72071W        W42671  35.858  22.093  13.130
72072W        W42672  39.570   2.955  14.624
72073W        W42673   2.488  25.513  12.569
72074W        W42674  29.436  15.172  12.932
72075W        W42675  37.021  31.161  11.239
72076W        W42676  43.534  15.753   5.007
72077W        W42677   7.973  33.324   3.394
72078W        W42678  40.499  44.525  13.363
72079W        W42679   3.319  22.969   1.383
72080W        W42680   2.426  31.677   1.113
72081W        W42681  27.985  34.734  12.966
72082W        W42682  11.353  16.076   4.822
72083W        W42683  24.519  21.166  13.956
72084W        W42684  13.780  31.662  11.602
72085W        W42685  34.940  30.970   0.798
72086W        W42686  35.080  25.527   4.215
72087W        W42687   7.885  19.302  12.977
72088W        W42688  18.874  14.277   1.274
72089W        W42689  21.671  19.146   4.391
72090W        W42690  43.946  10.797   4.135
72091W        W42691  22.127  17.803  11.059
72092W        W42692  21.600  31.928  10.807
72093W        W42693  26.501  18.416  11.581
72094W        W42694  15.280  19.622  10.588
72095W        W42695  32.526  30.028   3.312
72096W        W42696   3.647   4.272   0.406
72097W        W42697  15.690  16.521  13.112
72098W        W42698  44.231  16.833  11.494
72099W        W42699  33.090   5.556  14.966
72100W        W42700  25.758  36.512  13.454
72101W        W42701  14.143   0.861   4.796
72102W        W42702  24.752   1.167   5.261
72103W        W42703  26.119   3.265  14.648
72104W        W42704  42.519   5.448  12.981
72105W        W42705   2.333  22.413   2.446
72106W        W42706  27.483  31.951   0.106
72107W        W42707   6.895  33.479   0.661
72108W        W42708   3.413  15.027   2.672
72109W        W42709  41.240  31.440   0.003
72110W        W42710  34.940  20.756  13.597
72111W        W42711  19.625  40.524   3.474
72112W        W42712   8.959   7.359   3.630
72113W        W42713   1.205   9.667  14.538
72114W        W42714  44.461  44.729   1.680
72115W        W42715  29.014  37.801  13.518
72116W        W42716  38.935  39.262   5.055
72117W        W42717  37.985  15.284   4.200
72118W        W42718   6.743  12.062  14.833
72119W        W42719  13.440  20.308   0.945
72120W        W42720  40.113   7.014   4.539
72121W        W42721  21.186  36.828   4.128
72122W        W42722  27.925  35.453  13.025
72123W        W42723   7.403  28.056   1.820
72124W        W42724  18.991  38.208  13.472
72125W        W42725  18.671   5.095  14.946
72126W        W42726  15.708  22.083  13.305
72127W        W42727  29.264   2.598   2.693
72128W        W42728  42.996   1.685   1.357
72129W        W42729  41.641  14.283   2.771
72130W        W42730  26.720  20.537   2.666
72131W        W42731  41.597   3.365   0.662
72132W        W42732  30.270  12.992  11.236
72133W        W42733  15.687  27.496   3.456
72134W        W42734  15.870   4.161   0.008
72135W        W42735  43.569   9.904   2.339
72136W        W42736  18.282  35.626   3.170
72137W        W42737  17.924   4.626  10.142
72138W        W42738  12.334   1.406   0.375
72139W        W42739  29.185  40.137   0.147
72140W        W42740   6.920  16.357   0.953
72141W        W42741   6.953  18.768  11.079
72142W        W42742   6.797  30.206  14.728
72143W        W42743  40.011  44.134   3.729
72144W        W42744  23.627  12.445   4.858
72145W        W42745  44.065  35.762   3.584
72146W        W42746  24.190   8.490  13.308
72147W        W42747   3.294   7.780   3.552
72148W        W42748  37.365  26.825  14.048
72149W        W42749  23.066  11.812  10.770
72150W        W42750  30.597  23.112   4.169
72151W        W42751  16.605  41.377  12.351
72152W        W42752  29.019  13.710   0.794
72153W        W42753  24.014  30.725  13.008
72154W        W42754  37.289  43.973   4.820
72155W        W42755  33.368   1.294   1.479
72156W        W42756  28.453  37.367   0.028
72157W        W42757  12.378   8.830   3.667
72158W        W42758  23.679  15.890  11.882
72159W        W42759  43.973   8.818   0.821
72160W        W42760  43.774  41.527  12.551
72161W        W42761  40.618  10.786   3.231
72162W        W42762  35.857  16.361  11.646
72163W        W42763   1.519  16.721  11.954
72164W        W42764  36.424  40.917  11.547
72165W        W42765  37.309  17.622   0.876
72166W        W42766  43.386  19.050   3.598
72167W        W42767  16.227   9.871   4.436
72168W        W42768  14.745  41.516   1.344
72169W        W42769  40.590   7.159  11.964
72170W        W42770  19.322  44.565  13.244
72171W        W42771  26.467   2.354   1.796
72172W        W42772  15.190  24.886   1.006
72173W        W42773  17.834  18.994  14.515
72174W        W42774  25.289  38.810  11.314
72175W        W42775  42.788  37.938  14.878
72176W        W42776  42.292  20.215   0.489
72177W        W42777  17.171   0.588  12.434
72178W        W42778  22.129  12.150  13.528
72179W        W42779  22.624  22.700  10.671
72180W        W42780   0.312  19.026  13.863
72181W        W42781  17.807  30.703  14.451
72182W        W42782   8.449  40.020  11.202
72183W        W42783  24.748   3.508  14.671
72184W        W42784  11.653  34.983   4.214
72185W        W42785  28.948   8.851   3.545
72186W        W42786   8.311  26.183   0.359
72187W        W42787  12.768  42.783  12.630
72188W        W42788  12.719  22.931  11.722
72189W        W42789   6.632  34.899   2.914
72190W        W42790  21.425  22.426   4.173
72191W        W42791  13.169  32.720   2.666
72192W        W42792  17.127  40.920  11.787
72193W        W42793  40.995  19.703   4.537
72194W        W42794   8.079   1.408  10.692
72195W        W42795  18.457  23.062  12.222
72196W        W42796  14.374  38.593  12.467
72197W        W42797  17.634  24.927   1.461
72198W        W42798  10.585   3.594   0.520
72199W        W42799  21.532  10.129  14.762
72200W        W42800  23.638  18.795   0.311
72201W        W42801  39.622  42.583  10.309
72202W        W42802  35.376  20.011   2.352
72203W        W42803  35.986  33.868   2.566
72204W        W42804  25.473  32.151   4.114
72205W        W42805   0.025  27.527  12.135
72206W        W42806  36.460  36.852   2.410
72207W        W42807   3.210  13.222   3.263
72208W        W42808  16.038  31.173  14.017
72209W        W42809  37.868  36.948  13.474
72210W        W42810  35.799  17.784   2.158
72211W        W42811  15.148  19.257  12.692
72212W        W42812  12.961   0.344   2.807
72213W        W42813  40.327  42.365   3.214
72214W        W42814   0.485  27.253  13.531
72215W        W42815  28.090  33.100   0.847
72216W        W42816  12.659   5.505  13.035
72217W        W42817   4.567  36.186  14.582
72218W        W42818  35.048  33.420   2.675
72219W        W42819  10.403  14.033   2.454
72220W        W42820  44.761   8.163  11.824
72221W        W42821   0.313  40.065   2.900
72222W        W42822  36.721  28.244  11.534
72223W        W42823   8.835   9.437  14.013
72224W        W42824  27.563   4.783  10.604
72225W        W42825  17.213   4.844   1.245
72226W        W42826  20.005  15.898  11.418
72227W        W42827  17.103  32.572  13.348
72228W        W42828  16.099   1.070   0.740
72229W        W42829  10.383  17.532   4.114
72230W        W42830  37.088  28.923   1.295
72231W        W42831  34.536  35.304   4.514
72232W        W42832  38.711  38.378  11.557
72233W        W42833  18.756  15.791  11.149
72234W        W42834  31.688  12.301  12.015
72235W        W42835  22.715   7.788   3.635
72236W        W42836   8.972  19.697   0.835
72237W        W42837  38.885  18.932  12.170
72238W        W42838   5.761  22.813   1.069
72239W        W42839   7.389  31.541  13.649
72240W        W42840   7.301  36.979   0.063
72241W        W42841  14.259  28.419  11.569
72242W        W42842  13.243  19.126   4.503
72243W        W42843  22.041   8.732   2.182
72244W        W42844   9.596  26.663  12.071
72245W        W42845  26.658   3.561   0.977
72246W        W42846   7.301  20.813  12.504
72247W        W42847  11.283  38.584   0.763
72248W        W42848  28.017  30.002  10.684
72249W        W42849  33.680  18.186  10.247
72250W        W42850  11.004  40.248  12.511
72251W        W42851  39.490   4.876  12.440
72252W        W42852  25.017   9.777   2.016
72253W        W42853   4.879  13.322   4.138
72254W        W42854  28.601  10.110  11.104
72255W        W42855   3.777  10.236   2.342
72256W        W42856  24.631  30.954  11.626
72257W        W42857   1.721  30.917  13.281
72258W        W42858   6.806  23.722   3.619
72259W        W42859  27.745  27.584  13.385
72260W        W42860  43.901  28.619  11.662
72261W        W42861   2.763  32.694  12.433
72262W        W42862  26.468  44.268  10.907
72263W        W42863  39.822  17.596  11.592
72264W        W42864  44.057   2.388  12.917
72265W        W42865  33.157  41.226  13.092
72266W        W42866  17.388  41.813  11.427
72267W        W42867  17.998  23.217  10.734
72268W        W42868  33.244   5.772   9.937
72269W        W42869  29.024  27.106   4.508
72270W        W42870  43.795   4.933  13.419
72271W        W42871  15.723  18.711   4.156
72272W        W42872  34.426  11.133  11.229
72273W        W42873  30.490  37.557   2.420
72274W        W42874  19.042  42.255  13.622
72275W        W42875  33.893  24.668   1.786
72276W        W42876  10.123  40.718  12.180
72277W        W42877  21.836  37.059   2.290
72278W        W42878  11.639   0.993  14.999
72279W        W42879  38.875  38.064   1.026
72280W        W42880  29.535  35.308  11.021
72281W        W42881  37.311   4.606  14.028
72282W        W42882   0.503  43.323   3.719
72283W        W42883   4.948  10.272  11.514
72284W        W42884  32.649  14.135   3.213
72285W        W42885  32.510  14.044   2.197
72286W        W42886  43.893   1.983   2.223
72287W        W42887  10.150  35.027  11.742
72288W        W42888  27.515  16.803  12.453
72289W        W42889  12.756  22.675  12.568
72290W        W42890  31.112  10.962   0.078
72291W        W42891  44.022  16.758  12.410
72292W        W42892   0.347  40.300   1.296
72293W        W42893  38.881  38.881  11.342
72294W        W42894  20.098  32.447   3.671
72295W        W42895   2.943  14.931   4.931
72296W        W42896  24.667  43.173  14.076
72297W        W42897  34.648  35.957   2.992
72298W        W42898  21.281  18.558  12.385
72299W        W42899  34.568  44.292  13.679
72300W        W42900   1.064  13.345  11.602
72301W        W42901  14.461  21.670  12.814
72302W        W42902   5.137   5.457  10.781
72303W        W42903  17.630   6.017   2.371
72304W        W42904  42.138  29.148   0.917
72305W        W42905  12.227  22.684   2.203
72306W        W42906  42.403   4.180   0.239
72307W        W42907  11.076  28.985  12.444
72308W        W42908  43.270  17.325  11.083
72309W        W42909  15.605  34.513  13.002
72310W        W42910   6.420  42.705   2.711
72311W        W42911  36.435   2.662  14.570
72312W        W42912   2.884  39.541  13.382
72313W        W42913  27.662  14.155  13.210
72314W        W42914  13.294  11.313  14.849
72315W        W42915  31.586  30.144   1.959
72316W        W42916  43.448  15.695  13.861
72317W        W42917  44.323   6.142   1.678
72318W        W42918  40.325   0.423   4.674
72319W        W42919  37.006  21.118  12.193
72320W        W42920   8.821  36.771  10.937
72321W        W42921  44.955   3.535  11.812
72322W        W42922   0.254   7.357  11.909
72323W        W42923  44.311  10.255   0.338
72324W        W42924  29.920  20.122   1.753
72325W        W42925  42.862  43.308  14.213
72326W        W42926  15.647   2.182  11.187
72327W        W42927  40.628  44.749   2.454
72328W        W42928  15.323  21.719   2.401
72329W        W42929  29.015  39.830  12.209
72330W        W42930  24.277  14.769   4.224
72331W        W42931  23.768  41.925   0.928
72332W        W42932  31.863  44.514  12.071
72333W        W42933   4.255  25.483   2.295
72334W        W42934   9.916  39.290  11.001
72335W        W42935  25.618  18.647   4.955
72336W        W42936  32.134  19.981   1.442
72337W        W42937   2.459  26.107   0.820
72338W        W42938  24.582  26.155  11.842
72339W        W42939  35.041   7.488  13.538
72340W        W42940  35.149   7.310  11.600
72341W        W42941  38.335  10.353  11.661
72342W        W42942  36.868   6.765  14.985
72343W        W42943   3.556  11.208   3.774
72344W        W42944  23.992  40.888  12.620
72345W        W42945  10.906  23.779   3.666
72346W        W42946  25.885  22.707  10.615
72347W        W42947  41.122  14.057   1.918
72348W        W42948   9.954  37.540  13.162
72349W        W42949  30.171  23.070  13.468
72350W        W42950  11.825   6.810   0.079
72351W        W42951   9.791   8.271   4.172
72352W        W42952  34.100  39.418   1.196
72353W        W42953  18.711  35.416   1.767
72354W        W42954   0.216  39.254   3.918
72355W        W42955  24.218   7.325  14.705
72356W        W42956   3.984  31.359  13.040
72357W        W42957   9.786  29.535  12.100
72358W        W42958  23.457   7.480  14.458
72359W        W42959   3.616  24.654  14.714
72360W        W42960   7.890  35.629   3.843
72361W        W42961  44.128   1.678  13.389
72362W        W42962  19.166   9.489  13.025
72363W        W42963  31.388  20.618   0.551
72364W        W42964  11.903  24.461   0.310
72365W        W42965   7.808  33.437  12.030
72366W        W42966  44.687  22.736   2.478
72367W        W42967   5.792   8.966  12.055
72368W        W42968  26.598  33.910   2.550
72369W        W42969   5.240  27.471  13.399
72370W        W42970  20.808  39.116   3.467
72371W        W42971   0.851  42.919   3.585
72372W        W42972  17.608  23.313   0.845
72373W        W42973   4.878   6.456  12.037
72374W        W42974  19.931  29.510   3.247
72375W        W42975  36.650  44.910  14.973
72376W        W42976   3.145  36.775   3.753
72377W        W42977  43.349   0.020   1.855
72378W        W42978  14.548  23.186   2.210
72379W        W42979   0.349  10.110   4.215
72380W        W42980   2.689  12.545  12.575
72381W        W42981  38.797  39.083  12.259
72382W        W42982  44.868  30.329   2.221
72383W        W42983  35.833  26.601   2.160
72384W        W42984  22.177  36.044  14.197
72385W        W42985  30.418  43.797  12.644
72386W        W42986  35.407  14.092  10.787
72387W        W42987  12.164  29.110   0.445
72388W        W42988  29.540  17.688   0.895
72389W        W42989  15.805   4.374   4.127
72390W        W42990  35.825  23.243  12.920
72391W        W42991  35.154  33.924   2.650
72392W        W42992  11.686   2.802  12.293
72393W        W42993  18.297  21.330   3.939
72394W        W42994  17.621   9.046   4.791
72395W        W42995  33.433  15.385  11.562
72396W        W42996  12.627  34.136  12.601
72397W        W42997  24.106  37.081  11.657
72398W        W42998  39.422  33.112  11.587
72399W        W42999  25.968   0.300   4.525
72400W        W43000  27.545  35.904  11.743
72401W        W43001  26.596  16.874  10.825
72402W        W43002   5.446  13.805  14.929
72403W        W43003  32.055  31.623  13.051
72404W        W43004  34.666   9.767   1.948
72405W        W43005  21.038  15.050   2.452
72406W        W43006   9.792   2.672  14.984
72407W        W43007  14.176   5.021   1.304
72408W        W43008  39.830  19.442   2.691
72409W        W43009  21.939   2.980  11.636
72410W        W43010  22.225   1.782  11.284
72411W        W43011  24.118  19.096  13.113
72412W        W43012  33.457  14.578  14.269
72413W        W43013  16.139  35.676   5.158
72414W        W43014  44.522  41.063   5.012
72415W        W43015  11.345  33.307   1.519
72416W        W43016  38.774  31.662  13.820
72417W        W43017   5.036  43.802  13.877
72418W        W43018  30.797  36.508  12.223
72419W        W43019   0.614  37.950  11.181
72420W        W43020   8.288  29.525  11.922
72421W        W43021   4.273   0.487  13.785
72422W        W43022   0.725  12.393  10.796
72423W        W43023  38.062  41.125   2.766
72424W        W43024  23.470  30.857  12.943
72425W        W43025  14.245   8.801   2.640
72426W        W43026  27.333  38.182   0.720
72427W        W43027  14.764   6.853  13.124
72428W        W43028  21.750  39.949  10.745
72429W        W43029  12.317  35.958  13.357
72430W        W43030   7.744  44.564  13.685
72431W        W43031  14.537  12.567  12.905
72432W        W43032  12.874   1.808  13.421
72433W        W43033  20.362  19.327  11.626
72434W        W43034  29.429  28.930  12.458
72435W        W43035  39.345  34.584  10.732
72436W        W43036  40.923  41.724  14.081
72437W        W43037  27.085  26.282   1.044
72438W        W43038  11.762  13.616  13.961
72439W        W43039   9.721  42.767   0.392
72440W        W43040  25.457   4.343   4.575
72441W        W43041   6.148  35.229  11.832
72442W        W43042  15.776   7.349   2.144
72443W        W43043  16.064  40.369  11.641
72444W        W43044  10.726  40.333   4.629
72445W        W43045  37.723  44.983   3.284
72446W        W43046   8.833  25.633   3.579
72447W        W43047  24.656  13.741   1.890
72448W        W43048  43.094   8.924  12.066
72449W        W43049   1.984  33.886  14.836
72450W        W43050   2.031   8.986  13.098
72451W        W43051  24.627   0.471   0.331
72452W        W43052   4.851  27.326   1.338
72453W        W43053  36.588  36.347  14.500
72454W        W43054  12.501   6.319   0.789
72455W        W43055  23.950  32.352   2.007
72456W        W43056   9.281   8.810  13.358
72457W        W43057  25.513  26.798  14.891
72458W        W43058  25.982  18.787   1.723
72459W        W43059  39.320  12.108   4.043
72460W        W43060  13.865   1.784   3.626
72461W        W43061  24.150   1.201  10.576
72462W        W43062   7.990  36.125  13.491
72463W        W43063  29.862   7.673   1.095
72464W        W43064  23.965  14.712  11.182
72465W        W43065  18.589  28.839   0.425
72466W        W43066  15.150  25.420   4.833
72467W        W43067   9.440  18.140  12.335
72468W        W43068  40.507  18.818   1.639
72469W        W43069   1.199  27.663   0.734
72470W        W43070   6.809  11.376  13.172
72471W        W43071   5.989   8.346  13.275
72472W        W43072   6.186  15.019   3.793
72473W        W43073   0.876   3.351   2.598
72474W        W43074   5.270  19.785  11.637
72475W        W43075   3.865   6.965   3.823
72476W        W43076  43.708  39.016   2.788
72477W        W43077  19.045  34.078  13.844
72478W        W43078  13.264  27.311  12.923
72479W        W43079  31.008  43.601  11.397
72480W        W43080  32.348  20.182  12.063
72481W        W43081  19.662  10.714   4.251
72482W        W43082  14.783  37.804   0.948
72483W        W43083  12.298  26.640   0.946
72484W        W43084  26.953  11.775  13.958
72485W        W43085  14.675   4.177   3.305
72486W        W43086   0.603  11.884   1.267
72487W        W43087  21.808  17.217  10.851
72488W        W43088  39.300  11.764   0.503
72489W        W43089   8.100  41.955  12.080
72490W        W43090  13.056  25.619  14.003
72491W        W43091  32.497  17.813   4.596
72492W        W43092  31.081  28.613   2.169
72493W        W43093   4.766   6.149   0.861
72494W        W43094  14.223  39.890   9.913
72495W        W43095  25.623  14.292  14.798
72496W        W43096  35.462   6.236   4.327
72497W        W43097  16.363  19.589  13.559
72498W        W43098  40.944  34.039   3.128
72499W        W43099   8.840  10.682   0.784
72500W        W43100  38.365  41.988   0.068
72501W        W43101  26.587  35.691   2.227
72502W        W43102   5.340  35.308   0.797
72503W        W43103  37.025  19.776   0.248
72504W        W43104  30.060   4.316  14.945
72505W        W43105  10.440  12.734   1.776
72506W        W43106  26.523  16.554   2.258
72507W        W43107  31.235  32.819   2.990
72508W        W43108  28.703  40.209  14.124
72509W        W43109  36.862  24.952  12.106
72510W        W43110   3.268   2.022  11.580
72511W        W43111  37.213  21.999   1.670
72512W        W43112  27.446  20.826   4.103
72513W        W43113   7.800  38.758  14.905
72514W        W43114  19.390  12.782   1.337
72515W        W43115  11.983  14.885  11.619
72516W        W43116   0.709  10.598  14.412
72517W        W43117   8.697  38.503   4.124
72518W        W43118  29.808   1.774   1.791
72519W        W43119  39.945  10.740   4.593
72520W        W43120  37.624  11.569   1.866
72521W        W43121   9.684  32.594   0.027
72522W        W43122  23.933  44.723  14.410
72523W        W43123  20.675  27.438   4.601
72524W        W43124  14.902  19.855   2.246
72525W        W43125  10.846  14.582  14.010
72526W        W43126  12.130  37.596  11.665
72527W        W43127  19.679  20.669   3.720
72528W        W43128  41.065  22.368  13.357
72529W        W43129  36.736   9.666  12.789
72530W        W43130  30.604  19.516   3.633
72531W        W43131  13.168  38.806  10.563
72532W        W43132   5.337  12.064  12.127
72533W        W43133  28.851   7.664   1.195
72534W        W43134  22.930   0.249   3.374
72535W        W43135   1.182  21.256  11.389
72536W        W43136   8.898   7.620   1.124
72537W        W43137   7.676   5.395  14.361
72538W        W43138   3.290  25.498   4.561
72539W        W43139   9.599  35.532   4.665
72540W        W43140  26.012  12.875  11.963
72541W        W43141   5.692  26.746  12.766
72542W        W43142  25.770  29.787   0.796
72543W        W43143  24.929  21.776   2.724
72544W        W43144  27.514  11.407   1.219
72545W        W43145   8.954  12.339   2.812
72546W        W43146  12.450  16.898   1.644
72547W        W43147  17.784   3.994   3.122
72548W        W43148  10.171  25.759   1.839
72549W        W43149  24.202  15.761  12.067
72550W        W43150   8.335  28.593   3.329
72551W        W43151  30.565  16.599   3.705
72552W        W43152  14.849   3.697  10.169
72553W        W43153   4.370  40.469  11.535
72554W        W43154  40.783  10.904  13.604
72555W        W43155  22.446  25.898  11.504
72556W        W43156  15.505  17.260   2.777
72557W        W43157  15.538  13.123  14.948
72558W        W43158   8.447  19.823   2.845
72559W        W43159  36.835   1.784   3.177
72560W        W43160  25.615   5.927  14.712
72561W        W43161   4.710  10.903  14.025
72562W        W43162  10.938  34.219   4.643
72563W        W43163  11.119   5.871   3.719
72564W        W43164   9.431  30.334   1.931
72565W        W43165  11.001  25.184   1.411
72566W        W43166  21.205  34.470  14.456
72567W        W43167  34.726  34.389  11.093
72568W        W43168   9.204  35.035  10.668
72569W        W43169  15.601  31.503  14.175
72570W        W43170  27.464  25.120   2.648
72571W        W43171   2.894   8.106   4.664
72572W        W43172  21.958   9.173   1.718
72573W        W43173  22.984  18.707  14.590
72574W        W43174  21.020   6.209  13.758
72575W        W43175   8.818  32.126  13.584
72576W        W43176   8.700  11.193  13.175
72577W        W43177   9.695  19.632   1.534
72578W        W43178  37.081  24.744  13.474
72579W        W43179  42.834  32.138  12.656
72580W        W43180   0.030  20.119   1.575
72581W        W43181  43.805  26.710   0.474
72582W        W43182  21.437  41.972   5.090
72583W        W43183   4.211  25.447   2.800
72584W        W43184  28.064   6.775   3.901
72585W        W43185  40.903  26.177  14.423
72586W        W43186  43.943  42.012  10.580
72587W        W43187  42.868  20.441  13.302
72588W        W43188  43.928   4.434   3.369
72589W        W43189  23.439  27.857   3.220
72590W        W43190  31.283  23.730  12.017
72591W        W43191  12.098  38.540  10.477
72592W        W43192  31.851  42.581  12.057
72593W        W43193   6.325  31.577  13.566
72594W        W43194  13.549  12.950   3.465
72595W        W43195  23.801  43.655  14.836
72596W        W43196   7.974  13.151   2.341
72597W        W43197  40.385  11.295   1.828
72598W        W43198   5.940   3.852   2.328
72599W        W43199  19.784  22.746   1.902
72600W        W43200  41.756   5.444   1.694
72601W        W43201  22.992  40.334  11.948
72602W        W43202  28.413  29.648  11.612
72603W        W43203  26.478   2.354   5.097
72604W        W43204  38.078   2.251   2.829
72605W        W43205  44.951  37.977   2.189
72606W        W43206  44.744  23.442   3.148
72607W        W43207  40.320   8.840  12.837
72608W        W43208  35.462  29.842  10.577
72609W        W43209  28.413   9.838   4.119
72610W        W43210  40.309   8.135  14.701
72611W        W43211  37.554  36.765   0.427
72612W        W43212   8.367  37.196   3.428
72613W        W43213  40.910  11.282   2.151
72614W        W43214  27.709  19.825   1.218
72615W        W43215   3.821  40.955   4.388
72616W        W43216  22.036  17.104   4.738
72617W        W43217  12.519  23.415   2.040
72618W        W43218  34.283  16.352   2.134
72619W        W43219  14.617  27.206   2.811
72620W        W43220  37.019  22.227  12.586
72621W        W43221  30.632  20.803   3.778
72622W        W43222  21.614  20.716   1.134
72623W        W43223  30.837  36.932  12.594
72624W        W43224  36.395  15.524   3.577
72625W        W43225   5.443  17.159  11.109
72626W        W43226  13.211   4.537  13.564
72627W        W43227   8.326  28.502  12.780
72628W        W43228  21.486  33.336   1.739
72629W        W43229  21.820   5.825  13.568
72630W        W43230  16.292  11.587   3.318
72631W        W43231  11.732  15.202   0.927
72632W        W43232  13.423  29.331  13.976
72633W        W43233  15.273  27.470   0.994
72634W        W43234  33.045  30.399   2.319
72635W        W43235  19.819  37.118   3.197
72636W        W43236  20.510  44.788   3.822
72637W        W43237  35.780  15.562   4.640
72638W        W43238  36.525  38.521  14.791
72639W        W43239  33.404  21.302   1.407
72640W        W43240   3.764  17.497  10.744
72641W        W43241  12.126  35.087  12.922
72642W        W43242  44.276  21.143  13.081
72643W        W43243  18.198  25.032   4.367
72644W        W43244  28.676   6.765   1.252
72645W        W43245   3.936   9.869  12.617
72646W        W43246  37.625  33.592   0.650
72647W        W43247   9.125  38.192   3.739
72648W        W43248  36.468  12.711   4.508
72649W        W43249   5.852  30.048  12.645
72650W        W43250  21.642  30.160  13.926
72651W        W43251   7.917   0.352  14.819
72652W        W43252   2.520   2.335   4.595
72653W        W43253  17.884  26.100   1.701
72654W        W43254  27.576  39.500   2.315
72655W        W43255  15.137  29.591   0.118
72656W        W43256  33.633  23.394  12.597
72657W        W43257   3.839  37.425   1.617
72658W        W43258  11.640  37.599  14.216
72659W        W43259  27.113  37.468   2.718
72660W        W43260   6.497  33.247   0.904
72661W        W43261   3.412  13.789  11.566
72662W        W43262  26.484   1.274  11.140
72663W        W43263  41.036  29.370  14.840
72664W        W43264  30.963   5.818  11.794
72665W        W43265   0.509  35.368   1.731
72666W        W43266  31.019  14.209  13.077
72667W        W43267  44.020  29.573   1.831
72668W        W43268   4.580  25.106   4.137
72669W        W43269  23.237  15.151  11.101
72670W        W43270  39.758  27.234  10.678
72671W        W43271  29.491  37.056  12.657
72672W        W43272  20.040   5.287  10.803
72673W        W43273  14.639   8.660  14.284
72674W        W43274  22.971  44.505   1.348
72675W        W43275   6.990  42.748  11.128
72676W        W43276  41.525  24.474   2.785
72677W        W43277   3.730  30.985  14.743
72678W        W43278  15.309  39.448   2.959
72679W        W43279  43.956  43.733   4.106
72680W        W43280  17.225  17.656   1.485
72681W        W43281  29.462  28.984  10.459
72682W        W43282   9.489  44.447  12.489
72683W        W43283   5.560  23.359   1.792
72684W        W43284  43.796  32.006   4.666
72685W        W43285  13.065  32.434  13.874
72686W        W43286  43.624  35.158   1.113
72687W        W43287  34.672  21.014   2.815
72688W        W43288   3.257  15.595   1.810
72689W        W43289   3.191  31.515  12.081
72690W        W43290  18.231  22.311  10.613
72691W        W43291  22.436   1.239  14.409
72692W        W43292  11.802  18.843   1.350
72693W        W43293   2.219   1.875  13.567
72694W        W43294  39.940  26.003   3.236
72695W        W43295   4.342  14.234   0.808
72696W        W43296  26.581   7.826   0.526
72697W        W43297  31.865  38.312  11.434
72698W        W43298  27.056  38.566  11.076
72699W        W43299  14.982  33.931   3.282
72700W        W43300  41.411   5.824   4.534
72701W        W43301  34.732  18.868  11.598
72702W        W43302   8.784  14.642   3.825
72703W        W43303  20.728  24.009  14.779
72704W        W43304  42.368   7.385   1.992
72705W        W43305   9.308  39.130   4.178
72706W        W43306   5.040   7.965  11.112
72707W        W43307   1.741  24.615  14.739
72708W        W43308  15.317  20.059   1.411
72709W        W43309  12.739  21.109  13.612
72710W        W43310  26.347  34.530   1.255
72711W        W43311  26.475  19.124   1.341
72712W        W43312  19.178  44.309  12.056
72713W        W43313  14.692  32.086   9.999
72714W        W43314  39.777  37.405  14.479
72715W        W43315  29.433  21.619   3.732
72716W        W43316  23.609  43.713   3.802
72717W        W43317  39.573  41.124  13.327
72718W        W43318   3.268   8.741   3.871
72719W        W43319  33.565  13.090   0.314
72720W        W43320  26.853  17.384   3.221
72721W        W43321  42.342  24.696   4.317
72722W        W43322  11.387   2.856  14.759
72723W        W43323  20.940   1.962  14.721
72724W        W43324  40.079  21.507   3.089
72725W        W43325  43.005  16.296  14.254
72726W        W43326   9.965  39.068   2.441
72727W        W43327  15.997   3.467   3.013
72728W        W43328  27.182   7.230   4.160
72729W        W43329  10.531  21.731  11.537
72730W        W43330  14.142  24.287  13.882
72731W        W43331   3.174  15.237  13.889
72732W        W43332   9.274  16.291   2.239
72733W        W43333  32.346  36.512  11.765
72734W        W43334   0.880  11.086  11.115
72735W        W43335   1.618   6.395  13.889
72736W        W43336   2.793  36.044  10.625
72737W        W43337  19.723  36.146  13.914
72738W        W43338  41.023  42.118  10.743
72739W        W43339  24.565   8.141  11.500
72740W        W43340  39.892  32.606   3.816
72741W        W43341   0.964  32.045   0.052
72742W        W43342   6.711  16.390  12.506
72743W        W43343   6.727  23.401  14.287
72744W        W43344  32.723  39.538   0.846
72745W        W43345  14.809  29.016  12.484
72746W        W43346   4.402  16.324  14.956
72747W        W43347  11.398  26.206  14.967
72748W        W43348  40.218   1.253  14.828
72749W        W43349  20.131   9.505   0.443
72750W        W43350  19.249   0.384   2.665
72751W        W43351  23.651  15.567   0.428
72752W        W43352   5.738  28.371   4.326
72753W        W43353   7.240  42.054   0.932
72754W        W43354  29.988  36.552  13.911
72755W        W43355  40.059  18.153   1.911
72756W        W43356   4.524  11.842   1.480
72757W        W43357  10.771  20.209  14.248
72758W        W43358  10.727  35.245   3.693
72759W        W43359   4.363  15.925  13.674
72760W        W43360  31.168  39.752  14.243
72761W        W43361  43.306  35.074  12.441
72762W        W43362  27.143  12.630   0.282
72763W        W43363  44.571   9.451  13.962
72764W        W43364   6.625  17.195   2.711
72765W        W43365  34.403  31.694   0.387
72766W        W43366  36.744  17.718   2.845
72767W        W43367  15.351  44.024   4.535
72768W        W43368  11.803   6.260   2.048
72769W        W43369   1.463  19.228   3.759
72770W        W43370  17.141  28.442  10.565
72771W        W43371  24.436  38.534  14.342
72772W        W43372  14.021  28.217   3.661
72773W        W43373  14.118   4.249   2.847
72774W        W43374  29.969  16.752   2.972
72775W        W43375  44.522  37.068  11.929
72776W        W43376  17.387  15.828  12.885
72777W        W43377  23.007   6.840  13.088
72778W        W43378  38.986  27.968  12.114
72779W        W43379  40.892   6.557   4.684
72780W        W43380   4.624  40.685   0.462
72781W        W43381  21.223  44.426  12.369
72782W        W43382  24.733  16.333   1.845
72783W        W43383   8.800  29.724   2.331
72784W        W43384   2.912  15.660  12.959
72785W        W43385  32.508  40.430  13.155
72786W        W43386  15.143   6.144  10.575
72787W        W43387  44.333  41.406   1.275
72788W        W43388  33.155  18.600   1.684
72789W        W43389  29.414   0.775  10.497
72790W        W43390  11.121  29.977   2.730
72791W        W43391   3.069  26.855   1.162
72792W        W43392  34.872  43.515   3.398
72793W        W43393  35.816  29.018  13.045
72794W        W43394  40.069   4.573  13.534
72795W        W43395  38.134  42.552  10.396
72796W        W43396   1.770  10.712  12.487
72797W        W43397  19.280   2.278  12.205
72798W        W43398  15.686  29.618   0.403
72799W        W43399  18.330  44.454  10.229
72800W        W43400  13.594  19.209   2.382
72801W        W43401   2.772  31.099   4.591
72802W        W43402  41.044  15.112   3.328
72803W        W43403  33.057   9.472  12.855
72804W        W43404  38.376   2.484   3.661
72805W        W43405  12.000  22.537  11.928
72806W        W43406  14.637  37.930  13.480
72807W        W43407  39.793  11.602   0.490
72808W        W43408  20.507   1.883  10.717
72809W        W43409  11.269  23.684  14.195
72810W        W43410   3.469  31.147   4.219
72811W        W43411  25.230  12.248   1.471
72812W        W43412   1.817  31.643   2.844
72813W        W43413  29.977  20.818   2.131
72814W        W43414  40.764   6.005  11.747
72815W        W43415   2.763  33.165  11.568
72816W        W43416  18.994  12.742   0.408
72817W        W43417  32.964   9.912   0.530
72818W        W43418  10.360   0.716   2.771
72819W        W43419  30.968  15.132  12.939
72820W        W43420  31.323  21.286   0.196
72821W        W43421   6.914   5.686  10.971
72822W        W43422  34.851  32.058   2.697
72823W        W43423   3.316   7.896  14.452
72824W        W43424  27.659  36.960  11.099
72825W        W43425   7.913  33.558   2.942
72826W        W43426  19.528   3.006   1.152
72827W        W43427  31.194  28.593  14.364
72828W        W43428  38.610   8.771   3.145
72829W        W43429  44.043  16.708  13.722
72830W        W43430  42.009   7.707   2.189
72831W        W43431   2.207  20.164   1.445
72832W        W43432  24.602  23.691  12.534
72833W        W43433  24.686  40.092  13.860
72834W        W43434  44.015  26.024   1.293
72835W        W43435  37.007  34.915  14.944
72836W        W43436  11.270  12.690  10.722
72837W        W43437  38.420  38.436   4.469
72838W        W43438   4.916   8.461   3.858
72839W        W43439   2.841  43.965  11.981
72840W        W43440  42.023   7.100  12.886
72841W        W43441  34.122  19.099   0.202
72842W        W43442  30.964  21.059  12.315
72843W        W43443  26.717  29.166  10.586
72844W        W43444   0.916  12.901  14.379
72845W        W43445  31.412  20.065   1.903
72846W        W43446  11.371  29.278  13.458
72847W        W43447   8.007   6.390   2.158
72848W        W43448  34.928   7.486  14.995
72849W        W43449  34.398  24.475  10.719
72850W        W43450  34.816  20.101  13.000
72851W        W43451  22.265  12.900   3.599
72852W        W43452  44.540   7.722  14.411
72853W        W43453  26.639   3.290   4.053
72854W        W43454  14.817  11.767   2.285
72855W        W43455   7.068  28.640   3.639
72856W        W43456  13.390  29.179   5.097
72857W        W43457  21.780  26.479   4.992
72858W        W43458   9.296  27.169   2.882
72859W        W43459  37.731  13.862   3.720
72860W        W43460   5.231  15.164   2.156
72861W        W43461   8.635   9.850   2.077
72862W        W43462  20.145  36.328   1.317
72863W        W43463  29.570  35.614   4.301
72864W        W43464  32.145  37.081  10.421
72865W        W43465   8.659  18.378   0.890
72866W        W43466   0.472  19.768  14.385
72867W        W43467  26.487  25.035   4.106
72868W        W43468  25.146   1.724  14.423
72869W        W43469  32.757  41.674  10.444
72870W        W43470  23.578  21.214   4.567
72871W        W43471  40.800  24.929  12.045
72872W        W43472  27.006  18.091   0.248
72873W        W43473  36.231  36.960   4.667
72874W        W43474  17.860  36.891   1.203
72875W        W43475   4.309  41.524  14.956
72876W        W43476  19.526  30.517   3.119
72877W        W43477  33.508  24.185  13.341
72878W        W43478   6.956   9.909   1.551
72879W        W43479  19.284   4.790  10.716
72880W        W43480  26.273  15.502  12.072
72881W        W43481   1.327  34.652  13.789
72882W        W43482  19.575  40.646   1.428
72883W        W43483   3.289   1.260   1.831
72884W        W43484  15.181  36.300  11.815
72885W        W43485  11.736  16.710  10.378
72886W        W43486   2.989  35.045  14.528
72887W        W43487  17.513  21.082   0.010
72888W        W43488  24.428  28.422  11.171
72889W        W43489  34.129   8.171   1.447
72890W        W43490  38.534  24.372  12.877
72891W        W43491  40.666   2.671   2.301
72892W        W43492  30.609  27.900  11.578
72893W        W43493  27.042  33.915   2.250
72894W        W43494  30.402  31.403  14.289
72895W        W43495   3.734  31.356   5.503
72896W        W43496  35.918   9.380  14.989
72897W        W43497   6.107   6.366  14.386
72898W        W43498  24.777  32.130  12.433
72899W        W43499  44.013   3.327   0.913
72900W        W43500   4.766  19.341   3.629
72901W        W43501  38.476  27.927   2.126
72902W        W43502   2.805  32.927   2.249
72903W        W43503   0.987  28.087   1.809
72904W        W43504  18.517  24.586  11.217
72905W        W43505  36.113  31.992  11.678
72906W        W43506  41.021   1.886  11.375
72907W        W43507  23.931  13.026   1.327
72908W        W43508  38.372  21.206   4.446
72909W        W43509  42.899  30.392   3.819
72910W        W43510  42.292  28.907   1.455
72911W        W43511  15.513  18.027  11.537
72912W        W43512  44.794  43.076  13.485
72913W        W43513  18.336  21.179   3.429
72914W        W43514  43.112  39.753  12.517
72915W        W43515  38.040  41.503   0.303
72916W        W43516  29.484  36.469  12.377
72917W        W43517  41.851  11.518   1.720
72918W        W43518  38.772   8.443   4.095
72919W        W43519  35.102  32.181   1.204
72920W        W43520  17.026   3.674   2.591
72921W        W43521   1.651  29.915   1.287
72922W        W43522  27.539  20.173  12.045
72923W        W43523  11.856  37.017   3.662
72924W        W43524  29.258  14.701   3.910
72925W        W43525  24.974   7.191  14.474
72926W        W43526  44.988  15.352   2.750
72927W        W43527   6.764   8.265  13.620
72928W        W43528   7.226  39.988  12.652
72929W        W43529  43.530  28.642   2.616
72930W        W43530   6.186   9.845  13.843
72931W        W43531  25.009  37.849   0.592
72932W        W43532  31.956   1.969  10.629
72933W        W43533  22.985   9.318   1.732
72934W        W43534   2.799  36.071   4.362
72935W        W43535  25.798  30.031  11.527
72936W        W43536  16.460   0.221  13.851
72937W        W43537  16.684  14.598  13.400
72938W        W43538  10.592   0.735   2.311
72939W        W43539   9.709  41.297   1.430
72940W        W43540  21.587   9.199  14.345
72941W        W43541  34.915  43.919   3.706
72942W        W43542   3.699  32.604   4.753
72943W        W43543  15.726  37.886   1.898
72944W        W43544   8.269  40.634   4.387
72945W        W43545  27.157  42.743   1.350
72946W        W43546  27.627  19.139   2.235
72947W        W43547   7.418  19.170  11.169
72948W        W43548  28.193   8.510   2.867
72949W        W43549  13.886   3.883   1.299
72950W        W43550  10.293  29.830  13.790
72951W        W43551  33.080   7.652  12.543
72952W        W43552  33.423  31.143   3.347
72953W        W43553  43.848  42.751  13.079
72954W        W43554  27.624   7.173  13.138
72955W        W43555  37.361  26.892  11.279
72956W        W43556  35.486   3.309  11.498
72957W        W43557   9.585  13.348   0.879
72958W        W43558  14.290  19.492   4.536
72959W        W43559  27.435  44.577  13.063
72960W        W43560  31.920  17.448   1.401
72961W        W43561  29.692   2.816   4.556
72962W        W43562   0.207  10.166  11.877
72963W        W43563  35.371  21.591   1.842
72964W        W43564   1.857  15.295  11.938
72965W        W43565   3.673  32.123   2.784
72966W        W43566  24.164  21.669  10.582
72967W        W43567  34.320  19.069   3.659
72968W        W43568  33.137  40.708  13.062
72969W        W43569   7.134   6.405   4.755
72970W        W43570  42.752   0.651  10.526
72971W        W43571  15.933  28.684  13.789
72972W        W43572  10.272  30.256  14.109
72973W        W43573   1.205   4.297  13.771
72974W        W43574  32.631  37.879  11.814
72975W        W43575  15.012  13.861   1.695
72976W        W43576  40.081  44.027  10.615
72977W        W43577  33.643  31.942  12.912
72978W        W43578  38.002  12.351   3.731
72979W        W43579  22.751  33.966  10.919
72980W        W43580  14.843  24.660  14.750
72981W        W43581   2.544  33.353   2.058
72982W        W43582  36.165  15.464  13.721
72983W        W43583   6.285  35.078  14.444
72984W        W43584  32.420   6.397   1.211
72985W        W43585  41.508   1.932  14.036
72986W        W43586  16.107  37.547  11.937
72987W        W43587  13.999  26.468   3.513
72988W        W43588  44.229  35.916   2.133
72989W        W43589  16.734  43.549  15.000
72990W        W43590  12.130  30.898   2.251
72991W        W43591   8.425  40.544  11.287
72992W        W43592  33.035  42.309   0.270
72993W        W43593  13.433  22.608  13.425
72994W        W43594  27.543  21.175  13.215
72995W        W43595  30.719  29.672   3.655
72996W        W43596   9.433  18.383   3.682
72997W        W43597  43.082  12.007  12.058
72998W        W43598  32.331  34.323   0.921
72999W        W43599  16.160  17.523   0.810
73000W        W43600  41.666  27.930   2.097
73001W        W43601   8.889  32.197  10.750
73002W        W43602  31.498  26.670   0.913
73003W        W43603  44.908  32.883   4.556
73004W        W43604  25.540  17.169  11.181
73005W        W43605  20.864  23.252  14.198
73006W        W43606  12.137  24.730  13.460
73007W        W43607  15.553   0.713   1.814
73008W        W43608   4.932  14.886  11.506
73009W        W43609  25.540   8.808   2.714
73010W        W43610   2.660  26.145   4.551
73011W        W43611  21.042  24.256  10.580
73012W        W43612   2.724  11.618   2.710
73013W        W43613  16.718  30.121  12.391
73014W        W43614  23.769  18.621  11.042
73015W        W43615   2.241  36.861  11.586
73016W        W43616  19.723  35.845   0.883
73017W        W43617  24.478  39.372   3.279
73018W        W43618   6.747  18.305   0.247
73019W        W43619   4.926   2.755  10.753
73020W        W43620   4.814  14.225   3.734
73021W        W43621   1.046  41.939   2.701
73022W        W43622  13.140  32.181  12.000
73023W        W43623  39.008  23.258   0.214
73024W        W43624  40.392  18.236  11.774
73025W        W43625  23.568  41.404   4.139
73026W        W43626  33.480   6.170   0.481
73027W        W43627  13.694  18.551  13.986
73028W        W43628  42.531  16.348   3.269
73029W        W43629  16.133  32.923  10.238
73030W        W43630  41.026  30.522  10.778
73031W        W43631  41.575   3.652  13.431
73032W        W43632  37.063  12.294   3.721
73033W        W43633  18.930  41.901  11.741
73034W        W43634  22.577  18.043   1.480
73035W        W43635  10.888  29.465  12.479
73036W        W43636   5.429  32.798   3.500
73037W        W43637  10.596  38.110  11.079
73038W        W43638  42.326   6.039  12.147
73039W        W43639  16.049  31.669  13.919
73040W        W43640  22.604  38.430  13.499
73041W        W43641  21.133  36.495  11.502
73042W        W43642   2.231  40.019   3.319
73043W        W43643  21.224   3.950   4.737
73044W        W43644  39.528  14.753   2.281
73045W        W43645  28.243  12.131  14.382
73046W        W43646  30.892  12.292   3.211
73047W        W43647  19.151  12.116   2.293
73048W        W43648  21.318  14.111   4.338
73049W        W43649  21.499  14.151   2.723
73050W        W43650  41.392  33.319   3.134
73051W        W43651  23.347  39.026  13.559
73052W        W43652  23.203  36.413  13.286
73053W        W43653  33.701  27.355  13.814
73054W        W43654  34.309  28.719   0.919
73055W        W43655  31.121  15.394   4.056
73056W        W43656  44.320  39.309   4.177
73057W        W43657  29.590   9.360  14.798
73058W        W43658  36.434  36.966   1.456
73059W        W43659  44.710  21.440  12.885
73060W        W43660  27.597  36.972  13.361
73061W        W43661   9.288  31.839  13.448
73062W        W43662  26.927   7.619  10.864
73063W        W43663  22.216  30.621   1.724
73064W        W43664  23.702  26.581  14.393
73065W        W43665  38.565   1.347  12.737
73066W        W43666   7.311  44.525  11.122
73067W        W43667  13.345   7.375   3.251
73068W        W43668   0.325  21.648  12.056
73069W        W43669  33.157   5.403   0.917
73070W        W43670   3.231  35.648   5.247
73071W        W43671  14.725   2.580  11.872
73072W        W43672  34.886  24.181  11.765
73073W        W43673  33.998  21.189   3.769
73074W        W43674   4.025  32.769   1.881
73075W        W43675  41.389   5.710  14.550
73076W        W43676  15.180  11.480  14.121
73077W        W43677  26.153   2.987  12.331
73078W        W43678  41.531  32.405  12.484
73079W        W43679   9.763  35.716  14.372
73080W        W43680  43.803   0.905  12.503
73081W        W43681  14.253   3.378   4.074
73082W        W43682  39.753  27.645   4.838
73083W        W43683  12.194  27.572  10.691
73084W        W43684  35.805   9.741  11.692
73085W        W43685   5.195  42.212   1.231
73086W        W43686  12.544  28.669  11.523
73087W        W43687  31.528  34.417  10.392
73088W        W43688  43.306  20.864  10.742
73089W        W43689   7.910  36.127  10.580
73090W        W43690  10.653  10.752   2.751
73091W        W43691  33.612  26.095   0.103
73092W        W43692  24.861  22.192   3.596
73093W        W43693   1.810  16.888  13.329
73094W        W43694   1.023  40.586   1.527
73095W        W43695  23.659  21.604  10.575
73096W        W43696   2.907  14.796  14.878
73097W        W43697   7.247  42.421   1.853
73098W        W43698  29.690  26.075   0.376
73099W        W43699   8.784  44.966   0.378
73100W        W43700  36.095  36.926  14.690
73101W        W43701  26.594  11.196  10.929
73102W        W43702  23.150  29.056   3.250
73103W        W43703   1.441  15.450  14.645
73104W        W43704  34.665  29.879  11.135
73105W        W43705  35.303   3.889  14.058
73106W        W43706  35.106   1.060  11.566
73107W        W43707  41.965  10.173  12.500
73108W        W43708  28.470  43.509   2.387
73109W        W43709  10.458  15.131  13.220
73110W        W43710   9.860  30.984  14.515
73111W        W43711  32.972  31.891  13.904
73112W        W43712  36.632  16.614   4.576
73113W        W43713  24.141  38.959   0.835
73114W        W43714  35.476  12.765  11.158
73115W        W43715  18.074  44.561   4.916
73116W        W43716  21.290  11.411   4.573
73117W        W43717   4.680  29.624   3.625
73118W        W43718  16.633   3.899   2.297
73119W        W43719  38.426   9.401   0.898
73120W        W43720  28.361  22.694   0.536
73121W        W43721  43.861  36.443   4.129
73122W        W43722  38.606  15.271   3.047
73123W        W43723   3.153  14.264  10.666
73124W        W43724  10.705  17.600   3.699
73125W        W43725  26.068  19.141   3.389
73126W        W43726   8.664  44.367   0.051
73127W        W43727   9.360   8.398  12.248
73128W        W43728  14.314   5.707  13.446
73129W        W43729  43.243  14.997   0.345
73130W        W43730   6.640   1.542  12.612
73131W        W43731  30.709  35.404  11.626
73132W        W43732  42.021  38.634  11.428
73133W        W43733   3.319  42.088   4.115
73134W        W43734  43.856   9.679   4.285
73135W        W43735   3.281  15.212   0.484
73136W        W43736  42.175   0.927   0.756
73137W        W43737  24.729  11.457   5.059
73138W        W43738  38.306  44.319   3.014
73139W        W43739  12.030  38.264   3.268
73140W        W43740   4.775  11.699   3.774
73141W        W43741  35.143  18.068  12.102
73142W        W43742  44.275  10.879   3.731
73143W        W43743   2.252   1.584   5.439
73144W        W43744   0.759  15.914   2.820
73145W        W43745   9.733  28.450  13.990
73146W        W43746  18.325  43.849  13.346
73147W        W43747  22.627   4.235  11.722
73148W        W43748  13.720  41.864   1.212
73149W        W43749  24.312  13.553   0.174
73150W        W43750  26.608  25.469  11.827
73151W        W43751  21.862  19.277  12.442
73152W        W43752   8.749  22.725  14.020
73153W        W43753   5.405  27.516   1.363
73154W        W43754  43.919   0.327   0.267
73155W        W43755  29.628  18.761   1.776
73156W        W43756  30.114  38.438  12.983
73157W        W43757  17.805  42.422   4.336
73158W        W43758  29.183   6.263   4.173
73159W        W43759  28.877  25.530   4.711
73160W        W43760  11.439   0.229  13.387
73161W        W43761  13.633  26.734  12.152
73162W        W43762  10.190  31.441   1.496
73163W        W43763   0.690   8.544  11.191
73164W        W43764  37.986   7.368   4.134
73165W        W43765  31.580  17.731   2.144
73166W        W43766  28.490  12.388   2.889
73167W        W43767  32.927  12.571   0.908
73168W        W43768  18.699  41.326   3.418
73169W        W43769  27.404  12.876   4.702
73170W        W43770  40.356  33.685  14.213
73171W        W43771   3.140  25.499  14.275
73172W        W43772  43.303  13.081   0.295
73173W        W43773  31.551  33.929  14.359
73174W        W43774  23.916  41.514  10.903
73175W        W43775   0.273  40.658   4.375
73176W        W43776  13.195  32.214  14.873
73177W        W43777  21.773  38.487   0.497
73178W        W43778  34.497  19.984  12.063
73179W        W43779  33.882  27.895  10.790
73180W        W43780  27.557  25.763  11.502
73181W        W43781  11.877  10.756   3.498
73182W        W43782  43.227  14.050   1.432
73183W        W43783  16.143  41.882  14.311
73184W        W43784  37.854  27.099  14.245
73185W        W43785  26.710  39.489   4.153
73186W        W43786  23.217  15.840   4.239
73187W        W43787  10.096  34.845   4.066
73188W        W43788  14.382  22.524  13.514
73189W        W43789  22.465  14.398   0.762
73190W        W43790  21.788  20.996   2.418
73191W        W43791  44.171   3.454  13.473
73192W        W43792   3.203   5.912   1.406
73193W        W43793  17.102  26.466  13.329
73194W        W43794  40.434  40.623  14.307
73195W        W43795  17.703  18.832   4.398
73196W        W43796  42.914  41.330   3.200
73197W        W43797  19.983  22.169  10.537
73198W        W43798  39.363  30.374   3.842
73199W        W43799  16.077  42.729   1.214
73200W        W43800  20.631  27.676  12.461
73201W        W43801  41.927  19.859  13.547
73202W        W43802  35.666  16.659  12.873
73203W        W43803  42.478  22.713   4.040
73204W        W43804  38.836  34.387   3.182
73205W        W43805   4.039  16.089   2.680
73206W        W43806  44.039  42.490  11.699
73207W        W43807  29.607   9.019   4.106
73208W        W43808  38.504  39.972  11.586
73209W        W43809   9.279  37.387  12.012
73210W        W43810  12.231  24.950   3.743
73211W        W43811  31.629  22.402   3.532
73212W        W43812  26.666   0.950   4.539
73213W        W43813  22.966  15.817   3.756
73214W        W43814  22.708  29.636   1.255
73215W        W43815  15.804  44.608  13.819
73216W        W43816  25.712   0.497   3.583
73217W        W43817  42.138  23.636  10.638
73218W        W43818   8.664   5.259   1.763
73219W        W43819  30.678  14.319   3.338
73220W        W43820   2.458  25.115  14.846
73221W        W43821  22.506  31.656  12.640
73222W        W43822  19.848  44.230   0.340
73223W        W43823  17.655  42.212  12.693
73224W        W43824  13.872  11.633   2.705
73225W        W43825  42.053  44.935  13.958
73226W        W43826  23.597  37.320  11.723
73227W        W43827  43.441  27.460  13.496
73228W        W43828   0.822  31.798  13.427
73229W        W43829  17.095  36.029  14.057
73230W        W43830  34.012  40.291   1.193
73231W        W43831  38.365  29.731   1.221
73232W        W43832  23.831  39.721  10.461
73233W        W43833  22.719  16.706  14.430
73234W        W43834  41.342  24.305  13.956
73235W        W43835  12.704  16.539   3.377
73236W        W43836  10.420  30.665  13.840
73237W        W43837  42.635  25.204   5.072
73238W        W43838  43.233  12.186   0.270
73239W        W43839  32.754  36.091   1.674
73240W        W43840  15.392  21.029   4.235
73241W        W43841   4.909  25.993  13.625
73242W        W43842  16.955   8.754   4.268
73243W        W43843  28.506  21.144  10.835
73244W        W43844  39.337  23.287  13.343
73245W        W43845  24.517  35.945   4.366
73246W        W43846  40.024  26.651   4.451
73247W        W43847   3.428  31.500   1.277
73248W        W43848  44.915  35.888   4.439
73249W        W43849  21.506  43.804  13.776
73250W        W43850  35.155  29.685   0.241
73251W        W43851  19.235  41.918   0.055
73252W        W43852  40.431  40.239   5.390
73253W        W43853   0.569  39.347  12.016
73254W        W43854   1.433  29.048  10.707
73255W        W43855  25.932  21.019   3.617
73256W        W43856   4.730  18.330   2.213
73257W        W43857   7.496  11.267   4.053
73258W        W43858  35.067  32.037  11.698
73259W        W43859   8.905   0.427   1.746
73260W        W43860   3.478  37.530   2.565
73261W        W43861  38.487  43.227  11.583
73262W        W43862   9.416   4.229   1.334
73263W        W43863  17.079  31.119   2.798
73264W        W43864   2.282  22.892   4.652
73265W        W43865   8.111   7.702  11.144
73266W        W43866  22.094  32.078   3.882
73267W        W43867  18.059  23.017  14.923
73268W        W43868  34.289  21.803  13.833
73269W        W43869  14.261  34.405  14.197
73270W        W43870  43.489  38.949   0.320
73271W        W43871  44.671  26.435   4.931
73272W        W43872  15.400   0.485  12.329
73273W        W43873  24.196   9.377  14.799
73274W        W43874  39.789  11.772   2.426
73275W        W43875   0.216   9.804   3.815
73276W        W43876  28.455  19.036   0.591
73277W        W43877  20.480   2.731   4.566
73278W        W43878  22.223  20.717   1.589
73279W        W43879  43.493  16.075   0.395
73280W        W43880  37.931   1.475   0.548
73281W        W43881  12.846  26.558  12.557
73282W        W43882  19.334  18.698   4.587
73283W        W43883  38.905  12.537   2.733
73284W        W43884   6.334   1.683   4.170
73285W        W43885  41.491  32.630   1.935
73286W        W43886  30.963  43.452  10.501
73287W        W43887  41.412  26.012  12.384
73288W        W43888  16.230  43.414  10.964
73289W        W43889  30.406  12.150  11.518
73290W        W43890  25.088  38.041  13.033
73291W        W43891  24.678   9.914  14.340
73292W        W43892  27.014   2.805  11.211
73293W        W43893  36.226  24.675  11.438
73294W        W43894  41.825  33.004   4.293
73295W        W43895  22.275  36.325   0.882
73296W        W43896   1.498  20.077   4.183
73297W        W43897  24.788  15.099  13.617
73298W        W43898  42.974  44.870  12.789
73299W        W43899   3.851  43.981   1.278
73300W        W43900   9.649  31.108  11.883
73301W        W43901   9.345   4.308  14.493
73302W        W43902   4.292  27.107  11.225
73303W        W43903  40.025   9.006   2.610
73304W        W43904  35.832  21.694  13.883
73305W        W43905  13.640  16.546   2.835
73306W        W43906   2.774  41.574  14.265
73307W        W43907   5.692  43.544  13.817
73308W        W43908  39.683  21.390   3.414
73309W        W43909  21.083  30.532  12.901
73310W        W43910  14.891  41.934   3.748
73311W        W43911   1.456   7.195   4.300
73312W        W43912  33.589  21.900   1.289
73313W        W43913  10.318   7.028  14.144
73314W        W43914  14.147  15.250  11.569
73315W        W43915   5.840   4.614  13.100
73316W        W43916   9.801  38.276  12.374
73317W        W43917  30.046  18.366  14.300
73318W        W43918  35.434  14.369  13.562
73319W        W43919  33.096  27.681   0.427
73320W        W43920   3.674  15.824  12.067
73321W        W43921   8.158   8.229  13.495
73322W        W43922  22.069   1.014   4.262
73323W        W43923  36.569   3.497   3.324
73324W        W43924  17.833  22.843   0.354
73325W        W43925  20.514  24.564  14.018
73326W        W43926  11.720  22.852   1.358
73327W        W43927  33.196  15.962   3.071
73328W        W43928  25.392  29.634   4.517
73329W        W43929  27.976   3.264  14.593
73330W        W43930  26.448  42.290   2.975
73331W        W43931  21.068  25.307   4.378
73332W        W43932  14.739  22.377   1.612
73333W        W43933  19.864   2.927  12.387
73334W        W43934  12.355  41.400  14.922
73335W        W43935  16.537  25.017  10.733
73336W        W43936   9.447  22.080  14.759
73337W        W43937  41.439  31.906   1.400
73338W        W43938   3.193  24.397   1.559
73339W        W43939  28.035   0.784   4.538
73340W        W43940  44.080  22.226   4.081
73341W        W43941  10.317  19.240   2.283
73342W        W43942  13.853  11.372  13.565
73343W        W43943  22.659  18.772  12.302
73344W        W43944  23.596  14.693   0.913
73345W        W43945  43.329  30.547   2.387
73346W        W43946  12.525  28.117   3.582
73347W        W43947  11.336  13.004   1.796
73348W        W43948  19.988  24.234   3.342
73349W        W43949  29.932  35.589  10.606
73350W        W43950  16.172  23.522   0.966
73351W        W43951   3.217  24.657  13.492
73352W        W43952  19.796  35.970  12.042
73353W        W43953   7.102  29.940   5.034
73354W        W43954  22.368  12.300   4.660
73355W        W43955  31.081  40.792  11.566
73356W        W43956   8.403   5.056  12.133
73357W        W43957  40.124  37.455   4.470
73358W        W43958  36.902  28.986   2.399
73359W        W43959  20.066  25.296  12.019
73360W        W43960   5.861  44.949  12.576
73361W        W43961   9.028  32.877   2.988
73362W        W43962   3.764  22.514  11.491
73363W        W43963  20.229  26.951   2.818
73364W        W43964  35.427  41.862   3.169
73365W        W43965  30.937  32.653   3.362
73366W        W43966   6.880  10.823   1.443
73367W        W43967  44.317  24.012   2.777
73368W        W43968  31.241  29.122  14.398
73369W        W43969  26.979  26.917  10.934
73370W        W43970  42.252   0.419  13.846
73371W        W43971  40.452   0.016   0.337
73372W        W43972  34.690   4.935  10.215
73373W        W43973  10.421  27.249  12.174
73374W        W43974  34.549  13.827   2.747
73375W        W43975  25.634  35.335   4.515
73376W        W43976   3.470  26.037   0.366
73377W        W43977  21.084  19.097  14.792
73378W        W43978   6.736  17.264  11.638
73379W        W43979  10.262  27.475   1.412
73380W        W43980  27.485  38.875   1.435
73381W        W43981  14.283  37.003  12.902
73382W        W43982  13.813  23.516  11.620
73383W        W43983  11.056  39.543   1.019
73384W        W43984  15.847  44.542   4.059
73385W        W43985  30.697  17.560  11.244
73386W        W43986   8.144  31.450   3.080
73387W        W43987  15.363  14.573  13.982
73388W        W43988   9.675  43.979  12.471
73389W        W43989   2.824  28.117  12.130
73390W        W43990  18.778   1.884   4.496
73391W        W43991   2.503   1.982  11.134
73392W        W43992  29.928  42.544   2.796
73393W        W43993  23.357  34.960   0.770
73394W        W43994  22.228   2.209   0.419
73395W        W43995  21.430  32.323  12.920
73396W        W43996  20.013   0.907  11.149
73397W        W43997  17.619  20.255  11.143
73398W        W43998  22.280   4.642  11.571
73399W        W43999   4.255   6.936  13.932
73400W        W44000  11.727   0.363  11.575
73401W        W44001  16.358  39.300  13.735
73402W        W44002  31.757  33.414  12.132
73403W        W44003  37.108  39.727  12.964
73404W        W44004  36.781   6.932   1.448
73405W        W44005  11.396  31.416  11.476
73406W        W44006   2.970  13.668  11.799
73407W        W44007  14.361  21.185  10.573
73408W        W44008  39.909   0.823   2.147
73409W        W44009  29.601   1.059  13.759
73410W        W44010  10.750  40.909  14.786
73411W        W44011  20.214   6.919  13.978
73412W        W44012  41.064  24.481  12.928
73413W        W44013   0.821  21.757   3.340
73414W        W44014  38.961  12.021   2.680
73415W        W44015  39.464  37.023  14.279
73416W        W44016  21.132  11.459  12.632
73417W        W44017  35.573  36.957   2.058
73418W        W44018  14.279  11.329  11.694
73419W        W44019   9.867  39.810   3.423
73420W        W44020  40.334   7.581  13.828
73421W        W44021  14.778  44.835   5.142
73422W        W44022  21.384  14.681  14.575
73423W        W44023  39.004   8.912   1.329
73424W        W44024   1.251  41.790   2.250
73425W        W44025  21.780   7.781  13.697
73426W        W44026  31.362  20.229  11.970
73427W        W44027  20.276   3.814   3.832
73428W        W44028  42.541  43.085   3.219
73429W        W44029   6.645  41.371   0.177
73430W        W44030  40.315   6.348  11.342
73431W        W44031   6.347  23.156   0.445
73432W        W44032  36.374  25.368   5.116
73433W        W44033  36.078  39.931  14.188
73434W        W44034   0.972  13.745  13.796
73435W        W44035  35.166   2.280  14.923
73436W        W44036  43.937  28.413  13.181
73437W        W44037  38.067  37.444   2.805
73438W        W44038  33.430  41.239  11.587
73439W        W44039   0.738  29.880  11.053
73440W        W44040  23.230  26.294  11.918
73441W        W44041  12.158  40.682   3.535
73442W        W44042  31.955   9.206   4.344
73443W        W44043   1.068   8.284   1.054
73444W        W44044   6.734  39.581   1.222
73445W        W44045  29.678  11.383   2.669
73446W        W44046  43.367  40.211  11.388
73447W        W44047  19.084  11.164  10.686
73448W        W44048  35.354  27.953   1.453
73449W        W44049  20.042  29.236   1.801
73450W        W44050  17.857  16.702   1.329
73451W        W44051  21.397  39.507   1.736
73452W        W44052   5.868  19.480   4.192
73453W        W44053  41.164  10.215  11.108
73454W        W44054  33.841  33.647   1.958
73455W        W44055  30.504   7.660  13.482
73456W        W44056   8.266  35.833   4.617
73457W        W44057  32.253  38.164  12.510
73458W        W44058   4.824  39.763  11.647
73459W        W44059   4.427  35.288   1.846
73460W        W44060  33.379  22.210  13.352
73461W        W44061  14.067   4.184   0.200
73462W        W44062   5.681   5.250  11.550
73463W        W44063  19.737  41.571  12.008
73464W        W44064   1.755  17.332   2.904
73465W        W44065  41.962  32.659   1.658
73466W        W44066   4.024  30.441   3.184
73467W        W44067   5.345  33.290  10.869
73468W        W44068  43.364  43.668   2.310
73469W        W44069  39.480  15.135   0.908
73470W        W44070   9.164  41.620  14.545
73471W        W44071  17.666  39.525   4.945
73472W        W44072   9.713  14.891  11.197
73473W        W44073  39.863  33.305   2.301
73474W        W44074  35.728  14.407  14.005
73475W        W44075   8.683  36.439  11.574
73476W        W44076   0.337  15.491  14.488
73477W        W44077   0.242  12.675  11.602
73478W        W44078  38.797  44.946  12.144
73479W        W44079  33.893  29.992  10.614
73480W        W44080  33.396  21.326  11.764
73481W        W44081  38.072  42.487  11.465
73482W        W44082   1.278  37.357  12.483
73483W        W44083  27.977  26.498   1.161
73484W        W44084   5.259  38.209   2.360
73485W        W44085  17.747  20.799  10.279
73486W        W44086  30.203   5.106   4.712
73487W        W44087  10.950  19.667   1.837
73488W        W44088  28.078  23.537  14.017
73489W        W44089  22.909  41.841   4.579
73490W        W44090   7.789  25.275  10.661
73491W        W44091  41.424  42.216   2.347
73492W        W44092  28.914   7.819   3.272
73493W        W44093  37.390   6.202   2.889
73494W        W44094  19.076   8.255  11.450
73495W        W44095  22.586  11.962   0.269
73496W        W44096   3.724  21.733  13.038
73497W        W44097  34.398  36.928   4.590
73498W        W44098  14.108  40.750  10.348
73499W        W44099  22.247  11.311  11.961
73500W        W44100  11.750  40.074   3.002
73501W        W44101  20.242  30.938  14.101
73502W        W44102  42.710  39.801  10.248
73503W        W44103  27.557   3.214   0.848
73504W        W44104  44.382   5.715   3.660
73505W        W44105   5.160  12.645   0.417
73506W        W44106  19.381  38.883   0.321
73507W        W44107  35.958   2.758   1.745
73508W        W44108  44.684  13.391  11.176
73509W        W44109  31.939  29.005  10.491
73510W        W44110  15.745  37.396   3.756
73511W        W44111  13.817  14.177   3.611
73512W        W44112  36.432   6.606  14.788
73513W        W44113  40.677   3.011  13.769
73514W        W44114  14.621  43.060  12.932
73515W        W44115   5.360   0.839  10.942
73516W        W44116  35.452   7.368   3.830
73517W        W44117   5.296  36.664   3.391
73518W        W44118  40.494   3.474  10.758
73519W        W44119  16.115  13.451  11.559
73520W        W44120  22.837  24.514  12.518
73521W        W44121  21.122  37.069   2.146
73522W        W44122  17.318   1.666  11.619
73523W        W44123   8.962  10.296  10.802
73524W        W44124  28.965  42.031  11.524
73525W        W44125  42.731  31.079   1.776
73526W        W44126  25.660  31.066  11.072
73527W        W44127  33.575   5.684   1.802
73528W        W44128  30.460  26.577   0.010
73529W        W44129   3.654  32.949   4.374
73530W        W44130  33.423  19.569  13.980
73531W        W44131  33.888  20.718  14.548
73532W        W44132  34.023  24.956  14.963
73533W        W44133  36.530  17.639   0.036
73534W        W44134  32.383  40.544   0.371
73535W        W44135   5.135  41.480   1.646
73536W        W44136  20.536   7.464  11.962
73537W        W44137  38.924   4.390   4.585
73538W        W44138  38.972  38.389   3.748
73539W        W44139  36.248  26.881   1.200
73540W        W44140   9.738  29.640   0.960
73541W        W44141   2.790  39.102  10.679
73542W        W44142  41.967  29.886   3.784
73543W        W44143  37.344  22.515  14.833
73544W        W44144  18.045  42.381   1.353
73545W        W44145  24.726  35.535   4.711
73546W        W44146  15.941  17.190  12.456
73547W        W44147  32.905  18.659   0.227
73548W        W44148   3.241  18.396  12.982
73549W        W44149  26.582  11.026  13.389
73550W        W44150  30.950  10.873  14.593
73551W        W44151  10.319  30.080   4.795
73552W        W44152  30.448  42.035  10.974
73553W        W44153  13.561  31.154  14.862
73554W        W44154  19.650  13.685   1.904
73555W        W44155  40.490   0.507   0.262
73556W        W44156  26.678  37.349  12.950
73557W        W44157   0.542  18.039   1.727
73558W        W44158  18.165  44.694   0.351
73559W        W44159  19.399  32.163   2.886
73560W        W44160  16.822  11.433   4.141
73561W        W44161  33.640  28.479   1.952
73562W        W44162  21.648  34.742   4.640
73563W        W44163  24.190  44.481   1.253
73564W        W44164  33.455  30.403  12.380
73565W        W44165   7.493  24.239  13.613
73566W        W44166  24.479  17.955  10.683
73567W        W44167  17.829   7.338  11.387
73568W        W44168   5.902  24.292  14.356
73569W        W44169   9.757  17.332   4.271
73570W        W44170  37.897  42.685   0.881
73571W        W44171  35.966  19.452   1.709
73572W        W44172  23.697  34.765  11.612
73573W        W44173   5.631   6.960   0.001
73574W        W44174  17.130  11.364   4.557
73575W        W44175  35.133  38.149  11.535
73576W        W44176  31.032   3.371   1.237
73577W        W44177  44.789  43.434   2.757
73578W        W44178  17.040  28.243   3.717
73579W        W44179   3.318   9.927   0.899
73580W        W44180  26.522  40.042  12.936
73581W        W44181  21.737  10.459  11.098
73582W        W44182  22.013  21.229   0.373
73583W        W44183  40.497  29.052  13.335
73584W        W44184  44.495  23.761   2.340
73585W        W44185  14.663  22.718  11.248
73586W        W44186  27.554  11.244   0.718
73587W        W44187  14.791  22.739   4.666
73588W        W44188   3.235   9.429   0.771
73589W        W44189   5.880   0.785   1.679
73590W        W44190   5.919  31.439   4.053
73591W        W44191   5.992  29.500  13.221
73592W        W44192  37.401  11.779  13.661
73593W        W44193  38.846  32.338  12.087
73594W        W44194  41.568  16.215   0.950
73595W        W44195   2.947  12.813  12.188
73596W        W44196  29.662  19.957   4.682
73597W        W44197  11.645  32.623   3.768
73598W        W44198  25.035  35.856   3.748
73599W        W44199  22.783   8.535  13.793
73600W        W44200  10.258  27.841  14.267
73601W        W44201  40.328  28.017   0.439
73602W        W44202  26.507  19.606  10.326
73603W        W44203  18.675  18.090   1.193
73604W        W44204  32.557  42.998   1.876
73605W        W44205  30.034  39.017   3.659
73606W        W44206  42.084   7.616  11.346
73607W        W44207  10.601  27.906   3.642
73608W        W44208   9.859  25.247  14.753
73609W        W44209  28.517   9.154   1.256
73610W        W44210  24.042  40.396  12.472
73611W        W44211  36.689  22.522   0.680
73612W        W44212  44.958   1.881   3.068
73613W        W44213  44.539  39.159  11.258
73614W        W44214  18.845  36.854   2.909
73615W        W44215  13.884  19.277  11.625
73616W        W44216  43.116  21.067   0.206
73617W        W44217  41.690  44.807   3.859
73618W        W44218  17.679  10.625   1.942
73619W        W44219  23.699  13.650   1.915
73620W        W44220  34.957  28.974   2.704
73621W        W44221  10.262  15.291   4.603
73622W        W44222  25.194  23.239   1.412
73623W        W44223  38.682  33.010   2.402
73624W        W44224  26.254  18.844  11.020
73625W        W44225  30.030  44.669   4.334
73626W        W44226  16.750  16.638  14.877
73627W        W44227   9.862  44.528  10.822
73628W        W44228   3.823   5.302   2.497
73629W        W44229  33.123   4.800  13.799
73630W        W44230   6.234  42.707   0.213
73631W        W44231   5.427  33.424  13.339
73632W        W44232  17.929  35.931  11.640
73633W        W44233  33.482  10.017   4.361
73634W        W44234  21.556  43.651  14.993
73635W        W44235  33.054  22.744  14.493
73636W        W44236   5.998   1.920  10.283
73637W        W44237  40.861  38.342   2.771
73638W        W44238  20.780  36.660  14.646
73639W        W44239  17.085  34.744  11.942
73640W        W44240  26.495  27.637  12.542
73641W        W44241  20.481  18.144  11.522
73642W        W44242  31.702   1.862   1.767
73643W        W44243  18.137  23.068   2.341
73644W        W44244   6.816  19.883  13.561
73645W        W44245  25.228  23.996  10.667
73646W        W44246  21.718  43.115   3.788
73647W        W44247  42.947   5.228  14.059
73648W        W44248  24.304  12.697   1.126
73649W        W44249   1.235  44.003   0.225
73650W        W44250  21.083  13.813   2.640
73651W        W44251  13.362  21.216  10.693
73652W        W44252  30.961  22.777  11.724
73653W        W44253  12.241  17.095  10.513
73654W        W44254  22.604  15.674  10.980
73655W        W44255  31.110  32.656   2.198
73656W        W44256   6.366   6.882   2.044
73657W        W44257  40.459  12.881  14.944
73658W        W44258  27.209  15.110  10.639
73659W        W44259  10.138  33.133  11.497
73660W        W44260  33.644  27.003   3.941
73661W        W44261  21.210  19.290   1.651
73662W        W44262  33.530  34.881  11.395
73663W        W44263   8.623  31.048   4.146
73664W        W44264  37.803  40.724  14.087
73665W        W44265  19.723  24.452   4.150
73666W        W44266  33.410  37.138  12.730
73667W        W44267  39.038  14.089   1.797
73668W        W44268  21.735   5.938  14.104
73669W        W44269  11.549   5.616  13.520
73670W        W44270  17.270   8.309  13.679
73671W        W44271  39.808   3.764  10.211
73672W        W44272  19.876  40.287   1.655
73673W        W44273   0.435   2.991  10.571
73674W        W44274   5.726   6.839   1.244
73675W        W44275  23.047   1.849  11.659
73676W        W44276  13.227  22.890  14.061
73677W        W44277  11.362   8.008  10.554
73678W        W44278  35.859   7.141  11.966
73679W        W44279  23.623  19.492   1.440
73680W        W44280  11.276   2.461  13.896
73681W        W44281   2.399  23.777   2.072
73682W        W44282   1.597  43.229  11.992
73683W        W44283  16.822  31.061  11.148
73684W        W44284  28.562   4.722  10.624
73685W        W44285  11.387  15.097   3.280
73686W        W44286  12.061  44.951  12.692
73687W        W44287  21.356   1.076  10.335
73688W        W44288  30.451   6.730   4.292
73689W        W44289  12.291   6.677  12.530
73690W        W44290  38.117  18.698   1.823
73691W        W44291   4.075   8.285   2.654
73692W        W44292  29.521  28.226  13.782
73693W        W44293  31.959   4.926  12.282
73694W        W44294  36.688  25.502   1.127
73695W        W44295  26.981  34.664   2.772
73696W        W44296  10.873   0.703  13.849
73697W        W44297  24.940  22.285  10.047
73698W        W44298  30.039  25.152  10.755
73699W        W44299  15.829   3.840   0.403
73700W        W44300  32.628  24.478   2.405
73701W        W44301  24.025   3.759   2.889
73702W        W44302   4.398  15.752   0.920
73703W        W44303  30.551  34.605   4.368
73704W        W44304  37.622   7.178   1.198
73705W        W44305  15.143  33.472  13.457
73706W        W44306   6.222  17.612   0.503
73707W        W44307  16.278  29.363  10.348
73708W        W44308  15.640  40.788  10.958
73709W        W44309  22.317  22.551  13.522
73710W        W44310  42.582  43.016   0.533
73711W        W44311  27.466  17.529  14.927
73712W        W44312   4.872  35.641   2.732
73713W        W44313   5.672  10.143   4.016
73714W        W44314   6.342  29.214   2.415
73715W        W44315   5.856   1.714   1.933
73716W        W44316  43.996  17.685   4.022
73717W        W44317  23.470  37.918   4.856
73718W        W44318  15.398   7.960   4.832
73719W        W44319  27.093  19.353  11.949
73720W        W44320  17.265  20.662   4.957
73721W        W44321   9.539  15.790   3.300
73722W        W44322  39.303  32.588  10.728
73723W        W44323  38.219   7.264  14.851
73724W        W44324  36.319  44.750   3.955
73725W        W44325  44.385  17.055  13.455
73726W        W44326  25.198  37.935  12.512
73727W        W44327  20.159  40.852   0.813
73728W        W44328  13.127   6.932   3.489
73729W        W44329  17.067  16.882  13.532
73730W        W44330  44.741  32.120  13.359
73731W        W44331  38.765  35.923   3.308
73732W        W44332  39.228  15.280   1.345
73733W        W44333  36.744  13.486   3.185
73734W        W44334  31.561  12.214   1.233
73735W        W44335  43.228  29.732   3.109
73736W        W44336  28.693   3.282   1.709
73737W        W44337   0.785  36.758  13.576
73738W        W44338  28.926  42.110   2.540
73739W        W44339  33.757  26.859  14.051
73740W        W44340   1.477  19.087  14.012
73741W        W44341  16.039  37.781  11.131
73742W        W44342  28.850  22.612   4.016
73743W        W44343  39.762  43.692  10.865
73744W        W44344  27.909  37.951  10.434
73745W        W44345  42.339  31.626  14.875
73746W        W44346  16.330   3.327  14.953
73747W        W44347  12.069  25.578  12.514
73748W        W44348   0.361  17.343   0.312
73749W        W44349   9.576  11.358   3.501
73750W        W44350  16.826  17.805   4.346
73751W        W44351  19.055  36.238   0.713
73752W        W44352  30.047  30.529   0.743
73753W        W44353  37.330  26.569   3.751
73754W        W44354  20.183  21.215  13.139
73755W        W44355  40.100   9.865   2.840
73756W        W44356  36.441  30.204  13.039
73757W        W44357  19.201   5.814   0.755
73758W        W44358  35.494   4.993  11.601
73759W        W44359  27.442  11.163  14.406
73760W        W44360  33.381   3.850   1.238
73761W        W44361   6.286   2.967  13.134
73762W        W44362   8.376  34.844  10.555
73763W        W44363  16.176  38.473  10.720
73764W        W44364  12.619  17.242   0.565
73765W        W44365  44.293   0.761  12.353
73766W        W44366  16.923  37.957   0.401
73767W        W44367   6.342  16.843  11.110
73768W        W44368  32.844   8.871   1.304
73769W        W44369  19.683  12.129   3.776
73770W        W44370  19.968   9.819  11.953
73771W        W44371  10.490   0.151  13.388
73772W        W44372  28.698  32.556  11.628
73773W        W44373   2.924  21.750   4.275
73774W        W44374  10.231  40.094  11.634
73775W        W44375  38.792   6.676  11.972
73776W        W44376  34.175  39.619  14.431
73777W        W44377  16.954  39.824  13.414
73778W        W44378  32.962   0.883   3.688
73779W        W44379  35.543  28.982  10.619
73780W        W44380  39.016  38.379  12.022
73781W        W44381  31.629  15.783   2.318
73782W        W44382  38.826  33.498  12.059
73783W        W44383  13.027   5.326   4.199
73784W        W44384  43.253   6.720   1.312
73785W        W44385  33.083  30.043   0.406
73786W        W44386  41.569  42.929  14.404
73787W        W44387  28.098  15.611   3.310
73788W        W44388  39.887  11.182   1.726
73789W        W44389  40.025  39.267  13.348
73790W        W44390  19.714  34.856   0.786
73791W        W44391  42.159  23.534  12.422
73792W        W44392  21.528  29.124   4.120
73793W        W44393  10.363  10.111   3.227
73794W        W44394  42.940   7.469  11.928
73795W        W44395  35.948  39.424  14.346
73796W        W44396   6.895  15.838   2.937
73797W        W44397  42.314  36.906   1.832
73798W        W44398  19.679   8.835   1.240
73799W        W44399  13.294  43.420  12.365
73800W        W44400  14.716   8.108   2.307
73801W        W44401  29.742  21.601   0.707
73802W        W44402  26.161  20.606  14.718
73803W        W44403  14.910  30.477   1.708
73804W        W44404  40.779   8.801   4.531
73805W        W44405  44.289  34.673   2.671
73806W        W44406  29.729  14.635  14.962
73807W        W44407  32.869  27.174  12.785
73808W        W44408  14.578  12.833   5.304
73809W        W44409  38.813  38.508  10.337
73810W        W44410  34.376  20.318   2.238
73811W        W44411  33.474   3.519  13.395
73812W        W44412  12.332  38.550  12.442
73813W        W44413  10.335  12.433  14.311
73814W        W44414  41.008  10.198   1.360
73815W        W44415  25.746  31.645  14.402
73816W        W44416  28.005  29.402  11.299
73817W        W44417  12.861  11.108   0.533
73818W        W44418  41.064  44.367   2.800
73819W        W44419  32.780  29.215  12.181
73820W        W44420   5.822  35.586   4.908
73821W        W44421   5.262  30.530   2.592
73822W        W44422  24.938  39.247  13.719
73823W        W44423   2.894   7.848  12.476
73824W        W44424   6.293  32.680  11.607
73825W        W44425  11.754  21.926   0.434
73826W        W44426  19.576  29.645   1.506
73827W        W44427  31.096  23.225  11.362
73828W        W44428  31.683  24.074  14.478
73829W        W44429  21.190  21.720   0.252
73830W        W44430   4.874  30.117   4.872
73831W        W44431  14.623  21.178  13.282
73832W        W44432   0.037  20.238   4.711
73833W        W44433  12.684  33.676   1.163
73834W        W44434  43.072  32.757  10.719
73835W        W44435  36.538   4.720  10.704
73836W        W44436  40.438  11.697  12.050
73837W        W44437   2.140  13.859  11.633
73838W        W44438  44.146  26.156   0.790
73839W        W44439  25.173   6.451  11.717
73840W        W44440   8.499  16.378  12.482
73841W        W44441  43.010  21.088  11.124
73842W        W44442  35.388  16.048  10.803
73843W        W44443  18.010  21.453   1.847
73844W        W44444  24.473  26.620  11.613
73845W        W44445  17.091  39.591  10.734
73846W        W44446  28.303  36.049  12.685
73847W        W44447  31.862  10.273  11.932
73848W        W44448  14.498  25.649   3.259
73849W        W44449  21.763   5.286   4.271
73850W        W44450   5.546  16.065   4.525
73851W        W44451  33.077  21.141  10.962
73852W        W44452  44.771   6.759   4.134
73853W        W44453  41.274  27.056   0.226
73854W        W44454   3.462  30.495   3.224
73855W        W44455  32.134   7.055  13.945
73856W        W44456  22.059  39.753   0.575
73857W        W44457  28.324  15.957   0.740
73858W        W44458  29.147  24.646   4.791
73859W        W44459  25.423  41.866  11.420
73860W        W44460  37.606  37.019  12.546
73861W        W44461   9.812  12.161   0.422
73862W        W44462  17.755  15.522  14.931
73863W        W44463  14.486  19.618   1.336
73864W        W44464  18.593  41.436  13.665
73865W        W44465   4.255   6.848   1.960
73866W        W44466   4.687  13.335  14.782
73867W        W44467  38.084  11.413   1.608
73868W        W44468  33.654   6.195   1.753
73869W        W44469  13.116  32.467   3.975
73870W        W44470  11.908  30.108  11.037
73871W        W44471  26.522  20.315  11.981
73872W        W44472  10.471  29.417  11.612
73873W        W44473  13.324  12.284  10.622
73874W        W44474  25.739   5.871   3.221
73875W        W44475  21.561  22.110   1.220
73876W        W44476  38.736  40.225  10.266
73877W        W44477  25.975  13.617  10.713
73878W        W44478  23.289  10.319   1.615
73879W        W44479  10.778  20.084   0.244
73880W        W44480  15.719  28.601   1.902
73881W        W44481  41.310  41.986  13.407
73882W        W44482  31.481  37.387   4.780
73883W        W44483  10.902  39.448  10.645
73884W        W44484  37.527  15.251  13.207
73885W        W44485  13.120  17.614  13.864
73886W        W44486  37.838  27.671   9.861
73887W        W44487  29.679   3.745  13.983
73888W        W44488  15.694  17.768  14.313
73889W        W44489  36.487  26.054   0.263
73890W        W44490  15.536  30.971  11.581
73891W        W44491  42.939  16.856  14.333
73892W        W44492  41.578   3.495  12.897
73893W        W44493  11.352  43.293   3.243
73894W        W44494  15.652  29.628  11.037
73895W        W44495  18.769   4.842  14.504
73896W        W44496   4.287   5.482   2.766
73897W        W44497  26.221  24.927   0.950
73898W        W44498  41.302   2.626   4.562
73899W        W44499  17.672  31.079   3.106
73900W        W44500  38.954  26.633   0.838
73901W        W44501  35.401  10.822   0.844
73902W        W44502  13.729   9.240   0.482
73903W        W44503  11.892  14.260   0.195
73904W        W44504  35.574  44.021   0.666
73905W        W44505  32.605  30.695   4.531
73906W        W44506  32.296  12.599   2.364
73907W        W44507  33.917  24.301   2.762
73908W        W44508  29.252  12.152  10.689
73909W        W44509  10.244  23.986  11.008
73910W        W44510  18.982  10.577  14.642
73911W        W44511  31.562  12.812   4.223
73912W        W44512   7.993  16.358   3.794
73913W        W44513  24.547  31.653   0.979
73914W        W44514   9.002  27.479   3.356
73915W        W44515  26.115  12.675   3.835
73916W        W44516  18.772  36.107   4.115
73917W        W44517  24.480   5.459  11.182
73918W        W44518  22.738   1.301  14.832
73919W        W44519  29.202   6.760   1.269
73920W        W44520  29.013   0.692   2.282
73921W        W44521  27.207  24.661   3.272
73922W        W44522  15.296  35.636  14.786
73923W        W44523  28.543  21.814  13.841
73924W        W44524   2.686   1.288  12.902
73925W        W44525  42.606  10.987   0.977
73926W        W44526   3.866  34.480  12.570
73927W        W44527  33.535  22.497   1.804
73928W        W44528  15.905  26.077  10.317
73929W        W44529   8.787  35.119  10.383
73930W        W44530  19.512  22.680   2.756
73931W        W44531  27.365  15.300   3.589
73932W        W44532  23.502  26.688   2.674
73933W        W44533  28.245  42.178  13.091
73934W        W44534  10.919  18.085   3.698
73935W        W44535   5.900   7.276  11.176
73936W        W44536  25.218  13.693   0.576
73937W        W44537   9.712  15.080  10.721
73938W        W44538  14.324  21.081  11.528
73939W        W44539  36.274  39.494  14.721
73940W        W44540  39.444  29.166   1.915
73941W        W44541  43.570   8.725  12.148
73942W        W44542  33.179   1.515  11.601
73943W        W44543  16.720  34.544   2.171
73944W        W44544  12.148  27.042   2.375
73945W        W44545  20.718  34.799   2.837
73946W        W44546  23.215  33.850   1.370
73947W        W44547   0.686  39.033  14.789
73948W        W44548  15.617  10.077  11.399
73949W        W44549   4.483  14.503   4.062
73950W        W44550  34.616  17.199   1.697
73951W        W44551  29.823  40.663   2.697
73952W        W44552  21.213  21.714  13.366
73953W        W44553  26.651  13.552   0.335
73954W        W44554  15.908   4.862   3.857
73955W        W44555  33.418  42.844  11.361
73956W        W44556   7.245  29.514   0.780
73957W        W44557  18.738  16.349  11.164
73958W        W44558  42.266  43.431   3.713
73959W        W44559  41.129  14.107   5.017
73960W        W44560  31.994  35.699  13.999
73961W        W44561   4.947   0.656  12.053
73962W        W44562   9.832   1.718   4.774
73963W        W44563   5.053   7.616   5.098
73964W        W44564  42.799  15.373   4.609
73965W        W44565  22.028  30.375  14.900
73966W        W44566  17.188  23.204   3.833
73967W        W44567  27.086   6.312   0.795
73968W        W44568  32.096  37.688  12.629
73969W        W44569  15.444  19.829  13.291
73970W        W44570  16.412  26.285   4.137
73971W        W44571  43.946  11.680  13.048
73972W        W44572   8.535  14.188  10.736
73973W        W44573  24.281  28.715   0.446
73974W        W44574  43.110  40.452   2.190
73975W        W44575  44.428  14.418  10.252
73976W        W44576  42.468  32.600  14.065
73977W        W44577   2.059  33.179   9.692
73978W        W44578  39.764  15.660   2.762
73979W        W44579  11.618  39.716   4.992
73980W        W44580   5.261  40.086  11.908
73981W        W44581  29.487  21.678  11.585
73982W        W44582   0.432   9.421  12.609
73983W        W44583  12.387  24.521  11.100
73984W        W44584  15.599  36.159   4.727
73985W        W44585  37.435  20.524   4.379
73986W        W44586  16.746  17.480   1.367
73987W        W44587  21.656  33.094   0.776
73988W        W44588  10.860  11.904   1.290
73989W        W44589  33.596   6.408   4.062
73990W        W44590  39.130  31.148  10.908
73991W        W44591  16.810  39.755  12.896
73992W        W44592  14.213   4.718  14.403
73993W        W44593  12.594  38.785  13.409
73994W        W44594   8.537  10.445  11.650
73995W        W44595  35.606  42.865  10.577
73996W        W44596  13.105  21.108   4.460
73997W        W44597  27.371  42.657   1.832
73998W        W44598  30.002  30.565  14.753
73999W        W44599  30.217  38.850  12.461
74000W        W44600   4.768  19.945  10.609
74001W        W44601  23.136  35.245   4.945
74002W        W44602  28.426   6.767   1.727
74003W        W44603  13.072  33.568  12.002
74004W        W44604   1.430   4.587   3.523
74005W        W44605  36.014  26.223  11.603
74006W        W44606   9.585  37.343  11.367
74007W        W44607   4.282  43.060  12.888
74008W        W44608  34.449  10.638   4.846
74009W        W44609  14.187  32.482   0.011
74010W        W44610  34.512   2.385   3.222
74011W        W44611  17.739   7.888   2.225
74012W        W44612   2.956  24.069   4.520
74013W        W44613  20.119  30.088  14.114
74014W        W44614   1.909  31.952  12.251
74015W        W44615   9.132  32.712   1.035
74016W        W44616  43.606  21.462  12.076
74017W        W44617  15.285  11.605   3.193
74018W        W44618  10.280  34.142  14.877
74019W        W44619  24.216   4.452  11.112
74020W        W44620  12.755  43.211  12.315
74021W        W44621  24.503  39.381  14.024
74022W        W44622  43.000  22.173  11.688
74023W        W44623  25.594  40.078   3.765
74024W        W44624   7.200   4.734  11.259
74025W        W44625  25.565  14.229  10.977
74026W        W44626  36.555  32.868   0.970
74027W        W44627   8.114  15.467   3.421
74028W        W44628  36.621   8.138  12.865
74029W        W44629  21.661  43.286   4.304
74030W        W44630   4.297  38.633   1.404
74031W        W44631  20.937  23.510   0.443
74032W        W44632  23.507  24.690   0.423
74033W        W44633  12.492  21.586   0.295
74034W        W44634  39.492   3.475  11.591
74035W        W44635  15.731  35.565   1.990
74036W        W44636   6.390  36.275  12.986
74037W        W44637   7.218  10.299   0.637
74038W        W44638  16.664  42.906  13.969
74039W        W44639  35.897  28.737   0.234
74040W        W44640   3.151  26.630   4.119
74041W        W44641  20.971  40.260  13.684
74042W        W44642   7.792   3.864  12.507
74043W        W44643   4.973  29.903  13.886
74044W        W44644  39.325  35.410   4.270
74045W        W44645   1.082  34.783  13.281
74046W        W44646  40.054  24.917  10.753
74047W        W44647   2.321  36.645  14.779
74048W        W44648   7.209  22.501   1.901
74049W        W44649  43.065  43.989   1.103
74050W        W44650  36.822   6.242  14.825
74051W        W44651  34.189   9.117  14.827
74052W        W44652  16.111   4.823  13.875
74053W        W44653  44.599  15.636  12.028
74054W        W44654   1.859   6.357   2.637
74055W        W44655  37.313  20.094  14.957
74056W        W44656  12.860  37.384   2.903
74057W        W44657  36.129  39.476   0.640
74058W        W44658  23.523  27.556   0.966
74059W        W44659  40.866  27.191   2.817
74060W        W44660   3.762  37.087   2.622
74061W        W44661  41.763   6.630   1.361
74062W        W44662  23.533  33.520   2.769
74063W        W44663  26.510   7.844   3.782
74064W        W44664  16.141  44.109   4.104
74065W        W44665  15.009  16.768  11.599
74066W        W44666   1.187  26.517   2.640
74067W        W44667   6.982  11.874  13.119
74068W        W44668  15.231   6.565   1.447
74069W        W44669   9.573  19.081   4.316
74070W        W44670   3.651  34.604  14.965
74071W        W44671   1.842  41.337   3.442
74072W        W44672  32.011  25.100   1.496
74073W        W44673   8.141  41.199  12.578
74074W        W44674  27.117  11.455  13.063
74075W        W44675  31.160  37.249   1.227
74076W        W44676   6.975  12.361   1.189
74077W        W44677  27.881   3.689   0.918
74078W        W44678   5.528  13.550   3.527
74079W        W44679  44.053  43.249  12.999
74080W        W44680  17.187  40.806   4.561
74081W        W44681   1.394  18.698  10.698
74082W        W44682  20.234  16.568  11.156
74083W        W44683  11.742   1.269   4.691
74084W        W44684   5.865   9.653   3.717
74085W        W44685  29.559  44.953   1.669
74086W        W44686  13.604   2.020  10.472
74087W        W44687  28.101  38.351  14.138
74088W        W44688   5.675  29.765   2.680
74089W        W44689   9.795  31.397  12.293
74090W        W44690   0.392  31.623  13.038
74091W        W44691  25.125  34.854   3.646
74092W        W44692  43.482   0.425  12.670
74093W        W44693  39.685   4.231   4.197
74094W        W44694  27.892  37.363  11.279
74095W        W44695   7.690  42.522  13.451
74096W        W44696  33.529  10.670  11.062
74097W        W44697  39.989   4.132   0.437
74098W        W44698  26.059  12.717  13.235
74099W        W44699  30.247  33.415  12.071
74100W        W44700  21.158   3.875  13.069
74101W        W44701   7.381   0.988   3.689
74102W        W44702  12.218   6.221   3.066
74103W        W44703  16.102  35.843  12.963
74104W        W44704  21.875  30.898  14.992
74105W        W44705  24.503   4.714  13.793
74106W        W44706  22.078  10.101  14.909
74107W        W44707  19.761   7.746  11.536
74108W        W44708  14.850  27.782  10.640
74109W        W44709  19.631  10.405  13.985
74110W        W44710  36.036  11.056  10.930
74111W        W44711   7.660  34.042   4.220
74112W        W44712  27.723  34.027   4.326
74113W        W44713  44.701   5.051   3.148
74114W        W44714  36.888  20.203  13.546
74115W        W44715   8.008  24.227  12.607
74116W        W44716  14.228  19.982   3.832
74117W        W44717  33.119  19.155  14.026
74118W        W44718   9.934  36.216   4.947
74119W        W44719  41.997   3.674  14.024
74120W        W44720  16.686  39.672  13.857
74121W        W44721  19.724  20.248  12.451
74122W        W44722  11.423  37.435  14.649
74123W        W44723  42.696  34.412  13.055
74124W        W44724  39.942  27.601   4.361
74125W        W44725  28.606   1.652  14.368
74126W        W44726  29.212  17.176   1.747
74127W        W44727   0.455   1.037  14.922
74128W        W44728  11.690   1.275  11.480
74129W        W44729  43.444   3.629   4.997
74130W        W44730  39.317  15.665   2.389
74131W        W44731  20.288  23.663   5.044
74132W        W44732  40.320   8.226   1.596
74133W        W44733  14.535  30.396   1.318
74134W        W44734  26.930  16.077   0.773
74135W        W44735  33.477  39.955   9.812
74136W        W44736   1.949   5.638   3.858
74137W        W44737  34.225   1.002  11.321
74138W        W44738   2.015  38.672   0.347
74139W        W44739  17.992  26.602   3.197
74140W        W44740  13.847  20.263   4.058
74141W        W44741  25.284  29.414  10.347
74142W        W44742  27.743  33.906  12.000
74143W        W44743  29.692   1.364   4.833
74144W        W44744   7.511  40.524  14.824
74145W        W44745   3.288  29.734  10.601
74146W        W44746  25.993  19.207  13.476
74147W        W44747  18.992  19.327  11.594
74148W        W44748  16.601  35.411  12.545
74149W        W44749   3.686  27.732   4.502
74150W        W44750  22.078  13.221  13.037
74151W        W44751  30.930  28.134  10.645
74152W        W44752  43.822  34.415   2.756
74153W        W44753  32.782  11.946  11.103
74154W        W44754  34.428  20.083   1.777
74155W        W44755  43.815  25.561   2.907
74156W        W44756  39.895  16.648   0.560
74157W        W44757  28.822  19.125   3.673
74158W        W44758  14.974  37.328   0.838
74159W        W44759  27.484  11.837   2.381
74160W        W44760  27.475  43.523   4.027
74161W        W44761  33.065  19.778  14.787
74162W        W44762  30.099  18.303   3.190
74163W        W44763   2.485  30.389   3.623
74164W        W44764  38.986  37.403   0.358
74165W        W44765  29.546  39.405   1.305
74166W        W44766  19.243  38.387   4.179
74167W        W44767   9.759  44.248   4.028
74168W        W44768   8.900  30.519  14.702
74169W        W44769  10.199  35.118   3.625
74170W        W44770  19.983  39.355  12.561
74171W        W44771  34.212  27.277   3.179
74172W        W44772  24.335   4.620  12.946
74173W        W44773  32.819  29.651   0.202
74174W        W44774  10.279   7.438   0.345
74175W        W44775  37.324  42.411  12.649
74176W        W44776   8.898  39.496   3.402
74177W        W44777  21.035  42.755   4.176
74178W        W44778  12.890  31.573   0.983
74179W        W44779  27.956  39.369  11.515
74180W        W44780  31.148   6.249   0.825
74181W        W44781  41.363  32.225  12.952
74182W        W44782  25.030  15.796   2.692
74183W        W44783   6.666  35.416   2.181
74184W        W44784  27.220  22.514   0.760
74185W        W44785  44.264  37.012   0.308
74186W        W44786   3.241  30.123  12.844
74187W        W44787  24.729  10.886   3.811
74188W        W44788  37.817  23.979   3.242
74189W        W44789   4.212  42.489  14.935
74190W        W44790  18.948   4.329  14.694
74191W        W44791  37.011  17.775   1.789
74192W        W44792   7.672  38.681   3.153
74193W        W44793  22.685  30.434  11.321
74194W        W44794   0.494  16.358   2.652
74195W        W44795  32.495  13.239   4.654
74196W        W44796  30.154  28.891   0.440
74197W        W44797   5.474   9.960   3.585
74198W        W44798  24.279  42.243  14.832
74199W        W44799   6.981  21.186   1.893
74200W        W44800   1.178  10.654   1.690
74201W        W44801  28.733  31.949  13.223
74202W        W44802   5.768   8.615   2.610
74203W        W44803  20.272   5.824   3.761
74204W        W44804  27.366  25.888  14.309
74205W        W44805  18.741  22.562  10.855
74206W        W44806  43.901  10.568  14.441
74207W        W44807   2.095  21.001   3.377
74208W        W44808  28.483   1.780  11.619
74209W        W44809  36.991  33.531   4.118
74210W        W44810  10.443  21.503  14.047
74211W        W44811  19.827  42.785   3.645
74212W        W44812  15.131  24.356   3.669
74213W        W44813  30.156  30.180   3.399
74214W        W44814  26.461  15.287  11.621
74215W        W44815  20.169  30.440  12.456
74216W        W44816   4.167  43.407   0.956
74217W        W44817  11.235  28.113  11.226
74218W        W44818   0.404   6.754  13.086
74219W        W44819   6.793  25.719  12.511
74220W        W44820  41.871   5.888   0.683
74221W        W44821  29.183  22.626   3.065
74222W        W44822  19.542  11.477  13.491
74223W        W44823  23.689  14.047  11.212
74224W        W44824  19.935  43.160  12.481
74225W        W44825  18.319   1.227   0.374
74226W        W44826  44.990  21.352   2.368
74227W        W44827  43.023  21.743  11.967
74228W        W44828  10.245  26.726  13.079
74229W        W44829  37.292  11.220   1.038
74230W        W44830  15.269   8.856   4.454
74231W        W44831  44.902   7.534   1.655
74232W        W44832  35.550  36.239  11.198
74233W        W44833   8.419   9.374  12.627
74234W        W44834  16.337  44.292  12.446
74235W        W44835  36.454  28.044  13.740
74236W        W44836  44.808  42.361   2.776
74237W        W44837  44.545  41.585   0.005
74238W        W44838  43.788  39.935  13.354
74239W        W44839  39.474  34.035  12.412
74240W        W44840  25.268  23.747   0.200
74241W        W44841   3.522  14.884   3.746
74242W        W44842  20.222  41.421  14.485
74243W        W44843  38.583  27.823  11.826
74244W        W44844  27.348  44.293  14.321
74245W        W44845   1.423  41.345   4.741
74246W        W44846  15.740  37.603  13.872
74247W        W44847   2.219  20.136  14.052
74248W        W44848  15.605  25.557  11.610
74249W        W44849  31.918  18.086   0.562
74250W        W44850  31.395  29.446  13.464
74251W        W44851  35.327  33.303   4.193
74252W        W44852  30.535  41.545  14.377
74253W        W44853  23.144  27.706   3.616
74254W        W44854  19.950  25.112   3.320
74255W        W44855   9.889  18.065   1.784
74256W        W44856  41.859   0.899  12.013
74257W        W44857  16.764  20.776  13.960
74258W        W44858  10.263  23.297   9.854
74259W        W44859  27.937  37.103  10.671
74260W        W44860   4.708  40.786   0.988
74261W        W44861  14.647  25.139   4.187
74262W        W44862  16.526  12.502   0.191
74263W        W44863  27.980  38.839   0.698
74264W        W44864  22.277   7.634   1.432
74265W        W44865  25.167  25.086   0.139
74266W        W44866  35.589  40.356   3.678
74267W        W44867   9.156  38.036   2.352
74268W        W44868  34.000   3.370  12.112
74269W        W44869  13.948  23.688  12.085
74270W        W44870   6.817  19.259   1.581
74271W        W44871  24.398   3.898  13.433
74272W        W44872   9.316  40.607   1.250
74273W        W44873  42.908  12.187  11.068
74274W        W44874  35.549  21.659  14.873
74275W        W44875  15.041  13.181  10.966
74276W        W44876  32.036   0.036   0.285
74277W        W44877  15.022   5.287   1.416
74278W        W44878  40.135  32.648   2.753
74279W        W44879  26.529  15.081   4.098
74280W        W44880   7.487  43.317  14.482
74281W        W44881  20.968  28.182  10.729
74282W        W44882   9.713  13.527   2.476
74283W        W44883  17.819  31.530   2.874
74284W        W44884  35.890  44.581  11.201
74285W        W44885  42.420  36.105   0.671
74286W        W44886   0.465   7.859   3.685
74287W        W44887  43.025  20.074   2.750
74288W        W44888  21.804  43.852  14.209
74289W        W44889  24.002  19.826  10.685
74290W        W44890   3.694  32.983   2.780
74291W        W44891  27.072   8.933   5.166
74292W        W44892  40.881   9.608  12.946
74293W        W44893  26.119  41.380  11.218
74294W        W44894  12.138  27.391  12.894
74295W        W44895  19.185  34.070   5.584
74296W        W44896  20.115  21.650  10.509
74297W        W44897  39.202  27.221  10.784
74298W        W44898  38.828  36.071   2.299
74299W        W44899   1.737  21.345   3.194
74300W        W44900  13.087  34.471  14.936
74301W        W44901   6.661  20.698  13.978
74302W        W44902   0.067  34.182   2.658
74303W        W44903  18.744  32.549  14.441
74304W        W44904  13.956  37.046   1.849
74305W        W44905  42.551   5.617   2.512
74306W        W44906  42.784   6.951  13.309
74307W        W44907  28.170  34.777  11.746
74308W        W44908  35.908  21.750   0.995
74309W        W44909  35.494  34.366   3.301
74310W        W44910   4.476  35.308  14.073
74311W        W44911  26.110  34.064  13.010
74312W        W44912  15.768  31.636  14.641
74313W        W44913   6.958  22.661   2.792
74314W        W44914  14.550  18.206   4.594
74315W        W44915   0.783   1.649   1.792
74316W        W44916  43.298  30.079  12.367
74317W        W44917  25.201  30.164  14.235
74318W        W44918  40.286  35.677  11.504
74319W        W44919  23.117  39.605   1.483
74320W        W44920  21.195  23.482  13.285
74321W        W44921  33.334  11.092  14.772
74322W        W44922  25.568  36.465  12.512
74323W        W44923   4.320  41.553   3.378
74324W        W44924  12.546   9.615   4.701
74325W        W44925  16.266  39.082  10.895
74326W        W44926  26.582   9.244   4.721
74327W        W44927  27.405  10.158  10.921
74328W        W44928  12.627   1.296  14.019
74329W        W44929  44.359  17.191   2.385
74330W        W44930  15.282  19.205   3.256
74331W        W44931  30.692   0.861  14.380
74332W        W44932  27.634  31.980   2.291
74333W        W44933   2.375  39.810   1.188
74334W        W44934   3.447  21.332   1.775
74335W        W44935  40.855   8.258   1.234
74336W        W44936  20.967  31.685  13.488
74337W        W44937  39.412  25.426   2.870
74338W        W44938  23.039  13.135   3.257
74339W        W44939   1.244   4.302  10.919
74340W        W44940  41.524  42.056   4.167
74341W        W44941   6.712  32.467   1.911
74342W        W44942  38.166  13.148   0.038
74343W        W44943   2.054  29.545  14.305
74344W        W44944  40.545   6.618  12.489
74345W        W44945  44.347  33.458  13.699
74346W        W44946  12.561  22.780  11.249
74347W        W44947   8.849  22.953   2.667
74348W        W44948  14.832  24.318  13.500
74349W        W44949  17.166  35.074   3.720
74350W        W44950  29.038  36.943   4.300
74351W        W44951  20.567  35.544  14.220
74352W        W44952  31.687  23.549  12.297
74353W        W44953  37.414   4.715  12.859
74354W        W44954  40.564  32.149  10.351
74355W        W44955  18.698  12.797   2.609
74356W        W44956  22.174  36.652   2.300
74357W        W44957  13.255  21.471  11.890
74358W        W44958  40.045   6.415   1.723
74359W        W44959  25.570  14.333  10.391
74360W        W44960  37.063  12.550   3.212
74361W        W44961  26.415  37.980   4.304
74362W        W44962  22.740  11.822  11.179
74363W        W44963   9.228   6.412   2.815
74364W        W44964  22.139  42.498  14.947
74365W        W44965  29.209  32.795  14.921
74366W        W44966  40.448  19.778  13.389
74367W        W44967   4.342  22.734   1.254
74368W        W44968  38.294  37.048   3.759
74369W        W44969  42.992  12.447   3.830
74370W        W44970  40.376   6.792  14.517
74371W        W44971  36.099  38.903   1.456
74372W        W44972  38.386  12.750   2.648
74373W        W44973  42.315  14.811  14.982
74374W        W44974  30.538  34.932   0.647
74375W        W44975   5.798  40.714   0.928
74376W        W44976  16.862  41.201  12.767
74377W        W44977   0.690  31.376  11.963
74378W        W44978  36.110   3.616   3.081
74379W        W44979  17.637  40.541  14.422
74380W        W44980  13.911   8.194   3.353
74381W        W44981  33.178  14.222  11.480
74382W        W44982  35.146  11.205   0.249
74383W        W44983  34.393  15.236  14.369
74384W        W44984  30.535  39.734  12.451
74385W        W44985  35.744   5.396   2.153
74386W        W44986  18.199  12.208   0.957
74387W        W44987  17.785  19.571   4.977
74388W        W44988  14.932  13.881  13.347
74389W        W44989   1.605  14.297   2.415
74390W        W44990   7.127  39.214   3.696
74391W        W44991  43.463  39.905   4.580
74392W        W44992  33.388  31.600  12.624
74393W        W44993   5.832  27.987   3.983
74394W        W44994  21.077  11.336  11.647
74395W        W44995  40.866  10.973  14.129
74396W        W44996  30.620  12.723   3.156
74397W        W44997  16.486   6.761  12.036
74398W        W44998  16.778  27.777  10.275
74399W        W44999  22.023  22.184   0.057
74400W        W45000  16.506   2.856   4.679
74401W        W45001   7.001  30.072  11.986
74402W        W45002  43.757  30.721  14.867
74403W        W45003  43.947  18.842  14.443
74404W        W45004  31.586   6.511   0.821
74405W        W45005  22.585   1.405  12.936
74406W        W45006  32.498  18.573  10.595
74407W        W45007  35.104  22.948   3.781
74408W        W45008   4.105  38.457   0.375
74409W        W45009  24.025  27.953   4.453
74410W        W45010   2.979  20.058  11.468
74411W        W45011   1.438   3.849  11.122
74412W        W45012  20.477  27.139  12.940
74413W        W45013  10.660  27.635   2.702
74414W        W45014   5.412  42.945  10.836
74415W        W45015   3.876  44.284  13.488
74416W        W45016  17.215  17.309  10.270
74417W        W45017  44.729   5.178  10.728
74418W        W45018  20.841  22.621   3.359
74419W        W45019  26.613  37.561   4.097
74420W        W45020  19.213  15.146  12.999
74421W        W45021  19.126  43.514   1.384
74422W        W45022  32.514  14.269  14.658
74423W        W45023  16.694  18.210  11.047
74424W        W45024   4.733   1.086   5.038
74425W        W45025  33.616  12.148   3.081
74426W        W45026  33.400  33.900   1.871
74427W        W45027   4.926  42.448   4.359
74428W        W45028   9.587   6.378   4.122
74429W        W45029  15.326  10.163   0.959
74430W        W45030  17.302   8.268   0.903
74431W        W45031  19.734  16.631  14.443
74432W        W45032  32.430  38.605   1.891
74433W        W45033  32.815   3.363  11.478
74434W        W45034  38.816  26.907   1.261
74435W        W45035   4.920  21.876  14.148
74436W        W45036  34.615  26.958  14.593
74437W        W45037  19.311   3.469   3.774
74438W        W45038  30.763  25.525  11.327
74439W        W45039  10.759  18.657  12.116
74440W        W45040  21.329   5.619  10.925
74441W        W45041   8.087  31.843   2.745
74442W        W45042  27.419  41.432   3.206
74443W        W45043  29.108  24.193  12.608
74444W        W45044  19.574  28.107   0.043
74445W        W45045  44.380  18.548  11.862
74446W        W45046  14.627   1.968   1.780
74447W        W45047  32.969  34.570  10.599
74448W        W45048  20.279  17.362  12.443
74449W        W45049  23.839  12.750   0.895
74450W        W45050  30.932  23.164   1.403
74451W        W45051   4.437  21.436   0.947
74452W        W45052  44.770  26.894  13.983
74453W        W45053  35.806  20.234   2.127
74454W        W45054  31.428  13.878  12.371
74455W        W45055  27.526  25.978  11.978
74456W        W45056  38.947  28.623  14.703
74457W        W45057   2.180  12.105   1.619
74458W        W45058  44.832  42.066  10.630
74459W        W45059  24.002  27.593   1.380
74460W        W45060  10.200  14.173   1.005
74461W        W45061   3.542   3.324  10.384
74462W        W45062   0.992  22.015  14.567
74463W        W45063  34.379   0.809   3.171
74464W        W45064   2.012  27.489  11.115
74465W        W45065  24.513  12.035  13.783
74466W        W45066  23.972  25.724   0.880
74467W        W45067  37.860  41.820  11.636
74468W        W45068   4.395  29.513   4.378
74469W        W45069   9.816  10.810   2.328
74470W        W45070   4.775   2.816   1.418
74471W        W45071  13.559   4.731   3.827
74472W        W45072  39.381  44.753  13.545
74473W        W45073  39.925  42.308  13.525
74474W        W45074  23.068   4.899  10.436
74475W        W45075  31.159   4.207  14.851
74476W        W45076  29.196  17.173  13.548
74477W        W45077  35.423  36.443   3.156
74478W        W45078  17.106   0.411   3.238
74479W        W45079  36.071   2.249  13.966
74480W        W45080  21.523  24.515   3.396
74481W        W45081  20.750  12.964   2.840
74482W        W45082  20.231  30.715   1.863
74483W        W45083  32.099   8.802   0.844
74484W        W45084  12.172   3.293  12.424
74485W        W45085  24.443  40.168   5.187
74486W        W45086  31.429  38.930   3.679
74487W        W45087  16.831  30.670  12.439
74488W        W45088  14.634  12.692   4.476
74489W        W45089  21.154   1.344   1.433
74490W        W45090   2.240  21.696  12.075
74491W        W45091  18.323  19.828  13.492
74492W        W45092  38.707   3.813  11.119
74493W        W45093  19.755  37.373   3.785
74494W        W45094  19.563  44.682   3.093
74495W        W45095  29.641   0.748  11.869
74496W        W45096  26.764   9.358   0.495
74497W        W45097  26.562  17.352  14.487
74498W        W45098  12.717  35.630  13.329
74499W        W45099   7.809  43.418   0.264
74500W        W45100  35.653  18.695  12.474
74501W        W45101   2.846   9.102  14.911
74502W        W45102  40.790  20.584  12.963
74503W        W45103  41.955  32.323  11.145
74504W        W45104  33.869   7.723  12.097
74505W        W45105  40.424  14.818  14.480
74506W        W45106  29.175  24.693  10.700
74507W        W45107  35.066  16.630   0.293
74508W        W45108  37.533  30.713   2.330
74509W        W45109  30.984  43.197  14.919
74510W        W45110  29.269  27.080   3.105
74511W        W45111  36.612  32.118  14.545
74512W        W45112  18.551  17.468  11.178
74513W        W45113  37.331  14.842  10.648
74514W        W45114   9.140   1.828   0.036
74515W        W45115   0.752  40.565  12.424
74516W        W45116  17.258  16.153   4.354
74517W        W45117  15.331  29.907   0.675
74518W        W45118  11.181   6.908   4.585
74519W        W45119  27.075  36.391   4.912
74520W        W45120   6.745   9.877   2.376
74521W        W45121  25.220  28.442   0.532
74522W        W45122  39.979   1.660   0.474
74523W        W45123   8.437  10.619  14.823
74524W        W45124  36.163  21.563  10.983
74525W        W45125  28.675  13.346   4.690
74526W        W45126  22.978  13.038   0.457
74527W        W45127  26.922  35.343   2.387
74528W        W45128  22.651  12.885  14.597
74529W        W45129  37.855  43.273  11.126
74530W        W45130  28.399  24.746  11.239
74531W        W45131  34.869  24.753   1.875
74532W        W45132   6.712  13.627  10.579
74533W        W45133   3.453   2.340   0.311
74534W        W45134   3.390  29.383   5.105
74535W        W45135  23.599  11.842   4.235
74536W        W45136  33.359   3.450  13.903
74537W        W45137  24.759   9.597  12.611
74538W        W45138  37.538  19.809  12.933
74539W        W45139  41.572   1.236   0.302
74540W        W45140  25.920  13.089  13.623
74541W        W45141   8.239  40.362   2.448
74542W        W45142  21.539  19.688  12.487
74543W        W45143  32.834  24.522  14.830
74544W        W45144  23.699   3.778   2.443
74545W        W45145  26.139  17.903   1.488
74546W        W45146  34.144  43.446   4.600
74547W        W45147  32.475  17.323  11.428
74548W        W45148  14.617  22.678  12.019
74549W        W45149  40.753  32.959  10.797
74550W        W45150   1.657   4.105  13.972
74551W        W45151  38.626  11.147   4.973
74552W        W45152  10.835  43.420  10.755
74553W        W45153  14.316  38.019  11.642
74554W        W45154  20.421  35.071  14.403
74555W        W45155  26.975   7.836   1.743
74556W        W45156   8.897  32.877   0.100
74557W        W45157  40.503  14.885  11.580
74558W        W45158  28.159  44.812  11.651
74559W        W45159  15.379  14.220  13.326
74560W        W45160  29.172  17.755   3.560
74561W        W45161  35.393  13.428   2.760
74562W        W45162  44.485   3.212   2.343
74563W        W45163  20.744   3.662   4.747
74564W        W45164  30.470  33.564  11.144
74565W        W45165   3.290  25.108  12.189
74566W        W45166  26.732   8.446   0.880
74567W        W45167   4.261  25.748   3.219
74568W        W45168  39.268   1.322  14.465
74569W        W45169  31.405  34.868   0.925
74570W        W45170  23.238  11.738  14.767
74571W        W45171  15.237   2.938   1.239
74572W        W45172  30.861  19.905   1.374
74573W        W45173  35.386  33.350  10.655
74574W        W45174  16.880  30.388   2.191
74575W        W45175   8.651  15.064  12.488
74576W        W45176   8.737  15.785   3.707
74577W        W45177  13.868  14.660  13.300
74578W        W45178   7.660   6.236  13.347
74579W        W45179   1.815  30.534   4.097
74580W        W45180  33.958  34.063  14.373
74581W        W45181  35.101  28.079   2.859
74582W        W45182  15.078  34.074   2.235
74583W        W45183   0.947  31.506  12.420
74584W        W45184  22.066  13.310   1.745
74585W        W45185  24.539  20.539   2.237
74586W        W45186  17.988  33.345  12.625
74587W        W45187  30.770  26.681  14.346
74588W        W45188  32.294  11.819  13.409
74589W        W45189  25.169   4.775   1.795
74590W        W45190   2.496   6.552   1.400
74591W        W45191  34.903  42.166   1.840
74592W        W45192   3.337  41.682  14.722
74593W        W45193  17.221  29.993   0.962
74594W        W45194  17.434  28.549  13.423
74595W        W45195  21.252   6.309   0.797
74596W        W45196  43.809   6.893  14.616
74597W        W45197  35.580  36.873  14.736
74598W        W45198  32.198   5.836   1.183
74599W        W45199  42.625  30.819   2.695
74600W        W45200  31.471   2.253   2.412
74601W        W45201  37.631  12.732   3.726
74602W        W45202  41.350  33.125  11.100
74603W        W45203  27.681  35.618   2.785
74604W        W45204  30.304   2.340  12.418
74605W        W45205  22.678  40.660  10.371
74606W        W45206   8.064  20.145   0.975
74607W        W45207  17.755  41.535  13.468
74608W        W45208  42.387  21.622   2.820
74609W        W45209  24.764   5.852  14.693
74610W        W45210  42.290  33.116  14.418
74611W        W45211  12.463   5.570   2.403
74612W        W45212  35.788   8.678   2.175
74613W        W45213  44.267  21.624  13.273
74614W        W45214  21.095  37.632   2.743
74615W        W45215  13.200  34.574   2.188
74616W        W45216  41.880  18.545  11.627
74617W        W45217   3.483  31.898  13.930
74618W        W45218  11.670   6.321   1.551
74619W        W45219  38.377   5.990   3.666
74620W        W45220  22.520  43.406  13.278
74621W        W45221  21.974  36.926  12.561
74622W        W45222  36.481  40.949  13.741
74623W        W45223  19.388  20.240   1.338
74624W        W45224  18.299   5.587   0.716
74625W        W45225  34.137  43.344   3.656
74626W        W45226   2.043  25.279  11.712
74627W        W45227  31.645  10.631  11.002
74628W        W45228  37.294  31.926   1.498
74629W        W45229   9.638  41.795  13.438
74630W        W45230  44.443  20.669  12.242
74631W        W45231  22.732   3.496  10.547
74632W        W45232  39.368  17.356   1.884
74633W        W45233  32.419  30.687   2.255
74634W        W45234  43.445  24.986  12.960
74635W        W45235  30.458  14.632   0.460
74636W        W45236  17.173  19.445   3.211
74637W        W45237  15.511  43.814   2.665
74638W        W45238  24.542  43.172   2.401
74639W        W45239   9.780  16.870  13.406
74640W        W45240   5.403   9.111   3.256
74641W        W45241  27.761   8.420  14.318
74642W        W45242   2.046   3.257   2.290
74643W        W45243  18.464   1.298   4.664
74644W        W45244  35.035  33.286  12.164
74645W        W45245  37.606   8.841   3.323
74646W        W45246  29.093  14.734   4.774
74647W        W45247  31.385  20.268  13.439
74648W        W45248  19.139  39.263   1.141
74649W        W45249  39.378  33.906   0.498
74650W        W45250   5.682   3.824  11.251
74651W        W45251  31.120  29.850  11.968
74652W        W45252  33.389  13.559   2.318
74653W        W45253   1.913  26.422   3.874
74654W        W45254   2.762   3.764   1.456
74655W        W45255  22.091  37.797   3.718
74656W        W45256  18.253   4.626   1.204
74657W        W45257  29.633  12.876  12.077
74658W        W45258   2.223  16.034  12.680
74659W        W45259  14.043  19.613   0.446
74660W        W45260  32.585  37.358  12.053
74661W        W45261  44.374   1.939  11.263
74662W        W45262  27.676  19.728  14.206
74663W        W45263  10.329  33.079   3.153
74664W        W45264   9.244   7.091   4.464
74665W        W45265  10.593  40.971  12.066
74666W        W45266  33.843   8.132   0.703
74667W        W45267  14.667  18.511  13.949
74668W        W45268   0.890  17.019   4.544
74669W        W45269   7.238  29.980   3.200
74670W        W45270  42.260  26.624  12.992
74671W        W45271  36.163  32.432  12.400
74672W        W45272   5.559  18.124  10.996
74673W        W45273  41.381  28.604   0.948
74674W        W45274  15.442  33.283  11.554
74675W        W45275  13.137  38.554   4.501
74676W        W45276  34.064  17.185  11.154
74677W        W45277  33.420  35.027  13.836
74678W        W45278  26.793   8.014   4.177
74679W        W45279  33.056   6.127  13.466
74680W        W45280   0.395  10.267   2.187
74681W        W45281  30.577  23.489  10.658
74682W        W45282  10.050  27.675  14.692
74683W        W45283  34.519  35.390  11.477
74684W        W45284  35.254   0.905   0.337
74685W        W45285   1.379  33.847   2.683
74686W        W45286  42.244   3.296   1.383
74687W        W45287  10.129   3.533  14.854
74688W        W45288  26.161  35.409  13.527
74689W        W45289  43.205  31.066   4.563
74690W        W45290  37.977   5.902  13.337
74691W        W45291  22.779   7.425   2.318
74692W        W45292  21.418  14.608  11.088
74693W        W45293  14.907  22.185  12.110
74694W        W45294  12.065  32.556   3.399
74695W        W45295  25.087   5.388  13.999
74696W        W45296  34.627  10.181   0.324
74697W        W45297  31.383  37.921   2.321
74698W        W45298  42.878  42.090  12.001
74699W        W45299  13.749   7.108   1.449
74700W        W45300   7.851   0.958  10.629
74701W        W45301  12.576   4.987   0.767
74702W        W45302  28.961  14.158   0.220
74703W        W45303  23.843  24.274   3.341
74704W        W45304  33.179  31.897   4.855
74705W        W45305  38.440  41.798   2.367
74706W        W45306  11.151  41.310   4.094
74707W        W45307  37.845   8.846   2.865
74708W        W45308   7.075  19.076  13.923
74709W        W45309  25.576  24.957   2.119
74710W        W45310  44.930  36.479   2.664
74711W        W45311   0.054  28.974   1.353
74712W        W45312  42.322  44.753  11.589
74713W        W45313   5.360  34.689   4.094
74714W        W45314  25.268  30.483   1.928
74715W        W45315  37.229   5.833   2.556
74716W        W45316  35.626  15.874   2.137
74717W        W45317  39.239   5.185  13.604
74718W        W45318   5.822  37.363   1.386
74719W        W45319   4.942  42.868   5.104
74720W        W45320  43.989  21.839  12.146
74721W        W45321   6.607  35.403   0.783
74722W        W45322  25.030  35.152   3.229
74723W        W45323  41.718  12.639   0.761
74724W        W45324  26.701  25.779  13.834
74725W        W45325  19.704  31.906   3.389
74726W        W45326  17.838  25.482  11.931
74727W        W45327   5.147  40.547   4.914
74728W        W45328  25.910  29.862  12.860
74729W        W45329   9.390  24.230  11.236
74730W        W45330   1.472  30.635  12.882
74731W        W45331   8.918  20.619   1.145
74732W        W45332  18.132   2.173  12.386
74733W        W45333  21.736  12.081  12.020
74734W        W45334  31.710   7.722  14.243
74735W        W45335   2.527   1.543   0.926
74736W        W45336  20.560  35.892  13.331
74737W        W45337  19.165  24.789   2.619
74738W        W45338  33.895  40.957  12.128
74739W        W45339   9.610  16.076  11.686
74740W        W45340  26.705  13.579  13.848
74741W        W45341  14.058  30.774   4.873
74742W        W45342  42.812  43.125   2.791
74743W        W45343  25.960  15.327   1.532
74744W        W45344  17.150  22.979  14.007
74745W        W45345  28.530  35.119   9.698
74746W        W45346  21.926   1.494   4.144
74747W        W45347  32.078  16.052   1.871
74748W        W45348  40.570  12.833   1.205
74749W        W45349  16.014   0.208  12.121
74750W        W45350  39.301   0.021  12.094
74751W        W45351  38.876  37.784   2.920
74752W        W45352  39.174   9.371  10.418
74753W        W45353  27.849   3.232   4.158
74754W        W45354  18.599  34.552  14.343
74755W        W45355  38.855  13.526  14.818
74756W        W45356  13.280  28.103  14.992
74757W        W45357  29.406  36.056   4.536
74758W        W45358  29.518  12.385   2.686
74759W        W45359  38.705   2.493  11.075
74760W        W45360  42.461   4.904   1.848
74761W        W45361  17.378  10.698   4.198
74762W        W45362  13.784  33.131  10.514
74763W        W45363   0.721  35.431   3.251
74764W        W45364   9.816  20.705   4.463
74765W        W45365  37.729   2.260  11.040
74766W        W45366  43.487   6.704  13.481
74767W        W45367   1.228   8.404  13.804
74768W        W45368  35.889   8.755   1.228
74769W        W45369  31.420   4.391  11.115
74770W        W45370   6.205  24.220   0.775
74771W        W45371   1.419  42.901   3.268
74772W        W45372  11.032  33.734  11.126
74773W        W45373  32.951  11.418   2.845
74774W        W45374  37.995  23.633   3.573
74775W        W45375  42.149  36.395  12.497
74776W        W45376  18.492  32.614  14.932
74777W        W45377  10.176   5.820   2.134
74778W        W45378  30.289  30.040  13.027
74779W        W45379  28.907  13.131  11.652
74780W        W45380  10.291  15.503   1.087
74781W        W45381  35.395  16.667  13.338
74782W        W45382  31.969   9.077   0.392
74783W        W45383  25.006  34.888  14.489
74784W        W45384  10.679   1.178  13.977
74785W        W45385  43.732  33.581   2.786
74786W        W45386  11.904  14.386   3.666
74787W        W45387  36.570   7.938  12.354
74788W        W45388   5.437  20.039   3.700
74789W        W45389  16.168  39.987   1.242
74790W        W45390   4.159  33.068  13.393
74791W        W45391  23.449  37.573  12.166
74792W        W45392  30.006  38.727  11.561
74793W        W45393  38.606  33.840   0.888
74794W        W45394  37.303   9.198   4.219
74795W        W45395  13.648  37.447  12.112
74796W        W45396  14.898  17.673   4.485
74797W        W45397   8.351  16.249  11.979
74798W        W45398   2.762  28.076   1.143
74799W        W45399  38.337  31.931  12.970
74800W        W45400  19.631  12.365   1.521
74801W        W45401   9.307  31.358   1.794
74802W        W45402  34.000  21.103  13.385
74803W        W45403   2.767  12.106   1.374
74804W        W45404  24.616  11.598  11.134
74805W        W45405  32.829  44.362   3.237
74806W        W45406  17.830  44.388   3.421
74807W        W45407  18.151  17.212   4.892
74808W        W45408  34.585   9.324   0.066
74809W        W45409  28.607   3.527  11.960
74810W        W45410  15.820  18.074  11.973
74811W        W45411  21.137   3.904   0.106
74812W        W45412   8.686  22.109  11.262
74813W        W45413  40.401  14.984   3.656
74814W        W45414  10.396  38.892  14.059
74815W        W45415   3.152  38.804  14.961
74816W        W45416  29.875  12.206   2.374
74817W        W45417  37.259   1.848   4.239
74818W        W45418  10.869  25.949  10.543
74819W        W45419   5.737  25.675   1.775
74820W        W45420  27.954  14.651   0.907
74821W        W45421  25.671  24.715   4.081
74822W        W45422  22.228  38.552   4.086
74823W        W45423  16.319  17.917   4.183
74824W        W45424  20.577  28.694   4.291
74825W        W45425  35.619  17.228   0.355
74826W        W45426  41.405   6.462  13.777
74827W        W45427   7.859  33.399   3.910
74828W        W45428  21.552  37.448   2.912
74829W        W45429  18.951   5.906  14.330
74830W        W45430   3.444   9.897  14.854
74831W        W45431  18.664  12.638   3.526
74832W        W45432  23.881  19.695   1.016
74833W        W45433   6.280  11.606  10.644
74834W        W45434  21.315  34.839   1.640
74835W        W45435  40.405  41.593  11.658
74836W        W45436   9.305   0.488  10.807
74837W        W45437  35.437   9.752  13.052
74838W        W45438  37.838  23.917  14.876
74839W        W45439   9.321  42.103   0.306
74840W        W45440  27.758  18.101   1.870
74841W        W45441   7.369  20.667  13.368
74842W        W45442   1.877  13.634   1.337
74843W        W45443  44.121   5.665   4.152
74844W        W45444  31.954  12.213  14.695
74845W        W45445  28.168   4.726   3.825
74846W        W45446   8.722  36.550  13.886
74847W        W45447  27.740  41.821   3.339
74848W        W45448   2.743  14.886  12.590
74849W        W45449  17.155  20.222  10.894
74850W        W45450  30.471  15.113   2.137
74851W        W45451   3.232   4.705  12.496
74852W        W45452   2.205  16.233   2.170
74853W        W45453  38.812   5.568  11.179
74854W        W45454  34.201   4.922   1.391
74855W        W45455  39.866  24.689  14.091
74856W        W45456  38.361  11.412  13.394
74857W        W45457  35.937   2.586   0.316
74858W        W45458  37.254  33.164  11.240
74859W        W45459  40.281  35.589   2.746
74860W        W45460  26.806  19.712  11.230
74861W        W45461  25.633  16.880   0.846
74862W        W45462  23.687   0.371   3.170
74863W        W45463   5.919  19.481  11.381
74864W        W45464  34.815  23.262  14.094
74865W        W45465  13.401  32.026  11.583
74866W        W45466   0.159   3.415  14.468
74867W        W45467  25.456   6.966  14.461
74868W        W45468  32.548  23.142   4.445
74869W        W45469  11.313  30.975  14.060
74870W        W45470  40.313  34.530   3.601
74871W        W45471  17.796  37.603   0.738
74872W        W45472   2.538  23.018  13.439
74873W        W45473  12.793  21.523   1.980
74874W        W45474  22.506   2.534   3.153
74875W        W45475  30.466  36.130  13.008
74876W        W45476  21.751   6.019  14.629
74877W        W45477   2.626  41.321   0.689
74878W        W45478  36.442  39.433  13.804
74879W        W45479   1.492  25.932   1.692
74880W        W45480  40.832   1.896   2.544
74881W        W45481  11.797  20.650  11.476
74882W        W45482  28.428  41.212  13.097
74883W        W45483  40.372  35.981   0.247
74884W        W45484   8.333  13.433  14.484
74885W        W45485  14.128  12.619   1.629
74886W        W45486  39.654   3.249   1.946
74887W        W45487  29.641  17.177   0.966
74888W        W45488  19.268   3.658   4.542
74889W        W45489  38.463  29.442   4.284
74890W        W45490  20.016  17.234   0.899
74891W        W45491  16.817  41.435   0.392
74892W        W45492  23.560  43.457   3.351
74893W        W45493  44.773   3.513  11.233
74894W        W45494  26.863  39.914  10.684
74895W        W45495   9.750  27.084  13.818
74896W        W45496  14.606  23.906  11.316
74897W        W45497   4.853  26.153  11.655
74898W        W45498  20.740  44.072   1.964
74899W        W45499  13.806  33.256   2.637
74900W        W45500   0.185  30.925  12.039
74901W        W45501  24.072  34.510   2.685
74902W        W45502  22.727   0.597  10.764
74903W        W45503  32.114  29.539   2.742
74904W        W45504  19.855  13.246   0.149
74905W        W45505  20.821   2.812  14.354
74906W        W45506  13.941  15.403   3.111
74907W        W45507  18.815  18.695   4.628
74908W        W45508   2.380   4.391   4.145
74909W        W45509  39.005  28.635  10.685
74910W        W45510  36.756  10.870  11.199
74911W        W45511   3.846   8.875   0.356
74912W        W45512  35.363  25.731   1.329
74913W        W45513  19.378  35.579   1.190
74914W        W45514  12.690  10.157   3.230
74915W        W45515  25.391  22.633  10.737
74916W        W45516   0.260  28.227  14.442
74917W        W45517   6.766   5.630   4.104
74918W        W45518   6.920  40.788   2.443
74919W        W45519  38.440  14.060  10.403
74920W        W45520  34.337   1.187   1.431
74921W        W45521  35.170  12.647  11.559
74922W        W45522   2.482  18.038   4.156
74923W        W45523   6.695  40.791   3.327
74924W        W45524  29.195  26.189   1.883
74925W        W45525  37.735   0.948   1.373
74926W        W45526  19.721   7.402  12.294
74927W        W45527  20.498  24.082  10.514
74928W        W45528  35.834  37.630   0.989
74929W        W45529  38.996  11.098   1.788
74930W        W45530  27.124  16.253  13.314
74931W        W45531   9.643  25.877  13.632
74932W        W45532  22.988  43.725   3.188
74933W        W45533  28.171   5.461  13.208
74934W        W45534  37.483  19.912   3.745
74935W        W45535   2.247  39.797   2.403
74936W        W45536  29.673  16.610  13.070
74937W        W45537  38.455   5.205  11.191
74938W        W45538  13.582  28.128   3.906
74939W        W45539   6.654  17.143   3.615
74940W        W45540  43.213  28.635  14.958
74941W        W45541   3.589  11.367  11.519
74942W        W45542  26.916  28.713  12.955
74943W        W45543  40.010  24.674   3.795
74944W        W45544  12.363  41.428   1.500
74945W        W45545  28.560  31.699  14.134
74946W        W45546  24.645  21.703  11.778
74947W        W45547  19.758  10.269  14.480
74948W        W45548  12.412  12.573   0.176
74949W        W45549  32.504   5.525   3.733
74950W        W45550   7.203   3.357   2.675
74951W        W45551   1.417  13.833   1.243
74952W        W45552  25.790   0.821  12.573
74953W        W45553  43.572  37.456  11.004
74954W        W45554  15.201  28.460  11.666
74955W        W45555  23.434  17.698  13.515
74956W        W45556  24.705  33.165   2.597
74957W        W45557  19.252  28.170  13.397
74958W        W45558  10.610  25.496  10.501
74959W        W45559  17.721  43.016   0.363
74960W        W45560  13.339  33.320  10.294
74961W        W45561   4.511  10.603  13.330
74962W        W45562  21.124  31.469  11.675
74963W        W45563   6.407   2.062   0.188
74964W        W45564  42.486  10.656   1.909
74965W        W45565  12.188  30.558   3.261
74966W        W45566  44.798  40.261   0.857
74967W        W45567  10.446  12.310  11.308
74968W        W45568  14.138  36.976   3.352
74969W        W45569   8.401  33.704  12.046
74970W        W45570  16.278  37.142  14.563
74971W        W45571  30.911  17.696   0.988
74972W        W45572   0.310  22.182  12.366
74973W        W45573  35.135  23.818  12.547
74974W        W45574   7.657   3.204   0.223
74975W        W45575   1.262  35.662   4.105
74976W        W45576  39.615  24.572  12.418
74977W        W45577   5.338   6.653  12.134
74978W        W45578   5.225  31.383   1.844
74979W        W45579   5.855  23.360   4.515
74980W        W45580  23.982  17.011   3.546
74981W        W45581   6.352  34.946   0.787
74982W        W45582   2.219  22.656   3.774
74983W        W45583  18.803  36.041   2.913
74984W        W45584  26.388  42.415   2.489
74985W        W45585  31.537  40.951  13.933
74986W        W45586  12.605  34.602  14.836
74987W        W45587  11.588   2.254  13.545
74988W        W45588  13.104  27.896   0.537
74989W        W45589   5.686   3.812  11.750
74990W        W45590  27.812  21.192   4.978
74991W        W45591   6.244  35.185   2.733
74992W        W45592  14.583  17.542   1.004
74993W        W45593  37.800   5.311   4.530
74994W        W45594  21.688  36.400  11.641
74995W        W45595  18.813   0.990   0.428
74996W        W45596  24.544  15.552   2.702
74997W        W45597  40.258  30.391  11.217
74998W        W45598  29.449   3.322   2.266
74999W        W45599  42.342   2.324   0.970
75000W        W45600  38.769  38.190  12.459
75001W        W45601  13.085  11.269   2.560
75002W        W45602   7.255  29.965  11.541
75003W        W45603  11.432  42.417   5.073
75004W        W45604  33.111  13.859   3.251
75005W        W45605  17.101  14.917   5.205
75006W        W45606  42.859  24.900   1.883
75007W        W45607  14.360   2.484  14.740
75008W        W45608  29.264   2.210  11.679
75009W        W45609  37.584  36.083   1.757
75010W        W45610  31.000  31.234  12.574
75011W        W45611  41.615  30.534  10.766
75012W        W45612   9.360  10.286   1.915
75013W        W45613  35.478   6.931  13.783
75014W        W45614   6.379  27.257  10.580
75015W        W45615  11.032  37.220  14.910
75016W        W45616  21.002  32.654   0.459
75017W        W45617  39.247  39.016  14.505
75018W        W45618  36.980  44.600   3.628
75019W        W45619  16.805  37.446   4.819
75020W        W45620  27.477  15.909  11.580
75021W        W45621  12.100  26.101   4.580
75022W        W45622  33.410  44.534  10.630
75023W        W45623  35.100  36.005  13.320
75024W        W45624  19.474  37.385  11.048
75025W        W45625  26.604  28.141  13.875
75026W        W45626  16.833   5.193  14.033
75027W        W45627  32.637   6.825   0.411
75028W        W45628  40.075  26.004   3.731
75029W        W45629  20.704  40.135  12.457
75030W        W45630  42.896   9.433   1.425
75031W        W45631  12.069   5.932   2.360
75032W        W45632  31.080  15.559   0.075
75033W        W45633  28.036  34.835  10.767
75034W        W45634  23.001  27.060  11.554
75035W        W45635   5.883   2.419   0.897
75036W        W45636   6.965   1.227  12.869
75037W        W45637  21.886  32.515   3.755
75038W        W45638  28.575  17.210  14.862
75039W        W45639  34.590  25.719  11.171
75040W        W45640  24.667  30.447   1.232
75041W        W45641  42.599  40.309  14.461
75042W        W45642  10.234  40.784   0.499
75043W        W45643  10.198  37.388  11.854
75044W        W45644  31.563  14.291   2.333
75045W        W45645  12.629  13.676   2.588
75046W        W45646  32.124   6.749   2.083
75047W        W45647  24.749  20.184   0.846
75048W        W45648  38.511  25.782   3.148
75049W        W45649  31.428  25.972   2.209
75050W        W45650  25.528  37.837   1.465
75051W        W45651  15.604  11.868   2.873
75052W        W45652  20.575  33.774  11.304
75053W        W45653  20.720  12.837   0.998
75054W        W45654  28.781  31.516   0.005
75055W        W45655  15.094   7.140   1.109
75056W        W45656  17.730  44.989   0.357
75057W        W45657  22.751  10.563  14.311
75058W        W45658  14.074  17.896  11.999
75059W        W45659  11.342   0.063  10.571
75060W        W45660  31.790  17.053  13.151
75061W        W45661  13.910  20.523   4.852
75062W        W45662  38.925  31.101   0.711
75063W        W45663  13.607  27.494   4.632
75064W        W45664  37.611  20.591  13.473
75065W        W45665  34.036  30.680  12.151
75066W        W45666  18.491  35.998   0.934
75067W        W45667  33.057  42.509  14.806
75068W        W45668   6.544  39.899   0.860
75069W        W45669   4.514  40.423   2.381
75070W        W45670   7.970   8.222   4.694
75071W        W45671  18.073  25.473   4.090
75072W        W45672  14.891  26.902  12.006
75073W        W45673  14.023   7.721   2.217
75074W        W45674   3.539  42.957  13.942
75075W        W45675   0.842  16.526   4.357
75076W        W45676  27.284  18.625   1.253
75077W        W45677   0.415  24.673   1.807
75078W        W45678   8.106  19.051   2.338
75079W        W45679   8.159  23.049  11.061
75080W        W45680  30.178  13.431   5.099
75081W        W45681   9.131  21.591   1.304
75082W        W45682  22.585   0.288  11.721
75083W        W45683   9.746   8.472   1.335
75084W        W45684  15.956  19.844  13.330
75085W        W45685  38.476   6.850   0.927
75086W        W45686  25.169  23.121  13.495
75087W        W45687  26.024  39.369   3.725
75088W        W45688   0.628   9.716   0.027
75089W        W45689  23.749  11.621   3.265
75090W        W45690  29.629   4.802   3.865
75091W        W45691  38.767  15.793  14.347
75092W        W45692  25.455  26.791   0.675
75093W        W45693  43.912   8.406  12.396
75094W        W45694  13.783   8.137  14.176
75095W        W45695  29.389  35.200   1.840
75096W        W45696  14.245  40.529  14.857
75097W        W45697   7.872   2.768   2.368
75098W        W45698  16.872  19.643  13.396
75099W        W45699  11.714  29.941  10.591
75100W        W45700  26.789  15.307  10.373
75101W        W45701  19.107  18.564   2.374
75102W        W45702  18.095  22.605  12.225
75103W        W45703   9.357   2.505  13.021
75104W        W45704  12.270  19.373  12.184
75105W        W45705  28.948  20.098  12.128
75106W        W45706  33.595  28.366   4.532
75107W        W45707   7.767   8.329  10.710
75108W        W45708   8.338  43.858  10.753
75109W        W45709   9.749   3.429  12.586
75110W        W45710  24.049  44.706   0.289
75111W        W45711  24.040  11.379   1.740
75112W        W45712   4.342  40.796   4.404
75113W        W45713  14.166  35.628   1.739
75114W        W45714   5.253  16.765   0.828
75115W        W45715  26.011  12.287   4.619
75116W        W45716  39.115  37.956  11.075
75117W        W45717  17.364  15.409   4.558
75118W        W45718  27.547  39.068  14.988
75119W        W45719  15.238  11.953  13.750
75120W        W45720  37.923  23.525   1.886
75121W        W45721  23.556  29.961  11.607
75122W        W45722  40.282  28.185   2.330
75123W        W45723   6.376  31.858   2.366
75124W        W45724  27.223  32.942  13.370
75125W        W45725  27.263   3.343   0.236
75126W        W45726  10.163  13.632   2.238
75127W        W45727  15.313  21.791  13.965
75128W        W45728  37.958   1.208   1.857
75129W        W45729  21.062   9.423   5.044
75130W        W45730  16.649  41.286  14.833
75131W        W45731   8.218   1.184  11.866
75132W        W45732  41.979  14.548   2.029
75133W        W45733   7.544  19.608  11.864
75134W        W45734  19.853  25.248   1.328
75135W        W45735  35.051   3.329  14.082
75136W        W45736  30.424  38.759   4.980
75137W        W45737  34.500   0.278   1.915
75138W        W45738   3.295   8.127   0.292
75139W        W45739  22.234  20.285  13.383
75140W        W45740   9.251   2.150  11.741
75141W        W45741   8.624  43.240   4.033
75142W        W45742  13.880  15.280   4.445
75143W        W45743  44.224  20.447   1.845
75144W        W45744   4.384  32.937   5.730
75145W        W45745  12.232  22.802  14.972
75146W        W45746  26.190  41.418  13.477
75147W        W45747   7.178   8.205   2.600
75148W        W45748  15.201  29.523   2.777
75149W        W45749  34.458  30.179  12.907
75150W        W45750  18.487  15.390  12.461
75151W        W45751   0.475  16.719   0.325
75152W        W45752   7.917  40.402  11.285
75153W        W45753  40.902  39.807   4.588
75154W        W45754   3.261   2.780   3.862
75155W        W45755   9.339  19.318   1.327
75156W        W45756  40.366  33.742  12.987
75157W        W45757  30.600  24.560   2.228
75158W        W45758  40.452  23.423  11.083
75159W        W45759  23.799  38.556  11.273
75160W        W45760  19.658  30.438  13.481
75161W        W45761  32.754  43.664   4.225
75162W        W45762   6.281  18.531  10.648
75163W        W45763  18.999  44.228  13.032
75164W        W45764  34.295   5.392  13.522
75165W        W45765   9.874  26.719  14.835
75166W        W45766  37.403  29.681  13.914
75167W        W45767  24.476  36.059   1.885
75168W        W45768  34.726  17.557  12.410
75169W        W45769  19.116  18.257   0.862
75170W        W45770  42.923  29.510   1.779
75171W        W45771   1.207   3.873   1.315
75172W        W45772   9.306  42.491  14.536
75173W        W45773   4.042  35.492  10.731
75174W        W45774   1.216  28.278  11.706
75175W        W45775  16.973  20.712   1.271
75176W        W45776  15.851   7.096   3.248
75177W        W45777  19.800  32.425  14.923
75178W        W45778  11.982  12.921   2.435
75179W        W45779  10.983  24.391   3.046
75180W        W45780  14.721  21.777   0.791
75181W        W45781   4.557  35.153   0.454
75182W        W45782  29.585   5.255  14.547
75183W        W45783  13.635  21.175   4.569
75184W        W45784  39.871  34.520  10.685
75185W        W45785  29.894  11.337   3.139
75186W        W45786  37.891   1.923   4.728
75187W        W45787  26.805  17.793  14.392
75188W        W45788   9.665  26.519   0.268
75189W        W45789  33.634  32.060   1.525
75190W        W45790  36.424   9.287   4.072
75191W        W45791  37.889  36.977  10.464
75192W        W45792  42.002  30.387   3.648
75193W        W45793  14.550  34.949  10.393
75194W        W45794  26.284  29.760  11.106
75195W        W45795   7.466  31.334   4.923
75196W        W45796  29.685  32.742   3.784
75197W        W45797  19.528  17.297  13.457
75198W        W45798  39.875   8.201  12.495
75199W        W45799  17.435  34.596  10.795
75200W        W45800  38.046  11.742   3.443
75201W        W45801  44.444  24.170   1.901
75202W        W45802  37.428  11.241   3.267
75203W        W45803   7.375  29.661   2.368
75204W        W45804  41.329  26.227   1.175
75205W        W45805  23.680  42.020   2.976
75206W        W45806  33.522  18.579  12.407
75207W        W45807  23.196  44.150   0.133
75208W        W45808  44.313  33.179  11.333
75209W        W45809  36.683  42.030   1.296
75210W        W45810  32.392   3.243   1.958
75211W        W45811  15.646  44.978   2.363
75212W        W45812  40.994  37.633  12.173
75213W        W45813  18.578  20.196  14.495
75214W        W45814  12.222  37.339  12.103
75215W        W45815  18.125  31.386  14.720
75216W        W45816  29.128  31.545   3.265
75217W        W45817  10.928   7.624   3.781
75218W        W45818  44.252   8.726   0.386
75219W        W45819  38.248   9.454  12.534
75220W        W45820   1.442   1.676  11.957
75221W        W45821  37.363  13.559  11.868
75222W        W45822   9.928  33.516  13.317
75223W        W45823  24.415  22.924   4.191
75224W        W45824  31.115  27.704   3.317
75225W        W45825  18.301  32.927  12.543
75226W        W45826   6.435  41.062  14.478
75227W        W45827   8.814   7.954  10.632
75228W        W45828  15.594  16.621  12.083
75229W        W45829   3.782  32.358   1.695
75230W        W45830  10.742  11.955  11.752
75231W        W45831  38.435  36.644  12.432
75232W        W45832  35.445  25.555   3.754
75233W        W45833  32.546  11.527  14.257
75234W        W45834  36.609   9.833   3.732
75235W        W45835  26.697  29.992  10.950
75236W        W45836  42.138   1.051  11.608
75237W        W45837  10.449   0.624  11.406
75238W        W45838   9.269  42.577   0.547
75239W        W45839  22.217  13.848  14.425
75240W        W45840  28.772  27.092   4.052
75241W        W45841  12.218  29.207  12.447
75242W        W45842  11.405  42.297  11.782
75243W        W45843  26.923   8.473   4.409
75244W        W45844  38.076  26.537   3.353
75245W        W45845  20.052  31.373  14.993
75246W        W45846  40.035  14.526  11.560
75247W        W45847  34.321  26.906   4.550
75248W        W45848  28.666  19.198   4.519
75249W        W45849  30.703  28.561   2.957
75250W        W45850   5.739   0.355  14.909
75251W        W45851  29.201   3.749  11.544
75252W        W45852  18.639  31.370  11.280
75253W        W45853  16.167  22.004   0.454
75254W        W45854  31.934  19.078   3.650
75255W        W45855   9.559  36.875   0.980
75256W        W45856  15.402  35.422  12.076
75257W        W45857   4.252  32.423  13.939
75258W        W45858  31.455  16.774   2.788
75259W        W45859  38.455   8.336  13.845
75260W        W45860  27.173  11.249   0.301
75261W        W45861  28.666  10.411  12.011
75262W        W45862  42.813  23.980   1.972
75263W        W45863  20.252   8.607  12.714
75264W        W45864   4.344  23.147   2.414
75265W        W45865  30.138  17.126   0.723
75266W        W45866  27.147  14.269  13.221
75267W        W45867  10.287  27.007  14.931
75268W        W45868  32.069  21.881  13.946
75269W        W45869  35.173  44.860   5.064
75270W        W45870   4.012  12.688  14.543
75271W        W45871  20.400  28.277   3.055
75272W        W45872  33.258   5.222   3.176
75273W        W45873   6.254  27.038   1.036
75274W        W45874  15.371  14.032  11.557
75275W        W45875  37.820  40.398  11.496
75276W        W45876  14.687   3.824  11.923
75277W        W45877   3.845   3.285   2.025
75278W        W45878  14.046  39.157   3.126
75279W        W45879  25.407  28.327  10.970
75280W        W45880  28.921  32.618  10.307
75281W        W45881  29.365  34.666  11.973
75282W        W45882  34.385  10.709  10.955
75283W        W45883  42.063  11.874  11.193
75284W        W45884   3.235  42.093  14.007
75285W        W45885  28.442  27.383   0.637
75286W        W45886  32.889  36.516   0.917
75287W        W45887  27.896  17.039   0.607
75288W        W45888   8.570  31.706  11.179
75289W        W45889  27.145  25.418   1.433
75290W        W45890   4.700   3.896  12.929
75291W        W45891  13.563  38.252   1.378
75292W        W45892  44.118  44.375  13.556
75293W        W45893   9.405  41.117  10.573
75294W        W45894  10.583   8.950  11.875
75295W        W45895  43.480  32.087  11.134
75296W        W45896   0.180  40.976  13.967
75297W        W45897  39.821  38.164   1.289
75298W        W45898  10.894  20.280   3.090
75299W        W45899  19.718   2.525  13.221
75300W        W45900  41.818  19.573   3.668
75301W        W45901  18.215   9.019   0.154
75302W        W45902  43.566  19.270   2.460
75303W        W45903  17.683   0.287   2.421
75304W        W45904  33.628  36.782  13.160
75305W        W45905  30.606  31.662   5.136
75306W        W45906  16.056  23.134   3.218
75307W        W45907  20.056   5.311  12.270
75308W        W45908  34.555  18.041   3.009
75309W        W45909  19.656  19.733   4.058
75310W        W45910  40.850  19.602   2.099
75311W        W45911   8.913  18.777   5.009
75312W        W45912   6.587   4.787  11.506
75313W        W45913  32.041  20.048  14.328
75314W        W45914  20.365  38.066   0.356
75315W        W45915  38.379  14.837   4.750
75316W        W45916  36.131   0.482   3.762
75317W        W45917  13.776  13.423   3.513
75318W        W45918  16.013  29.896   0.047
75319W        W45919  12.839  37.565   1.918
75320W        W45920  44.701   5.222  13.814
75321W        W45921  42.166  23.469   2.254
75322W        W45922   6.975  28.174   1.369
75323W        W45923  36.490  33.154   0.356
75324W        W45924  25.542  13.366   0.819
75325W        W45925  41.845  23.218   4.528
75326W        W45926  17.062  34.801   0.602
75327W        W45927  10.258  12.361   2.705
75328W        W45928  19.288  44.701  10.696
75329W        W45929   9.631  21.966  11.633
75330W        W45930  12.555   1.479  12.586
75331W        W45931  13.631  10.243   2.748
75332W        W45932  21.653  12.080  13.292
75333W        W45933  11.158  44.605   3.714
75334W        W45934  11.125  30.524  12.818
75335W        W45935  25.945  17.376   2.288
75336W        W45936  24.496  20.498   3.150
75337W        W45937  29.076  10.737  11.202
75338W        W45938  11.323  36.861  11.934
75339W        W45939  38.601  34.655  11.142
75340W        W45940  41.992  23.137  10.611
75341W        W45941   0.343   7.909   2.324
75342W        W45942   6.279  34.402   1.271
75343W        W45943  44.369  22.677   4.678
75344W        W45944  19.219  31.912   0.525
75345W        W45945   5.175  30.395   1.597
75346W        W45946   3.600  26.624   2.002
75347W        W45947  41.948  20.998   3.201
75348W        W45948  20.131  31.814   4.998
75349W        W45949  19.126  41.446  13.392
75350W        W45950   5.161  40.338  12.330
75351W        W45951   9.339   4.527  12.117
75352W        W45952  30.316  32.858   4.131
75353W        W45953   8.758  30.104  12.991
75354W        W45954  11.154  34.875  11.515
75355W        W45955  35.935   9.162   4.285
75356W        W45956  21.314   7.305   0.356
75357W        W45957  40.310  33.461  11.168
75358W        W45958  37.031   8.030  12.062
75359W        W45959  22.100  26.998   3.840
75360W        W45960  10.440  18.575   3.623
75361W        W45961  38.265   4.965  12.622
75362W        W45962  41.309  17.783  11.633
75363W        W45963  29.969   4.195  14.446
75364W        W45964  27.601  22.059   1.496
75365W        W45965  10.686  32.487  13.306
75366W        W45966  11.974  40.739  14.378
75367W        W45967  20.544  16.113   1.221
75368W        W45968  44.909  14.661   3.272
75369W        W45969  11.863  44.807   2.453
75370W        W45970   5.529  20.359   4.092
75371W        W45971  36.121  10.585  13.918
75372W        W45972  17.634   1.964  11.072
75373W        W45973  39.057  23.961  10.762
75374W        W45974  31.466   9.540  11.654
75375W        W45975  23.779   9.333   2.814
75376W        W45976  10.872  42.412  13.554
75377W        W45977  18.344  44.462  14.905
75378W        W45978  39.942  42.262  12.051
75379W        W45979  21.424   4.729   0.460
75380W        W45980  10.844  39.403  12.123
75381W        W45981  25.549  37.357   3.288
75382W        W45982  40.495  12.520   3.575
75383W        W45983  35.401  10.685   0.313
75384W        W45984  19.551  32.700   0.314
75385W        W45985  16.190  19.171  12.824
75386W        W45986   0.799   1.830  13.096
75387W        W45987  16.402  18.659   4.747
75388W        W45988  37.517  27.023   2.653
75389W        W45989  33.300   9.192  12.477
75390W        W45990  34.967   7.997  13.497
75391W        W45991  35.033  41.824  11.123
75392W        W45992   3.655  33.132  12.416
75393W        W45993   4.729  41.315  10.682
75394W        W45994  32.378  21.501  10.734
75395W        W45995   3.230  34.738  12.062
75396W        W45996  30.776  25.523   0.987
75397W        W45997  14.214  11.652  13.872
75398W        W45998   1.649  10.342  12.128
75399W        W45999  30.330  25.238  11.170
75400W        W46000  44.030  44.651   3.844
75401W        W46001  36.585  28.030   5.117
75402W        W46002  30.926  10.949   4.607
75403W        W46003  43.930  43.794  14.195
75404W        W46004  23.263  32.951  14.951
75405W        W46005   8.212  34.374  10.371
75406W        W46006   4.635  44.308  13.101
75407W        W46007  32.605   8.134  14.361
75408W        W46008  36.545  10.670  11.645
75409W        W46009  14.410  14.771  11.623
75410W        W46010  35.558  13.604  10.743
75411W        W46011  15.384   9.443  11.983
75412W        W46012  43.495  13.801   4.135
75413W        W46013   8.861  40.926   0.574
75414W        W46014  33.084  29.207  13.439
75415W        W46015  27.682   6.514   2.783
75416W        W46016   2.366   7.158  13.840
75417W        W46017   6.900  31.669  12.629
75418W        W46018  20.542  29.919  11.436
75419W        W46019  24.755  38.325   2.696
75420W        W46020   9.940  29.761  13.363
75421W        W46021  39.875  12.244  14.779
75422W        W46022   9.310  16.626  10.742
75423W        W46023  33.657  42.698  11.771
75424W        W46024   9.774  11.942  13.058
75425W        W46025   2.186  22.348  11.713
75426W        W46026  16.872  11.387   3.267
75427W        W46027  17.904  11.520  13.928
75428W        W46028  18.617   5.840   1.977
75429W        W46029   6.188  43.552   0.742
75430W        W46030   8.126  26.711  10.606
75431W        W46031   2.237  16.178  12.180
75432W        W46032  26.327  10.350  12.649
75433W        W46033  10.338  32.873  13.415
75434W        W46034   1.978  42.536   2.251
75435W        W46035  42.820  44.962   2.201
75436W        W46036   3.864   6.309  14.523
75437W        W46037   5.164   7.304  13.007
75438W        W46038  35.945  23.903   0.955
75439W        W46039  42.547  18.268   0.397
75440W        W46040  12.096  13.206  13.927
75441W        W46041  33.784  11.353  14.866
75442W        W46042  42.348  40.753   3.653
75443W        W46043   9.887  10.328  11.213
75444W        W46044   5.732  21.516   4.496
75445W        W46045   1.074   8.277   0.035
75446W        W46046   0.709  21.815  13.813
75447W        W46047  18.721  42.583  13.850
75448W        W46048   4.544   7.358   1.079
75449W        W46049  21.580  22.294  13.454
75450W        W46050   1.798  42.444   2.735
75451W        W46051   7.774  17.262  11.479
75452W        W46052   8.271  44.867  11.250
75453W        W46053  13.963  16.869   0.488
75454W        W46054  39.547  13.193  14.560
75455W        W46055  41.052  22.144   0.757
75456W        W46056  44.683  20.075  11.894
75457W        W46057  31.445  26.372  10.959
75458W        W46058  11.449   2.114   2.857
75459W        W46059  31.611  31.829   1.375
75460W        W46060  30.487  38.094  13.615
75461W        W46061  24.018  27.928   0.271
75462W        W46062   8.361  41.981   1.700
75463W        W46063   5.799  42.866   0.454
75464W        W46064  28.771  18.137  11.135
75465W        W46065  15.652  26.547   4.122
75466W        W46066  28.301  23.192   0.360
75467W        W46067  19.622  17.611  12.577
75468W        W46068  13.820   7.256   2.304
75469W        W46069  20.398  20.709  13.387
75470W        W46070  14.485  18.647   4.329
75471W        W46071  43.042   6.324   4.657
75472W        W46072  42.889  15.744   1.385
75473W        W46073  43.025  42.482   1.828
75474W        W46074  31.424  42.637   1.516
75475W        W46075  40.174   1.745  13.496
75476W        W46076   6.697  37.862  11.148
75477W        W46077   3.687  18.812   3.731
75478W        W46078  16.362  36.616   4.522
75479W        W46079  34.494  42.032  12.833
75480W        W46080   5.921   1.251  13.000
75481W        W46081  26.791  38.731   3.779
75482W        W46082   0.987   2.952   0.435
75483W        W46083  29.479  23.392   1.757
75484W        W46084  38.863  42.696   4.972
75485W        W46085  39.910  25.985  14.277
75486W        W46086  20.592  12.145   3.434
75487W        W46087  24.356  17.140  14.066
75488W        W46088  18.012   2.213  12.904
75489W        W46089  21.727  32.460   2.379
75490W        W46090  26.693  19.972   3.705
75491W        W46091  29.652  19.572  14.385
75492W        W46092  23.918   3.536  14.373
75493W        W46093  35.555  21.689  11.463
75494W        W46094  32.497   3.259  13.703
75495W        W46095  12.119   3.023   2.188
75496W        W46096  42.693   9.361   3.687
75497W        W46097  36.085  41.199  13.991
75498W        W46098   2.051  43.101  12.322
75499W        W46099  36.402  42.928  13.340
75500W        W46100  13.194   4.554  10.697
75501W        W46101  36.822  26.589   3.682
75502W        W46102  25.391  27.184  12.090
75503W        W46103  42.705  28.175  11.109
75504W        W46104  38.877   0.547  14.099
75505W        W46105  22.055   8.431  11.967
75506W        W46106  42.953  18.231  10.246
75507W        W46107  34.102  13.286  11.700
75508W        W46108   8.442  36.820   2.662
75509W        W46109  27.613  10.757   0.895
75510W        W46110  28.479   6.139  11.888
75511W        W46111  41.792  19.794   0.071
75512W        W46112   2.314  20.198  12.121
75513W        W46113   3.724  34.214  10.145
75514W        W46114   0.521   4.266   3.653
75515W        W46115  36.582  16.660  10.666
75516W        W46116  24.469  36.362  12.003
75517W        W46117  13.304  39.365   2.006
75518W        W46118  10.124  16.638  11.146
75519W        W46119  26.038  20.701   0.223
75520W        W46120   5.435  20.001  11.173
75521W        W46121   2.402  18.615   1.960
75522W        W46122  32.523  11.880   1.710
75523W        W46123  36.444  22.707   4.253
75524W        W46124  25.762  19.983   0.419
75525W        W46125   3.164  13.064  13.368
75526W        W46126  18.174   7.515  13.440
75527W        W46127  42.572  12.609  14.342
75528W        W46128  31.652   7.179   2.873
75529W        W46129  11.897  43.738  12.384
75530W        W46130   7.218  10.752   2.322
75531W        W46131   7.718  40.318   2.310
75532W        W46132   2.876   6.797  11.405
75533W        W46133  38.692  12.596  10.515
75534W        W46134  26.265  19.058  12.246
75535W        W46135   2.999  36.790  14.747
75536W        W46136  30.114  15.591  12.274
75537W        W46137   1.641  11.868   2.311
75538W        W46138  15.546  35.908  11.699
75539W        W46139  21.481  28.162   2.194
75540W        W46140  37.614  15.589  11.868
75541W        W46141  12.243   6.455  13.010
75542W        W46142  25.252  43.080  11.581
75543W        W46143   5.617  36.565   0.243
75544W        W46144  15.593  26.737  14.905
75545W        W46145  14.147   3.753  12.974
75546W        W46146   4.960  28.312   3.564
75547W        W46147  14.738  40.783  11.988
75548W        W46148  36.360  29.698  13.007
75549W        W46149  13.791  25.343  14.450
75550W        W46150  17.836   5.795  13.612
75551W        W46151  32.211  32.064   0.367
75552W        W46152  24.131  35.448   2.605
75553W        W46153  44.760  21.463   1.411
75554W        W46154  20.693  14.094   0.331
75555W        W46155  44.990  12.058  11.190
75556W        W46156  11.953  19.807  11.130
75557W        W46157   4.823  39.235  14.366
75558W        W46158  44.530  42.898  14.923
75559W        W46159  39.494  24.601   3.618
75560W        W46160   2.768  27.534  10.423
75561W        W46161  21.539  37.985   3.714
75562W        W46162  40.628  20.099   4.568
75563W        W46163  20.822  21.725   3.212
75564W        W46164  44.891  35.499  13.820
75565W        W46165  25.954   4.778  13.956
75566W        W46166  32.186   2.383   3.419
75567W        W46167  42.669   7.722   0.930
75568W        W46168  24.760  30.248  13.437
75569W        W46169  34.572  28.680  14.967
75570W        W46170  34.439  22.540   3.504
75571W        W46171  34.607  28.216   4.540
75572W        W46172  20.285  20.998  14.085
75573W        W46173  43.857  41.932  14.508
75574W        W46174  26.469  12.549  11.098
75575W        W46175   9.496   9.610  14.960
75576W        W46176  33.006  32.404  14.030
75577W        W46177  17.340  42.408  14.009
75578W        W46178  42.577  41.329   0.794
75579W        W46179  38.731  43.412   3.749
75580W        W46180  42.859  29.869   3.872
75581W        W46181  38.441  24.963   2.799
75582W        W46182  11.682   3.508   3.837
75583W        W46183  10.202  40.155  12.125
75584W        W46184  10.873  10.785  12.486
75585W        W46185   1.997   3.218  11.569
75586W        W46186   9.423  29.557  10.758
75587W        W46187   8.854  27.340  14.437
75588W        W46188   5.923  36.030   3.376
75589W        W46189  22.694  40.724  12.134
75590W        W46190  37.606  25.667   4.232
75591W        W46191  35.420   0.174  10.801
75592W        W46192   0.721  31.996   4.094
75593W        W46193  33.948  24.145  10.731
75594W        W46194  40.921  38.878   4.201
75595W        W46195  22.173   1.812   0.744
75596W        W46196  42.242   2.218  13.491
75597W        W46197   4.008   5.232  13.649
75598W        W46198   1.248  34.047   3.156
75599W        W46199  16.128  38.030   4.455
75600W        W46200  10.325  21.367  10.758
75601W        W46201   3.705   1.299   1.253
75602W        W46202  15.947   7.854  14.914
75603W        W46203  15.993  24.449   4.046
75604W        W46204  20.839  42.768  14.879
75605W        W46205  38.812  34.281   4.731
75606W        W46206  15.601  44.089   4.058
75607W        W46207  21.570   0.121   3.875
75608W        W46208  29.515  19.520   4.458
75609W        W46209  41.738  39.933   3.633
75610W        W46210  17.106  29.113   1.957
75611W        W46211  13.031  27.642  13.241
75612W        W46212  37.411  36.375  13.830
75613W        W46213   3.560  31.646  14.402
75614W        W46214  13.116   0.952   2.431
75615W        W46215  13.152   9.976   3.836
75616W        W46216  17.310  15.424  12.044
75617W        W46217  34.915  44.390  11.478
75618W        W46218   9.262  40.500   3.837
75619W        W46219  10.099  37.410  11.353
75620W        W46220  36.479  31.807  14.944
75621W        W46221   0.322  31.079   2.601
75622W        W46222   3.294  42.677   4.197
75623W        W46223  35.018  30.581  14.986
75624W        W46224   3.937  18.334  14.385
75625W        W46225  38.966  29.402  14.026
75626W        W46226  10.318   0.819  12.831
75627W        W46227   4.869  11.411   4.207
75628W        W46228  37.587   0.178  11.037
75629W        W46229  31.954   8.314   0.966
75630W        W46230  41.280  26.896   2.880
75631W        W46231   6.282  21.940  11.294
75632W        W46232  35.751  17.135   1.264
75633W        W46233   3.318  32.560   4.154
75634W        W46234  37.317   9.787   1.599
75635W        W46235  26.229   9.108  13.986
75636W        W46236   2.288  17.545   2.819
75637W        W46237  15.828  36.992  10.814
75638W        W46238   5.390  37.951  14.283
75639W        W46239  27.138  44.840   4.471
75640W        W46240  38.052  25.996   3.294
75641W        W46241  38.407  18.679  12.200
75642W        W46242  23.407   6.894   1.281
75643W        W46243  35.915  33.517   2.145
75644W        W46244  28.110   3.591   0.422
75645W        W46245  15.054  33.324  10.657
75646W        W46246  29.060  10.856   4.157
75647W        W46247  25.349  23.409   2.371
75648W        W46248  40.871  11.677  12.800
75649W        W46249  26.523  37.157   4.827
75650W        W46250  29.165  10.263  12.015
75651W        W46251   4.409  26.909  10.424
75652W        W46252  19.964   3.205   0.966
75653W        W46253   8.422  12.195   4.470
75654W        W46254  21.894  11.563  12.598
75655W        W46255  27.211  35.084   1.085
75656W        W46256  12.914  15.020   0.383
75657W        W46257   5.893  32.168   2.300
75658W        W46258  27.909  28.081  12.510
75659W        W46259  16.584  35.561  11.636
75660W        W46260   2.418  12.285   2.594
75661W        W46261   2.093  19.180   0.797
75662W        W46262  40.919  27.968   4.965
75663W        W46263  39.784  34.041  10.803
75664W        W46264   6.945  19.576  13.959
75665W        W46265  38.945  21.221   3.566
75666W        W46266  25.272  24.412   4.156
75667W        W46267  16.825   6.188   4.565
75668W        W46268  25.567   0.889   1.715
75669W        W46269  28.900  14.143   2.098
75670W        W46270  17.056  14.822   3.176
75671W        W46271  11.056  39.458  13.954
75672W        W46272  15.352  35.863  13.443
75673W        W46273  42.726  33.932   3.553
75674W        W46274  28.599  29.666  14.308
75675W        W46275  16.629   8.704  11.323
75676W        W46276  11.573  20.762   1.436
75677W        W46277   6.396  33.810  14.011
75678W        W46278  13.718  43.268  13.930
75679W        W46279  29.914  38.895   1.186
75680W        W46280  34.561  15.728   0.472
75681W        W46281  22.525  12.267   0.925
75682W        W46282   8.194  35.400   0.748
75683W        W46283  11.262  41.869  14.517
75684W        W46284  22.585  29.963   3.294
75685W        W46285   3.681  24.737   2.258
75686W        W46286  21.192  30.888   4.103
75687W        W46287  43.012  34.843  12.043
75688W        W46288  24.416  38.973  12.440
75689W        W46289  42.503  24.247   3.131
75690W        W46290   7.338  41.457  12.121
75691W        W46291  16.775  12.352  14.758
75692W        W46292  12.934  35.938  11.408
75693W        W46293  28.314   5.355   3.169
75694W        W46294  26.156  21.747   0.341
75695W        W46295  34.940  41.269   0.797
75696W        W46296  27.042  24.523   4.573
75697W        W46297   6.361  32.589   4.357
75698W        W46298  38.656  21.277  14.432
75699W        W46299  24.354  21.090   0.842
75700W        W46300  13.776  18.503  11.258
75701W        W46301  34.515  39.162   4.645
75702W        W46302  22.269   8.402  11.081
75703W        W46303  44.057  15.366  14.356
75704W        W46304  35.903  41.640  11.613
75705W        W46305  39.807  31.644  11.647
75706W        W46306  32.183  22.150  11.139
75707W        W46307  23.704   6.365   0.351
75708W        W46308  32.900   1.954  11.565
75709W        W46309  37.376  41.616  12.854
75710W        W46310   6.151  27.315  11.050
75711W        W46311  10.884  21.343  11.554
75712W        W46312  20.643   8.728  14.745
75713W        W46313  32.488  25.558  11.601
75714W        W46314  17.820  25.139   0.513
75715W        W46315  23.295   2.385   4.964
75716W        W46316  15.089  27.712   1.436
75717W        W46317   3.829   5.749  12.363
75718W        W46318  40.817  15.287  11.709
75719W        W46319  16.387  20.552  13.526
75720W        W46320  13.597   2.321  13.478
75721W        W46321  39.119  35.563   2.171
75722W        W46322   2.428  36.196  12.011
75723W        W46323  11.851  35.779  14.031
75724W        W46324  38.622  12.353   1.497
75725W        W46325  32.219  38.802  14.956
75726W        W46326  35.327  36.855   4.220
75727W        W46327  21.643  20.010   2.123
75728W        W46328  14.566  14.584  12.930
75729W        W46329   2.048   5.119   2.672
75730W        W46330  25.554   4.687  10.741
75731W        W46331  22.355  34.140  13.845
75732W        W46332   0.336  12.641   1.764
75733W        W46333  13.125  41.930  12.303
75734W        W46334   3.607  21.220   4.657
75735W        W46335  42.278  26.447   0.829
75736W        W46336   8.866  18.299  13.024
75737W        W46337  19.801  42.619  11.184
75738W        W46338  39.553  44.566  11.982
75739W        W46339  17.206  42.169   2.723
75740W        W46340  41.600   6.755   2.772
75741W        W46341  22.459  16.845   2.170
75742W        W46342  18.559  22.377   3.358
75743W        W46343  24.631  33.489   3.852
75744W        W46344  16.240  21.229   1.635
75745W        W46345  14.916  21.433  12.924
75746W        W46346   0.524  41.499  13.527
75747W        W46347  16.084  33.367   2.734
75748W        W46348   8.377  35.650   3.642
75749W        W46349   2.988  41.856   2.915
75750W        W46350  27.680  42.867   1.462
75751W        W46351  37.012  12.296   4.610
75752W        W46352  31.848  14.308  12.452
75753W        W46353   3.651  42.943  11.118
75754W        W46354  28.203  14.870  14.773
75755W        W46355  22.133  11.100  13.872
75756W        W46356  22.222   9.221  10.339
75757W        W46357  39.343  22.012  10.616
75758W        W46358  13.195  28.092  11.623
75759W        W46359  24.901  35.511   4.222
75760W        W46360  38.346   5.073   2.306
75761W        W46361  11.427  44.301  12.592
75762W        W46362  43.338  16.987  13.438
75763W        W46363  22.082  40.302   0.365
75764W        W46364  29.261  29.890   0.685
75765W        W46365  38.938  23.553  12.524
75766W        W46366  18.321  13.756   0.976
75767W        W46367   0.944  27.259   3.387
75768W        W46368  16.074  22.394   1.844
75769W        W46369  12.766  38.518  14.182
75770W        W46370  26.557  31.874   4.958
75771W        W46371  18.118  25.443  12.362
75772W        W46372   2.836  42.743   3.481
75773W        W46373  33.492  14.606  11.979
75774W        W46374  29.525  16.832  12.601
75775W        W46375  21.749   0.209  14.799
75776W        W46376   8.767   6.221  14.479
75777W        W46377  31.470  32.370  13.472
75778W        W46378  37.593  31.986   4.032
75779W        W46379  37.337   2.324  11.360
75780W        W46380   3.282   7.663   2.303
75781W        W46381  14.094  26.575   2.299
75782W        W46382   0.004  31.985  11.135
75783W        W46383   6.960  35.365  12.883
75784W        W46384  42.418   7.749   3.065
75785W        W46385   7.808  15.694  13.601
75786W        W46386  36.566  35.902   0.803
75787W        W46387  18.110  17.572  14.678
75788W        W46388  35.466  36.209  14.792
75789W        W46389  25.047  37.989   4.659
75790W        W46390  36.129  14.615   2.754
75791W        W46391  18.254  16.750  12.764
75792W        W46392  43.972  15.233  12.555
75793W        W46393  35.665  28.780   4.120
75794W        W46394  30.593   2.718   5.031
75795W        W46395   8.186  39.291  14.742
75796W        W46396  21.778  15.538  12.004
75797W        W46397   1.796  22.031   4.473
75798W        W46398  17.026  38.034  11.641
75799W        W46399  31.576  34.161  13.887
75800W        W46400  34.882  22.687   2.626
75801W        W46401  11.761  32.597   4.712
75802W        W46402   8.969  44.506  12.533
75803W        W46403  35.892  34.569   2.282
75804W        W46404  10.122  21.187  12.716
75805W        W46405  11.195  32.555  13.435
75806W        W46406  28.678  15.655  13.016
75807W        W46407  43.200  21.583  14.412
75808W        W46408  35.933   8.884  13.423
75809W        W46409  12.952  25.163  11.074
75810W        W46410  10.359  22.755   2.777
75811W        W46411  29.058   7.475  11.264
75812W        W46412  34.847  15.237  14.651
75813W        W46413   4.106  27.925  12.436
75814W        W46414  39.043   7.175   2.412
75815W        W46415  29.757   4.914  11.267
75816W        W46416  29.592  39.344  11.785
75817W        W46417  26.253  25.112  13.456
75818W        W46418   0.983  42.486  13.937
75819W        W46419  15.944  29.712   3.220
75820W        W46420   9.204  14.766   4.110
75821W        W46421  23.823  35.176   4.312
75822W        W46422  19.054  40.475  10.653
75823W        W46423   5.165  39.579  12.003
75824W        W46424  31.678  11.609  11.692
75825W        W46425   2.445  23.786  13.889
75826W        W46426   1.499  13.151   2.612
75827W        W46427  15.438  37.464   3.324
75828W        W46428  36.948   6.234  10.524
75829W        W46429  29.030  31.138  11.674
75830W        W46430   8.893   0.289  12.148
75831W        W46431  40.223   3.363   0.797
75832W        W46432  34.470  41.564   4.932
75833W        W46433   5.321  24.532   2.254
75834W        W46434  27.924  40.068  13.382
75835W        W46435  39.592  43.065   1.254
75836W        W46436  15.117   6.928  14.803
75837W        W46437  19.449   4.724  11.747
75838W        W46438   1.202  24.281   1.640
75839W        W46439  37.607   5.902  10.645
75840W        W46440  36.810  33.606   3.155
75841W        W46441  40.669  25.438   0.930
75842W        W46442  28.683  35.907  13.518
75843W        W46443  39.603  28.360   2.277
75844W        W46444  17.334  16.908  12.198
75845W        W46445  24.143  21.018   0.363
75846W        W46446  25.644  24.920   3.142
75847W        W46447  31.345  10.978   0.543
75848W        W46448  37.208  18.260   3.078
75849W        W46449  15.070  15.318  13.489
75850W        W46450  14.828  25.174  13.801
75851W        W46451   0.745   7.383  13.112
75852W        W46452  31.675  23.045  14.551
75853W        W46453  42.566   5.382  14.801
75854W        W46454  18.706  20.808  13.912
75855W        W46455   6.272  42.216   3.989
75856W        W46456  29.007  25.155  13.132
75857W        W46457  33.384  32.044  14.770
75858W        W46458  17.641   0.724   2.158
75859W        W46459  41.241  36.848   2.832
75860W        W46460  10.614  16.610  13.907
75861W        W46461   2.946  44.853  13.434
75862W        W46462  37.037  24.746   3.598
75863W        W46463  24.444  39.169  12.932
75864W        W46464  22.076  19.859   1.854
75865W        W46465  36.917   3.522   0.232
75866W        W46466  13.706  44.784  12.118
75867W        W46467   5.383   0.857  10.435
75868W        W46468  23.081   2.430  14.321
75869W        W46469  14.617  15.653   2.742
75870W        W46470   1.620   6.282   4.603
75871W        W46471  30.756  27.643   1.317
75872W        W46472  32.373  44.949   0.695
75873W        W46473  24.943   4.187   1.859
75874W        W46474   2.384  32.002   0.702
75875W        W46475   2.276  28.333   0.225
75876W        W46476  29.383   5.470  12.536
75877W        W46477   1.953  17.622  11.995
75878W        W46478   1.726  18.578   0.194
75879W        W46479  16.206  22.438   2.700
75880W        W46480  25.639  35.803  11.133
75881W        W46481  13.882  23.628   3.794
75882W        W46482  39.802  44.956  12.769
75883W        W46483  12.136  40.973   2.101
75884W        W46484  33.869  21.040   1.368
75885W        W46485   9.256  40.317   3.356
75886W        W46486  31.343   8.928  13.914
75887W        W46487  30.415   4.214  13.456
75888W        W46488   9.011  17.044  10.672
75889W        W46489   8.740   3.827   1.004
75890W        W46490  29.038  28.650  10.493
75891W        W46491  43.976  15.211  13.452
75892W        W46492  19.305  14.035  10.842
75893W        W46493  24.183  27.521   2.281
75894W        W46494  12.594  13.384  10.237
75895W        W46495  17.415  12.788   2.647
75896W        W46496  26.149  22.440   4.336
75897W        W46497  25.692   7.809   0.351
75898W        W46498  44.621  30.241  12.036
75899W        W46499  38.928  30.167   0.705
75900W        W46500  41.158  22.155   0.239
75901W        W46501  33.700  42.990  12.777
75902W        W46502   0.461  30.392   1.781
75903W        W46503  19.595  41.825   3.617
75904W        W46504  10.776  17.119  11.534
75905W        W46505   2.792   4.849   2.284
75906W        W46506  22.482  16.846   4.554
75907W        W46507   0.948  17.994   0.431
75908W        W46508  40.050   6.180   0.419
75909W        W46509  13.924  27.020   4.638
75910W        W46510  11.937   5.429   2.341
75911W        W46511  25.095  17.877   1.332
75912W        W46512  28.649  23.497  12.531
75913W        W46513  34.847   3.019   0.786
75914W        W46514  16.026  23.196  14.691
75915W        W46515  34.981  24.352   1.055
75916W        W46516  16.351  25.641   1.420
75917W        W46517   5.159   0.591   2.232
75918W        W46518   1.742  24.983  13.815
75919W        W46519  37.850   1.940   0.236
75920W        W46520  20.579  13.438   1.145
75921W        W46521  19.391  20.685  12.500
75922W        W46522   4.690  19.729  13.052
75923W        W46523  12.833   5.060  13.547
75924W        W46524  10.804  24.904   0.579
75925W        W46525  26.094  27.522   2.784
75926W        W46526  40.227  15.562   0.698
75927W        W46527  25.187  15.615  10.637
75928W        W46528  42.955  43.847   3.206
75929W        W46529  17.012  10.425   1.662
75930W        W46530   1.533  28.626  11.035
75931W        W46531  39.324  43.241  12.521
75932W        W46532  12.837  38.699   3.530
75933W        W46533  33.315   6.706  12.530
75934W        W46534  40.894  25.656  11.140
75935W        W46535  28.242  36.886   2.183
75936W        W46536   2.136  21.173  11.018
75937W        W46537  10.729  19.184   1.952
75938W        W46538  17.840  26.589   1.854
75939W        W46539   9.398  14.647  14.481
75940W        W46540  10.280  33.042  13.918
75941W        W46541  18.667   3.525  12.529
75942W        W46542  30.614   4.782   3.507
75943W        W46543   5.077  40.560   0.679
75944W        W46544  21.224  44.121   1.803
75945W        W46545   4.235  27.599  10.577
75946W        W46546  30.894  35.763   2.669
75947W        W46547  23.349  17.605   4.756
75948W        W46548  36.829  36.276   3.279
75949W        W46549  39.885  32.001   4.484
75950W        W46550  37.558  39.452  12.296
75951W        W46551   3.693  31.356   1.727
75952W        W46552   9.730  40.906   0.444
75953W        W46553  16.207  24.913   3.999
75954W        W46554  19.298   9.905   1.039
75955W        W46555  20.691  14.297  12.946
75956W        W46556  31.843  22.180   2.642
75957W        W46557  11.626  21.140   4.581
75958W        W46558  15.696  32.961  11.125
75959W        W46559  36.360   9.376   1.794
75960W        W46560  44.096  35.456   1.873
75961W        W46561   1.478  33.868  14.860
75962W        W46562  13.313  12.402  11.524
75963W        W46563  24.109   1.250   3.269
75964W        W46564   7.829  38.129  11.143
75965W        W46565  13.591  36.397   3.362
75966W        W46566  17.354   5.780   0.335
75967W        W46567  16.546  31.055  10.675
75968W        W46568  41.309  34.689  10.798
75969W        W46569  27.979  24.897  10.300
75970W        W46570  14.328  44.706   3.299
75971W        W46571  42.310  25.848  11.911
75972W        W46572  37.952  14.508  13.035
75973W        W46573  35.346  38.384   3.635
75974W        W46574  23.757  24.222  14.591
75975W        W46575  26.969  18.282  13.482
75976W        W46576  23.718  39.115  11.993
75977W        W46577  19.542  21.258  10.978
75978W        W46578  30.096  34.374   4.321
75979W        W46579  16.952  15.290  12.377
75980W        W46580  11.796  27.031   0.869
75981W        W46581  26.066  32.023   2.918
75982W        W46582   7.227  22.909   0.491
75983W        W46583  38.141  41.722  13.853
75984W        W46584  37.371  30.958  10.895
75985W        W46585  24.179  22.459   4.197
75986W        W46586  13.676  30.323   2.925
75987W        W46587  22.243   1.978  12.878
75988W        W46588  10.760  23.175  13.868
75989W        W46589   3.260  40.836  14.451
75990W        W46590  16.167  36.373   3.115
75991W        W46591  17.234  41.534  12.923
75992W        W46592  15.299   8.932  11.088
75993W        W46593  20.164   4.377   1.679
75994W        W46594  21.119  18.600   2.380
75995W        W46595  19.949   4.384   2.704
75996W        W46596  19.861  22.552  11.130
75997W        W46597  16.730   4.164  12.952
75998W        W46598  41.329   3.758  10.892
75999W        W46599  43.711  34.014  13.947
76000W        W46600  42.289   3.337   2.382
76001W        W46601  37.041  43.207   3.214
76002W        W46602  40.547  24.726   3.895
76003W        W46603  17.255   7.909  13.352
76004W        W46604  34.507   5.479  11.287
76005W        W46605  37.882   1.555   3.480
76006W        W46606  31.793  21.592  12.382
76007W        W46607  39.620  31.631   1.451
76008W        W46608  35.129  15.895  10.380
76009W        W46609  12.105   6.111  11.162
76010W        W46610  17.566  26.642   1.369
76011W        W46611  24.671  15.387  11.473
76012W        W46612  36.477  42.704   0.227
76013W        W46613  27.799  43.788   1.094
76014W        W46614  44.109   8.261  10.723
76015W        W46615   2.826   8.712  11.157
76016W        W46616  11.614   5.921  11.282
76017W        W46617  14.190  30.662   0.354
76018W        W46618  35.891  10.984   1.927
76019W        W46619  33.574   7.570  14.938
76020W        W46620  14.675   6.644  11.516
76021W        W46621  23.225  26.238   2.798
76022W        W46622  43.444  25.697  14.544
76023W        W46623  17.805  43.471  12.331
76024W        W46624  22.107  11.149  14.989
76025W        W46625  11.448  10.174  13.818
76026W        W46626   5.500  34.913   5.032
76027W        W46627  38.774  28.332   3.863
76028W        W46628  25.092  23.618  11.045
76029W        W46629  18.040   0.898   2.519
76030W        W46630  37.877  27.041   4.824
76031W        W46631  31.086  42.410   4.104
76032W        W46632  12.284  44.368  14.507
76033W        W46633   3.069  10.203  13.527
76034W        W46634  18.594  44.786   4.580
76035W        W46635  27.187  11.406  12.146
76036W        W46636  24.471   1.612   1.886
76037W        W46637   4.887  17.806  14.417
76038W        W46638  34.647  33.832   2.694
76039W        W46639   8.200  10.181  14.594
76040W        W46640  19.595  22.156   0.274
76041W        W46641  35.273  26.428   3.674
76042W        W46642  25.785  28.924  14.489
76043W        W46643   1.289  17.013   0.343
76044W        W46644  44.518  33.483  14.309
76045W        W46645  31.453  43.166   3.242
76046W        W46646  37.368  37.909   4.576
76047W        W46647  23.149   5.011  11.999
76048W        W46648  27.020  14.359   3.770
76049W        W46649  24.424  30.551  14.092
76050W        W46650  37.003  13.379  12.785
76051W        W46651  16.575  19.997   3.941
76052W        W46652   4.297  41.342  11.851
76053W        W46653  37.487  24.768   3.308
76054W        W46654  34.386  16.925  11.543
76055W        W46655  25.158  17.295  12.508
76056W        W46656  31.824  43.172  10.659
76057W        W46657  27.596   7.462  11.637
76058W        W46658   2.303  42.300  14.234
76059W        W46659  32.239  24.125   0.784
76060W        W46660  12.768  22.057  14.612
76061W        W46661  16.399  27.143  12.146
76062W        W46662  27.522  27.345   3.702
76063W        W46663  32.352  29.716   1.418
76064W        W46664  29.058  12.214   3.558
76065W        W46665   8.629  19.319  11.240
76066W        W46666   8.847  27.595   1.185
76067W        W46667  11.349  37.449  13.116
76068W        W46668  19.023  21.168   4.821
76069W        W46669  26.120  28.974  11.609
76070W        W46670   9.367  28.506   4.442
76071W        W46671   2.064  35.269   0.482
76072W        W46672  21.023  28.021  12.567
76073W        W46673  40.402  11.806  14.056
76074W        W46674  23.037   8.627   0.062
76075W        W46675   9.527   6.662  14.436
76076W        W46676   1.875   7.376   2.358
76077W        W46677   4.356  11.506   4.028
76078W        W46678  12.187  33.602  13.056
76079W        W46679  16.591  18.735  11.009
76080W        W46680  34.002  28.138  13.411
76081W        W46681  31.051  11.030   2.782
76082W        W46682  34.614  34.517  14.064
76083W        W46683  40.011  10.326  10.481
76084W        W46684  27.268   4.589   3.679
76085W        W46685  29.655  42.435   0.465
76086W        W46686  18.523  17.207  12.054
76087W        W46687   8.418  41.579   0.411
76088W        W46688  41.987  22.632  12.164
76089W        W46689  43.469  15.698   4.115
76090W        W46690   3.753  34.627  12.064
76091W        W46691   1.767  27.213  10.745
76092W        W46692  40.341  38.453  14.837
76093W        W46693   0.392  39.404   3.427
76094W        W46694   3.421  24.990  12.665
76095W        W46695  37.026  37.932  11.646
76096W        W46696  24.107  12.119   4.449
76097W        W46697  44.730  33.123  13.874
76098W        W46698  42.882   4.216  14.961
76099W        W46699   1.698  40.234  10.641
76100W        W46700  32.985  37.007   2.163
76101W        W46701  36.907  29.600  12.549
76102W        W46702  37.811   8.910  10.510
76103W        W46703  42.529  25.440  13.831
76104W        W46704  10.034  29.620  14.207
76105W        W46705   4.843  38.326  11.280
76106W        W46706  42.468  18.127   4.389
76107W        W46707  10.150   0.340  14.234
76108W        W46708  26.580  29.820  14.854
76109W        W46709  29.084   8.113   0.514
76110W        W46710   4.483   2.131   4.187
76111W        W46711  11.457   2.434  12.567
76112W        W46712  38.411  18.979  11.142
76113W        W46713  35.329  16.725   4.103
76114W        W46714  41.732   3.122  12.024
76115W        W46715   4.599  44.730   3.664
76116W        W46716  11.881  19.276  14.916
76117W        W46717  20.257  10.331  14.503
76118W        W46718  18.393  38.507  11.300
76119W        W46719  25.298  23.636   3.694
76120W        W46720  26.037  31.352  14.860
76121W        W46721  36.594   7.781   3.374
76122W        W46722   3.821  31.824   0.367
76123W        W46723   7.781  17.085  12.674
76124W        W46724  35.323  29.651   5.189
76125W        W46725   1.724  28.706   2.920
76126W        W46726  10.106  12.836   4.250
76127W        W46727  14.891  36.101   2.196
76128W        W46728  15.306   8.574   0.967
76129W        W46729  22.631  44.144   2.385
76130W        W46730  42.093  14.227  12.527
76131W        W46731  31.334   8.682   2.745
76132W        W46732  25.378  28.101  11.426
76133W        W46733   9.759   5.902  12.983
76134W        W46734  44.272   4.360   2.991
76135W        W46735  44.958  15.255   3.650
76136W        W46736   4.989  18.107   2.597
76137W        W46737   7.180  43.808  11.630
76138W        W46738   5.166  39.450  13.053
76139W        W46739  42.573  32.459  13.048
76140W        W46740  13.289  20.928   2.690
76141W        W46741  43.191  39.103   2.813
76142W        W46742  13.406   1.191   5.062
76143W        W46743  12.310  29.234  10.666
76144W        W46744  19.782  43.574  13.969
76145W        W46745  19.343  38.647  11.336
76146W        W46746   1.160  14.233  13.969
76147W        W46747   1.891   3.783   2.475
76148W        W46748  35.391  42.736  13.480
76149W        W46749  26.646  10.474  14.793
76150W        W46750  32.327  21.188  11.692
76151W        W46751  26.425  22.042   0.673
76152W        W46752   7.318   0.799  13.773
76153W        W46753   6.797   8.602   0.357
76154W        W46754  43.110  16.737   2.777
76155W        W46755  29.306  39.411   1.783
76156W        W46756  17.849   8.002  12.570
76157W        W46757  17.039  12.695   0.266
76158W        W46758   4.057  13.554  11.116
76159W        W46759  15.341  43.956   3.622
76160W        W46760  27.454  29.524  12.827
76161W        W46761  28.516  36.044  14.472
76162W        W46762  29.036   0.397   1.714
76163W        W46763   0.737  14.110  12.938
76164W        W46764  39.069   2.451  13.902
76165W        W46765  39.865   3.268   4.733
76166W        W46766  36.996  15.198  12.407
76167W        W46767  42.054   5.165   1.369
76168W        W46768   4.519  42.363   4.045
76169W        W46769  38.333  18.758  11.645
76170W        W46770  22.175  20.739  14.931
76171W        W46771  13.603  16.935  12.467
76172W        W46772  35.960  18.918  14.839
76173W        W46773   9.343  18.548   2.864
76174W        W46774  39.299  13.761   3.713
76175W        W46775  34.846   2.156   0.923
76176W        W46776  14.712  39.999   5.469
76177W        W46777  11.488  11.194   0.747
76178W        W46778   0.883   8.145   3.495
76179W        W46779  31.605  26.279   1.229
76180W        W46780  15.543  27.588   1.676
76181W        W46781  14.722  18.348  10.420
76182W        W46782  33.134   9.403  12.017
76183W        W46783  29.751   2.424   2.889
76184W        W46784  18.635  22.643  14.452
76185W        W46785  12.727   0.431  14.243
76186W        W46786  28.322  36.552  11.469
76187W        W46787  20.033  42.919  10.849
76188W        W46788  43.085  40.741  10.499
76189W        W46789   0.876  10.206   4.154
76190W        W46790  31.591  19.133  11.244
76191W        W46791  27.493  44.293   1.830
76192W        W46792  36.926  15.100  10.887
76193W        W46793   7.187  25.334  12.000
76194W        W46794  11.214  20.667   1.798
76195W        W46795  37.425   0.632   0.088
76196W        W46796  43.929  39.967  14.756
76197W        W46797  40.008  15.067  11.504
76198W        W46798   6.183  27.027   0.538
76199W        W46799  15.275  22.998   4.524
76200W        W46800  14.611   7.310   1.843
76201W        W46801  28.483  17.755   0.118
76202W        W46802  39.543  25.191  14.873
76203W        W46803  33.478   4.729  12.493
76204W        W46804  40.707  24.553   3.288
76205W        W46805  17.695   5.070  14.038
76206W        W46806   8.965  25.251  14.933
76207W        W46807   2.862  18.163   0.163
76208W        W46808  25.568  34.592  14.957
76209W        W46809  21.174   9.629   2.686
76210W        W46810  33.659  35.953   2.690
76211W        W46811  22.300  17.063   2.769
76212W        W46812  17.215  31.458   1.002
76213W        W46813  41.266   6.748  10.068
76214W        W46814  28.763   7.936   2.077
76215W        W46815  39.719  43.259   3.801
76216W        W46816  19.220   4.023  11.280
76217W        W46817  21.264  23.278   3.623
76218W        W46818  35.333  18.294  12.518
76219W        W46819   6.427  20.837  11.611
76220W        W46820  19.268  44.203   2.236
76221W        W46821  33.443  12.398  12.541
76222W        W46822   4.486  27.045   3.802
76223W        W46823   4.228  14.735  14.535
76224W        W46824   2.904  33.051  12.849
76225W        W46825  32.571   7.603  14.198
76226W        W46826  44.873  44.590  11.818
76227W        W46827  31.338  43.653  10.200
76228W        W46828  32.400   6.274  13.911
76229W        W46829  40.826  10.783   2.228
76230W        W46830   8.839   8.096   3.209
76231W        W46831   9.121   8.488   3.532
76232W        W46832  15.686  18.543  12.723
76233W        W46833   4.509  31.082  13.508
76234W        W46834  27.450  39.926   1.388
76235W        W46835  24.523  38.832   3.745
76236W        W46836  18.686  25.009   0.753
76237W        W46837  10.639   2.138   2.187
76238W        W46838  12.609  25.668  14.342
76239W        W46839  41.057  30.176   0.282
76240W        W46840  16.859   1.842  14.372
76241W        W46841  25.456  30.499  10.729
76242W        W46842   4.908   2.280   3.361
76243W        W46843  35.095  12.113  13.080
76244W        W46844  15.909  37.321   1.846
76245W        W46845  24.034   5.713   4.336
76246W        W46846  38.439   2.767  12.799
76247W        W46847  32.621  25.063  14.716
76248W        W46848  21.333  42.849  14.823
76249W        W46849  34.423   6.710   0.503
76250W        W46850  34.646   5.180  14.395
76251W        W46851   1.303  17.255   4.324
76252W        W46852   7.258  27.672  12.620
76253W        W46853  21.235  19.289   1.105
76254W        W46854  34.907   4.724  12.400
76255W        W46855  32.456   0.357  13.265
76256W        W46856  29.385  25.431   4.643
76257W        W46857  34.693  28.286  14.204
76258W        W46858  38.091  36.071  14.962
76259W        W46859  39.400  21.691  13.004
76260W        W46860  34.686  25.741   0.692
76261W        W46861  14.075  28.475  12.437
76262W        W46862   4.808  12.349  14.891
76263W        W46863  35.094  33.024  14.075
76264W        W46864   4.257  39.040   3.600
76265W        W46865   0.872  35.642   2.791
76266W        W46866  44.162  27.552   0.978
76267W        W46867  34.335   0.387  11.609
76268W        W46868  14.015  23.697   2.786
76269W        W46869   9.798  43.972  11.677
76270W        W46870  26.047  26.694   2.261
76271W        W46871  12.112  15.654  12.645
76272W        W46872   2.573  39.920   3.716
76273W        W46873  14.722  17.481   1.863
76274W        W46874  11.137  21.724  13.423
76275W        W46875  10.281  29.596   2.725
76276W        W46876  33.798  37.036  10.941
76277W        W46877   5.777  30.644  13.907
76278W        W46878  44.333  32.030   1.431
76279W        W46879  44.786  31.100  14.696
76280W        W46880  17.561  11.703  14.301
76281W        W46881   7.155  35.984   0.502
76282W        W46882  27.226  35.857   4.905
76283W        W46883  31.825  36.403  11.599
76284W        W46884  22.917  36.610  13.700
76285W        W46885  40.436  30.715   2.718
76286W        W46886  24.465  28.648  12.304
76287W        W46887  29.938  12.706   0.258
76288W        W46888  27.049  38.018  13.643
76289W        W46889  23.854  34.942   0.952
76290W        W46890  42.283   4.471  13.823
76291W        W46891   5.068  29.700  11.071
76292W        W46892  18.243  33.636   3.516
76293W        W46893  10.361   7.830   4.547
76294W        W46894  18.243  35.974  14.226
76295W        W46895  38.331  16.611   0.405
76296W        W46896  37.710  22.193   4.272
76297W        W46897   7.333   1.290  13.894
76298W        W46898  30.500  41.460   1.655
76299W        W46899   9.747   9.249  10.779
76300W        W46900  24.445  15.688  14.814
76301W        W46901  14.842  11.784  10.432
76302W        W46902  28.194  41.655  13.236
76303W        W46903  37.584  32.358  14.427
76304W        W46904  26.664  20.151  13.891
76305W        W46905  39.551  26.995  14.884
76306W        W46906  31.868  28.240   3.964
76307W        W46907  13.327  12.293   4.073
76308W        W46908  20.718   4.857  13.778
76309W        W46909   7.396  13.993  13.886
76310W        W46910  17.568  42.899   3.097
76311W        W46911  26.508  28.166  12.535
76312W        W46912  31.265  13.649  12.792
76313W        W46913  44.190  29.969  11.171
76314W        W46914   7.869   0.667  11.492
76315W        W46915   3.523  13.693  12.570
76316W        W46916  10.848  22.801   1.477
76317W        W46917   1.435   7.265   3.779
76318W        W46918  17.364  38.431  14.281
76319W        W46919  24.632  28.084   4.280
76320W        W46920  42.515  40.571   4.100
76321W        W46921  16.653  44.236  14.250
76322W        W46922  13.832  28.461   4.737
76323W        W46923  26.700  39.236   0.546
76324W        W46924  40.743  15.560   0.295
76325W        W46925  11.930  42.366   2.358
76326W        W46926   4.892  35.140   2.782
76327W        W46927  18.027  29.762  13.984
76328W        W46928  25.986  16.850  13.969
76329W        W46929   7.459  22.011  14.876
76330W        W46930   6.189  28.859  12.065
76331W        W46931  32.348  39.290   5.078
76332W        W46932  16.048   2.951   4.984
76333W        W46933  25.964  26.978   2.705
76334W        W46934   4.465  24.744  10.737
76335W        W46935  41.251  16.439  11.248
76336W        W46936  11.818  21.224   1.419
76337W        W46937  12.110  11.195  13.058
76338W        W46938  37.125  13.319   4.635
76339W        W46939  36.361  32.766   2.331
76340W        W46940  28.566  24.687  13.887
76341W        W46941   3.909  16.776   1.044
76342W        W46942  38.074  39.337  14.461
76343W        W46943   2.258  32.598   3.556
76344W        W46944  19.971  17.570   4.394
76345W        W46945  26.739  20.495   2.147
76346W        W46946  42.375  23.303  10.288
76347W        W46947   2.351  18.018   1.268
76348W        W46948   5.405  37.964   4.445
76349W        W46949  18.713  13.540   0.029
76350W        W46950  20.636   5.840   0.019
76351W        W46951   2.285  21.235   9.817
76352W        W46952  23.267  38.531  11.276
76353W        W46953  33.476  11.166  11.891
76354W        W46954  10.942  18.644   2.723
76355W        W46955  16.339  18.728  12.612
76356W        W46956   6.191   3.421   0.292
76357W        W46957   5.935  41.333  13.886
76358W        W46958   1.767  13.838  11.234
76359W        W46959  44.048  20.537   4.101
76360W        W46960  23.012  28.933   4.269
76361W        W46961  23.684  32.279   3.332
76362W        W46962  29.774   3.778  11.753
76363W        W46963  41.579   6.643   0.290
76364W        W46964  37.982  35.589   3.164
76365W        W46965   0.676  39.334   1.001
76366W        W46966  43.978  26.989   3.849
76367W        W46967  34.909   7.283  14.009
76368W        W46968   3.230  32.712  13.096
76369W        W46969  20.824  15.126  13.372
76370W        W46970  44.854   9.549  10.812
76371W        W46971   4.932  24.210   2.148
76372W        W46972  14.831   3.018   1.852
76373W        W46973  21.440  32.942   4.813
76374W        W46974   6.936   2.690   3.221
76375W        W46975  33.190  34.204  13.405
76376W        W46976  38.793  30.699  13.524
76377W        W46977  28.202  33.954  10.530
76378W        W46978  18.990  39.036   2.202
76379W        W46979  44.343  22.001   1.013
76380W        W46980  33.562  35.402   4.397
76381W        W46981   5.370  21.324  13.976
76382W        W46982  16.205  41.594  13.877
76383W        W46983   9.783  36.856  13.547
76384W        W46984   3.996  31.341   0.336
76385W        W46985  36.490  32.114   1.871
76386W        W46986  44.274  26.034  11.652
76387W        W46987  36.886  21.734  12.947
76388W        W46988  41.368  43.348  10.773
76389W        W46989  38.797  40.797  13.127
76390W        W46990  14.050  36.578   0.859
76391W        W46991  31.108   9.916   3.668
76392W        W46992  31.682  23.452   2.711
76393W        W46993  35.370  28.101   0.258
76394W        W46994  34.056  31.514   2.224
76395W        W46995  12.732  39.835   1.239
76396W        W46996  41.950  25.679  14.867
76397W        W46997  35.447  16.333   1.934
76398W        W46998  22.177  15.752   0.276
76399W        W46999  31.380  33.874  12.671
76400W        W47000  18.682  12.703   4.653
76401W        W47001  22.811  28.665   3.563
76402W        W47002  38.512  33.147  11.157
76403W        W47003  34.093  35.515   0.841
76404W        W47004  42.793  29.970   1.989
76405W        W47005  23.728   1.864   3.849
76406W        W47006  22.004  35.391   0.685
76407W        W47007  39.465  11.622  11.927
76408W        W47008  20.544  15.798  10.729
76409W        W47009  16.277  29.483  13.882
76410W        W47010  40.526  18.583   0.220
76411W        W47011  41.064  40.284  10.711
76412W        W47012  15.721   0.588   3.357
76413W        W47013   1.741  38.712  12.326
76414W        W47014   6.332  21.691   2.878
76415W        W47015  22.172  38.731   0.291
76416W        W47016  37.001  24.956  13.945
76417W        W47017   2.891   8.308  12.992
76418W        W47018  10.330  25.268   1.835
76419W        W47019  29.086  26.969   2.636
76420W        W47020  11.566  12.312  13.834
76421W        W47021  28.069  22.268   4.685
76422W        W47022   3.697  24.327  10.805
76423W        W47023  28.624  32.156  10.865
76424W        W47024  22.463   3.187  14.201
76425W        W47025  43.933  30.948   0.743
76426W        W47026  37.624  39.672   3.647
76427W        W47027  28.696   1.970  11.179
76428W        W47028  30.913  41.404   2.649
76429W        W47029  44.371  24.651  10.643
76430W        W47030  43.317  41.799  12.108
76431W        W47031  25.162  21.081   4.552
76432W        W47032  34.167  32.747   1.764
76433W        W47033  20.222  27.787  12.172
76434W        W47034   0.525  38.825   4.112
76435W        W47035   1.793  21.647  14.195
76436W        W47036  25.375  13.958  11.457
76437W        W47037  35.159  32.921   2.814
76438W        W47038  41.212  15.821   3.549
76439W        W47039  17.537  25.883   2.622
76440W        W47040   0.311  34.141  12.106
76441W        W47041  44.951   3.397  12.342
76442W        W47042  41.507  40.022   1.456
76443W        W47043   6.072  21.917  12.956
76444W        W47044  15.139   3.312   2.677
76445W        W47045  19.254  23.960  11.480
76446W        W47046   4.134  44.418   2.261
76447W        W47047  24.001  15.891   1.356
76448W        W47048   0.787  31.221   3.779
76449W        W47049  23.573  33.100  12.441
76450W        W47050  25.749  17.071  13.416
76451W        W47051  42.539  25.660  14.319
76452W        W47052  26.420  43.439   3.973
76453W        W47053  12.726  20.078  13.900
76454W        W47054  32.231  31.480   1.775
76455W        W47055  26.985  36.015  14.510
76456W        W47056   1.222  28.793  13.942
76457W        W47057  18.570  40.117  11.976
76458W        W47058  40.429   2.822   1.640
76459W        W47059   7.912  43.134  14.828
76460W        W47060   6.832  11.593   3.256
76461W        W47061  36.369  31.459   1.280
76462W        W47062  34.107   6.070   2.742
76463W        W47063  44.879  36.964  14.628
76464W        W47064  32.277   2.910  11.090
76465W        W47065  15.243  31.997   3.881
76466W        W47066   1.368  33.315   2.692
76467W        W47067  42.757  25.981   0.444
76468W        W47068  24.514  28.657  10.707
76469W        W47069  33.524   9.284   1.518
76470W        W47070  17.645  21.956   4.163
76471W        W47071  12.725  19.083   1.885
76472W        W47072  30.932  39.043  12.074
76473W        W47073   9.908  21.169  14.577
76474W        W47074  28.855  41.427  10.738
76475W        W47075   6.545  15.418   3.890
76476W        W47076   8.764  32.332   3.594
76477W        W47077  15.806  27.408  13.427
76478W        W47078   8.389  37.003  13.625
76479W        W47079  14.035  32.185   1.897
76480W        W47080  11.330  32.931   0.658
76481W        W47081  29.759   5.289  12.166
76482W        W47082  38.067  18.293   2.188
76483W        W47083  36.158   4.243   0.871
76484W        W47084  35.995   4.037   2.172
76485W        W47085  29.867  19.604  13.719
76486W        W47086  13.025  13.198   4.939
76487W        W47087   3.384  14.145   4.821
76488W        W47088  17.348  32.491  12.386
76489W        W47089   8.636  44.595   2.656
76490W        W47090   0.292  32.904  10.344
76491W        W47091  31.082   9.372  13.946
76492W        W47092  36.796   9.173  13.481
76493W        W47093  22.974  21.935  13.057
76494W        W47094  37.671  34.528   1.458
76495W        W47095   2.200  23.725  13.000
76496W        W47096  12.194  32.687   0.917
76497W        W47097  11.408  34.768  11.073
76498W        W47098   0.172  13.771   0.342
76499W        W47099  33.633  38.543   3.207
76500W        W47100  10.912  37.548   4.661
76501W        W47101   3.220  10.377  11.129
76502W        W47102  36.107  21.632   2.388
76503W        W47103   6.158   9.455  13.501
76504W        W47104  12.885  20.608   4.274
76505W        W47105  19.774  27.589   3.708
76506W        W47106   6.207  41.140   0.005
76507W        W47107  23.048  36.975  14.580
76508W        W47108   0.772   7.680  12.332
76509W        W47109   8.279   3.511   2.178
76510W        W47110  40.473  15.718   4.959
76511W        W47111  22.975  31.072   4.524
76512W        W47112  24.724  17.773  14.498
76513W        W47113  24.013  44.015  11.907
76514W        W47114  13.882   7.641  13.961
76515W        W47115  39.880  40.263  12.043
76516W        W47116  11.018   4.120   2.729
76517W        W47117  17.026  26.293  12.072
76518W        W47118  40.548  15.026  13.438
76519W        W47119  41.237  36.554  11.619
76520W        W47120  41.750   2.323  13.558
76521W        W47121  41.496  32.875   0.927
76522W        W47122   8.964  38.632   1.896
76523W        W47123  40.718   5.027   1.178
76524W        W47124  19.382  18.706   2.789
76525W        W47125  31.471  39.726   3.227
76526W        W47126  11.100  31.509  14.310
76527W        W47127  32.561   1.034  14.913
76528W        W47128  10.858  21.637   1.885
76529W        W47129  19.018  13.680   0.426
76530W        W47130   3.298   4.992   2.027
76531W        W47131  38.575  20.898   1.776
76532W        W47132   4.244  10.096   1.607
76533W        W47133  18.098   0.755  12.869
76534W        W47134  23.630  11.070  14.537
76535W        W47135  31.580  32.526  12.416
76536W        W47136   8.802   6.192   0.380
76537W        W47137  19.700  28.424  13.847
76538W        W47138  16.140  16.632  12.873
76539W        W47139   5.489  41.772  12.132
76540W        W47140   1.023  30.656   1.707
76541W        W47141  14.537  15.557  13.097
76542W        W47142  29.468  19.639  11.749
76543W        W47143   0.760  11.354  11.560
76544W        W47144   8.310  33.114   3.706
76545W        W47145  12.614  40.675   4.609
76546W        W47146  25.783   8.578  12.401
76547W        W47147  29.180   7.192  12.943
76548W        W47148  21.006  22.151  13.599
76549W        W47149  42.817   1.998   3.648
76550W        W47150   8.128  41.192   1.316
76551W        W47151  34.321  19.750  14.384
76552W        W47152   5.307  34.648  13.379
76553W        W47153  15.065  44.935  14.311
76554W        W47154  18.760  12.178   3.800
76555W        W47155  42.393  30.568   2.299
76556W        W47156  42.879   5.710  11.462
76557W        W47157  29.575  14.426  13.914
76558W        W47158  39.303  32.733   3.073
76559W        W47159  18.550  20.965   0.234
76560W        W47160  41.881  11.654   3.573
76561W        W47161  10.936  43.224  13.286
76562W        W47162   5.806  14.435  14.598
76563W        W47163   3.748   0.381   2.289
76564W        W47164   5.343  12.811  12.337
76565W        W47165  15.646  30.533  13.809
76566W        W47166  21.140  24.900  11.588
76567W        W47167   1.508   2.183  11.922
76568W        W47168  25.676  11.672   4.102
76569W        W47169   7.832  30.578  13.213
76570W        W47170  31.622  34.937  10.410
76571W        W47171   6.638  41.551   4.631
76572W        W47172  44.470  23.698  11.676
76573W        W47173  22.742  19.572   4.219
76574W        W47174  11.072  10.841   4.585
76575W        W47175   9.216  36.562  12.586
76576W        W47176  11.749  17.555   1.585
76577W        W47177  36.933  37.548  13.068
76578W        W47178   2.120   9.767   1.680
76579W        W47179  16.997  38.820   2.469
76580W        W47180  30.074  33.356  14.967
76581W        W47181  18.013  15.793   4.166
76582W        W47182   8.453   1.430  14.524
76583W        W47183  36.352  17.059  12.980
76584W        W47184  14.612  26.704  14.921
76585W        W47185  16.854  19.301   1.153
76586W        W47186  38.534  24.394   4.560
76587W        W47187  24.816  22.553   2.207
76588W        W47188  44.425  13.701  14.406
76589W        W47189   4.925  44.746  12.983
76590W        W47190  28.246  44.958  14.339
76591W        W47191  19.988  11.203   1.581
76592W        W47192  15.888  16.047   0.960
76593W        W47193  34.811   2.992  14.892
76594W        W47194  32.602  22.650   1.749
76595W        W47195  11.705  16.638   1.373
76596W        W47196  26.612  32.867  14.457
76597W        W47197  14.499   7.576   5.015
76598W        W47198  14.787  24.236   4.134
76599W        W47199  33.931  19.975   1.461
76600W        W47200  25.046  40.605  12.597
76601W        W47201   3.413  22.213   3.370
76602W        W47202  15.839  16.864   4.540
76603W        W47203   4.896   4.712  12.386
76604W        W47204  24.566  44.948   3.158
76605W        W47205  37.971  32.683  12.942
76606W        W47206   8.671  12.827   3.393
76607W        W47207  31.394   6.090  12.517
76608W        W47208  39.438   3.149   1.457
76609W        W47209  37.862  41.286  13.943
76610W        W47210  32.055  29.231   4.148
76611W        W47211  30.771  34.902   1.944
76612W        W47212  21.289  21.770   3.674
76613W        W47213  20.752   4.661  14.265
76614W        W47214  30.586  10.489   3.201
76615W        W47215   4.687   7.184  13.792
76616W        W47216  10.806  12.225  14.437
76617W        W47217  28.677  28.695   0.036
76618W        W47218  41.898  20.713  12.374
76619W        W47219   0.959   5.831  13.529
76620W        W47220  12.286  24.696  12.648
76621W        W47221  16.858   3.097  13.909
76622W        W47222  10.824  38.355   3.461
76623W        W47223   9.545  15.843  11.099
76624W        W47224  36.924  12.981  12.480
76625W        W47225   4.293  23.311   4.217
76626W        W47226  15.999  41.580   3.112
76627W        W47227  16.116   1.809   4.094
76628W        W47228  14.290  41.045   4.425
76629W        W47229  43.593  37.413   3.214
76630W        W47230  42.083  27.598  11.108
76631W        W47231  23.255  18.015   4.225
76632W        W47232  35.278  41.294   3.428
76633W        W47233  38.542  12.667  14.298
76634W        W47234  15.157  32.935  12.610
76635W        W47235   7.087   3.655  14.791
76636W        W47236  21.215   4.923   0.899
76637W        W47237   9.645  39.708  11.106
76638W        W47238   3.419  27.113  14.686
76639W        W47239  37.748  25.119  11.164
76640W        W47240  38.883   2.585   3.303
76641W        W47241  27.647   7.680   4.176
76642W        W47242  11.607  14.233  10.164
76643W        W47243  29.958  44.588   0.891
76644W        W47244   1.304  20.143   1.729
76645W        W47245  33.094  28.592  13.959
76646W        W47246   0.098  13.145   2.081
76647W        W47247  38.244  10.176   2.516
76648W        W47248  38.022   2.192   2.319
76649W        W47249   4.973  39.200   4.881
76650W        W47250  33.220   4.253   3.330
76651W        W47251  24.519  43.735   5.037
76652W        W47252  34.919   4.241  13.926
76653W        W47253   3.658  38.273  12.403
76654W        W47254  37.945  23.453   4.413
76655W        W47255   7.922  11.175  12.482
76656W        W47256  26.487   8.723   1.706
76657W        W47257  20.046  40.360  13.570
76658W        W47258  32.568   8.846  11.926
76659W        W47259  17.315  11.191  12.581
76660W        W47260   1.851   9.704   4.241
76661W        W47261  40.416  40.125  14.460
76662W        W47262   1.501  30.425  12.384
76663W        W47263   3.766   2.777   3.816
76664W        W47264  43.729   9.457   3.809
76665W        W47265  18.879  38.646  11.109
76666W        W47266  14.596  33.630   2.646
76667W        W47267  37.934  14.339  11.621
76668W        W47268   3.041   0.892   3.581
76669W        W47269   1.520  22.839  11.180
76670W        W47270  17.262  26.434  14.180
76671W        W47271  38.111  16.820   0.857
76672W        W47272  16.341  32.712  12.432
76673W        W47273  41.097  30.111   1.632
76674W        W47274  15.666  14.243  12.019
76675W        W47275  26.943   5.493  13.053
76676W        W47276  32.862  18.489   3.219
76677W        W47277  23.963  41.980  14.494
76678W        W47278  42.921  41.275   0.356
76679W        W47279  24.397   3.320   0.595
76680W        W47280   5.200  32.131   0.784
76681W        W47281   5.121  26.543   0.941
76682W        W47282  26.450  18.681  14.922
76683W        W47283   2.386   2.044   0.919
76684W        W47284   9.341   1.706  12.498
76685W        W47285  24.974  22.706   3.720
76686W        W47286  17.569  42.265  14.975
76687W        W47287  14.243   7.623   4.129
76688W        W47288  15.323   2.754  11.196
76689W        W47289  18.298  13.155   2.633
76690W        W47290  17.624  44.251   4.966
76691W        W47291   1.257  22.424  14.381
76692W        W47292  38.402   2.817   3.284
76693W        W47293   9.123  16.152  13.724
76694W        W47294  23.219  21.666   1.790
76695W        W47295  20.255  22.668  11.549
76696W        W47296  43.525  37.645  12.831
76697W        W47297  44.861  19.021   4.192
76698W        W47298  27.200  33.395  12.444
76699W        W47299   6.190  44.354   4.537
76700W        W47300  24.253  29.359  14.376
76701W        W47301  14.410   4.379   4.241
76702W        W47302  10.607  38.537  13.719
76703W        W47303  34.047   8.425  12.024
76704W        W47304  13.590   6.874  14.375
76705W        W47305  28.106  13.180  13.564
76706W        W47306  38.737   2.380   1.399
76707W        W47307   3.958  29.019   4.460
76708W        W47308   5.970  13.878   2.439
76709W        W47309  32.235   2.245   1.170
76710W        W47310  41.315  21.647   0.094
76711W        W47311  38.530  11.124  13.851
76712W        W47312  23.136  12.401   3.592
76713W        W47313   3.779  44.806   0.172
76714W        W47314  10.834   4.255   2.258
76715W        W47315  42.357  39.775   2.946
76716W        W47316  10.699   0.793  12.488
76717W        W47317  14.759  31.708  10.788
76718W        W47318  37.630  11.721   5.111
76719W        W47319  12.472  11.365  14.279
76720W        W47320  32.928   8.426   3.733
76721W        W47321  20.127  27.122  14.002
76722W        W47322  38.818   6.916  10.574
76723W        W47323  44.416  37.614  12.188
76724W        W47324  11.635  10.934   1.195
76725W        W47325  44.370  37.495  11.700
76726W        W47326  28.219  39.644  13.363
76727W        W47327   8.175   6.000  11.930
76728W        W47328   6.641  29.238  14.702
76729W        W47329  22.519  39.973  11.172
76730W        W47330  39.298  40.566  11.582
76731W        W47331  41.773  36.985   0.860
76732W        W47332  12.834   9.375  10.859
76733W        W47333  24.610  32.659   4.174
76734W        W47334  25.387   0.043  11.948
76735W        W47335   6.397  17.721   1.856
76736W        W47336  18.276  15.123   3.753
76737W        W47337   1.323  36.090  13.481
76738W        W47338  13.202  32.698  12.014
76739W        W47339  36.839  30.872  14.001
76740W        W47340  40.056  10.905  12.660
76741W        W47341  16.388  25.968   4.593
76742W        W47342  29.810  44.916  14.381
76743W        W47343  30.212  43.445  12.294
76744W        W47344  35.262  33.721   0.159
76745W        W47345   8.260  12.220   0.149
76746W        W47346  20.725  40.051   3.091
76747W        W47347  23.655  16.276  11.528
76748W        W47348   3.382  34.775   5.033
76749W        W47349  22.760   9.438   4.007
76750W        W47350   8.244  15.230   3.896
76751W        W47351  27.727  43.445  14.782
76752W        W47352  24.575  31.580   4.164
76753W        W47353  19.179   8.133  10.968
76754W        W47354  41.996  24.279   3.200
76755W        W47355  31.353  44.781  11.944
76756W        W47356  36.074  20.717   4.351
76757W        W47357  28.500  15.111   3.706
76758W        W47358  28.417  42.380   4.339
76759W        W47359   8.358   3.684  14.872
76760W        W47360  35.044  27.096   3.358
76761W        W47361   9.822   3.470   4.304
76762W        W47362  34.842  17.179  13.031
76763W        W47363  18.580  21.984   1.194
76764W        W47364  35.768  10.627  11.194
76765W        W47365  36.282  37.975   3.261
76766W        W47366  44.820  17.775   3.693
76767W        W47367   8.843  16.247  12.874
76768W        W47368  33.906   7.724  13.383
76769W        W47369   3.870  32.112   4.690
76770W        W47370  38.778  30.206   2.489
76771W        W47371   5.992  33.103   0.856
76772W        W47372  26.214  24.039   4.922
76773W        W47373   8.713  23.167  14.322
76774W        W47374  10.260  44.368  13.035
76775W        W47375  23.211  44.560   2.718
76776W        W47376   1.308   2.877   1.323
76777W        W47377  37.554   2.836  12.133
76778W        W47378  31.344  44.912   3.068
76779W        W47379  13.901  40.431   1.760
76780W        W47380   1.991  29.607  11.144
76781W        W47381  20.195  29.426  14.768
76782W        W47382   0.946   1.306  13.896
76783W        W47383  29.448  12.104   0.177
76784W        W47384   1.720  23.488   4.371
76785W        W47385   6.172  41.860  12.716
76786W        W47386   7.959  22.033  14.738
76787W        W47387  29.055  25.407   2.332
76788W        W47388  37.002  40.954   2.798
76789W        W47389   3.463   4.637   3.511
76790W        W47390  28.146  10.345  11.128
76791W        W47391  14.334  10.823  11.494
76792W        W47392  26.729  39.962  14.403
76793W        W47393   1.428  40.285   4.840
76794W        W47394  43.709  39.678  13.802
76795W        W47395  37.938  23.161   2.864
76796W        W47396   9.665   4.194  13.483
76797W        W47397  32.532  34.522  14.584
76798W        W47398  19.102  29.429   1.724
76799W        W47399  13.188  10.825   3.655
76800W        W47400  17.538  14.680   2.223
76801W        W47401   0.792  26.096  14.472
76802W        W47402  42.356   4.028   4.039
76803W        W47403  26.507  24.173  12.576
76804W        W47404  24.990  28.963   4.430
76805W        W47405  33.033  13.379   3.113
76806W        W47406  37.271   3.900   3.609
76807W        W47407  10.877  40.408  10.275
76808W        W47408  39.932  43.986   3.172
76809W        W47409  12.611   4.684  14.887
76810W        W47410  42.810   5.651   0.890
76811W        W47411   2.729  34.525   0.296
76812W        W47412  23.560  24.653  12.935
76813W        W47413  30.713   3.446  10.349
76814W        W47414  13.587  35.395  14.542
76815W        W47415  18.312   7.412   4.431
76816W        W47416  20.745  22.517   4.657
76817W        W47417   5.121   6.372  12.955
76818W        W47418  40.300  41.026   1.736
76819W        W47419   0.805   7.266  10.710
76820W        W47420  43.236  18.378  13.098
76821W        W47421  44.545  26.083   1.872
76822W        W47422  41.939  10.051   1.892
76823W        W47423   8.445  35.942   1.345
76824W        W47424  25.474  14.952   3.215
76825W        W47425   7.264  38.531  13.868
76826W        W47426  12.361  31.530   2.876
76827W        W47427  33.888  21.758  14.195
76828W        W47428  43.083  17.376   3.646
76829W        W47429  33.885   0.881   4.856
76830W        W47430  34.358   7.994  13.258
76831W        W47431   5.248   5.217   3.190
76832W        W47432  27.253  15.617   4.219
76833W        W47433   8.257   5.360   4.918
76834W        W47434   3.664  38.962   4.462
76835W        W47435  30.487  44.388   1.106
76836W        W47436  22.571  21.084  11.284
76837W        W47437  27.026  21.592   1.222
76838W        W47438  28.531  27.702  11.601
76839W        W47439   6.337  14.823   3.270
76840W        W47440   7.816  19.602   9.786
76841W        W47441  43.873  27.425  14.262
76842W        W47442  23.378  25.879  14.534
76843W        W47443  10.442  39.210   1.651
76844W        W47444  20.086   9.118   5.030
76845W        W47445  32.105   7.308  13.487
76846W        W47446   7.902   9.272  12.548
76847W        W47447  44.456  15.128   3.632
76848W        W47448   9.119  38.549  12.904
76849W        W47449  12.361  21.004  10.826
76850W        W47450  28.976   5.621  14.931
76851W        W47451  19.531  29.462  13.330
76852W        W47452  16.715  29.318   4.998
76853W        W47453  43.329  15.249   4.821
76854W        W47454  37.485  34.325   3.257
76855W        W47455  44.230   4.448  14.258
76856W        W47456  12.309   6.431   3.963
76857W        W47457  20.224   3.233   1.397
76858W        W47458  23.915  37.041   0.057
76859W        W47459  43.946  43.444   2.219
76860W        W47460   5.302  37.616   3.619
76861W        W47461  44.357  29.428  11.222
76862W        W47462  29.147  35.874   4.099
76863W        W47463  17.779   8.249   3.548
76864W        W47464  30.499  38.265  12.683
76865W        W47465  32.652   7.700   4.267
76866W        W47466  19.253   4.938  14.311
76867W        W47467  43.073   0.545  14.803
76868W        W47468  15.557   7.299   1.283
76869W        W47469  37.868   5.300   2.446
76870W        W47470  15.220   9.677   3.611
76871W        W47471  34.583   1.422   3.333
76872W        W47472  41.393   2.723  10.176
76873W        W47473  18.916  16.035   2.171
76874W        W47474  11.902  11.632  10.920
76875W        W47475  30.593   9.636   1.805
76876W        W47476  33.495  12.417  14.719
76877W        W47477  29.139   7.898   4.679
76878W        W47478  21.210  28.069   1.214
76879W        W47479  30.102  38.980  13.144
76880W        W47480  17.181  42.418   1.716
76881W        W47481  31.731  27.631   0.403
76882W        W47482  27.423  29.672   4.214
76883W        W47483   0.451  14.653  14.964
76884W        W47484  41.604  25.645  14.032
76885W        W47485  15.307  11.823   4.161
76886W        W47486   8.191  14.059   0.538
76887W        W47487  24.798  24.583   4.084
76888W        W47488  18.716  20.693  14.822
76889W        W47489  31.372   8.506   2.233
76890W        W47490  16.561  38.276  11.680
76891W        W47491  13.673   5.801   2.590
76892W        W47492  12.974  39.901  11.980
76893W        W47493  33.516  18.726   1.318
76894W        W47494   0.235  12.533  13.930
76895W        W47495  39.880  27.498   0.724
76896W        W47496  41.411  33.757  12.779
76897W        W47497  13.254  41.230  10.320
76898W        W47498  18.141   7.235   3.345
76899W        W47499  17.609  35.514  11.675
76900W        W47500  43.551   5.741   1.643
76901W        W47501  41.844   4.182   3.839
76902W        W47502   3.756  39.881   4.708
76903W        W47503  26.948  11.114  14.275
76904W        W47504   0.259  42.410  14.663
76905W        W47505  25.363   8.366  12.614
76906W        W47506  35.000  34.098  10.757
76907W        W47507   0.483  23.139   1.181
76908W        W47508   2.613  26.040  13.943
76909W        W47509   0.738  29.049   3.730
76910W        W47510   2.517   3.389   0.714
76911W        W47511  34.569   3.532   4.180
76912W        W47512  22.914  10.257   3.074
76913W        W47513   9.177   4.776  14.693
76914W        W47514  24.611   8.280  11.008
76915W        W47515   4.857  23.685   2.302
76916W        W47516  30.925  43.524   1.337
76917W        W47517   0.307  36.439   0.862
76918W        W47518  23.924   8.247   2.257
76919W        W47519   3.256  16.178  12.467
76920W        W47520  20.660  23.041   4.588
76921W        W47521  37.508  26.596   0.797
76922W        W47522   7.697  34.153  13.488
76923W        W47523  32.985  37.848  13.062
76924W        W47524  21.522  37.969  11.168
76925W        W47525  14.973  24.723   4.021
76926W        W47526   4.277   6.340   1.800
76927W        W47527   1.693  13.815  12.831
76928W        W47528  27.572  31.945  12.678
76929W        W47529  31.910  43.889   1.707
76930W        W47530  11.583  15.182  13.373
76931W        W47531   3.074  41.199  14.759
76932W        W47532  41.831  34.655   2.803
76933W        W47533  43.655  17.639  11.172
76934W        W47534  18.827  11.965  13.769
76935W        W47535  24.568  25.119   4.157
76936W        W47536  17.452  44.677  14.785
76937W        W47537  44.757  21.572  13.442
76938W        W47538  35.383   2.780  10.648
76939W        W47539  31.101  42.075  12.974
76940W        W47540  42.360  27.725   0.587
76941W        W47541  28.728  23.484   0.227
76942W        W47542  38.233  15.405   0.899
76943W        W47543   2.708  18.698  14.442
76944W        W47544  39.057  12.432   1.247
76945W        W47545  42.909  42.333   3.323
76946W        W47546  36.876   0.776  12.575
76947W        W47547  40.845   4.309   1.667
76948W        W47548   5.794  23.435  13.467
76949W        W47549  35.326  31.978   0.810
76950W        W47550  13.883  17.296   4.950
76951W        W47551   9.972  24.214  11.853
76952W        W47552  34.042  16.562  14.178
76953W        W47553  14.294   3.154   5.106
76954W        W47554  34.043   3.048  10.751
76955W        W47555  39.759  36.406  12.521
76956W        W47556  34.025  23.766   3.713
76957W        W47557  17.850  36.864  12.002
76958W        W47558  23.051  10.254  14.931
76959W        W47559  42.877  13.854   2.677
76960W        W47560  11.217   3.467  11.992
76961W        W47561  40.884  12.665  14.735
76962W        W47562  40.883  12.788  12.975
76963W        W47563   6.839  33.961  12.974
76964W        W47564  24.005  28.800  14.999
76965W        W47565   4.665  14.415  12.565
76966W        W47566   2.744  10.919  12.839
76967W        W47567   1.758  24.494  13.402
76968W        W47568  43.465   9.936   3.680
76969W        W47569  42.870  23.190   4.721
76970W        W47570  37.508   4.503   4.222
76971W        W47571  35.993  23.628   4.759
76972W        W47572  29.690   4.986   0.319
76973W        W47573  44.993  44.528   3.145
76974W        W47574  11.194  10.640  10.458
76975W        W47575  25.239  23.546   0.722
76976W        W47576  13.744  14.241  13.583
76977W        W47577  19.584  39.962  11.098
76978W        W47578  37.540  40.535  11.963
76979W        W47579  40.248  21.059  10.290
76980W        W47580  16.964  26.901   0.809
76981W        W47581  28.854  25.716   1.097
76982W        W47582  11.591  16.767   2.682
76983W        W47583  10.634  24.711  10.523
76984W        W47584  14.382  26.160   3.349
76985W        W47585  19.892  39.596   0.356
76986W        W47586  44.509   8.098  13.818
76987W        W47587  18.581  16.028  13.933
76988W        W47588  26.584  19.340  11.999
76989W        W47589  12.541  33.302  10.796
76990W        W47590  42.406  36.966   0.939
76991W        W47591  20.084  41.377   0.914
76992W        W47592  34.520  10.138   4.618
76993W        W47593  14.623  16.057   0.338
76994W        W47594  20.688  24.615  10.726
76995W        W47595  19.693  31.519   1.974
76996W        W47596  14.694  23.690   4.639
76997W        W47597  27.682  26.116   3.168
76998W        W47598  44.273  35.547   4.878
76999W        W47599   1.231  34.378  11.110
77000W        W47600  24.127  29.248   3.897
77001W        W47601  20.717  23.598  12.088
77002W        W47602  27.407   3.710   2.649
77003W        W47603  25.573   2.630   3.202
77004W        W47604   9.904  22.071  11.180
77005W        W47605  41.147   3.360   1.608
77006W        W47606  41.953   1.183  14.088
77007W        W47607  41.690  24.849   4.053
77008W        W47608  42.036  11.239   4.037
77009W        W47609  26.227  29.307  12.015
77010W        W47610  22.075  24.008   1.164
77011W        W47611  28.204  20.334  14.388
77012W        W47612  13.280   6.022   2.943
77013W        W47613  25.915  38.062  11.611
77014W        W47614   0.995  40.611   2.052
77015W        W47615  37.958   8.948   4.465
77016W        W47616   0.509  27.108  11.905
77017W        W47617   3.460  31.654   4.100
77018W        W47618  37.489  39.397  12.815
77019W        W47619  16.141   5.184   0.801
77020W        W47620  35.493  23.986  12.187
77021W        W47621  16.091   9.622  14.841
77022W        W47622  11.130  43.919  11.226
77023W        W47623  36.851  22.478  13.462
77024W        W47624  26.920   5.523  14.985
77025W        W47625  19.578  30.089   1.842
77026W        W47626  34.560  20.589   0.729
77027W        W47627  37.482  30.233   2.974
77028W        W47628  37.448   0.935  14.039
77029W        W47629  12.494   7.326   4.982
77030W        W47630  39.028  16.197  12.587
77031W        W47631  11.906  29.728  11.619
77032W        W47632   4.401  43.932  14.733
77033W        W47633  16.433  40.270  12.075
77034W        W47634  44.476  10.423   2.107
77035W        W47635   6.895  12.121  10.810
77036W        W47636  26.065  22.972   2.715
77037W        W47637  23.341  15.067   2.825
77038W        W47638   8.818   8.618  12.395
77039W        W47639  43.343  26.608  13.000
77040W        W47640  19.189  43.996   4.821
77041W        W47641  28.019  19.179   9.979
77042W        W47642   2.514   2.044   4.132
77043W        W47643  11.696  16.173  13.446
77044W        W47644   4.229  21.498  12.020
77045W        W47645  28.944  41.929   3.767
77046W        W47646  44.099  36.003  11.907
77047W        W47647  25.060  10.660   1.670
77048W        W47648  32.654  13.813  13.382
77049W        W47649  12.699   7.066  14.138
77050W        W47650  26.526  17.473   4.656
77051W        W47651  42.956  10.836  13.511
77052W        W47652  43.423   0.650  10.381
77053W        W47653  19.207   1.037  11.758
77054W        W47654  25.486  31.050  14.353
77055W        W47655  15.580   8.654   3.272
77056W        W47656  14.048  14.843   2.298
77057W        W47657  20.011  23.733   1.681
77058W        W47658  21.132  21.309  12.950
77059W        W47659  33.965   6.748  13.346
77060W        W47660  21.210  35.494   4.542
77061W        W47661   1.924  35.199   1.862
77062W        W47662   9.832   2.082   1.323
77063W        W47663  12.366   3.168   1.747
77064W        W47664  18.430  38.852  13.052
77065W        W47665  19.467   6.363   2.998
77066W        W47666  43.223  33.574  14.895
77067W        W47667  10.908  29.894  10.798
77068W        W47668   5.749  41.247  10.583
77069W        W47669  20.036  38.589  11.260
77070W        W47670  29.623  28.465  11.174
77071W        W47671   1.836  36.240  14.543
77072W        W47672  19.485   8.082   4.151
77073W        W47673  14.877  12.719  11.612
77074W        W47674  12.306  20.714  14.781
77075W        W47675  40.839  14.123  12.565
77076W        W47676  31.464   5.872  11.230
77077W        W47677  36.660   8.294  13.362
77078W        W47678  11.275   2.956   3.146
77079W        W47679  41.698   7.892   0.766
77080W        W47680  43.857  42.129  14.000
77081W        W47681   1.196  15.902  14.530
77082W        W47682  43.399  14.112   2.867
77083W        W47683  20.659  15.756  12.489
77084W        W47684  42.960   5.796   2.253
77085W        W47685  42.010   0.973   3.246
77086W        W47686  21.094  41.800   4.258
77087W        W47687  24.729  33.591   0.757
77088W        W47688  35.899  14.542  14.976
77089W        W47689   1.399  25.590   2.461
77090W        W47690  14.192  23.595  12.958
77091W        W47691  30.459  26.205   2.800
77092W        W47692  39.586  27.158  11.154
77093W        W47693  18.491  29.448  11.127
77094W        W47694  30.028  36.866   3.284
77095W        W47695  19.244  24.228  11.919
77096W        W47696  21.498  33.946  13.401
77097W        W47697  31.294  16.895  14.815
77098W        W47698  21.796  35.354  10.807
77099W        W47699  44.109  35.873  13.723
77100W        W47700  42.734  33.485  14.765
77101W        W47701  33.206  23.364   4.600
77102W        W47702  31.003   5.145  11.626
77103W        W47703  44.049  42.494   3.372
77104W        W47704  20.135  26.493   0.430
77105W        W47705  31.959  43.379   4.269
77106W        W47706  26.145  28.679   4.678
77107W        W47707  17.200  37.530   3.659
77108W        W47708  34.111  11.579   1.301
77109W        W47709  41.289  21.234  10.304
77110W        W47710  41.458  29.005   2.234
77111W        W47711  24.350   2.822   0.400
77112W        W47712  20.498  42.808   1.777
77113W        W47713  19.578  19.073   0.083
77114W        W47714   9.368  27.427  10.727
77115W        W47715  21.585   2.790  12.868
77116W        W47716  30.365  42.281   2.770
77117W        W47717  10.533  35.406  14.856
77118W        W47718  42.105   3.761  11.247
77119W        W47719  16.233   4.365  12.059
77120W        W47720  15.845   5.625   3.078
77121W        W47721  14.128  12.104   2.698
77122W        W47722  23.628   2.336   1.456
77123W        W47723  14.808  11.817   9.926
77124W        W47724  33.974   7.227   4.420
77125W        W47725  30.292  40.584  14.559
77126W        W47726   7.530  13.416   4.990
77127W        W47727  12.851   7.131  10.774
77128W        W47728   5.750  42.103  11.833
77129W        W47729  33.811  15.360  11.166
77130W        W47730  23.324   6.834  11.594
77131W        W47731  43.737   5.278   1.784
77132W        W47732  23.966  33.163   3.171
77133W        W47733   7.132   2.495  12.517
77134W        W47734  17.175  19.623   3.702
77135W        W47735   1.365  15.430  13.241
77136W        W47736  37.443  34.157   2.727
77137W        W47737  29.385  23.254   2.646
77138W        W47738   0.920  22.947   0.948
77139W        W47739  41.411  27.023   4.861
77140W        W47740  23.465  26.946  12.443
77141W        W47741  28.255  13.047   4.596
77142W        W47742  31.136  44.648   5.018
77143W        W47743  15.834  15.838  11.597
77144W        W47744  36.597  37.402  14.778
77145W        W47745  44.718  16.705   1.745
77146W        W47746  25.526  10.004  10.309
77147W        W47747  34.662  27.415   1.648
77148W        W47748  16.666  11.210   2.384
77149W        W47749  21.024   0.068   0.838
77150W        W47750  30.090  36.783   4.210
77151W        W47751  40.730   3.121   4.568
77152W        W47752  33.911   8.256  13.331
77153W        W47753  37.530  15.759  14.930
77154W        W47754  42.739  27.184   3.015
77155W        W47755  42.275  12.616  11.649
77156W        W47756   8.662  41.548   4.870
77157W        W47757   7.732  36.817   4.838
77158W        W47758  25.418  18.633   0.862
77159W        W47759  11.345  36.972  14.015
77160W        W47760  17.571  43.749   0.951
77161W        W47761   3.194  22.202  12.748
77162W        W47762  26.978  38.870  12.546
77163W        W47763  22.999  40.219  10.431
77164W        W47764   7.694   7.841  10.882
77165W        W47765  29.192  28.044  12.130
77166W        W47766  32.427  10.639  14.001
77167W        W47767   0.493  37.606   2.296
77168W        W47768   6.358  33.500  14.968
77169W        W47769   4.019   2.966   0.027
77170W        W47770  23.004  38.747   1.857
77171W        W47771  24.046  30.753   0.397
77172W        W47772  33.349  27.618  11.451
77173W        W47773  28.636  14.127  11.335
77174W        W47774  32.059  23.058  11.077
77175W        W47775  13.650  12.814   1.531
77176W        W47776  44.502  24.524   2.743
77177W        W47777  22.661   5.057   5.065
77178W        W47778  40.314  10.591   2.316
77179W        W47779  30.026  20.804   4.305
77180W        W47780  38.503  36.424   3.189
77181W        W47781   3.879  19.732   0.224
77182W        W47782  35.393   9.080   3.404
77183W        W47783  32.040  28.187   3.148
77184W        W47784  34.105  30.309   5.079
77185W        W47785  36.123  13.305  12.915
77186W        W47786   9.765  42.518  14.261
77187W        W47787  21.665  43.760  11.824
77188W        W47788  40.751   4.099   2.582
77189W        W47789  23.688  22.230  12.394
77190W        W47790  37.004  10.139   3.706
77191W        W47791  11.459  44.277  12.077
77192W        W47792   0.966   9.289   3.151
77193W        W47793  22.097  31.874   1.519
77194W        W47794  31.395  15.729  13.854
77195W        W47795  20.796  39.942  10.743
77196W        W47796  32.520   3.384  11.043
77197W        W47797  44.945  38.241   0.724
77198W        W47798  42.721  14.727  14.329
77199W        W47799  43.445  24.062  13.242
77200W        W47800  39.964   4.711  14.345
77201W        W47801  30.057  43.164   0.824
77202W        W47802  29.657  16.294  13.481
77203W        W47803  32.654  30.394  11.226
77204W        W47804  15.907  15.693   2.335
77205W        W47805  17.146  20.338   1.953
77206W        W47806  14.623  17.250   4.642
77207W        W47807   7.573  41.107  10.876
77208W        W47808  30.032  40.194  12.473
77209W        W47809  30.049  11.208   3.617
77210W        W47810  19.523  38.314  11.729
77211W        W47811  36.863   5.916   4.310
77212W        W47812  34.038  36.808  14.814
77213W        W47813  29.436  29.956  10.784
77214W        W47814  30.150  11.262  13.999
77215W        W47815  20.889  22.352  12.729
77216W        W47816  28.034  31.192  14.942
77217W        W47817  30.526  38.811  12.905
77218W        W47818  30.680  26.457   4.493
77219W        W47819  14.164  37.673  13.434
77220W        W47820  40.399   9.631   4.029
77221W        W47821   3.461   8.166   1.349
77222W        W47822  38.487  21.725   4.628
77223W        W47823   2.684   9.600  14.466
77224W        W47824  12.734   1.314  14.513
77225W        W47825  43.641  25.264   0.880
77226W        W47826  44.479  38.553   2.846
77227W        W47827   4.346  35.292  12.582
77228W        W47828   0.751  36.325  13.900
77229W        W47829  32.307  31.400   2.798
77230W        W47830  13.461  36.890   1.778
77231W        W47831  39.399  43.780   1.011
77232W        W47832  22.281  20.264   0.288
77233W        W47833   5.375  13.276   4.342
77234W        W47834  27.377   3.188  11.967
77235W        W47835  14.219   3.766   0.515
77236W        W47836  21.333  41.393   2.809
77237W        W47837  23.244  23.744   3.725
77238W        W47838  19.811  41.179  10.628
77239W        W47839   9.442  23.731  11.216
77240W        W47840   3.503  12.710  14.909
77241W        W47841   1.869  22.164   2.653
77242W        W47842  32.064  23.185  14.857
77243W        W47843  16.556  42.927   1.203
77244W        W47844  16.653  11.565  11.095
77245W        W47845  18.822  37.826   3.754
77246W        W47846  19.544  23.475   3.161
77247W        W47847  44.912  38.320   3.705
77248W        W47848  14.625  34.000  14.300
77249W        W47849  37.125  23.611  13.861
77250W        W47850  39.232   6.267   3.418
77251W        W47851  13.759   3.731   4.763
77252W        W47852   1.496  15.693   2.362
77253W        W47853  32.317  16.565  14.784
77254W        W47854  39.924  39.910   0.785
77255W        W47855  34.249  25.786  10.774
77256W        W47856  34.116   3.194   0.311
77257W        W47857  18.182  40.476   4.680
77258W        W47858  40.369   9.687  13.024
77259W        W47859  11.678  17.723  11.189
77260W        W47860  34.358   5.783   0.540
77261W        W47861  18.180   0.668   4.129
77262W        W47862  33.270  32.858   2.427
77263W        W47863  18.983  30.070   1.463
77264W        W47864  31.714  42.533   3.773
77265W        W47865  32.726   6.343  12.181
77266W        W47866  23.171  38.116  11.590
77267W        W47867  29.826  43.199   1.292
77268W        W47868  17.298  36.549   1.257
77269W        W47869  42.238   2.990  11.624
77270W        W47870  25.511  38.530   2.199
77271W        W47871   4.741  19.859  14.460
77272W        W47872  15.687  12.818   3.383
77273W        W47873  34.045  41.810  10.780
77274W        W47874  31.096  28.920   2.640
77275W        W47875   8.289  18.198  10.650
77276W        W47876  43.824  34.090   4.492
77277W        W47877  24.843  21.281  11.199
77278W        W47878  27.635  28.551  13.409
77279W        W47879  13.764   5.009  14.323
77280W        W47880   0.961  20.043  12.609
77281W        W47881  15.732  41.622   3.569
77282W        W47882   9.133   7.245   1.394
77283W        W47883  31.546  13.796  13.218
77284W        W47884  18.596  43.949   4.129
77285W        W47885   7.619  11.260   1.401
77286W        W47886  27.837  17.459   3.170
77287W        W47887  30.402  26.664  12.468
77288W        W47888   2.343  38.533   3.807
77289W        W47889  26.502  41.772   3.576
77290W        W47890  40.743  33.053   4.697
77291W        W47891  20.971   6.001   3.222
77292W        W47892   1.477  18.922  11.168
77293W        W47893   6.615  28.949   1.052
77294W        W47894  22.446   1.235  11.510
77295W        W47895  22.175  37.169   4.536
77296W        W47896  42.115   6.954  10.220
77297W        W47897  27.442  22.292   2.967
77298W        W47898  16.498  43.917  10.091
77299W        W47899  13.964   4.842   5.122
77300W        W47900   5.709  32.353   1.843
77301W        W47901  19.286   9.387   1.899
77302W        W47902  18.632  41.150  12.130
77303W        W47903   6.314  20.948  11.093
77304W        W47904  30.454  25.339  13.532
77305W        W47905  17.074  32.599   2.730
77306W        W47906  17.682   6.132  12.331
77307W        W47907  24.625  35.048   4.552
77308W        W47908  27.397  11.922   1.184
77309W        W47909   7.216  16.267   2.471
77310W        W47910  11.282  36.886   2.273
77311W        W47911  14.983  28.445  14.157
77312W        W47912  41.793  32.517  10.693
77313W        W47913   9.898  31.114   3.594
77314W        W47914  35.203  40.067  12.955
77315W        W47915   8.506  12.835  13.256
77316W        W47916  33.412  22.157  10.619
77317W        W47917  36.861  32.985  12.624
77318W        W47918  29.518  16.598   2.254
77319W        W47919  10.866   8.348  13.564
77320W        W47920   5.904  32.537  12.451
77321W        W47921  22.560  26.460  12.991
77322W        W47922  26.995  18.133   4.457
77323W        W47923  10.199   5.674   3.201
77324W        W47924  17.789  15.748   1.933
77325W        W47925  41.883  27.511  10.650
77326W        W47926   8.750  18.791  11.254
77327W        W47927  28.855  28.147   4.525
77328W        W47928   5.728  23.266   1.304
77329W        W47929   9.866  15.685   1.875
77330W        W47930   4.237  14.747   0.926
77331W        W47931  39.635   8.996   2.938
77332W        W47932   9.556   9.062   0.037
77333W        W47933  26.008  20.390  12.018
77334W        W47934  31.487  16.231  13.965
77335W        W47935  12.675  42.803   1.974
77336W        W47936  42.968  40.970  14.821
77337W        W47937  34.380  21.466   3.622
77338W        W47938  11.122  17.134  13.385
77339W        W47939  30.463  14.637   2.334
77340W        W47940   5.885   9.742  12.523
77341W        W47941  25.262  11.956   1.914
77342W        W47942  10.645  12.292   1.523
77343W        W47943  23.967  37.418   4.535
77344W        W47944   1.164   4.664  14.470
77345W        W47945  17.690   4.329   0.985
77346W        W47946  41.929   9.226   0.340
77347W        W47947  26.194  34.070   0.160
77348W        W47948  23.439  42.017  14.500
77349W        W47949   6.331  19.290  11.649
77350W        W47950  25.333   8.731   0.838
77351W        W47951  25.093   1.295  10.913
77352W        W47952  29.929  35.095  10.776
77353W        W47953   9.780  44.366   2.246
77354W        W47954  17.554  13.702   2.663
77355W        W47955  24.555  31.091   3.242
77356W        W47956  38.540  20.849   3.643
77357W        W47957  34.624   1.430   4.591
77358W        W47958  31.917  39.721   0.367
77359W        W47959  34.552  13.603   1.423
77360W        W47960   7.580   8.508   2.816
77361W        W47961  11.266  24.874   1.857
77362W        W47962  20.726  25.779   1.270
77363W        W47963  35.099   8.497  13.537
77364W        W47964   7.794  13.570   3.213
77365W        W47965   9.201  27.253   3.779
77366W        W47966  25.524  28.989  11.617
77367W        W47967  19.513  35.668   5.022
77368W        W47968  38.741  13.584  13.493
77369W        W47969  34.231  11.595  11.218
77370W        W47970  29.238  23.767   4.382
77371W        W47971   1.328   4.688   0.828
77372W        W47972  44.247   6.072  10.695
77373W        W47973  37.004  30.884   0.872
77374W        W47974  13.407  31.539   3.843
77375W        W47975   4.426   6.024   3.702
77376W        W47976  16.312  18.326   3.245
77377W        W47977  14.150  13.039   5.068
77378W        W47978   0.550  12.550  14.347
77379W        W47979   5.892  13.320  11.073
77380W        W47980   1.331  43.010  12.903
77381W        W47981  24.025  43.737  12.334
77382W        W47982  25.492  29.021   3.686
77383W        W47983  41.701  30.990  14.330
77384W        W47984  40.486  11.302   0.778
77385W        W47985  32.961  15.063   1.349
77386W        W47986  27.540  34.015   2.373
77387W        W47987   8.784  40.318   1.370
77388W        W47988  30.262  29.654   3.991
77389W        W47989  22.481  17.864   4.608
77390W        W47990  25.691  34.101   0.062
77391W        W47991  34.561  25.644   4.461
77392W        W47992  17.712  23.294  12.890
77393W        W47993  35.019  21.672  14.984
77394W        W47994  23.137  43.200  11.274
77395W        W47995  20.637  12.280  13.998
77396W        W47996  27.562  33.568  13.958
77397W        W47997   0.391  23.530   2.477
77398W        W47998  32.597  15.407  13.018
77399W        W47999  17.222   3.937  13.851
77400W        W48000   1.552  24.072   4.690
77401W        W48001  23.966  39.497   3.270
77402W        W48002  16.044  39.550  14.099
77403W        W48003  30.910  20.182   1.814
77404W        W48004  40.357  30.916  12.800
77405W        W48005   2.755   7.748  10.938
77406W        W48006  17.322  42.422   3.170
77407W        W48007  24.218  13.994  10.187
77408W        W48008   5.802   5.743  13.455
77409W        W48009  24.299  13.151  14.816
77410W        W48010   0.799   5.794   4.760
77411W        W48011   9.674  11.971  14.040
77412W        W48012  24.049  42.720  12.000
77413W        W48013  13.250   6.227  14.031
77414W        W48014  18.683  38.344   0.720
77415W        W48015   3.610  13.180  14.677
77416W        W48016  36.585  44.521  12.491
77417W        W48017  40.120  19.085   3.973
77418W        W48018   9.868  38.571   1.625
77419W        W48019  18.787   9.680   0.479
77420W        W48020  10.069   5.596   5.159
77421W        W48021   5.774  22.498  11.965
77422W        W48022  28.866   9.822  14.506
77423W        W48023  25.903  34.451   0.395
77424W        W48024  14.014   9.067  14.006
77425W        W48025  39.489  17.834  13.372
77426W        W48026   6.014   9.640   2.805
77427W        W48027  35.347  23.468   2.249
77428W        W48028  32.622  37.817   4.478
77429W        W48029   8.069  37.683   3.115
77430W        W48030  29.187  41.591  10.337
77431W        W48031  33.608   9.670   4.727
77432W        W48032  32.048  28.465   2.696
77433W        W48033  10.436  22.564  13.153
77434W        W48034   4.939  29.697   4.067
77435W        W48035  42.584  42.790   1.815
77436W        W48036  16.870   6.247  14.410
77437W        W48037  39.019   6.680   3.674
77438W        W48038   7.913  35.227   0.338
77439W        W48039  17.625  40.786   0.443
77440W        W48040  25.603   8.689  13.699
77441W        W48041  11.375  24.530   2.690
77442W        W48042  37.340  37.124   3.138
77443W        W48043  41.770  26.165   2.481
77444W        W48044  32.935  17.588  14.831
77445W        W48045  17.556  33.061  13.572
77446W        W48046   2.479   6.635  10.118
77447W        W48047  37.575  44.983  14.286
77448W        W48048  29.053  27.469  14.243
77449W        W48049  40.046  27.698  10.696
77450W        W48050  39.586  21.918  11.072
77451W        W48051   0.415  14.661   2.354
77452W        W48052  17.154  28.953  13.527
77453W        W48053   3.708  36.651  10.276
77454W        W48054  43.741  15.222  13.959
77455W        W48055  27.937  35.967   1.200
77456W        W48056  19.603  38.316   0.084
77457W        W48057  14.966  27.340  11.185
77458W        W48058  20.241   4.380   4.476
77459W        W48059  16.507  44.747   0.082
77460W        W48060  11.196  12.518   2.763
77461W        W48061   3.965  34.792   3.044
77462W        W48062  19.322  43.745  13.795
77463W        W48063  44.393  39.846   4.279
77464W        W48064  41.548   7.056   1.123
77465W        W48065  22.617  43.238   3.716
77466W        W48066  28.540  35.399   0.726
77467W        W48067  25.733  36.496   0.929
77468W        W48068   3.169  36.335   1.984
77469W        W48069  19.018   4.452   3.810
77470W        W48070  27.479  32.369  14.813
77471W        W48071   3.350  19.586  11.220
77472W        W48072  33.511   0.035   2.668
77473W        W48073  19.543  43.482  14.914
77474W        W48074  19.675  27.171  12.530
77475W        W48075  18.611  15.183  10.569
77476W        W48076  11.491  19.594  13.043
77477W        W48077   3.824  37.662  11.096
77478W        W48078   7.880   4.950   3.149
77479W        W48079  41.275   5.380  12.167
77480W        W48080  30.152  20.089   4.516
77481W        W48081  13.988  33.607   1.736
77482W        W48082  28.846  22.376   1.248
77483W        W48083   6.439   4.897   3.759
77484W        W48084  25.907  27.712  11.377
77485W        W48085  40.065  33.608  10.618
77486W        W48086  44.947  19.823  14.446
77487W        W48087   3.286  36.351   0.211
77488W        W48088   8.728  27.258   4.131
77489W        W48089  24.127  10.613   1.229
77490W        W48090   9.325  17.077   4.495
77491W        W48091  42.825  31.866   2.199
77492W        W48092  31.699  41.502   0.930
77493W        W48093  24.020  39.355   0.460
77494W        W48094   9.713  25.996   2.881
77495W        W48095  28.956  35.564  13.032
77496W        W48096   0.459   7.804  14.068
77497W        W48097  29.535  44.854  11.812
77498W        W48098   1.180  16.329  14.863
77499W        W48099   8.368  34.059  13.973
77500W        W48100  25.315  34.536  12.555
77501W        W48101  19.643   0.869  13.824
77502W        W48102  42.740  31.035  12.420
77503W        W48103   5.517   5.864  13.026
77504W        W48104  32.903  38.940  14.474
77505W        W48105  10.560  39.000  11.974
77506W        W48106  17.656  19.594  12.387
77507W        W48107  42.919   7.901   3.182
77508W        W48108  30.529  36.662  11.122
77509W        W48109  26.250  20.970  13.882
77510W        W48110  17.057  22.492   0.943
77511W        W48111  29.679   3.279  12.103
77512W        W48112  22.651   0.478  11.264
77513W        W48113  32.529   4.391  14.553
77514W        W48114  42.386  31.816  10.837
77515W        W48115   8.608  38.358   2.837
77516W        W48116  13.131  21.311  12.362
77517W        W48117  29.166  40.292  14.607
77518W        W48118  43.323   7.773  10.786
77519W        W48119   0.052  41.956  14.824
77520W        W48120  31.558   7.608  10.458
77521W        W48121  42.924  22.591   1.759
77522W        W48122  13.187  24.956  12.424
77523W        W48123  10.903   0.181  13.711
77524W        W48124  29.718  34.023   3.408
77525W        W48125   1.263   9.159  12.715
77526W        W48126  18.815  23.624   3.692
77527W        W48127  26.622  41.273   3.631
77528W        W48128  34.162  44.528   2.481
77529W        W48129  22.484  27.671  14.526
77530W        W48130  41.591  27.483  12.142
77531W        W48131  36.425  21.231  14.322
77532W        W48132  33.417  23.520  12.108
77533W        W48133  34.618  25.183   1.750
77534W        W48134   8.182   9.815  12.723
77535W        W48135   2.241  29.944   3.683
77536W        W48136   6.219   7.133  11.893
77537W        W48137   5.424  18.181   2.913
77538W        W48138  40.769  17.735   3.070
77539W        W48139  16.544   4.525  11.134
77540W        W48140  24.979  18.534   1.883
77541W        W48141  44.428  34.728   5.055
77542W        W48142  39.175  18.139  14.862
77543W        W48143  19.125  13.775   4.274
77544W        W48144  40.874  33.949  12.399
77545W        W48145  11.427  34.040  12.097
77546W        W48146  36.479  11.777   5.061
77547W        W48147   2.023  26.191  11.542
77548W        W48148  25.033  16.853   0.410
77549W        W48149  44.998  29.453  14.931
77550W        W48150   3.026  42.306  12.496
77551W        W48151  14.591  26.725  12.933
77552W        W48152  27.580  38.485  10.707
77553W        W48153  21.283  10.578  14.778
77554W        W48154  16.649  15.048   4.890
77555W        W48155  26.080  10.595  14.937
77556W        W48156  25.043  24.168   3.041
77557W        W48157  21.382  25.211  11.929
77558W        W48158  20.325  40.842   3.155
77559W        W48159  41.334  27.905   0.405
77560W        W48160  28.391  31.554   4.743
77561W        W48161  10.163  26.533  13.573
77562W        W48162  14.643  23.493  13.915
77563W        W48163  44.411  18.762   4.113
77564W        W48164  41.980  22.512  14.487
77565W        W48165   4.020  36.028  12.046
77566W        W48166  26.497  39.164   3.789
77567W        W48167  23.155  30.615  10.552
77568W        W48168  42.289  39.602   0.947
77569W        W48169  23.773  31.587   2.819
77570W        W48170  12.997  42.952   1.320
77571W        W48171  33.767  40.344   4.974
77572W        W48172  22.228  14.347   1.360
77573W        W48173  17.058   1.238  11.586
77574W        W48174  43.924   5.094  11.611
77575W        W48175  39.799  12.776  13.860
77576W        W48176  27.947   1.915  10.490
77577W        W48177  44.496  11.206   4.473
77578W        W48178  12.807  17.253   2.953
77579W        W48179   6.112  31.230  14.928
77580W        W48180   3.870  37.532   4.217
77581W        W48181  27.551  21.709  11.198
77582W        W48182  39.511  16.159   3.546
77583W        W48183  10.842  30.003   2.267
77584W        W48184  44.420  16.630  10.740
77585W        W48185  27.679  38.754   2.827
77586W        W48186  27.498  31.467   2.235
77587W        W48187  10.620  26.139  10.940
77588W        W48188   4.535   3.908   0.532
77589W        W48189   4.193  32.421   3.951
77590W        W48190  44.214  13.063   0.423
77591W        W48191  23.120  40.900   1.212
77592W        W48192  29.760   7.105  14.400
77593W        W48193   7.205   0.725   3.249
77594W        W48194  31.625  43.787  12.033
77595W        W48195  25.667  12.318  13.105
77596W        W48196  41.851   7.199   2.227
77597W        W48197   2.240  37.794   0.350
77598W        W48198  35.566   3.017   4.283
77599W        W48199  35.521  12.348   4.909
77600W        W48200  44.788  14.288   1.954
77601W        W48201  44.826  10.123   3.732
77602W        W48202  22.871  44.723  13.876
77603W        W48203  16.704  22.668  14.996
77604W        W48204   1.674  25.620   3.999
77605W        W48205   7.838  34.310   1.261
77606W        W48206  10.707  24.633  14.837
77607W        W48207  28.911  23.315  12.112
77608W        W48208  14.585  37.580   1.391
77609W        W48209  24.413   6.926  12.070
77610W        W48210  43.426  18.784   3.160
77611W        W48211  20.680  36.605   3.362
77612W        W48212  12.373  14.201  13.917
77613W        W48213  16.211  16.879   3.136
77614W        W48214   9.089   5.882   2.814
77615W        W48215  13.454  20.683  11.607
77616W        W48216  13.556  37.092  11.721
77617W        W48217  10.081  30.508  13.001
77618W        W48218  43.868   1.392   3.558
77619W        W48219   6.746   1.203  14.361
77620W        W48220  15.836  40.531   0.316
77621W        W48221  36.512   5.943  13.630
77622W        W48222  17.305  16.228  12.502
77623W        W48223   4.734   6.452   4.498
77624W        W48224  39.474   3.437  11.042
77625W        W48225  16.364  41.890   4.915
77626W        W48226  30.515  19.060  14.755
77627W        W48227  41.810  17.511  11.568
77628W        W48228  12.580  22.318   2.347
77629W        W48229  26.376  33.488   4.947
77630W        W48230   2.903  34.467   1.379
77631W        W48231  27.171  23.459   0.526
77632W        W48232   5.299  41.354   2.646
77633W        W48233  37.389   7.886   0.431
77634W        W48234  34.453  15.030  13.883
77635W        W48235  23.449  14.682  11.191
77636W        W48236  33.045  44.975   4.144
77637W        W48237   3.409  20.024   0.864
77638W        W48238  17.369  36.163   2.604
77639W        W48239  41.900  34.395   4.635
77640W        W48240  27.411  37.935  11.600
77641W        W48241  26.921  38.560  11.923
77642W        W48242  30.849   9.750   3.261
77643W        W48243  13.745  27.768  10.529
77644W        W48244  37.859   4.782  14.754
77645W        W48245  40.395   3.096   2.164
77646W        W48246  35.409  13.102  12.134
77647W        W48247  12.041  39.989  12.429
77648W        W48248  23.473  17.169  14.305
77649W        W48249  12.227  13.102   0.068
77650W        W48250   5.325  28.349   0.417
77651W        W48251  15.187  38.508   2.909
77652W        W48252  26.133  15.793   1.359
77653W        W48253  11.469  36.083   4.558
77654W        W48254  19.037   0.967   4.041
77655W        W48255   8.167  36.148  14.364
77656W        W48256  29.125  14.848  11.502
77657W        W48257  44.882  28.375  11.708
77658W        W48258  39.260  28.188  13.788
77659W        W48259  18.044  33.472   4.518
77660W        W48260   9.227  35.519   0.909
77661W        W48261   0.269  41.429   2.610
77662W        W48262  35.469  10.581   4.013
77663W        W48263  34.038   2.928  11.643
77664W        W48264  31.412  28.013   1.325
77665W        W48265  34.140  16.689  11.926
77666W        W48266  11.758  30.541   1.180
77667W        W48267  18.066   1.057   3.671
77668W        W48268   7.960   4.335  11.062
77669W        W48269  35.323  17.167  14.903
77670W        W48270   4.749  22.984   1.432
77671W        W48271  43.010  30.136   4.733
77672W        W48272  35.412  10.229  11.166
77673W        W48273  13.672  34.328   0.559
77674W        W48274  14.066  26.136   5.048
77675W        W48275   8.736  32.203  14.099
77676W        W48276  28.461  22.505   3.667
77677W        W48277  26.223  36.323  14.995
77678W        W48278  31.006  16.626  13.339
77679W        W48279  31.373  37.349  10.653
77680W        W48280   0.743  32.664   3.726
77681W        W48281  30.218  33.913   4.092
77682W        W48282  26.566  40.319  12.501
77683W        W48283  41.791  11.086  11.527
77684W        W48284  30.586  14.062   0.561
77685W        W48285  32.024  25.418  11.507
77686W        W48286  16.007   8.839  14.124
77687W        W48287  14.857  38.008  11.525
77688W        W48288  14.066  20.105  14.501
77689W        W48289   7.722   9.773   2.504
77690W        W48290  27.305  35.124  14.717
77691W        W48291   7.562  12.787   0.169
77692W        W48292   5.509  25.252   3.989
77693W        W48293   3.045  14.684  12.166
77694W        W48294   0.422  12.069   0.343
77695W        W48295   9.817  33.915  14.759
77696W        W48296   4.956   0.482  12.557
77697W        W48297   9.012   9.796  10.982
77698W        W48298  29.174  25.031   1.364
77699W        W48299   5.384  32.541  13.367
77700W        W48300  14.527  28.576   1.866
77701W        W48301  14.891  16.477   4.163
77702W        W48302  40.242   0.423   0.730
77703W        W48303  13.225  26.811  12.837
77704W        W48304  13.410  23.900   3.869
77705W        W48305  13.216   9.383  13.487
77706W        W48306  25.952  36.581   1.421
77707W        W48307  44.365  38.195  13.641
77708W        W48308  18.153   5.306  10.589
77709W        W48309  31.120   7.745   0.443
77710W        W48310  21.002   4.386   2.714
77711W        W48311  27.723  40.611  13.969
77712W        W48312   4.046   2.542   0.831
77713W        W48313  43.044  18.785   2.209
77714W        W48314   9.096   6.842  11.577
77715W        W48315  38.087  14.772   0.846
77716W        W48316  26.327  10.203   5.018
77717W        W48317  31.062  21.813   2.204
77718W        W48318  32.114  31.684   3.192
77719W        W48319  20.736  33.913   1.838
77720W        W48320  35.479  14.113   3.866
77721W        W48321  39.080  15.213   4.340
77722W        W48322  42.354  16.360  12.106
77723W        W48323  20.121   9.310   1.918
77724W        W48324   2.209  34.532   0.681
77725W        W48325  39.092  33.519  11.625
77726W        W48326   7.894   3.612   3.359
77727W        W48327  25.723  21.205   0.938
77728W        W48328  39.547  18.814   1.810
77729W        W48329   1.980   6.461  10.694
77730W        W48330  37.645   1.909  11.408
77731W        W48331  40.775  11.754   3.997
77732W        W48332  26.806  38.137  14.322
77733W        W48333  17.774  22.931   3.628
77734W        W48334  36.629  22.581  12.596
77735W        W48335  39.484  18.730   0.769
77736W        W48336  41.841  31.985  10.739
77737W        W48337   5.657   0.389  11.596
77738W        W48338  21.549  38.848   0.790
77739W        W48339  39.970  28.583   4.862
77740W        W48340  32.827   9.434   1.814
77741W        W48341  32.210   3.702  13.463
77742W        W48342  34.588  33.397  10.433
77743W        W48343  38.426  39.502  13.485
77744W        W48344  39.908  30.419   4.309
77745W        W48345   8.221  42.738  13.423
77746W        W48346  38.331  11.308  11.563
77747W        W48347  10.664  18.619   2.259
77748W        W48348  19.356   1.399   2.409
77749W        W48349   7.444  32.643   1.583
77750W        W48350  44.409   3.399   1.868
77751W        W48351  18.728  17.742   3.780
77752W        W48352  33.504   7.755   0.915
77753W        W48353  15.781  11.622   3.308
77754W        W48354   3.413  42.916   4.645
77755W        W48355  16.804   2.080  13.891
77756W        W48356   1.548  23.945   4.182
77757W        W48357   1.902  10.222   1.688
77758W        W48358   7.665   4.836  12.450
77759W        W48359  31.989   4.136   0.198
77760W        W48360   9.218  25.881   2.760
77761W        W48361  23.881   5.357  12.498
77762W        W48362  29.249  21.637   0.886
77763W        W48363   8.489   2.182   4.928
77764W        W48364  43.556  20.008   3.655
77765W        W48365   4.791  32.003  11.049
77766W        W48366  42.078  38.081  11.363
77767W        W48367   9.718  37.559  11.799
77768W        W48368  42.030  42.895  13.124
77769W        W48369   9.961  43.769   2.876
77770W        W48370  37.976  12.246   1.221
77771W        W48371  12.484  38.050  12.503
77772W        W48372  17.855  38.469  12.036
77773W        W48373  42.925  35.822  14.537
77774W        W48374  36.520  18.149  14.946
77775W        W48375  41.368  19.109  14.412
77776W        W48376  41.154  25.278   2.215
77777W        W48377  18.849   1.484   2.240
77778W        W48378  38.401   4.892   3.276
77779W        W48379   4.462  43.857   0.227
77780W        W48380   4.798  16.323  11.462
77781W        W48381  24.672  27.493  14.887
77782W        W48382  41.495  23.646  14.715
77783W        W48383  28.727  12.207  11.536
77784W        W48384   6.342   2.235   0.813
77785W        W48385   7.165  23.815   0.869
77786W        W48386  27.594   8.833  13.563
77787W        W48387  39.326   0.261   1.448
77788W        W48388  38.765   0.038   4.089
77789W        W48389  32.355  26.120  13.860
77790W        W48390   0.979   0.917  12.163
77791W        W48391  42.981  30.231  10.567
77792W        W48392  31.582   5.772   3.297
77793W        W48393   3.404  35.864  12.510
77794W        W48394  25.890  19.751   1.817
77795W        W48395  14.578  16.773  13.641
77796W        W48396  24.992  17.630   4.867
77797W        W48397  37.027  42.159  13.469
77798W        W48398   1.195  44.228  10.185
77799W        W48399  29.974  18.505  14.801
77800W        W48400  22.453  40.165   2.476
77801W        W48401  28.741  27.614   2.300
77802W        W48402   9.199  29.478  12.699
77803W        W48403  38.019  16.526  11.015
77804W        W48404   1.291  44.515  11.591
77805W        W48405   5.112   7.441  10.577
77806W        W48406  34.830  20.308  14.954
77807W        W48407  44.804  31.315   0.184
77808W        W48408  38.934  44.664   0.846
77809W        W48409  19.222  33.582  13.911
77810W        W48410  16.205  35.409   2.181
77811W        W48411   6.540   8.721  11.101
77812W        W48412  41.898  28.065   2.543
77813W        W48413   7.480   1.310  12.897
77814W        W48414  16.529  42.987  10.975
77815W        W48415   7.397   1.796  10.659
77816W        W48416  31.263  38.349   3.749
77817W        W48417   1.930  26.644  14.202
77818W        W48418  23.093   6.692   4.594
77819W        W48419   9.616  22.325   0.179
77820W        W48420  14.865   7.963   3.652
77821W        W48421  32.922  17.074  11.598
77822W        W48422  30.091   2.022  14.333
77823W        W48423  43.923  18.386   0.728
77824W        W48424  37.843  18.750   2.264
77825W        W48425  24.254  25.108  10.789
77826W        W48426  30.068  44.005   2.333
77827W        W48427   0.776   8.185   4.848
77828W        W48428   6.670   6.596  11.027
77829W        W48429  41.922  28.260   1.157
77830W        W48430  21.683  11.783  10.044
77831W        W48431  24.932  36.001   2.856
77832W        W48432  41.904  15.328  14.324
77833W        W48433  11.805   4.844   1.263
77834W        W48434   5.952   3.852   4.525
77835W        W48435  33.866   2.688  12.725
77836W        W48436  20.020  14.426   4.437
77837W        W48437  39.874   9.922  13.831
77838W        W48438  19.488   2.283  13.613
77839W        W48439  26.642  35.662  11.078
77840W        W48440  36.253  18.564   3.199
77841W        W48441  11.238   1.901  12.790
77842W        W48442  32.988  11.590  13.959
77843W        W48443  33.842  17.329   4.952
77844W        W48444  19.373  28.162   4.756
77845W        W48445  28.451   1.307   2.705
77846W        W48446  43.461  12.575   1.660
77847W        W48447  10.993  30.044  14.270
77848W        W48448   7.251  30.814  10.992
77849W        W48449  29.085   1.819   2.396
77850W        W48450  11.451  25.208  13.668
77851W        W48451  42.079  23.004   4.116
77852W        W48452  19.350  35.397   2.053
77853W        W48453   6.730  12.387  13.078
77854W        W48454  35.692   3.912   1.780
77855W        W48455  22.069  22.989   2.620
77856W        W48456  24.881  27.591  11.643
77857W        W48457  15.213  18.688  11.106
77858W        W48458  33.604  36.521  10.391
77859W        W48459  23.001  39.960   4.049
77860W        W48460  30.076  13.170   2.102
77861W        W48461  42.061  27.178   4.575
77862W        W48462  25.125  44.483  13.616
77863W        W48463  35.590  10.270   2.748
77864W        W48464   5.023  20.979   5.031
77865W        W48465  23.298  37.506  14.719
77866W        W48466  12.906  20.716  12.329
77867W        W48467  30.907  14.320   3.814
77868W        W48468  28.468  23.567  12.043
77869W        W48469   3.362  21.926  13.591
77870W        W48470  13.687   4.205   2.202
77871W        W48471  21.239  21.689   2.277
77872W        W48472   6.190  13.501   2.144
77873W        W48473  28.761  44.494  14.852
77874W        W48474  38.551  43.852  14.763
77875W        W48475  14.629  35.050   1.365
77876W        W48476   2.696  12.043  10.734
77877W        W48477  37.193  26.614   3.254
77878W        W48478   3.769  22.379  10.649
77879W        W48479  39.582  14.826  13.144
77880W        W48480  23.615  36.809  13.860
77881W        W48481  21.704  31.584   4.491
77882W        W48482   9.948  13.840  12.895
77883W        W48483  10.805  41.419   1.090
77884W        W48484  28.581   0.212   4.348
77885W        W48485   0.002  38.250  11.796
77886W        W48486  26.991  32.685  11.106
77887W        W48487  26.940  35.975   3.357
77888W        W48488   0.855  17.098  12.788
77889W        W48489  24.957  43.839   0.708
77890W        W48490  41.725  17.752   1.386
77891W        W48491  30.649   9.317  14.236
77892W        W48492  40.572  24.107   1.933
77893W        W48493  27.621  13.920   0.496
77894W        W48494  36.873  17.639   4.734
77895W        W48495  21.944   1.124  14.357
77896W        W48496  19.132  19.324  14.363
77897W        W48497  14.656  14.768  13.429
77898W        W48498  16.263  30.005   1.052
77899W        W48499  39.468  42.654   1.916
77900W        W48500  15.923  34.515  13.984
77901W        W48501   6.227   0.862  13.939
77902W        W48502   4.805  11.903  13.964
77903W        W48503   2.014  32.974  14.259
77904W        W48504  31.966  44.825   2.705
77905W        W48505  33.977   0.367   1.506
77906W        W48506  16.685  36.117  10.369
77907W        W48507  40.753  35.628  13.155
77908W        W48508  44.890  38.295  12.812
77909W        W48509  22.334   1.950   1.207
77910W        W48510  44.817  22.680   3.903
77911W        W48511  17.996  30.930  13.357
77912W        W48512  23.623   8.195   0.932
77913W        W48513   1.249  38.440   4.235
77914W        W48514   0.990  37.148   2.781
77915W        W48515  39.896  30.741  11.177
77916W        W48516  13.695  28.928  11.166
77917W        W48517   4.034  24.628  12.984
77918W        W48518  41.221   7.963   0.961
77919W        W48519  17.958  25.960  13.571
77920W        W48520  26.199   6.655   2.479
77921W        W48521  25.639  27.130  12.547
77922W        W48522   6.778   6.649   1.856
77923W        W48523  41.585   8.449   2.278
77924W        W48524  27.938  12.582   2.313
77925W        W48525  42.336   5.205  12.523
77926W        W48526  23.968  22.642   2.616
77927W        W48527  28.450   2.342   1.815
77928W        W48528  17.191  18.290  14.470
77929W        W48529  28.741  19.687  14.386
77930W        W48530  16.250  36.466   0.343
77931W        W48531  38.368  22.435  14.818
77932W        W48532   4.467   2.868   0.829
77933W        W48533   8.794   2.965  11.991
77934W        W48534  42.582  28.223   0.933
77935W        W48535  39.145  11.314  11.174
77936W        W48536  42.607  10.429  11.291
77937W        W48537   4.287  12.778   1.650
77938W        W48538  40.285   8.243  11.225
77939W        W48539  25.798  43.950   3.606
77940W        W48540  28.150  36.351   1.946
77941W        W48541  23.866  18.037  11.995
77942W        W48542  21.066  26.160   4.568
77943W        W48543   0.114   5.460   4.786
77944W        W48544  33.623  28.017   1.032
77945W        W48545  41.878  10.570  12.871
77946W        W48546  30.925  37.346   4.668
77947W        W48547   2.307  38.848  10.668
77948W        W48548  42.599   0.310  14.848
77949W        W48549  16.101  34.380   2.959
77950W        W48550  27.969  40.541   4.570
77951W        W48551  15.629  27.010  12.638
77952W        W48552  27.892  26.514   3.553
77953W        W48553   5.091  32.802   2.628
77954W        W48554   1.520   3.301   4.625
77955W        W48555  38.264  43.097   3.664
77956W        W48556  30.373  20.270   2.677
77957W        W48557  16.740  17.156   0.014
77958W        W48558  42.812  32.628   2.734
77959W        W48559   7.927  17.175  13.151
77960W        W48560  17.982  14.770  12.977
77961W        W48561   5.917  34.422  13.898
77962W        W48562  18.583  25.420   4.035
77963W        W48563   6.847  42.633   3.784
77964W        W48564  14.486  17.179   3.626
77965W        W48565  16.625  17.333   2.374
77966W        W48566   8.791  10.361   3.651
77967W        W48567   2.445  18.034  14.878
77968W        W48568   1.791  24.389  13.886
77969W        W48569   6.695   7.746  14.431
77970W        W48570   1.679  40.748  12.039
77971W        W48571  20.781   7.787  13.963
77972W        W48572  40.069   3.680   1.230
77973W        W48573  37.621   2.149   2.632
77974W        W48574  17.149  19.491   4.442
77975W        W48575   4.342  32.442  12.545
77976W        W48576  35.472   1.319   3.877
77977W        W48577  35.548   8.987  14.236
77978W        W48578  32.974  12.271   2.282
77979W        W48579  26.939  38.734  14.307
77980W        W48580   1.893  11.333   1.060
77981W        W48581   6.046  15.405  11.165
77982W        W48582  39.329   1.503   4.592
77983W        W48583  11.674  25.696  12.167
77984W        W48584   1.120  26.218   3.617
77985W        W48585  35.882  25.730  11.588
77986W        W48586  10.707  17.624  11.621
77987W        W48587  21.199  24.489  13.459
77988W        W48588   5.790  40.897  13.657
77989W        W48589  23.601  20.135   4.903
77990W        W48590  44.791  25.961   2.803
77991W        W48591  22.787  31.709   9.725
77992W        W48592  36.143   8.083  12.049
77993W        W48593  32.088  35.644  10.680
77994W        W48594  36.669  32.408  11.153
77995W        W48595  44.212  13.314  10.943
77996W        W48596  41.017  34.615  11.236
77997W        W48597  38.476  10.104  13.939
77998W        W48598   1.571  34.762  11.253
77999W        W48599  29.024  40.969  13.810
78000W        W48600  13.630  12.888  11.132
78001W        W48601  26.746  19.529  10.767
78002W        W48602  41.846  21.038   0.535
78003W        W48603  24.716   9.174  13.902
78004W        W48604  24.944   6.539   4.135
78005W        W48605  21.282  29.700  10.921
78006W        W48606  30.938  11.219   0.724
78007W        W48607  22.367  11.336   1.824
78008W        W48608  34.333  17.177  13.034
78009W        W48609  10.862  40.103  11.084
78010W        W48610  18.261  10.210  13.460
78011W        W48611  36.551   4.988   3.383
78012W        W48612  16.204   6.985  11.427
78013W        W48613   4.461  21.820  14.483
78014W        W48614  39.758  38.916  12.149
78015W        W48615   4.283   2.626   1.339
78016W        W48616  39.267  22.491  11.567
78017W        W48617  27.859  41.034  11.425
78018W        W48618  33.906   0.136   0.315
78019W        W48619  34.049  31.579   4.540
78020W        W48620  23.666  22.502   4.115
78021W        W48621  16.278   4.349  13.119
78022W        W48622  13.192  41.125  11.118
78023W        W48623  12.586  20.232  13.387
78024W        W48624   9.340  34.267  14.853
78025W        W48625  36.302   6.957   1.250
78026W        W48626   2.217  22.984  12.354
78027W        W48627  18.744  12.066  12.493
78028W        W48628   8.034  13.385   4.221
78029W        W48629   3.771  34.085  11.976
78030W        W48630  10.065  29.553  12.910
78031W        W48631  43.980   3.407   0.026
78032W        W48632  23.907   2.535   3.133
78033W        W48633  35.481  10.362  13.788
78034W        W48634  35.849  12.352   3.238
78035W        W48635   2.696  16.237  12.456
78036W        W48636  40.213  21.753   4.881
78037W        W48637  41.097  29.017  11.987
78038W        W48638  38.707  36.935  14.773
78039W        W48639  40.487  40.322  14.937
78040W        W48640  40.396  37.705  11.015
78041W        W48641  35.078   5.639   3.805
78042W        W48642  17.630  23.634  13.745
78043W        W48643  37.614  25.269  13.141
78044W        W48644  20.227   1.722  12.870
78045W        W48645  41.698  25.560  13.186
78046W        W48646   2.945   6.307   2.835
78047W        W48647  23.144   2.742   1.000
78048W        W48648   2.973   3.392   2.420
78049W        W48649  18.104  25.590  14.836
78050W        W48650  24.097  32.130  14.961
78051W        W48651  20.028  25.275   4.094
78052W        W48652  44.788  13.265   3.059
78053W        W48653   1.737   4.941   3.156
78054W        W48654  40.945  30.004   2.813
78055W        W48655   3.418  44.255   1.792
78056W        W48656   4.228  21.537  14.120
78057W        W48657  41.303  36.459  14.242
78058W        W48658   5.938  37.083  10.617
78059W        W48659  13.483   4.385  11.098
78060W        W48660  34.070  17.263   2.588
78061W        W48661  15.246  13.381   0.364
78062W        W48662  36.454   4.872  13.009
78063W        W48663  29.249   1.333  11.370
78064W        W48664   2.983   3.409  11.536
78065W        W48665  27.519   2.669  11.871
78066W        W48666  41.716  27.031  10.795
78067W        W48667   0.855  20.630  11.590
78068W        W48668  35.033  13.352   2.206
78069W        W48669  33.288  42.971  14.845
78070W        W48670  39.833  33.618  11.077
78071W        W48671  19.626  34.477  14.464
78072W        W48672  29.622  41.633   3.462
78073W        W48673  43.996   1.495   1.296
78074W        W48674  17.829  25.574   2.253
78075W        W48675  18.185  21.809   0.364
78076W        W48676  19.779  21.531   4.584
78077W        W48677   3.897  29.493   4.228
78078W        W48678  41.385  43.240   0.745
78079W        W48679  14.136  27.122   0.761
78080W        W48680  39.400  16.972   3.844
78081W        W48681   4.197  39.557   1.531
78082W        W48682  22.278  10.690   3.348
78083W        W48683  21.068  23.723  10.544
78084W        W48684  19.558   5.680   2.194
78085W        W48685  10.072   6.846   4.819
78086W        W48686  42.718  31.291  10.174
78087W        W48687  27.193  20.014   1.291
78088W        W48688   3.262  15.078   0.967
78089W        W48689  14.492  17.251   1.423
78090W        W48690  35.851   4.614   4.751
78091W        W48691  14.731  41.021   3.654
78092W        W48692   4.678   0.216   3.775
78093W        W48693  39.991  29.483  13.928
78094W        W48694  37.792   0.509  11.686
78095W        W48695   6.779  27.089  12.033
78096W        W48696   8.204  23.186  12.840
78097W        W48697  26.505   7.889   2.002
78098W        W48698  12.834  16.623  12.860
78099W        W48699  42.236  43.959   3.512
78100W        W48700  11.729  39.041   4.111
78101W        W48701  18.521   7.227  12.597
78102W        W48702   8.782  43.041   1.213
78103W        W48703  31.991  40.778   9.952
78104W        W48704   6.510  13.130   4.124
78105W        W48705  33.905  17.535   1.292
78106W        W48706  11.884  32.438   0.258
78107W        W48707   9.313  20.207   3.432
78108W        W48708  33.130  19.703   3.541
78109W        W48709  21.776   4.573   5.033
78110W        W48710   2.875  17.167   0.557
78111W        W48711  14.384  34.405   2.223
78112W        W48712  19.007   7.689  13.896
78113W        W48713  43.354  22.390  14.950
78114W        W48714   6.909  10.601  13.791
78115W        W48715  13.198  34.957  11.374
78116W        W48716  34.559  36.277   1.794
78117W        W48717  23.774  31.682   4.569
78118W        W48718  14.945  20.372   2.112
78119W        W48719  28.634  20.846   0.837
78120W        W48720  23.463  43.925  13.517
78121W        W48721  28.599  40.590   3.238
78122W        W48722  31.150  34.093   3.262
78123W        W48723  44.922  27.745   4.232
78124W        W48724  33.781  31.640   4.987
78125W        W48725  30.690  27.800  11.078
78126W        W48726  19.269   0.632   1.330
78127W        W48727  39.560  25.640   0.332
78128W        W48728  32.516  29.504   3.243
78129W        W48729  18.116  15.393  10.476
78130W        W48730  30.823  42.607   2.308
78131W        W48731  13.775  36.879   2.950
78132W        W48732   2.254  37.344  10.699
78133W        W48733  23.756  14.746   4.084
78134W        W48734  27.016  43.081  12.379
78135W        W48735  41.863   1.011  10.741
78136W        W48736  39.421   7.188   4.096
78137W        W48737  20.577  43.832   3.231
78138W        W48738  26.846  28.054   1.219
78139W        W48739  30.854   3.355  14.349
78140W        W48740  17.882   9.381   0.977
78141W        W48741  36.652   6.444  14.339
78142W        W48742  40.968  33.564   3.327
78143W        W48743  38.225  34.005   4.222
78144W        W48744   5.792  10.601   0.320
78145W        W48745  27.059  11.048   0.771
78146W        W48746  15.305  15.241  14.396
78147W        W48747  33.777  26.498  11.136
78148W        W48748   7.765  20.011  12.425
78149W        W48749  21.964   2.962   1.220
78150W        W48750  20.492  24.010  12.890
78151W        W48751  11.266   1.868   1.657
78152W        W48752  17.133  44.927  13.258
78153W        W48753  21.069  17.951   3.742
78154W        W48754  22.139   2.674   0.223
78155W        W48755  41.464  41.884   0.408
78156W        W48756  21.070   1.712  14.232
78157W        W48757   2.497  21.204   2.249
78158W        W48758  16.576  13.867  13.954
78159W        W48759  13.602  26.750  13.550
78160W        W48760  29.872  28.186   3.254
78161W        W48761  28.627  15.550  11.208
78162W        W48762  10.202  10.845  13.084
78163W        W48763  20.122  29.563  10.937
78164W        W48764   4.010  15.056   1.861
78165W        W48765  17.701  10.073  11.480
78166W        W48766   5.205  11.061   1.312
78167W        W48767  13.082  40.539  12.593
78168W        W48768  25.197  16.593   1.761
78169W        W48769  33.990  40.468   3.289
78170W        W48770  43.501  31.157  12.918
78171W        W48771  18.022  42.904   1.713
78172W        W48772  40.234   7.309   3.673
78173W        W48773  43.428   7.431   1.971
78174W        W48774  12.610  10.197  11.175
78175W        W48775  36.913  30.411  12.401
78176W        W48776  40.158  32.832   2.259
78177W        W48777   2.234  14.410  10.792
78178W        W48778  10.510   8.267  14.459
78179W        W48779  15.834  44.070  13.839
78180W        W48780  31.083   5.385   3.547
78181W        W48781  40.941   2.789   0.853
78182W        W48782   3.665  41.402   1.834
78183W        W48783  33.575  23.068   0.901
78184W        W48784  13.396  24.376  13.674
78185W        W48785  27.167  35.969  13.154
78186W        W48786  26.187  17.755  13.080
78187W        W48787  36.036   5.243  14.143
78188W        W48788  31.003  24.750  14.772
78189W        W48789   6.396  33.087   3.043
78190W        W48790  42.442  19.946   2.214
78191W        W48791   5.994  19.776  13.306
78192W        W48792  31.075  36.433   4.169
78193W        W48793   6.169   5.753  11.631
78194W        W48794   4.278   3.514  11.075
78195W        W48795  41.803  33.554   1.542
78196W        W48796  37.560  41.865   3.166
78197W        W48797  44.354   9.732   0.370
78198W        W48798  12.292  20.200   1.820
78199W        W48799  19.456  42.543  13.722
78200W        W48800  22.343  16.296   4.377
78201W        W48801  17.546  44.019  14.420
78202W        W48802  10.358  39.270   2.159
78203W        W48803  42.376  24.286   2.627
78204W        W48804  11.522   2.625  14.313
78205W        W48805   7.242  15.103   2.690
78206W        W48806  33.805  41.431  12.351
78207W        W48807  37.557  28.757  13.177
78208W        W48808  19.167   8.890   1.874
78209W        W48809   0.418  38.506  12.047
78210W        W48810  10.606  28.755  13.974
78211W        W48811  13.825  25.504  14.980
78212W        W48812  33.505   6.906  11.535
78213W        W48813  18.215  22.723  13.236
78214W        W48814  22.370  23.488  12.421
78215W        W48815  12.214  15.290  11.386
78216W        W48816  26.579  32.496   3.599
78217W        W48817   0.013  42.265   1.468
78218W        W48818   9.978   0.865  10.641
78219W        W48819   8.958  18.364  12.212
78220W        W48820  16.734  34.973   0.952
78221W        W48821  25.268  28.705   1.854
78222W        W48822  24.127  39.844  11.686
78223W        W48823  12.528   6.799   2.292
78224W        W48824  41.965   6.992   0.410
78225W        W48825   7.513  33.532   3.314
78226W        W48826  44.992  25.631  11.165
78227W        W48827  38.027  36.113   4.198
78228W        W48828  43.484  28.668   1.717
78229W        W48829  33.847  12.691   2.009
78230W        W48830  23.189  10.182   3.510
78231W        W48831  36.659   3.516   1.889
78232W        W48832   2.197   0.816  14.273
78233W        W48833  21.019   3.226  13.422
78234W        W48834  36.365  36.557  10.674
78235W        W48835  40.117  22.065   0.052
78236W        W48836   2.195   4.938   0.888
78237W        W48837  20.717  21.559  13.129
78238W        W48838  23.528  13.334   3.294
78239W        W48839  14.675  24.439  11.228
78240W        W48840  40.501  24.774  10.961
78241W        W48841   6.128   6.772   2.511
78242W        W48842  41.712   2.923   4.517
78243W        W48843  14.742  38.849  14.508
78244W        W48844  17.335  26.523  12.409
78245W        W48845  38.027   7.598  11.779
78246W        W48846  35.595  31.536   1.841
78247W        W48847  22.647  27.499   0.972
78248W        W48848  42.911  39.048  11.173
78249W        W48849  16.835   7.917   1.379
78250W        W48850  40.601   9.131   0.502
78251W        W48851  12.071  44.761  13.580
78252W        W48852  22.778  25.969  12.555
78253W        W48853  28.776   9.162   0.319
78254W        W48854   7.939  21.526   2.848
78255W        W48855  39.285  43.853  10.755
78256W        W48856  15.576  44.751  14.755
78257W        W48857  11.766  10.726  13.221
78258W        W48858  17.708  11.646   3.225
78259W        W48859  43.265  34.493   3.311
78260W        W48860   8.058  21.740  12.035
78261W        W48861  39.003  19.540   4.451
78262W        W48862  38.147   1.974  14.291
78263W        W48863  40.695  37.799   1.949
78264W        W48864  40.406  27.583  11.930
78265W        W48865   5.219  35.856   0.855
78266W        W48866  41.210  43.838   4.510
78267W        W48867  39.353  31.947   4.771
78268W        W48868  25.267  25.358  13.345
78269W        W48869   6.179  27.500   0.805
78270W        W48870   8.875  18.197   2.824
78271W        W48871  41.619   3.854   2.333
78272W        W48872  42.927  15.488   3.234
78273W        W48873  23.070  10.880  10.767
78274W        W48874  40.643  32.316   0.928
78275W        W48875  21.572  38.594   3.528
78276W        W48876  13.116  18.547   3.057
78277W        W48877  42.588   1.416  12.096
78278W        W48878  32.439  18.834  11.513
78279W        W48879  44.231   4.366  12.420
78280W        W48880   0.284  17.515   3.678
78281W        W48881  25.739  36.797   0.488
78282W        W48882  31.952  38.957   0.474
78283W        W48883  11.677   0.712  11.156
78284W        W48884  18.748  35.423  14.033
78285W        W48885  28.144   6.295   3.684
78286W        W48886   5.157  10.035  14.895
78287W        W48887  34.746  26.117  13.381
78288W        W48888  26.908  39.901  13.293
78289W        W48889  13.837   6.762   1.858
78290W        W48890  39.987  37.798  10.692
78291W        W48891  15.305  25.076  11.427
78292W        W48892  43.676  18.203   1.134
78293W        W48893  26.427   0.496   2.168
78294W        W48894  37.972  23.654   2.776
78295W        W48895  18.449   5.301   2.840
78296W        W48896  39.485   6.347   0.729
78297W        W48897   4.770  40.510   4.556
78298W        W48898  26.711  21.066   0.918
78299W        W48899  42.388   7.990  13.953
78300W        W48900  41.274  22.946   1.660
78301W        W48901  18.597  17.209   3.163
78302W        W48902  13.513  27.645  13.451
78303W        W48903  25.190  17.262   4.495
78304W        W48904  12.088   9.675  10.774
78305W        W48905  34.997  26.047  14.918
78306W        W48906  37.315  16.095  13.049
78307W        W48907  32.223  39.524   0.731
78308W        W48908  36.581  44.441   4.295
78309W        W48909  13.252   6.417  12.572
78310W        W48910   3.912   4.897   2.198
78311W        W48911   1.957  43.824   0.828
78312W        W48912  33.686  18.196   2.686
78313W        W48913  29.279  40.305   1.824
78314W        W48914  44.028  33.960   0.655
78315W        W48915  15.254  13.050   4.174
78316W        W48916  18.123  26.470  12.049
78317W        W48917  25.453  41.777  14.432
78318W        W48918  35.851  12.286  12.457
78319W        W48919   5.354   4.891   4.901
78320W        W48920  24.663  13.630   3.846
78321W        W48921  28.477  23.536  14.430
78322W        W48922  17.654  22.002   0.416
78323W        W48923   2.941  18.730  13.932
78324W        W48924  43.483   6.226  10.294
78325W        W48925   6.223  37.292  11.468
78326W        W48926   5.237  20.579  13.566
78327W        W48927  32.811  38.225  12.640
78328W        W48928  27.203  43.783  11.114
78329W        W48929   1.113  22.157   3.190
78330W        W48930  11.459  24.659   0.470
78331W        W48931  32.759  20.679   2.835
78332W        W48932   8.119  39.588   4.697
78333W        W48933   3.050  30.427   4.390
78334W        W48934  43.931  25.010  12.469
78335W        W48935  11.090   5.235  10.727
78336W        W48936  13.140  26.506   3.584
78337W        W48937  33.657   5.054   0.550
78338W        W48938  34.294  18.558  11.972
78339W        W48939  30.369   4.932   2.540
78340W        W48940  26.191  17.913   2.836
78341W        W48941  28.028  31.915   4.648
78342W        W48942  10.504  11.906   2.694
78343W        W48943  21.032  25.990   5.139
78344W        W48944  17.625  33.679   1.238
78345W        W48945  33.513   1.727  13.376
78346W        W48946  30.174  14.732   1.842
78347W        W48947  34.917  11.864  13.507
78348W        W48948  31.796  21.082   0.279
78349W        W48949  38.181   6.330  13.529
78350W        W48950  26.235   3.473   0.686
78351W        W48951   6.820  35.037  14.374
78352W        W48952  27.625  30.116   1.750
78353W        W48953  10.752  14.856   4.467
78354W        W48954  25.221   0.410  11.045
78355W        W48955   2.300  40.126  12.213
78356W        W48956  33.018  14.159   0.782
78357W        W48957  32.119  21.686   4.177
78358W        W48958  34.975  44.187   4.147
78359W        W48959  19.410  23.515   0.881
78360W        W48960  33.146  42.573   3.182
78361W        W48961  16.826   7.945   3.696
78362W        W48962   7.454  22.647   2.331
78363W        W48963  32.025  29.452   5.077
78364W        W48964   0.622   7.829  10.476
78365W        W48965  13.809  41.874  11.587
78366W        W48966  42.570  23.722   3.968
78367W        W48967  38.272  27.222   4.395
78368W        W48968  27.448  14.235  14.741
78369W        W48969  12.792  18.289  14.878
78370W        W48970  44.668  26.420  14.153
78371W        W48971  12.826   3.437  13.888
78372W        W48972  11.904  28.329  12.971
78373W        W48973  11.752   5.870  10.403
78374W        W48974  16.537  10.244   0.463
78375W        W48975  22.744  12.673   4.536
78376W        W48976  44.550  30.549  12.555
78377W        W48977  39.318  32.502  11.633
78378W        W48978  31.567  13.335   2.455
78379W        W48979   7.713   7.828  11.465
78380W        W48980  12.781   5.239  14.028
78381W        W48981  22.603  43.931  11.653
78382W        W48982   5.810  18.089  11.439
78383W        W48983   9.279  26.570   2.897
78384W        W48984  28.089  28.517   3.548
78385W        W48985  18.662  40.773  11.177
78386W        W48986  23.529  18.278   0.319
78387W        W48987  26.176  42.499   3.889
78388W        W48988  28.463   5.627   4.842
78389W        W48989  15.182   1.388   4.134
78390W        W48990  18.858  34.055   1.384
78391W        W48991  39.109  11.128  14.959
78392W        W48992  14.265   0.696  10.095
78393W        W48993  12.797  42.308  12.416
78394W        W48994  40.079  40.282  12.939
78395W        W48995  21.185  18.378   0.482
78396W        W48996  27.416  26.697  11.660
78397W        W48997  39.651  21.999  14.863
78398W        W48998   4.102  23.553   1.650
78399W        W48999  15.773   3.974   1.946
78400W        W49000  38.253  43.610   3.675
78401W        W49001  15.706   8.137   1.647
78402W        W49002  31.590  28.527  10.956
78403W        W49003  20.123  17.123   3.233
78404W        W49004  14.620  41.808   1.833
78405W        W49005  22.077  25.540  14.082
78406W        W49006  20.794  31.321  13.829
78407W        W49007   1.793   1.487  12.303
78408W        W49008  44.870  29.774  12.121
78409W        W49009  34.617  43.261   2.425
78410W        W49010  24.268  27.127  13.656
78411W        W49011  18.174  41.692   4.246
78412W        W49012  38.655  23.499  12.967
78413W        W49013   6.798  40.543   0.296
78414W        W49014  33.520  29.015  13.810
78415W        W49015   9.774  32.393   1.288
78416W        W49016  12.376  40.131   1.691
78417W        W49017  40.501  23.883  11.521
78418W        W49018   6.825  15.859   3.952
78419W        W49019  24.725   0.219   0.810
78420W        W49020  21.078  10.201   0.761
78421W        W49021   1.960   9.964   3.778
78422W        W49022  44.205  35.965   2.659
78423W        W49023  32.621  23.081   2.538
78424W        W49024  40.411  35.992   2.430
78425W        W49025   8.189   0.462   2.480
78426W        W49026  40.087  28.503  12.169
78427W        W49027  39.238  28.276   1.567
78428W        W49028   5.819  11.274  13.373
78429W        W49029  11.392  17.068  13.825
78430W        W49030  41.071  34.495  13.472
78431W        W49031  10.042   2.214   4.584
78432W        W49032  14.726   7.337  13.288
78433W        W49033  31.323   2.000  14.908
78434W        W49034  19.318   1.284  12.183
78435W        W49035   6.278  27.868   2.605
78436W        W49036  44.991  22.039  14.143
78437W        W49037  30.077  25.690   3.312
78438W        W49038  11.904  11.412   0.528
78439W        W49039  20.174  18.795   2.241
78440W        W49040   7.703  44.446   3.549
78441W        W49041  39.488   7.770   2.900
78442W        W49042  30.192  20.524   4.804
78443W        W49043  33.448   5.285  10.208
78444W        W49044  27.526   7.814  12.011
78445W        W49045  18.534  30.178  14.655
78446W        W49046  19.688   5.023  10.504
78447W        W49047  30.640  39.961   1.827
78448W        W49048  33.979   7.740  14.643
78449W        W49049  38.054  11.434  11.141
78450W        W49050  22.107  42.736   3.278
78451W        W49051  18.406  36.115   3.240
78452W        W49052   3.144  39.307  12.992
78453W        W49053  29.696  38.903  14.051
78454W        W49054   1.550  11.664   1.289
78455W        W49055  34.047  39.654   3.097
78456W        W49056   5.504  39.095  11.146
78457W        W49057  39.476  10.892   1.922
78458W        W49058  12.732  20.744   3.324
78459W        W49059  43.545  34.556   1.969
78460W        W49060  43.308  35.624  11.152
78461W        W49061  13.394  40.325   2.775
78462W        W49062  38.057  25.409  12.555
78463W        W49063  30.448  15.081  11.146
78464W        W49064   7.724  33.112  13.316
78465W        W49065  27.407  14.617   2.135
78466W        W49066  25.170  30.674   2.908
78467W        W49067  30.854  25.004   2.331
78468W        W49068  42.359  19.566  13.439
78469W        W49069   7.398  44.944   0.286
78470W        W49070   8.318   4.288   0.034
78471W        W49071  36.513  23.180   0.903
78472W        W49072  33.087  19.649   4.460
78473W        W49073  11.790  16.875  12.171
78474W        W49074  27.704  15.922   3.119
78475W        W49075  25.857   7.618   2.194
78476W        W49076   0.671  21.768   2.306
78477W        W49077  25.530   2.883  12.820
78478W        W49078  13.745  34.482   0.053
78479W        W49079  41.803   8.817   2.016
78480W        W49080  19.067  24.983   1.215
78481W        W49081  33.872  21.240  11.577
78482W        W49082  37.985  21.616   1.331
78483W        W49083  13.766   1.297   4.590
78484W        W49084  17.941  34.826  13.429
78485W        W49085  37.487  13.747   0.360
78486W        W49086  27.540  21.569   2.286
78487W        W49087  24.670  31.670  14.565
78488W        W49088  16.662  29.120   0.450
78489W        W49089  42.574  13.211   2.305
78490W        W49090  20.070  40.116  11.101
78491W        W49091  31.344  41.758   5.069
78492W        W49092  19.768  36.075   4.131
78493W        W49093   6.766   5.279   2.705
78494W        W49094  41.552   0.799   2.656
78495W        W49095  29.173  21.162   4.443
78496W        W49096   5.904  34.314  14.776
78497W        W49097  23.999  33.770   2.810
78498W        W49098   9.107   2.248  14.719
78499W        W49099  20.258  27.760   4.549
78500W        W49100  42.261  32.310  10.737
78501W        W49101   9.228  24.076   1.393
78502W        W49102  36.866  30.539   4.574
78503W        W49103  37.507  35.386  11.666
78504W        W49104  11.401  40.403   1.713
78505W        W49105  44.153  32.203   0.869
78506W        W49106   2.238  30.923  13.334
78507W        W49107  29.931   8.887  12.390
78508W        W49108  14.554  19.026   4.024
78509W        W49109  41.575  17.079  14.301
78510W        W49110   7.174   2.553   2.286
78511W        W49111  29.371  32.727   1.969
78512W        W49112  43.401  19.659  11.203
78513W        W49113  44.941  35.467  10.537
78514W        W49114  11.729  23.846   3.335
78515W        W49115  28.438  33.535  10.266
78516W        W49116  32.604  16.733  12.079
78517W        W49117  11.889  10.362  12.903
78518W        W49118  34.830  29.527   1.019
78519W        W49119  11.468  36.999   0.037
78520W        W49120  14.250  34.360  13.663
78521W        W49121   5.504  28.596   1.812
78522W        W49122  17.763  15.223   3.668
78523W        W49123  11.737   7.414   3.343
78524W        W49124   8.237  18.088  13.908
78525W        W49125  13.311  36.962  13.798
78526W        W49126  12.859  29.959   4.760
78527W        W49127  36.936  21.711  10.333
78528W        W49128  25.231  15.715  14.578
78529W        W49129  31.666  41.938   4.640
78530W        W49130  39.554  35.856   1.681
78531W        W49131  37.675  16.648  13.997
78532W        W49132   3.833  15.140   4.499
78533W        W49133  42.346  10.368  11.737
78534W        W49134  22.704  34.360  11.636
78535W        W49135   2.785  37.380   1.756
78536W        W49136  29.303  19.156   0.247
78537W        W49137  26.683  10.318   0.295
78538W        W49138  42.402  19.839   3.082
78539W        W49139   6.835  38.025   0.379
78540W        W49140  26.956  17.849   2.984
78541W        W49141  36.837  15.266  13.939
78542W        W49142  22.952  18.543  13.652
78543W        W49143  20.010  42.985   1.865
78544W        W49144  33.590  23.507   3.824
78545W        W49145   2.470  36.355  13.844
78546W        W49146  33.473  28.053  12.844
78547W        W49147  21.006  36.227   1.255
78548W        W49148   6.254  10.274  11.205
78549W        W49149  15.529   3.603   2.837
78550W        W49150  25.538  10.957  11.912
78551W        W49151  40.338  38.245   1.277
78552W        W49152  25.497   5.202  12.092
78553W        W49153  43.791  42.862   3.606
78554W        W49154  15.369  19.736  12.792
78555W        W49155  44.943  35.449   2.182
78556W        W49156   6.879  34.056  10.528
78557W        W49157   1.479   8.684  12.598
78558W        W49158   4.199  19.153   1.836
78559W        W49159  29.474  32.329   4.113
78560W        W49160  15.064  42.399   0.411
78561W        W49161   8.801  43.721   4.102
78562W        W49162  29.878  17.770   1.400
78563W        W49163   1.017  37.215  14.074
78564W        W49164  30.299   8.088  12.568
78565W        W49165  30.037  11.660  12.085
78566W        W49166  21.948  30.455   0.838
78567W        W49167  19.471  33.287  11.184
78568W        W49168  19.318  15.351  14.153
78569W        W49169  22.318  36.450  14.453
78570W        W49170  35.943  14.362  13.534
78571W        W49171  14.090  25.526  13.313
78572W        W49172  26.078   1.231   1.408
78573W        W49173  44.520  12.630   0.352
78574W        W49174  26.033  38.865   3.617
78575W        W49175  41.541  10.204   3.563
78576W        W49176  26.071  11.305   1.310
78577W        W49177   2.192  43.356   1.488
78578W        W49178   6.641  43.888   1.752
78579W        W49179   5.475  38.683  12.035
78580W        W49180  29.427  15.287  13.871
78581W        W49181  26.954  23.185  11.614
78582W        W49182  39.626   5.918  10.212
78583W        W49183  23.052  43.510  14.514
78584W        W49184  36.554   4.447  12.546
78585W        W49185  44.289  21.025   5.020
78586W        W49186  12.646  33.061   0.551
78587W        W49187  23.693  41.428   1.661
78588W        W49188   0.453  36.546  13.158
78589W        W49189   6.726  35.587  11.595
78590W        W49190  27.626  14.898   4.850
78591W        W49191  28.110  37.891  13.926
78592W        W49192  38.630  19.550   4.029
78593W        W49193  23.150   5.612  11.197
78594W        W49194   0.059   1.378  11.177
78595W        W49195  26.074  35.106  10.663
78596W        W49196  19.809   5.767   3.549
78597W        W49197  23.909  43.096   4.137
78598W        W49198  14.352  23.091   1.713
78599W        W49199  34.171  13.278  14.181
78600W        W49200  16.249  26.046  11.116
78601W        W49201  25.010  26.512   0.751
78602W        W49202  43.318  15.479   1.229
78603W        W49203  31.020  17.443  11.637
78604W        W49204   1.436  29.519  12.410
78605W        W49205   2.820  42.030   3.767
78606W        W49206  33.434  27.402  11.000
78607W        W49207   3.911  17.193   0.142
78608W        W49208  40.486  20.956  11.620
78609W        W49209   3.328   3.970  12.148
78610W        W49210  44.987  18.100  12.946
78611W        W49211  38.510   4.211   0.352
78612W        W49212  16.313  31.156   3.348
78613W        W49213   3.883  31.445  10.292
78614W        W49214  18.036  19.833   1.499
78615W        W49215   4.726  39.256  10.871
78616W        W49216  41.471  15.266   0.903
78617W        W49217  25.882  37.681   4.563
78618W        W49218  36.640  19.154  11.501
78619W        W49219  22.912  28.676  11.653
78620W        W49220  14.564  36.284   2.584
78621W        W49221  33.497  39.990   4.378
78622W        W49222  22.612   6.175  14.677
78623W        W49223   3.433  10.702  14.436
78624W        W49224  35.189  44.265  12.365
78625W        W49225  12.878  16.505  11.147
78626W        W49226  13.058  25.950   0.297
78627W        W49227   5.275  11.575   3.863
78628W        W49228  13.676  25.716  10.598
78629W        W49229   9.923  30.481  13.811
78630W        W49230  20.097  26.147   0.986
78631W        W49231  34.911  22.126  11.382
78632W        W49232  25.082  10.971   1.246
78633W        W49233  23.964  27.916   9.776
78634W        W49234   4.239  10.817   0.490
78635W        W49235   7.811  27.778   4.081
78636W        W49236  21.734  17.464  12.138
78637W        W49237  26.570   6.409   3.529
78638W        W49238  16.749   6.372   1.913
78639W        W49239  36.052  34.819   4.929
78640W        W49240  37.616  29.798  13.456
78641W        W49241  18.643  40.402   1.562
78642W        W49242  41.262  23.832   1.218
78643W        W49243  16.422  19.351   0.355
78644W        W49244  37.971  13.507   0.363
78645W        W49245  25.865  42.245  12.124
78646W        W49246  44.764  24.962   2.912
78647W        W49247   9.905  24.221  11.343
78648W        W49248  32.478   0.909   4.862
78649W        W49249  18.125  36.794   0.749
78650W        W49250  28.513   2.940  14.749
78651W        W49251   5.357  34.829   1.011
78652W        W49252  40.608  26.285  13.658
78653W        W49253  42.109  19.323  12.099
78654W        W49254  34.571  44.299   4.515
78655W        W49255  41.619  10.474  14.788
78656W        W49256  25.647   2.832   4.609
78657W        W49257  30.814  17.017  13.043
78658W        W49258  10.218  29.457   0.146
78659W        W49259  41.340  18.193   0.756
78660W        W49260  42.500  17.243   3.023
78661W        W49261   1.053  36.378   4.524
78662W        W49262  35.632  43.501  14.946
78663W        W49263   3.868  20.106  13.599
78664W        W49264  12.086  12.839  14.372
78665W        W49265  17.995  26.464  12.926
78666W        W49266  13.629   3.858   0.274
78667W        W49267  37.787  11.773  13.997
78668W        W49268  27.423   9.623  11.110
78669W        W49269  13.276  11.724   0.825
78670W        W49270  32.992  31.325  14.814
78671W        W49271  23.687  18.565   2.416
78672W        W49272  34.574  27.036  11.540
78673W        W49273   2.381  17.784   4.673
78674W        W49274   4.780  44.276  14.774
78675W        W49275  25.674   4.822   0.490
78676W        W49276   1.294  18.658  11.579
78677W        W49277  44.889  20.579  12.603
78678W        W49278  26.187  43.514   4.836
78679W        W49279  43.202  38.122   2.726
78680W        W49280   0.482  22.673  13.270
78681W        W49281  30.180  21.561   3.250
78682W        W49282  34.680  28.227   4.035
78683W        W49283   6.775  44.864   2.145
78684W        W49284  20.667  17.120  11.646
78685W        W49285   2.251  36.085  13.406
78686W        W49286   9.446  21.182   0.037
78687W        W49287  44.983  10.893  13.424
78688W        W49288   9.597  26.137  10.940
78689W        W49289  16.816   2.786  14.378
78690W        W49290  40.304  21.575   2.625
78691W        W49291   8.510   8.324  14.389
78692W        W49292  19.651   9.317  13.048
78693W        W49293  18.727  30.557   0.476
78694W        W49294  42.761   0.993   2.167
78695W        W49295  10.164  13.112  12.652
78696W        W49296   8.453  40.097  14.487
78697W        W49297  34.258  38.330   1.965
78698W        W49298  26.008   6.451   0.260
78699W        W49299  14.692  36.629   0.320
78700W        W49300   4.909  15.726   3.753
78701W        W49301  22.167  28.909   1.742
78702W        W49302   6.916  21.518   0.974
78703W        W49303  18.820  38.430  13.028
78704W        W49304  33.939  44.007   3.676
78705W        W49305   5.143  27.763   4.888
78706W        W49306  26.534  24.029   1.945
78707W        W49307  40.770  14.117  11.092
78708W        W49308   0.175  17.735   4.499
78709W        W49309  31.827  11.076   4.672
78710W        W49310  14.407  15.143   1.841
78711W        W49311  42.868  41.020  13.247
78712W        W49312  21.717  44.023   1.281
78713W        W49313   6.904  38.851  12.073
78714W        W49314  25.661  13.728  11.093
78715W        W49315  21.486   7.094  12.133
78716W        W49316   5.256   0.770  14.121
78717W        W49317  17.882  36.965  10.634
78718W        W49318   3.425  18.949  13.475
78719W        W49319   0.948  28.680  14.352
78720W        W49320  32.407   5.122  14.503
78721W        W49321   9.341  43.742   2.069
78722W        W49322   5.229  14.647   0.974
78723W        W49323  29.625  40.114  14.880
78724W        W49324  17.145  22.722   2.916
78725W        W49325  23.539  44.912   0.346
78726W        W49326  36.351  13.152  11.602
78727W        W49327  14.428   8.357   1.343
78728W        W49328  16.622  41.772   0.012
78729W        W49329  15.663   0.472  13.612
78730W        W49330  39.509  22.022  11.580
78731W        W49331   2.952   6.414  10.542
78732W        W49332  18.573  42.321   2.749
78733W        W49333  33.178  29.009  14.501
78734W        W49334  38.544  33.578   2.736
78735W        W49335  14.654  11.586  11.316
78736W        W49336   5.280   3.470   3.814
78737W        W49337  34.858  34.777  12.012
78738W        W49338   3.731  23.988  13.536
78739W        W49339  27.621  37.503   4.146
78740W        W49340  29.524  39.344   3.084
78741W        W49341  12.057  23.822  12.562
78742W        W49342  15.134   5.865  11.009
78743W        W49343  16.344  32.866   5.444
78744W        W49344  36.808  22.611   2.614
78745W        W49345  28.810  33.561   1.561
78746W        W49346  30.935  33.799   2.888
78747W        W49347  36.068   4.349  14.847
78748W        W49348   0.701  20.529   0.864
78749W        W49349  23.694  22.765   2.174
78750W        W49350  34.363   8.298   2.794
78751W        W49351   0.311  42.990   4.252
78752W        W49352  43.370  22.152  13.793
78753W        W49353  32.651   7.461  14.703
78754W        W49354   3.467  21.100  11.157
78755W        W49355  12.737  29.498   0.948
78756W        W49356  16.688  30.346   3.797
78757W        W49357  18.756  17.215  11.598
78758W        W49358  38.787  11.883   0.399
78759W        W49359  17.276  30.069  10.842
78760W        W49360   3.282  31.963   1.446
78761W        W49361  44.997  42.631  14.275
78762W        W49362  12.901  33.564   3.010
78763W        W49363   4.804   5.182   3.460
78764W        W49364  36.839  19.272  14.333
78765W        W49365  43.375  21.568  11.619
78766W        W49366  44.901  24.532   0.778
78767W        W49367  42.071  40.755   1.447
78768W        W49368  39.526  14.758   2.815
78769W        W49369   9.976  27.648  12.896
78770W        W49370  38.356  16.285  10.504
78771W        W49371  23.542   6.983   4.535
78772W        W49372  16.088   0.586  13.928
78773W        W49373  19.524  16.752  12.375
78774W        W49374  38.973  33.904   2.804
78775W        W49375  38.250  31.593   2.367
78776W        W49376  44.969   1.423   4.730
78777W        W49377   3.943  13.750  13.529
78778W        W49378  16.181  36.024   0.881
78779W        W49379  19.599  39.040   3.682
78780W        W49380  36.688  18.066   5.017
78781W        W49381   8.790  37.804   3.847
78782W        W49382  18.863  30.571   2.949
78783W        W49383  31.807  22.712   2.740
78784W        W49384  35.046  34.288  10.262
78785W        W49385   5.947   0.478  12.597
78786W        W49386  29.205   7.302   3.360
78787W        W49387  37.333  10.011   0.652
78788W        W49388  21.514  20.623   3.267
78789W        W49389  14.877  32.615  11.265
78790W        W49390  35.920   7.894   1.393
78791W        W49391   9.998  33.025   1.835
78792W        W49392  38.932  41.080  12.680
78793W        W49393   5.844  16.708  10.947
78794W        W49394   1.787  24.090  13.060
78795W        W49395  17.206  41.323   2.233
78796W        W49396  36.082  31.950  12.646
78797W        W49397  32.482  12.715  12.655
78798W        W49398   1.039  21.775  12.530
78799W        W49399   9.241  14.347   0.850
78800W        W49400  32.532  21.614  14.095
78801W        W49401  40.286  19.017   0.366
78802W        W49402   7.779  37.790   4.546
78803W        W49403  36.754  44.915   4.159
78804W        W49404  24.259  21.265  12.557
78805W        W49405   6.630   8.890   2.694
78806W        W49406   5.008  25.101   3.855
78807W        W49407  30.434   3.459   3.252
78808W        W49408  22.784  13.633   1.307
78809W        W49409   2.006  29.564   3.931
78810W        W49410  16.583  11.385   3.687
78811W        W49411  26.722  43.086   3.718
78812W        W49412  44.250  33.104  14.105
78813W        W49413   3.903  40.265   1.149
78814W        W49414   3.223   6.823   2.794
78815W        W49415  27.063  40.284   4.358
78816W        W49416  30.394  38.882   1.356
78817W        W49417  34.694   8.207  10.612
78818W        W49418  11.563  31.407   1.449
78819W        W49419  39.760  18.903   1.263
78820W        W49420  23.054  12.230  11.139
78821W        W49421  24.719   1.096   3.978
78822W        W49422  21.092  13.146  14.001
78823W        W49423   8.492  32.807   0.612
78824W        W49424  32.198   4.506   4.176
78825W        W49425  10.424  16.193   2.673
78826W        W49426   6.142  32.395  12.025
78827W        W49427  40.378  32.423   3.718
78828W        W49428   3.175  26.174   1.414
78829W        W49429  18.129  25.043  12.042
78830W        W49430  38.923  35.987   0.951
78831W        W49431  20.999   9.795   4.083
78832W        W49432   4.817  18.691  10.201
78833W        W49433  20.271   1.995   3.245
78834W        W49434  26.527  35.208   2.075
78835W        W49435  26.010  20.155  11.507
78836W        W49436   0.791  42.018   1.418
78837W        W49437   5.433  26.067  13.064
78838W        W49438  23.696  28.168  10.692
78839W        W49439   4.593  43.389   3.755
78840W        W49440  10.990   4.707  12.659
78841W        W49441   6.648  30.873  14.083
78842W        W49442  42.987  15.122  11.214
78843W        W49443   5.385  31.600  10.706
78844W        W49444  12.443  22.637   2.768
78845W        W49445  37.141  30.438  11.523
78846W        W49446  11.712  29.503  14.840
78847W        W49447   5.886  44.824  13.087
78848W        W49448  28.012  21.144  12.564
78849W        W49449   6.409  38.044  11.996
78850W        W49450  25.437  18.549  12.842
78851W        W49451   2.440   8.688   3.610
78852W        W49452  38.960  25.264   5.230
78853W        W49453   2.001  23.390   2.240
78854W        W49454   2.044   6.966  10.775
78855W        W49455  34.528   9.700   0.857
78856W        W49456  26.131  43.014   3.889
78857W        W49457  14.400  32.691   5.230
78858W        W49458  21.150  26.591  12.114
78859W        W49459  28.629  44.744   0.297
78860W        W49460  44.229  25.043   1.640
78861W        W49461  28.049  21.577   3.508
78862W        W49462  40.652  22.630  14.322
78863W        W49463  32.321  43.138   2.304
78864W        W49464   0.507  16.611  12.064
78865W        W49465   0.413  26.019  11.888
78866W        W49466  19.311  20.004  14.024
78867W        W49467  32.302  32.907  14.497
78868W        W49468  35.488  38.091   0.138
78869W        W49469  24.649  28.700   2.702
78870W        W49470  28.408   7.067  13.523
78871W        W49471  12.179   3.714  10.636
78872W        W49472  27.980  16.703  11.390
78873W        W49473  24.618   7.698   2.259
78874W        W49474  40.350  16.734  14.454
78875W        W49475  18.774  15.611   1.444
78876W        W49476  41.908  26.488   0.266
78877W        W49477  26.751  37.655  12.069
78878W        W49478  38.076  29.129   1.999
78879W        W49479  38.084  12.334  14.236
78880W        W49480  33.896   0.972  14.519
78881W        W49481   4.869  42.283   3.153
78882W        W49482   2.911  17.211  10.580
78883W        W49483   7.412  42.482   2.620
78884W        W49484   8.455   5.786   0.322
78885W        W49485   4.348   5.888  12.596
78886W        W49486  42.088  27.466  11.956
78887W        W49487   2.522   8.217  13.325
78888W        W49488  28.337  26.005  14.451
78889W        W49489  17.145   9.237   0.830
78890W        W49490  24.607  14.096  12.151
78891W        W49491  28.086  10.380  12.441
78892W        W49492   1.492  21.837  14.609
78893W        W49493  28.613   0.334  13.179
78894W        W49494  27.750  23.100  13.344
78895W        W49495  14.221   7.076  10.922
78896W        W49496  41.470  16.393   4.886
78897W        W49497  22.285  12.872  10.618
78898W        W49498  31.410  26.156  13.707
78899W        W49499  17.702   7.636   2.830
78900W        W49500  27.059  42.508   0.259
78901W        W49501  42.243  39.049   4.167
78902W        W49502  16.351  11.867  12.592
78903W        W49503  15.199  18.668   2.880
78904W        W49504   5.625  17.250  12.471
78905W        W49505  42.505   6.658   2.904
78906W        W49506  30.220  28.121  11.848
78907W        W49507  25.107   3.863   0.376
78908W        W49508  41.747  33.047   0.358
78909W        W49509  31.965   6.271   1.431
78910W        W49510  13.857  26.039  11.421
78911W        W49511  44.546  11.723  12.093
78912W        W49512  30.776   5.204  12.419
78913W        W49513   0.687  33.009  10.046
78914W        W49514  18.297  21.242  14.381
78915W        W49515   9.654  16.228  10.730
78916W        W49516  24.184  40.802  12.154
78917W        W49517  16.834  25.527   4.515
78918W        W49518  27.436  23.072  11.234
78919W        W49519   9.703  14.341   4.102
78920W        W49520  42.087  30.031  10.816
78921W        W49521  28.565  19.639  10.658
78922W        W49522  25.224  40.180   0.790
78923W        W49523  14.120  16.749  13.883
78924W        W49524  35.051  30.405   0.816
78925W        W49525  31.969  28.196   2.228
78926W        W49526  36.942   6.510   2.141
78927W        W49527   9.462  39.000  13.008
78928W        W49528  39.764  22.284   1.349
78929W        W49529  43.745  28.978  10.607
78930W        W49530  19.740  15.156   3.856
78931W        W49531  28.256  22.782   4.637
78932W        W49532   4.583  19.802   0.757
78933W        W49533   6.086  28.609  11.562
78934W        W49534  21.147   1.181  14.991
78935W        W49535  23.544  37.046  14.306
78936W        W49536   3.082  29.411  14.279
78937W        W49537  10.575  37.522  14.057
78938W        W49538  13.199   6.876   4.520
78939W        W49539   8.488  30.859  13.314
78940W        W49540   8.367   8.203   2.341
78941W        W49541  19.788  41.492  12.912
78942W        W49542  14.277  17.087   0.945
78943W        W49543  21.292  35.353  13.051
78944W        W49544  29.667   5.314  13.039
78945W        W49545  17.232  30.862  10.253
78946W        W49546  34.019   1.892  12.507
78947W        W49547  40.639  22.066   0.131
78948W        W49548  18.611  30.064   1.813
78949W        W49549  18.682  43.692  12.509
78950W        W49550  19.750  21.968   1.210
78951W        W49551  21.827   9.786   3.707
78952W        W49552  29.342  26.896  11.578
78953W        W49553   8.256   0.295   3.874
78954W        W49554   6.268  14.486  11.633
78955W        W49555  38.377  32.204   3.048
78956W        W49556   9.448  38.347   1.830
78957W        W49557  17.544  30.399   1.042
78958W        W49558   1.269  12.334  11.708
78959W        W49559  19.169   2.192  14.487
78960W        W49560  19.680  33.497   1.178
78961W        W49561  36.731   2.254   0.901
78962W        W49562  29.170  10.988   2.261
78963W        W49563  30.103  17.396  14.215
78964W        W49564  42.726  25.402  13.307
78965W        W49565  21.977  39.504  14.699
78966W        W49566   7.836  39.999  11.931
78967W        W49567  14.840  42.006  11.357
78968W        W49568  26.633  26.491  14.375
78969W        W49569  20.142  18.152  11.148
78970W        W49570  40.961  26.186   4.646
78971W        W49571  32.761  30.446   1.891
78972W        W49572  22.779  11.333  10.692
78973W        W49573   8.565   7.483  11.480
78974W        W49574  30.233  43.885  14.902
78975W        W49575   7.643   3.504   2.908
78976W        W49576   1.406  33.537  12.342
78977W        W49577  12.559  44.269   1.836
78978W        W49578   4.227  17.639   4.152
78979W        W49579  25.978  44.411  10.994
78980W        W49580  23.776  43.662  12.771
78981W        W49581  28.059  43.858  14.789
78982W        W49582   4.567  20.160   2.371
78983W        W49583  33.970  21.726   0.939
78984W        W49584  27.396  42.273   1.432
78985W        W49585   8.458  24.121   0.857
78986W        W49586  25.405   0.355  14.811
78987W        W49587  34.921  43.031  13.554
78988W        W49588  29.371  39.502   5.078
78989W        W49589  11.126  15.806   1.339
78990W        W49590   7.314   4.278   3.605
78991W        W49591  23.663   1.397   2.454
78992W        W49592   1.475  30.107   2.502
78993W        W49593   7.403  43.317   3.460
78994W        W49594  41.728   2.854  10.557
78995W        W49595   8.547   1.383  10.912
78996W        W49596  21.293  23.883   0.511
78997W        W49597  31.412   2.710   0.854
78998W        W49598   7.933  18.571  13.837
78999W        W49599  25.051  27.741   3.544
79000W        W49600   8.215  15.114  13.965
79001W        W49601   7.731  35.580  11.302
79002W        W49602  40.007   4.122   3.819
79003W        W49603   4.610  33.595  14.548
79004W        W49604   1.725  37.880  13.598
79005W        W49605  27.606   9.661   3.164
79006W        W49606   7.667  24.011   2.206
79007W        W49607  15.230  16.712  12.918
79008W        W49608  28.432   1.980   2.191
79009W        W49609   4.461   1.914  11.528
79010W        W49610  13.688  18.558   0.894
79011W        W49611  27.438  29.572  11.934
79012W        W49612   1.469   8.509   3.798
79013W        W49613   5.325  15.545   1.286
79014W        W49614   4.082  32.435  12.069
79015W        W49615  44.353  41.783   1.973
79016W        W49616  38.950  39.942  11.301
79017W        W49617  35.059  22.998   1.855
79018W        W49618  35.519  10.624   1.886
79019W        W49619   7.264  18.146  14.339
79020W        W49620  20.048  12.697  12.524
79021W        W49621   0.921  37.896   3.139
79022W        W49622  23.735   6.530  11.709
79023W        W49623   6.960  21.151  12.106
79024W        W49624  19.114   5.907  12.906
79025W        W49625  34.680  21.702  13.512
79026W        W49626   9.647  21.005   2.771
79027W        W49627  11.994  17.727   4.355
79028W        W49628  22.888  34.026   3.182
79029W        W49629  36.880  17.836  14.311
79030W        W49630  22.636  10.273  13.072
79031W        W49631  20.109   3.021   4.287
79032W        W49632  19.146   1.448   3.216
79033W        W49633  38.318  27.223  11.216
79034W        W49634  11.052  26.117   3.375
79035W        W49635  19.600  35.898  14.357
79036W        W49636  29.664  22.079   2.357
79037W        W49637   2.658   9.353  12.390
79038W        W49638  25.509   9.281   2.526
79039W        W49639   6.924  38.695   4.030
79040W        W49640   1.882  18.687  12.404
79041W        W49641  26.011  31.211  11.428
79042W        W49642  13.875  18.535   1.818
79043W        W49643  40.185  31.353   2.035
79044W        W49644  39.437  27.517   2.241
79045W        W49645  24.270  35.169   0.030
79046W        W49646  38.099  17.215   3.906
79047W        W49647   6.112  29.771   0.883
79048W        W49648  16.136   4.315  14.591
79049W        W49649  19.314  31.138  14.403
79050W        W49650  42.018  39.011   2.423
79051W        W49651  11.639  38.406  12.194
79052W        W49652  42.938  43.742   1.524
79053W        W49653  14.482  40.959   3.208
79054W        W49654  17.466  24.645  14.306
79055W        W49655   5.420   7.203  11.312
79056W        W49656   7.179  13.261  13.178
79057W        W49657  14.771  29.164  14.949
79058W        W49658  11.249  30.504   1.657
79059W        W49659  27.879  40.616   0.356
79060W        W49660  37.082  33.379  10.770
79061W        W49661  10.306  43.365  10.757
79062W        W49662  35.651   7.323  12.917
79063W        W49663  39.879   9.420  11.192
79064W        W49664  23.636  30.864   3.301
79065W        W49665   6.912  20.768   4.679
79066W        W49666  25.465  29.640  12.986
79067W        W49667  41.922   4.265   1.370
79068W        W49668  37.960   6.291  12.476
79069W        W49669  15.323  34.349   3.220
79070W        W49670  11.438  44.759   4.536
79071W        W49671  44.384  42.905   2.431
79072W        W49672   0.414  35.352  14.946
79073W        W49673  36.446  36.897  11.405
79074W        W49674  26.576  21.755  12.519
79075W        W49675  27.826  19.255   3.608
79076W        W49676  40.272  25.899   2.817
79077W        W49677  22.295  41.820   3.667
79078W        W49678   5.183   3.702   2.465
79079W        W49679  30.026  35.770   4.058
79080W        W49680  33.339  35.558   1.281
79081W        W49681  23.433  17.312  12.924
79082W        W49682  37.585   2.867   1.398
79083W        W49683  26.167  18.630   4.143
79084W        W49684  29.400  12.646  13.949
79085W        W49685  39.099  25.669   4.296
79086W        W49686  36.481   6.911  12.542
79087W        W49687   7.932   0.110  12.438
79088W        W49688  31.118  28.222   3.285
79089W        W49689  26.135  28.441   4.199
79090W        W49690  35.576  38.479   3.183
79091W        W49691  33.096   4.898  10.299
79092W        W49692  12.518  23.689   0.666
79093W        W49693  24.729  11.775   2.217
79094W        W49694  22.231  28.037   1.204
79095W        W49695  43.765  26.139  11.681
79096W        W49696  17.728  24.950  11.300
79097W        W49697  26.320  29.733   5.114
79098W        W49698  28.617  15.308   2.685
79099W        W49699  36.148  43.772   3.447
79100W        W49700  38.340   3.579   2.213
79101W        W49701  25.950  37.260   2.628
79102W        W49702   2.035  39.389  11.034
79103W        W49703   0.668  16.800  14.298
79104W        W49704  38.408  36.261  14.345
79105W        W49705  43.270   1.867  13.652
79106W        W49706  14.087  41.437   2.774
79107W        W49707   8.863  41.829   1.577
79108W        W49708  17.218  17.324  11.271
79109W        W49709  40.480  14.680   1.667
79110W        W49710  43.477  17.840   5.054
79111W        W49711  24.481  12.249  12.865
79112W        W49712  21.302  37.844   4.957
79113W        W49713   3.064  13.323  14.495
79114W        W49714  26.605  23.732   3.377
79115W        W49715  18.501  18.204   3.744
79116W        W49716  39.392  30.586   4.373
79117W        W49717  33.657  18.638   3.001
79118W        W49718  22.653  30.619   4.498
79119W        W49719   4.950  13.709   0.016
79120W        W49720  22.124  16.346  11.196
79121W        W49721  12.865  25.888  13.065
79122W        W49722  13.696   4.005  12.880
79123W        W49723  24.246   9.845  11.713
79124W        W49724  26.126  44.116  11.905
79125W        W49725   2.213  35.662   2.293
79126W        W49726  37.990  14.623  14.416
79127W        W49727  28.707  33.545  11.164
79128W        W49728   3.479  21.263   3.331
79129W        W49729  40.253   1.181  11.825
79130W        W49730  41.213   7.808  13.428
79131W        W49731  36.331  32.526  14.365
79132W        W49732  32.868   7.521   0.186
79133W        W49733  36.464  42.471   1.460
79134W        W49734  36.902  40.047   0.836
79135W        W49735  39.450   5.320  12.156
79136W        W49736  25.064  35.258  10.819
79137W        W49737   7.829   8.396  14.771
79138W        W49738   1.433  26.003   0.748
79139W        W49739  22.470  18.485   0.654
79140W        W49740  41.367  19.513  11.665
79141W        W49741  19.038  43.865   0.257
79142W        W49742   3.159  11.707  11.595
79143W        W49743  35.499   5.785  12.107
79144W        W49744  41.930  28.673  14.743
79145W        W49745  35.274  39.691  10.430
79146W        W49746  41.490  33.820   3.030
79147W        W49747  38.297  43.522   2.793
79148W        W49748  30.111  42.086  12.191
79149W        W49749  13.462  15.697  11.496
79150W        W49750  19.626  35.821  12.974
79151W        W49751   7.398  37.480   4.293
79152W        W49752  14.275  30.452  13.359
79153W        W49753   4.506  18.287  13.128
79154W        W49754  21.352  19.621   4.758
79155W        W49755  38.453   7.783   2.786
79156W        W49756  21.538  28.547   0.758
79157W        W49757  30.205  24.056   0.890
79158W        W49758  37.844   0.956  14.992
79159W        W49759   2.436   8.097  12.133
79160W        W49760  14.291   2.457  11.581
79161W        W49761  10.710  32.072   2.155
79162W        W49762   0.903  15.114   0.844
79163W        W49763  18.091  37.513   0.143
79164W        W49764  20.736  31.560   1.742
79165W        W49765  43.975  40.736  12.963
79166W        W49766   6.204  41.961   2.222
79167W        W49767  31.509  15.320   1.624
79168W        W49768  10.601  33.487  14.420
79169W        W49769  29.064   5.698   3.872
79170W        W49770  32.682  27.628  12.969
79171W        W49771   5.859  26.185  11.197
79172W        W49772  14.084  11.249   2.310
79173W        W49773  19.576  28.691  12.497
79174W        W49774  20.218   0.126   5.859
79175W        W49775  10.378  22.661   1.261
79176W        W49776   4.922  37.359   5.027
79177W        W49777   1.298  23.246  12.053
79178W        W49778  25.946  25.646  10.720
79179W        W49779  11.913   2.150  10.978
79180W        W49780  34.272  30.590  10.908
79181W        W49781  23.162  30.225  11.361
79182W        W49782  35.112  15.053   2.301
79183W        W49783  44.799  36.975   3.817
79184W        W49784  14.668  31.835   5.224
79185W        W49785  32.788  10.764   0.294
79186W        W49786  13.231  43.708  12.805
79187W        W49787  22.542  42.956  14.318
79188W        W49788   2.833   3.886  14.983
79189W        W49789  43.383  27.071   4.651
79190W        W49790  27.970  17.018  12.344
79191W        W49791  44.384   2.754  11.587
79192W        W49792  13.106   6.750  11.600
79193W        W49793   0.394   7.771   0.075
79194W        W49794  31.266  36.910   4.923
79195W        W49795   2.731  18.921   2.694
79196W        W49796  18.522   6.463   0.757
79197W        W49797  29.856  19.303  12.966
79198W        W49798  26.881  18.423   2.333
79199W        W49799  32.271  16.899  13.152
79200W        W49800   0.069  41.348   3.801
79201W        W49801  25.308   5.565   3.205
79202W        W49802  24.949   7.479   4.249
79203W        W49803  44.905  16.033   4.141
79204W        W49804  37.379  33.400   0.223
79205W        W49805   2.662  24.953   2.712
79206W        W49806  43.599  42.209   1.138
79207W        W49807   7.830  26.515   0.253
79208W        W49808   4.836  41.573   2.756
79209W        W49809  43.312  36.432   3.111
79210W        W49810  17.922  14.906   4.060
79211W        W49811  12.482  14.836  11.612
79212W        W49812  12.298  22.055  14.356
79213W        W49813   0.895  40.945   3.727
79214W        W49814  40.421  21.675  13.365
79215W        W49815  27.266  13.588   3.302
79216W        W49816   4.357  15.520  13.335
79217W        W49817  15.837  36.041  12.561
79218W        W49818   0.237  31.521  14.983
79219W        W49819   7.513  12.372  12.208
79220W        W49820  15.336   3.949   3.163
79221W        W49821  41.060  33.066  12.182
79222W        W49822  42.342  17.572  12.863
79223W        W49823  40.364  11.190   4.377
79224W        W49824  33.522  34.926   0.315
79225W        W49825  38.258   5.903  13.831
79226W        W49826   7.225  38.521  12.303
79227W        W49827  31.241   5.422   4.532
79228W        W49828  28.685  16.105  11.220
79229W        W49829   1.338  37.531  12.960
79230W        W49830  43.993   1.610  14.726
79231W        W49831  11.900  15.621   4.968
79232W        W49832  15.162   9.697  10.702
79233W        W49833  36.300   1.178   0.278
79234W        W49834  30.373  34.993   2.251
79235W        W49835  38.038  37.588   1.427
79236W        W49836  31.868  37.470   9.588
79237W        W49837  16.698   7.853  13.848
79238W        W49838  32.562  44.424   2.797
79239W        W49839   2.261  36.365   2.685
79240W        W49840  13.401  19.644   2.197
79241W        W49841  37.377  13.726  12.904
79242W        W49842   5.214  10.797   2.735
79243W        W49843  31.622  32.965   1.642
79244W        W49844  11.659  37.068   4.962
79245W        W49845  10.394  41.667   2.409
79246W        W49846   3.640   8.255  12.308
79247W        W49847   0.686  32.341  13.430
79248W        W49848  38.426  13.595  13.900
79249W        W49849   6.198  16.741   1.763
79250W        W49850  22.124  22.085  13.366
79251W        W49851  22.726  20.598   1.888
79252W        W49852   5.211  43.287  12.586
79253W        W49853  12.579   3.975  11.153
79254W        W49854  29.085  21.615   4.202
79255W        W49855  15.500  19.578   1.179
79256W        W49856  19.255  32.323  14.666
79257W        W49857   4.521  44.684   4.545
79258W        W49858  44.472  26.959   3.735
79259W        W49859   9.853  35.421   1.727
79260W        W49860  27.255  19.585  10.914
79261W        W49861  23.288  23.224  13.931
79262W        W49862  19.658  20.663  12.051
79263W        W49863  13.268  24.686   0.645
79264W        W49864  16.851   8.425   3.511
79265W        W49865   4.225   2.486  14.873
79266W        W49866  41.291  15.799  14.046
79267W        W49867  18.069  29.976  14.457
79268W        W49868  35.126  25.040  14.919
79269W        W49869  12.894  15.275  10.803
79270W        W49870   1.840  34.111   2.685
79271W        W49871  17.021  36.729   5.537
79272W        W49872   8.130  38.436  11.424
79273W        W49873   7.731  14.570  10.917
79274W        W49874   8.260  13.608   0.781
79275W        W49875  32.060   7.365  14.375
79276W        W49876  14.400  41.141  14.019
79277W        W49877  29.774   9.358   1.703
79278W        W49878  12.127  37.639  12.543
79279W        W49879   2.322  40.406   3.800
79280W        W49880   5.973  20.860   2.386
79281W        W49881  38.288  19.498   1.974
79282W        W49882  20.082  41.784   1.965
79283W        W49883  40.914  24.718  13.390
79284W        W49884  10.809  20.129  11.106
79285W        W49885  20.162  44.956   0.550
79286W        W49886  34.885  22.250  13.389
79287W        W49887  16.478  10.195   2.270
79288W        W49888  37.824  23.566  11.065
79289W        W49889  42.401  39.350  11.483
79290W        W49890  25.729  31.929   0.631
79291W        W49891  28.184  26.537  13.435
79292W        W49892  30.045  11.382   1.836
79293W        W49893  11.648  13.207  12.240
79294W        W49894  14.122  22.511  12.535
79295W        W49895  40.298   7.700  11.190
79296W        W49896  39.071  40.839   2.957
79297W        W49897  34.155  30.052   0.285
79298W        W49898  38.783  32.556  11.632
79299W        W49899  34.831  17.051   1.248
79300W        W49900  31.355  27.217   4.666
79301W        W49901  33.863  20.480  14.069
79302W        W49902  32.621  23.588   2.923
79303W        W49903   1.331   5.345   1.662
79304W        W49904  19.563  29.990  14.888
79305W        W49905  40.551   6.694   0.963
79306W        W49906   8.605  24.538  12.812
79307W        W49907  24.768  28.868  11.109
79308W        W49908  41.430   4.424   3.632
79309W        W49909  26.752   7.204   0.366
79310W        W49910  14.202  18.446  10.431
79311W        W49911   3.003  29.617   0.758
79312W        W49912   0.408  33.936  11.626
79313W        W49913  16.259  22.350  12.599
79314W        W49914  34.907  25.122   3.231
79315W        W49915  21.580   3.966   1.026
79316W        W49916  11.519  13.797   2.821
79317W        W49917  33.783  36.810   3.655
79318W        W49918  21.212  19.190  11.658
79319W        W49919  13.346  26.880   0.271
79320W        W49920  41.425   8.282  13.477
79321W        W49921  16.811   5.761  10.606
79322W        W49922  42.249   2.408   4.747
79323W        W49923  28.500   4.919   1.964
79324W        W49924   8.948  26.538  11.009
79325W        W49925   5.837  27.000  14.492
79326W        W49926   0.264  41.398  10.899
79327W        W49927  22.097  11.223   0.507
79328W        W49928  14.560  11.833  12.559
79329W        W49929  16.267  11.705  12.125
79330W        W49930   1.354  13.160  14.315
79331W        W49931  40.038  16.599   4.104
79332W        W49932  18.189   3.448  11.179
79333W        W49933  34.438   6.925  11.377
79334W        W49934  14.758  11.671  14.415
79335W        W49935  19.810  35.952   2.543
79336W        W49936  36.021  32.599  14.792
79337W        W49937  13.258  29.030  10.934
79338W        W49938  36.665  33.009   1.908
79339W        W49939  38.447  41.344  10.709
79340W        W49940  34.611  27.267   4.261
79341W        W49941  28.644  44.280   0.790
79342W        W49942   8.939  17.635  14.962
79343W        W49943  26.739  11.682   1.759
79344W        W49944   9.263  28.416  13.714
79345W        W49945  27.742   0.639  14.513
79346W        W49946  25.505  21.819   3.438
79347W        W49947  28.495  32.400  13.329
79348W        W49948   2.729  40.168   1.529
79349W        W49949  29.648   7.394  14.831
79350W        W49950   6.142  18.936  13.740
79351W        W49951  35.949   3.719   1.354
79352W        W49952   7.973  33.484   4.399
79353W        W49953  42.493   4.934  12.933
79354W        W49954  36.160  25.519  11.958
79355W        W49955   5.135  32.988  12.577
79356W        W49956   6.444   3.286  14.282
79357W        W49957  12.612   4.737   3.704
79358W        W49958  14.768  25.116   4.707
79359W        W49959  30.012  42.466   0.041
79360W        W49960  39.378   9.361   0.890
79361W        W49961  28.178  18.583  14.832
79362W        W49962  16.171   6.919  12.992
79363W        W49963  38.060   3.503   2.676
79364W        W49964   3.720  44.948  13.876
79365W        W49965  44.562  27.125   3.259
79366W        W49966  11.875  42.403  11.952
79367W        W49967  22.122  10.869   2.687
79368W        W49968  40.154  39.108   3.792
79369W        W49969   7.608  18.744   0.280
79370W        W49970  22.149  39.313  10.699
79371W        W49971  21.801  40.249  13.948
79372W        W49972   2.968  28.582   3.870
79373W        W49973  38.523  42.170   4.845
79374W        W49974  37.236  17.242  13.572
79375W        W49975  22.486  30.491  11.804
79376W        W49976  15.893  41.607  13.406
79377W        W49977  39.991  19.511   3.176
79378W        W49978   5.153  41.130  14.331
79379W        W49979   2.662   6.922  12.620
79380W        W49980  23.350  27.900   1.991
79381W        W49981  43.045  20.138   1.841
79382W        W49982  43.316  11.936  13.501
79383W        W49983  22.681  38.348   1.738
79384W        W49984   7.210  16.238  12.480
79385W        W49985   4.882  35.540  11.737
79386W        W49986  10.605  15.283   2.820
79387W        W49987  13.942  44.066   4.110
79388W        W49988  25.216  41.849   2.642
79389W        W49989  10.697  19.603   2.298
79390W        W49990   6.886  28.870  13.352
79391W        W49991   8.427   0.283   4.351
79392W        W49992  35.632  18.037  13.509
79393W        W49993  26.509  20.978  11.571
79394W        W49994  37.025  19.047   4.628
79395W        W49995  30.119  44.205  12.486
79396W        W49996   8.789  22.599   0.444
79397W        W49997  17.274   9.102   3.859
79398W        W49998   0.718  33.028   3.371
79399W        W49999  32.116  13.054   1.275
79400W        W50000  26.459  16.626   1.720
79401W        W50001   4.947  40.206   4.150
79402W        W50002  21.962  36.891  11.088
79403W        W50003  40.473  23.121   0.986
79404W        W50004  30.406  23.948  12.258
79405W        W50005  37.578  13.728   3.215
79406W        W50006  16.283  25.904   0.926
79407W        W50007   1.243   3.158  12.698
79408W        W50008  11.260  15.643  12.123
79409W        W50009   3.133  25.978  14.015
79410W        W50010  26.108   7.806  13.557
79411W        W50011  19.344  32.539   4.219
79412W        W50012  18.279  35.310  14.827
79413W        W50013  36.124  39.851  10.778
79414W        W50014  27.029   4.287   2.629
79415W        W50015  23.693  41.502   0.640
79416W        W50016  44.082  29.505   2.728
79417W        W50017  13.563  20.709   1.858
79418W        W50018  41.922  42.233   0.330
79419W        W50019  20.473  41.391   1.909
79420W        W50020   8.207   1.897  14.436
79421W        W50021   4.749  44.386  11.720
79422W        W50022  36.558  23.218   4.208
79423W        W50023   8.198  15.251  13.036
79424W        W50024   8.319  14.559   1.392
79425W        W50025   5.471  14.360   3.241
79426W        W50026  15.709  40.707  11.478
79427W        W50027  31.583  32.806   1.048
79428W        W50028  20.035  38.663   0.950
79429W        W50029  24.522  19.093  14.437
79430W        W50030  19.618  29.896  11.279
79431W        W50031  18.330  31.375   4.254
79432W        W50032   8.607  37.321  11.562
79433W        W50033   1.274  38.805   3.335
79434W        W50034  19.170   3.944   0.876
79435W        W50035  19.540   3.754  14.925
79436W        W50036  42.188  24.446  12.467
79437W        W50037   0.353  23.096   3.579
79438W        W50038  34.483  23.742  12.885
79439W        W50039  33.005  29.091  13.959
79440W        W50040  34.362   0.937  14.302
79441W        W50041  13.528   2.161  11.511
79442W        W50042  32.638  21.996  12.072
79443W        W50043  11.826  41.067   3.364
79444W        W50044  27.995  36.898  13.886
79445W        W50045  31.569  31.610  13.880
79446W        W50046  24.229   8.812  13.725
79447W        W50047  24.446   9.231   4.523
79448W        W50048   5.823  19.938  13.801
79449W        W50049  21.988  25.301  10.359
79450W        W50050  21.154  11.532   0.917
79451W        W50051   5.334   7.098   3.223
79452W        W50052  39.155  40.575   4.171
79453W        W50053   0.762  22.243  13.517
79454W        W50054  40.527   1.013   2.876
79455W        W50055  26.126  24.685   3.286
79456W        W50056  23.116  20.933  10.639
79457W        W50057   0.311  10.991  14.418
79458W        W50058  40.853  33.957   0.700
79459W        W50059  37.359  40.117   3.777
79460W        W50060  34.602  31.969  10.995
79461W        W50061  23.957  27.272   0.959
79462W        W50062  10.908  20.825   2.864
79463W        W50063  20.130  11.288   1.083
79464W        W50064  28.993  10.893  12.596
79465W        W50065   4.221  28.490  12.592
79466W        W50066  13.325  18.882   1.766
79467W        W50067  10.391   5.304  14.303
79468W        W50068  17.628   7.884  13.004
79469W        W50069  31.060  18.471  11.627
79470W        W50070  43.453  16.335  14.927
79471W        W50071  20.238  23.446   3.622
79472W        W50072  21.291  28.617   4.552
79473W        W50073   0.471  13.313   3.621
79474W        W50074  18.569  11.293  10.592
79475W        W50075  10.131  18.852  10.755
79476W        W50076  12.870  41.703  11.930
79477W        W50077   7.093  44.846  12.179
79478W        W50078  30.345  44.887  14.380
79479W        W50079  39.308  35.061   4.664
79480W        W50080  10.150  11.835  13.857
79481W        W50081  14.108  43.115   0.071
79482W        W50082   3.470  17.538   1.737
79483W        W50083  28.614  42.415   2.222
79484W        W50084  33.688  30.629  14.799
79485W        W50085  32.645  41.427   3.390
79486W        W50086  42.642  20.569   3.610
79487W        W50087  44.449   4.766  13.882
79488W        W50088  29.364  15.348  12.051
79489W        W50089  38.869  15.697   3.188
79490W        W50090  14.194  18.779  13.916
79491W        W50091  37.523  20.093   4.683
79492W        W50092  24.477  41.657   1.215
79493W        W50093  29.559  15.076   4.139
79494W        W50094  43.310  43.548  11.719
79495W        W50095  44.377   5.345  14.617
79496W        W50096  31.106  19.767  13.226
79497W        W50097  27.744  32.259  13.086
79498W        W50098  37.820  34.296   3.657
79499W        W50099   2.145  43.570   4.212
79500W        W50100  30.199  27.416  10.770
79501W        W50101  22.721  34.919   5.023
79502W        W50102  31.435   4.782   3.377
79503W        W50103  36.171  18.075  11.964
79504W        W50104  26.654  14.633  14.002
79505W        W50105  11.986  39.980  13.413
79506W        W50106   1.703  37.082  10.927
79507W        W50107  44.823  25.010   0.009
79508W        W50108   2.018  37.964   4.078
79509W        W50109  22.916   0.429  13.396
79510W        W50110   5.071  35.270   0.354
79511W        W50111  10.785  36.313  12.878
79512W        W50112  28.144  37.386  13.905
79513W        W50113  29.694  30.254   3.157
79514W        W50114   6.438  28.873   2.832
79515W        W50115  22.497  43.517   3.263
79516W        W50116  37.094   1.333   3.142
79517W        W50117  32.852  32.622   0.430
79518W        W50118  30.695  14.441  10.481
79519W        W50119  21.655  37.348  12.571
79520W        W50120  40.215  19.789   1.512
79521W        W50121  30.369   7.363   0.725
79522W        W50122  28.401  30.292  10.973
79523W        W50123  41.773  34.561  14.937
79524W        W50124  43.983  33.554  14.046
79525W        W50125  21.965  30.184  10.877
79526W        W50126  40.431  31.414   0.792
79527W        W50127  26.829  15.295   2.657
79528W        W50128  13.074   8.588   2.596
79529W        W50129  39.958  19.969  13.309
79530W        W50130  39.433  22.638  13.844
79531W        W50131  19.151   3.955   3.652
79532W        W50132   0.406  21.053  11.060
79533W        W50133   0.272  11.864   3.615
79534W        W50134  21.295  12.160  11.393
79535W        W50135   1.710  18.044  14.459
79536W        W50136  35.524   5.665  11.081
79537W        W50137  13.802  15.878   3.221
79538W        W50138  40.478  35.120  10.742
79539W        W50139  10.228  32.723  11.146
79540W        W50140  22.051  40.635   1.196
79541W        W50141  10.889  36.541   2.300
79542W        W50142  42.848   8.880  12.959
79543W        W50143  10.168  20.697   2.374
79544W        W50144  11.560  42.926   0.738
79545W        W50145  16.073  44.262  10.305
79546W        W50146   6.427   5.543  11.039
79547W        W50147  10.132  16.372  13.910
79548W        W50148  11.644  41.421  12.422
79549W        W50149   7.391   9.851   3.800
79550W        W50150   1.739  17.330   3.761
79551W        W50151  27.124  22.080   0.485
79552W        W50152  34.858   6.768   4.699
79553W        W50153  42.402   0.361  14.355
79554W        W50154  36.983   5.000  13.582
79555W        W50155  25.998  43.379  14.668
79556W        W50156   1.986   4.334  11.582
79557W        W50157  19.176  40.515  13.365
79558W        W50158   7.967  15.301   1.785
79559W        W50159  36.847  33.370  13.436
79560W        W50160  39.077  44.308   4.541
79561W        W50161  20.937  39.663  11.167
79562W        W50162  41.462   7.257  13.172
79563W        W50163  28.500  29.478   3.372
79564W        W50164  12.447  20.657   4.562
79565W        W50165   7.349  35.002   3.614
79566W        W50166  35.551  44.672  14.297
79567W        W50167  42.111  25.028  10.799
79568W        W50168  42.328  13.328   4.759
79569W        W50169  16.185  27.743  13.480
79570W        W50170   0.890   1.505   1.288
79571W        W50171  15.875  14.042   4.062
79572W        W50172  15.077  18.302   3.670
79573W        W50173  42.008  32.387   0.676
79574W        W50174  25.180   8.420  13.975
79575W        W50175  37.930  38.336  14.337
79576W        W50176  31.515  12.715  12.461
79577W        W50177  27.089  25.459  13.572
79578W        W50178  44.520  14.161   1.198
79579W        W50179   1.907  29.585  12.921
79580W        W50180  14.178   1.341  13.417
79581W        W50181  15.615  37.790   2.393
79582W        W50182  20.447  18.109   2.124
79583W        W50183  19.791  27.190  11.636
79584W        W50184   7.019  27.184   4.403
79585W        W50185  40.821   0.510   4.530
79586W        W50186  20.554   2.887  10.401
79587W        W50187  33.737  17.544   0.370
79588W        W50188  29.547  17.001  11.684
79589W        W50189  38.009  22.468  12.439
79590W        W50190  26.128   2.727   1.960
79591W        W50191  28.564   5.437   2.077
79592W        W50192  10.220  37.935  13.572
79593W        W50193  15.293   2.736   3.796
79594W        W50194  41.998  17.696   2.412
79595W        W50195  29.528  23.734  13.686
79596W        W50196  27.998  40.662  11.097
79597W        W50197   1.098  24.023  10.754
79598W        W50198  33.361  32.642   0.351
79599W        W50199   6.001  10.567   2.865
79600W        W50200   2.041   9.379  10.903
79601W        W50201  32.919  41.286  13.557
79602W        W50202   2.268   3.413   1.747
79603W        W50203  33.097  35.552  11.534
79604W        W50204  18.211   0.216   0.270
79605W        W50205   3.755  27.998   0.013
79606W        W50206  33.142  32.582  13.557
79607W        W50207  34.784  21.668  12.529
79608W        W50208  36.823   5.407  11.135
79609W        W50209   0.020  26.514  11.689
79610W        W50210   9.396  38.593  12.483
79611W        W50211   9.151   1.951  13.281
79612W        W50212  25.641  37.612  14.591
79613W        W50213  20.491   7.644  13.542
79614W        W50214  25.463  28.052   3.712
79615W        W50215   0.207  24.320  12.909
79616W        W50216  10.127  36.101  10.052
79617W        W50217  11.803   9.623   1.779
79618W        W50218  13.893  27.454   1.557
79619W        W50219  22.535  21.746   4.544
79620W        W50220  21.409  20.818  13.457
79621W        W50221  19.293  37.325   1.344
79622W        W50222  33.195  13.132  13.900
79623W        W50223  24.427   6.552  14.740
79624W        W50224  24.290   7.870  12.160
79625W        W50225   9.568  16.231   0.168
79626W        W50226  14.539  37.112   4.319
79627W        W50227  14.746   6.466   3.659
79628W        W50228  31.373  14.115  11.025
79629W        W50229  25.525  21.085  13.984
79630W        W50230   0.728   4.445  13.543
79631W        W50231  41.553   3.533   4.568
79632W        W50232  28.730   5.141  10.379
79633W        W50233  14.536  25.229  12.456
79634W        W50234  35.772  23.402  11.055
79635W        W50235  20.380   7.329   0.033
79636W        W50236  16.821   1.835   3.351
79637W        W50237  42.348  34.809  14.916
79638W        W50238   5.481  19.442   2.953
79639W        W50239   4.416  12.254  11.164
79640W        W50240  13.742  31.599   4.678
79641W        W50241  13.049  16.675  11.614
79642W        W50242  31.580   0.940  11.920
79643W        W50243   6.649   9.897   4.068
79644W        W50244  24.820   7.799   3.094
79645W        W50245   6.733   7.981   4.174
79646W        W50246  25.677  29.371   2.626
79647W        W50247  40.924  39.412  10.730
79648W        W50248   8.648  25.823  11.602
79649W        W50249  27.437  32.581   4.212
79650W        W50250   6.670   3.521   4.058
79651W        W50251  21.697  27.920   1.385
79652W        W50252  43.485  13.200  14.001
79653W        W50253   0.934  24.849  13.561
79654W        W50254  42.048  18.602  12.453
79655W        W50255  29.260   2.624  12.620
79656W        W50256   6.936  27.056  12.978
79657W        W50257  13.178   9.222   2.136
79658W        W50258  12.643   3.451  12.569
79659W        W50259  36.448  10.087  13.026
79660W        W50260  18.819  29.611  10.709
79661W        W50261  30.204  34.102   1.221
79662W        W50262  34.112  24.264   2.004
79663W        W50263   3.774  19.354  11.502
79664W        W50264  13.739  39.445  10.405
79665W        W50265   7.159  41.612   4.627
79666W        W50266  25.074  35.536  13.839
79667W        W50267   1.759   7.036   1.030
79668W        W50268  14.074  33.875   1.299
79669W        W50269  15.702   9.288   0.729
79670W        W50270  10.951  25.993  13.550
79671W        W50271  26.174  33.024  13.111
79672W        W50272  30.590  18.365   1.900
79673W        W50273  32.143  39.063   0.937
79674W        W50274  11.300   4.372  14.181
79675W        W50275   3.344  22.037   3.868
79676W        W50276  41.286  37.329  10.589
79677W        W50277  20.903  33.093  13.310
79678W        W50278  17.692  20.714   0.859
79679W        W50279   3.427  18.484  12.523
79680W        W50280  30.820  26.053   0.921
79681W        W50281  33.337  15.651   4.128
79682W        W50282  22.250  11.639   0.016
79683W        W50283   5.811   2.657   0.463
79684W        W50284  34.922   1.841   4.462
79685W        W50285  27.916   1.362   3.681
79686W        W50286  16.029  20.625   0.428
79687W        W50287  10.639   0.271   2.077
79688W        W50288  24.487  20.144   1.300
79689W        W50289  18.334  25.688   3.661
79690W        W50290  25.690   4.796   1.812
79691W        W50291  12.242   4.114   4.618
79692W        W50292  35.646  17.151  13.491
79693W        W50293  22.226  27.252  12.883
79694W        W50294   2.250  33.370  14.004
79695W        W50295  29.065  13.748   3.633
79696W        W50296  43.479  18.110  11.029
79697W        W50297  33.875  13.263   1.144
79698W        W50298  25.146  17.653   2.857
79699W        W50299  12.303  26.027  12.304
79700W        W50300  34.874  23.541  14.730
79701W        W50301  20.101  42.909   0.369
79702W        W50302  29.411  39.007   4.852
79703W        W50303  23.218  11.163  14.846
79704W        W50304  31.097  14.700  12.080
79705W        W50305  17.795  33.399   3.593
79706W        W50306  13.276   3.907  11.027
79707W        W50307  30.025  39.814  13.768
79708W        W50308  15.779  43.740  11.949
79709W        W50309  31.731  27.848  14.419
79710W        W50310   1.323  30.533   3.868
79711W        W50311  18.185  26.258  11.578
79712W        W50312   2.338  20.574   2.613
79713W        W50313  11.307  22.359  11.146
79714W        W50314  16.624  25.188   1.482
79715W        W50315   6.445   3.622   1.805
79716W        W50316  16.162  33.479  14.784
79717W        W50317   7.497  28.275   1.355
79718W        W50318  36.660  32.493  12.459
79719W        W50319   6.284  31.174  13.011
79720W        W50320  10.775  12.590   3.484
79721W        W50321  44.778  44.639   4.431
79722W        W50322  33.597   5.781   2.644
79723W        W50323   2.446  37.597  11.184
79724W        W50324   9.467   9.407   2.458
79725W        W50325  10.280  22.955   0.193
79726W        W50326   7.276  13.706   4.159
79727W        W50327  20.494   3.501  12.563
79728W        W50328  34.629  35.819   2.508
79729W        W50329  44.387   7.686   0.319
79730W        W50330  29.465  44.599   2.650
79731W        W50331  24.243  11.641   3.095
79732W        W50332   8.777   0.251   3.169
79733W        W50333  10.373  37.493   1.405
79734W        W50334  42.540  28.047  14.782
79735W        W50335  10.482  44.355   3.026
79736W        W50336   5.819  12.570  12.963
79737W        W50337  26.308  26.638   0.962
79738W        W50338   3.984   2.876   1.691
79739W        W50339  15.694  36.611   0.425
79740W        W50340  31.127  33.073  12.028
79741W        W50341  39.333   7.756  12.859
79742W        W50342   0.109  23.137   4.903
79743W        W50343  25.883   3.224  14.146
79744W        W50344  30.031  41.471  12.273
79745W        W50345  27.880  29.751  12.966
79746W        W50346  12.850  24.516   2.683
79747W        W50347  35.097   8.953  14.487
79748W        W50348  36.624   9.319  11.885
79749W        W50349  20.549  12.805  12.419
79750W        W50350  16.595  35.649   3.433
79751W        W50351  22.753  22.194   0.171
79752W        W50352  41.159  37.109  12.901
79753W        W50353  35.647  23.529  11.521
79754W        W50354  41.209  19.628  14.453
79755W        W50355  24.090  29.041  13.989
79756W        W50356  42.461  27.950  13.976
79757W        W50357  25.921  44.853   2.806
79758W        W50358  27.982  31.162   1.206
79759W        W50359  35.794  30.790  12.013
79760W        W50360   5.971   5.707   3.065
79761W        W50361  38.117  20.376   2.747
79762W        W50362  18.214  31.459  10.964
79763W        W50363  17.305  35.555   1.342
79764W        W50364  29.640  12.304   1.045
79765W        W50365  15.613  24.901  11.054
79766W        W50366  33.097  19.800  13.241
79767W        W50367  19.849   0.380  12.077
79768W        W50368   6.298  17.794  12.899
79769W        W50369  35.094  16.333   0.792
79770W        W50370   3.184  19.544   1.301
79771W        W50371   6.321  23.104  12.932
79772W        W50372   8.849  35.967  11.526
79773W        W50373  27.922  38.833  10.497
79774W        W50374  10.672   0.762   0.266
79775W        W50375   9.593  14.999   3.856
79776W        W50376  20.750   3.295   0.139
79777W        W50377  13.902  37.998  14.367
79778W        W50378  10.440  25.106   4.320
79779W        W50379   5.673   9.670   3.211
79780W        W50380   0.937  11.089   3.566
79781W        W50381  17.896  31.123   4.125
79782W        W50382  44.322  21.816   2.007
79783W        W50383  42.526  34.863   1.272
79784W        W50384  10.120  37.102  14.909
79785W        W50385  20.742  39.001   4.436
79786W        W50386   1.281  22.500   0.530
79787W        W50387  37.339  11.414  11.649
79788W        W50388  30.541  26.988  11.708
79789W        W50389  22.740   0.972  13.184
79790W        W50390  41.013  18.149   1.797
79791W        W50391  31.860  10.367   1.580
79792W        W50392  43.683   4.942   2.248
79793W        W50393  14.321  39.856  13.363
79794W        W50394  12.068   1.901   2.105
79795W        W50395   7.308   5.509  13.444
79796W        W50396  29.421  30.517  12.975
79797W        W50397   4.600  42.886   2.433
79798W        W50398  29.164  26.205   4.256
79799W        W50399   9.264  39.493   1.294
79800W        W50400  20.782  44.547   1.755
79801W        W50401  25.217  23.028  11.188
79802W        W50402   7.502  29.872  12.607
79803W        W50403  14.347  44.749  13.924
79804W        W50404   1.998  10.684   3.340
79805W        W50405   5.943  29.477  11.367
79806W        W50406  12.399  27.441  12.030
79807W        W50407  26.615  12.170  14.074
79808W        W50408  17.620  15.081   0.754
79809W        W50409  10.882   0.381  12.231
79810W        W50410  37.906   3.714   4.053
79811W        W50411  24.134  24.524   3.726
79812W        W50412  18.176  22.537  12.736
79813W        W50413   5.299  16.242   3.283
79814W        W50414  44.010  31.931  11.042
79815W        W50415   8.326  11.781   0.419
79816W        W50416  42.599  31.323   2.684
79817W        W50417  35.203  15.580   2.283
79818W        W50418  15.769  41.369   4.361
79819W        W50419  25.683   2.896   3.696
79820W        W50420  41.247  17.672   5.390
79821W        W50421   1.033   0.257   2.189
79822W        W50422  15.739  40.364   1.297
79823W        W50423  28.174  37.494  10.338
79824W        W50424   7.597  21.337   3.701
79825W        W50425  35.088  13.536   1.379
79826W        W50426  36.532  12.579  11.881
79827W        W50427   7.471   0.501  13.299
79828W        W50428   9.241  24.012  13.010
79829W        W50429   1.512   2.958   0.426
79830W        W50430   4.015  20.208  11.342
79831W        W50431  32.637  14.652  10.672
79832W        W50432  18.666   3.686   3.725
79833W        W50433  26.182  33.623   4.445
79834W        W50434   4.909  39.802   3.146
79835W        W50435  30.101  10.778   4.089
79836W        W50436  30.352  14.157   4.694
79837W        W50437  22.253  16.855   1.709
79838W        W50438   4.444  25.123  14.842
79839W        W50439  20.613  12.714   4.340
79840W        W50440   2.493  13.862   0.081
79841W        W50441  13.053   5.486  13.381
79842W        W50442  17.965  21.013   4.180
79843W        W50443   6.677  43.569   3.669
79844W        W50444  36.150  16.821   2.271
79845W        W50445  32.570  42.525   0.525
79846W        W50446  44.210  44.526  14.575
79847W        W50447  27.151   2.726   4.723
79848W        W50448   2.001  26.127  12.526
79849W        W50449   9.677  11.387   0.828
79850W        W50450  35.149  21.807  13.349
79851W        W50451  10.174  36.357   1.274
79852W        W50452  39.066   9.637   4.583
79853W        W50453  44.470  38.722   9.956
79854W        W50454  11.270  13.113  11.886
79855W        W50455  11.488   3.703   1.900
79856W        W50456  29.500   3.492   2.856
79857W        W50457  17.313  18.162   1.328
79858W        W50458  11.365  26.139   2.531
79859W        W50459  15.820  28.591  10.538
79860W        W50460  27.024  39.551   0.191
79861W        W50461  33.371  44.426   4.829
79862W        W50462   7.451   8.279   3.653
79863W        W50463   2.284  33.570   1.087
79864W        W50464  28.198  38.039  12.906
79865W        W50465  20.664  11.446   2.736
79866W        W50466   1.894  40.960   0.534
79867W        W50467  13.659  13.139  10.662
79868W        W50468  38.275   1.351   4.158
79869W        W50469   0.545  35.033  11.079
79870W        W50470  15.853  11.109   4.144
79871W        W50471  35.166   0.481  12.192
79872W        W50472  37.095   3.805   1.864
79873W        W50473  22.515   1.799   0.319
79874W        W50474   1.962   9.948   2.812
79875W        W50475  28.100  40.805  13.060
79876W        W50476   9.881  38.257   3.639
79877W        W50477  13.591   5.276  10.451
79878W        W50478  26.310  30.568   1.816
79879W        W50479  26.104   1.930   2.653
79880W        W50480  35.897  15.881  10.807
79881W        W50481  36.205   0.878   1.476
79882W        W50482  30.491  25.271   1.466
79883W        W50483  15.830  13.520  12.359
79884W        W50484  40.774   9.434   1.733
79885W        W50485  39.764   1.947  14.853
79886W        W50486   1.141  13.143  11.101
79887W        W50487  20.761  30.587  11.233
79888W        W50488  12.896  29.934   0.168
79889W        W50489   8.423  33.986  12.997
79890W        W50490  11.860  19.489   3.647
79891W        W50491  35.501  14.228   0.907
79892W        W50492  43.214   2.648  12.821
79893W        W50493  17.367   0.690  11.041
79894W        W50494  16.666  22.566   2.372
79895W        W50495  42.484  10.623   0.205
79896W        W50496  19.160   5.750   4.129
79897W        W50497  18.364  35.550   1.167
79898W        W50498  35.457  44.916   0.578
79899W        W50499  19.958  18.536   3.058
79900W        W50500  42.485  14.172   2.630
79901W        W50501  43.270  22.613  14.074
79902W        W50502  22.247   7.478   0.464
79903W        W50503   4.043   8.835  12.670
79904W        W50504  40.068   6.366   2.752
79905W        W50505  21.975  19.057  11.174
79906W        W50506  35.589   0.521   2.794
79907W        W50507  15.320  36.576   3.486
79908W        W50508   9.124  13.731   3.094
79909W        W50509  10.143   8.716  11.936
79910W        W50510  28.148  11.802   2.759
79911W        W50511  42.983  44.760  10.920
79912W        W50512  19.500  39.103   2.296
79913W        W50513   6.397   9.022  13.674
79914W        W50514  25.155  13.789   1.991
79915W        W50515  17.749   7.757   3.729
79916W        W50516  35.717  31.166  11.073
79917W        W50517  41.819  14.754  14.791
79918W        W50518  31.604   0.041  10.722
79919W        W50519  29.315  23.013  12.142
79920W        W50520  34.272   5.323  14.719
79921W        W50521  22.532  31.578  13.492
79922W        W50522  37.128  12.825   3.639
79923W        W50523  33.257   8.391  10.926
79924W        W50524  37.788  28.525   0.223
79925W        W50525   5.808  28.519  12.022
79926W        W50526  39.305  14.627  13.864
79927W        W50527  18.322  24.574  12.148
79928W        W50528  43.928   5.372   0.407
79929W        W50529  33.579  11.656   4.626
79930W        W50530  25.375  26.958   3.650
79931W        W50531   1.272  40.562   3.750
79932W        W50532  24.258   0.702  13.493
79933W        W50533  18.114  19.633   4.176
79934W        W50534  36.763  30.780   2.990
79935W        W50535  28.542   7.388   0.879
79936W        W50536  20.514  33.519   0.881
79937W        W50537   7.719   6.640   1.764
79938W        W50538  27.926  20.719   4.274
79939W        W50539  37.955  23.155   0.408
79940W        W50540  30.042  12.393  10.643
79941W        W50541  36.141   5.225   3.118
79942W        W50542  44.290  20.152  14.110
79943W        W50543  26.529   8.913   2.187
79944W        W50544  33.952  18.926   1.530
79945W        W50545  42.242  24.728   3.297
79946W        W50546  25.615  18.186  12.514
79947W        W50547  30.129  36.535  12.999
79948W        W50548   6.827   8.350  13.122
79949W        W50549  16.251  37.341  10.954
79950W        W50550   1.309  34.110   2.255
79951W        W50551  18.690  29.560   2.029
79952W        W50552  32.433  10.967  12.467
79953W        W50553  15.194  24.423   2.752
79954W        W50554  16.228   4.362  14.065
79955W        W50555  17.126  36.094   0.006
79956W        W50556   8.981  27.589  11.953
79957W        W50557  21.158  32.962   2.691
79958W        W50558   9.087  13.322   0.794
79959W        W50559   0.764  17.197  10.894
79960W        W50560  30.578   3.169  12.524
79961W        W50561  39.229  37.615  13.497
79962W        W50562  14.573  44.259   4.510
79963W        W50563   4.933  26.052  14.559
79964W        W50564  24.213  20.837  11.564
79965W        W50565  31.056  27.502  11.714
79966W        W50566  21.374   2.299   2.268
79967W        W50567  29.362  34.514  10.610
79968W        W50568  39.881  11.348  13.640
79969W        W50569  21.476  36.166   1.484
79970W        W50570  34.181  20.737  12.124
79971W        W50571   1.331  43.525  12.822
79972W        W50572  25.682  20.168  13.667
79973W        W50573  13.099   3.822   4.896
79974W        W50574   6.926  29.393   2.401
79975W        W50575   5.562  15.974   3.655
79976W        W50576   7.261   4.850   1.800
79977W        W50577  37.595   1.407   3.075
79978W        W50578   7.230  34.534   5.016
79979W        W50579  31.988  40.397   2.172
79980W        W50580  35.072  17.526   3.578
79981W        W50581  13.023   0.032   1.850
79982W        W50582  30.513  41.877   3.801
79983W        W50583  44.019  16.248  10.710
79984W        W50584   1.364   5.303  11.135
79985W        W50585  35.902   4.252   1.394
79986W        W50586  27.077  15.148   3.133
79987W        W50587   8.875  17.906   0.899
79988W        W50588  41.940   6.859   3.159
79989W        W50589  10.115  16.231  14.790
79990W        W50590  14.051  12.935   3.605
79991W        W50591  30.056   1.436   0.949
79992W        W50592  39.696   8.713   4.535
79993W        W50593  43.592   0.515   2.573
79994W        W50594  31.227  14.748  13.974
79995W        W50595  33.046  15.059  12.512
79996W        W50596  13.209  25.280   5.070
79997W        W50597  24.974  41.353   4.234
79998W        W50598  34.630  16.473  14.997
79999W        W50599  31.925  22.797   0.822
80000W        W50600  36.374  15.809  11.577
80001W        W50601   8.745   2.229   2.365
80002W        W50602  30.614  31.490   4.161
80003W        W50603  38.162  36.930  13.916
80004W        W50604   7.350  14.941   3.201
80005W        W50605  43.982  18.497   3.978
80006W        W50606  26.981  38.529   1.485
80007W        W50607  36.550   3.550   3.878
80008W        W50608  35.992  40.037  11.538
80009W        W50609  19.508  17.209   0.821
80010W        W50610  40.534  31.702   2.824
80011W        W50611  10.451  24.408   3.078
80012W        W50612  13.025  11.068   3.017
80013W        W50613  10.099  28.065  10.799
80014W        W50614   4.392  11.202  13.723
80015W        W50615   7.399  26.140   4.122
80016W        W50616  26.502  34.086  13.935
80017W        W50617  17.685  33.857  13.736
80018W        W50618  14.257  22.602   4.696
80019W        W50619  28.857  13.793  12.696
80020W        W50620  42.798  10.707  11.681
80021W        W50621  22.595  27.733   4.677
80022W        W50622  15.338  32.209  11.936
80023W        W50623  18.779  19.156  12.024
80024W        W50624  32.816   2.061   4.151
80025W        W50625   3.936  29.903   0.467
80026W        W50626   2.778   0.466  13.284
80027W        W50627  43.837  44.537   1.385
80028W        W50628  30.031  24.162   4.388
80029W        W50629  13.152  11.657   2.201
80030W        W50630  36.908   3.996  14.774
80031W        W50631  35.363  22.246  13.090
80032W        W50632  19.985  23.991   4.519
80033W        W50633  28.682  26.725  13.413
80034W        W50634  38.006   5.230  14.547
80035W        W50635  12.613  13.331   3.722
80036W        W50636   2.912  27.628   1.732
80037W        W50637   1.522  37.586   2.752
80038W        W50638   0.705  19.451   1.803
80039W        W50639  19.766  27.517  12.916
80040W        W50640  23.688  40.942   4.367
80041W        W50641  21.480   3.206   2.197
80042W        W50642  15.290  38.007  14.761
80043W        W50643  38.580  22.686   0.199
80044W        W50644  21.125  43.983  14.070
80045W        W50645  31.601  26.900   3.253
80046W        W50646   1.246  30.245  13.151
80047W        W50647  17.177  14.096  11.277
80048W        W50648  14.291   3.560   1.361
80049W        W50649  13.908  17.408  12.092
80050W        W50650  22.409  15.377   2.181
80051W        W50651  42.701  43.622   2.815
80052W        W50652  43.966  23.680  12.836
80053W        W50653  17.609  26.411  13.280
80054W        W50654  31.963  36.574   2.549
80055W        W50655  14.295  10.896  12.459
80056W        W50656   2.953   9.180  12.774
80057W        W50657  13.630  24.243  12.873
80058W        W50658  11.149  39.512   4.594
80059W        W50659  14.309  28.844   4.223
80060W        W50660  36.571  30.425  11.262
80061W        W50661  26.906  26.593  11.666
80062W        W50662  19.615   5.644  12.939
80063W        W50663  21.115  39.083   3.855
80064W        W50664  32.953   3.898  14.789
80065W        W50665  19.746  43.339  13.047
80066W        W50666  25.200  44.510  10.420
80067W        W50667  20.113  13.114  13.513
80068W        W50668  15.758  24.172   1.158
80069W        W50669  16.648   5.879  11.081
80070W        W50670  35.703  44.922  13.866
80071W        W50671   5.927   7.398   3.898
80072W        W50672  31.398   0.524  12.555
80073W        W50673  10.962  19.032  12.400
80074W        W50674   2.722  40.873   1.416
80075W        W50675   1.505  21.232  11.792
80076W        W50676  29.453   6.358  11.138
80077W        W50677  37.916  17.806  11.451
80078W        W50678  33.537  12.320   1.757
80079W        W50679  34.849  16.561  11.565
80080W        W50680  35.330  37.356   1.145
80081W        W50681  17.669  43.831  11.690
80082W        W50682  36.594   4.901   1.452
80083W        W50683  12.180  26.465   1.410
80084W        W50684  10.738   4.942  11.558
80085W        W50685  26.001  35.922   4.209
80086W        W50686   7.130   0.488   4.553
80087W        W50687   7.418  19.157  14.921
80088W        W50688  30.069  18.550   0.841
80089W        W50689  19.832  36.442  13.500
80090W        W50690   2.400  26.431   1.828
80091W        W50691   2.342  15.162  11.161
80092W        W50692  31.539  35.701   4.533
80093W        W50693   2.210  43.726  13.822
80094W        W50694  34.473  26.177  14.785
80095W        W50695  13.122  27.056   2.636
80096W        W50696  30.504  33.422  14.491
80097W        W50697  34.047  34.031  10.441
80098W        W50698  36.617  26.480   3.228
80099W        W50699  26.039  39.312  10.806
80100W        W50700   4.503  30.427  11.601
80101W        W50701  23.075  16.737   3.907
80102W        W50702  16.723  17.806  12.616
80103W        W50703   8.693  25.954  14.418
80104W        W50704  24.415  12.378  11.950
80105W        W50705   7.280   0.928   2.322
80106W        W50706  44.839   7.659  12.520
80107W        W50707  36.576  10.445   1.851
80108W        W50708  39.282  43.811  11.293
80109W        W50709  14.662  29.319  14.000
80110W        W50710  23.420  14.815   4.774
80111W        W50711  36.000   2.159   4.267
80112W        W50712   4.318  33.923   2.922
80113W        W50713  38.527  20.816   0.379
80114W        W50714  15.699  29.369  13.018
80115W        W50715  11.587  24.139   4.261
80116W        W50716  23.701  41.465   1.149
80117W        W50717  25.314  16.413  11.102
80118W        W50718   1.168   4.476   0.353
80119W        W50719  35.501  35.222   4.498
80120W        W50720  15.673  30.248   0.445
80121W        W50721  34.076  33.522  10.552
80122W        W50722  22.164  11.573   2.233
80123W        W50723  21.781   0.320   2.625
80124W        W50724  34.223   6.866   3.556
80125W        W50725   4.712  31.703  11.457
80126W        W50726   3.791  14.277  13.630
80127W        W50727  11.233  40.056   0.268
80128W        W50728  29.546  27.016   4.534
80129W        W50729  42.776  39.604   2.702
80130W        W50730  26.113  44.380   4.676
80131W        W50731   1.733  27.068  11.243
80132W        W50732  23.733  34.820  13.457
80133W        W50733  27.496  38.659   0.890
80134W        W50734  28.596  39.566   3.222
80135W        W50735  29.009   3.630   2.661
80136W        W50736  37.344  23.949   0.276
80137W        W50737  22.589  27.762   0.528
80138W        W50738  41.679  35.188  11.541
80139W        W50739  17.786  27.001  14.543
80140W        W50740   7.373  34.696  11.734
80141W        W50741  17.196   2.199   0.597
80142W        W50742  11.567   3.106  14.074
80143W        W50743  32.450  28.883   4.181
80144W        W50744  35.732  26.567   4.512
80145W        W50745  29.460  34.443   0.975
80146W        W50746  18.901  26.446  12.422
80147W        W50747  17.075  41.964  13.910
80148W        W50748  28.594  29.620  12.541
80149W        W50749  44.135  43.269  10.235
80150W        W50750  41.306  14.274  11.109
80151W        W50751   6.969  21.047  13.781
80152W        W50752  37.035   5.930   0.396
80153W        W50753  40.726   6.663  11.987
80154W        W50754   2.198  44.865   3.640
80155W        W50755   9.786   6.657   0.423
80156W        W50756  13.230  38.803   0.334
80157W        W50757   0.834  20.051   3.374
80158W        W50758  14.672  17.022  11.269
80159W        W50759  29.010  28.450   3.711
80160W        W50760  35.673  31.038  11.558
80161W        W50761   7.176  22.437  14.841
80162W        W50762   5.216  36.650   3.910
80163W        W50763  28.401  32.935   4.045
80164W        W50764   7.705  16.700  10.611
80165W        W50765  30.939  39.274  14.597
80166W        W50766  37.419  38.469  14.287
80167W        W50767   2.715  12.344   0.880
80168W        W50768  12.095  44.852  14.462
80169W        W50769  25.719  26.121  12.621
80170W        W50770  28.436   4.789  11.104
80171W        W50771  29.078  29.874   2.693
80172W        W50772  20.225  40.000   0.456
80173W        W50773  26.646  28.394  12.078
80174W        W50774   3.395  35.825   0.389
80175W        W50775  16.071  10.327  11.527
80176W        W50776  11.697  42.457  10.975
80177W        W50777  41.252  38.092  13.021
80178W        W50778  18.667   3.482  13.444
80179W        W50779  27.869  27.429   2.490
80180W        W50780  20.276  38.361   1.372
80181W        W50781  35.325  17.635  14.297
80182W        W50782   7.151  32.562  12.876
80183W        W50783   1.947  41.429  12.478
80184W        W50784  41.873  23.526   0.418
80185W        W50785  19.958  28.511  10.711
80186W        W50786  18.548  39.862  11.057
80187W        W50787  12.944  31.533   4.125
80188W        W50788  35.553  17.697  13.084
80189W        W50789   8.934  33.625  12.082
80190W        W50790  14.522  34.188   3.540
80191W        W50791  34.303  40.195   4.844
80192W        W50792  37.227  30.901   5.181
80193W        W50793  26.650  28.712   1.942
80194W        W50794  15.787  23.056   2.238
80195W        W50795  11.243   4.704   3.930
80196W        W50796  22.092  14.786  11.615
80197W        W50797   0.940  15.653  13.962
80198W        W50798  12.242  26.529  11.198
80199W        W50799  10.873   0.828   2.750
80200W        W50800  42.109  33.640   1.944
80201W        W50801  22.548   2.842  14.910
80202W        W50802  42.905  32.870  13.944
80203W        W50803  33.021   2.189  14.932
80204W        W50804   8.194  25.206  13.125
80205W        W50805  34.497  32.624   1.391
80206W        W50806  31.601   6.993  11.531
80207W        W50807   1.533   1.633   2.382
80208W        W50808  12.271   7.937   3.649
80209W        W50809  19.984  27.285  10.310
80210W        W50810   6.852  27.505  10.345
80211W        W50811  43.752  22.589   2.333
80212W        W50812  27.853  13.235   4.861
80213W        W50813   9.876  36.821  14.485
80214W        W50814   4.662   1.070  11.112
80215W        W50815   5.751  17.728  14.850
80216W        W50816   4.319  29.515  12.419
80217W        W50817  28.180   8.167   3.713
80218W        W50818  38.755  35.459  14.197
80219W        W50819  34.112  28.738   0.420
80220W        W50820  13.619  16.723  10.681
80221W        W50821  22.398  31.575  11.755
80222W        W50822  28.793  26.396  12.124
80223W        W50823   1.953  31.098   4.906
80224W        W50824  31.728   7.911   4.104
80225W        W50825   1.192   1.046   0.348
80226W        W50826  41.721   9.246   1.714
80227W        W50827  16.513  35.480   0.969
80228W        W50828  15.666  42.383  11.825
80229W        W50829  15.658  12.081  11.595
80230W        W50830  37.851  23.408   1.359
80231W        W50831  19.398  35.140   4.949
80232W        W50832  38.963   0.100  12.623
80233W        W50833  22.716   5.636  11.588
80234W        W50834  15.712  22.996  11.939
80235W        W50835   2.151  31.968  14.207
80236W        W50836  39.350  30.589   1.311
80237W        W50837   1.228  12.277  10.828
80238W        W50838  32.914   9.956  12.801
80239W        W50839  40.111  25.739   4.166
80240W        W50840  15.718  13.739   0.908
80241W        W50841  24.766  12.172   1.866
80242W        W50842  32.804   9.087  12.499
80243W        W50843  20.020  18.751   3.525
80244W        W50844  14.112   8.688   1.648
80245W        W50845   9.810  11.821   3.237
80246W        W50846  33.760  14.876   2.337
80247W        W50847  33.038  19.679  12.264
80248W        W50848  14.307  21.365   3.809
80249W        W50849   9.801  38.346   3.123
80250W        W50850  31.381   0.706   2.391
80251W        W50851  11.910  20.186   2.217
80252W        W50852  28.006   8.421  10.119
80253W        W50853  17.737   4.171   4.143
80254W        W50854  33.094   1.291   4.628
80255W        W50855  12.045  10.205   4.300
80256W        W50856   0.499  21.442   5.106
80257W        W50857  44.304  37.556  14.458
80258W        W50858   0.753  19.914   3.860
80259W        W50859  27.629   8.423   2.762
80260W        W50860  19.132  15.019   3.633
80261W        W50861  13.370  30.630  12.873
80262W        W50862  22.729  18.133  13.895
80263W        W50863  38.843   1.513   0.468
80264W        W50864   6.797  22.441  12.771
80265W        W50865   3.193  22.019  14.728
80266W        W50866  44.865  44.513   2.638
80267W        W50867  24.760  36.410   0.613
80268W        W50868  25.060  27.158   4.707
80269W        W50869  16.231   5.806  10.696
80270W        W50870  22.760  34.148  14.786
80271W        W50871  38.015   4.026   1.831
80272W        W50872  42.354  12.766   2.147
80273W        W50873  41.956   0.387  12.141
80274W        W50874  43.978  31.451  13.083
80275W        W50875  42.403  32.752   1.016
80276W        W50876  17.868  31.091  11.034
80277W        W50877  44.022  11.118   3.234
80278W        W50878  23.717  23.996  13.559
80279W        W50879  44.029   6.789  12.112
80280W        W50880  40.856  22.472   2.423
80281W        W50881   1.257  11.356  11.339
80282W        W50882  39.600  27.047   0.830
80283W        W50883   5.818  11.332   4.984
80284W        W50884   5.217  44.421  14.517
80285W        W50885  21.794  14.080   1.360
80286W        W50886   6.701  28.609   1.418
80287W        W50887  26.927   4.772   4.541
80288W        W50888   3.216  24.171   3.241
80289W        W50889  29.222  34.298   4.168
80290W        W50890   2.975  16.904  14.141
80291W        W50891   3.569  33.005   1.878
80292W        W50892  24.948  30.494  14.916
80293W        W50893  22.298  32.057   2.011
80294W        W50894  31.495  14.365  13.774
80295W        W50895  14.250  42.872   4.950
80296W        W50896   8.145   5.758  14.004
80297W        W50897  44.571  38.008  14.487
80298W        W50898  29.014   3.267  13.299
80299W        W50899  44.926  21.294  10.377
80300W        W50900   6.102  23.019   2.682
80301W        W50901  19.301  13.069   5.036
80302W        W50902   1.835  16.960   4.751
80303W        W50903   2.441  17.579  11.112
80304W        W50904  13.545  36.030  13.680
80305W        W50905  30.237  40.337   0.310
80306W        W50906  34.875  10.925  13.490
80307W        W50907   4.444   3.837  10.475
80308W        W50908  36.751  31.185   3.315
80309W        W50909  40.089  12.362   4.215
80310W        W50910  18.990  19.226   0.943
80311W        W50911  12.185  32.680  13.510
80312W        W50912  25.770   7.600  12.609
80313W        W50913  15.798  35.557  13.993
80314W        W50914  23.475  25.570  12.957
80315W        W50915   1.491  30.916  14.869
80316W        W50916  38.020   3.668   3.183
80317W        W50917  19.657   5.854   2.663
80318W        W50918  14.604   5.729   2.296
80319W        W50919  11.453   2.630   2.750
80320W        W50920  19.742  26.693   3.100
80321W        W50921  25.586  20.451  11.518
80322W        W50922  30.607  24.606   0.056
80323W        W50923   9.627   2.426   2.836
80324W        W50924   3.483   4.478  12.116
80325W        W50925  39.536   1.197   3.707
80326W        W50926  12.747   0.539  11.519
80327W        W50927  41.220  15.796  10.363
80328W        W50928  12.813   1.783  14.309
80329W        W50929  22.539   0.733  13.603
80330W        W50930  30.808   1.268   5.031
80331W        W50931   0.887  33.249   2.431
80332W        W50932   1.381  24.793  10.551
80333W        W50933  18.165  34.456   2.382
80334W        W50934  41.573  17.605  14.364
80335W        W50935  18.214  37.836  12.766
80336W        W50936  42.424  19.159   3.278
80337W        W50937  22.110  14.500   3.785
80338W        W50938   0.707  43.547   2.794
80339W        W50939  39.043   4.767  14.459
80340W        W50940  39.081  13.467   1.214
80341W        W50941   6.683  37.685   3.786
80342W        W50942  25.236  21.131  12.197
80343W        W50943  26.054  28.446   0.195
80344W        W50944  32.942  20.266  12.928
80345W        W50945   2.823  19.833   3.174
80346W        W50946  16.886  21.604   0.581
80347W        W50947  36.197   1.060  13.456
80348W        W50948  25.424  17.061  11.676
80349W        W50949  29.657  10.221  13.390
80350W        W50950   2.976  28.635  12.898
80351W        W50951  41.586   6.477  10.446
80352W        W50952  43.493  38.828   1.352
80353W        W50953  16.582  30.853  13.896
80354W        W50954  35.158  16.773  12.878
80355W        W50955  10.706  31.785  10.964
80356W        W50956   7.852  20.849  13.263
80357W        W50957   0.799   1.856  10.712
80358W        W50958  14.291   5.808  12.408
80359W        W50959   5.903  32.530  13.349
80360W        W50960  36.480   8.723  10.236
80361W        W50961  32.961  19.745  12.764
80362W        W50962   7.671  34.831   1.237
80363W        W50963  31.703  20.191  10.553
80364W        W50964  41.088   7.464  12.145
80365W        W50965  20.527   5.416  11.522
80366W        W50966  21.009  20.719  14.339
80367W        W50967  27.690  28.557  12.473
80368W        W50968  21.026  33.557  14.966
80369W        W50969  44.312  38.018  10.452
80370W        W50970  37.617  37.293   0.397
80371W        W50971  16.581  41.464  11.386
80372W        W50972  20.679  39.789  11.595
80373W        W50973  17.031   1.211  12.486
80374W        W50974   2.738  13.284  11.081
80375W        W50975  33.364  38.596   3.724
80376W        W50976  21.687   5.857  12.992
80377W        W50977  17.244  30.161   1.863
80378W        W50978  44.853   5.891   4.644
80379W        W50979  40.367   9.770   3.284
80380W        W50980  38.330  10.601   1.182
80381W        W50981  13.021  10.303   4.646
80382W        W50982  21.997  11.760  13.064
80383W        W50983  28.803   9.805   2.779
80384W        W50984   4.881   7.985   4.739
80385W        W50985  20.419  29.397  11.337
80386W        W50986  29.540  21.279   2.918
80387W        W50987  28.867  15.735  10.371
80388W        W50988  17.498  39.722   1.405
80389W        W50989   0.355  39.857  14.823
80390W        W50990  10.086  24.303   1.742
80391W        W50991   3.736  32.841  11.539
80392W        W50992  41.863   4.502   2.841
80393W        W50993  14.536   5.435  12.126
80394W        W50994  14.760   3.621  11.062
80395W        W50995  40.396  17.184  10.295
80396W        W50996   7.117  12.718  13.463
80397W        W50997  22.204   6.911   1.862
80398W        W50998  22.588  44.298  12.037
80399W        W50999  15.716  38.374  12.401
80400W        W51000   4.414  16.544   4.135
80401W        W51001  25.079  30.344   4.403
80402W        W51002  17.122   4.118   2.288
80403W        W51003   0.860  25.953  11.644
80404W        W51004  39.538  41.058  14.336
80405W        W51005  22.619  20.456  13.102
80406W        W51006  12.697  35.463   3.321
80407W        W51007  19.031  13.769  10.496
80408W        W51008  17.061  26.468   1.464
80409W        W51009  18.645  11.991   2.181
80410W        W51010  10.435  16.419  12.015
80411W        W51011  44.857  41.504   0.403
80412W        W51012  11.415  32.191   0.418
80413W        W51013  30.055  18.570   2.717
80414W        W51014   8.283  19.524   3.246
80415W        W51015   8.953  32.905  12.891
80416W        W51016  14.427  41.302  13.213
80417W        W51017  14.131  14.928   3.130
80418W        W51018   6.384   2.006  12.608
80419W        W51019  19.259  30.765  13.449
80420W        W51020  34.679  22.103  10.933
80421W        W51021  26.476   6.248   0.478
80422W        W51022   9.856  20.642   3.903
80423W        W51023  31.239  42.096   5.467
80424W        W51024  37.865   4.590  11.143
80425W        W51025  35.109   7.185   2.311
80426W        W51026   0.335  26.172  12.374
80427W        W51027  28.196  29.972   3.351
80428W        W51028  30.129  17.731   4.012
80429W        W51029  23.755  35.778  12.451
80430W        W51030  10.683  32.465  10.599
80431W        W51031   2.451  11.367  13.890
80432W        W51032   1.390  30.068  14.436
80433W        W51033  42.873   1.719  13.363
80434W        W51034  10.896  23.638   2.872
80435W        W51035  32.163  16.042  13.489
80436W        W51036  29.170   2.971  11.020
80437W        W51037  14.028  38.544  12.884
80438W        W51038  14.249  21.792   1.381
80439W        W51039  12.309  34.097  13.029
80440W        W51040  25.634  24.995   4.562
80441W        W51041  20.085  11.839  12.233
80442W        W51042  25.991  40.333   2.725
80443W        W51043  12.032  21.263   4.891
80444W        W51044  27.988   2.954   2.160
80445W        W51045  44.244  10.763   2.864
80446W        W51046  25.124  32.503   3.975
80447W        W51047  34.452  22.014   2.657
80448W        W51048  28.801  39.875  11.742
80449W        W51049  23.745   6.945   0.428
80450W        W51050  32.525  44.911   4.736
80451W        W51051   7.713   4.613   1.769
80452W        W51052  17.692   9.593   4.656
80453W        W51053  17.560   5.222  10.812
80454W        W51054  19.185  31.142  10.680
80455W        W51055  44.313   3.165   4.498
80456W        W51056   4.296   8.815   3.862
80457W        W51057  37.831  25.123  14.930
80458W        W51058  24.048  26.256  10.259
80459W        W51059  43.942  21.541   2.872
80460W        W51060  22.533  37.078  13.400
80461W        W51061  11.285  40.379  13.085
80462W        W51062   0.325  12.770   0.689
80463W        W51063  35.150  10.352  14.304
80464W        W51064  36.088   6.227  12.572
80465W        W51065  13.149  29.980  13.420
80466W        W51066   5.820   9.156   4.897
80467W        W51067  11.779   8.747  10.831
80468W        W51068  12.600  42.816  13.649
80469W        W51069  11.111  18.710  14.903
80470W        W51070  31.493  11.250  11.390
80471W        W51071   1.453   3.919   2.199
80472W        W51072  33.147  41.919  10.684
80473W        W51073  37.360  22.550   3.330
80474W        W51074   1.310  11.234   4.383
80475W        W51075  38.354  36.507  14.803
80476W        W51076  21.110  43.569  11.128
80477W        W51077   3.789   6.156  12.041
80478W        W51078  35.238  23.774   2.664
80479W        W51079  18.161  17.995  10.995
80480W        W51080  39.420   1.031   0.925
80481W        W51081   2.796  15.206  10.924
80482W        W51082  13.559  18.793   3.203
80483W        W51083  37.874  25.920  13.448
80484W        W51084  23.152  30.045  12.349
80485W        W51085  42.933  22.232   3.247
80486W        W51086  19.564  40.461   2.438
80487W        W51087  15.369  27.881  14.303
80488W        W51088  29.634  16.755   3.793
80489W        W51089  35.100  33.006   1.762
80490W        W51090  29.213  29.210  11.683
80491W        W51091  34.903  37.604  13.820
80492W        W51092   1.910  16.085  13.896
80493W        W51093  38.528  20.606  12.629
80494W        W51094  34.450  15.145   4.745
80495W        W51095  44.308  21.403   1.686
80496W        W51096  30.395  18.177   2.754
80497W        W51097   9.772   8.846  14.077
80498W        W51098  26.311  38.965   2.477
80499W        W51099  30.548  40.128  14.481
80500W        W51100  22.416  30.439   3.190
80501W        W51101  33.078  38.419   0.227
80502W        W51102  31.948  12.258  11.104
80503W        W51103   0.327  40.022  13.051
80504W        W51104   1.385  15.951  13.927
80505W        W51105  36.376  36.414  11.177
80506W        W51106  11.211  42.070   0.470
80507W        W51107  32.512  28.136   2.814
80508W        W51108  41.292  34.430  14.841
80509W        W51109   9.229  41.957   3.761
80510W        W51110   4.899  17.139  12.012
80511W        W51111  35.144   8.733  14.012
80512W        W51112   6.788  12.563  14.842
80513W        W51113   8.631  24.283   4.708
80514W        W51114  29.064  38.941   1.755
80515W        W51115  19.785   9.934  10.724
80516W        W51116  15.855  28.139  10.309
80517W        W51117  16.873   0.623  11.162
80518W        W51118  15.270  19.999   1.917
80519W        W51119  16.110  43.382  12.160
80520W        W51120  17.066  18.849  11.185
80521W        W51121  23.530  27.090  14.324
80522W        W51122  14.647  34.791   1.884
80523W        W51123  23.996  33.890  14.426
80524W        W51124  28.240  31.078  13.389
80525W        W51125  35.064  27.552   3.101
80526W        W51126  32.104  43.798   3.127
80527W        W51127  29.162  33.134  12.101
80528W        W51128  36.487  44.036  14.887
80529W        W51129  31.533  36.429   3.353
80530W        W51130  11.515  28.910   4.557
80531W        W51131  38.469  38.284  14.352
80532W        W51132  17.358   1.201   1.897
80533W        W51133  23.186  43.766  14.085
80534W        W51134  42.453  13.282  13.919
80535W        W51135   4.930  33.411   1.434
80536W        W51136  38.874  21.647  11.245
80537W        W51137  28.184  17.081   3.216
80538W        W51138  12.819  39.517  10.351
80539W        W51139  33.647   4.311  11.723
80540W        W51140   0.784  13.790   4.617
80541W        W51141  37.544   9.309  13.005
80542W        W51142  31.830  29.715   1.239
80543W        W51143  24.598  24.785  13.791
80544W        W51144   2.824  40.044  11.465
80545W        W51145  39.768  38.074  14.956
80546W        W51146  30.873  18.195  14.459
80547W        W51147   2.790   6.984  13.587
80548W        W51148  24.461  27.698   4.605
80549W        W51149   6.920  28.147  14.042
80550W        W51150  17.960  37.392  12.863
80551W        W51151  17.904  35.702   4.069
80552W        W51152  31.367  31.478  11.177
80553W        W51153  15.811  25.208   2.695
80554W        W51154   2.044   2.552   3.033
80555W        W51155  18.312  13.234   1.137
80556W        W51156   1.932  21.481  11.660
80557W        W51157  39.074  17.338   1.408
80558W        W51158  25.204  40.835  14.932
80559W        W51159   3.762  41.412   4.629
80560W        W51160  44.979  20.027   0.874
80561W        W51161  23.633  44.660  14.904
80562W        W51162  42.760  30.344   0.020
80563W        W51163   0.410  21.218   0.251
80564W        W51164  44.981  23.178   4.362
80565W        W51165  28.354  40.069  11.582
80566W        W51166  36.890  23.695  14.395
80567W        W51167   6.636  21.823  13.425
80568W        W51168  26.582  18.138   4.121
80569W        W51169  38.527  36.038   1.863
80570W        W51170  28.086  12.665   4.229
80571W        W51171   4.985   5.116  12.084
80572W        W51172  11.158  16.533  12.654
80573W        W51173   9.917  39.527  12.007
80574W        W51174  32.372  42.448  12.049
80575W        W51175  15.193  17.543   0.370
80576W        W51176  32.956  38.158  12.126
80577W        W51177  18.616  28.564   4.336
80578W        W51178  37.847   2.989  12.659
80579W        W51179  37.298  41.936   2.728
80580W        W51180  29.544  44.308  10.742
80581W        W51181  36.436  34.501  13.941
80582W        W51182  37.270  40.826   0.338
80583W        W51183  26.015  31.529  12.198
80584W        W51184  36.989  40.970   0.734
80585W        W51185   6.637  27.907  14.522
80586W        W51186  37.925  33.150  11.454
80587W        W51187  20.153  24.483   2.924
80588W        W51188  35.922   5.860   1.887
80589W        W51189  17.751  29.941   4.071
80590W        W51190  39.598  29.044  11.091
80591W        W51191  28.033   5.913  14.918
80592W        W51192  21.482  41.700  12.541
80593W        W51193  34.959  30.657  13.559
80594W        W51194   0.938   3.232  13.801
80595W        W51195   0.897   8.392  13.384
80596W        W51196  23.969   6.816  12.309
80597W        W51197  26.119  15.709  10.926
80598W        W51198  37.087  35.790  10.723
80599W        W51199  16.360   7.398  13.076
80600W        W51200  14.663   9.708  11.781
80601W        W51201  16.522   9.452   0.044
80602W        W51202  35.435  21.049  12.657
80603W        W51203  25.312  30.050   0.766
80604W        W51204  23.020  35.471  12.677
80605W        W51205  36.087   7.806  11.615
80606W        W51206   5.414  44.406  10.687
80607W        W51207  31.610  29.894  12.559
80608W        W51208  11.457  15.776  11.609
80609W        W51209  11.938  31.955   0.440
80610W        W51210  10.317  11.789  12.025
80611W        W51211  30.671  13.572  14.443
80612W        W51212   2.156  18.704   0.499
80613W        W51213   9.359  15.806   1.937
80614W        W51214  28.940   4.244  13.384
80615W        W51215  36.953  30.672   1.740
80616W        W51216  12.259  43.781  13.521
80617W        W51217   4.362  11.240   0.220
80618W        W51218   1.408  25.355  10.575
80619W        W51219   5.991  13.255   4.124
80620W        W51220   1.277   4.769  11.103
80621W        W51221  20.200  24.162   1.961
80622W        W51222  27.367   5.135  14.335
80623W        W51223   9.440  19.638   4.093
80624W        W51224  16.868  25.329   2.741
80625W        W51225  37.493  30.102   3.495
80626W        W51226  39.537  16.250  12.483
80627W        W51227  38.040  43.405   3.238
80628W        W51228  11.915  21.059   0.002
80629W        W51229  10.898   4.157   1.422
80630W        W51230  23.128  16.365   1.969
80631W        W51231  18.067  21.543  10.768
80632W        W51232  34.806  28.639  13.438
80633W        W51233  23.041  28.015   2.396
80634W        W51234   3.406   5.422   1.247
80635W        W51235   3.031  41.855  12.776
80636W        W51236  27.103  17.242   3.654
80637W        W51237  18.059  15.525  12.210
80638W        W51238  36.583  19.765   0.516
80639W        W51239  40.816  34.477  12.579
80640W        W51240  27.150   9.744  14.584
80641W        W51241  39.363  10.349  12.547
80642W        W51242  36.162   3.430  13.179
80643W        W51243   7.184  24.765  11.147
80644W        W51244  37.297  10.284   3.172
80645W        W51245  22.531  18.139  13.405
80646W        W51246  40.051  26.737  12.455
80647W        W51247  25.636  10.209  13.971
80648W        W51248  14.595  35.918  14.547
80649W        W51249   5.200  21.760   1.254
80650W        W51250  13.537   4.689  12.533
80651W        W51251  11.735   8.619   1.674
80652W        W51252  28.367  44.510  14.527
80653W        W51253  31.453  26.678   2.789
80654W        W51254  19.746  44.392   0.841
80655W        W51255  41.973  15.268  12.225
80656W        W51256  21.897   8.357  12.444
80657W        W51257   3.005  21.023  14.837
80658W        W51258  25.550  39.003   9.930
80659W        W51259  14.873  35.256   5.425
80660W        W51260  26.145  13.963  11.096
80661W        W51261  15.052  19.064   1.879
80662W        W51262  26.968  39.806  11.559
80663W        W51263  22.553   7.851   0.256
80664W        W51264   2.267   9.714  13.631
80665W        W51265  19.306  31.261  13.153
80666W        W51266  15.870  29.339   4.059
80667W        W51267  44.453  24.576   1.583
80668W        W51268  34.682  33.059   2.779
80669W        W51269  28.589   8.564   1.143
80670W        W51270  31.989  44.757  14.842
80671W        W51271  31.848  39.608  12.901
80672W        W51272   8.420  31.923  13.261
80673W        W51273  10.088  13.287   0.804
80674W        W51274  31.099   1.799  12.308
80675W        W51275  31.363  18.379  14.522
80676W        W51276  36.979   5.556   1.885
80677W        W51277  15.737  43.434   1.661
80678W        W51278   0.817  27.982  11.705
80679W        W51279  12.213  26.293   3.128
80680W        W51280  12.960  36.733   1.836
80681W        W51281  43.874  25.144   3.229
80682W        W51282   5.668  36.247   2.908
80683W        W51283  39.952  36.542   2.892
80684W        W51284   7.709  40.110   1.839
80685W        W51285  24.268  41.914   2.213
80686W        W51286  23.078  40.037   3.521
80687W        W51287   0.336  28.305  10.490
80688W        W51288  11.926  43.240  12.522
80689W        W51289  10.004   6.848  14.532
80690W        W51290  16.342  15.703  13.063
80691W        W51291  31.519   3.675   1.910
80692W        W51292  44.018  16.641  11.068
80693W        W51293  10.105  43.074   1.218
80694W        W51294  28.551  29.580   1.179
80695W        W51295  15.715  41.617  14.484
80696W        W51296  42.977  34.974   3.703
80697W        W51297  14.544   4.821  13.977
80698W        W51298  21.087  25.680   4.735
80699W        W51299  32.466   0.216   4.284
80700W        W51300  25.427   3.816  13.388
80701W        W51301  27.480  19.074   0.252
80702W        W51302   7.932  40.698   1.107
80703W        W51303  24.193  43.981  13.963
80704W        W51304  10.639  12.288   4.152
80705W        W51305   0.181   9.800  14.726
80706W        W51306  21.693  23.279   2.867
80707W        W51307  19.679   7.767   4.590
80708W        W51308  21.822  41.802   0.951
80709W        W51309   3.889  15.179   1.356
80710W        W51310  12.340  13.100  11.194
80711W        W51311   9.740  35.306   0.866
80712W        W51312  43.768  17.078  11.619
80713W        W51313  11.166  25.030   0.238
80714W        W51314  14.649  20.460   0.351
80715W        W51315  25.289   4.875  11.615
80716W        W51316   3.979  29.981   4.435
80717W        W51317  19.918  28.488   3.091
80718W        W51318  26.499  19.053   2.593
80719W        W51319  24.088  42.313   2.827
80720W        W51320   1.723  16.190  10.972
80721W        W51321  35.157  11.641  14.917
80722W        W51322  25.827  22.762   4.081
80723W        W51323  12.830  24.201   3.684
80724W        W51324  39.817   2.377   0.740
80725W        W51325  24.060   6.882   4.989
80726W        W51326   8.450  26.201  13.098
80727W        W51327  36.938  18.577   4.369
80728W        W51328  17.251  23.711  11.622
80729W        W51329  42.809  35.356   0.410
80730W        W51330  22.947  21.884  14.804
80731W        W51331  33.343  44.891   4.567
80732W        W51332  27.862  31.439   0.772
80733W        W51333  21.021   6.797  12.159
80734W        W51334  36.763   1.803   4.150
80735W        W51335  18.553  43.848   0.419
80736W        W51336  42.494  21.908   0.956
80737W        W51337  32.045  43.276   0.455
80738W        W51338  26.620  10.161  13.938
80739W        W51339  28.099  27.255   2.923
80740W        W51340  41.767   9.177   3.812
80741W        W51341  42.771  35.111   2.229
80742W        W51342   6.751   1.207   2.305
80743W        W51343  24.198  43.136   0.369
80744W        W51344   3.220  44.007   3.706
80745W        W51345   3.872   4.746   2.692
80746W        W51346  40.603  43.294  12.403
80747W        W51347   6.093  39.557   4.497
80748W        W51348  12.310   0.190  13.073
80749W        W51349  29.075  10.818   0.880
80750W        W51350   1.334  26.709   0.426
80751W        W51351  31.398  18.859   1.134
80752W        W51352  33.898  37.080  11.468
80753W        W51353  43.761   7.109   4.880
80754W        W51354   1.845   9.166   3.285
80755W        W51355  21.321  33.057   0.353
80756W        W51356  33.967   5.128   4.757
80757W        W51357   0.559  20.938   1.688
80758W        W51358  32.244  34.249  13.852
80759W        W51359  22.395  31.403   0.919
80760W        W51360   9.929  23.639   1.234
80761W        W51361  40.861  10.322   2.913
80762W        W51362  32.589  33.855   3.757
80763W        W51363  19.075  19.650   4.373
80764W        W51364  29.590  16.193   1.922
80765W        W51365  10.384   1.734  14.409
80766W        W51366  11.894  27.675  14.390
80767W        W51367   3.729   8.040  14.988
80768W        W51368  27.700  39.597  13.341
80769W        W51369  32.237  13.530   1.503
80770W        W51370  42.310  10.434   3.878
80771W        W51371   3.426  23.491   2.272
80772W        W51372  10.765  23.689  13.982
80773W        W51373  34.951  18.271   0.334
80774W        W51374  13.351  31.971  10.666
80775W        W51375  33.120  21.021   1.750
80776W        W51376   0.367  28.558  13.637
80777W        W51377  14.305   0.458   4.211
80778W        W51378  27.148  15.857   5.189
80779W        W51379  31.970  36.708   0.693
80780W        W51380  36.077  41.058  12.849
80781W        W51381  16.171   2.348   0.917
80782W        W51382   4.847  13.119   3.132
80783W        W51383  27.469  42.980   1.009
80784W        W51384  43.836  15.674  10.455
80785W        W51385  20.509  18.183  12.436
80786W        W51386  14.587  34.514   2.728
80787W        W51387  43.738  44.904  11.503
80788W        W51388  11.628  37.780  12.629
80789W        W51389  43.008  44.716  10.397
80790W        W51390   1.827  24.357  12.612
80791W        W51391  12.766  27.303  14.031
80792W        W51392  26.649  43.219   0.268
80793W        W51393   0.247  29.135  12.822
80794W        W51394  34.889  29.152   3.624
80795W        W51395  35.188   3.512  14.545
80796W        W51396  15.540  30.138  14.604
80797W        W51397  40.447  40.555   3.662
80798W        W51398  19.774  36.242  11.553
80799W        W51399   5.326  38.122  14.849
80800W        W51400  24.039  12.093   4.966
80801W        W51401  10.564  11.842  13.510
80802W        W51402  18.051   0.839   0.756
80803W        W51403   1.051  42.140   4.106
80804W        W51404  36.136  18.788   3.990
80805W        W51405  41.838  38.330  10.522
80806W        W51406   1.780   9.767  10.672
80807W        W51407  17.162  13.463   1.739
80808W        W51408  39.379  20.688   1.476
80809W        W51409  31.184   3.814   4.625
80810W        W51410   6.987  34.600   0.457
80811W        W51411  10.361   0.561   0.655
80812W        W51412  22.234   6.186   1.487
80813W        W51413   6.683  12.879   3.666
80814W        W51414  19.110  43.321   2.413
80815W        W51415  22.699  33.487  12.142
80816W        W51416  37.310  34.594  12.565
80817W        W51417  27.961   1.064  13.299
80818W        W51418  29.033  13.602  12.221
80819W        W51419  41.976   5.981   3.299
80820W        W51420  33.569  29.079   4.140
80821W        W51421  39.941   0.815   4.595
80822W        W51422  44.477   1.934   0.422
80823W        W51423  38.040  25.787   2.763
80824W        W51424  29.609  30.915  12.369
80825W        W51425   5.123   0.341  11.568
80826W        W51426  44.386  40.239   2.910
80827W        W51427  20.188  43.826   3.622
80828W        W51428  17.022  18.060  11.555
80829W        W51429  20.080   3.481   3.177
80830W        W51430  11.399   3.743   0.855
80831W        W51431  21.212  24.465   3.813
80832W        W51432  23.520  25.965   0.943
80833W        W51433  42.835  44.572   2.688
80834W        W51434  38.234  12.166   0.585
80835W        W51435  22.204  26.983   1.458
80836W        W51436  44.449   0.835  13.409
80837W        W51437  24.389   6.820   3.226
80838W        W51438  12.851  36.525   0.158
80839W        W51439  43.105   4.948   0.729
80840W        W51440  36.295  30.017   2.296
80841W        W51441  20.777   3.742   3.821
80842W        W51442  40.876  36.572   3.617
80843W        W51443   4.368  20.573  13.908
80844W        W51444  20.282  43.488  13.851
80845W        W51445  21.075  14.554   2.268
80846W        W51446  34.460  33.851   4.279
80847W        W51447  31.156  15.090  10.583
80848W        W51448  40.715   8.756  11.425
80849W        W51449  43.416  18.619   4.645
80850W        W51450  11.860  25.819   3.872
80851W        W51451  41.464   4.816   2.748
80852W        W51452  25.778  18.626  14.154
80853W        W51453  23.660  43.054  11.964
80854W        W51454   9.247  41.844   0.749
80855W        W51455  38.927  38.556  14.340
80856W        W51456  21.537  40.034  12.963
80857W        W51457  39.594   3.895   1.122
80858W        W51458  36.952  23.666   4.793
80859W        W51459  39.380  30.221   3.311
80860W        W51460  10.344  15.604  14.002
80861W        W51461   9.853  16.341  13.477
80862W        W51462  35.916   7.591  13.644
80863W        W51463  16.233  23.409  13.877
80864W        W51464  15.981  10.377   2.266
80865W        W51465  44.014   4.353   0.596
80866W        W51466  26.503  12.794   1.056
80867W        W51467  19.265  36.107  11.186
80868W        W51468   0.041  27.189  11.139
80869W        W51469  20.819  40.772   2.166
80870W        W51470  34.655  17.888   0.105
80871W        W51471  44.952  29.771   3.850
80872W        W51472  14.049  28.204  14.530
80873W        W51473  21.211  12.544  11.920
80874W        W51474  25.683   2.745   0.725
80875W        W51475   2.538  29.978  13.983
80876W        W51476  40.890  18.367  11.215
80877W        W51477  12.880  43.925   0.048
80878W        W51478  28.030  35.488   4.601
80879W        W51479  18.894   1.405  11.295
80880W        W51480  15.636  12.793  12.026
80881W        W51481  35.142  34.391   1.493
80882W        W51482  25.085  37.771  14.702
80883W        W51483  39.197  11.668   5.437
80884W        W51484  26.164   6.286   3.848
80885W        W51485   9.326  38.568   2.269
80886W        W51486  26.718  24.520  12.909
80887W        W51487   7.643  42.001  13.373
80888W        W51488   4.199  36.742   0.346
80889W        W51489   3.154  35.991   3.592
80890W        W51490   8.379   5.567  12.101
80891W        W51491   9.354  10.229   0.437
80892W        W51492  23.612  25.997  12.116
80893W        W51493  26.714  44.432   2.919
80894W        W51494  12.477  12.395  14.323
80895W        W51495  44.297  37.404  13.167
80896W        W51496  33.525  14.851  13.806
80897W        W51497  31.029  43.793  10.893
80898W        W51498   2.767  30.855  11.153
80899W        W51499  26.612  11.515   2.299
80900W        W51500   3.414  32.565   2.661
80901W        W51501   3.144  14.640   1.756
80902W        W51502  11.060  19.879   3.461
80903W        W51503  41.609  20.005   0.944
80904W        W51504  13.714  34.309   3.525
80905W        W51505   2.295  24.722   2.400
80906W        W51506  24.059   5.480   0.055
80907W        W51507  16.893  37.120  13.852
80908W        W51508  26.638  18.640   3.305
80909W        W51509  43.900  22.560  12.640
80910W        W51510  11.183  13.140   3.760
80911W        W51511  32.808  26.661   1.397
80912W        W51512  17.843  27.568   0.396
80913W        W51513   5.488  27.534  11.958
80914W        W51514  24.459  40.549   4.066
80915W        W51515  17.817  16.759   2.920
80916W        W51516  19.632  22.703  14.006
80917W        W51517  37.751  12.834  13.842
80918W        W51518  18.410  21.522  11.175
80919W        W51519  37.284  37.196  10.272
80920W        W51520  40.067  14.669  12.387
80921W        W51521   5.623  32.590  13.820
80922W        W51522  20.575   0.231  10.662
80923W        W51523   6.363  11.580  13.870
80924W        W51524  29.176  29.911  11.987
80925W        W51525  42.368  29.743  12.981
80926W        W51526  41.406   6.877   3.253
80927W        W51527  25.756   5.468  13.364
80928W        W51528  36.450  13.879   2.371
80929W        W51529  15.588  13.281  13.693
80930W        W51530   1.461  13.340   3.554
80931W        W51531   9.452  37.328  10.615
80932W        W51532  31.883  24.507   0.894
80933W        W51533   4.324  40.578  12.404
80934W        W51534   8.217  24.406   4.110
80935W        W51535  20.948  19.949  13.488
80936W        W51536  27.356   1.770   1.871
80937W        W51537  32.204  43.259  11.038
80938W        W51538   7.012  18.863  12.885
80939W        W51539  32.990  16.797   2.095
80940W        W51540  32.065  34.322   2.296
80941W        W51541  16.068  33.178  12.395
80942W        W51542  34.505  26.239   0.504
80943W        W51543  40.774  20.839  11.155
80944W        W51544  24.693  33.129  12.417
80945W        W51545  13.531  11.184   2.842
80946W        W51546  43.384   0.443   3.862
80947W        W51547   5.665  11.107  14.024
80948W        W51548  12.964   4.343  11.114
80949W        W51549  28.531  28.684   2.772
80950W        W51550   1.284   5.457  12.533
80951W        W51551  24.683  17.562   1.314
80952W        W51552   1.835  13.304   3.161
80953W        W51553  24.804  43.410  12.720
80954W        W51554  34.116  15.827  11.166
80955W        W51555  11.841  34.495   4.364
80956W        W51556  15.629  42.653   3.696
80957W        W51557  28.987  15.494   3.416
80958W        W51558  15.086  37.759  13.275
80959W        W51559  34.425  10.064   2.408
80960W        W51560   8.323  37.117  12.702
80961W        W51561  27.726  35.322  12.501
80962W        W51562  31.010  44.750  11.491
80963W        W51563   5.761   1.060   0.650
80964W        W51564   3.389  22.974   2.353
80965W        W51565   1.657  37.908  12.782
80966W        W51566   7.767  42.617   1.129
80967W        W51567  39.140  34.054   3.989
80968W        W51568   7.832   2.390   4.598
80969W        W51569  25.126  13.874  13.079
80970W        W51570  14.829   8.345  11.465
80971W        W51571  38.272  36.082   2.884
80972W        W51572  33.995  25.675   1.878
80973W        W51573  38.552   4.715   0.283
80974W        W51574  19.110  16.149  13.937
80975W        W51575  42.622   4.944  14.498
80976W        W51576   7.112  42.170   2.337
80977W        W51577  14.387   4.343  11.560
80978W        W51578  43.606  13.595  14.311
80979W        W51579  12.471  41.936   3.382
80980W        W51580   2.382  38.844  13.878
80981W        W51581   0.727  23.107  13.391
80982W        W51582  35.504   9.333   0.719
80983W        W51583  17.832  19.219   4.007
80984W        W51584  21.232   2.447  11.710
80985W        W51585  41.985  18.442  10.132
80986W        W51586  36.801  24.410   0.764
80987W        W51587   7.169  42.184  13.505
80988W        W51588  34.868  43.013   1.451
80989W        W51589  28.192  26.996   0.881
80990W        W51590  23.393  42.264   0.828
80991W        W51591  16.557  34.832   0.489
80992W        W51592  11.918  39.943   1.466
80993W        W51593  12.158  14.919   3.758
80994W        W51594   0.441   6.716   1.377
80995W        W51595  38.427  26.535   3.761
80996W        W51596  28.605  23.144  13.504
80997W        W51597  30.752  33.474   0.342
80998W        W51598  23.019  44.748   1.827
80999W        W51599  15.866   2.763   0.939
81000W        W51600  12.864   8.641  14.478
81001W        W51601  10.778  35.677  11.615
81002W        W51602  26.184   1.736  11.096
81003W        W51603  42.570  11.926   0.687
81004W        W51604  34.052   4.334  12.045
81005W        W51605  22.579  33.667   4.848
81006W        W51606  20.965   2.985   3.316
81007W        W51607  40.961   0.432   3.672
81008W        W51608  15.788  24.677  10.618
81009W        W51609  40.293  21.697  12.391
81010W        W51610  21.653  30.759   4.278
81011W        W51611  18.342  11.297   0.550
81012W        W51612  37.745   3.261   0.717
81013W        W51613  12.750  26.049  12.556
81014W        W51614  30.093  37.646   1.965
81015W        W51615  41.942  15.070   3.321
81016W        W51616  10.845  42.815  11.405
81017W        W51617   5.788   2.966   4.142
81018W        W51618   5.398  22.348  11.089
81019W        W51619  38.299  20.249  12.941
81020W        W51620  10.172  26.901  11.264
81021W        W51621  20.306   3.643  13.050
81022W        W51622   2.966  36.101   3.140
81023W        W51623   2.804  19.211   3.883
81024W        W51624   4.068  28.521   0.609
81025W        W51625  19.888   6.119   0.423
81026W        W51626  20.583  16.316  13.027
81027W        W51627   2.889  32.388  11.177
81028W        W51628  37.018  12.012  12.798
81029W        W51629  24.617   9.044   3.248
81030W        W51630   7.710   5.767   0.926
81031W        W51631  16.439  11.101   3.269
81032W        W51632   4.314  19.885  13.400
81033W        W51633  16.357  29.036   2.716
81034W        W51634  44.728  29.187   0.961
81035W        W51635  21.169   6.778   4.721
81036W        W51636  35.914   8.241   0.742
81037W        W51637  28.165  22.201  10.121
81038W        W51638  15.904  23.237   2.735
81039W        W51639  12.171  41.472   1.985
81040W        W51640  13.222  40.483  13.100
81041W        W51641  40.559  41.131   0.726
81042W        W51642  15.302  24.837   3.638
81043W        W51643   9.186  28.536  12.788
81044W        W51644  42.031  38.936   3.716
81045W        W51645   0.683   9.110  14.346
81046W        W51646   7.202   7.282  13.927
81047W        W51647  30.018  14.136  12.032
81048W        W51648   2.676  34.088  13.575
81049W        W51649  35.214  27.396   1.741
81050W        W51650  30.528  21.358  13.851
81051W        W51651   6.698  21.221  14.200
81052W        W51652   1.435  24.020  12.596
81053W        W51653  25.014  34.741   1.071
81054W        W51654  19.844  30.741   2.729
81055W        W51655   2.520  32.947   9.838
81056W        W51656  20.349  36.004  14.354
81057W        W51657  35.040  42.849   2.881
81058W        W51658  28.144  28.988   1.196
81059W        W51659  28.644  37.822   0.254
81060W        W51660  21.667  35.425  13.906
81061W        W51661  27.370  22.823   4.309
81062W        W51662  29.126  22.501  10.471
81063W        W51663   5.923  21.725   2.544
81064W        W51664  26.582  38.556   2.652
81065W        W51665  36.463   4.864   1.967
81066W        W51666  13.714  37.166   4.678
81067W        W51667  14.256  21.505   0.908
81068W        W51668  18.651  22.523  10.356
81069W        W51669  30.608  24.706   2.711
81070W        W51670   1.013   5.273   2.075
81071W        W51671  33.107  16.711  11.029
81072W        W51672  42.580  37.969   3.585
81073W        W51673  17.821  35.498   3.352
81074W        W51674  18.582  18.150   1.702
81075W        W51675   9.505  16.385  12.453
81076W        W51676  24.060  29.898  11.025
81077W        W51677  24.586  25.072  13.337
81078W        W51678  14.307  32.361   2.298
81079W        W51679  21.034  41.819   3.174
81080W        W51680  38.361   8.745   4.203
81081W        W51681   4.159   2.495  13.353
81082W        W51682  36.222  35.975  11.602
81083W        W51683  19.131  41.854  14.258
81084W        W51684  10.290  26.008   4.104
81085W        W51685   2.402  36.761  12.859
81086W        W51686  10.115  37.215   5.223
81087W        W51687  12.067   1.292  14.863
81088W        W51688  30.976  37.374  14.398
81089W        W51689  33.254   2.755   2.187
81090W        W51690   6.751  10.308   4.466
81091W        W51691  40.937  31.334   0.826
81092W        W51692   7.432  11.012  11.203
81093W        W51693  39.993  23.985   4.986
81094W        W51694  20.473   4.920   3.231
81095W        W51695  18.256  35.002  11.627
81096W        W51696  33.221   6.775  14.769
81097W        W51697  14.078  13.055  13.767
81098W        W51698  10.618  21.100   1.190
81099W        W51699  44.489  38.116   1.971
81100W        W51700  30.098  21.793   1.170
81101W        W51701  21.300  33.994  13.872
81102W        W51702  11.793  38.882   1.379
81103W        W51703  39.094  31.798   1.763
81104W        W51704  37.350  27.485   4.323
81105W        W51705  24.946  40.013   3.133
81106W        W51706  42.090  42.062  12.664
81107W        W51707  23.408  41.371  13.848
81108W        W51708   7.005  39.192   2.865
81109W        W51709  12.163   1.860   0.230
81110W        W51710  20.743   8.222  11.717
81111W        W51711   5.611  21.227   3.619
81112W        W51712  40.746  15.903   3.702
81113W        W51713  24.282  42.000  12.934
81114W        W51714  41.559  27.137   1.453
81115W        W51715  40.793   2.357   0.498
81116W        W51716   2.274  26.559   0.930
81117W        W51717  40.101  40.531  12.443
81118W        W51718  40.557   3.629   9.916
81119W        W51719  25.397  25.684  11.513
81120W        W51720  19.155  32.589  10.768
81121W        W51721  16.635   1.181  14.975
81122W        W51722  11.261  36.613   0.330
81123W        W51723  21.444  38.912  13.980
81124W        W51724   5.116  10.478  10.196
81125W        W51725   8.474  43.008  14.793
81126W        W51726   8.328  39.373   2.082
81127W        W51727  33.582  40.870   1.722
81128W        W51728  16.219   8.200   0.874
81129W        W51729  30.224  43.967   3.623
81130W        W51730  35.504  27.196  13.582
81131W        W51731  15.936  44.788   4.515
81132W        W51732  37.384  27.017   4.063
81133W        W51733  13.582  32.264   2.752
81134W        W51734  36.844  21.769  14.558
81135W        W51735  23.219  37.710   2.376
81136W        W51736  21.043  43.526  13.811
81137W        W51737  37.922  18.018  11.915
81138W        W51738   8.438  11.605  12.966
81139W        W51739  29.153  31.476  12.059
81140W        W51740  18.811  27.439  13.590
81141W        W51741  32.567  17.694   1.728
81142W        W51742  34.944  29.730  14.356
81143W        W51743  38.599  24.954   3.712
81144W        W51744   5.957   8.283  14.781
81145W        W51745  26.411  27.144   0.889
81146W        W51746  11.633  33.373   3.349
81147W        W51747  16.747  30.042   1.778
81148W        W51748  15.810  21.796   5.016
81149W        W51749  34.587   9.395  14.534
81150W        W51750   1.561  11.696  13.783
81151W        W51751  37.515  27.021  13.126
81152W        W51752  23.559  32.055   2.862
81153W        W51753  18.710  28.156  14.125
81154W        W51754  37.332  13.068  13.602
81155W        W51755  16.118   0.024   2.892
81156W        W51756   1.719  43.877  10.791
81157W        W51757  44.431  13.286  12.162
81158W        W51758  37.081  32.772   1.066
81159W        W51759   1.510   7.932  12.104
81160W        W51760   3.226  30.141  14.756
81161W        W51761  33.478  19.151   5.046
81162W        W51762  27.012   0.674   3.717
81163W        W51763  40.010  40.026  12.481
81164W        W51764  10.996   3.937   1.881
81165W        W51765   0.912  43.718   0.877
81166W        W51766  20.794  11.182   3.648
81167W        W51767  42.355  38.470  10.575
81168W        W51768  21.289   3.804   3.846
81169W        W51769  12.613  43.417  14.284
81170W        W51770   2.033  30.914  11.246
81171W        W51771   0.357   3.487  12.692
81172W        W51772  24.649   2.043  14.371
81173W        W51773  43.287  15.190   2.870
81174W        W51774   2.871  10.560   3.516
81175W        W51775  38.447  27.606  10.851
81176W        W51776  37.143  20.976  11.716
81177W        W51777  33.619  14.938  11.627
81178W        W51778  42.441  38.864  13.831
81179W        W51779  38.024  13.773  14.777
81180W        W51780  27.383  16.156   3.843
81181W        W51781  31.489  14.129  12.815
81182W        W51782  14.259  34.759   4.589
81183W        W51783   5.526  12.178   3.764
81184W        W51784  27.103   8.137  12.070
81185W        W51785  23.670  33.074   0.823
81186W        W51786  39.350  36.484  14.423
81187W        W51787  39.257  11.214   2.817
81188W        W51788  16.496  16.532  12.123
81189W        W51789  22.131  43.433   3.623
81190W        W51790  32.892  32.984   1.178
81191W        W51791  39.181   3.075  11.715
81192W        W51792  21.225  26.104  13.365
81193W        W51793  24.787  34.473  12.557
81194W        W51794  37.584  19.194   2.309
81195W        W51795  33.416  23.569  11.189
81196W        W51796   4.844  34.811  14.713
81197W        W51797  44.725  39.648  11.279
81198W        W51798  26.755  15.635  12.079
81199W        W51799  12.387   9.265  10.653
81200W        W51800   2.207  16.759   1.792
81201W        W51801   2.799  14.564   0.826
81202W        W51802  14.904  12.900   2.968
81203W        W51803   6.803  30.438   1.008
81204W        W51804   7.966  34.420   2.252
81205W        W51805  13.490  41.196   3.238
81206W        W51806   7.550  27.846   3.629
81207W        W51807  20.693  21.039  13.052
81208W        W51808  30.511   4.168  12.395
81209W        W51809  12.610   1.296   3.123
81210W        W51810  14.489  36.018  13.088
81211W        W51811  22.367  10.812  14.656
81212W        W51812  32.622  32.860   3.727
81213W        W51813  29.485  30.855   3.812
81214W        W51814  16.074  36.941   0.533
81215W        W51815  29.128  11.682  12.040
81216W        W51816  36.967  36.803   4.065
81217W        W51817  14.847  22.613   2.904
81218W        W51818  17.730  44.855  12.580
81219W        W51819  25.722  34.480   4.822
81220W        W51820  28.533   1.021   0.018
81221W        W51821  24.444  34.129  11.571
81222W        W51822  42.512  42.054   4.134
81223W        W51823  36.500  15.789  14.979
81224W        W51824   5.202  14.685   1.960
81225W        W51825  21.192  41.952  12.187
81226W        W51826  31.706  21.785  14.619
81227W        W51827  10.985  16.697  13.105
81228W        W51828  43.767  19.748   0.452
81229W        W51829   4.717  10.460  11.096
81230W        W51830  10.963  33.636   1.319
81231W        W51831  24.668   2.802  10.757
81232W        W51832  25.991  10.538   2.800
81233W        W51833  32.505  13.358   1.942
81234W        W51834  16.989  44.746  11.149
81235W        W51835  27.519  19.449  13.337
81236W        W51836   4.301   3.663   1.332
81237W        W51837  32.756  16.304  11.000
81238W        W51838  20.620  41.553   0.299
81239W        W51839   5.367  40.985   4.740
81240W        W51840  29.400  24.016   3.166
81241W        W51841  16.090   8.788   3.129
81242W        W51842  27.947  33.478  10.444
81243W        W51843  39.946  31.535  13.357
81244W        W51844  20.040  22.375   1.148
81245W        W51845  15.287  15.895   3.314
81246W        W51846  38.199  36.994  14.849
81247W        W51847  41.959  26.681  12.511
81248W        W51848  27.486  44.921   2.717
81249W        W51849  32.404  41.042   0.217
81250W        W51850  40.279   9.208   1.775
81251W        W51851  12.941  29.213  11.662
81252W        W51852   4.775  18.571   2.736
81253W        W51853  22.728  17.349   2.845
81254W        W51854  32.120  21.798  12.764
81255W        W51855  43.837  30.153  14.889
81256W        W51856  44.942  42.634  12.721
81257W        W51857  13.323  27.976   1.747
81258W        W51858   1.506  18.897   4.652
81259W        W51859   6.953  20.181  12.078
81260W        W51860  37.837  24.449  14.989
81261W        W51861  10.235   9.111  10.661
81262W        W51862  32.446   8.071   2.782
81263W        W51863  29.174  33.942  12.221
81264W        W51864  44.437  15.254   2.737
81265W        W51865  15.730   8.378   3.681
81266W        W51866  14.087   7.113   4.164
81267W        W51867  39.246   4.799  11.492
81268W        W51868  11.925   8.820   4.005
81269W        W51869  34.326  27.559  10.694
81270W        W51870  14.644  16.967   1.873
81271W        W51871  19.200  10.662   0.506
81272W        W51872  17.820  29.491  14.391
81273W        W51873   9.632  35.867   1.866
81274W        W51874  24.005  40.805   4.757
81275W        W51875  13.753  35.580   1.354
81276W        W51876  24.689  35.871   0.496
81277W        W51877  30.627  26.329   2.320
81278W        W51878  15.757  33.529   1.216
81279W        W51879  28.081   0.769   0.910
81280W        W51880  42.400  43.516  13.546
81281W        W51881  29.223  21.016  12.146
81282W        W51882  11.664  31.614   2.297
81283W        W51883  17.280  43.487  11.191
81284W        W51884  24.144  33.672   3.313
81285W        W51885  13.787  22.211  11.175
81286W        W51886  14.254  21.180  12.856
81287W        W51887  37.877  43.229   0.773
81288W        W51888  40.497  39.798   4.254
81289W        W51889  39.351  24.077  12.987
81290W        W51890   6.143  32.474  10.307
81291W        W51891  22.500  20.126   1.884
81292W        W51892  43.786  22.676  14.921
81293W        W51893  28.449  38.488  13.023
81294W        W51894  10.281  38.258   2.409
81295W        W51895  17.528  20.536   1.356
81296W        W51896  42.403  22.431  14.793
81297W        W51897  38.975  27.473  12.046
81298W        W51898   5.385  15.499   3.831
81299W        W51899  26.727  40.029   0.877
81300W        W51900  38.419  41.019  14.726
81301W        W51901  35.385  12.896   2.804
81302W        W51902  31.202   3.373  10.179
81303W        W51903  28.194  31.026  12.458
81304W        W51904  19.190  32.081   1.573
81305W        W51905  23.269  18.649  11.022
81306W        W51906  14.857   7.769   1.893
81307W        W51907   9.588   7.017  12.504
81308W        W51908  42.351  41.033  12.518
81309W        W51909  13.143  24.951   2.385
81310W        W51910  29.117   4.436   0.986
81311W        W51911  39.860  34.021  11.801
81312W        W51912  36.310  28.591   0.510
81313W        W51913  43.938  24.796   4.561
81314W        W51914  26.197  30.740  11.182
81315W        W51915  37.994  12.537  12.925
81316W        W51916  35.521  27.537   4.666
81317W        W51917  20.817   6.671  14.431
81318W        W51918   1.923  12.959   0.864
81319W        W51919  30.886  19.068   3.656
81320W        W51920  19.244  24.637   1.746
81321W        W51921  31.202  16.624   3.685
81322W        W51922  44.883  24.066   0.973
81323W        W51923  40.752   4.642   2.635
81324W        W51924  28.649  11.995  13.050
81325W        W51925  19.003   6.207   4.348
81326W        W51926  22.000   7.948  12.100
81327W        W51927  27.525  26.008  10.620
81328W        W51928  22.523  35.105  14.479
81329W        W51929  20.012  15.590  12.948
81330W        W51930  39.823  40.740  12.852
81331W        W51931  39.513  14.635  10.629
81332W        W51932  21.025   2.115  11.383
81333W        W51933  28.781  13.752  14.337
81334W        W51934   1.242  14.709  13.066
81335W        W51935  20.544  24.181   0.991
81336W        W51936   4.929   0.902  10.708
81337W        W51937  42.363   0.022  13.540
81338W        W51938  26.605   3.105  13.844
81339W        W51939  11.253  42.244  10.874
81340W        W51940  29.990  35.659   3.546
81341W        W51941  29.902  35.169   3.547
81342W        W51942  31.442  34.666  13.960
81343W        W51943  32.616   5.828   4.175
81344W        W51944  22.791  36.309  10.409
81345W        W51945  35.483  23.773  13.522
81346W        W51946  18.342   0.647  10.918
81347W        W51947  26.282   9.949   4.585
81348W        W51948  13.553   9.645  13.105
81349W        W51949  39.421  35.163  11.654
81350W        W51950  30.559  34.576  12.884
81351W        W51951  34.422  38.323  10.984
81352W        W51952  31.396   2.398   1.425
81353W        W51953  27.038  43.187   4.530
81354W        W51954  22.352  37.342   3.598
81355W        W51955  15.276   6.799  12.962
81356W        W51956  22.056  37.413  10.354
81357W        W51957  38.375  42.391  12.770
81358W        W51958  13.883   1.487  11.957
81359W        W51959   8.909  13.316   2.245
81360W        W51960  38.752  42.168   0.847
81361W        W51961  18.777   0.422  10.704
81362W        W51962   0.992  32.557  13.061
81363W        W51963   8.503   8.736  11.973
81364W        W51964  37.531  18.845   4.049
81365W        W51965  37.228  15.264  14.864
81366W        W51966  42.313  31.999   3.243
81367W        W51967  16.241  41.541   3.602
81368W        W51968  36.956   3.271   4.125
81369W        W51969   9.175  29.110   3.279
81370W        W51970  13.041  43.208  11.893
81371W        W51971  31.177  15.670  13.114
81372W        W51972  41.030  20.169  12.504
81373W        W51973  34.607   4.377   3.828
81374W        W51974  39.977   7.748  12.286
81375W        W51975   9.773  33.735  14.270
81376W        W51976  41.425  28.574   1.477
81377W        W51977   5.881  22.703   2.327
81378W        W51978   5.031  31.431   3.218
81379W        W51979   1.297  41.262  11.214
81380W        W51980  44.076  33.671  11.464
81381W        W51981  41.292  37.342  14.554
81382W        W51982   8.295  37.891  11.258
81383W        W51983   6.770  22.470  12.266
81384W        W51984  24.631  31.580  13.262
81385W        W51985  12.904  27.040  11.145
81386W        W51986  27.020  38.258  11.502
81387W        W51987   1.257  12.180  14.027
81388W        W51988  16.473  11.967   2.735
81389W        W51989   3.812  27.690   0.997
81390W        W51990  42.793  28.458  12.422
81391W        W51991  18.128   8.097  13.902
81392W        W51992  13.819   5.332   1.973
81393W        W51993  12.025  44.932   1.804
81394W        W51994  10.960  18.866  13.541
81395W        W51995  40.666  38.375  13.954
81396W        W51996   1.857  13.960  12.057
81397W        W51997  16.084   7.834  12.935
81398W        W51998  14.111   3.260  12.779
81399W        W51999   5.864  11.827   5.089
81400W        W52000  24.069   7.974   3.616
81401W        W52001  31.518   2.793  12.688
81402W        W52002   7.134  40.988  12.316
81403W        W52003  36.336  21.156  13.495
81404W        W52004  31.153  23.020  14.491
81405W        W52005  19.169  20.507   3.681
81406W        W52006  25.696  15.860   4.133
81407W        W52007  19.279   3.396  10.715
81408W        W52008  37.846  35.567  14.042
81409W        W52009  20.467  24.346  11.114
81410W        W52010  32.625  35.065  13.348
81411W        W52011   9.091  10.816  10.946
81412W        W52012   7.632  12.660  13.455
81413W        W52013  22.975  39.505   2.423
81414W        W52014  17.016  43.878  14.340
81415W        W52015  33.457  27.535   2.765
81416W        W52016  27.771  26.570  11.192
81417W        W52017  17.268  21.853   3.314
81418W        W52018   4.182   1.336   4.055
81419W        W52019   1.219   5.010   3.276
81420W        W52020  28.618  10.180   1.242
81421W        W52021  24.941   6.244   2.639
81422W        W52022   8.354  29.099  14.008
81423W        W52023  15.008  25.655   3.149
81424W        W52024  26.111  11.842   4.338
81425W        W52025   8.079  31.547  11.173
81426W        W52026  32.620  31.525  11.498
81427W        W52027  19.812  43.051  14.027
81428W        W52028  40.055  30.832   1.443
81429W        W52029  15.296  41.559  14.195
81430W        W52030  23.105  33.542   3.099
81431W        W52031  40.737  25.983   0.777
81432W        W52032   6.747  19.222  10.921
81433W        W52033  21.592  23.582   4.182
81434W        W52034  12.279  38.404   3.749
81435W        W52035  11.143  29.327   0.364
81436W        W52036  27.042  26.616   3.751
81437W        W52037  25.592   6.150  11.525
81438W        W52038  26.903  25.661   1.834
81439W        W52039   8.453  18.421  12.075
81440W        W52040  30.450  27.905   0.386
81441W        W52041  38.917  15.705  11.892
81442W        W52042   0.851   8.326   3.020
81443W        W52043  12.253  20.756  13.004
81444W        W52044  32.683  26.464  12.475
81445W        W52045  37.508  28.726   3.357
81446W        W52046   6.638   2.942  13.911
81447W        W52047  37.918  24.403   1.252
81448W        W52048  43.005   3.921   1.750
81449W        W52049   6.972  30.927  13.663
81450W        W52050  24.163  26.938   4.985
81451W        W52051  17.676  27.905   0.033
81452W        W52052  34.435   1.151   2.799
81453W        W52053  15.553  28.393   1.441
81454W        W52054   0.274  23.734  12.955
81455W        W52055   2.954   2.986   4.216
81456W        W52056  25.530  22.755   1.349
81457W        W52057  34.826   8.730  13.169
81458W        W52058  35.389  12.773  14.969
81459W        W52059  30.157  14.136   1.838
81460W        W52060  27.296  43.442   2.278
81461W        W52061  14.147  42.574   0.225
81462W        W52062  34.067  33.527  13.280
81463W        W52063  15.161  10.097  11.698
81464W        W52064   2.920  34.791   1.891
81465W        W52065   0.290   6.406   1.791
81466W        W52066  36.564   5.496   3.177
81467W        W52067  25.289   7.816  11.877
81468W        W52068   2.658  36.885   0.658
81469W        W52069  20.401   7.254   9.928
81470W        W52070  27.123  39.052   0.318
81471W        W52071  23.184  36.831   4.536
81472W        W52072  16.499  26.363   3.290
81473W        W52073  14.192  41.733  10.331
81474W        W52074   0.281  13.891  12.922
81475W        W52075  36.985  23.098   2.743
81476W        W52076  14.744   9.655   0.227
81477W        W52077  28.141  28.265  12.917
81478W        W52078   3.668  25.226   1.912
81479W        W52079  42.047   1.461   2.355
81480W        W52080  16.550   4.012  12.479
81481W        W52081   1.825   2.226   1.581
81482W        W52082  29.465  26.554  13.831
81483W        W52083  20.080  21.839   1.916
81484W        W52084  17.163  13.479  12.978
81485W        W52085   1.242  28.411  14.751
81486W        W52086  31.366  10.388  11.867
81487W        W52087  16.986  23.583   1.493
81488W        W52088  32.451   8.310   0.210
81489W        W52089   9.538   6.834   4.903
81490W        W52090   4.155  14.251  10.554
81491W        W52091  15.809  11.748   2.396
81492W        W52092   5.107  38.278  13.959
81493W        W52093   0.572  20.336  14.795
81494W        W52094  10.186   4.234  11.316
81495W        W52095  31.125  22.437   1.590
81496W        W52096  40.134   7.840   4.819
81497W        W52097  13.677  32.473  14.755
81498W        W52098  39.757   6.934  12.183
81499W        W52099  28.087  38.998   3.647
81500W        W52100  23.081  13.995   3.598
81501W        W52101  37.907  28.957  12.505
81502W        W52102  16.741   4.224  12.055
81503W        W52103  21.258   1.958  11.871
81504W        W52104  38.524   5.667   0.221
81505W        W52105  22.634  28.228   2.771
81506W        W52106  20.791   9.278  12.926
81507W        W52107  39.501  38.004  14.456
81508W        W52108  18.741  32.216   1.365
81509W        W52109  43.429  19.780   4.136
81510W        W52110  17.938  23.222  14.420
81511W        W52111  28.136  13.168  12.372
81512W        W52112  16.535   4.635   1.638
81513W        W52113   8.592  28.961   0.896
81514W        W52114  10.168   9.805  10.028
81515W        W52115   2.194  14.242  10.307
81516W        W52116  40.280  33.927  10.957
81517W        W52117   7.888  22.713  13.626
81518W        W52118   5.959   8.876  13.414
81519W        W52119  32.530  33.902   1.792
81520W        W52120   3.848  39.583   2.545
81521W        W52121   8.793   3.215  14.563
81522W        W52122   4.338  44.504  14.526
81523W        W52123  27.990  31.799  12.929
81524W        W52124  34.242   5.833  13.813
81525W        W52125  26.415  13.492   3.006
81526W        W52126  36.806  26.873  10.532
81527W        W52127   1.972  26.556  12.834
81528W        W52128  43.110   0.382   4.686
81529W        W52129  42.586  16.279  13.926
81530W        W52130   9.255  27.625  14.281
81531W        W52131  44.471  29.986  11.594
81532W        W52132  36.427  33.559  14.403
81533W        W52133  39.395  24.546   2.226
81534W        W52134  29.514  37.379   1.218
81535W        W52135   4.966   7.894  11.947
81536W        W52136   6.844  13.087  13.967
81537W        W52137  38.895  10.273  13.564
81538W        W52138   6.347  25.522   3.486
81539W        W52139  24.667   4.009  14.396
81540W        W52140  44.862  18.287   3.709
81541W        W52141  28.479   7.673   3.051
81542W        W52142   0.956   5.655   3.918
81543W        W52143  33.155  33.494  10.371
81544W        W52144  38.379  27.947   3.149
81545W        W52145  33.558  25.427   2.450
81546W        W52146  33.879   2.024   0.928
81547W        W52147  16.174   9.347   4.419
81548W        W52148  32.221  27.984   0.875
81549W        W52149  39.925  38.805  14.271
81550W        W52150  15.290   1.208   2.716
81551W        W52151   9.800   3.215   3.859
81552W        W52152  17.290  38.858   0.045
81553W        W52153  18.161  34.365   0.284
81554W        W52154  26.601   8.731  12.386
81555W        W52155  39.725  31.796   3.212
81556W        W52156  38.478  29.324  14.455
81557W        W52157  31.485   9.740   0.895
81558W        W52158  27.442  29.917  14.928
81559W        W52159   0.573   3.438   3.136
81560W        W52160  26.382   8.859   0.761
81561W        W52161  13.351  17.304  12.916
81562W        W52162   9.229   7.912  14.353
81563W        W52163   5.145  37.546  13.484
81564W        W52164   0.993  22.236   2.127
81565W        W52165  24.744  25.201   2.573
81566W        W52166  23.961   5.673  10.766
81567W        W52167  27.779  18.319  11.212
81568W        W52168  12.060  30.648   3.774
81569W        W52169   8.302  25.180  14.520
81570W        W52170  33.134  27.999   0.890
81571W        W52171   3.224  14.671  12.647
81572W        W52172  25.588  24.738  14.381
81573W        W52173  40.831  32.095   2.611
81574W        W52174   1.294  33.831  13.205
81575W        W52175  31.948  34.702  13.869
81576W        W52176  35.838  42.968   3.984
81577W        W52177   9.110  24.494  12.927
81578W        W52178  16.893  19.257  12.191
81579W        W52179   2.430  27.237  13.865
81580W        W52180  21.017  42.182  13.162
81581W        W52181  19.170  38.514  13.876
81582W        W52182  27.174  37.858  11.142
81583W        W52183  12.246   3.291   2.635
81584W        W52184  43.185  29.269  14.899
81585W        W52185  17.463   5.394  11.847
81586W        W52186  41.050  20.200   2.898
81587W        W52187  38.815  20.038  12.684
81588W        W52188  29.056  10.147   3.668
81589W        W52189  32.753  25.727   2.716
81590W        W52190  43.684  16.852   0.763
81591W        W52191  32.556  22.841  13.586
81592W        W52192  29.174   3.169   4.967
81593W        W52193  39.624  42.965  13.010
81594W        W52194   9.625   9.843   1.806
81595W        W52195  38.620   5.809   2.670
81596W        W52196   4.972  23.977   1.442
81597W        W52197  16.309  41.054  13.033
81598W        W52198  38.963  32.192   3.519
81599W        W52199  32.174  11.806   0.821
81600W        W52200  29.727   6.393  12.628
81601W        W52201  30.089  30.848   2.621
81602W        W52202  10.279  24.941  14.767
81603W        W52203  28.887  36.485  13.093
81604W        W52204  29.000  32.306  14.922
81605W        W52205  29.742  29.499   3.199
81606W        W52206  32.179   4.109   3.145
81607W        W52207  34.903  17.877   2.658
81608W        W52208  16.134  27.620  12.973
81609W        W52209  34.385  34.158  13.120
81610W        W52210  36.805  16.118  10.731
81611W        W52211  38.851  10.305  12.514
81612W        W52212   7.719  35.415   2.430
81613W        W52213   9.160  20.030  11.654
81614W        W52214  23.999  14.433  13.512
81615W        W52215   8.844  21.987   3.075
81616W        W52216  23.127  14.201   4.421
81617W        W52217   0.432  11.912   4.660
81618W        W52218  17.024  31.748   1.415
81619W        W52219  35.530  34.337   1.129
81620W        W52220  27.182  23.920  10.443
81621W        W52221  10.907  29.931   3.834
81622W        W52222   0.328  32.138  13.058
81623W        W52223  42.420  12.281  13.957
81624W        W52224  22.381  32.051   3.457
81625W        W52225  15.376  29.535   4.076
81626W        W52226  29.663  32.075  14.894
81627W        W52227   6.924   0.960  11.637
81628W        W52228   0.957   2.507  14.974
81629W        W52229  42.386  29.087  13.542
81630W        W52230  17.870  10.807  13.915
81631W        W52231  39.948   5.646   0.418
81632W        W52232   8.813  34.825  14.429
81633W        W52233  33.975  42.358   4.650
81634W        W52234  10.933  16.662  11.416
81635W        W52235  33.019  20.186   2.958
81636W        W52236  23.609  17.004   4.720
81637W        W52237  18.174   0.164   4.237
81638W        W52238  16.065  28.753  12.081
81639W        W52239  32.858  28.010   1.879
81640W        W52240   6.245  14.121  13.291
81641W        W52241  19.238  27.657   3.700
81642W        W52242  32.512  32.617   1.268
81643W        W52243  24.757  38.265  11.984
81644W        W52244   7.877  23.574  11.980
81645W        W52245  10.306  43.297  11.971
81646W        W52246  35.487  26.220  14.815
81647W        W52247   2.974  19.118  11.203
81648W        W52248   7.703  14.322   2.787
81649W        W52249  40.677  34.068  14.364
81650W        W52250  43.402  17.620  14.326
81651W        W52251  26.898  42.933  12.892
81652W        W52252  20.233   6.862   3.043
81653W        W52253  16.692  23.461   1.886
81654W        W52254   8.480  24.161  12.425
81655W        W52255  24.209  21.455   0.065
81656W        W52256   9.762  32.186  10.644
81657W        W52257   5.634  41.018  12.627
81658W        W52258  36.991  38.536  14.565
81659W        W52259  26.558   9.202   3.081
81660W        W52260  23.336   5.175  14.452
81661W        W52261  15.069  25.952   1.720
81662W        W52262  42.254  20.685  14.785
81663W        W52263  36.068  16.812  10.733
81664W        W52264  17.374  27.767  11.563
81665W        W52265   4.703  11.864   0.080
81666W        W52266  32.976   9.414  13.379
81667W        W52267  25.663  43.382  12.303
81668W        W52268  31.082   8.913   2.112
81669W        W52269  22.900  13.039  13.455
81670W        W52270   2.884   0.694   1.876
81671W        W52271  38.603  17.185  10.988
81672W        W52272  34.684  25.490  13.198
81673W        W52273   8.259  44.662   4.922
81674W        W52274   9.778  42.966   2.204
81675W        W52275  23.519  25.656  14.086
81676W        W52276  16.757  16.207  13.430
81677W        W52277   0.181  11.340  14.052
81678W        W52278   6.210  27.464   2.924
81679W        W52279   5.377  41.379   0.674
81680W        W52280  27.537  26.448   0.841
81681W        W52281  33.578  38.124   3.655
81682W        W52282  14.432  29.472  11.660
81683W        W52283  17.657  19.325   4.540
81684W        W52284  11.929  14.756  12.488
81685W        W52285  25.949   3.405  11.998
81686W        W52286  12.082  41.236  14.506
81687W        W52287  22.424  36.571  11.966
81688W        W52288  40.986  37.116   0.402
81689W        W52289   1.945   7.299   2.866
81690W        W52290  34.129  32.213   0.072
81691W        W52291  44.073  22.582   0.345
81692W        W52292  26.506   4.291  12.016
81693W        W52293   9.405  25.021   1.708
81694W        W52294  18.830  25.867   0.374
81695W        W52295  20.516  35.852  10.929
81696W        W52296  18.633  18.619  12.437
81697W        W52297  22.795  18.098   3.298
81698W        W52298  14.811  17.288   3.210
81699W        W52299  23.659  27.662   3.693
81700W        W52300  44.782  35.895  10.774
81701W        W52301  27.990  26.566   0.649
81702W        W52302  13.739   3.014   0.833
81703W        W52303  37.311  41.443  11.657
81704W        W52304  40.033   2.788  12.598
81705W        W52305  12.713  18.527  11.055
81706W        W52306  11.089  30.909   4.185
81707W        W52307  41.480  19.040   3.237
81708W        W52308   0.740  23.920   3.170
81709W        W52309  11.235   0.022  12.393
81710W        W52310  26.577  35.609   0.286
81711W        W52311  17.976  42.392   3.823
81712W        W52312  34.374  44.843   1.628
81713W        W52313  25.536  41.586  13.945
81714W        W52314  13.894  20.485   2.221
81715W        W52315  15.677  17.578   0.165
81716W        W52316  18.360  11.241   4.259
81717W        W52317  31.034   6.862   2.870
81718W        W52318  36.846  11.194   0.309
81719W        W52319  29.753  24.633  14.703
81720W        W52320  19.527  40.544   1.930
81721W        W52321  17.817   6.777   1.404
81722W        W52322  12.094   2.960  14.075
81723W        W52323  19.619  25.849  14.924
81724W        W52324   6.842  36.097  14.641
81725W        W52325  22.007   1.759   0.255
81726W        W52326  22.274   0.734  11.553
81727W        W52327  42.375   5.724  13.402
81728W        W52328  30.381  26.484   3.626
81729W        W52329  37.457   6.082   0.846
81730W        W52330   5.381  26.036  11.096
81731W        W52331  12.396   5.268  14.384
81732W        W52332   3.251   9.548   4.984
81733W        W52333  32.775  16.299  14.955
81734W        W52334  35.869  15.205  11.143
81735W        W52335  36.404  34.515   0.932
81736W        W52336  30.533  26.273   1.299
81737W        W52337  22.370   4.447  13.814
81738W        W52338   6.670  32.919   1.270
81739W        W52339   5.260  36.824  11.626
81740W        W52340   5.768  10.799   2.030
81741W        W52341  12.299  20.206  11.269
81742W        W52342  32.389  35.660  11.109
81743W        W52343  19.052  34.861  14.998
81744W        W52344  40.333  25.659  10.933
81745W        W52345  29.236  22.626   4.373
81746W        W52346  43.685   1.801   1.779
81747W        W52347  27.249  23.050  14.263
81748W        W52348  32.470  17.319   2.829
81749W        W52349  21.783   0.499   0.275
81750W        W52350  39.979   1.614  11.697
81751W        W52351  34.780  37.362  14.529
81752W        W52352  28.377  16.794   1.604
81753W        W52353  21.065   5.906   4.202
81754W        W52354  11.082  14.701  12.938
81755W        W52355  13.192  18.135  12.022
81756W        W52356  18.072  23.978   2.399
81757W        W52357   9.344   8.200   2.394
81758W        W52358  25.951   6.100   1.783
81759W        W52359  37.607  25.745   3.270
81760W        W52360  35.530   4.894  13.566
81761W        W52361  39.515  15.588   1.913
81762W        W52362  32.861  44.722   0.759
81763W        W52363   6.397   5.019  11.056
81764W        W52364  39.932  40.247  13.450
81765W        W52365  36.618  12.635  12.887
81766W        W52366   1.061   5.115  14.743
81767W        W52367  43.898   6.943   3.059
81768W        W52368   7.661   0.951   3.266
81769W        W52369   9.404  25.527  14.768
81770W        W52370   3.498  34.864  11.664
81771W        W52371  24.741   7.172  13.326
81772W        W52372  27.386  13.297  10.614
81773W        W52373  10.720  10.659  11.989
81774W        W52374  41.250  22.509  11.494
81775W        W52375  14.058  11.930  12.483
81776W        W52376  44.379   2.642  12.469
81777W        W52377  35.377   2.080   0.932
81778W        W52378   6.437  13.162   1.827
81779W        W52379  13.551  43.855  11.630
81780W        W52380  22.703   9.914   3.622
81781W        W52381   7.840  16.122   2.240
81782W        W52382  29.924  10.115   2.770
81783W        W52383  26.229  13.378  14.541
81784W        W52384   5.347  24.634  11.039
81785W        W52385  17.618   0.998   4.911
81786W        W52386  30.133  28.444   1.723
81787W        W52387   3.362   5.435  10.751
81788W        W52388  27.306   0.372   1.864
81789W        W52389  30.602  14.741   4.542
81790W        W52390  33.181  40.594   0.679
81791W        W52391  21.972   1.169  12.585
81792W        W52392  23.572  36.495   3.749
81793W        W52393   6.325  32.136  14.508
81794W        W52394  24.092   4.376   1.690
81795W        W52395  42.268  15.696   0.957
81796W        W52396  20.261  13.115   2.739
81797W        W52397   6.356  24.434   2.720
81798W        W52398  31.869   0.311  12.626
81799W        W52399  17.175   3.899   3.209
81800W        W52400  37.832  32.210   1.049
81801W        W52401  20.471   3.880   4.332
81802W        W52402  31.843  37.445  10.895
81803W        W52403  32.937   6.469  11.700
81804W        W52404  31.583  37.742  13.932
81805W        W52405  44.648  27.254  10.318
81806W        W52406  38.943  12.219  10.768
81807W        W52407  29.621  26.177  12.008
81808W        W52408  36.117  28.475   4.502
81809W        W52409  34.915  13.296   3.646
81810W        W52410  11.889  32.910  12.997
81811W        W52411   7.257  27.043  13.411
81812W        W52412   7.758   0.838  14.034
81813W        W52413   8.445  11.034   4.089
81814W        W52414  25.100  34.682   2.414
81815W        W52415  39.892   0.446   3.118
81816W        W52416  12.640  10.217  13.595
81817W        W52417  19.986  22.597   3.738
81818W        W52418  13.060   0.776  13.631
81819W        W52419  12.399  36.452   4.769
81820W        W52420  26.193  32.442   3.225
81821W        W52421  10.767   8.446   0.947
81822W        W52422   8.292  38.555   1.207
81823W        W52423   8.593   9.442  11.819
81824W        W52424  10.644  14.335   2.800
81825W        W52425  40.783  17.123   1.959
81826W        W52426  32.040  42.588  14.372
81827W        W52427  19.757  44.891  10.042
81828W        W52428  29.868  12.236   4.503
81829W        W52429  39.410  24.079   1.248
81830W        W52430  28.534  25.648  14.763
81831W        W52431  21.811  30.938   2.258
81832W        W52432   3.930   3.716   1.749
81833W        W52433  31.663  20.310  14.961
81834W        W52434  15.966  38.608  14.950
81835W        W52435  21.504  25.032   1.754
81836W        W52436   1.365  36.022  12.473
81837W        W52437  25.964  18.220  10.617
81838W        W52438  29.487  16.132   2.459
81839W        W52439  12.307  25.999  14.661
81840W        W52440  13.376  33.648  14.627
81841W        W52441  17.329   1.221   0.294
81842W        W52442  17.700  40.064  11.865
81843W        W52443  41.022  14.952  12.511
81844W        W52444  15.079  35.015   1.646
81845W        W52445  10.064  25.000   1.074
81846W        W52446   4.402  42.337   2.824
81847W        W52447  34.051   5.467   1.870
81848W        W52448  12.398  12.226  12.443
81849W        W52449  24.877   3.347  14.093
81850W        W52450  39.650   0.789  11.125
81851W        W52451   2.758  32.546  12.929
81852W        W52452  16.236  38.530   2.230
81853W        W52453  24.895   2.901   0.398
81854W        W52454  14.750   6.342   0.836
81855W        W52455  12.867   4.303  14.264
81856W        W52456  37.850  33.560   2.351
81857W        W52457  20.584   5.152  14.419
81858W        W52458  43.839  16.542   0.370
81859W        W52459  41.042   3.797   3.279
81860W        W52460  19.092  12.541  14.467
81861W        W52461  18.435  40.183  14.950
81862W        W52462  30.066   3.397  10.929
81863W        W52463   4.918  31.760   2.269
81864W        W52464  21.470  17.145  11.261
81865W        W52465  27.682   4.788   1.902
81866W        W52466  21.130   1.700  12.431
81867W        W52467  40.305  34.529   1.257
81868W        W52468  19.768   9.875   1.252
81869W        W52469  18.094  37.051  13.375
81870W        W52470  15.204  19.647  12.317
81871W        W52471   1.024  10.830  14.054
81872W        W52472  32.029  41.707   2.296
81873W        W52473   3.847  23.199   2.233
81874W        W52474  34.653  30.004   1.889
81875W        W52475   1.465  39.673   1.698
81876W        W52476   0.342  31.954  13.543
81877W        W52477  31.840   3.512  10.275
81878W        W52478  43.199  37.723   5.040
81879W        W52479   9.263  42.241   3.322
81880W        W52480   1.065  28.097  13.415
81881W        W52481   0.307  22.819   4.024
81882W        W52482  36.012  13.402   1.583
81883W        W52483  43.574  24.629  12.026
81884W        W52484  41.628  19.161   0.660
81885W        W52485   4.614  14.995  14.794
81886W        W52486  19.021  33.614   4.210
81887W        W52487  34.074   9.933  11.135
81888W        W52488  34.535  20.790  12.561
81889W        W52489  17.010  29.522  11.670
81890W        W52490  11.433  22.724   2.830
81891W        W52491  34.407  23.037   0.811
81892W        W52492  16.597  36.678   3.195
81893W        W52493  12.024  41.812   4.227
81894W        W52494  22.147  23.895   3.563
81895W        W52495  35.787  22.999   4.827
81896W        W52496  20.372  35.419  10.676
81897W        W52497  42.197  25.376  12.117
81898W        W52498  10.714  36.696  13.579
81899W        W52499   3.383  15.227  14.379
81900W        W52500   5.204  24.681   3.644
81901W        W52501  25.705  33.366  14.892
81902W        W52502   8.380  21.028  13.994
81903W        W52503  43.983  16.140   3.669
81904W        W52504  21.724  10.987  11.058
81905W        W52505  28.229  36.167   0.797
81906W        W52506  19.227  28.362   5.576
81907W        W52507  37.616  29.525  11.472
81908W        W52508   4.187  25.999   2.321
81909W        W52509  16.285  33.944   3.254
81910W        W52510  31.388  17.645   0.726
81911W        W52511  17.817   6.622  14.093
81912W        W52512  28.704  42.986   1.263
81913W        W52513  37.015  18.087  13.852
81914W        W52514  24.140  37.678   3.170
81915W        W52515  13.840  11.336  14.094
81916W        W52516  22.075   2.893  12.972
81917W        W52517   2.794  32.880  13.360
81918W        W52518  43.178   0.189  11.134
81919W        W52519  35.316  44.456   3.230
81920W        W52520  32.146  28.120  14.324
81921W        W52521  11.517   1.035   4.124
81922W        W52522  26.046   0.280   1.237
81923W        W52523  27.739  41.611  13.491
81924W        W52524   3.461  17.130  14.040
81925W        W52525  32.583  30.190  12.082
81926W        W52526  15.125  21.049  12.647
81927W        W52527  43.304   2.810   3.158
81928W        W52528  35.129  36.479   2.719
81929W        W52529  15.606  26.117  13.931
81930W        W52530  22.176  11.370   2.691
81931W        W52531   1.410  27.311   3.065
81932W        W52532   3.655  30.140  10.514
81933W        W52533  37.302  39.195   2.151
81934W        W52534  30.866  13.894   4.153
81935W        W52535  32.096  42.353   4.052
81936W        W52536   8.833  15.759   0.684
81937W        W52537  27.453  44.238   3.370
81938W        W52538  35.584  40.123   2.393
81939W        W52539  33.424   2.260   0.245
81940W        W52540  12.259   2.485   3.244
81941W        W52541  41.657  39.925   2.399
81942W        W52542  26.928  32.176   3.816
81943W        W52543  27.499  10.375   3.745
81944W        W52544  38.051  18.370   4.518
81945W        W52545  38.799  34.474   1.118
81946W        W52546  39.351  34.243   2.818
81947W        W52547  14.593   0.489  13.014
81948W        W52548  40.931  36.613   2.156
81949W        W52549  36.598  37.843  11.382
81950W        W52550  32.325   5.409   4.214
81951W        W52551  17.585  41.219  13.118
81952W        W52552  24.033  43.210  11.653
81953W        W52553  33.682  30.972   3.774
81954W        W52554  20.040  43.418   2.215
81955W        W52555  43.782  38.547   0.465
81956W        W52556  31.878  42.659  11.543
81957W        W52557  12.097  24.194   2.313
81958W        W52558   8.352  28.186  14.090
81959W        W52559  26.828  19.026   3.565
81960W        W52560  30.206  38.373  13.957
81961W        W52561  20.190  19.360  13.017
81962W        W52562  34.364  42.550   0.459
81963W        W52563  18.661  10.029  10.024
81964W        W52564   6.775  23.583  10.821
81965W        W52565  22.208  37.885  12.630
81966W        W52566   9.667  10.982   4.455
81967W        W52567  11.783  36.680   2.209
81968W        W52568  28.930   3.888  10.716
81969W        W52569  18.326  20.327  13.416
81970W        W52570  41.475  25.756   3.913
81971W        W52571  40.924   4.700   3.558
81972W        W52572  37.217  44.806  13.938
81973W        W52573  31.959  16.730  11.543
81974W        W52574  18.312  31.982  12.112
81975W        W52575  41.826  21.614   2.106
81976W        W52576   0.175  44.490   4.109
81977W        W52577  39.574  42.284  12.407
81978W        W52578   6.015  31.423   3.517
81979W        W52579  42.957  12.768   3.419
81980W        W52580   9.286  18.054   0.158
81981W        W52581  40.258  20.372   3.344
81982W        W52582  18.783  28.951   4.020
81983W        W52583  14.659   9.662  10.770
81984W        W52584  12.690  23.105   3.826
81985W        W52585  44.519  11.287   3.127
81986W        W52586  34.903   6.831  11.584
81987W        W52587  26.042  40.084  14.472
81988W        W52588  13.951  34.619  10.951
81989W        W52589  40.364   7.581   0.880
81990W        W52590   1.838  30.129   2.857
81991W        W52591  25.558  13.912   4.539
81992W        W52592  38.751  10.874   3.720
81993W        W52593  42.747   0.449  11.022
81994W        W52594   7.844  18.311   0.051
81995W        W52595  10.770  25.384   0.390
81996W        W52596  15.359  40.082  14.441
81997W        W52597  17.871  17.558   3.580
81998W        W52598  33.383  16.815   2.964
81999W        W52599   7.365  31.232   3.674
82000W        W52600   7.422  27.072   0.342
82001W        W52601  42.749  12.788   0.783
82002W        W52602  39.365  17.371  12.446
82003W        W52603  37.430  17.088  14.142
82004W        W52604   5.480  41.985  13.359
82005W        W52605  30.383  19.703   2.353
82006W        W52606  19.718  43.013  12.014
82007W        W52607   9.360  26.510  10.704
82008W        W52608  35.660  42.506  13.873
82009W        W52609   2.750  15.659  11.164
82010W        W52610  32.604   5.676   2.782
82011W        W52611  23.569  26.493  12.650
82012W        W52612  18.248  33.140  13.027
82013W        W52613   7.786  20.327  13.287
82014W        W52614  40.105   6.147   3.264
82015W        W52615   9.639   3.778   0.726
82016W        W52616  26.445   9.184  13.519
82017W        W52617  14.106  41.492   4.586
82018W        W52618  32.863  29.855   1.375
82019W        W52619  28.375  32.074   0.282
82020W        W52620  41.342  11.804  11.956
82021W        W52621   6.246   0.441   4.999
82022W        W52622  15.815  18.744   0.544
82023W        W52623   3.917  26.145   3.306
82024W        W52624  30.940  30.978  11.967
82025W        W52625  38.991  21.538  11.719
82026W        W52626  23.959   4.716  10.705
82027W        W52627   6.259   9.162  11.970
82028W        W52628  13.063  13.941   1.309
82029W        W52629   3.755  16.510   1.836
82030W        W52630  17.131  39.332   3.705
82031W        W52631  27.294  17.630  14.429
82032W        W52632   8.043  44.203   0.846
82033W        W52633  17.297  18.996  12.397
82034W        W52634  15.732  16.212   0.393
82035W        W52635  41.646  15.685   2.731
82036W        W52636   7.336  37.644   4.783
82037W        W52637  32.854   7.667  12.060
82038W        W52638   4.754  17.516   0.728
82039W        W52639   2.899  27.174  12.650
82040W        W52640  30.639  41.870   2.566
82041W        W52641  28.630   9.845  11.542
82042W        W52642  12.791  26.762   3.843
82043W        W52643  18.629  26.270   4.445
82044W        W52644  21.843  13.158   3.798
82045W        W52645  30.213  35.474   1.365
82046W        W52646  32.832  44.884   3.182
82047W        W52647   2.429  35.373  12.978
82048W        W52648  33.103   8.981  12.987
82049W        W52649  32.187  33.735  13.027
82050W        W52650   2.418   8.174   0.436
82051W        W52651  37.269  26.580   0.324
82052W        W52652  14.270  42.757   0.853
82053W        W52653  10.314  33.610   3.678
82054W        W52654  33.520  31.179  10.679
82055W        W52655  10.132  39.501   1.348
82056W        W52656  35.602  37.275   4.219
82057W        W52657  16.160  32.899   1.260
82058W        W52658  23.412  22.104  11.564
82059W        W52659  39.016  20.277   2.164
82060W        W52660  16.551  33.326  14.477
82061W        W52661  25.198  44.752   1.160
82062W        W52662  39.683  42.787   4.492
82063W        W52663  33.742  10.962   4.726
82064W        W52664  15.352  17.655  11.926
82065W        W52665  24.086  19.495  14.351
82066W        W52666  22.428  18.038   5.080
82067W        W52667  33.238  38.925   2.085
82068W        W52668  18.342   5.414   1.933
82069W        W52669   5.789   7.179  14.425
82070W        W52670   5.218  41.107  10.567
82071W        W52671  42.277  22.570  13.944
82072W        W52672  31.870  19.214  12.170
82073W        W52673  37.980  31.699   1.148
82074W        W52674   8.572   8.781   2.168
82075W        W52675  30.693  21.182   1.559
82076W        W52676  20.001  15.259  12.553
82077W        W52677   1.832  42.887   0.710
82078W        W52678  32.983  42.326   0.794
82079W        W52679   7.830  12.178   1.409
82080W        W52680  37.461  37.037  14.363
82081W        W52681  38.417  13.157  13.581
82082W        W52682  19.652   6.437  10.354
82083W        W52683  32.462  19.345  12.394
82084W        W52684  38.017  11.617  14.440
82085W        W52685   8.808  17.791  13.940
82086W        W52686  20.255  15.198  13.150
82087W        W52687   4.860   3.752   3.690
82088W        W52688  41.291  21.627  14.566
82089W        W52689   3.572  21.149   1.287
82090W        W52690  19.927  22.660   2.389
82091W        W52691   7.462  24.661   3.231
82092W        W52692  34.494  35.974  12.378
82093W        W52693  17.799  19.136  12.202
82094W        W52694  13.169  26.175   1.186
82095W        W52695  18.479  29.707  11.590
82096W        W52696  44.386  33.901   3.048
82097W        W52697  28.525  38.059   3.363
82098W        W52698  35.916  26.021  11.162
82099W        W52699  13.173   0.466  14.514
82100W        W52700   8.272  24.645  12.416
82101W        W52701   7.899  27.922   1.347
82102W        W52702  40.450   6.950   3.379
82103W        W52703   1.224  31.149   1.394
82104W        W52704   6.153   2.889  14.143
82105W        W52705  38.335  18.095   4.164
82106W        W52706  24.434  25.506   0.784
82107W        W52707  10.343   5.421  13.797
82108W        W52708  31.603  23.003  12.967
82109W        W52709  15.401  42.488  11.398
82110W        W52710   6.133  24.241  14.833
82111W        W52711  14.827   2.173   2.859
82112W        W52712  34.184  38.004  11.559
82113W        W52713  21.290  25.590   3.251
82114W        W52714  14.876  20.986  10.360
82115W        W52715  17.877  35.328  13.158
82116W        W52716  18.088  31.793  12.527
82117W        W52717  21.770   8.933  11.685
82118W        W52718  24.229  11.709   4.135
82119W        W52719  33.593  29.145   2.395
82120W        W52720  40.445  44.013   2.989
82121W        W52721  10.816   5.956   1.718
82122W        W52722  10.179  35.588   0.762
82123W        W52723  13.673  29.186  10.671
82124W        W52724   5.818   0.462  12.095
82125W        W52725  10.693  26.994   1.916
82126W        W52726   0.847  21.294  10.995
82127W        W52727  16.956   3.303   3.802
82128W        W52728  10.573  24.841  12.135
82129W        W52729   1.590  41.950   2.788
82130W        W52730  33.466   7.646   4.664
82131W        W52731  26.234  37.945   4.832
82132W        W52732  10.928  19.628  10.987
82133W        W52733  32.858  24.039   2.222
82134W        W52734  44.453   9.026   0.919
82135W        W52735  24.012  42.599   4.180
82136W        W52736  32.967   8.954   1.793
82137W        W52737  19.261  10.220  14.387
82138W        W52738  22.513  21.951  11.382
82139W        W52739  25.189  18.708   1.348
82140W        W52740  38.503  20.345  10.653
82141W        W52741   5.899  13.628   0.784
82142W        W52742  41.893   8.927   3.384
82143W        W52743   0.585  14.989  11.649
82144W        W52744  16.283  32.583   3.190
82145W        W52745  18.180   2.963   2.437
82146W        W52746  29.893  19.556  11.447
82147W        W52747  19.560  36.324   0.801
82148W        W52748  42.946  21.941  11.233
82149W        W52749  30.485   4.750   1.095
82150W        W52750   8.105  38.928   2.275
82151W        W52751  31.418  19.046   3.752
82152W        W52752   3.364  27.604   4.123
82153W        W52753  12.098  23.710   2.128
82154W        W52754  34.195  33.079   2.659
82155W        W52755  34.806   8.761   5.010
82156W        W52756  17.353   1.550  13.588
82157W        W52757  20.968   9.026  11.570
82158W        W52758   9.789  32.641  10.397
82159W        W52759  29.154   4.339  10.546
82160W        W52760   6.336  13.579  11.936
82161W        W52761  29.020  37.925  14.905
82162W        W52762   8.920  17.021   1.359
82163W        W52763  36.979  38.750   3.373
82164W        W52764  34.608  12.044  12.888
82165W        W52765  24.268  31.550   2.699
82166W        W52766  12.334  36.230   1.422
82167W        W52767  18.498   9.818  14.570
82168W        W52768  41.249  40.709   1.884
82169W        W52769  41.976  33.707   5.262
82170W        W52770  11.728  27.262   2.040
82171W        W52771  12.542  22.517   1.649
82172W        W52772  31.530   0.375  13.594
82173W        W52773  21.675  13.644   3.829
82174W        W52774  37.803  26.008  11.393
82175W        W52775  22.695  18.146  14.826
82176W        W52776   6.439  38.091   3.540
82177W        W52777  24.596  16.065   4.554
82178W        W52778   7.760  44.078  10.391
82179W        W52779  33.867  37.465  10.675
82180W        W52780  14.841  15.206   2.980
82181W        W52781  13.768  33.235  11.027
82182W        W52782  29.837  24.177   3.399
82183W        W52783  38.094  20.615  12.358
82184W        W52784  10.941  27.766  13.931
82185W        W52785  17.662  26.083   2.167
82186W        W52786  28.922  42.393  14.082
82187W        W52787   8.245  36.369   4.496
82188W        W52788  43.068  21.052  14.250
82189W        W52789   1.860   3.572   1.492
82190W        W52790   5.700  11.205   1.268
82191W        W52791  14.876   0.220   4.829
82192W        W52792   3.910  34.964   3.592
82193W        W52793  10.244   4.989  11.838
82194W        W52794  44.289  17.680   2.598
82195W        W52795  42.712  13.114   5.019
82196W        W52796  11.653   6.700   0.560
82197W        W52797  15.381  35.380   2.364
82198W        W52798   3.402  38.550  14.574
82199W        W52799  29.559  33.704   1.746
82200W        W52800  43.824   5.316  13.886
82201W        W52801  39.582  12.658   2.255
82202W        W52802   1.321  42.195   4.906
82203W        W52803  38.051  39.049  11.153
82204W        W52804  29.574  18.549  14.474
82205W        W52805  33.177   7.249  12.024
82206W        W52806  10.012  18.945  12.610
82207W        W52807  34.038  31.114   4.732
82208W        W52808  24.137  37.074  12.600
82209W        W52809  44.013  40.894   4.904
82210W        W52810   7.633   0.846   1.021
82211W        W52811  17.596  20.077   1.817
82212W        W52812  13.678  35.057  14.983
82213W        W52813  41.368  37.465   2.295
82214W        W52814   5.153  22.567   4.606
82215W        W52815  12.076  32.973  14.953
82216W        W52816  16.760  34.467  13.790
82217W        W52817  28.069  19.586  13.774
82218W        W52818   0.861  16.204  12.066
82219W        W52819  15.116  28.611   2.644
82220W        W52820  39.705  36.282   4.346
82221W        W52821  11.357   9.342  14.753
82222W        W52822   9.618  33.117   4.794
82223W        W52823  12.243  41.004  13.557
82224W        W52824  40.534  42.582   0.469
82225W        W52825  44.198  30.486   0.065
82226W        W52826  25.464   4.599  13.792
82227W        W52827   8.107  35.748   2.308
82228W        W52828  17.248  18.582  12.685
82229W        W52829   1.021  19.543  13.687
82230W        W52830  12.710  32.821  10.723
82231W        W52831  35.668   3.203   3.803
82232W        W52832  19.866  34.417   4.173
82233W        W52833  18.552   6.922  14.445
82234W        W52834  25.179   7.842  10.444
82235W        W52835  27.919  34.410  12.121
82236W        W52836   6.788  38.405  14.000
82237W        W52837  34.160  10.746  11.494
82238W        W52838  19.328  23.511  13.880
82239W        W52839  24.690  10.865  12.141
82240W        W52840  40.589  20.573  13.857
82241W        W52841  24.564  39.543   4.152
82242W        W52842   0.878  14.500  10.522
82243W        W52843  11.438  14.598  12.494
82244W        W52844   2.364  37.491  13.480
82245W        W52845  19.458  17.607  14.463
82246W        W52846  38.062  34.591  11.163
82247W        W52847  40.939  17.671  14.022
82248W        W52848  44.866  29.621   4.331
82249W        W52849  41.887  36.570   3.631
82250W        W52850  33.543   1.269   4.923
82251W        W52851  43.563  35.871   3.683
82252W        W52852  40.847  16.346   2.694
82253W        W52853  41.562   8.701   4.167
82254W        W52854   8.103  14.860  12.719
82255W        W52855   5.795  23.629  10.810
82256W        W52856  38.814  31.842  14.326
82257W        W52857   1.492  14.803   0.247
82258W        W52858  36.114  22.756   2.216
82259W        W52859   8.916  36.299   4.131
82260W        W52860   2.982  39.937  12.433
82261W        W52861  10.880  20.449   3.650
82262W        W52862  21.164  42.297   3.021
82263W        W52863  12.759   3.641  14.951
82264W        W52864  42.721  22.679  12.058
82265W        W52865  19.459  10.189   4.370
82266W        W52866  24.380  41.292  12.095
82267W        W52867   3.694  41.027   3.172
82268W        W52868  23.781   6.329  11.241
82269W        W52869  24.600  26.870   0.698
82270W        W52870   3.587   5.856   4.669
82271W        W52871  31.531  13.275   4.447
82272W        W52872  25.011  11.730   0.423
82273W        W52873  24.021  34.298  14.783
82274W        W52874  11.080  16.291   3.375
82275W        W52875  38.577  44.861   2.134
82276W        W52876   8.913   2.904   2.697
82277W        W52877  42.983  10.639   0.942
82278W        W52878  37.011   3.702   3.182
82279W        W52879   2.014   4.488  12.108
82280W        W52880  42.474  11.765  13.959
82281W        W52881  18.834  39.588  12.444
82282W        W52882   3.444  38.928   1.349
82283W        W52883  20.217  31.165   3.085
82284W        W52884  43.341  23.110  13.824
82285W        W52885   1.750   7.243   0.032
82286W        W52886   7.110  13.841  14.894
82287W        W52887  13.124  12.102   3.055
82288W        W52888  21.076  17.424  11.633
82289W        W52889   8.954  21.117   4.146
82290W        W52890   4.171  27.397  12.508
82291W        W52891  20.062  41.273   3.199
82292W        W52892  24.483  31.104   1.771
82293W        W52893  44.810  33.513   0.718
82294W        W52894  19.952  11.452   3.281
82295W        W52895  43.481  29.953   2.195
82296W        W52896  17.022   4.800   0.433
82297W        W52897   1.415  42.057  14.712
82298W        W52898   9.768  37.334   0.350
82299W        W52899  29.975  22.713   4.219
82300W        W52900  34.648  20.276  11.632
82301W        W52901  16.640  35.421  13.419
82302W        W52902  10.270  34.270  10.457
82303W        W52903   0.006  13.757  14.288
82304W        W52904  40.772  40.858  11.402
82305W        W52905   3.707  44.738  10.752
82306W        W52906   9.002  23.922   4.652
82307W        W52907   0.267  16.985   3.599
82308W        W52908  26.228  34.599   4.142
82309W        W52909  15.481   1.109  14.539
82310W        W52910  19.746  40.271  11.493
82311W        W52911  12.866  15.903   0.993
82312W        W52912  41.813   1.747  12.022
82313W        W52913   2.515  40.518   0.004
82314W        W52914  12.144  41.867  11.520
82315W        W52915   0.494  44.104   4.657
82316W        W52916   2.768  42.946  14.360
82317W        W52917  27.824  36.070   2.236
82318W        W52918   6.752  18.367  14.302
82319W        W52919  30.054  34.433  12.819
82320W        W52920   0.138  11.397   3.893
82321W        W52921  18.478  18.097   3.199
82322W        W52922  20.863  11.890  14.274
82323W        W52923  28.144   2.222   1.431
82324W        W52924  43.845  25.015   1.277
82325W        W52925  17.841  27.947  11.770
82326W        W52926  27.492  37.800   1.450
82327W        W52927  43.245  21.810  12.429
82328W        W52928  22.730  27.235  11.165
82329W        W52929  39.880  10.331  13.417
82330W        W52930  24.102   5.867   2.838
82331W        W52931  40.584  16.688   1.697
82332W        W52932   1.296  13.358   2.149
82333W        W52933  26.271  31.637  14.462
82334W        W52934  40.463  15.486  10.770
82335W        W52935  38.328   8.799   2.732
82336W        W52936  26.951  42.418  12.975
82337W        W52937  36.893  17.598  10.787
82338W        W52938  22.997  25.703   4.566
82339W        W52939  18.069  23.602   3.100
82340W        W52940   1.984  40.315   1.965
82341W        W52941  12.249  30.962  11.079
82342W        W52942  35.672  41.022   2.665
82343W        W52943  34.004   6.312   1.350
82344W        W52944  38.797  29.068   4.326
82345W        W52945  30.028  41.470   3.780
82346W        W52946  40.772  21.163  10.289
82347W        W52947  12.351  42.198  12.667
82348W        W52948  40.713  29.743   3.446
82349W        W52949  13.620  14.738  13.754
82350W        W52950  33.343  44.037  10.765
82351W        W52951  18.448  23.556   4.043
82352W        W52952   2.997  16.556   3.689
82353W        W52953   9.303  26.124   4.708
82354W        W52954  37.097  12.403  13.130
82355W        W52955  43.787  38.928   1.882
82356W        W52956  22.116   8.840   3.119
82357W        W52957  10.093  38.960   1.341
82358W        W52958   2.478  10.729   4.250
82359W        W52959  28.157  21.124   4.591
82360W        W52960  11.690  30.051   4.330
82361W        W52961  31.039  24.248  11.718
82362W        W52962  27.958  11.757  12.971
82363W        W52963  28.518  26.493   0.812
82364W        W52964  32.606   0.675   1.897
82365W        W52965   0.842   8.788   0.768
82366W        W52966  29.568  13.816  12.138
82367W        W52967  42.393  42.826   2.743
82368W        W52968  41.026  31.595   1.255
82369W        W52969  20.888  42.910   2.291
82370W        W52970  15.559  33.955   2.429
82371W        W52971   7.693  39.537  10.917
82372W        W52972  44.502  25.585   4.616
82373W        W52973   7.342  19.021  14.368
82374W        W52974  21.758  32.129   1.210
82375W        W52975  14.435  27.904   2.334
82376W        W52976  18.464  27.085  14.028
82377W        W52977   6.389  37.604   0.888
82378W        W52978  44.482  12.638  13.482
82379W        W52979  34.921  30.412  11.630
82380W        W52980   5.945  27.605  11.731
82381W        W52981  43.481   9.427  14.427
82382W        W52982   9.332  39.766   9.989
82383W        W52983  21.304  42.273   3.516
82384W        W52984  18.184   8.429   4.172
82385W        W52985   8.447  19.003   0.061
82386W        W52986  23.988  25.203   0.927
82387W        W52987   7.166  11.697  10.663
82388W        W52988  41.329   4.727   0.421
82389W        W52989  26.493   8.225   4.552
82390W        W52990  44.932  36.327   4.783
82391W        W52991  42.592  30.683  12.765
82392W        W52992  24.670  27.037  13.370
82393W        W52993  40.355  21.598   0.149
82394W        W52994  42.978   4.165   2.272
82395W        W52995  13.261  32.344   0.405
82396W        W52996  26.142  26.500   3.941
82397W        W52997  41.907  12.226  10.851
82398W        W52998  11.399   5.672   0.781
82399W        W52999  24.109  37.213   1.287
82400W        W53000  38.514  18.077   1.185
82401W        W53001  39.225  42.925  10.319
82402W        W53002  25.987  27.954   1.852
82403W        W53003   7.833  38.663  11.052
82404W        W53004  27.128  17.775  11.220
82405W        W53005   8.773  13.145  14.414
82406W        W53006  40.779  19.818  11.115
82407W        W53007   9.195  11.628   0.452
82408W        W53008  14.619  28.459  13.316
82409W        W53009  11.130  25.184  12.853
82410W        W53010   3.298  16.554   4.830
82411W        W53011   2.398  25.563  12.025
82412W        W53012  23.512   7.651  13.131
82413W        W53013   3.177   7.310   0.883
82414W        W53014  21.481  44.842  14.470
82415W        W53015  16.007  28.140   1.165
82416W        W53016  38.342  32.921   1.450
82417W        W53017  26.630  44.490   4.668
82418W        W53018   0.833  25.690  12.096
82419W        W53019  20.760  27.273  10.725
82420W        W53020  39.420  16.809  12.367
82421W        W53021  30.226  31.185  13.487
82422W        W53022  37.417  27.350  14.069
82423W        W53023  31.137  12.361   0.430
82424W        W53024  24.620  43.352  13.604
82425W        W53025  24.616  41.356   2.155
82426W        W53026  42.799  43.264   0.118
82427W        W53027  44.747  43.215  11.508
82428W        W53028  16.511  37.823  14.441
82429W        W53029  11.690  16.009   2.196
82430W        W53030  20.177  20.515   3.529
82431W        W53031  15.633  24.314   3.648
82432W        W53032  18.032  20.608  11.626
82433W        W53033  10.298  36.900  13.956
82434W        W53034  32.091  14.655  13.526
82435W        W53035  23.418  29.177   0.820
82436W        W53036  13.978  20.145  13.074
82437W        W53037  19.642  44.005  14.845
82438W        W53038   8.994  10.443  12.537
82439W        W53039  26.143  13.238   1.492
82440W        W53040   0.153  12.124  12.692
82441W        W53041   7.497  38.497   1.710
82442W        W53042  19.939  39.898  12.834
82443W        W53043  27.753   7.191  12.612
82444W        W53044  13.607  41.629   2.778
82445W        W53045   3.232   1.235   3.060
82446W        W53046  19.291  20.500  11.095
82447W        W53047   9.737  12.839  12.808
82448W        W53048  13.308   8.352  14.352
82449W        W53049  14.880  42.458  12.489
82450W        W53050  43.312  42.440   0.763
82451W        W53051   1.278   5.727   0.728
82452W        W53052  21.016  32.653   4.885
82453W        W53053  16.838  32.037   1.850
82454W        W53054  41.476   9.325  13.443
82455W        W53055  10.083  14.688   3.140
82456W        W53056   1.022  15.831   1.335
82457W        W53057  29.018  39.459  13.911
82458W        W53058  32.591  39.211  14.917
82459W        W53059  30.176  42.330   3.246
82460W        W53060  20.770   4.945  11.429
82461W        W53061   2.820  19.354   0.509
82462W        W53062   9.226  26.133   3.207
82463W        W53063   9.066  22.698   0.897
82464W        W53064  38.543   3.717   3.200
82465W        W53065  42.340   1.746  14.386
82466W        W53066  28.707  28.372  11.172
82467W        W53067  24.945   6.707  13.502
82468W        W53068  12.140  13.878  11.613
82469W        W53069  35.528   0.706  11.516
82470W        W53070   9.326  29.047  12.975
82471W        W53071  37.917  30.322   3.700
82472W        W53072  26.708  39.423  14.232
82473W        W53073  23.763   0.831  13.482
82474W        W53074  40.541  35.537   2.217
82475W        W53075  12.521   6.277   3.487
82476W        W53076  14.271  33.340   1.373
82477W        W53077  33.913  42.482  12.142
82478W        W53078  19.142  24.142  12.803
82479W        W53079  41.716   6.061  12.857
82480W        W53080  28.990  35.578  12.122
82481W        W53081  33.763  12.325   4.908
82482W        W53082  10.588  33.549   0.399
82483W        W53083  41.307   6.799  13.353
82484W        W53084  36.544   7.381  14.260
82485W        W53085  16.790  40.033   4.253
82486W        W53086  23.388  33.390  10.514
82487W        W53087  14.410  41.975   3.945
82488W        W53088   7.001  22.603  11.244
82489W        W53089  23.583  32.866  13.973
82490W        W53090  23.321  10.628   3.252
82491W        W53091  18.186   1.461   3.341
82492W        W53092  27.614  26.395  13.062
82493W        W53093  39.835  25.601  14.904
82494W        W53094  14.931  27.727   2.280
82495W        W53095  27.511  36.131  13.831
82496W        W53096   4.165  36.130  14.253
82497W        W53097   7.315  26.335  12.759
82498W        W53098  41.152  19.273  10.394
82499W        W53099  25.583  41.815  10.611
82500W        W53100  31.497   4.709   1.652
82501W        W53101  14.696  15.541  13.977
82502W        W53102   9.170  27.592   2.549
82503W        W53103   8.433  21.151  11.262
82504W        W53104   1.950  20.074  11.616
82505W        W53105   2.324  31.466  14.193
82506W        W53106  22.090   8.518   2.667
82507W        W53107  20.619  21.668  11.721
82508W        W53108  39.733   4.382   5.657
82509W        W53109  26.305   3.297   2.678
82510W        W53110  21.773  32.048  14.416
82511W        W53111   3.102  30.424   0.731
82512W        W53112  40.437  21.491  10.548
82513W        W53113   1.967  19.529   3.395
82514W        W53114  35.108  24.536  13.160
82515W        W53115  24.599  19.234  13.937
82516W        W53116  42.313  28.389   1.457
82517W        W53117   7.795  36.873   1.838
82518W        W53118  34.250  33.926  11.696
82519W        W53119  38.379  31.059  14.831
82520W        W53120  31.839   3.253  14.296
82521W        W53121  12.767  40.286  12.980
82522W        W53122  35.591  17.356  12.610
82523W        W53123  21.773   8.930   3.501
82524W        W53124   1.511  36.686  14.845
82525W        W53125  10.202  34.595   4.509
82526W        W53126   2.243  10.671  11.448
82527W        W53127   6.819  27.058  10.739
82528W        W53128  41.897   2.172  12.647
82529W        W53129  31.390  13.333   1.949
82530W        W53130  12.719  44.764  10.923
82531W        W53131   7.750  24.234   3.213
82532W        W53132   3.259  41.269  10.955
82533W        W53133  22.847  24.858   1.737
82534W        W53134   0.341  21.866   4.173
82535W        W53135  17.488  13.842   1.859
82536W        W53136  16.203  22.195  10.423
82537W        W53137  35.412  30.416  10.635
82538W        W53138  30.413  31.191   2.843
82539W        W53139  35.337   1.396   0.448
82540W        W53140   1.508  38.846   1.199
82541W        W53141  25.797  23.437  13.122
82542W        W53142  37.424  15.141   5.106
82543W        W53143  38.118  44.909  14.071
82544W        W53144  19.066   7.194  12.518
82545W        W53145  32.915  26.768   0.491
82546W        W53146  24.169   6.793  11.043
82547W        W53147  18.155  27.062   0.462
82548W        W53148  19.676   5.944  14.937
82549W        W53149  30.663  26.066  14.962
82550W        W53150  34.126   9.429  12.005
82551W        W53151  18.295   0.473   2.689
82552W        W53152  29.597  26.154   2.626
82553W        W53153  39.315  30.115  11.727
82554W        W53154  15.712   8.197  12.882
82555W        W53155   3.892  13.823  12.178
82556W        W53156  31.020  44.767  12.362
82557W        W53157  14.568  21.812  11.177
82558W        W53158  12.072  35.500   4.944
82559W        W53159  22.587  14.366  12.651
82560W        W53160  37.309  13.835   1.415
82561W        W53161   0.483   1.182   1.296
82562W        W53162   9.086   3.720   3.170
82563W        W53163   7.441  16.186  10.633
82564W        W53164  33.869   1.977  14.287
82565W        W53165  29.461  37.909  13.751
82566W        W53166  42.008  38.875   0.306
82567W        W53167  35.119  33.691   0.672
82568W        W53168  36.129  23.876  14.922
82569W        W53169  12.888  27.990   5.037
82570W        W53170  31.894  17.188   3.666
82571W        W53171  37.873  42.916  10.727
82572W        W53172  21.196  29.142   4.659
82573W        W53173  43.383   3.224   3.533
82574W        W53174  19.842  35.137   2.678
82575W        W53175  41.306  20.725  14.519
82576W        W53176  26.722  26.545  11.191
82577W        W53177  33.930  34.295   4.085
82578W        W53178  40.975  40.407   3.747
82579W        W53179  37.054  26.419  10.639
82580W        W53180  14.638  44.353   5.014
82581W        W53181  29.866   8.371  12.505
82582W        W53182  37.861   6.244   1.123
82583W        W53183  16.037   7.260   4.229
82584W        W53184  12.941  19.143  10.612
82585W        W53185  11.799  32.631   2.911
82586W        W53186   6.672  19.627  14.768
82587W        W53187   4.364   2.151   1.663
82588W        W53188  15.276  29.731   1.559
82589W        W53189  16.273   0.637   3.659
82590W        W53190  32.563  21.910   0.210
82591W        W53191  32.052  43.466   1.437
82592W        W53192  38.010  44.026  11.630
82593W        W53193  28.477   6.304  14.428
82594W        W53194  31.350   2.880   4.404
82595W        W53195  33.183  41.569  13.956
82596W        W53196  36.315   2.899   1.382
82597W        W53197  13.623  12.397  11.985
82598W        W53198  38.348   4.408   1.764
82599W        W53199  18.218  18.082  14.905
82600W        W53200   8.314  40.949   3.119
82601W        W53201  26.397  35.281   3.240
82602W        W53202  23.012  42.072  13.397
82603W        W53203  17.514  23.052  10.647
82604W        W53204  25.154   6.326   1.252
82605W        W53205   4.802  11.789   2.691
82606W        W53206   8.274   8.074   3.876
82607W        W53207   5.766  37.282  14.866
82608W        W53208  17.256  12.624   1.369
82609W        W53209  12.342   4.965  13.386
82610W        W53210  15.787  39.886  11.494
82611W        W53211  40.876  16.566  13.953
82612W        W53212  38.928  34.964   3.707
82613W        W53213  34.480  43.390   1.421
82614W        W53214  29.976  23.536  13.456
82615W        W53215   4.685  24.198   1.064
82616W        W53216   4.449   1.546  10.093
82617W        W53217   4.686  14.304   5.035
82618W        W53218   8.939  15.409   0.308
82619W        W53219  32.427  22.482  10.611
82620W        W53220  37.573   8.400  12.853
82621W        W53221  38.608  13.576  12.635
82622W        W53222  37.983  44.620  12.478
82623W        W53223   8.811  40.906   3.316
82624W        W53224  33.468  32.663  12.994
82625W        W53225  39.355  40.369   0.461
82626W        W53226  13.709  10.131  14.275
82627W        W53227  15.517  40.840   1.255
82628W        W53228  21.178  13.642   3.124
82629W        W53229  44.312  39.649  11.610
82630W        W53230   0.269  40.002   0.819
82631W        W53231  11.174  20.421  13.095
82632W        W53232  18.290  42.504  10.922
82633W        W53233  10.580  42.820   1.312
82634W        W53234  36.908  17.669  13.481
82635W        W53235  30.154  44.873   3.808
82636W        W53236  41.335  36.830  12.479
82637W        W53237  13.282  43.329  13.158
82638W        W53238  42.294   6.941   2.195
82639W        W53239  33.614  40.101  13.036
82640W        W53240  40.826   8.556   3.706
82641W        W53241  28.956  18.697  12.126
82642W        W53242  39.597  31.267  10.626
82643W        W53243  42.425  12.346   4.660
82644W        W53244  44.862  26.545   4.467
82645W        W53245  17.707  18.660  12.408
82646W        W53246  31.628  13.142   1.445
82647W        W53247   3.798  33.178  14.179
82648W        W53248  41.138  43.769  13.758
82649W        W53249  39.416  25.035   3.294
82650W        W53250   1.314  35.056  11.582
82651W        W53251  33.570  40.540   2.466
82652W        W53252   2.267  22.921   1.460
82653W        W53253  14.094   6.761   0.912
82654W        W53254  29.523  34.414  12.905
82655W        W53255  26.655   8.857   0.303
82656W        W53256  31.395  29.478   2.406
82657W        W53257  11.833  14.373  12.046
82658W        W53258   7.380  35.631   2.755
82659W        W53259   6.565  36.647   2.843
82660W        W53260   9.410  33.389   1.429
82661W        W53261   2.024  44.277  14.876
82662W        W53262  24.517  40.932   1.395
82663W        W53263  15.369   8.140  13.289
82664W        W53264  43.888   4.836   4.525
82665W        W53265  18.968  31.199  13.538
82666W        W53266  42.376  30.832   3.173
82667W        W53267  19.263  21.233   3.313
82668W        W53268   4.325  26.958   0.829
82669W        W53269  28.411   9.746   2.150
82670W        W53270  27.701  32.832  14.726
82671W        W53271   2.718  19.424   0.020
82672W        W53272  30.664  34.555   2.390
82673W        W53273  20.620  44.848  12.478
82674W        W53274  12.826  28.723  14.049
82675W        W53275   7.383  29.138   2.241
82676W        W53276   4.781  20.481   2.789
82677W        W53277  20.733  22.651  10.820
82678W        W53278  32.583   6.042   3.715
82679W        W53279  16.368  15.623  14.953
82680W        W53280  13.889  23.569   0.227
82681W        W53281  42.363  17.571  13.869
82682W        W53282  22.336  14.806   4.163
82683W        W53283  28.517   4.677  13.188
82684W        W53284  24.673  29.550  12.646
82685W        W53285  16.136  19.527  11.140
82686W        W53286   2.081  34.624  12.426
82687W        W53287   0.971   4.759   2.079
82688W        W53288  38.088   3.394  14.398
82689W        W53289  13.859  42.423  12.319
82690W        W53290  41.892  33.503   4.401
82691W        W53291  11.846  13.258   1.145
82692W        W53292  15.689  27.736   4.753
82693W        W53293  26.066  25.631  12.603
82694W        W53294   2.679   3.437  10.574
82695W        W53295  20.522   8.053   3.037
82696W        W53296  25.245   5.146  14.439
82697W        W53297  17.239  32.381   4.040
82698W        W53298  15.205   6.471   0.141
82699W        W53299  23.887  24.573  13.340
82700W        W53300  26.135  21.142   1.686
82701W        W53301  34.612  29.990  13.388
82702W        W53302  13.168  36.555   1.361
82703W        W53303  44.057  37.828  13.433
82704W        W53304  44.345  15.777   0.532
82705W        W53305  30.548  43.952   0.370
82706W        W53306  33.917   4.379  12.539
82707W        W53307  28.456   7.672  12.377
82708W        W53308  18.276  17.180  12.491
82709W        W53309  11.243   0.443  11.419
82710W        W53310  32.048  34.579  13.368
82711W        W53311  29.077  39.845  14.255
82712W        W53312   9.922   9.287   4.378
82713W        W53313  18.556  25.746   5.328
82714W        W53314  27.509  36.624   0.190
82715W        W53315   8.660  11.352   2.583
82716W        W53316  20.017  18.896  11.691
82717W        W53317  41.615  27.632  13.144
82718W        W53318  26.681  24.358   0.971
82719W        W53319  22.556  42.823   1.385
82720W        W53320  14.315  41.555   0.093
82721W        W53321   5.428  13.316  14.053
82722W        W53322  27.479  10.861  13.606
82723W        W53323   1.392   8.132   2.350
82724W        W53324   0.957   1.254   3.750
82725W        W53325  35.581  18.135   1.002
82726W        W53326  11.692   2.595   2.254
82727W        W53327  17.988  12.709   0.433
82728W        W53328  23.130  20.782   1.091
82729W        W53329   8.309  18.783   2.751
82730W        W53330  31.153  30.399   5.012
82731W        W53331  36.649  36.458   1.374
82732W        W53332  36.979  44.028   0.048
82733W        W53333  34.629   8.725  13.942
82734W        W53334   5.646  42.502   1.186
82735W        W53335  32.836  16.422   1.316
82736W        W53336  18.205  33.707  12.305
82737W        W53337   1.475  43.672   2.156
82738W        W53338  11.282  18.715  11.994
82739W        W53339  17.456  29.869  12.382
82740W        W53340  16.847  41.034  13.957
82741W        W53341  34.104  30.584   2.304
82742W        W53342  34.129  24.036  12.620
82743W        W53343  42.086   9.111  11.217
82744W        W53344  13.250   3.267  10.179
82745W        W53345  18.313  44.392   3.583
82746W        W53346  20.779  25.599  11.600
82747W        W53347  13.285  30.355   2.142
82748W        W53348  13.642  18.197   0.505
82749W        W53349  35.308   7.211  14.751
82750W        W53350  16.707  41.883   3.599
82751W        W53351  19.477   4.956   1.789
82752W        W53352  17.374  21.128   4.021
82753W        W53353   8.687  15.070  10.760
82754W        W53354  13.514  43.840   3.121
82755W        W53355   5.964  34.715   4.771
82756W        W53356  19.407  44.330  14.506
82757W        W53357  23.978   7.140  10.727
82758W        W53358  20.997  34.949   0.320
82759W        W53359   7.023  20.411   0.281
82760W        W53360   7.218  40.247   3.640
82761W        W53361  30.771  36.904  14.310
82762W        W53362  22.221  44.322   0.328
82763W        W53363   1.806  37.371  13.539
82764W        W53364  38.422  42.752  12.415
82765W        W53365  25.232  39.674   0.734
82766W        W53366   3.821  12.125  13.928
82767W        W53367  30.205  34.338  11.329
82768W        W53368  36.371  16.332   0.814
82769W        W53369  10.051  32.389   0.397
82770W        W53370  38.061   2.872   1.205
82771W        W53371   9.301  30.741   0.946
82772W        W53372  28.044  26.054   2.810
82773W        W53373  25.946  23.255   4.044
82774W        W53374  41.609  23.762  11.656
82775W        W53375  22.465  18.809   1.609
82776W        W53376  40.284  31.715  14.898
82777W        W53377  19.227   4.511   1.748
82778W        W53378   5.058  27.598   1.782
82779W        W53379  25.175  25.551   0.421
82780W        W53380  38.496  23.465   3.632
82781W        W53381  23.638  22.624   1.679
82782W        W53382  22.896  16.636   4.841
82783W        W53383  16.316  26.573   2.625
82784W        W53384  40.206  15.748  13.770
82785W        W53385  42.007  37.343   2.713
82786W        W53386  32.608  39.970  12.940
82787W        W53387  37.933  28.001  14.486
82788W        W53388  18.701   9.673  12.884
82789W        W53389  41.035  16.286   0.829
82790W        W53390   9.169  19.294  14.666
82791W        W53391  38.709  15.867  13.426
82792W        W53392  32.707  41.764  10.957
82793W        W53393  24.614   9.733   4.597
82794W        W53394  41.236  20.595   3.298
82795W        W53395  22.149   0.834   3.397
82796W        W53396  28.457  44.937  14.841
82797W        W53397  31.902  30.454  10.712
82798W        W53398  44.048  41.407   0.824
82799W        W53399   6.508  18.116   4.119
82800W        W53400  12.197  27.953   2.361
82801W        W53401   5.340  13.621   3.978
82802W        W53402  38.014  39.011   1.396
82803W        W53403  12.922  33.453  14.834
82804W        W53404  28.488   4.012  12.170
82805W        W53405  30.656  13.131  11.556
82806W        W53406  31.196  10.421   3.650
82807W        W53407  15.105  27.005  14.911
82808W        W53408  34.877  15.574  10.716
82809W        W53409  32.557  37.972  10.829
82810W        W53410  24.767   0.824  13.452
82811W        W53411  13.545  23.086  11.472
82812W        W53412  25.721  42.792  11.555
82813W        W53413  11.250  16.114  11.923
82814W        W53414  33.503  15.676   0.270
82815W        W53415  28.161  16.821  13.300
82816W        W53416  23.193  37.992   0.690
82817W        W53417  33.552  14.539  10.295
82818W        W53418  26.695  36.686  11.143
82819W        W53419  26.012  28.578  13.707
82820W        W53420  16.278   7.822  11.640
82821W        W53421  39.745  13.024  11.408
82822W        W53422  19.311  27.019  14.410
82823W        W53423  10.523   0.725  14.269
82824W        W53424  38.930  36.298  13.689
82825W        W53425  33.493  37.516   0.533
82826W        W53426  26.479  32.364  11.952
82827W        W53427  15.239  12.841   0.280
82828W        W53428   8.064   4.899   1.493
82829W        W53429  11.966  11.316  12.537
82830W        W53430  35.367  25.754  11.667
82831W        W53431  37.602  16.641   0.803
82832W        W53432  35.802  36.433   3.619
82833W        W53433  17.727  14.715   3.566
82834W        W53434  42.525  32.547   0.563
82835W        W53435  14.196  12.726  12.124
82836W        W53436  16.037  26.164   3.523
82837W        W53437  13.705   8.283   1.482
82838W        W53438  42.429  23.891   0.768
82839W        W53439  28.055  28.510   3.025
82840W        W53440   0.901  12.571   2.420
82841W        W53441  17.539  22.485   4.187
82842W        W53442  26.097  33.334   1.701
82843W        W53443   6.194  10.373   4.027
82844W        W53444   5.982  38.269  11.156
82845W        W53445   5.936   2.637  12.895
82846W        W53446  28.421   6.369   2.345
82847W        W53447  12.845  24.719   3.615
82848W        W53448  28.168  15.046  12.203
82849W        W53449  43.409  28.171   2.755
82850W        W53450  17.969   9.697  14.524
82851W        W53451  40.415   8.227  13.376
82852W        W53452   4.444  12.272   0.261
82853W        W53453  18.153  21.444   4.432
82854W        W53454  20.000  35.020  13.330
82855W        W53455  31.934  10.158   4.022
82856W        W53456  35.584  25.691  14.712
82857W        W53457   1.458  12.599  13.231
82858W        W53458  40.096  24.467  10.980
82859W        W53459  28.559  38.374  11.770
82860W        W53460  22.802  34.414   0.284
82861W        W53461   5.265   0.910   0.467
82862W        W53462  23.742   3.989   3.872
82863W        W53463  37.951  24.528   4.522
82864W        W53464  17.556  29.754  14.756
82865W        W53465   7.328  22.069   2.171
82866W        W53466  40.398   8.031   1.124
82867W        W53467  37.531  21.017  12.124
82868W        W53468  24.967  12.269  14.814
82869W        W53469  25.763  21.087  12.038
82870W        W53470   0.540  14.838  10.774
82871W        W53471  21.933  41.052   3.551
82872W        W53472  19.919  15.677   2.164
82873W        W53473   7.137  25.676   2.886
82874W        W53474  30.623  34.460  10.754
82875W        W53475  27.028  17.126  13.843
82876W        W53476  24.725  31.478   2.918
82877W        W53477  33.964  44.449   1.434
82878W        W53478  24.088   3.204   0.176
82879W        W53479   0.125  37.062   1.226
82880W        W53480   6.193   3.948  11.034
82881W        W53481  21.666  17.586  11.498
82882W        W53482  20.041  25.983  11.425
82883W        W53483  26.584  17.323  12.484
82884W        W53484   2.348  42.057   0.578
82885W        W53485  20.579  19.261  14.726
82886W        W53486  34.049  25.964   1.405
82887W        W53487  23.812  17.808   0.307
82888W        W53488  44.272  27.168   1.296
82889W        W53489  32.628  10.768   3.596
82890W        W53490  24.046  41.422   3.383
82891W        W53491  42.624  22.728   0.343
82892W        W53492   1.737  11.567  10.826
82893W        W53493  25.207  12.967   2.076
82894W        W53494  38.031  26.535  10.162
82895W        W53495   5.411  37.028   1.380
82896W        W53496  41.269  28.914  14.991
82897W        W53497   6.251  13.801  14.313
82898W        W53498  19.343  30.894   0.325
82899W        W53499  29.925  17.854   2.219
82900W        W53500  14.247  10.813   0.189
82901W        W53501  27.613  25.796   0.269
82902W        W53502  24.967  24.472  10.708
82903W        W53503  43.482  40.613   3.266
82904W        W53504  22.528  25.478   2.725
82905W        W53505  32.346   9.295  11.625
82906W        W53506  43.543  30.374   2.845
82907W        W53507  43.540  34.883  12.033
82908W        W53508  41.415  11.021   4.873
82909W        W53509  43.108  14.137   3.309
82910W        W53510  43.650  24.964  13.477
82911W        W53511  29.195  28.053   4.107
82912W        W53512  25.895  17.604  13.493
82913W        W53513  19.530   7.705  14.045
82914W        W53514  33.681  13.677   0.889
82915W        W53515  10.241   2.709   3.198
82916W        W53516  37.791  13.337  11.679
82917W        W53517  28.056   8.418  12.172
82918W        W53518   6.630  22.659  10.882
82919W        W53519   3.308  30.500   1.646
82920W        W53520   4.989  16.620  13.504
82921W        W53521  36.521  11.188  11.645
82922W        W53522   5.186  36.902   1.832
82923W        W53523  20.053  40.739   0.301
82924W        W53524  44.765   8.228   4.848
82925W        W53525  23.926  38.293  10.828
82926W        W53526   7.167   5.613  12.633
82927W        W53527  28.390  19.556   2.310
82928W        W53528  29.911  26.522  14.390
82929W        W53529  10.281  10.673  11.686
82930W        W53530   4.626  25.108  12.583
82931W        W53531   9.763   5.202  12.129
82932W        W53532  10.250   3.739  11.220
82933W        W53533  41.097   3.916   2.244
82934W        W53534  37.857  13.199  13.495
82935W        W53535  29.094  20.598   2.673
82936W        W53536   7.404  19.209  12.153
82937W        W53537  25.316   5.466   0.714
82938W        W53538  33.049  32.848   4.029
82939W        W53539  12.003   4.803  13.832
82940W        W53540   8.462  17.162   1.172
82941W        W53541   9.386  44.662  13.903
82942W        W53542  40.292   9.776   1.871
82943W        W53543   6.636  22.940  12.101
82944W        W53544  29.252   0.942   0.484
82945W        W53545  19.829  12.761  10.690
82946W        W53546  41.577  32.631  14.478
82947W        W53547  33.445  37.236  14.633
82948W        W53548  25.702  39.233   4.892
82949W        W53549  29.051  43.840   4.940
82950W        W53550  15.590   0.871  13.086
82951W        W53551  12.390   3.985   3.318
82952W        W53552  32.508  20.654  14.104
82953W        W53553  33.766  35.185   3.581
82954W        W53554  38.478  37.422  13.069
82955W        W53555   7.623  29.049   1.790
82956W        W53556  44.363  10.909  10.805
82957W        W53557   1.327  24.585   3.432
82958W        W53558  19.178  38.679   1.867
82959W        W53559  25.271  25.171   1.275
82960W        W53560   4.850  23.741  10.725
82961W        W53561  33.581  10.796   3.139
82962W        W53562  25.117  13.343   1.244
82963W        W53563  14.610  31.118   0.892
82964W        W53564  19.156  12.272   1.320
82965W        W53565  15.297  24.096   4.079
82966W        W53566  32.076  36.741   1.197
82967W        W53567  24.770   9.293   3.680
82968W        W53568   7.087   3.931  14.353
82969W        W53569  27.552  15.443  14.297
82970W        W53570  40.213  15.668  11.181
82971W        W53571   3.866   5.672  11.853
82972W        W53572   4.717  42.864  13.089
82973W        W53573  27.137   8.730  10.533
82974W        W53574  15.995  34.910   1.357
82975W        W53575  35.640  16.564  12.062
82976W        W53576  17.859  15.979   0.135
82977W        W53577  24.037   4.974   3.061
82978W        W53578  42.345   0.815   1.248
82979W        W53579  41.768  31.804  14.306
82980W        W53580  41.078  32.635   3.670
82981W        W53581   9.035   5.870  12.149
82982W        W53582   6.175   0.289  14.053
82983W        W53583  16.975   0.233  13.902
82984W        W53584  23.572   2.964  10.323
82985W        W53585  43.727   7.617   4.161
82986W        W53586  44.657  12.587   3.877
82987W        W53587  26.909   9.454  10.994
82988W        W53588   3.770  10.894  11.455
82989W        W53589  12.971  22.683  12.099
82990W        W53590  12.062   8.408  11.126
82991W        W53591  27.135  18.778   3.183
82992W        W53592  41.697  39.710  10.859
82993W        W53593  16.275  34.061  14.848
82994W        W53594  14.233   8.340   2.328
82995W        W53595   9.620  40.143  10.803
82996W        W53596  14.281  18.210   4.135
82997W        W53597  39.684  12.112   0.367
82998W        W53598  31.527  35.112  11.164
82999W        W53599  41.335   5.159   1.764
83000W        W53600  14.200   1.715   1.721
83001W        W53601   9.347   1.572  13.566
83002W        W53602  17.703   2.197  14.819
83003W        W53603   0.437  10.276   1.666
83004W        W53604   6.095  43.905   1.862
83005W        W53605  18.135   5.324  13.469
83006W        W53606  29.640  27.741   2.448
83007W        W53607   3.890  14.086   0.544
83008W        W53608  40.804  33.281  11.197
83009W        W53609  29.488  15.350  11.104
83010W        W53610  14.415   4.836   2.301
83011W        W53611   5.331   8.608   2.347
83012W        W53612  18.447  29.256  10.623
83013W        W53613   2.232  41.750  11.202
83014W        W53614  22.758  27.474   4.252
83015W        W53615  37.674  21.166   2.085
83016W        W53616   0.036  28.587   1.809
83017W        W53617  36.161  43.147  10.390
83018W        W53618  31.312  19.745   4.932
83019W        W53619   2.968  38.555  13.708
83020W        W53620  14.533  27.397   2.315
83021W        W53621   6.557  37.397  12.420
83022W        W53622  36.398  11.670  12.925
83023W        W53623   7.781  24.157   0.317
83024W        W53624  38.572   1.398   3.765
83025W        W53625  10.548  11.257   2.710
83026W        W53626  24.200  25.779  12.439
83027W        W53627   7.311  35.541  13.600
83028W        W53628   1.360  28.343   2.864
83029W        W53629  22.547  24.010   0.971
83030W        W53630  10.027  44.994   4.236
83031W        W53631  35.943   4.925   2.178
83032W        W53632  14.487  20.173   2.288
83033W        W53633   1.394  41.021  10.734
83034W        W53634  11.401  25.990   3.723
83035W        W53635  18.648  36.134  14.509
83036W        W53636  39.819  43.837  12.591
83037W        W53637  19.271  28.965   4.291
83038W        W53638  24.838  34.413  14.582
83039W        W53639  39.833  41.499   3.198
83040W        W53640  10.166  37.900   1.131
83041W        W53641   3.482   4.261  14.841
83042W        W53642   9.931   9.280   2.607
83043W        W53643  15.217  21.540   4.312
83044W        W53644   9.894   5.555  14.882
83045W        W53645  35.665  39.419  13.465
83046W        W53646  37.176  22.652  13.933
83047W        W53647  40.395  18.362   1.191
83048W        W53648  43.767   6.305  12.363
83049W        W53649  16.037  25.944   4.012
83050W        W53650   3.772  15.528   1.770
83051W        W53651  41.287  20.975  11.550
83052W        W53652  32.506  21.267   1.403
83053W        W53653   7.470  42.867  14.754
83054W        W53654   9.849   6.841  12.930
83055W        W53655  42.601  15.018   1.684
83056W        W53656  42.569  14.165   4.199
83057W        W53657  31.911  29.518   2.214
83058W        W53658  40.727  19.709   1.579
83059W        W53659  20.300  18.286   1.671
83060W        W53660  13.130  39.091   3.288
83061W        W53661   0.660  12.845   3.729
83062W        W53662   8.648  15.259  14.459
83063W        W53663   6.883  30.408   4.841
83064W        W53664  35.411  42.428   1.175
83065W        W53665  13.637  10.318   1.587
83066W        W53666  22.537  19.664  10.724
83067W        W53667  21.048   2.245  10.884
83068W        W53668  41.461  18.663  12.272
83069W        W53669  18.982  24.614  10.465
83070W        W53670  37.093   1.950   3.776
83071W        W53671  43.010  16.515   3.217
83072W        W53672   5.451  13.753  11.941
83073W        W53673   7.878  21.018   0.016
83074W        W53674  42.478   4.695  13.393
83075W        W53675   4.200  42.828   2.768
83076W        W53676  29.095  19.257   2.385
83077W        W53677  17.214  10.911  10.954
83078W        W53678  43.922  40.095   4.206
83079W        W53679  19.379  33.817  11.150
83080W        W53680  33.345  34.478   0.016
83081W        W53681   4.770  31.158  12.602
83082W        W53682  33.866   2.741   3.314
83083W        W53683  39.795  27.141   4.591
83084W        W53684  27.093  15.406  13.763
83085W        W53685  40.502  25.498  12.534
83086W        W53686  28.530  35.832   3.714
83087W        W53687  10.211  35.539  12.906
83088W        W53688   4.168  31.555  13.984
83089W        W53689  37.885  14.848  11.760
83090W        W53690  29.009  20.146   0.691
83091W        W53691  26.099  15.831  12.447
83092W        W53692  16.169  18.269  13.318
83093W        W53693   8.345   0.408   3.383
83094W        W53694  26.501   3.481  10.174
83095W        W53695  32.647  24.145   1.761
83096W        W53696  24.344  36.426   4.204
83097W        W53697  25.608  26.960   2.195
83098W        W53698  35.838  10.206   1.769
83099W        W53699  34.420   9.271   3.915
83100W        W53700  11.302  44.938  14.041
83101W        W53701   3.697   3.529   3.341
83102W        W53702  37.000   1.460   0.538
83103W        W53703   0.489  21.940  10.881
83104W        W53704  33.193   0.447   1.029
83105W        W53705   9.397  31.563  11.231
83106W        W53706  11.702   9.678  11.939
83107W        W53707  19.526   1.793  14.317
83108W        W53708  33.269   6.322  12.084
83109W        W53709  25.545   0.213  13.848
83110W        W53710   3.440  36.114  12.059
83111W        W53711  19.252   1.148   3.600
83112W        W53712  16.655  29.794   5.169
83113W        W53713  26.376  32.076   5.406
83114W        W53714  23.925  41.395  11.848
83115W        W53715  34.392   9.890  14.430
83116W        W53716  31.040  10.654  10.577
83117W        W53717  29.955   7.914  11.828
83118W        W53718   3.433  26.596   0.355
83119W        W53719  30.676  43.976  13.904
83120W        W53720  35.793  33.432  10.988
83121W        W53721   1.247   1.764   4.603
83122W        W53722  38.052  41.017  10.859
83123W        W53723  25.337   5.208  11.182
83124W        W53724   1.712  21.173   2.678
83125W        W53725  11.862  11.842   1.242
83126W        W53726  21.642  40.033   0.411
83127W        W53727  36.150   1.316  12.065
83128W        W53728  18.999  43.393  12.027
83129W        W53729  29.749  14.032  14.314
83130W        W53730  17.633   2.974   0.402
83131W        W53731   9.637  21.192   4.627
83132W        W53732   6.784  27.970  10.658
83133W        W53733   5.406  12.031  14.487
83134W        W53734   2.917   8.125   3.280
83135W        W53735  36.084  21.958  12.696
83136W        W53736  43.332  37.168   2.827
83137W        W53737  37.887   7.640   2.737
83138W        W53738  35.546  25.521  10.724
83139W        W53739   5.613   1.394   4.595
83140W        W53740  11.806   0.297  14.210
83141W        W53741  42.050  11.833   3.088
83142W        W53742  39.855   8.900   4.096
83143W        W53743  23.234   5.807  12.936
83144W        W53744   8.678  12.931  13.895
83145W        W53745  31.897  36.406   4.113
83146W        W53746   9.353  15.017   4.574
83147W        W53747  38.319   3.409   3.998
83148W        W53748  28.178  34.210  14.380
83149W        W53749  26.109   9.993  14.025
83150W        W53750  10.664  43.810  11.044
83151W        W53751  15.647  19.717   1.678
83152W        W53752  18.165  15.125  11.416
83153W        W53753  44.407  22.305  11.414
83154W        W53754  24.041   2.194   4.167
83155W        W53755  31.389  41.850  11.436
83156W        W53756  15.540  16.177  10.638
83157W        W53757  32.604   8.961   2.644
83158W        W53758  37.854   1.326  14.572
83159W        W53759  44.233  25.556   1.841
83160W        W53760  33.668  38.947   4.016
83161W        W53761  13.141  36.682   4.083
83162W        W53762  14.907  20.771   1.617
83163W        W53763  35.317  44.228  14.295
83164W        W53764  40.958  36.138   3.865
83165W        W53765   5.746   1.971  13.373
83166W        W53766  34.665  44.408   0.744
83167W        W53767   4.259  30.149   2.767
83168W        W53768  24.941  10.309   2.033
83169W        W53769  12.554  34.875   4.146
83170W        W53770  24.693  26.171   4.552
83171W        W53771  23.214  37.966  12.986
83172W        W53772  27.466  23.991   3.278
83173W        W53773   1.270  23.503   4.116
83174W        W53774  29.332  35.309   3.403
83175W        W53775  21.527  11.877  12.440
83176W        W53776  22.952  34.339  11.195
83177W        W53777  27.701  27.313  10.841
83178W        W53778  43.034   3.271   4.846
83179W        W53779  39.856  20.248   3.776
83180W        W53780   7.862   7.791  10.398
83181W        W53781   6.673  24.209  14.788
83182W        W53782  34.165  34.016  14.830
83183W        W53783  23.607  35.207   2.047
83184W        W53784  27.515  20.219  14.997
83185W        W53785  37.510  38.948  11.494
83186W        W53786   8.189  23.299   2.496
83187W        W53787  33.311  39.530   4.177
83188W        W53788  36.813  25.043   1.420
83189W        W53789  44.847  39.891  14.899
83190W        W53790  40.449   6.682   4.319
83191W        W53791  27.040  10.838  12.815
83192W        W53792  34.775  40.083   0.010
83193W        W53793  28.525  41.786   1.474
83194W        W53794  25.180   0.547  10.062
83195W        W53795  14.518   4.715   3.776
83196W        W53796  19.191  13.109   3.104
83197W        W53797   3.790  12.107   4.927
83198W        W53798  42.495  23.806  14.836
83199W        W53799   8.361  43.923  11.679
83200W        W53800  26.090  44.247   0.192
83201W        W53801  19.378  25.262  11.177
83202W        W53802   4.496  16.157   4.477
83203W        W53803   1.930   4.843  10.480
83204W        W53804   9.651   8.486  14.952
83205W        W53805  21.667  17.371   4.383
83206W        W53806  11.217  40.517  11.695
83207W        W53807  14.904   3.347  12.014
83208W        W53808  16.463  41.815   4.027
83209W        W53809   8.631  19.450   0.522
83210W        W53810  16.776  21.300  13.941
83211W        W53811  34.560  44.356   1.676
83212W        W53812  38.920  19.688   3.630
83213W        W53813   0.938  30.379  11.051
83214W        W53814  36.362  18.511  12.958
83215W        W53815   4.785  25.854   3.180
83216W        W53816  42.806  15.597  11.448
83217W        W53817  19.288  43.524  13.301
83218W        W53818  19.327  41.252   2.849
83219W        W53819  43.550  22.565   0.409
83220W        W53820  40.367  13.322  14.565
83221W        W53821  14.578  41.536   3.678
83222W        W53822  32.830  14.397  14.248
83223W        W53823  37.439  22.069   0.680
83224W        W53824  39.454  26.165   1.494
83225W        W53825  40.155  25.193   3.820
83226W        W53826  25.961  35.565   3.270
83227W        W53827  39.373  19.296   0.028
83228W        W53828   1.208   0.820   4.755
83229W        W53829  39.610  36.242  11.167
83230W        W53830  37.014   6.338  13.012
83231W        W53831  24.750  16.775   0.858
83232W        W53832  41.869  43.566  11.491
83233W        W53833  43.430  18.366   5.094
83234W        W53834   7.928  21.756   3.748
83235W        W53835  20.562   2.192   4.468
83236W        W53836  30.579  16.525  13.052
83237W        W53837   8.661  21.026   1.380
83238W        W53838  24.073  20.799  12.509
83239W        W53839  20.415  20.842  12.446
83240W        W53840  40.505  26.031  12.225
83241W        W53841  33.494  35.583   3.895
83242W        W53842   3.033  23.720  12.053
83243W        W53843  42.354  20.042  10.720
83244W        W53844  12.545  37.577  13.801
83245W        W53845  36.513   8.230   3.148
83246W        W53846  34.873  17.568  13.385
83247W        W53847  26.185  18.232   1.896
83248W        W53848   3.234  16.544   1.824
83249W        W53849   8.472  30.541   1.789
83250W        W53850  19.651   2.721   2.051
83251W        W53851  30.107  41.133  12.968
83252W        W53852  21.656  21.940  14.293
83253W        W53853   0.850  21.097   0.794
83254W        W53854  29.607  31.079  13.779
83255W        W53855   6.573  36.325   3.997
83256W        W53856  13.897  14.945   4.028
83257W        W53857  23.528  43.422   4.298
83258W        W53858  19.126  34.479   0.413
83259W        W53859  29.419  28.120   1.294
83260W        W53860  10.393  41.954  11.349
83261W        W53861   6.046   3.857   0.611
83262W        W53862  37.604  30.363  12.786
83263W        W53863  14.315  25.558  12.057
83264W        W53864  28.736  23.048  14.430
83265W        W53865   6.778  29.864  14.334
83266W        W53866  38.508  26.383  12.938
83267W        W53867  12.496  12.861   2.449
83268W        W53868   0.833   1.808   0.834
83269W        W53869  12.379   0.071   4.461
83270W        W53870  38.302  30.641   2.774
83271W        W53871  34.834  34.998   0.805
83272W        W53872  25.190  20.074   0.492
83273W        W53873   0.723   2.289  12.402
83274W        W53874  29.544  38.359  11.907
83275W        W53875  27.879  39.960  12.888
83276W        W53876  25.513  36.173  14.329
83277W        W53877   7.382  25.838  12.880
83278W        W53878   4.514  28.221   0.534
83279W        W53879  29.078   3.700  14.597
83280W        W53880  25.771  10.053   1.280
83281W        W53881  18.757  32.612   4.102
83282W        W53882  18.255  24.584  14.735
83283W        W53883  22.439  22.645   5.343
83284W        W53884  15.625  15.536  12.857
83285W        W53885  17.784  42.373  11.011
83286W        W53886   7.067  28.196   3.226
83287W        W53887  27.166  16.587  11.609
83288W        W53888   2.737  20.523  11.437
83289W        W53889  34.450  16.195   2.590
83290W        W53890   6.983  14.135   3.374
83291W        W53891  30.406   5.202   4.251
83292W        W53892  41.380   2.263  14.424
83293W        W53893  41.384  43.400  11.645
83294W        W53894  31.482  32.455  12.944
83295W        W53895  42.101  31.049  12.904
83296W        W53896   4.648  11.160   4.596
83297W        W53897  26.237  21.302   3.310
83298W        W53898  21.790  12.268   1.385
83299W        W53899  36.064  27.498  14.977
83300W        W53900  38.436  37.288   4.228
83301W        W53901  39.717  17.102   2.864
83302W        W53902  44.573  41.486  11.510
83303W        W53903  30.325  31.945  12.456
83304W        W53904   8.283  31.013  13.766
83305W        W53905  41.262  37.387  13.333
83306W        W53906   8.039  23.335  11.534
83307W        W53907  44.471   3.736  11.706
83308W        W53908   9.823  14.573  10.776
83309W        W53909  28.126  15.661   1.875
83310W        W53910  40.658  14.994  12.134
83311W        W53911  43.347  34.298  10.192
83312W        W53912  29.059  20.766  13.421
83313W        W53913  33.910  38.936  10.564
83314W        W53914  39.296  25.660  14.863
83315W        W53915  15.013  18.498   1.936
83316W        W53916  27.190  41.776  14.865
83317W        W53917  26.559  16.927   4.683
83318W        W53918  24.778   9.626  10.529
83319W        W53919   8.931  31.986  13.091
83320W        W53920   0.826  32.924   1.427
83321W        W53921   3.938  33.979  12.468
83322W        W53922  20.516  14.057   1.727
83323W        W53923  19.597  11.596   3.805
83324W        W53924  25.468   9.546  13.030
83325W        W53925  27.000   4.177  11.820
83326W        W53926  43.241  12.610   4.273
83327W        W53927  30.676  35.958   0.846
83328W        W53928  36.160  42.350   3.374
83329W        W53929   9.786  25.697  11.090
83330W        W53930  30.049   1.457  11.545
83331W        W53931  27.161  20.146   0.749
83332W        W53932   6.543  25.256  12.445
83333W        W53933   5.453  27.168  14.772
83334W        W53934   8.705  19.248   2.761
83335W        W53935   6.901  19.349  13.492
83336W        W53936   5.923  11.381   0.843
83337W        W53937   7.975  14.110  13.933
83338W        W53938  38.156  22.008   0.032
83339W        W53939  36.911  27.548   3.056
83340W        W53940  30.477   7.095   4.687
83341W        W53941  44.267  11.266  12.836
83342W        W53942  20.361  22.423  11.102
83343W        W53943  16.178   0.207  11.241
83344W        W53944  30.495  13.660   0.919
83345W        W53945  39.352  43.363  11.614
83346W        W53946  17.870  29.036   4.538
83347W        W53947  34.551  28.555  10.488
83348W        W53948  35.222  29.365  10.442
83349W        W53949  14.742   2.270  11.474
83350W        W53950  29.022  29.108  10.714
83351W        W53951  39.109   1.857   0.768
83352W        W53952  33.157  36.522  11.889
83353W        W53953  32.993  11.261  13.561
83354W        W53954   0.760  13.623   0.036
83355W        W53955   8.726  24.405   3.806
83356W        W53956  41.817  32.941   3.082
83357W        W53957   8.939  26.710  11.492
83358W        W53958  27.021   3.906   2.960
83359W        W53959  10.910  16.773  10.563
83360W        W53960  16.209  11.274  11.116
83361W        W53961   3.675   9.828  14.374
83362W        W53962  12.907  20.997  14.970
83363W        W53963  29.623  25.453   3.356
83364W        W53964  40.969  14.565  12.838
83365W        W53965  20.334  43.266   1.298
83366W        W53966   6.940  39.886  12.125
83367W        W53967   2.365  30.486   0.163
83368W        W53968  44.438   5.832  13.387
83369W        W53969   4.281   6.374  11.347
83370W        W53970  44.464  25.501   3.675
83371W        W53971  37.943  26.127  14.804
83372W        W53972  44.824  12.220   0.375
83373W        W53973  32.076   2.890   3.260
83374W        W53974   1.259  21.674  12.002
83375W        W53975   1.737   2.581   1.190
83376W        W53976  37.895   7.871   1.270
83377W        W53977  43.989  14.667  14.724
83378W        W53978   9.308   5.498   0.756
83379W        W53979  24.632   1.006   1.242
83380W        W53980   2.437  32.455   1.488
83381W        W53981   4.261  22.593  10.667
83382W        W53982  29.102  33.041  12.603
83383W        W53983  30.030   3.460  11.438
83384W        W53984  41.096  44.940   3.191
83385W        W53985  24.467  34.511   4.448
83386W        W53986  20.280  34.114   3.173
83387W        W53987   6.710  24.488  12.068
83388W        W53988  21.186   2.659  12.589
83389W        W53989   8.896  40.857  11.216
83390W        W53990  36.086  42.967   4.515
83391W        W53991  15.753   3.696  12.016
83392W        W53992  14.055  21.785  11.095
83393W        W53993  10.698  16.099   3.104
83394W        W53994   4.350   1.386   3.544
83395W        W53995   3.132  27.548   0.370
83396W        W53996  40.567   7.795   1.878
83397W        W53997  40.086  20.126   0.848
83398W        W53998  35.027  34.939   0.288
83399W        W53999  21.244  20.787   1.916
83400W        W54000  17.243  28.659   3.519
83401W        W54001  27.195   8.889  13.224
83402W        W54002  19.658  40.573   5.083
83403W        W54003  30.499   6.945  11.077
83404W        W54004  37.165  44.964  11.258
83405W        W54005  41.234  12.581   2.932
83406W        W54006  28.399  27.902  13.728
83407W        W54007  12.556  17.847  14.461
83408W        W54008   3.000   7.349  12.583
83409W        W54009  19.063   7.865  12.933
83410W        W54010  20.131  13.979  12.529
83411W        W54011  35.302  31.641  12.512
83412W        W54012   5.926  11.252  14.447
83413W        W54013  28.513  15.601  14.817
83414W        W54014  24.794  40.885  14.630
83415W        W54015  41.850   8.795   1.087
83416W        W54016  10.853  24.768   3.382
83417W        W54017  16.539   8.949  14.871
83418W        W54018  18.094   3.488  14.832
83419W        W54019  24.236  31.875   5.072
83420W        W54020   5.304   3.145   4.215
83421W        W54021   1.858  43.005  13.297
83422W        W54022  36.849  34.894   2.571
83423W        W54023   0.469  25.410  11.010
83424W        W54024   1.118  11.599   3.595
83425W        W54025  29.647   3.999   2.910
83426W        W54026  12.426  23.642  13.411
83427W        W54027  40.502  24.660   1.345
83428W        W54028   8.393  26.111   3.791
83429W        W54029  33.968  19.782   4.025
83430W        W54030  32.474   3.997   0.005
83431W        W54031  17.321  22.785  13.313
83432W        W54032   3.968  31.182  12.545
83433W        W54033   6.823  44.405  12.375
83434W        W54034  36.980  13.852  12.556
83435W        W54035   6.436  11.541   0.858
83436W        W54036  20.565  38.499   0.960
83437W        W54037  29.004  25.190  10.783
83438W        W54038  16.072  20.816  10.699
83439W        W54039   3.748  37.895  10.627
83440W        W54040  31.676  17.845  11.197
83441W        W54041  23.125  25.270  13.381
83442W        W54042  33.641  29.890   3.716
83443W        W54043  33.271  29.399   1.086
83444W        W54044   1.276  22.136   0.030
83445W        W54045  16.727  17.246  12.626
83446W        W54046  40.300  17.955   4.437
83447W        W54047  24.474   4.580  12.046
83448W        W54048  40.762   4.831   1.658
83449W        W54049  37.953  27.905  13.568
83450W        W54050  23.663   3.251   4.358
83451W        W54051  31.085   6.398   3.695
83452W        W54052  42.595   8.428   1.363
83453W        W54053  44.125   4.312   1.099
83454W        W54054  36.621  21.155  11.840
83455W        W54055   5.125  28.925  14.261
83456W        W54056  36.437  34.339   3.318
83457W        W54057  36.152  23.695  12.889
83458W        W54058   1.814  27.694   4.216
83459W        W54059  37.529  16.493   4.456
83460W        W54060  15.944  25.067   4.465
83461W        W54061  12.766  11.398   3.307
83462W        W54062  34.304   2.526   1.322
83463W        W54063   1.708  29.107  12.609
83464W        W54064   7.623  27.170   0.894
83465W        W54065  36.334  40.959   3.472
83466W        W54066  40.823  37.164   0.914
83467W        W54067  41.932  22.480   0.010
83468W        W54068  10.847  27.089   3.249
83469W        W54069  10.224  25.028   0.269
83470W        W54070   4.943  44.799   3.254
83471W        W54071   5.202  39.980   1.333
83472W        W54072  29.642  43.469   4.780
83473W        W54073  20.307  29.565   3.641
83474W        W54074  33.898  31.658  14.397
83475W        W54075  15.599  24.674   4.649
83476W        W54076   5.103  32.449  12.063
83477W        W54077  11.574  31.586   0.575
83478W        W54078  29.307  36.452  11.831
83479W        W54079  35.618   8.822   0.788
83480W        W54080  16.108  12.640   1.728
83481W        W54081  15.816  12.011  12.444
83482W        W54082  21.946  31.960   4.878
83483W        W54083  34.528   3.870   2.091
83484W        W54084  29.496  13.943  10.757
83485W        W54085  42.422  30.511   1.351
83486W        W54086  15.400  20.888   1.441
83487W        W54087  19.314  27.741  12.517
83488W        W54088   8.485   8.464   0.764
83489W        W54089  31.508  16.487  11.428
83490W        W54090  41.766  18.656   2.298
83491W        W54091  13.565  31.922  14.647
83492W        W54092  36.617  38.373   3.262
83493W        W54093  32.652   3.728  10.461
83494W        W54094  36.938  20.228  14.060
83495W        W54095  23.423  36.597  11.159
83496W        W54096  23.866  27.508   0.501
83497W        W54097   4.488  12.942  14.491
83498W        W54098  17.354  22.709  11.463
83499W        W54099  27.350  24.490  14.524
83500W        W54100   1.365   0.829   1.335
83501W        W54101  29.057  29.164  11.209
83502W        W54102  13.306  21.272  12.856
83503W        W54103  37.296  22.206  13.045
83504W        W54104   5.840   3.015   2.253
83505W        W54105  22.505  18.600  10.640
83506W        W54106  38.822  41.760  13.303
83507W        W54107  17.632  38.073   0.928
83508W        W54108  33.115  28.941  13.001
83509W        W54109  21.070  25.833  11.200
83510W        W54110   7.229  38.576  12.801
83511W        W54111  21.295   1.609  14.733
83512W        W54112   1.063  31.067  12.751
83513W        W54113   3.909  22.131   2.210
83514W        W54114  13.738  30.896  14.465
83515W        W54115  29.959   0.354   3.834
83516W        W54116  23.624  10.328   0.281
83517W        W54117   1.370  17.996   1.236
83518W        W54118  13.808  29.950  13.833
83519W        W54119  23.620  30.126  11.141
83520W        W54120  12.693  41.872   1.270
83521W        W54121  14.251   0.042   4.587
83522W        W54122  43.321  43.075   3.578
83523W        W54123  41.554  39.853  12.437
83524W        W54124  24.802   1.426   1.491
83525W        W54125  15.179  18.128   1.596
83526W        W54126   6.325  34.819  14.914
83527W        W54127  38.666  38.429  13.889
83528W        W54128  23.150   6.495  14.412
83529W        W54129  28.600   7.883  13.348
83530W        W54130  34.666  14.130   0.267
83531W        W54131  29.265  40.888  12.539
83532W        W54132  15.069  22.434  12.552
83533W        W54133  41.702   6.416   3.180
83534W        W54134  41.392  23.690   0.302
83535W        W54135   1.786  41.858   0.022
83536W        W54136  12.569  36.721  12.575
83537W        W54137  27.961  43.536   0.239
83538W        W54138   6.310  28.131   4.174
83539W        W54139  16.095  39.251   0.243
83540W        W54140  34.669  12.180   4.086
83541W        W54141   4.400  28.019  12.856
83542W        W54142  18.099   0.559   1.646
83543W        W54143  12.608   8.348   3.599
83544W        W54144  34.398  11.776   4.323
83545W        W54145  28.977  36.038  11.835
83546W        W54146   2.836  40.878   0.893
83547W        W54147   9.050  12.999   2.629
83548W        W54148  10.992   5.779  11.123
83549W        W54149   9.779  24.118   1.333
83550W        W54150  29.665  30.203   0.828
83551W        W54151  41.522  27.666   1.424
83552W        W54152  19.603  16.994   3.176
83553W        W54153  30.250  18.245   4.767
83554W        W54154  17.007  25.472  14.887
83555W        W54155   1.704  26.606  14.673
83556W        W54156  38.285  33.727  13.751
83557W        W54157  27.570  15.394   3.135
83558W        W54158  13.180  14.202   2.026
83559W        W54159   8.145   5.351   0.382
83560W        W54160  35.293  22.672  13.375
83561W        W54161   3.673  13.016   1.279
83562W        W54162  35.841  24.930  13.166
83563W        W54163  15.029  32.632   2.658
83564W        W54164   9.673  18.284   3.208
83565W        W54165  32.107  25.921  11.640
83566W        W54166   3.355  11.585  14.482
83567W        W54167  20.646  28.743   1.220
83568W        W54168  37.846  17.615  10.419
83569W        W54169  20.834  43.545   2.840
83570W        W54170   7.235   5.339   3.635
83571W        W54171  41.940  18.088   3.718
83572W        W54172  11.292  11.778  11.431
83573W        W54173  31.676  20.504  13.081
83574W        W54174  40.423   3.420  12.105
83575W        W54175   8.610   5.800  14.777
83576W        W54176  28.022  39.422   4.764
83577W        W54177  33.373  21.460   1.930
83578W        W54178  14.747  39.560   4.179
83579W        W54179  25.592  18.674  11.798
83580W        W54180  19.134  20.704  12.014
83581W        W54181  15.992  24.140   4.861
83582W        W54182  20.785  14.658  11.634
83583W        W54183  17.116  29.696   4.947
83584W        W54184  17.103  15.413  11.268
83585W        W54185  30.549   8.169  13.440
83586W        W54186  11.716  16.512   2.225
83587W        W54187  20.459   0.958  13.299
83588W        W54188  19.841   1.722   3.104
83589W        W54189  19.630  10.322   3.900
83590W        W54190   0.981  24.226   0.762
83591W        W54191  16.362   3.187   2.790
83592W        W54192   5.601  26.592  11.435
83593W        W54193  37.620  18.509  10.280
83594W        W54194  43.309  27.231  11.551
83595W        W54195  37.488  13.319   5.069
83596W        W54196  19.102  37.897  12.884
83597W        W54197  24.944  15.152  10.650
83598W        W54198  21.676   6.119   2.759
83599W        W54199   0.848  10.294   3.296
83600W        W54200  17.657  17.596   3.087
83601W        W54201  13.246  14.999  14.029
83602W        W54202  41.869   6.400   1.845
83603W        W54203  23.663  40.251  13.493
83604W        W54204  11.082  27.938   0.408
83605W        W54205  28.970  30.861   2.699
83606W        W54206  21.526  14.838   2.325
83607W        W54207  27.660   4.229   2.008
83608W        W54208  21.547  32.078  12.180
83609W        W54209  37.043   6.252  12.504
83610W        W54210  13.618   1.823   0.415
83611W        W54211   0.063  18.189  11.998
83612W        W54212   9.367  27.807  12.231
83613W        W54213  43.468  14.314  11.837
83614W        W54214  28.604  29.968  12.973
83615W        W54215  44.485  15.179  12.558
83616W        W54216  36.603  40.407  14.979
83617W        W54217   7.862  13.829   3.678
83618W        W54218   0.352  12.775   4.501
83619W        W54219  17.369  28.713  13.925
83620W        W54220  30.444  16.043  12.939
83621W        W54221  32.126  43.018  11.978
83622W        W54222  22.679   1.272  11.985
83623W        W54223  43.338  32.197   3.291
83624W        W54224   5.512   4.569  10.689
83625W        W54225  36.066  14.213   2.227
83626W        W54226   1.104  11.258  12.716
83627W        W54227  41.743  38.056  12.869
83628W        W54228  41.374  40.817   2.822
83629W        W54229  33.378  42.864  13.600
83630W        W54230   0.160  31.068  13.370
83631W        W54231  37.950  28.971  11.476
83632W        W54232   6.038  15.339  13.357
83633W        W54233  20.338  24.004   2.891
83634W        W54234   9.250  28.718   2.535
83635W        W54235  44.323   9.234  11.480
83636W        W54236  10.760  41.576   5.146
83637W        W54237  12.813   2.264   4.103
83638W        W54238   1.034  22.668  13.383
83639W        W54239   9.618  25.549   4.242
83640W        W54240   2.262  23.391   1.738
83641W        W54241   0.564  10.167  10.441
83642W        W54242  22.592  38.956  11.732
83643W        W54243   6.947  26.757   1.212
83644W        W54244   0.446  25.663  13.452
83645W        W54245   0.423  42.718   3.808
83646W        W54246  14.277  11.437  14.353
83647W        W54247  39.824  14.825  14.045
83648W        W54248  31.983  33.139   0.754
83649W        W54249  13.532  28.394   1.973
83650W        W54250   3.766   7.639  13.737
83651W        W54251  40.988  39.496   2.066
83652W        W54252   6.813  36.569  14.942
83653W        W54253  44.129  18.540  14.800
83654W        W54254  20.795   9.918   0.223
83655W        W54255  28.813  41.494   4.606
83656W        W54256  11.428  42.023   3.397
83657W        W54257  32.075   8.716   1.812
83658W        W54258  22.519  27.940   4.170
83659W        W54259  19.135   8.384   0.999
83660W        W54260  14.175  39.993   0.248
83661W        W54261  14.234  27.598   1.940
83662W        W54262   4.848  43.247   3.277
83663W        W54263   8.117   3.121  13.052
83664W        W54264  43.415  13.414  13.491
83665W        W54265  18.715   0.369  13.375
83666W        W54266  24.201  28.561  14.127
83667W        W54267   3.359  25.545  13.429
83668W        W54268  26.037  42.096   2.705
83669W        W54269  34.266  22.482   3.978
83670W        W54270   0.193   0.105  13.543
83671W        W54271   2.246   1.533   4.080
83672W        W54272  12.473  35.116   0.529
83673W        W54273  41.867  26.905  13.440
83674W        W54274  19.341  29.915  14.420
83675W        W54275   4.289  17.289   4.621
83676W        W54276  31.967  24.632  13.631
83677W        W54277  43.816  14.477  14.284
83678W        W54278   8.747   8.801   4.263
83679W        W54279  34.485  18.826   4.962
83680W        W54280  41.526  29.520  14.787
83681W        W54281  17.534  10.880   1.471
83682W        W54282  21.539  37.124   3.330
83683W        W54283   0.866   0.482  12.980
83684W        W54284  24.491   0.280  14.828
83685W        W54285  35.160  29.733  11.245
83686W        W54286  20.987  33.470  10.748
83687W        W54287   1.813  14.654   2.723
83688W        W54288  22.039  24.439   0.391
83689W        W54289  44.371  17.798   3.087
83690W        W54290  25.999  37.089   1.576
83691W        W54291  39.052   9.597  14.986
83692W        W54292  32.538  41.944  11.935
83693W        W54293  41.252  30.390   4.313
83694W        W54294  44.764  32.340   1.420
83695W        W54295   3.370  20.711  14.613
83696W        W54296  16.343   8.640   0.643
83697W        W54297  32.845  13.914   3.667
83698W        W54298  29.649  15.263   2.331
83699W        W54299  37.495  15.320   2.798
83700W        W54300  18.170  42.318   0.486
83701W        W54301  21.325  25.035  13.514
83702W        W54302   7.856  21.810   4.659
83703W        W54303  36.418  41.095   3.946
83704W        W54304  37.356  15.366  10.641
83705W        W54305  27.004  17.200   4.672
83706W        W54306  42.861   3.261   2.852
83707W        W54307  27.152  24.540   0.007
83708W        W54308  21.981   4.456   3.688
83709W        W54309  39.359  11.115  12.965
83710W        W54310  38.957   6.453   1.752
83711W        W54311   0.098  19.472   5.012
83712W        W54312  43.211  15.950   2.331
83713W        W54313  16.238  32.875  13.374
83714W        W54314  10.074  31.546   2.882
83715W        W54315   3.397  27.129   3.808
83716W        W54316  21.499  27.106  13.137
83717W        W54317  25.420  40.586   3.715
83718W        W54318  18.104  21.614  12.675
83719W        W54319  10.316  38.751   2.269
83720W        W54320  18.466  27.206  12.106
83721W        W54321   7.266   0.299  10.657
83722W        W54322  24.218   9.589   2.081
83723W        W54323   7.235  42.318   3.081
83724W        W54324  33.604  25.223   0.837
83725W        W54325   2.193  14.738   1.381
83726W        W54326  32.356   1.963  11.469
83727W        W54327  31.413  31.309   1.365
83728W        W54328  25.598  30.894  11.565
83729W        W54329  22.764  31.163  14.776
83730W        W54330  20.745   6.304   4.276
83731W        W54331  29.471   5.153   4.236
83732W        W54332   3.751  41.333   0.397
83733W        W54333   3.317  39.428  11.630
83734W        W54334  23.623   4.790  13.504
83735W        W54335  40.027  23.458  14.902
83736W        W54336  44.308  28.876   0.936
83737W        W54337  14.637  11.466  12.927
83738W        W54338  25.623  19.322   3.633
83739W        W54339  11.637  43.027  10.225
83740W        W54340  18.219  18.657   0.837
83741W        W54341  28.838   3.236   3.078
83742W        W54342  37.292   8.836  12.925
83743W        W54343  26.973   8.310  13.487
83744W        W54344  35.975  26.596  13.930
83745W        W54345   7.153  36.683  12.461
83746W        W54346  33.893  10.222  14.827
83747W        W54347  34.890  31.961  13.011
83748W        W54348  38.207   3.221  11.611
83749W        W54349  21.798  34.986   1.478
83750W        W54350  16.121  29.051  11.197
83751W        W54351   9.446  34.541   0.286
83752W        W54352  30.604  31.862  11.973
83753W        W54353   8.277  17.748  12.584
83754W        W54354  42.107  25.175   4.270
83755W        W54355   0.307   1.732  13.589
83756W        W54356  13.076  24.105  14.921
83757W        W54357  23.048  26.420  13.864
83758W        W54358  14.422   1.423   0.502
83759W        W54359  23.745  29.013  11.066
83760W        W54360  40.795  23.485  12.007
83761W        W54361  28.280  13.482   5.087
83762W        W54362   7.829  37.968  12.962
83763W        W54363  23.903   0.284  13.540
83764W        W54364  33.459   4.957  12.019
83765W        W54365   3.638  14.285   2.238
83766W        W54366  28.125   3.615  12.537
83767W        W54367  23.440  44.486  11.642
83768W        W54368  10.091  38.809   5.033
83769W        W54369  22.329   6.950   0.400
83770W        W54370  37.084  17.392   2.583
83771W        W54371  22.120  42.924   0.231
83772W        W54372   4.469  28.250  11.083
83773W        W54373   2.641  18.797   4.158
83774W        W54374   2.917  37.114  12.062
83775W        W54375  27.984  36.399  13.956
83776W        W54376  27.020  35.239   3.554
83777W        W54377  28.519   1.983   0.177
83778W        W54378   1.418  31.888   2.608
83779W        W54379  44.030  31.899   3.685
83780W        W54380  36.398  26.245  14.800
83781W        W54381   0.171  26.570  12.688
83782W        W54382  14.378  10.449  12.200
83783W        W54383  28.014  25.989   1.342
83784W        W54384  13.270   6.907  11.139
83785W        W54385  32.166  20.816  10.870
83786W        W54386   0.936   9.159   3.656
83787W        W54387   8.346  13.569   2.279
83788W        W54388  12.055   5.851   0.262
83789W        W54389   2.760  33.215  12.378
83790W        W54390  43.266  32.113   2.342
83791W        W54391  33.951  33.075  13.494
83792W        W54392  22.696  13.135   1.980
83793W        W54393   3.745  29.259  13.113
83794W        W54394  15.745  30.660  12.449
83795W        W54395   5.978  26.673  11.908
83796W        W54396  20.050  16.269   1.393
83797W        W54397  33.952  25.729   4.540
83798W        W54398  26.205  18.576   0.361
83799W        W54399   0.915  30.158   1.807
83800W        W54400  23.763  42.580  11.591
83801W        W54401  15.014   3.817  14.811
83802W        W54402  33.950  11.339   1.790
83803W        W54403  15.023  30.933  11.480
83804W        W54404  22.176  23.128   3.113
83805W        W54405  10.960   0.308  13.219
83806W        W54406  14.164  17.487   4.558
83807W        W54407   4.307  37.259   4.898
83808W        W54408  17.005  19.363  14.389
83809W        W54409  43.632   1.521  13.450
83810W        W54410   9.583  29.493  13.064
83811W        W54411   5.716  15.288  11.547
83812W        W54412  25.248   0.853  12.506
83813W        W54413  12.572  37.734   3.794
83814W        W54414  19.714  39.024  11.168
83815W        W54415  17.734  16.487   0.292
83816W        W54416  42.879   6.653  11.581
83817W        W54417   6.301  43.877   0.345
83818W        W54418  36.582  21.919   4.496
83819W        W54419  42.558  18.579  11.431
83820W        W54420  43.759   8.874  12.610
83821W        W54421  18.468  40.918   4.632
83822W        W54422  31.259  43.988  11.597
83823W        W54423  44.273  39.117  11.715
83824W        W54424  28.563  31.151   2.894
83825W        W54425  22.682  12.147  12.767
83826W        W54426   1.466  18.089   4.343
83827W        W54427  11.600  43.594   2.399
83828W        W54428  38.846  11.518   2.739
83829W        W54429  18.731  11.423  13.062
83830W        W54430  25.121   8.704  14.416
83831W        W54431  27.201  10.495   4.589
83832W        W54432  30.128  24.500   1.601
83833W        W54433  28.073  32.537   0.066
83834W        W54434  18.677  28.943  10.172
83835W        W54435  11.662  11.850  14.419
83836W        W54436   2.338   4.673  12.555
83837W        W54437  28.496  25.741   0.316
83838W        W54438  39.806  40.813   1.194
83839W        W54439  32.338  19.659  11.127
83840W        W54440  30.524   2.799   1.462
83841W        W54441  23.170  42.223  10.798
83842W        W54442  36.371  11.178   3.268
83843W        W54443   2.210  16.424  13.045
83844W        W54444  32.127  40.053  11.646
83845W        W54445  30.514  41.754   2.090
83846W        W54446  41.606  40.197  10.705
83847W        W54447  14.066  34.220  12.610
83848W        W54448  27.520  19.201  14.302
83849W        W54449  43.746  13.311   0.415
83850W        W54450   7.803  43.777  10.813
83851W        W54451  11.271  44.541  10.686
83852W        W54452  30.609  33.776   1.227
83853W        W54453  43.540   2.242  12.806
83854W        W54454  32.517  39.856  14.286
83855W        W54455   3.336  24.532  12.388
83856W        W54456  30.552  13.240  13.433
83857W        W54457  29.389   0.335  11.638
83858W        W54458  35.680  19.497  11.398
83859W        W54459  10.421  23.080  12.018
83860W        W54460  17.677  14.420  10.631
83861W        W54461  13.676  40.969  10.209
83862W        W54462  34.710  29.170  11.997
83863W        W54463  31.318  37.471  12.035
83864W        W54464  39.425   6.851  12.592
83865W        W54465  26.454  19.880   4.910
83866W        W54466   7.062  35.099  11.514
83867W        W54467  39.919  26.574  11.494
83868W        W54468  19.629  21.027   9.855
83869W        W54469  19.933  34.348  10.587
83870W        W54470  33.549  14.641   3.343
83871W        W54471  36.654  20.867  12.486
83872W        W54472  39.857   7.305  14.870
83873W        W54473  37.168  41.319   1.941
83874W        W54474  39.900  31.878  12.990
83875W        W54475   4.335  13.525   0.870
83876W        W54476  25.976  15.750   3.712
83877W        W54477  24.706  30.492   0.385
83878W        W54478  25.300  32.159  14.305
83879W        W54479   4.773  43.157  14.486
83880W        W54480  12.618  37.593  14.306
83881W        W54481  18.021  15.888   1.028
83882W        W54482  41.836   8.762   0.562
83883W        W54483  32.925  10.311   4.721
83884W        W54484  23.850  35.067  12.069
83885W        W54485   4.910  41.219   1.222
83886W        W54486  23.551  39.979   2.137
83887W        W54487  28.606  35.918  11.060
83888W        W54488  32.927  22.479   4.167
83889W        W54489  35.653  18.288   4.594
83890W        W54490  25.220   8.836   3.167
83891W        W54491   4.678   8.507  14.024
83892W        W54492  43.810   8.441  11.744
83893W        W54493  15.098  36.670  12.712
83894W        W54494   4.206  28.629   1.840
83895W        W54495  44.289  32.492   3.647
83896W        W54496  41.630  42.330   4.613
83897W        W54497  32.852  35.744   4.563
83898W        W54498   2.749  16.226  11.013
83899W        W54499  28.030  39.013  10.979
83900W        W54500  30.351  37.944   3.140
83901W        W54501  44.092   3.207  10.781
83902W        W54502  28.702  44.906  12.925
83903W        W54503  16.282   4.148   1.881
83904W        W54504  13.796  13.473  11.938
83905W        W54505  43.821   3.036   3.702
83906W        W54506   3.708  44.986  12.447
83907W        W54507  38.591  12.089  12.047
83908W        W54508   4.914  31.510  10.983
83909W        W54509  13.084  18.073  12.593
83910W        W54510  22.119  36.363   0.369
83911W        W54511  38.855  37.355   0.884
83912W        W54512  28.184   0.069  13.016
83913W        W54513  11.835  13.797   2.417
83914W        W54514  23.065  15.919   2.842
83915W        W54515  19.948  12.162   4.232
83916W        W54516  28.508  24.343  12.813
83917W        W54517  21.749  17.497   0.415
83918W        W54518  30.211  16.192   3.577
83919W        W54519  18.154   8.634   1.808
83920W        W54520  11.475  32.239  10.438
83921W        W54521  38.661   1.814  11.584
83922W        W54522  26.644  17.173   2.014
83923W        W54523  32.999  14.624   1.048
83924W        W54524  11.848  39.415   3.730
83925W        W54525   8.801  18.698   4.077
83926W        W54526  43.271  32.104  14.977
83927W        W54527  34.845  33.891  12.953
83928W        W54528  39.686  14.643   4.203
83929W        W54529   4.924  21.965  14.668
83930W        W54530  12.830  42.433   1.018
83931W        W54531   0.267  36.870   1.691
83932W        W54532  10.877  15.973   0.190
83933W        W54533  37.151  40.489   0.853
83934W        W54534   7.738  10.086   4.681
83935W        W54535  29.520   7.723   5.000
83936W        W54536  30.154  43.963  10.850
83937W        W54537   5.900  32.998  10.737
83938W        W54538   4.908   1.878  12.307
83939W        W54539  42.210  34.327  14.884
83940W        W54540  35.516  30.845   3.590
83941W        W54541   8.308  39.278   2.596
83942W        W54542  22.838  25.453   3.161
83943W        W54543  25.697   8.268   1.835
83944W        W54544   2.994  28.596  12.019
83945W        W54545  16.479  39.949  13.263
83946W        W54546  17.170   7.581   1.637
83947W        W54547  15.109  33.627   2.585
83948W        W54548   9.458  15.623  13.102
83949W        W54549  39.417  25.849   1.907
83950W        W54550  16.633  38.651   4.106
83951W        W54551  31.133  31.638   4.375
83952W        W54552  28.917  21.521  14.026
83953W        W54553  38.264   6.473   3.809
83954W        W54554  14.967   5.904   1.957
83955W        W54555  27.772   3.181   0.377
83956W        W54556  38.855  23.630   4.452
83957W        W54557  35.882  10.098   1.253
83958W        W54558  25.542   8.449  13.227
83959W        W54559   4.464  13.988   4.011
83960W        W54560   1.987  36.483   1.380
83961W        W54561  34.599  31.762   1.719
83962W        W54562  31.315  41.408  11.719
83963W        W54563  17.356  27.492  12.546
83964W        W54564  39.435  43.544  14.531
83965W        W54565  36.311   7.795   2.919
83966W        W54566  38.614   2.945   2.661
83967W        W54567  36.949   1.458  11.144
83968W        W54568  35.464   8.673   3.677
83969W        W54569  34.533  38.890  14.029
83970W        W54570  19.740   1.133   3.329
83971W        W54571  41.270  32.163   1.800
83972W        W54572  16.740  28.565   3.339
83973W        W54573  35.981  32.119  14.981
83974W        W54574  19.312  42.999   4.636
83975W        W54575  37.601   2.426  12.785
83976W        W54576  16.990   4.134   3.660
83977W        W54577  43.423  44.250   0.844
83978W        W54578  22.709  25.974  10.651
83979W        W54579  40.890   6.382   3.812
83980W        W54580   0.316  28.179   3.887
83981W        W54581  39.953   9.407  13.910
83982W        W54582  13.948  39.893   1.648
83983W        W54583  21.151  36.794  13.978
83984W        W54584  37.642  21.961   3.693
83985W        W54585  36.678   9.627  14.823
83986W        W54586  14.753  18.297   2.321
83987W        W54587  37.738  15.275  14.975
83988W        W54588  41.594  15.916   0.501
83989W        W54589   2.881  33.961  13.120
83990W        W54590  32.383  14.361  11.013
83991W        W54591  28.554   3.967  11.656
83992W        W54592  18.182   5.258  13.996
83993W        W54593   9.369   8.821  10.691
83994W        W54594  37.269   5.015   2.319
83995W        W54595  17.183  17.784  14.435
83996W        W54596   7.919  11.552  14.721
83997W        W54597  13.106  38.584   0.833
83998W        W54598  29.871  29.395   3.731
83999W        W54599  37.348  26.426  11.453
84000W        W54600   6.929   0.241   3.876
84001W        W54601  21.376  17.726   2.202
84002W        W54602  35.975   5.672  14.459
84003W        W54603  19.530  10.454  13.050
84004W        W54604  18.993  13.678  14.527
84005W        W54605  25.222  41.439   4.685
84006W        W54606  35.351   7.935  14.424
84007W        W54607  22.597   2.930   2.514
84008W        W54608  28.673  18.584   1.692
84009W        W54609  34.144  42.519  11.645
84010W        W54610  20.786  41.431  10.830
84011W        W54611  33.299  43.679  11.587
84012W        W54612  10.601   1.833  14.909
84013W        W54613   8.165  34.042  11.136
84014W        W54614  16.793  43.701   1.395
84015W        W54615  16.711   1.059   2.197
84016W        W54616   8.712  15.317  13.937
84017W        W54617  16.974  18.137  14.937
84018W        W54618  38.980  10.465  14.583
84019W        W54619   4.672  26.477  11.193
84020W        W54620  11.957  36.192   2.228
84021W        W54621   6.233  40.056  10.811
84022W        W54622  23.669   0.143   2.250
84023W        W54623  34.430  40.455  11.223
84024W        W54624  30.054  27.514  13.676
84025W        W54625   9.295  14.147   4.963
84026W        W54626   4.224   7.868  12.931
84027W        W54627   6.472  20.010  12.053
84028W        W54628  43.226  41.845  13.439
84029W        W54629   1.276   5.821   2.849
84030W        W54630   1.452  17.752   3.131
84031W        W54631  26.128  39.318  14.686
84032W        W54632   9.878   1.055   2.874
84033W        W54633  12.996  32.133  10.335
84034W        W54634   9.293  22.228  11.951
84035W        W54635   7.366  22.781  13.573
84036W        W54636   4.489   2.159  12.013
84037W        W54637   3.362  16.135  13.897
84038W        W54638  22.183  14.109   2.195
84039W        W54639  21.935  15.528   4.520
84040W        W54640  34.072  37.392  12.822
84041W        W54641  28.570   3.284  12.405
84042W        W54642  38.789  35.039   0.914
84043W        W54643  11.750  40.612  13.009
84044W        W54644  15.660   9.340  14.725
84045W        W54645   0.797   3.218   5.053
84046W        W54646   6.669   7.376   3.359
84047W        W54647  34.624  18.075  10.719
84048W        W54648  37.037  18.224   2.137
84049W        W54649  25.911  27.772  13.375
84050W        W54650  13.140  13.393  11.680
84051W        W54651  40.885   5.988   2.852
84052W        W54652  25.135  40.769  13.970
84053W        W54653  11.684  12.250   3.181
84054W        W54654  34.044  26.697  14.497
84055W        W54655   5.397  12.805   0.849
84056W        W54656  38.848  20.734  11.365
84057W        W54657  29.686  18.242   1.719
84058W        W54658  39.993  24.571   1.337
84059W        W54659  22.333  22.700   3.350
84060W        W54660   7.920  31.917   3.813
84061W        W54661  33.338  13.936   3.805
84062W        W54662  32.057  40.919   3.490
84063W        W54663  13.461  40.327   3.549
84064W        W54664  21.984  33.480   1.818
84065W        W54665  27.438  28.174   4.262
84066W        W54666  27.316  35.053  12.286
84067W        W54667  27.634  34.090   1.478
84068W        W54668  19.615  22.977   1.435
84069W        W54669  36.022  30.730  11.108
84070W        W54670  37.413   6.470   1.859
84071W        W54671   9.595   2.773   3.229
84072W        W54672  41.915  35.345  13.835
84073W        W54673   2.233   2.512   1.055
84074W        W54674   1.960  13.394  11.503
84075W        W54675  15.427   8.627  10.665
84076W        W54676  31.690  42.349   1.873
84077W        W54677  14.230  43.237  10.711
84078W        W54678  13.562   5.706   1.100
84079W        W54679  23.832  22.011  13.254
84080W        W54680  24.528  34.065  12.444
84081W        W54681   2.639  39.231  12.908
84082W        W54682  12.767  41.531   3.261
84083W        W54683  35.146  10.750  13.932
84084W        W54684  21.611  26.560   3.253
84085W        W54685   2.465  44.871   0.390
84086W        W54686  25.488  36.078  10.734
84087W        W54687   8.785  12.759  11.885
84088W        W54688  37.752   4.923  12.505
84089W        W54689   4.284  18.612   1.469
84090W        W54690  16.090  42.468   3.845
84091W        W54691  20.674  37.921  13.485
84092W        W54692   9.408  21.382   1.796
84093W        W54693  42.898  36.521   2.167
84094W        W54694  39.591  25.164  13.981
84095W        W54695  44.975  12.808  13.368
84096W        W54696  21.222  18.569  13.741
84097W        W54697  35.092  34.941   1.324
84098W        W54698  12.700   9.776   1.300
84099W        W54699  41.168  13.757  11.128
84100W        W54700  13.720  44.309   0.247
84101W        W54701  17.253  41.720  13.480
84102W        W54702  31.451  14.842  13.512
84103W        W54703   5.673  37.769  14.982
84104W        W54704  32.833  39.085   5.001
84105W        W54705   1.904   3.537  11.989
84106W        W54706  31.564  26.702   1.925
84107W        W54707   3.199  17.044   4.658
84108W        W54708  38.305  13.166   0.992
84109W        W54709   5.621  42.565   2.325
84110W        W54710  28.862  23.935   4.915
84111W        W54711  38.743  17.752   2.337
84112W        W54712  12.450  11.171  12.632
84113W        W54713  10.142  29.559  10.323
84114W        W54714   5.291  37.559  12.966
84115W        W54715  18.914  34.997   4.837
84116W        W54716  24.504   4.308   2.365
84117W        W54717  28.466  41.514  14.864
84118W        W54718  27.439  32.937  12.513
84119W        W54719  12.345  19.280   3.636
84120W        W54720  13.803  31.425   0.523
84121W        W54721  15.207  26.869   1.839
84122W        W54722  13.512  11.383   5.173
84123W        W54723  37.873  29.627   1.352
84124W        W54724  21.210  10.907   1.555
84125W        W54725  26.630  32.821  10.619
84126W        W54726  32.682   3.746   4.930
84127W        W54727  22.230   6.171   3.224
84128W        W54728  25.685  43.410   4.724
84129W        W54729  32.447  18.390  13.148
84130W        W54730  19.760  11.669   4.304
84131W        W54731  41.199  44.356   4.550
84132W        W54732  36.453  13.656   4.727
84133W        W54733   8.932  39.486  12.671
84134W        W54734  38.835  44.915   1.663
84135W        W54735  27.880  41.367   2.961
84136W        W54736  10.387  42.595  10.126
84137W        W54737  16.732  42.069   2.202
84138W        W54738   8.434   6.351   1.853
84139W        W54739   5.414   8.066   3.233
84140W        W54740  20.763  26.023  12.126
84141W        W54741  19.986  17.551   0.181
84142W        W54742  31.549  44.126   3.713
84143W        W54743  34.387  23.565   4.466
84144W        W54744  23.177  35.298   3.596
84145W        W54745  39.872  22.203  10.754
84146W        W54746  29.617  37.598   1.684
84147W        W54747  41.801   5.278   2.204
84148W        W54748  13.171  42.770   0.831
84149W        W54749   0.057  16.819   2.731
84150W        W54750   8.749  28.383  14.455
84151W        W54751  43.943  12.662  11.954
84152W        W54752   2.248   4.964   3.247
84153W        W54753   9.765  36.658   1.425
84154W        W54754  15.999  26.295   4.449
84155W        W54755  27.120  19.727   2.360
84156W        W54756  21.805  20.567  11.192
84157W        W54757  43.507  12.618   0.245
84158W        W54758  36.139  24.703  13.889
84159W        W54759   5.867  31.146  11.222
84160W        W54760  38.368   4.801   4.167
84161W        W54761  32.416  38.918   2.358
84162W        W54762  17.428  27.607   1.696
84163W        W54763  29.683  37.867  11.202
84164W        W54764  18.615  13.093  10.748
84165W        W54765  12.717   3.925   4.580
84166W        W54766  38.119   7.399   1.192
84167W        W54767  10.335  39.931   1.647
84168W        W54768  43.787  40.534   4.025
84169W        W54769  19.698  24.631   4.633
84170W        W54770  40.733  38.162   4.575
84171W        W54771  13.247  26.630   0.915
84172W        W54772  14.851  10.144  13.561
84173W        W54773  24.691  35.018  13.041
84174W        W54774  29.498  41.285   1.950
84175W        W54775  16.647  19.115   4.629
84176W        W54776  40.926  35.038   1.400
84177W        W54777  23.981  20.525   0.552
84178W        W54778  30.630  31.193   3.693
84179W        W54779   4.514   8.588  14.505
84180W        W54780  39.550  26.416   4.518
84181W        W54781  44.746  18.604   2.812
84182W        W54782  36.854  16.854  11.045
84183W        W54783  43.438  33.459  13.180
84184W        W54784  21.294  12.341  10.445
84185W        W54785   6.389  33.684   1.821
84186W        W54786  10.671   4.165  11.947
84187W        W54787  42.363  33.399   2.694
84188W        W54788  14.821  10.742   2.646
84189W        W54789  30.431  23.589   0.751
84190W        W54790  19.085  22.394   0.889
84191W        W54791   9.237  43.512   4.705
84192W        W54792  15.567  11.873   1.182
84193W        W54793  11.126  17.738   0.886
84194W        W54794  11.114  13.725   1.393
84195W        W54795  34.843  10.924  10.971
84196W        W54796  20.576  36.769   0.894
84197W        W54797  23.084  32.615   0.313
84198W        W54798  25.704  23.251   1.393
84199W        W54799  28.419   0.821   1.369
84200W        W54800  29.444  43.905   4.586
84201W        W54801  38.405  18.098  14.338
84202W        W54802  43.269  38.889   1.848
84203W        W54803  17.578  14.629  11.955
84204W        W54804  13.868  23.378  12.485
84205W        W54805  43.957  39.965   4.693
84206W        W54806  38.092  41.512   3.622
84207W        W54807  32.030  12.748  11.927
84208W        W54808  14.728  34.882  14.805
84209W        W54809  29.641  44.527   4.034
84210W        W54810  29.666  15.278  13.414
84211W        W54811   9.003  10.280  11.844
84212W        W54812   3.435   6.995  14.292
84213W        W54813  29.754   1.037   0.460
84214W        W54814  28.146   7.200  13.097
84215W        W54815   6.746  18.974  11.901
84216W        W54816  23.928  30.553  14.918
84217W        W54817  39.707   2.869   3.314
84218W        W54818  16.603   0.976  12.711
84219W        W54819  14.392  18.872  12.954
84220W        W54820   8.601  34.840  12.408
84221W        W54821  23.602   0.075  10.592
84222W        W54822   0.210  20.859  10.617
84223W        W54823  17.772  35.344  14.807
84224W        W54824  22.634  32.246   0.839
84225W        W54825  19.196  29.411  14.447
84226W        W54826   1.497  38.853   2.135
84227W        W54827  34.869  19.633  13.239
84228W        W54828  14.479  40.160   3.678
84229W        W54829  32.988  29.581   5.032
84230W        W54830  26.193  28.004   0.991
84231W        W54831  40.028  44.527   2.875
84232W        W54832  31.983  35.600   2.696
84233W        W54833  21.075  38.067   0.884
84234W        W54834   6.217   0.926   0.863
84235W        W54835  41.748  15.709   0.954
84236W        W54836  34.838  37.743  11.448
84237W        W54837  28.225  32.948   3.174
84238W        W54838  27.258   8.277   0.048
84239W        W54839  31.063  19.503   4.528
84240W        W54840  16.541  18.083   2.848
84241W        W54841  30.389  33.201  14.041
84242W        W54842  15.582  15.038  14.016
84243W        W54843   2.266   8.886   3.152
84244W        W54844   5.290   5.009  10.548
84245W        W54845   6.923  43.556   4.121
84246W        W54846  41.060   9.594  13.432
84247W        W54847  13.394   6.291  10.320
84248W        W54848   5.138  25.233  12.652
84249W        W54849  23.908  41.447  13.898
84250W        W54850  37.411  22.507  11.502
84251W        W54851   5.818  42.512   3.908
84252W        W54852  17.672  18.351   4.121
84253W        W54853  15.346  25.667  13.894
84254W        W54854  41.740  12.128   3.369
84255W        W54855   6.869  32.103   2.264
84256W        W54856   2.987  13.224  13.983
84257W        W54857   2.987  28.973  13.451
84258W        W54858  38.475  25.156   5.125
84259W        W54859  18.544  42.270   1.361
84260W        W54860  33.516  34.303  14.536
84261W        W54861   9.065   8.614  10.326
84262W        W54862  36.261  27.210   0.808
84263W        W54863  44.839  12.923  14.819
84264W        W54864   4.938   0.036  13.427
84265W        W54865   7.740  15.305   0.420
84266W        W54866  43.477  12.814   3.258
84267W        W54867  37.908  40.844  11.733
84268W        W54868   1.256  18.213   3.882
84269W        W54869   0.083   6.306   0.395
84270W        W54870   3.303  40.139   3.990
84271W        W54871  24.507  31.272  13.656
84272W        W54872  41.929  35.626   3.213
84273W        W54873   8.846  21.342  13.870
84274W        W54874   2.872  29.450  10.406
84275W        W54875  23.316   8.180  11.987
84276W        W54876  15.387  17.117  14.450
84277W        W54877  27.085  11.644   2.672
84278W        W54878  24.643   2.401   4.894
84279W        W54879  13.760  22.600  11.651
84280W        W54880  21.136  31.747  12.146
84281W        W54881  41.070  33.406  10.769
84282W        W54882  13.560  40.488   2.290
84283W        W54883  13.357   6.292  11.675
84284W        W54884   0.324   3.044   2.283
84285W        W54885   3.209  36.000   1.561
84286W        W54886   1.730   5.270   3.552
84287W        W54887  16.345  38.602   1.697
84288W        W54888  19.820  24.111   2.854
84289W        W54889   1.995   1.997   4.151
84290W        W54890  24.576  21.574   2.248
84291W        W54891  30.191   9.451   3.507
84292W        W54892  36.451   8.141   0.786
84293W        W54893   8.786  41.988  12.524
84294W        W54894   1.422  23.282   2.737
84295W        W54895  17.505  24.285  13.932
84296W        W54896  28.613  43.932   4.691
84297W        W54897   6.671  31.639  14.812
84298W        W54898   1.766  12.822   2.943
84299W        W54899  22.434  26.994   4.268
84300W        W54900   1.315  21.676  12.958
84301W        W54901  11.165  16.363   1.327
84302W        W54902   7.785   5.194   3.609
84303W        W54903  32.011  17.553   4.562
84304W        W54904  36.445   7.923   0.302
84305W        W54905  42.421  26.223  12.226
84306W        W54906  41.442  43.667  11.198
84307W        W54907  23.776  15.272  13.432
84308W        W54908   0.830  32.917   4.836
84309W        W54909  11.386  26.289  13.951
84310W        W54910   0.760  31.843  14.374
84311W        W54911  40.378  33.707  13.525
84312W        W54912  39.974  34.085   3.620
84313W        W54913  38.359  20.561  14.925
84314W        W54914  22.582  11.350  13.827
84315W        W54915  44.485   3.607   0.944
84316W        W54916  32.329  37.508  11.635
84317W        W54917   8.212  11.868   4.833
84318W        W54918  15.094  29.249   1.456
84319W        W54919   7.339  31.479   4.112
84320W        W54920  23.133   9.436  12.985
84321W        W54921  16.886   2.403  10.761
84322W        W54922  15.724  38.420  10.439
84323W        W54923  15.175  44.248  13.124
84324W        W54924   7.025  21.155  14.716
84325W        W54925  11.087  38.864   1.157
84326W        W54926  26.611  35.902  13.419
84327W        W54927   1.990  15.123  14.802
84328W        W54928  10.038  34.075   3.784
84329W        W54929  38.396  44.660   1.686
84330W        W54930  44.770   0.232   4.074
84331W        W54931  37.043  24.787   2.156
84332W        W54932   2.781   3.463   4.140
84333W        W54933  30.114  23.637   4.541
84334W        W54934  33.395  36.793   2.399
84335W        W54935  38.110  40.869  13.702
84336W        W54936  35.889  34.549  13.049
84337W        W54937  28.462  13.924  14.935
84338W        W54938  26.227  39.076   1.994
84339W        W54939  25.569  10.044  12.906
84340W        W54940  38.261  28.772   0.244
84341W        W54941  22.685  39.401   2.834
84342W        W54942  20.488  30.055  12.545
84343W        W54943  22.672   0.956   0.555
84344W        W54944   3.413   9.735   2.504
84345W        W54945   8.484  13.371   4.502
84346W        W54946  16.980  37.915  13.361
84347W        W54947  11.893   0.429   1.825
84348W        W54948  39.468  41.574  11.665
84349W        W54949  41.805  26.304   4.420
84350W        W54950   0.971  37.657   3.588
84351W        W54951   6.341  28.040  11.269
84352W        W54952   1.479  35.935   3.158
84353W        W54953  28.417   1.502   0.922
84354W        W54954  30.036  37.071  13.869
84355W        W54955  28.649  44.045  12.913
84356W        W54956  28.212  13.130  12.899
84357W        W54957  38.425  25.971  14.109
84358W        W54958  10.072  18.195  14.259
84359W        W54959  39.067  33.162   3.308
84360W        W54960  35.952  24.106  11.979
84361W        W54961   6.493  16.312   1.796
84362W        W54962  23.951  12.085   3.934
84363W        W54963  32.455   7.591  11.163
84364W        W54964  26.771  42.721  13.384
84365W        W54965  10.685   1.833  11.173
84366W        W54966  42.371  40.896   0.980
84367W        W54967   4.363  16.350   3.649
84368W        W54968   5.744  25.995   3.173
84369W        W54969  36.960   0.078  11.715
84370W        W54970  25.946  42.890  14.846
84371W        W54971  22.314   8.763  13.938
84372W        W54972  19.005  39.569  13.425
84373W        W54973  21.406  44.830   1.675
84374W        W54974   3.786  44.567   4.208
84375W        W54975  21.440  32.089   2.642
84376W        W54976  14.815  15.673  10.290
84377W        W54977  10.194  30.293   0.621
84378W        W54978   0.974  20.590  14.514
84379W        W54979  23.228   7.604   3.684
84380W        W54980   7.305  17.120   0.361
84381W        W54981   8.887  16.218   4.633
84382W        W54982  32.173   2.462  10.750
84383W        W54983  23.983  10.194  13.858
84384W        W54984  32.725  11.832   2.185
84385W        W54985  17.012  39.983  11.073
84386W        W54986  33.010  27.924   4.696
84387W        W54987  11.406  25.133  10.799
84388W        W54988  16.626   9.128  13.398
84389W        W54989   6.349  25.730  12.260
84390W        W54990  28.959   3.909  11.965
84391W        W54991   5.808   8.423  12.192
84392W        W54992  15.628  30.038  13.621
84393W        W54993  20.088  14.384  12.172
84394W        W54994  12.195  10.225   1.355
84395W        W54995   2.299  11.809   2.449
84396W        W54996  33.599  40.970  13.002
84397W        W54997  42.940  22.260  13.137
84398W        W54998  18.550  14.810  13.786
84399W        W54999  41.950  31.847   2.236
84400W        W55000  31.428   0.057   1.666
84401W        W55001  13.741  10.109   2.073
84402W        W55002   7.748   6.054  13.846
84403W        W55003   3.862  41.017  10.259
84404W        W55004  40.795   9.935   1.765
84405W        W55005  44.263  16.120  12.979
84406W        W55006   5.738  30.427  14.359
84407W        W55007  33.943  19.574  12.811
84408W        W55008  37.003  36.038  11.156
84409W        W55009   7.214  42.851   3.111
84410W        W55010  36.551  31.974  12.428
84411W        W55011   1.444  29.304  14.922
84412W        W55012   0.765  36.194   0.983
84413W        W55013  42.280  36.321  11.592
84414W        W55014  39.406  12.281   2.698
84415W        W55015  15.734  10.211   4.702
84416W        W55016  18.609  35.070   4.033
84417W        W55017   7.304   8.141   3.153
84418W        W55018   2.460  17.192  12.683
84419W        W55019  33.054  11.725   4.512
84420W        W55020   8.857   0.864  11.515
84421W        W55021  22.569   9.528   5.501
84422W        W55022   2.310  26.399   2.707
84423W        W55023  10.428   1.712  10.750
84424W        W55024  23.777   1.909  11.179
84425W        W55025  16.684  44.686  12.648
84426W        W55026  10.901  42.243   1.195
84427W        W55027  29.612   1.239  11.692
84428W        W55028  22.266  38.126   1.062
84429W        W55029  30.993  29.534  10.328
84430W        W55030  37.825   9.442  14.323
84431W        W55031  32.426  30.558  14.422
84432W        W55032  32.740   7.070  12.949
84433W        W55033   6.354  23.811   1.034
84434W        W55034   9.855  33.475   2.939
84435W        W55035  34.295  28.569  13.304
84436W        W55036  38.862  40.341   0.781
84437W        W55037  24.194  33.526   0.973
84438W        W55038  37.870  25.045  13.948
84439W        W55039   8.794  20.672   4.376
84440W        W55040   3.746  38.276   3.685
84441W        W55041   4.995  16.179   1.178
84442W        W55042   5.784  29.608   4.613
84443W        W55043  16.739  30.458  11.941
84444W        W55044   2.147  10.853  14.908
84445W        W55045  38.816  23.124  10.730
84446W        W55046  18.616  35.903  12.418
84447W        W55047  33.611  14.838  10.740
84448W        W55048  41.973  33.932  11.904
84449W        W55049  24.064   5.156  13.780
84450W        W55050  43.702  41.390   2.639
84451W        W55051  28.462  33.209   1.194
84452W        W55052   9.785  31.743  10.941
84453W        W55053  38.367   2.551  14.918
84454W        W55054   0.226   4.314  12.438
84455W        W55055  40.072  33.135   1.842
84456W        W55056  16.017  12.649  14.133
84457W        W55057  42.508   9.357   2.315
84458W        W55058   0.789  39.428  14.358
84459W        W55059  13.788   3.359   4.377
84460W        W55060  24.543  16.362  11.484
84461W        W55061  36.719  16.688  12.893
84462W        W55062  20.731  25.894  13.492
84463W        W55063   8.181   9.550   4.148
84464W        W55064  42.797  20.137   0.426
84465W        W55065  37.338   8.478   0.413
84466W        W55066  43.960   6.457  13.389
84467W        W55067  26.600   1.535  11.571
84468W        W55068  40.595   0.973  11.464
84469W        W55069  24.569   7.755  11.140
84470W        W55070   2.452  24.788   0.722
84471W        W55071   7.092  32.187  14.022
84472W        W55072  18.570  37.526   5.056
84473W        W55073  36.385  27.554   2.344
84474W        W55074  28.791   2.647  11.123
84475W        W55075  14.341  22.248   0.316
84476W        W55076  24.770  26.956  14.356
84477W        W55077  28.369  42.759   4.748
84478W        W55078   0.003  12.399   3.521
84479W        W55079  18.755  27.444  11.641
84480W        W55080  29.887  33.025  14.001
84481W        W55081  17.902  41.388  10.822
84482W        W55082  33.570  30.544   2.311
84483W        W55083   6.833   9.581   1.906
84484W        W55084  29.123  36.000  13.824
84485W        W55085   2.381  19.892   4.830
84486W        W55086  21.257  33.094  14.829
84487W        W55087  33.329  23.633   3.027
84488W        W55088  23.336   4.839  11.569
84489W        W55089  23.388  35.905  13.410
84490W        W55090  26.018  10.301  13.059
84491W        W55091  41.473  32.951  14.916
84492W        W55092  43.705  21.814  10.742
84493W        W55093  43.759  19.922  11.980
84494W        W55094  22.469  31.569   3.297
84495W        W55095   3.680  30.179   2.870
84496W        W55096   1.782  36.578  11.648
84497W        W55097  11.880  43.495  10.289
84498W        W55098  33.670  42.425  13.573
84499W        W55099  24.575   2.294   4.303
84500W        W55100   5.580   7.792   3.987
84501W        W55101  40.055  42.808   1.188
84502W        W55102  16.020   5.828   3.594
84503W        W55103  11.629  22.212  13.702
84504W        W55104  44.194  39.708  14.399
84505W        W55105   2.230  26.827   4.113
84506W        W55106  20.689   0.003   0.440
84507W        W55107  17.184  24.562   3.158
84508W        W55108   8.698  38.668  10.866
84509W        W55109  37.877   9.674   3.419
84510W        W55110  12.416  29.696  11.608
84511W        W55111   8.920   6.214   5.005
84512W        W55112   9.802  36.582   2.340
84513W        W55113  39.821  10.337  11.494
84514W        W55114  11.254  35.090  10.671
84515W        W55115  37.331  34.462   0.020
84516W        W55116  19.035   0.702  13.016
84517W        W55117  36.852  23.251  13.148
84518W        W55118  33.529  41.943  13.465
84519W        W55119   8.127  29.623   0.250
84520W        W55120  20.766   3.379  12.974
84521W        W55121  28.659  16.202  11.736
84522W        W55122   4.446   5.246   4.203
84523W        W55123   3.794  34.626   1.027
84524W        W55124  40.568  28.039  12.693
84525W        W55125  17.002  35.744   0.978
84526W        W55126  12.862   3.697   1.423
84527W        W55127  33.933  23.747   4.668
84528W        W55128  17.855  26.593  12.459
84529W        W55129  37.925  21.519   0.805
84530W        W55130  30.378  15.582   2.818
84531W        W55131  34.908  31.385   0.346
84532W        W55132  14.760  19.852   1.750
84533W        W55133  43.236  41.121   3.788
84534W        W55134   4.353  38.908  14.156
84535W        W55135   6.515   2.307   1.319
84536W        W55136  25.943   1.495   3.785
84537W        W55137   7.549  43.834   3.503
84538W        W55138  24.785  19.545   3.329
84539W        W55139  25.788  42.250   0.471
84540W        W55140   2.020  38.337  11.056
84541W        W55141  18.635   5.801   2.867
84542W        W55142   4.954  42.149  14.482
84543W        W55143  41.183  17.977  14.367
84544W        W55144  13.107  28.616  10.624
84545W        W55145   4.735   5.128  11.650
84546W        W55146   8.701  33.066  13.533
84547W        W55147   3.638  16.711   4.454
84548W        W55148  33.709   6.399   0.939
84549W        W55149   9.618  37.392   0.884
84550W        W55150  41.545   2.907  11.037
84551W        W55151  31.492  15.977   4.722
84552W        W55152  12.801   6.367   4.785
84553W        W55153  44.432  21.645   3.712
84554W        W55154  26.537  17.808  12.666
84555W        W55155   8.163  21.769   4.198
84556W        W55156  15.736  14.162   1.266
84557W        W55157  22.666  38.826   4.089
84558W        W55158  35.785   1.155   0.340
84559W        W55159   8.300  43.305   1.229
84560W        W55160  25.919  16.445  12.045
84561W        W55161  44.248   6.581  13.872
84562W        W55162  26.455  29.821  12.006
84563W        W55163  17.121   1.322   4.912
84564W        W55164  29.374  30.475   4.575
84565W        W55165  23.943  13.811  14.885
84566W        W55166  28.422  34.026  12.813
84567W        W55167  21.847  13.592  14.171
84568W        W55168   5.164  33.108  10.410
84569W        W55169  27.803  15.085  11.324
84570W        W55170  27.409   2.844  10.405
84571W        W55171  33.498  11.302  10.048
84572W        W55172  38.290  14.551   3.323
84573W        W55173  33.579   2.716   4.135
84574W        W55174   9.315   6.432   0.281
84575W        W55175  19.117  31.380  12.653
84576W        W55176   3.610   8.223  12.827
84577W        W55177   4.950   8.412   0.953
84578W        W55178  36.554  36.639   2.869
84579W        W55179  38.069  18.044   2.678
84580W        W55180  32.942  21.162  12.425
84581W        W55181  10.450  42.126  14.441
84582W        W55182   7.693  39.726  12.362
84583W        W55183  14.665  37.188   4.902
84584W        W55184  14.659  33.682  11.227
84585W        W55185  12.575  33.845   2.313
84586W        W55186  12.079  22.697  10.599
84587W        W55187  42.777  12.649  13.851
84588W        W55188  30.054  41.982   2.105
84589W        W55189   0.433  27.619  11.839
84590W        W55190  11.616  24.123   2.925
84591W        W55191   5.290   9.602   2.385
84592W        W55192  31.885   9.162   1.203
84593W        W55193  44.668   1.856   3.576
84594W        W55194  20.797  12.379   3.853
84595W        W55195   3.463   1.469  11.553
84596W        W55196   8.890  37.902  14.336
84597W        W55197  18.743  16.520  13.978
84598W        W55198  27.431   7.165  14.369
84599W        W55199  40.182  14.650   0.754
84600W        W55200  14.147  32.457   4.223
84601W        W55201  28.584  31.630   2.656
84602W        W55202  33.445  20.029   4.481
84603W        W55203   7.665  44.794   1.836
84604W        W55204  11.913  28.227   4.963
84605W        W55205  21.984  41.870  12.499
84606W        W55206  16.649  39.568   2.903
84607W        W55207   3.885   4.195   2.664
84608W        W55208   5.636   5.344   0.753
84609W        W55209   2.755   9.927   3.798
84610W        W55210  42.468  39.517  14.553
84611W        W55211  26.169  21.998   4.656
84612W        W55212  32.368  35.903   4.706
84613W        W55213  27.072   2.600  10.749
84614W        W55214  22.302  13.826   1.309
84615W        W55215   2.580  15.041   4.597
84616W        W55216   9.267  41.623   1.320
84617W        W55217   9.354  27.169  14.486
84618W        W55218  36.090  40.372  13.266
84619W        W55219  17.604  14.755  13.863
84620W        W55220  36.255  21.183  12.512
84621W        W55221  34.953  15.575   4.064
84622W        W55222  39.873  25.255   4.253
84623W        W55223  28.655  24.316  11.416
84624W        W55224  22.495   4.717   3.202
84625W        W55225  11.901   3.949   1.679
84626W        W55226   2.295  37.295   3.120
84627W        W55227   0.954  28.953   0.962
84628W        W55228   4.789  32.452   2.881
84629W        W55229  23.117  19.120   2.177
84630W        W55230  42.173  38.860   0.800
84631W        W55231  14.791  14.061   1.290
84632W        W55232  28.806  21.700  14.984
84633W        W55233  41.495  41.809   2.649
84634W        W55234  28.875   1.199  14.352
84635W        W55235   1.411   5.792  11.671
84636W        W55236  10.573   8.753  14.282
84637W        W55237  33.684   0.198  14.254
84638W        W55238  24.566  32.289  13.815
84639W        W55239  26.193  38.806  14.836
84640W        W55240  11.716  30.616   5.142
84641W        W55241  28.871   9.565   2.335
84642W        W55242  28.864  39.372  11.636
84643W        W55243  11.729  23.801  12.981
84644W        W55244  17.092  20.132  13.337
84645W        W55245   0.973  28.017  14.944
84646W        W55246  37.056  31.162  13.642
84647W        W55247  36.564   5.483   1.257
84648W        W55248  34.563  36.842   3.129
84649W        W55249   2.259  12.896   0.287
84650W        W55250  28.572  13.858   4.894
84651W        W55251   4.668  10.512   0.302
84652W        W55252  17.145   7.959  14.605
84653W        W55253  27.704  22.835  14.576
84654W        W55254   3.997   6.537  13.716
84655W        W55255   6.592  17.239   0.888
84656W        W55256  14.922  15.827   2.322
84657W        W55257  17.230   5.733   1.177
84658W        W55258  14.347  27.286   0.309
84659W        W55259  32.567  38.870  10.868
84660W        W55260   1.049  40.138   1.855
84661W        W55261  28.045  35.581   3.663
84662W        W55262  19.994  31.697  12.583
84663W        W55263  13.024  26.896  13.805
84664W        W55264  11.736  27.812  12.587
84665W        W55265  37.588  39.539   0.759
84666W        W55266  15.727  41.296  10.807
84667W        W55267  10.918  28.184   3.330
84668W        W55268   1.503  44.976  11.597
84669W        W55269   9.644   1.736  11.110
84670W        W55270  36.197  19.767  13.526
84671W        W55271  26.235   2.244  12.937
84672W        W55272  21.462  11.753  11.719
84673W        W55273  18.059   9.299  12.947
84674W        W55274   2.516  16.804   3.253
84675W        W55275  26.225  41.309   0.248
84676W        W55276   3.134   6.174  13.986
84677W        W55277  36.521   2.158   0.422
84678W        W55278  30.938  12.362  11.207
84679W        W55279   3.883  23.999   2.679
84680W        W55280   4.705  35.043  12.869
84681W        W55281  37.586  32.277   3.597
84682W        W55282  36.430  32.695  12.006
84683W        W55283  15.614   5.314  13.482
84684W        W55284   8.697  19.157  14.337
84685W        W55285  30.841  15.678   3.721
84686W        W55286   5.283  18.802   0.051
84687W        W55287  35.981  38.571  12.111
84688W        W55288   6.772  13.846   3.731
84689W        W55289   9.855  15.954   4.974
84690W        W55290   9.400  22.774  13.446
84691W        W55291  14.192   6.227   2.518
84692W        W55292  30.614  13.883  14.003
84693W        W55293  26.255  39.811  14.849
84694W        W55294   9.211  34.594   4.554
84695W        W55295  28.520  37.616   4.206
84696W        W55296  35.520  21.804   1.359
84697W        W55297  43.500  17.789   3.428
84698W        W55298  18.550  15.104   3.167
84699W        W55299  29.246  12.837   2.792
84700W        W55300   3.241  42.177  14.874
84701W        W55301  25.744  18.327   1.648
84702W        W55302  26.910  42.473  12.057
84703W        W55303  34.143  28.582   3.678
84704W        W55304  31.601  28.012  14.915
84705W        W55305  19.501  43.924   0.902
84706W        W55306  22.176  38.396   2.824
84707W        W55307   7.329  31.706   1.290
84708W        W55308  33.545  38.860  10.908
84709W        W55309  26.091   9.423   1.298
84710W        W55310   9.167   8.325  10.768
84711W        W55311  20.304   8.423  11.837
84712W        W55312  14.935  18.539   0.296
84713W        W55313  38.763  36.773  13.570
84714W        W55314  11.737  27.754   4.072
84715W        W55315   4.776  12.934  14.027
84716W        W55316  35.439   3.433  10.987
84717W        W55317  23.482  31.020   1.814
84718W        W55318   9.802  31.715  10.433
84719W        W55319  32.893  32.821   4.541
84720W        W55320  24.525  11.801  10.670
84721W        W55321  27.050   6.315   4.398
84722W        W55322  13.327   0.327  10.961
84723W        W55323  32.180   9.373   3.341
84724W        W55324  26.996  11.756   4.279
84725W        W55325  27.498  37.435  10.897
84726W        W55326  14.662  15.718  12.129
84727W        W55327   2.333   7.418   3.221
84728W        W55328  44.740   4.648  12.095
84729W        W55329  22.329  34.323   1.191
84730W        W55330  15.686  17.629   4.077
84731W        W55331  36.974  33.365   2.728
84732W        W55332  16.696  10.044  12.461
84733W        W55333   8.829   6.688  11.163
84734W        W55334  19.399  31.139  11.905
84735W        W55335  40.395  36.925   4.142
84736W        W55336   9.446  26.290   2.494
84737W        W55337   3.413   4.956   2.524
84738W        W55338  21.624  40.359  10.265
84739W        W55339  42.119   4.746   1.002
84740W        W55340  37.923  36.325  11.155
84741W        W55341  11.796  34.398   4.857
84742W        W55342  21.308  16.107   0.537
84743W        W55343  39.313  31.920  14.467
84744W        W55344  24.518   2.371   1.325
84745W        W55345   3.230   5.932   2.403
84746W        W55346  23.475  33.985  12.583
84747W        W55347  27.054  42.205   2.715
84748W        W55348   9.229  23.230   2.012
84749W        W55349  27.020  24.893   1.372
84750W        W55350   2.891  44.860  12.093
84751W        W55351  37.916   3.275  10.131
84752W        W55352  23.777  24.154  14.057
84753W        W55353  37.370  17.840   4.337
84754W        W55354   1.240  37.410   3.147
84755W        W55355  37.327  20.071  11.831
84756W        W55356  37.080  37.550  14.960
84757W        W55357  11.650  13.736   1.412
84758W        W55358  13.200  25.678   3.170
84759W        W55359  32.050  43.072   1.809
84760W        W55360  12.881  25.681  12.204
84761W        W55361  33.131  21.533   4.107
84762W        W55362  22.387   9.725  10.392
84763W        W55363   5.391  30.615  14.903
84764W        W55364  39.111  43.766   3.794
84765W        W55365  15.354   2.084   2.756
84766W        W55366  17.167  14.636  13.619
84767W        W55367  26.154  16.381   4.766
84768W        W55368  35.984  25.645  12.795
84769W        W55369  29.392  11.836  14.019
84770W        W55370  12.674  37.660  11.887
84771W        W55371   4.981  36.362   1.744
84772W        W55372  13.750  22.546   2.260
84773W        W55373  23.003  37.480  12.979
84774W        W55374  29.154  37.279   2.989
84775W        W55375  10.165   3.858   1.572
84776W        W55376   2.860  35.984   2.207
84777W        W55377   2.772  31.166  14.011
84778W        W55378  31.512  41.532   2.366
84779W        W55379   3.966  38.639  13.367
84780W        W55380   3.193  16.626  13.095
84781W        W55381  19.186  24.450  12.386
84782W        W55382  38.213  30.710   0.284
84783W        W55383   4.379  34.898   2.766
84784W        W55384  12.255  36.354   3.758
84785W        W55385  35.155  16.753  11.967
84786W        W55386  12.261   4.941   3.118
84787W        W55387  29.635  23.713  11.595
84788W        W55388   3.939  36.331   0.199
84789W        W55389  38.924  22.076  11.715
84790W        W55390   0.009   8.656  12.344
84791W        W55391  18.615  32.724  11.158
84792W        W55392  44.763  22.114   2.753
84793W        W55393   9.615  41.933  11.027
84794W        W55394   4.655  42.598  10.301
84795W        W55395  20.641  26.063  13.999
84796W        W55396   9.659  17.118   1.744
84797W        W55397  28.535  37.317   2.188
84798W        W55398  33.040  44.518   4.414
84799W        W55399  34.996  20.155  12.038
84800W        W55400  27.233  41.589  14.379
84801W        W55401   5.667  42.472  13.873
84802W        W55402  32.355   5.112   3.410
84803W        W55403  11.299  20.018   0.338
84804W        W55404  37.482   7.518   0.835
84805W        W55405  20.569  10.768   1.728
84806W        W55406  27.485   3.284   3.794
84807W        W55407  36.736  37.110   3.697
84808W        W55408  30.074  21.775   1.682
84809W        W55409  28.192  20.608   4.724
84810W        W55410  32.637  43.641   1.224
84811W        W55411   8.676  30.986   3.602
84812W        W55412   0.919  10.369  13.802
84813W        W55413  31.645   4.485  11.565
84814W        W55414  43.533  13.693   3.591
84815W        W55415  20.000   7.252   2.794
84816W        W55416  21.652  13.829   0.922
84817W        W55417   7.600  37.168  10.336
84818W        W55418  11.069  21.617  14.299
84819W        W55419   2.956  23.487   2.079
84820W        W55420  19.623  16.074   1.961
84821W        W55421  40.743   0.259  14.102
84822W        W55422   9.324  43.343  12.962
84823W        W55423  35.941  38.950   1.950
84824W        W55424  33.961  35.357   4.017
84825W        W55425  12.737  19.360  13.444
84826W        W55426  30.590  33.038  11.994
84827W        W55427   8.573  25.630  14.022
84828W        W55428   8.345  20.986   2.229
84829W        W55429  42.793  22.240   4.536
84830W        W55430  34.503   6.429   4.451
84831W        W55431  30.998  37.915  11.173
84832W        W55432  19.768  21.490   1.429
84833W        W55433  14.851  12.285   1.160
84834W        W55434  27.888  12.727  12.549
84835W        W55435  39.854  43.296  11.835
84836W        W55436  29.414   5.765  12.967
84837W        W55437  41.245  11.712  13.541
84838W        W55438  35.615  41.464   4.544
84839W        W55439   8.835  36.601   0.930
84840W        W55440  17.458  33.708  14.465
84841W        W55441   6.224   8.842   4.994
84842W        W55442  35.369   3.298   2.434
84843W        W55443  10.787  20.651  12.428
84844W        W55444  10.305  26.668  10.810
84845W        W55445  18.654  13.783   3.578
84846W        W55446  38.302  17.193  13.822
84847W        W55447   9.951  41.369  13.558
84848W        W55448   2.929   2.401   0.275
84849W        W55449  32.667  33.610   4.224
84850W        W55450  43.967  12.166  11.955
84851W        W55451   4.919  16.608   4.167
84852W        W55452  35.374  42.044   2.648
84853W        W55453  29.686   0.888  14.240
84854W        W55454  19.291  42.753  12.776
84855W        W55455   7.952  39.521   2.862
84856W        W55456  33.899  16.764  10.868
84857W        W55457  14.348   3.391  14.160
84858W        W55458  13.940  22.748  13.373
84859W        W55459  24.595  16.593   0.362
84860W        W55460  18.065  15.572  14.166
84861W        W55461  34.934  40.755   0.766
84862W        W55462   7.853  39.890  13.887
84863W        W55463  32.464   9.275   0.347
84864W        W55464   0.141   3.737   1.625
84865W        W55465  34.936  22.247  14.466
84866W        W55466  42.411   2.046   2.925
84867W        W55467  38.620  41.958  12.619
84868W        W55468  43.440  40.589  12.907
84869W        W55469  33.751  13.654   2.688
84870W        W55470  44.715  17.236   2.767
84871W        W55471  11.624   7.765   2.938
84872W        W55472  37.581  16.239  11.093
84873W        W55473  24.229  23.541   0.878
84874W        W55474  28.496   3.661  10.538
84875W        W55475  11.950  28.995  14.104
84876W        W55476  29.138  22.442   4.849
84877W        W55477  10.630  16.932   4.434
84878W        W55478  40.845  25.485  12.941
84879W        W55479  34.831   6.273  14.090
84880W        W55480  34.402  34.389  10.678
84881W        W55481  14.294   6.612  11.169
84882W        W55482  15.519  11.325   3.797
84883W        W55483  29.124  16.155  12.534
84884W        W55484  39.931  11.871   4.365
84885W        W55485  25.718  13.631   2.382
84886W        W55486  21.109  37.113   4.551
84887W        W55487  12.706  32.239   3.315
84888W        W55488  24.195   8.751   2.301
84889W        W55489   9.276  10.726  11.889
84890W        W55490  39.476  25.901  13.109
84891W        W55491  27.011  40.120  12.813
84892W        W55492  30.812  30.398  13.979
84893W        W55493  31.609  31.003  12.532
84894W        W55494  15.177  18.042   0.205
84895W        W55495  32.753   4.192   1.744
84896W        W55496   9.417   0.460   1.815
84897W        W55497  44.056  29.494  13.410
84898W        W55498  44.217  28.073   0.269
84899W        W55499  37.120  14.799   1.841
84900W        W55500  39.616  16.140  14.360
84901W        W55501  37.551  32.124  13.484
84902W        W55502  18.258  36.403   3.676
84903W        W55503  39.599   9.876   2.900
84904W        W55504  14.449  23.757  11.989
84905W        W55505   5.338   4.000   2.855
84906W        W55506  39.242  44.453  14.328
84907W        W55507  37.607  42.456   0.389
84908W        W55508  14.904  39.708  11.169
84909W        W55509  32.163  17.349   4.096
84910W        W55510  35.002   8.708  12.326
84911W        W55511   2.676   4.303  13.849
84912W        W55512  14.772  19.153  13.940
84913W        W55513  36.099  22.816  13.019
84914W        W55514  31.645  33.865   1.905
84915W        W55515  31.659  43.420   1.815
84916W        W55516  32.928  13.424  14.238
84917W        W55517  27.857  30.904   0.778
84918W        W55518   6.669  19.248   4.731
84919W        W55519   8.793   5.916   4.574
84920W        W55520  27.965  17.869   3.581
84921W        W55521  14.779   8.766  11.739
84922W        W55522  24.443  32.508   1.988
84923W        W55523  39.038   6.832  14.115
84924W        W55524  22.028  42.554   2.792
84925W        W55525  44.365  30.368   4.933
84926W        W55526  44.248  31.448   3.562
84927W        W55527  30.973   6.144  10.761
84928W        W55528  12.189   5.763   3.803
84929W        W55529  13.120   3.138   3.186
84930W        W55530  10.647   7.732   1.965
84931W        W55531  41.275  13.170  13.012
84932W        W55532  13.017   5.795  13.798
84933W        W55533  43.842   3.265  12.959
84934W        W55534  39.708   4.595   3.750
84935W        W55535   2.165  35.502   4.150
84936W        W55536  19.154  44.489   1.517
84937W        W55537  29.057   6.592  12.128
84938W        W55538  40.930   7.442   1.711
84939W        W55539   3.500  10.157  10.758
84940W        W55540  44.321  44.021   4.388
84941W        W55541  27.529  33.411  12.056
84942W        W55542  20.222  22.811   0.952
84943W        W55543   9.238  10.390   0.942
84944W        W55544  38.289  44.858  12.118
84945W        W55545  43.720  37.938   1.572
84946W        W55546  20.482  38.395   4.594
84947W        W55547  39.173  14.831  14.878
84948W        W55548  42.952  23.762  14.012
84949W        W55549   3.831  30.992  10.537
84950W        W55550   3.221  35.534   2.314
84951W        W55551  26.185   0.312  10.460
84952W        W55552  36.479  22.001  14.883
84953W        W55553   7.594   9.331  14.437
84954W        W55554  12.609  21.920   4.143
84955W        W55555   2.464  10.611  11.947
84956W        W55556   6.385  43.863   4.655
84957W        W55557  31.144  25.443   2.270
84958W        W55558   4.926  19.303   2.317
84959W        W55559  24.723  26.036  14.906
84960W        W55560  21.358  16.665  10.093
84961W        W55561  39.615  17.905   0.030
84962W        W55562  32.183  20.222  10.764
84963W        W55563  13.555  17.707   4.585
84964W        W55564  10.885  22.110  14.326
84965W        W55565  38.677  22.792   1.796
84966W        W55566  36.468  18.773   0.325
84967W        W55567  33.588  17.082  13.492
84968W        W55568  37.975  13.369   3.730
84969W        W55569   7.347  11.335  12.074
84970W        W55570  40.578  35.535  12.370
84971W        W55571  32.866  30.131   2.722
84972W        W55572  25.625   0.687   4.402
84973W        W55573   3.240  10.874  11.203
84974W        W55574  42.861  43.816   2.363
84975W        W55575  10.315   2.330   3.582
84976W        W55576  28.330  40.475   3.793
84977W        W55577   6.464   5.505  12.023
84978W        W55578  15.237   8.151   2.425
84979W        W55579  41.905  13.876   1.342
84980W        W55580  27.635   0.034  12.313
84981W        W55581  29.689   1.591  11.132
84982W        W55582  13.281  39.008  13.861
84983W        W55583  13.250  39.502   2.505
84984W        W55584  25.561  35.000  10.631
84985W        W55585  10.818  39.494  12.635
84986W        W55586  24.008  35.749   0.636
84987W        W55587  33.253  11.529  14.398
84988W        W55588   1.795   5.906  14.002
84989W        W55589  10.770  16.662   3.177
84990W        W55590   2.478   3.359  12.939
84991W        W55591  19.128   8.456  11.934
84992W        W55592  15.188  43.970  14.390
84993W        W55593  21.622   5.881  10.616
84994W        W55594   7.142  37.451  14.888
84995W        W55595  12.250   5.273  12.411
84996W        W55596   7.675  37.099   2.306
84997W        W55597  33.562  30.672   0.488
84998W        W55598  36.550   0.647   0.542
84999W        W55599  44.680   5.975  11.702
85000W        W55600   3.430  15.231   4.155
85001W        W55601  24.874  27.975   4.756
85002W        W55602  26.819  32.989  11.486
85003W        W55603  34.417  40.559   1.985
85004W        W55604  26.394  10.269  14.389
85005W        W55605  27.129  25.500   4.168
85006W        W55606   2.096  38.886   4.115
85007W        W55607  25.034  17.325   0.212
85008W        W55608   3.918  24.696  11.130
85009W        W55609  26.015  37.602   0.315
85010W        W55610  38.595  10.102   1.620
85011W        W55611   5.449  33.961  12.562
85012W        W55612  38.778  29.620   1.533
85013W        W55613  33.719  39.820   2.736
85014W        W55614  43.383  28.593   4.587
85015W        W55615  44.928  14.189  13.551
85016W        W55616  10.301  28.974   0.372
85017W        W55617  33.745  25.171  12.051
85018W        W55618  29.389  44.785  10.862
85019W        W55619   6.304   9.550   0.361
85020W        W55620  13.234  38.341   3.649
85021W        W55621   4.627  22.282  14.322
85022W        W55622  43.853  38.926  14.842
85023W        W55623  10.952  12.643   1.765
85024W        W55624  14.425  19.958  12.182
85025W        W55625   6.506  41.464  11.042
85026W        W55626   6.143   8.789   1.429
85027W        W55627  44.572  28.590  13.987
85028W        W55628  26.981  37.396  11.030
85029W        W55629  42.817  34.456  14.017
85030W        W55630  12.593  30.156   1.964
85031W        W55631  11.737  20.670   2.362
85032W        W55632  25.968  39.996   3.105
85033W        W55633  10.694  38.515  12.740
85034W        W55634  23.347   9.867   0.123
85035W        W55635  17.738  33.639  14.889
85036W        W55636  39.109  32.616  14.936
85037W        W55637  22.640   3.953   4.878
85038W        W55638  40.213  43.875   0.842
85039W        W55639  38.336  42.262  12.274
85040W        W55640  13.740   5.229   1.465
85041W        W55641  26.828  32.423   2.576
85042W        W55642  14.296  25.164  11.610
85043W        W55643   5.880  31.915  14.381
85044W        W55644  17.256  42.768   0.352
85045W        W55645   1.464  15.101  11.609
85046W        W55646   3.932  25.463   3.781
85047W        W55647  21.522  30.387  13.122
85048W        W55648  16.648  32.931  14.029
85049W        W55649  17.234   7.380   1.146
85050W        W55650  27.952  30.129   3.795
85051W        W55651  40.791  17.308   4.698
85052W        W55652  35.486  28.898   2.314
85053W        W55653  32.258  41.333   5.570
85054W        W55654  19.442  28.532   2.885
85055W        W55655  27.496  13.709  10.879
85056W        W55656  10.086  30.899   4.033
85057W        W55657  28.040  18.657  10.125
85058W        W55658  31.051   5.256   2.196
85059W        W55659  39.799  20.728  14.848
85060W        W55660  15.420  37.465   2.014
85061W        W55661  11.453  11.770  14.888
85062W        W55662  14.878  41.582  14.513
85063W        W55663   5.475   3.774   4.731
85064W        W55664  43.772  12.873   0.691
85065W        W55665  20.472  26.038  11.700
85066W        W55666   6.911  44.725   0.391
85067W        W55667   3.448  18.764   4.644
85068W        W55668  43.243  26.147   2.419
85069W        W55669  15.105  10.479   1.331
85070W        W55670  44.296  11.806   1.854
85071W        W55671  44.880  23.056  14.888
85072W        W55672  16.320   5.807   0.175
85073W        W55673  21.752  32.343  14.864
85074W        W55674   2.278  38.488   1.608
85075W        W55675   8.883  26.045   4.998
85076W        W55676  19.308   3.462   2.919
85077W        W55677  16.716  33.456  12.077
85078W        W55678  20.679   4.779  14.758
85079W        W55679  15.135   1.689   4.561
85080W        W55680  11.344  15.816   0.846
85081W        W55681  12.251  10.802  13.425
85082W        W55682  38.077  14.426   4.584
85083W        W55683  33.651   0.254   1.135
85084W        W55684  43.363  28.906  14.545
85085W        W55685  37.838  39.730  14.078
85086W        W55686  44.307  30.922  14.784
85087W        W55687  33.435   0.416  13.824
85088W        W55688  20.062  14.800  10.641
85089W        W55689  42.959  11.150  10.670
85090W        W55690  11.546  17.601  13.902
85091W        W55691  23.037  23.594  14.196
85092W        W55692  40.840  33.638   2.071
85093W        W55693   2.800  44.024  13.805
85094W        W55694  27.659  44.415   2.695
85095W        W55695   2.239   2.479   4.191
85096W        W55696  43.263   2.869  10.722
85097W        W55697  27.833  38.338   0.581
85098W        W55698  34.980   7.056  12.047
85099W        W55699   4.867  30.124  13.423
85100W        W55700  22.106  44.788   3.389
85101W        W55701  18.676  16.786   2.374
85102W        W55702  35.140   5.282  14.480
85103W        W55703  26.150   3.161   1.647
85104W        W55704  40.968  42.141   4.245
85105W        W55705   2.559  38.834   4.365
85106W        W55706  21.346  16.349   4.216
85107W        W55707  24.256   2.709   5.083
85108W        W55708  17.490   1.123  11.268
85109W        W55709   3.646  13.175  12.523
85110W        W55710  44.361  12.120  13.422
85111W        W55711  15.587  31.351  13.146
85112W        W55712  22.747  13.879  12.529
85113W        W55713  44.345  17.984   4.763
85114W        W55714  19.341  10.536  11.872
85115W        W55715  14.223  19.822  14.978
85116W        W55716   0.986  13.812  14.305
85117W        W55717   1.287  10.892  13.222
85118W        W55718  38.819  40.483  11.202
85119W        W55719  37.786  11.785   1.386
85120W        W55720   2.679  21.513  13.856
85121W        W55721   2.357  24.897  10.499
85122W        W55722   7.613  15.063   0.866
85123W        W55723   9.118   7.769  11.936
85124W        W55724  36.854  44.591  11.536
85125W        W55725  21.715  16.828   3.187
85126W        W55726  14.299  42.348   2.664
85127W        W55727   8.048   3.063  10.972
85128W        W55728  39.853  37.744   2.295
85129W        W55729  17.488  29.409   2.167
85130W        W55730  27.966   1.854   2.388
85131W        W55731  21.295  25.971   0.400
85132W        W55732  17.188  37.848   4.069
85133W        W55733  26.752  18.070  13.917
85134W        W55734  15.283  12.665   2.687
85135W        W55735   7.171   1.747   4.121
85136W        W55736   6.341  33.029   4.632
85137W        W55737  23.249  33.932  11.020
85138W        W55738  32.621   1.159  12.591
85139W        W55739  29.360  29.321   3.552
85140W        W55740  32.885  16.546  11.467
85141W        W55741  17.252   3.411  13.852
85142W        W55742  43.071  21.982   2.806
85143W        W55743  38.355  26.064  13.581
85144W        W55744  40.043  10.486   3.420
85145W        W55745  43.830   2.926   4.587
85146W        W55746  35.977  32.224   1.727
85147W        W55747  20.090  35.532  12.027
85148W        W55748  39.022   0.376  13.099
85149W        W55749  40.956  29.526   3.879
85150W        W55750   0.941  21.052  14.281
85151W        W55751  34.579  42.226   0.081
85152W        W55752  40.725  43.175  12.926
85153W        W55753  38.929  43.824   2.293
85154W        W55754  34.827  24.083  13.086
85155W        W55755   8.946  29.944  12.541
85156W        W55756  41.128  31.015  12.042
85157W        W55757  35.018  14.247  11.726
85158W        W55758  11.149  26.705  12.931
85159W        W55759  24.675   4.661   4.204
85160W        W55760  20.233  43.468  10.652
85161W        W55761  11.950   6.911  11.159
85162W        W55762   4.992  40.215   2.487
85163W        W55763  39.732   6.228   1.258
85164W        W55764  16.630  35.497   5.002
85165W        W55765  22.785  26.275   5.115
85166W        W55766   7.729  32.938   4.886
85167W        W55767  27.138  27.388   4.056
85168W        W55768  27.542  40.307  12.145
85169W        W55769  31.559  30.558  12.859
85170W        W55770   0.380  35.619   1.278
85171W        W55771  22.547  26.466  12.462
85172W        W55772  28.781  28.883   2.257
85173W        W55773  22.533  28.149   2.285
85174W        W55774  37.029  25.201   4.635
85175W        W55775  16.183   5.297  12.150
85176W        W55776  36.594  25.461  11.651
85177W        W55777  19.162  33.667   3.224
85178W        W55778  42.807  16.025  11.184
85179W        W55779  15.709  40.265   0.774
85180W        W55780  31.585  10.102   3.635
85181W        W55781  24.101  33.381  13.615
85182W        W55782  31.923  24.950   3.817
85183W        W55783  14.195  44.221  12.488
85184W        W55784  13.872  37.019   3.878
85185W        W55785  33.007  43.416  10.603
85186W        W55786  34.038  33.561  14.524
85187W        W55787  35.449  28.590   0.426
85188W        W55788  38.852   7.018  13.312
85189W        W55789  38.131  41.345   2.290
85190W        W55790  20.246  15.628   3.047
85191W        W55791  21.090  40.146  11.154
85192W        W55792  34.321   3.927  14.241
85193W        W55793  43.298  31.574   2.360
85194W        W55794   3.381  32.031  13.437
85195W        W55795  17.309  23.962  11.167
85196W        W55796  25.470  41.478   1.277
85197W        W55797  26.556  10.852   0.160
85198W        W55798  43.846  27.245   4.828
85199W        W55799  11.253  17.478  12.428
85200W        W55800   1.940  34.152   1.840
85201W        W55801   0.087  35.062  13.609
85202W        W55802  44.667   4.386   3.894
85203W        W55803  30.466  22.641  13.529
85204W        W55804   6.398  28.183   1.369
85205W        W55805  38.909  43.633  11.637
85206W        W55806  18.560  23.255   0.072
85207W        W55807  23.043  19.451  12.837
85208W        W55808  31.420  44.889  14.484
85209W        W55809   0.019  23.231  14.159
85210W        W55810  24.695  14.403  11.531
85211W        W55811  38.331  21.724   1.715
85212W        W55812  19.522  25.623   1.656
85213W        W55813  17.029   6.830  11.962
85214W        W55814   2.333   8.940  11.228
85215W        W55815   4.394  15.823   0.075
85216W        W55816  38.917  39.301   1.793
85217W        W55817  13.646  44.983   0.688
85218W        W55818  27.666  14.891   4.352
85219W        W55819  23.915  11.912   2.041
85220W        W55820   9.252  13.875   1.680
85221W        W55821   3.708  31.462  12.136
85222W        W55822   7.782  12.556  10.505
85223W        W55823  16.271  31.835   0.801
85224W        W55824  18.730  32.938  12.842
85225W        W55825  44.393  14.345   4.087
85226W        W55826  12.852  34.628   3.534
85227W        W55827  27.018  36.630  14.489
85228W        W55828   3.294  31.132   2.033
85229W        W55829  30.373  42.951  12.390
85230W        W55830  17.534  32.011  11.635
85231W        W55831  30.174  28.660   3.197
85232W        W55832  23.213   5.217   0.994
85233W        W55833  41.399  24.974   4.541
85234W        W55834   8.415  12.096  10.691
85235W        W55835  14.319  15.770  12.496
85236W        W55836  29.142  38.208  12.553
85237W        W55837  40.567  33.480  10.743
85238W        W55838  40.862  38.227  14.401
85239W        W55839  11.738  33.472   2.220
85240W        W55840  20.271  39.024  13.371
85241W        W55841  22.654  14.886   2.360
85242W        W55842  23.706   2.744   1.783
85243W        W55843   7.201   8.203  13.921
85244W        W55844  11.830   4.228  12.446
85245W        W55845  42.337  37.982   4.587
85246W        W55846  44.912   5.504   3.280
85247W        W55847   3.666  14.596   1.822
85248W        W55848  28.785  22.084  14.226
85249W        W55849   7.975  24.646   0.345
85250W        W55850   0.292   3.170  13.092
85251W        W55851  26.898  12.321   3.800
85252W        W55852  11.623  40.307   1.237
85253W        W55853   0.192  16.746  14.475
85254W        W55854  30.193  12.100  11.034
85255W        W55855  26.149   5.430  14.336
85256W        W55856  26.711  44.006  13.536
85257W        W55857   9.539  17.101   0.863
85258W        W55858  21.274  25.669  14.385
85259W        W55859  21.963   7.898   0.471
85260W        W55860   4.190  14.434  12.784
85261W        W55861  32.085   8.814  14.347
85262W        W55862  25.141   8.657  13.495
85263W        W55863  33.139  23.107   2.353
85264W        W55864  11.515  26.215  12.893
85265W        W55865   1.408  11.740   4.484
85266W        W55866   9.912  10.796   3.663
85267W        W55867  22.076  16.332   0.851
85268W        W55868  25.712  31.456   1.747
85269W        W55869  24.036   2.511   1.178
85270W        W55870   4.088  22.715   2.266
85271W        W55871  17.647   4.276  10.499
85272W        W55872   6.538  10.147   1.283
85273W        W55873   1.422  28.221   2.360
85274W        W55874   7.559  16.136   3.990
85275W        W55875  21.368  20.345  14.327
85276W        W55876  27.011  18.254  14.367
85277W        W55877   4.489  22.980   3.268
85278W        W55878  35.990  30.678   1.800
85279W        W55879   8.862  15.344   3.069
85280W        W55880  32.301  26.627  10.940
85281W        W55881  32.954   1.003  14.362
85282W        W55882  12.686  23.618   1.549
85283W        W55883  28.402  43.583  14.400
85284W        W55884   7.110   2.467  14.703
85285W        W55885  22.953  20.692  13.414
85286W        W55886  29.032  19.177   4.132
85287W        W55887  17.733  42.457   1.752
85288W        W55888  24.385   7.410   1.874
85289W        W55889  31.447  14.052  14.402
85290W        W55890  41.556  12.633  14.394
85291W        W55891  38.624  19.848  10.757
85292W        W55892  21.587  11.792   0.666
85293W        W55893  18.620  27.187   2.707
85294W        W55894  11.907  26.049  13.289
85295W        W55895  16.418  14.747  14.862
85296W        W55896  44.473   1.533  14.023
85297W        W55897  34.434  16.296   3.614
85298W        W55898  35.385   0.375   0.271
85299W        W55899   7.993  26.731   5.074
85300W        W55900  39.925  13.213   2.138
85301W        W55901  12.725  37.396   5.092
85302W        W55902  13.624  38.835  12.164
85303W        W55903  41.246  29.119   3.777
85304W        W55904  12.336  39.634  13.626
85305W        W55905  16.767  33.958  13.976
85306W        W55906   4.188   2.454  12.475
85307W        W55907  25.985   2.853   2.840
85308W        W55908  23.105  44.560  14.780
85309W        W55909  29.384  32.975   0.432
85310W        W55910  12.851  23.493   1.034
85311W        W55911  10.275  36.866  10.101
85312W        W55912  12.842  37.874  13.476
85313W        W55913   1.893  41.203  12.037
85314W        W55914  21.786  34.337  12.637
85315W        W55915  34.850  37.286  11.643
85316W        W55916  13.069   7.108  11.981
85317W        W55917  11.837   2.974  14.533
85318W        W55918   8.163  13.063   2.803
85319W        W55919  35.605  24.007  10.698
85320W        W55920  39.099   9.945   2.825
85321W        W55921  10.002  10.583   1.219
85322W        W55922  13.302  17.761   3.692
85323W        W55923  30.612  12.120   3.610
85324W        W55924  13.605   9.738   4.615
85325W        W55925  28.581  39.170   5.433
85326W        W55926  13.301  36.039   0.733
85327W        W55927  14.310  11.413  13.347
85328W        W55928  25.166  44.400  12.620
85329W        W55929  23.751  33.583  12.377
85330W        W55930  43.949  26.695  10.451
85331W        W55931  32.154   9.803   2.279
85332W        W55932  15.310  24.550  12.505
85333W        W55933  40.287  36.592  12.470
85334W        W55934  16.770  13.686  11.856
85335W        W55935   3.157  18.517  13.474
85336W        W55936  33.580  25.981  10.150
85337W        W55937  34.564  41.340   1.323
85338W        W55938   7.326  42.871  14.260
85339W        W55939  24.764   2.979  13.618
85340W        W55940   2.033  20.148  14.978
85341W        W55941   7.156  30.390  14.418
85342W        W55942  42.972  11.751   0.372
85343W        W55943   2.817   7.705  11.986
85344W        W55944  40.220   2.330  11.283
85345W        W55945  23.477  10.661  11.639
85346W        W55946  25.695  11.248  13.575
85347W        W55947  33.611  27.728  12.414
85348W        W55948  32.667  15.264   4.305
85349W        W55949  11.169  36.483  13.808
85350W        W55950  11.173  35.463   1.105
85351W        W55951   6.809  19.447   3.894
85352W        W55952  40.841  32.453  10.650
85353W        W55953   9.782  27.877   3.249
85354W        W55954  22.987  14.376   3.930
85355W        W55955  21.774  13.600  11.999
85356W        W55956  43.371   7.309   1.049
85357W        W55957  15.152  11.723   2.674
85358W        W55958  12.668  42.287   1.954
85359W        W55959   1.375  32.938  12.978
85360W        W55960  15.310   9.898  13.531
85361W        W55961  27.116  37.146  13.592
85362W        W55962  30.185   4.799   3.801
85363W        W55963   3.834  23.088   1.548
85364W        W55964   1.419  32.509   4.315
85365W        W55965   0.755   5.480   1.683
85366W        W55966  16.138  28.502  11.196
85367W        W55967  33.612  42.955  12.247
85368W        W55968  35.572  10.723   3.523
85369W        W55969  37.542  17.527  11.217
85370W        W55970  21.529  10.464   3.691
85371W        W55971  19.685  21.157   0.830
85372W        W55972   1.057   9.820   3.295
85373W        W55973  33.076  18.659   4.603
85374W        W55974  14.863  12.717   4.007
85375W        W55975  19.211   1.997   1.816
85376W        W55976   5.237  19.777   4.661
85377W        W55977   2.842   3.641   2.864
85378W        W55978  41.924   7.719  13.941
85379W        W55979   3.689   1.412   4.260
85380W        W55980  38.857  40.728  14.833
85381W        W55981  43.725  18.714   2.741
85382W        W55982   6.383  33.191  10.661
85383W        W55983  34.859   0.966   4.531
85384W        W55984  14.580  40.259  12.677
85385W        W55985  28.127  19.121   2.313
85386W        W55986  32.093  19.666   4.692
85387W        W55987  36.815  36.667  11.664
85388W        W55988  12.038  40.059   4.287
85389W        W55989   8.751  44.710  11.162
85390W        W55990  23.770  31.110  13.253
85391W        W55991   1.433   6.450  13.404
85392W        W55992  43.576  41.568  11.735
85393W        W55993  13.677  27.438   3.246
85394W        W55994   6.471   4.231  10.721
85395W        W55995  27.171  43.832  14.280
85396W        W55996  11.601  33.377   0.630
85397W        W55997   8.737  15.792   2.760
85398W        W55998  31.206  14.617  14.672
85399W        W55999  14.530  37.251  14.473
85400W        W56000   2.351   8.882  14.943
85401W        W56001  17.628  28.271   2.762
85402W        W56002  38.123  34.888   4.111
85403W        W56003  40.534  30.841   3.231
85404W        W56004  37.939  31.066  11.203
85405W        W56005  44.042  39.017   3.770
85406W        W56006  14.833  32.579   1.660
85407W        W56007   1.259  18.615   2.929
85408W        W56008  30.029  25.035  11.588
85409W        W56009  44.469  32.603   0.730
85410W        W56010   3.349  20.752   4.734
85411W        W56011   1.374  18.322   3.385
85412W        W56012  29.853   0.276  11.881
85413W        W56013   7.033   6.713  11.402
85414W        W56014   5.410  19.624   1.035
85415W        W56015  17.171  19.051   2.345
85416W        W56016  30.944  26.447   1.688
85417W        W56017  31.426  12.789  11.161
85418W        W56018  29.997  13.039   0.991
85419W        W56019  39.464  31.478  14.137
85420W        W56020   5.142  19.400   4.284
85421W        W56021  36.954  29.484   4.680
85422W        W56022  33.933   4.996  11.758
85423W        W56023  25.208  19.426  13.843
85424W        W56024   3.107  21.989  11.091
85425W        W56025   5.127   2.768   2.687
85426W        W56026  38.544  40.329  13.053
85427W        W56027  36.993  20.666  13.807
85428W        W56028  28.960  15.583  13.967
85429W        W56029  40.783  20.451   2.086
85430W        W56030  28.930   4.283   3.699
85431W        W56031  10.158  24.406  14.005
85432W        W56032  13.916  29.886   2.787
85433W        W56033  24.803  36.417  14.355
85434W        W56034  38.098   7.121   2.094
85435W        W56035  28.094  28.986   1.713
85436W        W56036  36.467   3.699   2.709
85437W        W56037  31.974  32.139  13.148
85438W        W56038   7.849   7.872  14.789
85439W        W56039  40.961  43.642   4.939
85440W        W56040  18.560   0.201  11.102
85441W        W56041   2.050  24.139   2.727
85442W        W56042  38.899  33.081  14.817
85443W        W56043  37.448  16.002   4.303
85444W        W56044   2.576  34.558  14.787
85445W        W56045  30.090  41.381   0.712
85446W        W56046   3.856  14.028   3.621
85447W        W56047  18.663  23.161   0.573
85448W        W56048  37.993  38.880  11.648
85449W        W56049  10.725  35.409  13.023
85450W        W56050  32.070  21.465   1.210
85451W        W56051  24.150   4.910  14.266
85452W        W56052  39.579  43.554  12.178
85453W        W56053  13.538  25.091   0.356
85454W        W56054   9.782  19.115   1.537
85455W        W56055  38.807  37.539  11.054
85456W        W56056  14.846   9.583   1.959
85457W        W56057  28.976  19.293  12.825
85458W        W56058  28.537   0.893   4.175
85459W        W56059  40.095  13.802   4.119
85460W        W56060  22.231  41.506  14.621
85461W        W56061  15.320   9.918   4.848
85462W        W56062  41.441  25.475  12.434
85463W        W56063  34.391  18.494   4.289
85464W        W56064   8.181  41.219  11.667
85465W        W56065   0.763   6.673  11.592
85466W        W56066   5.526   3.963   0.604
85467W        W56067  14.210   7.771   0.392
85468W        W56068  40.325  25.044  10.321
85469W        W56069  11.011  17.284   1.148
85470W        W56070  38.373  35.758  14.328
85471W        W56071   2.381  35.514   1.818
85472W        W56072  10.752   6.941  10.555
85473W        W56073  43.396  29.114  11.909
85474W        W56074  37.018  29.314  13.903
85475W        W56075  43.335  24.357   0.706
85476W        W56076  26.983  29.484   0.544
85477W        W56077  19.870  35.306   5.154
85478W        W56078  33.899  24.090   0.381
85479W        W56079  32.313  10.331   4.336
85480W        W56080  36.872  34.282  12.503
85481W        W56081  26.178  43.233   2.282
85482W        W56082  12.682  21.925  12.618
85483W        W56083  15.748  29.133   1.899
85484W        W56084  32.403  27.066  13.910
85485W        W56085  26.186  26.188   4.681
85486W        W56086  36.423  29.108   0.536
85487W        W56087  33.943  40.111  12.636
85488W        W56088  41.920  36.212  12.919
85489W        W56089  33.047  32.384   2.342
85490W        W56090  29.600  40.530   2.215
85491W        W56091  13.822  13.297  12.442
85492W        W56092   8.597  34.437   1.063
85493W        W56093  42.833  29.081   1.494
85494W        W56094  43.044  39.946   0.010
85495W        W56095  10.781   2.928   1.003
85496W        W56096  32.617  18.994  13.966
85497W        W56097  14.195  29.528   4.745
85498W        W56098  27.370  14.559   4.111
85499W        W56099  33.648  29.019  12.250
85500W        W56100   6.030  43.739   3.277
85501W        W56101   6.256   3.800  10.540
85502W        W56102  33.587  19.771  11.690
85503W        W56103  44.063  25.573  13.362
85504W        W56104  22.054  16.795  10.641
85505W        W56105  25.995  21.409   2.863
85506W        W56106   3.852   0.606   3.298
85507W        W56107   2.784   9.660   4.741
85508W        W56108  43.495  40.282   2.845
85509W        W56109   5.716  39.439   4.862
85510W        W56110   2.402   7.313  11.563
85511W        W56111  25.791   5.677   0.682
85512W        W56112  21.198   0.848  14.324
85513W        W56113  40.735  22.817   3.737
85514W        W56114  31.097  36.640   2.230
85515W        W56115  41.458   1.916  12.965
85516W        W56116  29.643  17.540   1.842
85517W        W56117  42.299  38.948  11.810
85518W        W56118  17.762  32.996   1.852
85519W        W56119  17.286  31.384   3.205
85520W        W56120  40.034  15.104   0.954
85521W        W56121   6.458  39.148  12.049
85522W        W56122  15.188  40.427  14.870
85523W        W56123   7.715   6.511  10.690
85524W        W56124   0.819  32.920   4.329
85525W        W56125  22.944   9.270   3.051
85526W        W56126  27.736  41.488  14.318
85527W        W56127  44.813   0.978  13.074
85528W        W56128  11.509  12.115   2.698
85529W        W56129   9.739  22.770  14.219
85530W        W56130  28.343  16.750   0.861
85531W        W56131  23.138  40.788   0.142
85532W        W56132   4.345  16.873   3.686
85533W        W56133  27.479  17.158  13.571
85534W        W56134  44.744  35.606   3.200
85535W        W56135   9.257  28.523  14.216
85536W        W56136  16.727  23.697   4.653
85537W        W56137  15.510  26.995   0.972
85538W        W56138  34.755  41.702   1.659
85539W        W56139  17.207  43.739   3.235
85540W        W56140  20.510  44.267  11.537
85541W        W56141  11.372  14.699   1.327
85542W        W56142  23.035  15.602  11.236
85543W        W56143  32.064   5.575   3.416
85544W        W56144  13.033   7.613  12.002
85545W        W56145  10.087  26.745  12.162
85546W        W56146  13.547  21.164   3.618
85547W        W56147  24.041  26.799  13.321
85548W        W56148   3.220  33.970   3.667
85549W        W56149  29.572  42.506  13.363
85550W        W56150  40.925  30.197   1.161
85551W        W56151  34.032  28.190  13.932
85552W        W56152  10.542  22.944  14.702
85553W        W56153   5.190  36.369   2.584
85554W        W56154  41.997  13.647  11.997
85555W        W56155  23.998  32.873  13.334
85556W        W56156   7.674  29.854   0.124
85557W        W56157  10.855   2.230  12.933
85558W        W56158   6.122  26.626  13.030
85559W        W56159  22.644   0.217  12.208
85560W        W56160   8.784   4.435   3.256
85561W        W56161  39.527  38.420  11.930
85562W        W56162   7.830   3.136  14.355
85563W        W56163  39.389  43.178  14.018
85564W        W56164  41.912   0.908   2.309
85565W        W56165  42.193   8.635   5.128
85566W        W56166  36.573  35.630  10.737
85567W        W56167  31.759  40.720  13.539
85568W        W56168  34.047   9.032   3.661
85569W        W56169  16.034  20.018  11.104
85570W        W56170  29.621  29.306  13.527
85571W        W56171  13.084  29.173  14.341
85572W        W56172  37.821  10.209  11.622
85573W        W56173   3.037  40.388  11.075
85574W        W56174  11.087  19.227   0.760
85575W        W56175  13.649  12.565  12.932
85576W        W56176  31.139  34.560  10.714
85577W        W56177  10.310  35.830  13.322
85578W        W56178   8.032  38.469   3.455
85579W        W56179  21.314  23.087  14.558
85580W        W56180   7.906  31.847   0.259
85581W        W56181  15.523   3.956  11.606
85582W        W56182  25.404  18.093   2.721
85583W        W56183  16.786  43.792  12.517
85584W        W56184  26.091   9.007   4.668
85585W        W56185   5.301  39.470   3.671
85586W        W56186  35.917  25.780  12.318
85587W        W56187  11.984   1.410   1.991
85588W        W56188  34.600   8.079   2.282
85589W        W56189  39.224  36.900   1.812
85590W        W56190  17.624  19.057   5.040
85591W        W56191   0.323  26.005  14.267
85592W        W56192  40.508  13.757  11.762
85593W        W56193  26.083  27.842  10.805
85594W        W56194  42.787  42.277   0.555
85595W        W56195  36.147   7.299  11.578
85596W        W56196  20.144  21.599  11.990
85597W        W56197   7.173  44.781  10.706
85598W        W56198  20.226  40.008   2.912
85599W        W56199  22.791  21.140  10.263
85600W        W56200   8.287  33.016  13.829
85601W        W56201  18.515  21.286   4.811
85602W        W56202  38.489  36.213  12.151
85603W        W56203  30.677  37.077   0.288
85604W        W56204  15.864  23.585   2.365
85605W        W56205  26.741  26.407  13.054
85606W        W56206  41.093  41.337   3.796
85607W        W56207  36.107  12.863   0.403
85608W        W56208  26.948  17.494  14.822
85609W        W56209  22.547   7.176   2.850
85610W        W56210  17.681   9.772   1.831
85611W        W56211   2.014  32.434   3.093
85612W        W56212   9.805   0.306   3.205
85613W        W56213   0.342   2.480   3.156
85614W        W56214  16.275   9.793   1.834
85615W        W56215  43.826  12.675  14.812
85616W        W56216  14.049   0.503  12.085
85617W        W56217  40.379  16.446  14.890
85618W        W56218  24.197  26.444   4.134
85619W        W56219  25.148  21.595   0.271
85620W        W56220  38.609  32.051  13.415
85621W        W56221  38.866   7.604  12.531
85622W        W56222   5.720  25.440  12.000
85623W        W56223  23.265   7.080  10.158
85624W        W56224   0.642  14.145  14.939
85625W        W56225  31.539  44.273   0.346
85626W        W56226  36.585   1.848   9.848
85627W        W56227  41.976  26.202  11.961
85628W        W56228  33.897   4.863   2.338
85629W        W56229  22.823  23.912   4.617
85630W        W56230  40.966  18.636   4.103
85631W        W56231   5.924  25.878  12.481
85632W        W56232  36.009   2.904  13.260
85633W        W56233   7.793   1.450  11.980
85634W        W56234  43.327  40.614   3.805
85635W        W56235  14.887  30.091   0.927
85636W        W56236   6.264  34.987  10.532
85637W        W56237  10.898  28.938   3.868
85638W        W56238  10.099   3.521   0.718
85639W        W56239   6.169  22.541   1.936
85640W        W56240  39.875  35.985  13.344
85641W        W56241   8.290  28.215  14.616
85642W        W56242  30.428  12.084  12.862
85643W        W56243  13.292  12.869   1.904
85644W        W56244  20.346  36.526   0.498
85645W        W56245  21.621  16.736  11.556
85646W        W56246  14.192  35.489   0.700
85647W        W56247  15.101  24.092   1.395
85648W        W56248  15.936  44.063   4.920
85649W        W56249  27.194  30.065   3.335
85650W        W56250  30.138  21.142  11.233
85651W        W56251   8.893  31.025   1.679
85652W        W56252  15.616  21.262  14.296
85653W        W56253  26.458  38.983  13.455
85654W        W56254  29.465  36.928  12.160
85655W        W56255  21.113  30.524  10.381
85656W        W56256  21.268  12.320   1.375
85657W        W56257   4.819  29.412  12.368
85658W        W56258  32.359  42.945  12.433
85659W        W56259  43.977  34.538  12.451
85660W        W56260  34.619  32.284  13.341
85661W        W56261  21.094   8.795  10.232
85662W        W56262  31.614  42.827  13.026
85663W        W56263  40.487  16.661  10.185
85664W        W56264  42.791  44.936   4.695
85665W        W56265  18.631  21.632  14.372
85666W        W56266  34.859  19.226   2.958
85667W        W56267   6.363   3.175   1.302
85668W        W56268  37.118   6.586  14.568
85669W        W56269  24.037   8.355  12.805
85670W        W56270  35.088  30.663  13.056
85671W        W56271  44.479  40.844   1.342
85672W        W56272  32.494  11.691   4.782
85673W        W56273  32.983  17.122   0.062
85674W        W56274  38.147  20.089   2.293
85675W        W56275  21.180  36.076   2.711
85676W        W56276   7.053  15.136   4.689
85677W        W56277  16.302  32.973   9.752
85678W        W56278  34.491  42.065  10.634
85679W        W56279  31.767  38.141   3.678
85680W        W56280  19.279  39.071   4.510
85681W        W56281  22.235  27.537   1.333
85682W        W56282  26.712  37.120   4.344
85683W        W56283  28.927  39.238   5.030
85684W        W56284   9.806  19.256  13.918
85685W        W56285  15.990  10.583   3.285
85686W        W56286  30.048   3.289  13.380
85687W        W56287  31.025  16.090  13.725
85688W        W56288  32.511  10.470  12.631
85689W        W56289  25.368   2.102  10.844
85690W        W56290  10.084  28.728  13.260
85691W        W56291  33.047  37.640  12.052
85692W        W56292  29.528  12.805   0.941
85693W        W56293  36.066   3.309  13.999
85694W        W56294   2.183  42.675  12.022
85695W        W56295  18.639  43.014   5.163
85696W        W56296  28.262   0.848   2.802
85697W        W56297   2.951  43.794  12.855
85698W        W56298  17.247  41.738   1.252
85699W        W56299  21.456  41.331   4.201
85700W        W56300  44.406  28.568  11.626
85701W        W56301   2.971   7.959  13.381
85702W        W56302   5.453  40.397   2.922
85703W        W56303  13.061  13.071  13.562
85704W        W56304   7.725   6.385  12.552
85705W        W56305   3.477   1.219  14.380
85706W        W56306   2.955  21.636   0.921
85707W        W56307  31.700  23.009   3.680
85708W        W56308  10.292  12.258   0.706
85709W        W56309  14.941  33.809  10.810
85710W        W56310  40.383   1.525   0.863
85711W        W56311  39.765   7.928  11.872
85712W        W56312  10.377  29.489  13.373
85713W        W56313   9.233  28.182   0.002
85714W        W56314   4.714  33.286   3.254
85715W        W56315   0.845  15.541  12.564
85716W        W56316  14.756   3.552   1.797
85717W        W56317  37.036  28.538   4.557
85718W        W56318   3.816  41.460  13.063
85719W        W56319  29.796  29.922  12.981
85720W        W56320  25.160   5.751   1.351
85721W        W56321  19.755  28.186  12.360
85722W        W56322   6.635  38.509   0.478
85723W        W56323  27.131  22.662  13.931
85724W        W56324  30.079  28.889   3.663
85725W        W56325   8.209   4.893   3.893
85726W        W56326  18.477   7.163   2.711
85727W        W56327   1.166  30.073   4.554
85728W        W56328  40.491   2.850   5.222
85729W        W56329   1.903   3.561  11.192
85730W        W56330  31.445  25.323  10.691
85731W        W56331  40.900  30.427   0.705
85732W        W56332  33.001  21.880   0.772
85733W        W56333   2.457   2.248   3.074
85734W        W56334  12.192  16.571  10.590
85735W        W56335  24.454   7.361   4.369
85736W        W56336  31.556  10.168  14.556
85737W        W56337  16.692   8.696   2.597
85738W        W56338  23.480  25.166  12.517
85739W        W56339  33.016  10.633   2.122
85740W        W56340  36.553   5.388  12.892
85741W        W56341   1.829  36.136   3.707
85742W        W56342  38.346  41.884  11.364
85743W        W56343  23.377  12.304   1.400
85744W        W56344  42.884   9.145   4.724
85745W        W56345   9.761  25.460   3.749
85746W        W56346  16.213  38.269  11.204
85747W        W56347   4.258  18.677   3.457
85748W        W56348  31.631   4.879  11.099
85749W        W56349   7.287   3.343   4.747
85750W        W56350   3.921  26.235   1.959
85751W        W56351  27.534  23.836   0.408
85752W        W56352  40.576  31.296  13.071
85753W        W56353   4.148   9.111   1.891
85754W        W56354  33.173  14.066  10.604
85755W        W56355  14.287  34.138   0.878
85756W        W56356   3.502  14.805  14.024
85757W        W56357   5.791  23.589   3.546
85758W        W56358  27.811   6.001   2.779
85759W        W56359   6.758  30.734  14.586
85760W        W56360   7.450  20.123  14.729
85761W        W56361  29.715   9.439  11.185
85762W        W56362  32.752  11.244   1.461
85763W        W56363  34.009  43.943   4.529
85764W        W56364  44.774   7.051   1.704
85765W        W56365  10.140  19.189   1.183
85766W        W56366  28.081   7.356  11.548
85767W        W56367   6.710   3.253  12.913
85768W        W56368  42.749  15.765   0.003
85769W        W56369  32.450   2.986   0.070
85770W        W56370  22.143   9.625   1.878
85771W        W56371  17.217  44.888  14.317
85772W        W56372  42.480  39.016  10.639
85773W        W56373  42.976   7.986  11.922
85774W        W56374  41.134  19.603  10.796
85775W        W56375  25.123  11.864   3.642
85776W        W56376  36.434  39.483   2.213
85777W        W56377  43.523  13.790  11.131
85778W        W56378  23.353   2.845   4.709
85779W        W56379  16.035  26.969   0.947
85780W        W56380  25.518  43.132  14.050
85781W        W56381  36.314  17.723   0.939
85782W        W56382  11.379  37.553  11.235
85783W        W56383   7.702  23.575   4.002
85784W        W56384  28.484  19.818   1.860
85785W        W56385  18.167  10.996  14.330
85786W        W56386  33.812  42.972  14.998
85787W        W56387  38.732  30.585   1.458
85788W        W56388  38.124  32.604   0.878
85789W        W56389  34.432  26.959   1.416
85790W        W56390  26.532  22.763  12.988
85791W        W56391  21.081  37.765  10.419
85792W        W56392  40.957  35.537   1.304
85793W        W56393  26.765  10.364  10.284
85794W        W56394   7.324  15.772  11.235
85795W        W56395   0.973   2.371   2.303
85796W        W56396  40.805   7.673  12.512
85797W        W56397  25.960  22.550  12.096
85798W        W56398  25.656  30.509   2.811
85799W        W56399  12.661   6.172  10.537
85800W        W56400  44.014   8.938   3.761
85801W        W56401   4.902  15.296   4.006
85802W        W56402  35.132   3.224   5.079
85803W        W56403  35.992  27.785  13.876
85804W        W56404  44.522  36.634  10.682
85805W        W56405  16.634  28.888  14.973
85806W        W56406   1.853  20.420  12.051
85807W        W56407  26.947  12.354  11.168
85808W        W56408  44.276  33.535  10.982
85809W        W56409  20.169  43.027  13.666
85810W        W56410   8.667  36.084   3.705
85811W        W56411  39.787  34.461   1.360
85812W        W56412  42.723   2.396   4.936
85813W        W56413  41.526   8.788  11.892
85814W        W56414   1.492  13.592   1.716
85815W        W56415   8.308  12.934  14.469
85816W        W56416  21.189  30.862  14.496
85817W        W56417  40.097  29.377  12.036
85818W        W56418  27.785   6.987   0.352
85819W        W56419   6.932  11.045  12.189
85820W        W56420  27.234  39.351  12.452
85821W        W56421  22.291   9.143   0.690
85822W        W56422   8.889   5.886  12.741
85823W        W56423  34.475   0.321   1.379
85824W        W56424  20.544   5.917  13.876
85825W        W56425   4.323  31.913  12.047
85826W        W56426  29.113   6.189   3.677
85827W        W56427  36.553  22.402  10.649
85828W        W56428  29.977  19.109  13.555
85829W        W56429  34.617  20.481  12.137
85830W        W56430  29.479  11.873   1.362
85831W        W56431   4.334  30.860   3.342
85832W        W56432  44.171  35.278  10.958
85833W        W56433  30.997  37.433   3.210
85834W        W56434  37.312  21.044   2.834
85835W        W56435   7.402   5.031   2.388
85836W        W56436  19.095   4.903   4.630
85837W        W56437  24.101  10.279  14.939
85838W        W56438  35.027   8.239  12.045
85839W        W56439  14.768  17.529  13.008
85840W        W56440  28.000  23.748  12.138
85841W        W56441   3.805  23.168  14.871
85842W        W56442  34.133   1.414  12.615
85843W        W56443  18.726  14.234  11.731
85844W        W56444  21.384  33.945   4.972
85845W        W56445  30.977  27.448  12.217
85846W        W56446  43.468  37.038  13.472
85847W        W56447   1.251  23.705  11.122
85848W        W56448  34.407  44.372  11.501
85849W        W56449   6.668  33.682  12.026
85850W        W56450   6.515  17.558  12.490
85851W        W56451  16.609   9.992  13.879
85852W        W56452   6.143   0.459   3.023
85853W        W56453  44.290  27.565  13.392
85854W        W56454  12.319   9.565   2.220
85855W        W56455  42.345  43.270   1.879
85856W        W56456  10.913  28.703   3.369
85857W        W56457   8.182   9.748   2.736
85858W        W56458  23.502   8.877  14.267
85859W        W56459   1.345   1.358  12.527
85860W        W56460  34.694  13.194  10.678
85861W        W56461  24.996   3.338  13.139
85862W        W56462  15.597  14.749  14.441
85863W        W56463  37.988  26.496  11.195
85864W        W56464   4.667  15.822   1.345
85865W        W56465  31.479   8.831  11.026
85866W        W56466  35.593  43.051   4.457
85867W        W56467  16.518  16.395   4.531
85868W        W56468  25.605  31.189   2.199
85869W        W56469  14.848  38.334   0.917
85870W        W56470  37.437  28.390  11.156
85871W        W56471  22.689  13.461   2.378
85872W        W56472  40.765  13.432   2.882
85873W        W56473  23.272   6.475  11.208
85874W        W56474  15.999  32.602   5.123
85875W        W56475  13.284  14.206   3.469
85876W        W56476  33.861   1.479   1.706
85877W        W56477  37.297  15.677   3.118
85878W        W56478  17.820  42.239  14.098
85879W        W56479   0.343   4.314   1.659
85880W        W56480  19.329  38.741  14.318
85881W        W56481  21.074  37.806  12.932
85882W        W56482  23.246  26.098   4.810
85883W        W56483  24.025  16.969  14.878
85884W        W56484  17.133  18.593  13.177
85885W        W56485  31.699  34.612   3.761
85886W        W56486  39.572  31.398   1.929
85887W        W56487  22.220  27.237  11.138
85888W        W56488  21.185   3.465   4.581
85889W        W56489   8.396  30.894  11.524
85890W        W56490  19.082   7.569   2.371
85891W        W56491  37.031   1.425  10.653
85892W        W56492  37.060  25.515   2.820
85893W        W56493  22.135  24.088   2.628
85894W        W56494  27.647  28.214   2.894
85895W        W56495  29.482  22.199  11.503
85896W        W56496  37.086  39.534  10.552
85897W        W56497  32.125  30.224  12.424
85898W        W56498   1.674   1.049   0.540
85899W        W56499  31.030  25.221  12.566
85900W        W56500  29.041  32.943  11.145
85901W        W56501  29.267  20.804   4.792
85902W        W56502  16.027  16.031  14.959
85903W        W56503  22.189   2.617  12.534
85904W        W56504  25.608  42.812  14.440
85905W        W56505  12.017  24.296   1.469
85906W        W56506  26.426  10.073  11.679
85907W        W56507  35.108  36.082  11.420
85908W        W56508  41.170   1.414  13.449
85909W        W56509  36.817  38.438   3.745
85910W        W56510  13.251  16.192  11.451
85911W        W56511  28.407  32.468   4.241
85912W        W56512  31.439  35.764   2.635
85913W        W56513  19.793  44.800  10.571
85914W        W56514  19.474  10.697  14.514
85915W        W56515  25.935   8.623  14.866
85916W        W56516  19.777   9.422  10.682
85917W        W56517  26.157  36.114  11.472
85918W        W56518  23.998  33.891  13.495
85919W        W56519  17.547  32.383  13.737
85920W        W56520  18.310  30.646   1.292
85921W        W56521  22.829   5.560  13.306
85922W        W56522  18.968  41.321  13.997
85923W        W56523  43.506   4.617   0.587
85924W        W56524  35.966  21.477   1.447
85925W        W56525  10.239   7.563  13.997
85926W        W56526  27.990   4.307  14.850
85927W        W56527  20.002  41.397  12.420
85928W        W56528  38.958  44.886  14.344
85929W        W56529  32.002  11.584   4.607
85930W        W56530   5.511  33.538   4.019
85931W        W56531  22.651   5.370   1.718
85932W        W56532  29.034  15.851   2.342
85933W        W56533  10.429  42.306  12.140
85934W        W56534   1.178  10.631   0.339
85935W        W56535  11.724  15.872   4.522
85936W        W56536  15.953  34.861  14.365
85937W        W56537   1.312  26.371  10.733
85938W        W56538  38.011  26.659  12.100
85939W        W56539  25.964  14.150  10.657
85940W        W56540   6.179  43.464   2.089
85941W        W56541   4.846  16.476   3.102
85942W        W56542  44.866  35.003   4.940
85943W        W56543   0.997  12.669  12.937
85944W        W56544  41.365  31.134  11.058
85945W        W56545   2.773  44.322  11.609
85946W        W56546  19.387  29.173  12.467
85947W        W56547  34.372  29.127   3.631
85948W        W56548  12.758  43.814  10.658
85949W        W56549  15.738  44.631  10.585
85950W        W56550   5.505  35.365  13.057
85951W        W56551  35.306   0.024   4.529
85952W        W56552  21.504   5.235   3.795
85953W        W56553  28.802  42.410  14.968
85954W        W56554  39.267  17.736   2.235
85955W        W56555   5.450  31.300  10.282
85956W        W56556   5.775  27.501   3.191
85957W        W56557  16.960   8.689  14.078
85958W        W56558  41.911  42.035  11.722
85959W        W56559  18.748  33.485   2.897
85960W        W56560  10.532  27.154  11.026
85961W        W56561  26.717  21.970  11.606
85962W        W56562   0.520   0.715   3.829
85963W        W56563  34.641   6.257  12.401
85964W        W56564  40.284  44.447  14.266
85965W        W56565   7.347  29.219   3.642
85966W        W56566  12.850  34.579   1.227
85967W        W56567  25.719  12.546  11.644
85968W        W56568   8.452  19.985  12.024
85969W        W56569  35.258   3.922   4.214
85970W        W56570  38.790   1.063   1.450
85971W        W56571  21.376   0.557  10.429
85972W        W56572   2.279  39.606   1.645
85973W        W56573  19.267  18.412   4.126
85974W        W56574  41.204   2.917  10.671
85975W        W56575  26.536  39.724   0.431
85976W        W56576  21.684  13.590  11.180
85977W        W56577  41.974  23.765  13.906
85978W        W56578  36.313  27.510   3.679
85979W        W56579   5.348   4.661  14.447
85980W        W56580  24.379  11.819   1.788
85981W        W56581  27.567  11.329  13.404
85982W        W56582   0.396  39.452  12.508
85983W        W56583  36.446  33.943  12.456
85984W        W56584   1.767   7.888   1.250
85985W        W56585  25.152   5.002  12.927
85986W        W56586  10.259  44.343  14.422
85987W        W56587  41.387  43.606   0.291
85988W        W56588  35.854  31.442   1.399
85989W        W56589   6.858  25.829   0.501
85990W        W56590  29.520  36.285   2.295
85991W        W56591  13.247  13.313   2.399
85992W        W56592  17.365  29.282   2.837
85993W        W56593  35.868  27.636   2.782
85994W        W56594  20.302   7.541  14.436
85995W        W56595  10.812  28.055   0.870
85996W        W56596  23.522   5.850   0.313
85997W        W56597  27.945   0.435  12.055
85998W        W56598  36.432  35.104   2.855
85999W        W56599   5.635  28.266   3.052
86000W        W56600  36.016  13.819  12.903
86001W        W56601  29.290   7.350  14.405
86002W        W56602  24.334  40.921   2.324
86003W        W56603  40.828  37.969  10.939
86004W        W56604  24.125  26.983   4.127
86005W        W56605   7.067  24.121  13.303
86006W        W56606  15.545   3.427   0.444
86007W        W56607  37.046  28.955  14.431
86008W        W56608  34.122  26.830  11.329
86009W        W56609   9.364  44.600   2.005
86010W        W56610  41.859   9.126  14.187
86011W        W56611   3.049   3.256   3.760
86012W        W56612   7.876  43.769   4.096
86013W        W56613   2.360  17.219   2.429
86014W        W56614   2.765   2.354   1.161
86015W        W56615  27.181   1.690  12.824
86016W        W56616   8.562  33.152   1.481
86017W        W56617  33.727   5.738  12.928
86018W        W56618  42.809   8.006  12.411
86019W        W56619   7.227   4.114   0.053
86020W        W56620   3.410   5.414   0.726
86021W        W56621  12.744  31.504  12.107
86022W        W56622  29.554  26.433  12.446
86023W        W56623  36.532  22.393   4.647
86024W        W56624   3.919  13.237  12.951
86025W        W56625  38.931   4.735   3.199
86026W        W56626  26.334   4.140   1.706
86027W        W56627  39.876  44.431  11.614
86028W        W56628  13.967  40.082   2.638
86029W        W56629  17.624  38.910   1.757
86030W        W56630   6.368  15.441  10.758
86031W        W56631  20.982   0.404  13.005
86032W        W56632  21.805  41.025  10.705
86033W        W56633  16.622  38.087   1.908
86034W        W56634   6.731  25.548  12.000
86035W        W56635  42.351  17.640   4.582
86036W        W56636   8.384  14.165  11.541
86037W        W56637  41.359  24.974  11.178
86038W        W56638   5.651  27.309  10.953
86039W        W56639  38.445   9.574  12.075
86040W        W56640  33.279  17.471   3.733
86041W        W56641  38.576  16.979  13.430
86042W        W56642  27.145  18.736  11.104
86043W        W56643  22.007  10.801  13.136
86044W        W56644  36.270  32.095  14.072
86045W        W56645   7.742   1.563  10.337
86046W        W56646  32.973  13.050   0.702
86047W        W56647  18.317   2.173   4.498
86048W        W56648   6.674   9.632  12.986
86049W        W56649  24.480  14.030   0.042
86050W        W56650   9.941  13.011  14.944
86051W        W56651  41.971  32.587   0.209
86052W        W56652  15.076  17.330  12.636
86053W        W56653  24.546  15.354  14.410
86054W        W56654  28.666  31.491   3.829
86055W        W56655  21.030  14.616  14.960
86056W        W56656   2.934  18.077  13.263
86057W        W56657  33.673   1.760   2.305
86058W        W56658   3.707   4.412   2.213
86059W        W56659   5.401  33.859   0.387
86060W        W56660  25.101  27.783  14.878
86061W        W56661  35.948  21.363  11.472
86062W        W56662  36.452   2.673  13.078
86063W        W56663  24.015  38.893  12.765
86064W        W56664   9.798  15.575   9.748
86065W        W56665  23.651  43.372  12.373
86066W        W56666   3.697   9.878  12.179
86067W        W56667   0.095   3.149  11.433
86068W        W56668  31.704   3.964   2.842
86069W        W56669  23.703  29.679   2.824
86070W        W56670  38.537  29.649  13.485
86071W        W56671  30.555   6.503  12.066
86072W        W56672  32.355  40.167  14.651
86073W        W56673  23.950  27.617  14.497
86074W        W56674  26.626   1.396   3.208
86075W        W56675  34.047  41.451   2.103
86076W        W56676  40.333   8.780   0.197
86077W        W56677   7.745   9.768   1.959
86078W        W56678  12.671  39.323  13.360
86079W        W56679  33.995  36.003  10.781
86080W        W56680   4.590  26.653   1.731
86081W        W56681  34.889  20.213   4.140
86082W        W56682   2.900   5.433  14.782
86083W        W56683   0.767  41.909  11.952
86084W        W56684  14.242  27.835   1.489
86085W        W56685  32.516  38.091   2.619
86086W        W56686  14.359  26.759   1.852
86087W        W56687   5.845  44.706   2.690
86088W        W56688  19.647  14.127  14.479
86089W        W56689  23.142  17.115   0.781
86090W        W56690  19.525   4.677   3.005
86091W        W56691  38.086   8.145  13.510
86092W        W56692   6.485  10.724   4.623
86093W        W56693  31.068  32.871  11.078
86094W        W56694  34.863   0.202   0.237
86095W        W56695  32.499  23.971  11.539
86096W        W56696  15.601   7.396  14.329
86097W        W56697  39.945  41.459  11.527
86098W        W56698  20.944  22.035   0.833
86099W        W56699  39.046  27.155   0.810
86100W        W56700   3.644  36.851  12.353
86101W        W56701  24.840  19.974  14.554
86102W        W56702  31.149  14.389   4.280
86103W        W56703  28.998   4.619   2.592
86104W        W56704   6.346  31.629   0.724
86105W        W56705   1.960  19.332   2.347
86106W        W56706  27.652  14.508   2.580
86107W        W56707  38.613  11.694  10.649
86108W        W56708   3.969  41.630   2.563
86109W        W56709  20.986  14.263   2.888
86110W        W56710  32.851  16.264   2.846
86111W        W56711  18.732   2.523   1.890
86112W        W56712  15.083  30.742  13.850
86113W        W56713  24.977   0.498  11.531
86114W        W56714  17.448  30.872   0.742
86115W        W56715   4.304  20.926  10.233
86116W        W56716  17.655  19.795   0.823
86117W        W56717  38.360  29.196   3.828
86118W        W56718   1.404  28.273   3.685
86119W        W56719  28.660   9.626   0.509
86120W        W56720   8.790   0.583   1.259
86121W        W56721  10.047   9.131   3.111
86122W        W56722  23.093  21.792   4.094
86123W        W56723  22.541  16.648  10.699
86124W        W56724   1.959   0.277   1.780
86125W        W56725  33.644  14.161   2.897
86126W        W56726  19.336  31.817   4.606
86127W        W56727  40.329   1.962   2.788
86128W        W56728   8.742  41.892   3.600
86129W        W56729  19.013  11.432  13.600
86130W        W56730  23.593  38.949  13.084
86131W        W56731   5.622  27.090  13.554
86132W        W56732  28.678   4.735   0.306
86133W        W56733   2.488  35.185  14.532
86134W        W56734  21.649  27.573   4.136
86135W        W56735  44.768  10.644  14.510
86136W        W56736  39.813  41.485  12.392
86137W        W56737  31.011   2.901  14.915
86138W        W56738  15.318  11.436   0.904
86139W        W56739  42.411  26.504   2.295
86140W        W56740  22.277  14.277   4.236
86141W        W56741  24.018   5.657  11.622
86142W        W56742   8.232  25.141   0.491
86143W        W56743  42.634  40.233   5.025
86144W        W56744  43.924  39.605   4.303
86145W        W56745   7.267  41.449   4.162
86146W        W56746  20.541   4.150   3.521
86147W        W56747  35.036  18.703   3.070
86148W        W56748  44.890  44.973   2.919
86149W        W56749  28.922  14.002  11.784
86150W        W56750  41.766  17.606  10.726
86151W        W56751  31.682   1.589  10.824
86152W        W56752   4.381  43.220   1.930
86153W        W56753  19.056  42.996   4.159
86154W        W56754  32.459  11.484   4.309
86155W        W56755  15.124  33.921  14.087
86156W        W56756   8.276  18.249  12.553
86157W        W56757  24.154   9.167  10.704
86158W        W56758  11.722  21.999  13.251
86159W        W56759  19.173  19.651   2.781
86160W        W56760   9.043  29.943   2.719
86161W        W56761  37.876  36.437  13.623
86162W        W56762  37.010  15.188  11.387
86163W        W56763  30.824  25.210  13.027
86164W        W56764  23.834   9.714  14.516
86165W        W56765  19.784  42.810   0.968
86166W        W56766  33.963  39.505   3.590
86167W        W56767  43.234  29.014   2.856
86168W        W56768  15.624  38.648   2.659
86169W        W56769  13.542  34.086   9.701
86170W        W56770  16.741  24.220   1.007
86171W        W56771  12.249   7.921   0.204
86172W        W56772   5.102  43.524   3.646
86173W        W56773  14.658  44.753   4.649
86174W        W56774  29.446  22.757  13.914
86175W        W56775  40.261  30.236  11.949
86176W        W56776  16.563  33.030   0.948
86177W        W56777  23.281  12.463  12.072
86178W        W56778  18.072   3.929  12.350
86179W        W56779  39.340  40.075  14.436
86180W        W56780  36.614   8.183   2.104
86181W        W56781  36.566  13.894   2.932
86182W        W56782  44.924  25.113  10.963
86183W        W56783   8.627  12.575  10.644
86184W        W56784   8.120  10.643  14.351
86185W        W56785   7.294  12.382  14.434
86186W        W56786  42.016   5.386  11.621
86187W        W56787  34.322  34.693   1.678
86188W        W56788  14.610  14.225  14.607
86189W        W56789  42.018  15.881   4.229
86190W        W56790  31.879   3.400   3.915
86191W        W56791  19.475  40.072   3.261
86192W        W56792  17.058  11.869  11.107
86193W        W56793  15.345  13.403  10.609
86194W        W56794  26.612  41.329   4.527
86195W        W56795  42.962  38.365  12.525
86196W        W56796   9.590  12.987  14.074
86197W        W56797  38.473  42.097   1.276
86198W        W56798  43.212  24.666   2.350
86199W        W56799  44.598  38.434   4.206
86200W        W56800  20.761  30.109  13.007
86201W        W56801   9.799  43.783  14.903
86202W        W56802  28.176   8.631   0.789
86203W        W56803  27.702  44.363  13.479
86204W        W56804  16.279  27.772  11.635
86205W        W56805  20.838  43.429   0.385
86206W        W56806  13.818  43.982   5.156
86207W        W56807  27.014  32.644   1.144
86208W        W56808  15.932  19.977  12.810
86209W        W56809  20.817  40.562  11.281
86210W        W56810  33.984  18.587   0.332
86211W        W56811  31.088  16.126   3.733
86212W        W56812  33.984  26.230   2.245
86213W        W56813  21.657  21.290  10.753
86214W        W56814   9.904   1.994   2.900
86215W        W56815  37.262  41.842   1.865
86216W        W56816   7.511  31.184  13.313
86217W        W56817  25.178   6.433  13.123
86218W        W56818  27.751  19.383   4.485
86219W        W56819   4.725  33.093   0.292
86220W        W56820  42.028  28.178  14.803
86221W        W56821   4.608  29.053   0.904
86222W        W56822  43.536  22.613  10.275
86223W        W56823  24.570  38.115   0.483
86224W        W56824  18.737  25.485   4.907
86225W        W56825  26.853  30.710  11.515
86226W        W56826  21.140  32.653  14.558
86227W        W56827   9.959  19.426   1.935
86228W        W56828   3.960  11.331   3.422
86229W        W56829  23.509   6.344   4.055
86230W        W56830  38.853   0.238  10.656
86231W        W56831   8.317  11.151  14.801
86232W        W56832  41.291  35.384   2.855
86233W        W56833  43.336  14.940   1.153
86234W        W56834   6.861  23.080  10.672
86235W        W56835  42.537   0.762   1.753
86236W        W56836  27.610  17.951   3.205
86237W        W56837  21.311  40.599  11.093
86238W        W56838  15.841  32.625  13.124
86239W        W56839  13.170  15.774   2.482
86240W        W56840  21.689  11.423  13.897
86241W        W56841  14.767  44.971  12.070
86242W        W56842   4.250  36.857   2.763
86243W        W56843   0.836  33.925   4.529
86244W        W56844  33.483   7.398  10.561
86245W        W56845  44.545  42.535  14.551
86246W        W56846  44.346   9.745  11.642
86247W        W56847  22.503  12.968   2.419
86248W        W56848  44.456  33.873  10.210
86249W        W56849  35.000  26.866  12.817
86250W        W56850  33.310   3.614  14.475
86251W        W56851  36.543  17.322   2.493
86252W        W56852   6.284  18.507  12.071
86253W        W56853  11.831  42.734   4.926
86254W        W56854  22.099  35.731  12.032
86255W        W56855   8.220  39.043   0.353
86256W        W56856  26.110  13.475  11.223
86257W        W56857   2.262  13.200  13.876
86258W        W56858  30.505  15.545  14.369
86259W        W56859  27.534  28.483   1.055
86260W        W56860  44.959  29.891   0.265
86261W        W56861  27.547  43.860  13.450
86262W        W56862   6.660  21.277  11.711
86263W        W56863  13.234  43.297  14.625
86264W        W56864  26.094  10.835  13.459
86265W        W56865  26.417  27.615  13.451
86266W        W56866   1.855  28.655  12.397
86267W        W56867  25.823  10.111   2.292
86268W        W56868  43.938  31.002  13.884
86269W        W56869  38.561  34.336  12.020
86270W        W56870  29.598  13.387  13.836
86271W        W56871  16.723  32.309  13.090
86272W        W56872  21.666  20.074   1.603
86273W        W56873  23.006  25.239   4.291
86274W        W56874  43.339  12.886  14.810
86275W        W56875  40.207  22.880  11.673
86276W        W56876   0.952  42.390  11.882
86277W        W56877  16.769  18.540  14.324
86278W        W56878  36.014   6.931  11.038
86279W        W56879  18.672  16.854  13.548
86280W        W56880  37.007  20.108   3.676
86281W        W56881  10.359  18.896  13.018
86282W        W56882  40.883  31.791  12.258
86283W        W56883  10.600  38.834   1.308
86284W        W56884   1.209  37.548   0.812
86285W        W56885  39.682  21.863  13.584
86286W        W56886  39.141   6.036  10.336
86287W        W56887  28.549  29.293  10.666
86288W        W56888  38.278   7.506  14.008
86289W        W56889  29.858  23.204   2.811
86290W        W56890  36.100  25.487   3.109
86291W        W56891   8.586  20.120  14.433
86292W        W56892   6.315  22.478  12.988
86293W        W56893  26.173  27.891   3.242
86294W        W56894  11.536  22.580   4.517
86295W        W56895  41.615  33.437  12.337
86296W        W56896  28.610  17.498   4.792
86297W        W56897  27.596  16.154   1.330
86298W        W56898  41.981  17.248  12.040
86299W        W56899  36.081  34.898  13.880
86300W        W56900  15.725  20.779   1.859
86301W        W56901  30.226   4.549  11.362
86302W        W56902  26.638  17.823  11.091
86303W        W56903  35.334  28.601  13.455
86304W        W56904  17.545  34.629  12.084
86305W        W56905  44.591  18.503   2.212
86306W        W56906  33.864  10.129   3.741
86307W        W56907  25.164  12.386   3.652
86308W        W56908  20.796  23.463   1.266
86309W        W56909  11.797  42.930   4.418
86310W        W56910  32.276  39.154  10.444
86311W        W56911  19.227  13.399   4.650
86312W        W56912  44.044  26.893  12.946
86313W        W56913  33.340   0.559  10.694
86314W        W56914  40.993  31.214   3.237
86315W        W56915   6.246  13.378   4.551
86316W        W56916  28.393  41.493   4.291
86317W        W56917  42.269   3.794  12.009
86318W        W56918  19.029  12.019  14.350
86319W        W56919   0.628   4.425   0.354
86320W        W56920   5.584  19.549   3.784
86321W        W56921   4.863  37.820  11.570
86322W        W56922   9.263   3.706   1.761
86323W        W56923  43.955  18.701  11.072
86324W        W56924  15.112  23.077   0.967
86325W        W56925  23.420  25.547   2.803
86326W        W56926  29.400   6.728   0.315
86327W        W56927  32.096   6.765   1.550
86328W        W56928   3.346  16.874   0.411
86329W        W56929  21.205  24.058   1.705
86330W        W56930  16.686  31.312   0.236
86331W        W56931   3.275  44.549   2.796
86332W        W56932  35.816  43.130   1.337
86333W        W56933  31.316  19.673   1.333
86334W        W56934  37.116   3.257   1.884
86335W        W56935  28.482  10.539  10.177
86336W        W56936  19.244  33.987   1.755
86337W        W56937  27.215  15.226  12.838
86338W        W56938   4.366  15.446   1.817
86339W        W56939  42.876  11.903  12.598
86340W        W56940  15.071  10.121   2.294
86341W        W56941   5.390  43.720   4.039
86342W        W56942  33.547  38.952  13.674
86343W        W56943  20.425  39.964  11.993
86344W        W56944   5.245  24.442   0.792
86345W        W56945  15.250  12.106   4.658
86346W        W56946   0.679  16.744  10.666
86347W        W56947  42.512  15.730   0.494
86348W        W56948   0.418   4.849  13.335
86349W        W56949  44.259  11.377  11.011
86350W        W56950  27.620  13.705  13.453
86351W        W56951   7.678  41.471  10.295
86352W        W56952  26.553  16.397  14.953
86353W        W56953  21.341  42.310   4.044
86354W        W56954  41.595  19.442  10.641
86355W        W56955  39.886  33.474  14.352
86356W        W56956  18.417  37.368  12.592
86357W        W56957  23.562  24.679   3.145
86358W        W56958  23.285  16.156   0.601
86359W        W56959  16.783  44.696  14.529
86360W        W56960  31.868   1.290  14.860
86361W        W56961  17.115  31.202   0.512
86362W        W56962  24.009  15.182   0.284
86363W        W56963  21.659   0.055   3.356
86364W        W56964   5.645  14.089  12.429
86365W        W56965  17.808   6.128  11.444
86366W        W56966  20.169  37.567  11.480
86367W        W56967  28.550  18.071   1.491
86368W        W56968  10.081  30.898   2.279
86369W        W56969   8.335  23.015   1.330
86370W        W56970  38.820  31.450  11.666
86371W        W56971  28.245  29.692   3.781
86372W        W56972  32.450  15.688   4.593
86373W        W56973  17.824  16.177  11.122
86374W        W56974  41.468   9.436  13.953
86375W        W56975  29.749  32.201   4.979
86376W        W56976  41.698  22.045   1.398
86377W        W56977   9.617  10.768   1.831
86378W        W56978  12.414  24.198  10.721
86379W        W56979   6.621   9.422   2.792
86380W        W56980  44.459  11.454   0.979
86381W        W56981  32.671  36.133  14.088
86382W        W56982  12.119  34.434  13.521
86383W        W56983  43.993  29.869   0.889
86384W        W56984  31.641  29.636  13.890
86385W        W56985  36.786  30.306   2.739
86386W        W56986  11.150   5.793   2.565
86387W        W56987  22.722  38.051   3.517
86388W        W56988  37.356  19.102   1.825
86389W        W56989  26.007  10.243   3.245
86390W        W56990  34.376  37.959   4.319
86391W        W56991  37.865   6.759   2.364
86392W        W56992  26.214  14.095   0.772
86393W        W56993  19.604  31.566   1.346
86394W        W56994  13.603  40.499  12.495
86395W        W56995  18.499  28.045   0.033
86396W        W56996  41.403  21.811  13.035
86397W        W56997  39.918  29.979   1.790
86398W        W56998  25.665  10.796   0.193
86399W        W56999  18.116  10.680  14.756
86400W        W57000   9.312   8.661   4.331
86401W        W57001  24.204  12.422  12.432
86402W        W57002  25.039   0.326  13.099
86403W        W57003   2.795  24.885   3.248
86404W        W57004  21.040  35.912   1.712
86405W        W57005   6.834  44.791   1.065
86406W        W57006  15.896   1.408  14.521
86407W        W57007   9.885   8.729  10.711
86408W        W57008  22.917   8.449   2.297
86409W        W57009   1.968  11.199   3.283
86410W        W57010   7.854   4.730   4.240
86411W        W57011  39.307   1.874  12.624
86412W        W57012  22.655  12.722  11.018
86413W        W57013   8.301   5.165   2.928
86414W        W57014  15.265  39.023   2.666
86415W        W57015  20.008  10.149  14.949
86416W        W57016  26.905   6.704   3.224
86417W        W57017  13.980  40.285   3.588
86418W        W57018   7.322  31.803   4.509
86419W        W57019  23.503  21.662  12.645
86420W        W57020  13.305  38.448  11.548
86421W        W57021  22.386   8.355   2.266
86422W        W57022  39.692  12.706  14.638
86423W        W57023   0.495  13.130   1.748
86424W        W57024   6.772   7.577  11.476
86425W        W57025   0.281   7.853   2.845
86426W        W57026  31.835  32.548   2.602
86427W        W57027  25.128   3.587   2.453
86428W        W57028  33.729  35.401  13.135
86429W        W57029  19.035   9.535  12.069
86430W        W57030  17.995  36.464   1.707
86431W        W57031  15.887  28.975  11.665
86432W        W57032  14.933   9.922  14.819
86433W        W57033  23.497  27.833   4.535
86434W        W57034  14.649  12.479  12.059
86435W        W57035  40.245  30.698   0.968
86436W        W57036  33.916  16.698  11.418
86437W        W57037   8.981  26.083  11.898
86438W        W57038  11.771   9.479   2.635
86439W        W57039  19.023  35.457   4.120
86440W        W57040  13.810  36.887  12.139
86441W        W57041  43.853  18.927  13.610
86442W        W57042  20.770   7.893  14.545
86443W        W57043  11.793  37.321   0.262
86444W        W57044  10.570  41.082  11.006
86445W        W57045  12.977  21.125   0.834
86446W        W57046  18.405  30.992  10.976
86447W        W57047  40.527  34.819  11.170
86448W        W57048  30.958  43.958  10.379
86449W        W57049   6.883  35.798   1.893
86450W        W57050  40.893  32.096   1.374
86451W        W57051   9.747  44.743   3.886
86452W        W57052  39.966  30.904  13.627
86453W        W57053  39.039  41.730  14.926
86454W        W57054  24.702  29.489   0.283
86455W        W57055   2.356  31.643  10.283
86456W        W57056   8.439  16.509   4.749
86457W        W57057  40.853  38.449  12.582
86458W        W57058  28.069  35.738  11.789
86459W        W57059  39.042   1.265   3.660
86460W        W57060  10.593  34.503  13.403
86461W        W57061   7.866  16.820   1.918
86462W        W57062  15.390  24.524   1.347
86463W        W57063  29.990   1.007   1.358
86464W        W57064  11.107   3.863  13.440
86465W        W57065  24.987  43.965   3.230
86466W        W57066  17.580  15.067  14.744
86467W        W57067   1.413  15.137   1.013
86468W        W57068   7.912  33.950  13.035
86469W        W57069  10.345  14.659   0.934
86470W        W57070  35.543  21.913   0.505
86471W        W57071   3.756  26.385   2.858
86472W        W57072  38.517  11.583   3.622
86473W        W57073  33.535  21.418   2.876
86474W        W57074  10.285  38.135  14.416
86475W        W57075  37.609  21.511   0.374
86476W        W57076  36.838  15.721   1.724
86477W        W57077  18.930  32.684  13.245
86478W        W57078  38.101  42.490   2.573
86479W        W57079  41.308   1.399  14.251
86480W        W57080  18.609  35.855  13.405
86481W        W57081  12.978  34.494  14.428
86482W        W57082  31.824  39.414   2.977
86483W        W57083   0.853  25.394  13.613
86484W        W57084  16.569  22.553   1.848
86485W        W57085   1.945  40.356  13.708
86486W        W57086  27.626  25.911  12.863
86487W        W57087  19.127   8.145  14.109
86488W        W57088  43.531  28.451  12.892
86489W        W57089  41.236  28.489  13.352
86490W        W57090   6.444  37.950   1.273
86491W        W57091  36.040  22.092  12.206
86492W        W57092   4.319  23.216  14.723
86493W        W57093  11.873  34.582  11.624
86494W        W57094  43.872  18.521   3.210
86495W        W57095  25.684  21.622  11.327
86496W        W57096  43.172  15.095  13.156
86497W        W57097  35.109  43.165   4.361
86498W        W57098   0.746   3.774  12.909
86499W        W57099  40.145   6.349  13.300
86500W        W57100  24.472  35.045  14.446
86501W        W57101   9.704  39.310  14.304
86502W        W57102  37.012  13.375  13.914
86503W        W57103  34.202  36.561  13.523
86504W        W57104  23.120  17.724   0.869
86505W        W57105  33.487  23.919  14.351
86506W        W57106   6.815  43.008  14.445
86507W        W57107   8.263  22.319   0.794
86508W        W57108   7.811  31.459  14.267
86509W        W57109  41.774  30.034   0.840
86510W        W57110   2.470   0.879   1.627
86511W        W57111  38.470   9.708   3.232
86512W        W57112  26.901  35.577  12.996
86513W        W57113   0.777   3.068   1.974
86514W        W57114  21.060  22.377   5.057
86515W        W57115  39.943  11.565  12.075
86516W        W57116   9.573  23.720  14.602
86517W        W57117  28.703  16.318   3.155
86518W        W57118  34.004  35.358  10.616
86519W        W57119  21.409  36.787  11.842
86520W        W57120  37.958   4.254   4.119
86521W        W57121   3.167  23.085   3.198
86522W        W57122  29.596   0.402  14.378
86523W        W57123  15.281  17.016  11.925
86524W        W57124  22.847  21.227   1.018
86525W        W57125  12.730  35.961   3.142
86526W        W57126   7.947   2.861   0.458
86527W        W57127  28.646  44.821  13.918
86528W        W57128  17.725   0.027  14.437
86529W        W57129  41.456  18.278   3.650
86530W        W57130  28.623  44.164   4.196
86531W        W57131  25.613   5.081   0.960
86532W        W57132  24.979   8.853  13.048
86533W        W57133  27.276  25.170  12.516
86534W        W57134  22.173  24.027  14.028
86535W        W57135   3.713  10.735  13.660
86536W        W57136  41.824  44.531  12.972
86537W        W57137   6.182  30.513   1.650
86538W        W57138  14.814  19.412  11.203
86539W        W57139  11.287  23.080  13.941
86540W        W57140  22.031  33.020  12.459
86541W        W57141  32.950  27.274  11.206
86542W        W57142  35.917  28.088   4.232
86543W        W57143   2.485   7.405   1.732
86544W        W57144  14.210  24.403   0.316
86545W        W57145   6.287  17.026   2.214
86546W        W57146   0.414   4.492   4.465
86547W        W57147  24.040  18.662  12.856
86548W        W57148  24.485  40.980   4.900
86549W        W57149  12.575   5.447   3.039
86550W        W57150  10.645   4.434  11.499
86551W        W57151  10.293  32.409   2.413
86552W        W57152  11.211  43.254  11.993
86553W        W57153  11.273  37.324  13.628
86554W        W57154  33.496  35.102  12.759
86555W        W57155  40.579  21.606  11.984
86556W        W57156  13.715  37.647  10.753
86557W        W57157  20.824  40.352   0.906
86558W        W57158  25.225  19.076   4.433
86559W        W57159   7.158  11.731   2.361
86560W        W57160  43.844  41.268  12.069
86561W        W57161  21.560  36.143  13.542
86562W        W57162   7.773  32.440   4.665
86563W        W57163  37.940  12.171   2.561
86564W        W57164  29.015  41.363  12.530
86565W        W57165  22.788  39.039   3.188
86566W        W57166  32.859  12.972   3.841
86567W        W57167   6.586  16.889  12.575
86568W        W57168   7.968  27.794  11.536
86569W        W57169   4.777  20.545   1.504
86570W        W57170  23.730  12.266  10.613
86571W        W57171  37.307  11.625   1.364
86572W        W57172  22.537   5.907   4.755
86573W        W57173  31.706  44.586   4.291
86574W        W57174  31.855  20.104  13.407
86575W        W57175  23.758  30.622  12.552
86576W        W57176   6.724  21.567  14.576
86577W        W57177  33.224  32.136  10.993
86578W        W57178   6.250  10.896   0.197
86579W        W57179   6.283   7.715   4.105
86580W        W57180  41.941  37.034  11.192
86581W        W57181  37.354  25.611   4.680
86582W        W57182  20.969  18.122   2.196
86583W        W57183  20.652   7.145  12.345
86584W        W57184  43.627  38.089  12.114
86585W        W57185   4.240  22.254  11.563
86586W        W57186  36.417  34.648  10.666
86587W        W57187   8.304   5.615   4.447
86588W        W57188  44.816  40.159   2.613
86589W        W57189  39.957  34.870  13.639
86590W        W57190  44.260  27.836  14.328
86591W        W57191  13.790  31.081  13.995
86592W        W57192  16.845  25.096  14.254
86593W        W57193  21.281  22.887   1.840
86594W        W57194  33.561  42.490  14.999
86595W        W57195  20.056  34.106   2.691
86596W        W57196  22.034  21.881  11.629
86597W        W57197  12.901  16.609   2.336
86598W        W57198  16.823  43.760   4.783
86599W        W57199  32.605  42.031   0.306
86600W        W57200  29.651   0.784  12.384
86601W        W57201  21.611  20.484  13.873
86602W        W57202   4.466  30.074  13.819
86603W        W57203   7.897  17.805   1.031
86604W        W57204  24.161  16.101  14.659
86605W        W57205  21.734   2.802  14.470
86606W        W57206   4.837  23.619   2.836
86607W        W57207   9.254   5.021   0.905
86608W        W57208  23.633  25.704   0.493
86609W        W57209   7.717  37.908   2.718
86610W        W57210   6.420   2.857  14.624
86611W        W57211  15.190  30.633   3.634
86612W        W57212   1.477  17.371  12.579
86613W        W57213  13.105  17.033  12.541
86614W        W57214  25.189  18.625   4.667
86615W        W57215   4.923  37.917  10.530
86616W        W57216  42.768  10.723  14.304
86617W        W57217   4.907  26.229   4.155
86618W        W57218  33.922   2.541   0.938
86619W        W57219  26.798  34.857  11.184
86620W        W57220  17.054  39.292   2.288
86621W        W57221  21.286  44.648  11.358
86622W        W57222  24.514  14.643   4.693
86623W        W57223   8.745  16.652  10.867
86624W        W57224   6.789   1.463   4.268
86625W        W57225   9.769  15.232   0.916
86626W        W57226  25.622  20.076  11.915
86627W        W57227  15.278  27.472  11.577
86628W        W57228  37.799  26.088  10.385
86629W        W57229  20.883  37.942   0.384
86630W        W57230  43.974   6.477  10.912
86631W        W57231  19.124  39.585  11.507
86632W        W57232  19.791  23.718   1.193
86633W        W57233  32.981  25.518   1.680
86634W        W57234   8.731  34.515  14.866
86635W        W57235   8.863  10.285   0.263
86636W        W57236  43.659  30.393  14.480
86637W        W57237  13.707  32.650  12.846
86638W        W57238  29.817  21.377   1.938
86639W        W57239   0.793   8.916  13.372
86640W        W57240  13.347  18.245  10.747
86641W        W57241  12.500  24.471   4.401
86642W        W57242  36.833  32.980   2.410
86643W        W57243  39.485  14.320  12.939
86644W        W57244  21.987  34.623  14.938
86645W        W57245   8.454   6.609   2.307
86646W        W57246  43.349  26.899   0.296
86647W        W57247  36.473  22.898  10.541
86648W        W57248  13.651  21.469   1.948
86649W        W57249  17.668  16.687  10.847
86650W        W57250  14.395  14.116   2.777
86651W        W57251  30.462   6.205   0.040
86652W        W57252  44.981  24.625  13.894
86653W        W57253   0.024   6.354   3.195
86654W        W57254  16.109  41.595  12.480
86655W        W57255   6.873  34.984   2.476
86656W        W57256  42.856  13.300   3.730
86657W        W57257  18.247  32.450   2.262
86658W        W57258  16.495  10.310  12.039
86659W        W57259  44.205  21.061   2.666
86660W        W57260  36.787   6.639  12.214
86661W        W57261  26.925   6.460  14.344
86662W        W57262  15.776  13.655  12.839
86663W        W57263  23.202  17.240   2.218
86664W        W57264  33.597   0.750   1.316
86665W        W57265  22.721  41.954  11.030
86666W        W57266  18.216   8.816   3.150
86667W        W57267  13.593  13.169  11.568
86668W        W57268  34.568  43.429  13.903
86669W        W57269  20.768  11.189  13.137
86670W        W57270  30.193   2.937   4.765
86671W        W57271  40.765  31.383  11.396
86672W        W57272   7.771  36.141   2.332
86673W        W57273   4.719  27.459   2.411
86674W        W57274  19.077   7.298  11.053
86675W        W57275  39.854   7.827  13.729
86676W        W57276   2.351  40.738   4.799
86677W        W57277  18.929  42.022  12.455
86678W        W57278  20.870  31.135   2.473
86679W        W57279   1.659  40.255   4.365
86680W        W57280  28.014   2.392   3.754
86681W        W57281  16.092  24.068   2.445
86682W        W57282   4.237   9.874  10.583
86683W        W57283  27.001  37.377   4.656
86684W        W57284  18.845   0.113  11.520
86685W        W57285  21.122  22.543   2.839
86686W        W57286  20.708  25.073   4.687
86687W        W57287  25.929   2.412  10.650
86688W        W57288  35.416  33.514   3.713
86689W        W57289  13.543   4.154  10.643
86690W        W57290  30.724  13.590   2.773
86691W        W57291  38.827  15.796   4.101
86692W        W57292  21.085  20.572   2.919
86693W        W57293  22.750   8.948   3.714
86694W        W57294  30.559  26.107  12.342
86695W        W57295  43.071  20.036  11.179
86696W        W57296  39.004  12.929  14.248
86697W        W57297  26.238  32.754  14.072
86698W        W57298   9.261  24.586  13.418
86699W        W57299  21.382  24.750   0.910
86700W        W57300  19.986  41.881  14.528
86701W        W57301  41.902  41.457  12.814
86702W        W57302  11.755   2.004  12.755
86703W        W57303  22.740  10.364   4.191
86704W        W57304  39.293  34.084  10.621
86705W        W57305  12.351  13.350  10.730
86706W        W57306   1.245  32.903   4.042
86707W        W57307  17.579  22.780  14.313
86708W        W57308  34.030  28.394  10.621
86709W        W57309   8.739  31.694  13.934
86710W        W57310  41.976  41.930   3.409
86711W        W57311  33.972  27.576  14.992
86712W        W57312   7.933   2.895  14.918
86713W        W57313  21.244  13.067  14.926
86714W        W57314   0.510   4.039  14.243
86715W        W57315  19.121   7.667   3.926
86716W        W57316  24.923  38.292   0.940
86717W        W57317  35.845   2.439  13.445
86718W        W57318  17.596   0.215   3.338
86719W        W57319  29.543  19.147   1.405
86720W        W57320  44.971   0.800  11.530
86721W        W57321  15.404  15.058   3.521
86722W        W57322   7.629  21.998  11.124
86723W        W57323   9.216  41.116  14.427
86724W        W57324  19.750  30.842  11.435
86725W        W57325  10.205  19.598   3.736
86726W        W57326  35.116  18.032  13.461
86727W        W57327  20.735  19.266   2.761
86728W        W57328  27.959  20.483  14.889
86729W        W57329  37.515   3.780   4.939
86730W        W57330  21.601  32.584  13.358
86731W        W57331  37.002  27.061  12.555
86732W        W57332  30.602  34.935   3.164
86733W        W57333  36.087  15.282  12.483
86734W        W57334  28.157   0.560   4.085
86735W        W57335   3.881   3.630   2.721
86736W        W57336   5.378   2.709  11.024
86737W        W57337  20.834  33.888  12.075
86738W        W57338   7.798  24.077   1.717
86739W        W57339   5.851   2.949   4.729
86740W        W57340  31.920  39.118  13.057
86741W        W57341  20.130   4.890   4.581
86742W        W57342   8.457   0.610   2.915
86743W        W57343   6.392  27.753  10.403
86744W        W57344  40.941  11.709  13.975
86745W        W57345  36.257  38.916  12.709
86746W        W57346  14.356   1.327  12.012
86747W        W57347  34.862   1.023   3.158
86748W        W57348  26.183  40.217   2.245
86749W        W57349  34.360   4.665  12.544
86750W        W57350  40.900   3.914  10.614
86751W        W57351  11.149  21.602   3.272
86752W        W57352  39.893  21.805   1.373
86753W        W57353  21.548  33.185  10.661
86754W        W57354  11.509  32.383   1.170
86755W        W57355  41.126  22.086  11.225
86756W        W57356  15.513  26.252   2.278
86757W        W57357  10.253  24.707   4.606
86758W        W57358  22.763  25.481   1.413
86759W        W57359  17.874  11.041   4.253
86760W        W57360  20.980  22.047   4.650
86761W        W57361  21.062  37.546   0.864
86762W        W57362  14.211  28.915   2.255
86763W        W57363  44.921  34.995   4.424
86764W        W57364  44.249  39.946   3.308
86765W        W57365   7.831  19.798  14.409
86766W        W57366  11.640   8.633   0.748
86767W        W57367  29.658  26.733  12.024
86768W        W57368  36.939  27.950  12.467
86769W        W57369   8.757  31.201  13.633
86770W        W57370  10.198   1.881   0.995
86771W        W57371  31.729  13.707  12.002
86772W        W57372  17.587  14.962   4.440
86773W        W57373   0.673   1.508   4.161
86774W        W57374  37.197  22.494   0.800
86775W        W57375  10.274  17.268   4.538
86776W        W57376  16.552  10.112  13.352
86777W        W57377  27.738  22.641  11.712
86778W        W57378  16.482   6.660  13.537
86779W        W57379  42.252  36.504   4.539
86780W        W57380  28.395  27.134  12.473
86781W        W57381  38.020   9.819   2.899
86782W        W57382  42.234   4.663   2.280
86783W        W57383   7.794   5.529  10.975
86784W        W57384   4.490   1.729  13.939
86785W        W57385  11.285  38.194  10.598
86786W        W57386  13.591  27.090   2.869
86787W        W57387  29.747  44.174   2.688
86788W        W57388   7.697  22.619   0.572
86789W        W57389  39.422  36.336  13.899
86790W        W57390   8.249  24.473  10.990
86791W        W57391  29.005   5.109  13.827
86792W        W57392  33.995  29.493   3.810
86793W        W57393   6.026  11.737   1.734
86794W        W57394  33.795   4.056   0.936
86795W        W57395  26.204  18.172   0.692
86796W        W57396   4.174  28.287   0.146
86797W        W57397  29.925   1.309  14.411
86798W        W57398  17.345  21.335   3.141
86799W        W57399  36.420  31.938  11.070
86800W        W57400  35.906  44.922   3.685
86801W        W57401  22.577  21.551  11.088
86802W        W57402  37.390  25.554   3.783
86803W        W57403  20.601  26.452  14.848
86804W        W57404   5.744   3.168   0.429
86805W        W57405  22.584  28.250   0.267
86806W        W57406  30.821  27.239   4.891
86807W        W57407  30.495  10.597  14.591
86808W        W57408   4.656  28.947   9.851
86809W        W57409  30.587  13.990  14.756
86810W        W57410  25.152  43.823   2.724
86811W        W57411   6.615  29.404  14.203
86812W        W57412  36.037  42.896  10.853
86813W        W57413   8.701  28.081  14.929
86814W        W57414  14.730  26.395  10.966
86815W        W57415  20.194   2.874   2.845
86816W        W57416  18.683  41.427  13.150
86817W        W57417   8.747  21.314   2.275
86818W        W57418  35.725  17.102   4.073
86819W        W57419   4.817   5.868  11.125
86820W        W57420  32.388  27.434  11.520
86821W        W57421  26.617  21.310  14.042
86822W        W57422  37.899   6.806  12.991
86823W        W57423   2.200  37.135  11.154
86824W        W57424  10.535   5.255   4.157
86825W        W57425  34.627   1.304  12.678
86826W        W57426  39.995  17.156  13.274
86827W        W57427  38.340  25.349  14.868
86828W        W57428  40.529  29.500  14.055
86829W        W57429   2.387   0.600   1.103
86830W        W57430  29.934  35.997   0.598
86831W        W57431  40.005  35.914   4.113
86832W        W57432  22.174  36.639  11.526
86833W        W57433   0.966  13.787   1.469
86834W        W57434  33.162  44.309   1.736
86835W        W57435   0.439  22.656  11.938
86836W        W57436  24.087  12.766   2.614
86837W        W57437  12.828  34.719   0.737
86838W        W57438   2.913  41.265   4.197
86839W        W57439  18.678  37.326   4.559
86840W        W57440  11.797  32.515  10.126
86841W        W57441  28.612  22.751  11.591
86842W        W57442  39.994  34.615   4.415
86843W        W57443   3.487  43.693  14.970
86844W        W57444  37.614  28.907   1.833
86845W        W57445  25.611  30.679  12.947
86846W        W57446   7.983  26.718   2.750
86847W        W57447  37.437  38.399  10.738
86848W        W57448   2.069  15.805   4.261
86849W        W57449  20.306  15.749   2.547
86850W        W57450  10.319  43.952   1.632
86851W        W57451  24.121  17.661  13.889
86852W        W57452   4.347  35.662  14.431
86853W        W57453  35.824  30.479  11.556
86854W        W57454  23.750  37.442   1.815
86855W        W57455   6.298  13.773   1.713
86856W        W57456  17.942  39.995   0.085
86857W        W57457   0.232   5.946  10.933
86858W        W57458  12.625  44.514   2.785
86859W        W57459  33.074  10.735   0.718
86860W        W57460  38.561  43.493  12.038
86861W        W57461   5.872   0.892   2.887
86862W        W57462  44.749   9.591  14.430
86863W        W57463  16.108  13.821  13.637
86864W        W57464   6.973   3.766  12.993
86865W        W57465  12.397  23.047  12.654
86866W        W57466   3.471  11.521  10.699
86867W        W57467  22.817  41.010   2.125
86868W        W57468  13.845   2.367   2.767
86869W        W57469   4.778   6.958   4.508
86870W        W57470  14.285  13.205   5.551
86871W        W57471  12.743  29.853   3.241
86872W        W57472  16.796  44.354   2.572
86873W        W57473  44.142  25.861  10.755
86874W        W57474   9.504  36.418  12.184
86875W        W57475  44.321  22.516   2.799
86876W        W57476  14.226   6.443  14.035
86877W        W57477  20.281  21.689   0.273
86878W        W57478  12.607  30.528   4.586
86879W        W57479  42.945  29.433   2.721
86880W        W57480   0.243  12.295  14.891
86881W        W57481  17.663  27.125   1.906
86882W        W57482   5.980  31.185  13.428
86883W        W57483  44.759  25.682   0.622
86884W        W57484  41.535  39.073   3.675
86885W        W57485   9.376   1.813   1.369
86886W        W57486  41.058  19.354  11.225
86887W        W57487  22.443  21.746  14.751
86888W        W57488  33.978  44.259  14.967
86889W        W57489  32.130   3.378  11.977
86890W        W57490  36.923   5.841  12.865
86891W        W57491   0.731   3.835   3.858
86892W        W57492   0.123  25.648   3.091
86893W        W57493  43.888  41.081   0.205
86894W        W57494  36.045  43.138   2.717
86895W        W57495  20.692   9.625   3.180
86896W        W57496   2.249  43.214  12.976
86897W        W57497  30.422  13.305   2.467
86898W        W57498  41.813   7.213   4.766
86899W        W57499   7.214  41.975  13.980
86900W        W57500   8.364   5.567   0.813
86901W        W57501  44.837  11.138   0.723
86902W        W57502  14.544   0.926  11.236
86903W        W57503  44.429  38.162   3.784
86904W        W57504  28.947  37.749  12.450
86905W        W57505   1.371  13.190   4.081
86906W        W57506  23.407  42.010  12.582
86907W        W57507  24.491  29.692   2.412
86908W        W57508  10.299   9.790  13.873
86909W        W57509  32.318  29.195   1.429
86910W        W57510  31.052  21.831   1.308
86911W        W57511  28.481  17.752  11.007
86912W        W57512  32.684   9.363   3.412
86913W        W57513  28.111   0.820  14.825
86914W        W57514  43.951  28.558   2.927
86915W        W57515  26.443  16.159   0.484
86916W        W57516  29.392  44.728  11.354
86917W        W57517  36.022   9.744  12.163
86918W        W57518  20.057   1.835   0.849
86919W        W57519   9.345  24.265   2.190
86920W        W57520  20.031  27.475   3.273
86921W        W57521  32.155   8.455  11.231
86922W        W57522   0.258  25.588   1.746
86923W        W57523  43.223   9.883  11.175
86924W        W57524  15.360  14.340   0.291
86925W        W57525  43.010  19.553  10.889
86926W        W57526   2.168  27.151  11.507
86927W        W57527  11.553  35.380  10.361
86928W        W57528  27.450  28.345   2.349
86929W        W57529  13.242  14.388   1.550
86930W        W57530  42.497  12.346  13.017
86931W        W57531  19.700  29.761  14.087
86932W        W57532  16.225   7.453  14.252
86933W        W57533  12.548  25.951   0.306
86934W        W57534  33.030   9.367   2.716
86935W        W57535  34.668  33.872   4.782
86936W        W57536  25.457  29.389   0.754
86937W        W57537  13.635  16.786  14.078
86938W        W57538  17.173  33.239   1.259
86939W        W57539  15.714  21.266   1.679
86940W        W57540   0.289  42.577   4.572
86941W        W57541  16.564  43.835   0.947
86942W        W57542  25.911  23.772  13.660
86943W        W57543   3.825  28.874   2.452
86944W        W57544  37.322   3.887   0.105
86945W        W57545  29.492   8.642   5.043
86946W        W57546  15.174  29.178   3.772
86947W        W57547  38.527  34.003   1.371
86948W        W57548  38.685  13.143   0.098
86949W        W57549  37.179  24.131   4.183
86950W        W57550  24.660  10.095  10.774
86951W        W57551  34.564   8.632  10.332
86952W        W57552   8.650  11.973   1.769
86953W        W57553   7.602  15.918  12.567
86954W        W57554  16.769  43.465   0.512
86955W        W57555   6.733   0.792  13.015
86956W        W57556  28.687   5.666  10.561
86957W        W57557  22.849  29.953  14.419
86958W        W57558  41.039   5.642   3.221
86959W        W57559  23.467  34.117   2.326
86960W        W57560   3.441  29.709  11.095
86961W        W57561  39.825  13.564  10.577
86962W        W57562  37.408   2.762  13.590
86963W        W57563  16.621   6.860   1.677
86964W        W57564   9.415   4.260  10.893
86965W        W57565  39.778  40.838   1.743
86966W        W57566   5.806  16.287   3.209
86967W        W57567  41.918  22.764   4.759
86968W        W57568  30.408  30.568   1.441
86969W        W57569  15.283  12.272   3.759
86970W        W57570  13.622  38.952   1.895
86971W        W57571  22.153   2.407   3.712
86972W        W57572  19.271   2.442  11.703
86973W        W57573  13.748  13.903  14.018
86974W        W57574  12.150  43.503   0.426
86975W        W57575  18.969  33.628  13.458
86976W        W57576  38.111  21.084   0.562
86977W        W57577  19.139  37.031  13.115
86978W        W57578  24.197  24.681   1.698
86979W        W57579  18.845  11.560  14.067
86980W        W57580  21.315  40.234  10.704
86981W        W57581  43.522  30.885   2.735
86982W        W57582   4.400   8.750   4.435
86983W        W57583  40.765  17.241   2.850
86984W        W57584  39.838   8.301   3.257
86985W        W57585  10.907  16.384   1.786
86986W        W57586  29.000  15.872   4.864
86987W        W57587  22.987   9.669   1.360
86988W        W57588  17.318  43.870  10.759
86989W        W57589  16.479  32.208  12.584
86990W        W57590   8.986   4.532   1.422
86991W        W57591  18.697  28.756   5.352
86992W        W57592  28.164  38.380   4.576
86993W        W57593  22.380  39.579   3.261
86994W        W57594  13.395   8.297  13.278
86995W        W57595  43.213  35.939   4.644
86996W        W57596  27.056  30.593  12.993
86997W        W57597  31.176  40.376  12.380
86998W        W57598  25.811  18.532   2.155
86999W        W57599  17.084   2.868  10.717
87000W        W57600  28.653  41.026   0.043
87001W        W57601  16.673  16.694  11.124
87002W        W57602  43.521  16.124  12.557
87003W        W57603  17.730  44.760  13.874
87004W        W57604  13.905   9.602  12.131
87005W        W57605  15.381  12.088   3.296
87006W        W57606  31.500  16.571   1.250
87007W        W57607  15.074  33.441   3.082
87008W        W57608   0.277  43.464  12.407
87009W        W57609  24.502  30.547  13.091
87010W        W57610  39.646  42.826  12.501
87011W        W57611  23.650   6.022  11.697
87012W        W57612  42.731  36.540   0.965
87013W        W57613  29.483  23.425  12.752
87014W        W57614  18.233  14.258  12.957
87015W        W57615  24.730  12.811   4.773
87016W        W57616  36.567  32.344   1.136
87017W        W57617  28.945  26.640  10.434
87018W        W57618  39.953   2.228   4.689
87019W        W57619  38.578  41.367   3.709
87020W        W57620  29.149   6.973  11.222
87021W        W57621   2.925  14.203   3.750
87022W        W57622  33.595  36.710   1.935
87023W        W57623  35.789  27.549  11.923
87024W        W57624   2.886  15.797  14.957
87025W        W57625  26.295  35.928  11.927
87026W        W57626   1.037  17.699   2.284
87027W        W57627  11.752  10.890  12.747
87028W        W57628   1.767   1.311   1.811
87029W        W57629  23.066  13.016  14.311
87030W        W57630  23.602  35.453   4.707
87031W        W57631  39.237  14.307   2.272
87032W        W57632  42.935   9.895  10.740
87033W        W57633  31.504  30.002   3.274
87034W        W57634  37.359  26.713  12.709
87035W        W57635  14.648   0.988   4.805
87036W        W57636   3.227  19.332  10.792
87037W        W57637  41.599  19.972  14.584
87038W        W57638  39.378   3.951  12.296
87039W        W57639  26.117   9.214   2.141
87040W        W57640  23.260  15.257  12.021
87041W        W57641  35.526  32.444   1.397
87042W        W57642  16.851  44.240   0.801
87043W        W57643  15.633   9.851  10.941
87044W        W57644  30.618  27.020   3.682
87045W        W57645  10.789   3.619  10.513
87046W        W57646  36.266  27.708   4.173
87047W        W57647  44.442  23.675  14.477
87048W        W57648   7.957  35.744   0.423
87049W        W57649  14.739   3.409  11.524
87050W        W57650   4.617   9.339  12.409
87051W        W57651  43.010   0.307  12.510
87052W        W57652  23.704  35.638   2.322
87053W        W57653   9.796  10.772  11.540
87054W        W57654  14.903  44.488   2.308
87055W        W57655  26.527  37.864   1.383
87056W        W57656  10.280  11.850  12.980
87057W        W57657  34.458   4.999  11.129
87058W        W57658   3.706   4.098  14.036
87059W        W57659  22.125  20.144  12.351
87060W        W57660  31.581   7.177   4.594
87061W        W57661  39.486  40.556  14.325
87062W        W57662  13.082   5.994   4.375
87063W        W57663  16.515  21.544   1.978
87064W        W57664  39.471  16.617   2.777
87065W        W57665  39.483  20.404   0.550
87066W        W57666  36.010   3.036   2.189
87067W        W57667   3.295  37.595  14.102
87068W        W57668  34.501  28.698   2.253
87069W        W57669  24.287  19.151   4.847
87070W        W57670  36.450  40.126   1.583
87071W        W57671  22.500  29.153   2.687
87072W        W57672   7.655  31.825  11.209
87073W        W57673  10.772  24.067   0.344
87074W        W57674  34.031  18.467  11.494
87075W        W57675   8.527  15.782  10.649
87076W        W57676   5.471  32.017   3.213
87077W        W57677  28.171  22.576  14.627
87078W        W57678  31.598   5.252   3.557
87079W        W57679  22.741  16.047   1.864
87080W        W57680  28.348  44.442   1.782
87081W        W57681  32.860  40.370   0.304
87082W        W57682  22.718  21.940   0.621
87083W        W57683   0.735  43.169  12.431
87084W        W57684  21.250  26.646   1.740
87085W        W57685  21.861  22.562  12.576
87086W        W57686  16.411  22.532  11.696
87087W        W57687  33.973  33.217  10.967
87088W        W57688  26.228   7.271   4.148
87089W        W57689   3.883  39.500  10.456
87090W        W57690  29.764   4.515   2.129
87091W        W57691  33.820  34.891   0.785
87092W        W57692  34.812  38.466  11.958
87093W        W57693  40.927  14.886   2.873
87094W        W57694  19.318  42.410   2.738
87095W        W57695  31.602  38.438  13.177
87096W        W57696  14.335  11.220  11.183
87097W        W57697  39.539  41.831  12.122
87098W        W57698  10.752   8.166   3.789
87099W        W57699   2.377  35.036  12.571
87100W        W57700  37.533  23.491  11.506
87101W        W57701  36.159  19.291   3.185
87102W        W57702  21.733   4.868  12.672
87103W        W57703   7.577  35.120  11.528
87104W        W57704  13.014  23.616   4.580
87105W        W57705  20.412  20.513   1.130
87106W        W57706   6.042  10.729   4.373
87107W        W57707  25.526  26.949   4.492
87108W        W57708  22.649  20.731   0.852
87109W        W57709  37.816  15.539   0.409
87110W        W57710  18.333  32.929   4.092
87111W        W57711  15.572   6.794  13.468
87112W        W57712   6.022  29.564  10.875
87113W        W57713  36.853  33.977   3.525
87114W        W57714  37.536  37.479  11.613
87115W        W57715   3.511  37.920   4.217
87116W        W57716  33.639  22.037  11.057
87117W        W57717  17.181  13.385   0.445
87118W        W57718   6.612  21.022   3.717
87119W        W57719  22.518  36.367  13.947
87120W        W57720  24.025  11.719   0.401
87121W        W57721  34.805  39.329  12.064
87122W        W57722  24.644   1.520  13.475
87123W        W57723  21.099   1.736  11.003
87124W        W57724  28.255  34.060  13.418
87125W        W57725   0.637  42.595   2.418
87126W        W57726  10.871   3.182  12.221
87127W        W57727  37.381  26.047  10.719
87128W        W57728  31.905  41.871   1.816
87129W        W57729  44.225  16.558  14.206
87130W        W57730  17.236  31.109   4.777
87131W        W57731   4.363  31.007  12.899
87132W        W57732  17.296  24.082   2.877
87133W        W57733  11.290   0.596   3.910
87134W        W57734  34.099   0.298  13.331
87135W        W57735  26.246  22.119  12.225
87136W        W57736  22.951   2.709  10.938
87137W        W57737   9.738  41.931   0.574
87138W        W57738  37.494  26.085   2.292
87139W        W57739  32.618  21.045  10.763
87140W        W57740  38.077  27.470  13.820
87141W        W57741  30.391  33.169  12.514
87142W        W57742   7.410  40.112  12.184
87143W        W57743  37.939  18.534  11.965
87144W        W57744  16.304  11.568   2.425
87145W        W57745  22.792  41.667  13.091
87146W        W57746  44.297   1.150   3.307
87147W        W57747  41.188  37.182  11.103
87148W        W57748   0.754  26.000   0.084
87149W        W57749  34.818  18.255  11.155
87150W        W57750   4.868   4.740   4.775
87151W        W57751   8.086  25.823  13.962
87152W        W57752   5.738  13.133   0.037
87153W        W57753  43.248  21.753   3.238
87154W        W57754   7.440   3.508  12.460
87155W        W57755  39.579   6.839  14.982
87156W        W57756  35.497  33.318   2.390
87157W        W57757  28.014  10.829   3.141
87158W        W57758  19.610  20.779  14.615
87159W        W57759  39.263  42.273  10.603
87160W        W57760  14.346  39.474  13.001
87161W        W57761  28.386  21.150   3.587
87162W        W57762  43.922  12.626   4.623
87163W        W57763  10.580  14.253   3.789
87164W        W57764  21.688   3.484   3.723
87165W        W57765   3.798  25.618   0.841
87166W        W57766  22.703  44.782  11.920
87167W        W57767  10.843  12.799  12.092
87168W        W57768  32.272   8.136  13.969
87169W        W57769   4.516  20.743  10.695
87170W        W57770  15.112   2.958  12.928
87171W        W57771  37.063  11.962   4.145
87172W        W57772   9.264  21.937   3.811
87173W        W57773  29.782  33.167   3.468
87174W        W57774   4.320   0.824   4.866
87175W        W57775  32.570  31.563  10.541
87176W        W57776  42.962  30.070   3.413
87177W        W57777  13.310   1.544   3.309
87178W        W57778  24.599   2.746   2.830
87179W        W57779  36.627  27.252   2.697
87180W        W57780  24.958  36.229   0.184
87181W        W57781  36.843  35.333  12.521
87182W        W57782  25.595  35.125   3.632
87183W        W57783   1.966   0.024  13.424
87184W        W57784  28.275  20.769  12.302
87185W        W57785  15.787  16.911  14.794
87186W        W57786   9.497   9.821   3.745
87187W        W57787   7.364  36.329  14.275
87188W        W57788  19.191  19.346   1.816
87189W        W57789   2.065  41.719  12.089
87190W        W57790   5.187  25.677  11.395
87191W        W57791  34.450  29.588  14.495
87192W        W57792  24.647  27.359   3.500
87193W        W57793   2.390  38.898  11.554
87194W        W57794  21.573   9.303   5.059
87195W        W57795  32.004  21.996   4.564
87196W        W57796  29.976  43.476   3.608
87197W        W57797  28.579   8.955   0.765
87198W        W57798  31.013  26.500  10.682
87199W        W57799  42.295  39.009  11.114
87200W        W57800  14.566  16.555  14.097
87201W        W57801   2.155  37.273   4.139
87202W        W57802  19.943  29.790   2.787
87203W        W57803  24.306  15.334  11.820
87204W        W57804  16.483   2.287  12.989
87205W        W57805  42.359  13.233   3.765
87206W        W57806   2.877  43.060   4.647
87207W        W57807  36.688  25.089   1.938
87208W        W57808  43.864  23.120  11.397
87209W        W57809  19.224  27.119  13.488
87210W        W57810  16.402   0.152   3.758
87211W        W57811  39.137  10.720   2.956
87212W        W57812  41.962  39.456  14.715
87213W        W57813   4.867  33.315  11.119
87214W        W57814  43.830   2.364  11.202
87215W        W57815   2.813  27.760   0.729
87216W        W57816  34.885  43.026  14.556
87217W        W57817  28.318  36.163  10.401
87218W        W57818  26.978  32.728  12.585
87219W        W57819  32.888  24.640   1.780
87220W        W57820   1.087  18.177  13.754
87221W        W57821  12.288  26.262  13.661
87222W        W57822   9.028  19.599  13.457
87223W        W57823  24.970  11.606   4.629
87224W        W57824  17.783   7.228   3.707
87225W        W57825  21.520  24.521  14.520
87226W        W57826  42.283  37.530   3.102
87227W        W57827  29.411  34.954   2.350
87228W        W57828  21.450  16.797   2.708
87229W        W57829  44.916  20.089  12.403
87230W        W57830  25.095  40.484   3.298
87231W        W57831   3.920  42.905  14.841
87232W        W57832   7.737   6.256   0.236
87233W        W57833  24.615  33.406  14.863
87234W        W57834  17.738  11.587   4.086
87235W        W57835   7.813  34.457  11.150
87236W        W57836  34.984  33.696  13.800
87237W        W57837  42.498  15.316  10.518
87238W        W57838  16.818  20.316   3.575
87239W        W57839   5.704   0.162   0.393
87240W        W57840  29.683   5.904  11.143
87241W        W57841  41.967  12.233   1.493
87242W        W57842  42.055  43.506  13.982
87243W        W57843  41.495  11.831   2.030
87244W        W57844  25.195  13.048   3.423
87245W        W57845  18.627   3.097  12.108
87246W        W57846   4.354  39.192  12.630
87247W        W57847  21.063  27.219  13.371
87248W        W57848  44.493  26.118   4.516
87249W        W57849  30.158  22.739   2.118
87250W        W57850   1.722  18.737  12.884
87251W        W57851  11.757  40.303  12.075
87252W        W57852  30.681  10.663   0.056
87253W        W57853  33.930  35.142  12.331
87254W        W57854  11.586  38.413   0.345
87255W        W57855  44.400  35.878  14.808
87256W        W57856  10.338  40.994  12.547
87257W        W57857  38.279  31.650  12.530
87258W        W57858  32.230   1.288   2.683
87259W        W57859  14.397  21.320  13.719
87260W        W57860  33.037  21.784   2.155
87261W        W57861   0.883  44.132   3.920
87262W        W57862  29.176   7.659   2.613
87263W        W57863  13.297   7.481  12.450
87264W        W57864  11.736  24.477  14.268
87265W        W57865  26.634  16.501  11.192
87266W        W57866  44.356  33.915   4.446
87267W        W57867  31.124  44.678  13.558
87268W        W57868  37.499  12.331   3.418
87269W        W57869   3.741  23.768   9.968
87270W        W57870   3.770  12.342   4.319
87271W        W57871   7.544  33.360  11.241
87272W        W57872   4.006  25.667  14.027
87273W        W57873  36.521   1.980  14.931
87274W        W57874   7.649  19.277   0.981
87275W        W57875  19.644  41.808   4.515
87276W        W57876   6.725  25.103   4.209
87277W        W57877   6.920   0.968   4.416
87278W        W57878  24.038  32.417  12.354
87279W        W57879  44.187  28.380   2.119
87280W        W57880   1.664  21.070   4.112
87281W        W57881  10.257  20.831   0.802
87282W        W57882  28.572   8.771  10.513
87283W        W57883  31.964  44.248   0.012
87284W        W57884  21.941  11.791   1.423
87285W        W57885  28.946  31.643  13.563
87286W        W57886  43.560  39.970  12.606
87287W        W57887  14.662  10.423   2.202
87288W        W57888  32.671   9.340  11.219
87289W        W57889  38.532   8.818  13.606
87290W        W57890   3.934  29.743  13.158
87291W        W57891  34.659  15.701  14.426
87292W        W57892   6.526  43.045   3.700
87293W        W57893  27.384  28.517  12.881
87294W        W57894   7.285  32.615   1.054
87295W        W57895  20.757  38.357  12.567
87296W        W57896  25.633  33.993   4.040
87297W        W57897   7.923  28.455  13.469
87298W        W57898   8.290  36.232   2.404
87299W        W57899  44.420  26.041  14.526
87300W        W57900  33.703  10.433  10.269
87301W        W57901   7.681  28.919  13.636
87302W        W57902  10.446  30.631  12.077
87303W        W57903  25.150  12.378  11.053
87304W        W57904  35.542  26.003   2.347
87305W        W57905  18.544  13.089  12.556
87306W        W57906  40.107  25.195   2.225
87307W        W57907  38.505   9.151   0.420
87308W        W57908  31.338  43.076  11.370
87309W        W57909  10.049   8.920   0.030
87310W        W57910  18.479  43.732   3.596
87311W        W57911  31.212  31.674  11.641
87312W        W57912   5.314  43.670   1.722
87313W        W57913  38.854   0.742   4.958
87314W        W57914  18.847  29.650  14.167
87315W        W57915  36.291  43.729  12.024
87316W        W57916  25.160  27.678   1.314
87317W        W57917  14.055   6.141   4.233
87318W        W57918   8.611  13.767   2.923
87319W        W57919   8.355   6.242  13.998
87320W        W57920   1.331  29.823  14.886
87321W        W57921  40.946  21.234   3.609
87322W        W57922  19.742  26.262   0.213
87323W        W57923  41.288  10.357  13.537
87324W        W57924  24.089  29.344  10.132
87325W        W57925   6.409   6.183  11.912
87326W        W57926   5.735  39.076  14.513
87327W        W57927  41.131  16.223  14.307
87328W        W57928  31.384  20.959   4.869
87329W        W57929   8.385   0.129   0.023
87330W        W57930  20.753  24.707   3.079
87331W        W57931  17.964  20.839  14.303
87332W        W57932   2.998  40.229  14.694
87333W        W57933  21.027  34.926  13.355
87334W        W57934  12.728  38.254  11.063
87335W        W57935  10.273  28.258  13.120
87336W        W57936  12.452  35.509  11.109
87337W        W57937  27.502  41.396  11.286
87338W        W57938  15.516   0.722   2.695
87339W        W57939  29.886  16.146  11.668
87340W        W57940  16.484  24.462   3.018
87341W        W57941  42.814  16.790   1.299
87342W        W57942  17.955  33.501   0.335
87343W        W57943  29.851   2.805  13.448
87344W        W57944  43.897  22.577   1.805
87345W        W57945   8.383  36.450  10.633
87346W        W57946  19.521  22.516  13.021
87347W        W57947  32.225  14.304  11.494
87348W        W57948  44.931   3.995   0.786
87349W        W57949   8.853   0.226   2.266
87350W        W57950  22.461  40.903  13.290
87351W        W57951  41.887  39.926  12.008
87352W        W57952  39.761  35.522   2.793
87353W        W57953  37.361  35.927   1.267
87354W        W57954  13.269  32.720  13.505
87355W        W57955   1.405  41.097  14.839
87356W        W57956  13.280  32.775  11.166
87357W        W57957  43.077  23.660   2.310
87358W        W57958  27.702  32.029  14.073
87359W        W57959  34.007  11.956   4.638
87360W        W57960   8.117  42.231  13.366
87361W        W57961   6.275  13.636  10.264
87362W        W57962   2.514   0.817  10.587
87363W        W57963  43.549   6.616  10.654
87364W        W57964  43.252  24.137   2.260
87365W        W57965  15.587  23.820   4.760
87366W        W57966   9.349   5.780   1.522
87367W        W57967  44.457   1.908   1.421
87368W        W57968  24.589   0.493  14.355
87369W        W57969  26.432  10.256   2.789
87370W        W57970  37.620  26.995   2.161
87371W        W57971  37.483   4.156  13.853
87372W        W57972  22.044  18.016   3.803
87373W        W57973  35.772  18.184  13.030
87374W        W57974  11.755  32.000  12.881
87375W        W57975  17.132  40.978  13.155
87376W        W57976  16.039  42.401  14.420
87377W        W57977  41.225  38.036   1.426
87378W        W57978  38.486  33.541   3.616
87379W        W57979   0.391  17.255  13.404
87380W        W57980  32.732  43.358  11.061
87381W        W57981  13.550  41.406  11.690
87382W        W57982   7.992   7.381  13.459
87383W        W57983   9.810  17.176  12.932
87384W        W57984  35.581  15.734  14.467
87385W        W57985  11.867  44.735   0.780
87386W        W57986   4.161   9.880  11.412
87387W        W57987  32.937   1.001   0.261
87388W        W57988  25.777  34.935   2.839
87389W        W57989  34.706  24.498   3.694
87390W        W57990  43.770  39.459   4.790
87391W        W57991   9.747   4.182   0.280
87392W        W57992   2.293  13.538   2.864
87393W        W57993  16.055  31.464   1.106
87394W        W57994  15.164  34.011  12.007
87395W        W57995  35.480   2.948   3.390
87396W        W57996  25.435  43.304   1.788
87397W        W57997  10.906  31.077   3.716
87398W        W57998   5.382  34.557   2.279
87399W        W57999  18.162   1.755   0.464
87400W        W58000  36.572  19.034  13.922
87401W        W58001  14.848  18.338  11.912
87402W        W58002  27.167  14.664  14.750
87403W        W58003  18.448   2.235   1.174
87404W        W58004  38.321  16.252   2.826
87405W        W58005  30.651  32.094  13.327
87406W        W58006  21.000  24.349   3.373
87407W        W58007   7.802  22.078  14.248
87408W        W58008   3.464  26.435  14.460
87409W        W58009  34.599  33.029  12.193
87410W        W58010   9.979  39.592  13.493
87411W        W58011  44.945  10.065  13.000
87412W        W58012   5.340  20.134   0.289
87413W        W58013  18.274  41.796   0.450
87414W        W58014  38.934   0.068   1.179
87415W        W58015   1.362   2.481  13.318
87416W        W58016  38.438  13.317   0.509
87417W        W58017  36.549  14.667   4.094
87418W        W58018  14.787  33.334   4.606
87419W        W58019   0.451  32.553   1.287
87420W        W58020   3.702  18.486   2.759
87421W        W58021  42.577  40.501  13.493
87422W        W58022  26.051  18.653   4.647
87423W        W58023  12.778   0.960   0.765
87424W        W58024   0.604  39.573   4.764
87425W        W58025  31.034   1.966  13.321
87426W        W58026  33.190   1.695  10.275
87427W        W58027   9.804   7.504  13.028
87428W        W58028  37.530  26.533   4.227
87429W        W58029  38.970  35.551  12.710
87430W        W58030  17.561   4.693  14.430
87431W        W58031  38.846  33.356   0.242
87432W        W58032  18.086  27.126  14.961
87433W        W58033  25.257  36.474   4.408
87434W        W58034  13.761  21.209  14.547
87435W        W58035  18.840   9.696   0.986
87436W        W58036   6.455  34.833  12.635
87437W        W58037  24.467  20.173  14.852
87438W        W58038  26.479  42.286   3.484
87439W        W58039   1.134   2.233   0.869
87440W        W58040  11.442  18.526   2.783
87441W        W58041  23.059  31.339   4.075
87442W        W58042  28.177  17.707  12.873
87443W        W58043  34.921  16.629  14.268
87444W        W58044   3.158  43.210   0.296
87445W        W58045  31.123  22.071   0.747
87446W        W58046   1.195   2.785   3.754
87447W        W58047  29.617  31.547   1.829
87448W        W58048  16.961   3.887   1.268
87449W        W58049  33.583   0.399  12.025
87450W        W58050  21.294  16.926   4.124
87451W        W58051  43.816  34.428  10.878
87452W        W58052  19.528  41.070   1.734
87453W        W58053  39.174  35.602   4.784
87454W        W58054   6.373  21.331   3.260
87455W        W58055  34.494  24.127  14.038
87456W        W58056   2.174  39.294  14.085
87457W        W58057  25.951  13.809  12.541
87458W        W58058  38.754  15.207   2.174
87459W        W58059  16.908  24.596  11.626
87460W        W58060  27.674  36.795  12.010
87461W        W58061  30.582  16.316  13.553
87462W        W58062  27.925  29.736  13.963
87463W        W58063  16.376  19.832   3.507
87464W        W58064  32.559  35.428  10.651
87465W        W58065   0.240  30.098  13.817
87466W        W58066  40.975   7.978  10.632
87467W        W58067  27.770  40.814   0.829
87468W        W58068  42.739  21.451   4.181
87469W        W58069   8.772  39.523  10.571
87470W        W58070  21.214  17.629   2.720
87471W        W58071  18.847   3.052  14.397
87472W        W58072  16.178   3.810  14.816
87473W        W58073   8.846  41.633   0.995
87474W        W58074   6.699  10.384  14.214
87475W        W58075  21.005  13.823  14.497
87476W        W58076  42.483  26.459  10.716
87477W        W58077  40.776  27.510   1.843
87478W        W58078  43.849  22.818  10.627
87479W        W58079   3.582  17.019  10.557
87480W        W58080  12.838   5.284   1.661
87481W        W58081  37.886  28.680   2.220
87482W        W58082   2.775  37.394   0.776
87483W        W58083  30.171  24.595  12.904
87484W        W58084  22.933  44.372  11.636
87485W        W58085  20.497  43.989   0.875
87486W        W58086  13.640  44.303   2.880
87487W        W58087  26.488  19.008   0.431
87488W        W58088   1.661  33.040   3.714
87489W        W58089  30.553   4.203   2.190
87490W        W58090  34.613   1.268   0.988
87491W        W58091  36.868  41.020   3.685
87492W        W58092  33.566   6.429  13.387
87493W        W58093  40.592  26.871   4.452
87494W        W58094  11.604  33.289  10.558
87495W        W58095  33.391   5.908  11.773
87496W        W58096  20.758  21.637   0.517
87497W        W58097   3.657  27.511  11.864
87498W        W58098   4.254  22.702   2.817
87499W        W58099  34.291  16.138  14.753
87500W        W58100  44.326  33.030   0.982
87501W        W58101  20.611  26.726   0.401
87502W        W58102   5.889  12.331   3.348
87503W        W58103  28.266   8.168   1.033
87504W        W58104   8.383   4.918   0.267
87505W        W58105   6.423  39.083  13.497
87506W        W58106  44.255   7.473   0.777
87507W        W58107  19.742  33.718  13.806
87508W        W58108   8.206  36.404  13.890
87509W        W58109  10.622   2.311   2.674
87510W        W58110  30.484   1.271   2.294
87511W        W58111  42.796  32.374  12.169
87512W        W58112  43.415  26.710  13.852
87513W        W58113  18.890  19.778  14.262
87514W        W58114  30.141   7.834   2.682
87515W        W58115   8.185  20.297  10.697
87516W        W58116  44.816  24.968   1.491
87517W        W58117  11.789  23.840   9.503
87518W        W58118  11.086   4.739   0.936
87519W        W58119  24.751  36.667  12.324
87520W        W58120  15.777   9.940  10.099
87521W        W58121  29.979  13.536   0.846
87522W        W58122   0.318  40.384   3.332
87523W        W58123  38.986  33.618   3.742
87524W        W58124   0.814   3.865   2.378
87525W        W58125   7.121  36.101   3.606
87526W        W58126  29.198   9.847  10.738
87527W        W58127   3.561   1.030   3.409
87528W        W58128   1.132  12.139   4.711
87529W        W58129  19.371  18.008  13.850
87530W        W58130  19.041  40.327  11.929
87531W        W58131  30.170  33.640   2.598
87532W        W58132  26.639   3.262   1.408
87533W        W58133  32.673  35.043   3.197
87534W        W58134  39.352  16.642  14.426
87535W        W58135  22.245  26.008  14.181
87536W        W58136   5.989   6.295  11.621
87537W        W58137  22.138  12.075   2.275
87538W        W58138  30.081  27.434   1.789
87539W        W58139  21.577  21.550  11.192
87540W        W58140  35.901   6.680   1.393
87541W        W58141   8.107   4.725   2.715
87542W        W58142  24.736   4.821   1.497
87543W        W58143  35.907  22.926  12.528
87544W        W58144  42.250  34.076   3.748
87545W        W58145  42.313  21.904  12.254
87546W        W58146  34.584  33.128   0.495
87547W        W58147  29.197  30.752   1.883
87548W        W58148  17.646  22.268   2.318
87549W        W58149  24.918  23.111   2.286
87550W        W58150   9.261  37.626   3.267
87551W        W58151   5.338   7.736   1.144
87552W        W58152  17.419  12.673  13.785
87553W        W58153  23.493  14.800   1.409
87554W        W58154  22.341   1.400   1.198
87555W        W58155  41.441  44.113   0.470
87556W        W58156  25.475   5.913  13.330
87557W        W58157  22.548  19.649   1.690
87558W        W58158  26.929  37.189  12.495
87559W        W58159  17.243  32.414  10.580
87560W        W58160  40.991  21.669   1.012
87561W        W58161  18.534  38.769   0.954
87562W        W58162  43.521  39.738  14.990
87563W        W58163  20.276  29.407  10.474
87564W        W58164  13.613   3.239   1.292
87565W        W58165  19.257  22.038  12.860
87566W        W58166  26.183  43.487   0.136
87567W        W58167  19.162   6.168  13.410
87568W        W58168  25.596  13.525   0.252
87569W        W58169  26.871   1.518   1.821
87570W        W58170  15.541  33.196   3.264
87571W        W58171  31.700   7.489  11.612
87572W        W58172  27.134  38.824   1.895
87573W        W58173  13.647  39.155   2.354
87574W        W58174   7.218  43.415   1.942
87575W        W58175   9.248   3.201  14.819
87576W        W58176   8.981  39.021   3.163
87577W        W58177  16.605  20.999  11.679
87578W        W58178  22.839   9.147   0.060
87579W        W58179  33.043   0.362  13.400
87580W        W58180  17.317   4.183  10.901
87581W        W58181   5.403  32.773   2.044
87582W        W58182  42.332  37.632   0.656
87583W        W58183  28.726  44.668   4.270
87584W        W58184  31.979  16.911   1.398
87585W        W58185  41.476  25.785   0.588
87586W        W58186  13.566  20.428  12.906
87587W        W58187   7.154  21.266  11.635
87588W        W58188   1.224   5.254  13.404
87589W        W58189  18.451  30.046   4.617
87590W        W58190  10.904  12.856   0.866
87591W        W58191  32.706  20.600  12.048
87592W        W58192  34.620  26.512  12.547
87593W        W58193  11.419  10.241   0.392
87594W        W58194  36.869   4.669   5.025
87595W        W58195  11.846  44.957  10.730
87596W        W58196  16.010  40.874   9.807
87597W        W58197  42.308  42.414  12.166
87598W        W58198   2.200  10.804   4.681
87599W        W58199  10.913  44.275   0.751
87600W        W58200  35.972   8.637  10.454
87601W        W58201  18.995  36.823  13.608
87602W        W58202   6.824  42.321  12.266
87603W        W58203  40.043  43.233   4.685
87604W        W58204  31.117  36.153  12.028
87605W        W58205  33.145  41.287   2.183
87606W        W58206  20.660  24.901   0.003
87607W        W58207  42.776  28.681   0.717
87608W        W58208   0.409  31.631   4.575
87609W        W58209   8.577  15.309   2.636
87610W        W58210  36.630  27.491  12.386
87611W        W58211   2.974  31.573  12.975
87612W        W58212  14.532   1.359   2.382
87613W        W58213  44.476  20.037   3.567
87614W        W58214   2.824   4.685   1.788
87615W        W58215  34.456  28.104  12.051
87616W        W58216  21.188  27.548   1.339
87617W        W58217  19.885  44.322   4.628
87618W        W58218  11.079  42.681   1.394
87619W        W58219   7.476  40.006   4.002
87620W        W58220  17.115  23.760  10.742
87621W        W58221  15.440  33.022  14.980
87622W        W58222  28.896  43.004  13.057
87623W        W58223  11.307  40.076  11.954
87624W        W58224  24.590  39.578   2.401
87625W        W58225  11.367   7.375   3.700
87626W        W58226   9.742  26.134  12.925
87627W        W58227  19.794  22.259  14.258
87628W        W58228  42.848   8.683   2.770
87629W        W58229  16.995  41.708  11.123
87630W        W58230  12.959  21.157   3.006
87631W        W58231  16.109  41.843   0.756
87632W        W58232  29.719   7.114   0.251
87633W        W58233  35.756   5.837   4.193
87634W        W58234  15.254  12.940  13.512
87635W        W58235  28.499  25.962   0.797
87636W        W58236  26.575   3.023   1.973
87637W        W58237  43.994  39.420   1.931
87638W        W58238   3.313   3.749  14.815
87639W        W58239  43.293  17.511   1.539
87640W        W58240   1.992  11.880  14.407
87641W        W58241  44.318  44.716   0.048
87642W        W58242  44.404  19.599   1.619
87643W        W58243  20.406  15.137  11.520
87644W        W58244   0.899   3.519   1.658
87645W        W58245  25.017  10.027   2.461
87646W        W58246  27.122  28.658   4.524
87647W        W58247  15.681  25.232  12.862
87648W        W58248  26.172   4.273  12.470
87649W        W58249  23.158  15.346   4.186
87650W        W58250  37.172  34.054  14.737
87651W        W58251  22.249  35.609   2.146
87652W        W58252  39.991   7.885   1.793
87653W        W58253  17.026  42.207   1.270
87654W        W58254  12.296  27.685  12.502
87655W        W58255  18.737  22.465   1.321
87656W        W58256  12.879  27.047   4.587
87657W        W58257  24.694  30.545  12.557
87658W        W58258  35.398  20.457   2.687
87659W        W58259   2.473  16.283  13.563
87660W        W58260  14.988  12.483   5.436
87661W        W58261   8.686  39.223  10.986
87662W        W58262  34.784  24.009   2.770
87663W        W58263  43.345  38.493   4.831
87664W        W58264  31.657  38.899   0.928
87665W        W58265   4.440   4.570   3.760
87666W        W58266  32.058  15.576  13.282
87667W        W58267   2.676  32.017  12.916
87668W        W58268  18.880   6.960  13.401
87669W        W58269  37.149  27.401   2.638
87670W        W58270  13.119  35.646  13.632
87671W        W58271  34.257  32.013  13.601
87672W        W58272  41.125  18.988   1.505
87673W        W58273  36.959  34.109  12.013
87674W        W58274  12.046   7.664   1.595
87675W        W58275  44.498  15.789  13.787
87676W        W58276   1.657  32.929   1.066
87677W        W58277  32.021  41.029  12.016
87678W        W58278   9.880   2.363   3.285
87679W        W58279  32.518  32.231  14.932
87680W        W58280  19.600  23.504  12.969
87681W        W58281   1.759  23.505   0.474
87682W        W58282  22.109   2.358   1.820
87683W        W58283  25.919   2.479   1.569
87684W        W58284  37.492  32.685   4.558
87685W        W58285  33.876  32.348   1.881
87686W        W58286  30.986  44.980   2.173
87687W        W58287  32.149  20.319  11.619
87688W        W58288   7.386  40.287  13.954
87689W        W58289  38.931  26.143   2.459
87690W        W58290  24.595  31.932   0.035
87691W        W58291  23.441  19.261  12.523
87692W        W58292   0.384   8.053   4.174
87693W        W58293  32.895  18.520   1.166
87694W        W58294  30.716  21.595   0.931
87695W        W58295   7.698  31.806   0.933
87696W        W58296  40.826  24.250  10.499
87697W        W58297   7.354  37.120   3.172
87698W        W58298  34.878  39.128   1.020
87699W        W58299  30.264  25.033   3.207
87700W        W58300  33.286  23.231   5.188
87701W        W58301  37.150  34.943  12.937
87702W        W58302  32.167  26.600  13.902
87703W        W58303   4.435  24.535  13.939
87704W        W58304  27.757  44.396  10.602
87705W        W58305  28.659  22.308   0.749
87706W        W58306  25.899   3.629  14.931
87707W        W58307  22.307  20.644  11.960
87708W        W58308  39.470   0.030   1.889
87709W        W58309  24.908  13.292  13.461
87710W        W58310  24.936  35.818  12.455
87711W        W58311   2.515  27.698   3.121
87712W        W58312  29.493   8.472   2.728
87713W        W58313  15.831  33.969   1.961
87714W        W58314  41.170  28.420   4.920
87715W        W58315  18.326  44.326  11.089
87716W        W58316  39.968   7.342   4.134
87717W        W58317  24.692  34.096  11.026
87718W        W58318  40.946  41.206  11.039
87719W        W58319   0.349  36.596  12.655
87720W        W58320  19.197  40.266   1.331
87721W        W58321   1.203  39.552   0.903
87722W        W58322   7.681  19.862  13.894
87723W        W58323  31.109  11.653  10.510
87724W        W58324  26.289   2.833   2.430
87725W        W58325  18.301   5.716  13.766
87726W        W58326  41.269  31.399  13.536
87727W        W58327  24.899  14.225   1.771
87728W        W58328  36.521  10.268   4.477
87729W        W58329  28.941   1.725   4.238
87730W        W58330  14.665  42.038   1.345
87731W        W58331  30.115   8.112  11.176
87732W        W58332  11.289  36.343  12.009
87733W        W58333  42.830  13.382   4.617
87734W        W58334   2.997  23.092  10.776
87735W        W58335  27.427  16.208   2.183
87736W        W58336  17.427  36.829   4.227
87737W        W58337  39.107   8.397  10.702
87738W        W58338  36.483   1.494  10.715
87739W        W58339  39.542  24.527  14.482
87740W        W58340  42.322  25.691   0.250
87741W        W58341  38.026  37.864   3.403
87742W        W58342  40.588  32.003   5.132
87743W        W58343  44.962   7.888  14.752
87744W        W58344  31.389  11.103   4.951
87745W        W58345   2.359  13.845   1.414
87746W        W58346  21.985  41.360   0.668
87747W        W58347  16.061   8.172   0.333
87748W        W58348  21.282  28.771  12.537
87749W        W58349  33.168  17.689   1.748
87750W        W58350  43.155  23.112   4.290
87751W        W58351   2.271  41.000  12.384
87752W        W58352   9.704   0.061  13.070
87753W        W58353  37.275  38.915  12.872
87754W        W58354  29.434  41.409  11.323
87755W        W58355  14.130  28.632   2.812
87756W        W58356  34.596  33.036   1.842
87757W        W58357   3.931  40.006  10.630
87758W        W58358  18.100   9.105   3.550
87759W        W58359  19.690   6.181  11.416
87760W        W58360  31.703  43.952   1.258
87761W        W58361  28.736  28.301  13.333
87762W        W58362  28.967  43.443   3.581
87763W        W58363  21.435  15.760  13.012
87764W        W58364   6.719  13.881  14.539
87765W        W58365  29.094   4.210  14.542
87766W        W58366  23.298  17.174  12.434
87767W        W58367  20.592  32.424  14.545
87768W        W58368   8.204  11.868   3.331
87769W        W58369   7.410  31.387   0.863
87770W        W58370  18.564  30.721  11.377
87771W        W58371  15.527   3.259   2.338
87772W        W58372  30.006   7.152  13.043
87773W        W58373   3.756  23.984   4.594
87774W        W58374  31.821  27.030   4.507
87775W        W58375  27.434  43.220   3.196
87776W        W58376   0.350  15.565   0.004
87777W        W58377  16.015   7.664  12.053
87778W        W58378  21.566  29.041   3.591
87779W        W58379  31.125  27.189   3.252
87780W        W58380   0.395   4.618  12.858
87781W        W58381  36.465  21.475   4.709
87782W        W58382  36.869  41.039  12.460
87783W        W58383  13.315  10.311   3.400
87784W        W58384  26.089  12.187  10.968
87785W        W58385  24.460  11.848  13.306
87786W        W58386   1.502  20.057  12.934
87787W        W58387  26.575   7.761  14.552
87788W        W58388  12.810  23.550   4.108
87789W        W58389   8.132   5.942   4.061
87790W        W58390  28.000   4.212  11.515
87791W        W58391  30.545   6.252  14.534
87792W        W58392  29.986  28.881  14.945
87793W        W58393   9.598   3.902  14.275
87794W        W58394  19.391  38.254  13.136
87795W        W58395   7.226   1.278  14.924
87796W        W58396   0.495  13.937   1.345
87797W        W58397  26.473  41.887  14.295
87798W        W58398  35.344  44.159  11.771
87799W        W58399  16.033  15.587   9.962
87800W        W58400   1.701  19.902  12.044
87801W        W58401  42.036  18.990   0.940
87802W        W58402  16.881   5.064   2.903
87803W        W58403  37.298  27.332  11.025
87804W        W58404  26.334  14.603   4.123
87805W        W58405  23.568   2.328   0.933
87806W        W58406  18.834   5.237   4.941
87807W        W58407  12.440   2.278   0.375
87808W        W58408   2.031   5.890  13.549
87809W        W58409  30.136   6.421   4.573
87810W        W58410   3.927  10.291  10.510
87811W        W58411  24.802  42.479   1.084
87812W        W58412  43.847  16.768   4.482
87813W        W58413   6.943   3.268   2.243
87814W        W58414  24.733  40.106   4.113
87815W        W58415  12.885  24.257  14.402
87816W        W58416   3.340  13.592  14.866
87817W        W58417   3.622  14.622   4.761
87818W        W58418  38.850   1.324  14.770
87819W        W58419  43.740  33.977   0.233
87820W        W58420  28.264   4.070   2.537
87821W        W58421  36.660  42.273  11.875
87822W        W58422  20.137  32.156   3.236
87823W        W58423  15.183  42.459   1.616
87824W        W58424  23.466  21.387   9.983
87825W        W58425  13.598  30.203  12.299
87826W        W58426  28.731  41.102   5.052
87827W        W58427  20.624  25.543   4.485
87828W        W58428  31.579  22.174  12.065
87829W        W58429  44.411  30.193   0.897
87830W        W58430  31.045  37.426   3.708
87831W        W58431  42.878  18.752  13.085
87832W        W58432  15.286  26.165   0.248
87833W        W58433  11.015  30.579   0.706
87834W        W58434  17.075  28.196  11.515
87835W        W58435  14.185  11.219  10.700
87836W        W58436  38.744  41.030   1.462
87837W        W58437  10.478  42.268  10.528
87838W        W58438  13.289  26.044   2.325
87839W        W58439  42.378  36.324  14.064
87840W        W58440   5.096  26.954  13.432
87841W        W58441   0.801  12.054   4.306
87842W        W58442  11.207  40.577   4.565
87843W        W58443  39.872   0.828  13.065
87844W        W58444  16.305  39.157   3.024
87845W        W58445  43.258  27.378   0.499
87846W        W58446  33.968  12.622   2.864
87847W        W58447  15.623  39.414  13.429
87848W        W58448  38.931  38.930   2.167
87849W        W58449  18.273  40.741   2.246
87850W        W58450   0.792  29.397   0.280
87851W        W58451  32.639  10.323   1.305
87852W        W58452  18.169  13.695  10.661
87853W        W58453  22.143  32.534  13.432
87854W        W58454  11.153  12.302   4.265
87855W        W58455  21.331   0.348  14.471
87856W        W58456  11.285  40.808   4.101
87857W        W58457  27.611  31.541   3.713
87858W        W58458  19.808  32.343   4.173
87859W        W58459  20.725  40.960   2.820
87860W        W58460  20.332   2.160   2.276
87861W        W58461  13.901  17.747   0.342
87862W        W58462  19.291  15.595   1.306
87863W        W58463  24.948  39.947   0.355
87864W        W58464  18.899  18.825  10.875
87865W        W58465  35.640   6.108  14.461
87866W        W58466  10.756   1.863   1.750
87867W        W58467  10.374  43.009  14.208
87868W        W58468  12.123   7.506  12.001
87869W        W58469   3.330  20.294  10.544
87870W        W58470  30.773  25.666  12.652
87871W        W58471  42.442   6.746  13.879
87872W        W58472  36.911  11.570  13.017
87873W        W58473  11.893   6.306   2.672
87874W        W58474  25.209   1.222   4.011
87875W        W58475  16.635  18.994  10.564
87876W        W58476  21.555  25.177   4.221
87877W        W58477  31.109  43.295   3.661
87878W        W58478  16.913  35.524   0.153
87879W        W58479  12.134  30.164  13.475
87880W        W58480  26.534  44.367   1.862
87881W        W58481  40.305  38.945  13.072
87882W        W58482  34.625  29.377  14.066
87883W        W58483  43.516  20.800   4.033
87884W        W58484  27.502  19.812   1.680
87885W        W58485  36.410   8.217   1.626
87886W        W58486  37.893  14.181  13.915
87887W        W58487  11.843  21.157  13.137
87888W        W58488  20.750   2.190   3.338
87889W        W58489   3.835  14.304   0.076
87890W        W58490  40.794  35.935   4.907
87891W        W58491  40.711  40.281  13.607
87892W        W58492  43.660   7.870  13.595
87893W        W58493  13.804  12.649  11.566
87894W        W58494  15.616   6.686   4.728
87895W        W58495  26.526  18.478   4.479
87896W        W58496  16.320  22.733   4.678
87897W        W58497   4.082   6.038  14.923
87898W        W58498  38.844  12.755   3.223
87899W        W58499  20.526  40.913   3.664
87900W        W58500  36.591  37.204  13.287
87901W        W58501  27.573  37.500  14.598
87902W        W58502  38.601  17.366   3.672
87903W        W58503   6.055   0.308   1.986
87904W        W58504  12.375   5.437   1.020
87905W        W58505  24.232  13.333  11.267
87906W        W58506  25.760  29.502   1.229
87907W        W58507  41.024   4.432  11.490
87908W        W58508  20.589  44.769  13.499
87909W        W58509  35.831  12.633  14.218
87910W        W58510  12.770   9.352  11.369
87911W        W58511  19.303  11.128   2.199
87912W        W58512  17.337  14.355   1.884
87913W        W58513  44.786  27.641   2.425
87914W        W58514  35.762  28.107   1.126
87915W        W58515   3.559  11.274   0.851
87916W        W58516  15.072  42.764  13.108
87917W        W58517  32.586  22.971  14.381
87918W        W58518  39.006  17.028  11.267
87919W        W58519  19.367  37.341  12.062
87920W        W58520  32.277  43.948  12.815
87921W        W58521  21.348  10.651   0.694
87922W        W58522  21.233   7.126  14.281
87923W        W58523  36.372  38.075   4.706
87924W        W58524  25.147   9.720  14.394
87925W        W58525  29.512  28.519  10.678
87926W        W58526  30.132  10.285  14.925
87927W        W58527  41.514  30.126   1.304
87928W        W58528  39.760  38.801   4.555
87929W        W58529  31.106  39.804   3.602
87930W        W58530  13.760  40.513  11.263
87931W        W58531  32.063  29.698  12.384
87932W        W58532   0.293  35.103  14.493
87933W        W58533  38.972  37.036  12.384
87934W        W58534   6.571  37.437   5.113
87935W        W58535  12.463  40.369  12.536
87936W        W58536  18.479  11.759   0.356
87937W        W58537  13.707   5.247   4.689
87938W        W58538  17.242  21.199  13.714
87939W        W58539  27.690  34.807  14.965
87940W        W58540  36.120   0.948   0.713
87941W        W58541  11.180  32.552  12.870
87942W        W58542  22.981   5.495  14.238
87943W        W58543  20.591  14.262   4.890
87944W        W58544  20.833  38.604  10.825
87945W        W58545  27.166   5.120  12.089
87946W        W58546  28.498  33.068   1.697
87947W        W58547  19.867  19.327   4.393
87948W        W58548  20.732  29.695   1.435
87949W        W58549  43.558   7.552   0.570
87950W        W58550   3.436  33.668   4.869
87951W        W58551   9.867  10.894   0.732
87952W        W58552  13.311  26.427   4.597
87953W        W58553   9.437   4.774   1.383
87954W        W58554   8.845   2.989  12.582
87955W        W58555  25.035   6.875   4.532
87956W        W58556  38.365  23.938   3.776
87957W        W58557   8.412  33.503   3.170
87958W        W58558  34.490   2.319   1.773
87959W        W58559   4.901  37.197   1.320
87960W        W58560  27.073  31.057  10.757
87961W        W58561  25.537  37.018   1.853
87962W        W58562  19.001  20.188  11.381
87963W        W58563  32.614  33.306  12.019
87964W        W58564   8.407  30.486  10.562
87965W        W58565  33.244  24.382   0.866
87966W        W58566  19.281   9.247  12.526
87967W        W58567   7.323  31.580  12.025
87968W        W58568  38.833  32.568  13.330
87969W        W58569  19.338  43.265  13.999
87970W        W58570   5.715  23.359   2.743
87971W        W58571  27.204  19.803  12.303
87972W        W58572  11.306  30.589   3.216
87973W        W58573   9.602  18.689  11.086
87974W        W58574  39.350  30.898   1.970
87975W        W58575  28.455  17.959  14.171
87976W        W58576   0.164  35.376   5.139
87977W        W58577  20.866   0.285  14.881
87978W        W58578  22.980  16.233  14.506
87979W        W58579  35.363  39.115   2.608
87980W        W58580  39.968  27.626  11.622
87981W        W58581  26.172  14.864   0.329
87982W        W58582  35.565   3.921  14.503
87983W        W58583  18.091  12.251  11.868
87984W        W58584   2.998  15.762   2.241
87985W        W58585  38.354  18.416  13.921
87986W        W58586   4.141  37.046   0.758
87987W        W58587  41.080  30.388  13.960
87988W        W58588  19.498  17.110  14.296
87989W        W58589  21.186  33.847  12.982
87990W        W58590  30.502  41.424   3.528
87991W        W58591  11.703  10.609  14.516
87992W        W58592  19.463  30.102  12.589
87993W        W58593   9.765   1.308  13.804
87994W        W58594  20.004  13.756  14.394
87995W        W58595   2.171  19.095  11.636
87996W        W58596  39.347   0.199   2.750
87997W        W58597  16.880  14.199  13.654
87998W        W58598   9.198  34.486  11.679
87999W        W58599  11.472  16.763  13.000
88000W        W58600  28.317  40.554   2.393
88001W        W58601  31.556  16.657  11.929
88002W        W58602  28.789  12.156  14.367
88003W        W58603  12.753  15.758   3.870
88004W        W58604   0.880   1.749  14.584
88005W        W58605   3.647  25.225  11.808
88006W        W58606   8.991  43.994   3.694
88007W        W58607  28.681  25.406  12.844
88008W        W58608  28.975  16.355   2.308
88009W        W58609   0.195  30.500   3.540
88010W        W58610  37.087  33.113  13.950
88011W        W58611  25.552  33.527   3.834
88012W        W58612  24.538  35.526  13.764
88013W        W58613  35.350   7.658   2.095
88014W        W58614  40.163  24.231   2.618
88015W        W58615  30.680   9.341  11.119
88016W        W58616  43.199   4.408   1.854
88017W        W58617  27.112  16.690  13.567
88018W        W58618  11.423  16.159  14.468
88019W        W58619  27.545  22.916   2.441
88020W        W58620   4.339  37.031   3.426
88021W        W58621   3.184  40.360   4.989
88022W        W58622  30.954  30.892  13.887
88023W        W58623  38.969  15.677  10.867
88024W        W58624  35.498  20.752  11.990
88025W        W58625  37.028   0.436   0.545
88026W        W58626  40.416  13.346  10.698
88027W        W58627   4.823  22.466  14.788
88028W        W58628  22.217  34.372  14.544
88029W        W58629  30.857  41.297   1.281
88030W        W58630   2.188  22.490  12.577
88031W        W58631  30.973  26.536   1.173
88032W        W58632  40.548  14.348  10.677
88033W        W58633  41.827  41.250  11.426
88034W        W58634  12.107  12.359   4.611
88035W        W58635  25.027   4.069   4.612
88036W        W58636  30.932  33.355  13.249
88037W        W58637   4.575  20.985   0.761
88038W        W58638  28.983  17.807   0.289
88039W        W58639   2.298  16.366  11.692
88040W        W58640  10.307  30.232   0.103
88041W        W58641  15.465  10.856   4.964
88042W        W58642  11.940  20.207  11.658
88043W        W58643  30.575   3.552  13.800
88044W        W58644  25.171  40.711   0.781
88045W        W58645  33.454  32.531  10.565
88046W        W58646   0.861  24.011   3.663
88047W        W58647  42.169  12.289  12.107
88048W        W58648   5.325  29.760   0.923
88049W        W58649  26.962  32.090  13.528
88050W        W58650  28.923   6.936  14.410
88051W        W58651   5.004  44.498  12.545
88052W        W58652  44.339  13.772  11.980
88053W        W58653  32.461  28.128   0.191
88054W        W58654  43.883  16.002  11.635
88055W        W58655   6.460   1.261  13.077
88056W        W58656  36.503  30.047   3.974
88057W        W58657   5.349  26.987  11.204
88058W        W58658  30.927   8.305  10.514
88059W        W58659  33.959  19.610   0.164
88060W        W58660   7.771  32.649  14.978
88061W        W58661  26.754   0.324  13.583
88062W        W58662   1.408  27.167   4.514
88063W        W58663  16.072  13.155   3.719
88064W        W58664  44.268  43.735   1.722
88065W        W58665  17.979  15.902   2.401
88066W        W58666  41.762  38.073   3.749
88067W        W58667  40.305  16.386  13.127
88068W        W58668  17.158   8.998  11.634
88069W        W58669   7.952  37.454   3.619
88070W        W58670   6.397  12.121  10.968
88071W        W58671  26.567  20.556  10.637
88072W        W58672  10.825  29.135  11.995
88073W        W58673  22.998  32.045  12.050
88074W        W58674   2.254  12.733   2.799
88075W        W58675  42.469  12.127   1.505
88076W        W58676  19.353  20.965  11.624
88077W        W58677   1.983   1.306  14.746
88078W        W58678  12.782  36.373   4.266
88079W        W58679  37.027  27.985  13.546
88080W        W58680  13.802  20.672   0.844
88081W        W58681  41.846  43.524   4.736
88082W        W58682  40.883   9.141   1.315
88083W        W58683  11.254  41.032   0.509
88084W        W58684  34.041  35.585  11.557
88085W        W58685  39.968  16.099  14.924
88086W        W58686  13.039   2.856  11.448
88087W        W58687  44.401  36.495   0.408
88088W        W58688   5.207  31.396  12.300
88089W        W58689  36.286  10.699  11.200
88090W        W58690  25.847  34.844  11.050
88091W        W58691  38.441   3.926  13.804
88092W        W58692  20.712  36.693  12.739
88093W        W58693   9.248  38.764   0.978
88094W        W58694   1.775  38.384  14.449
88095W        W58695  42.576   5.735   1.903
88096W        W58696  35.575  39.372  12.599
88097W        W58697  37.856   9.086   1.755
88098W        W58698  29.111  44.224   2.237
88099W        W58699  21.757  19.843  13.908
88100W        W58700  33.368  10.363  10.687
88101W        W58701  29.688  18.003   3.292
88102W        W58702  23.184  21.279   4.141
88103W        W58703   1.344  40.831  14.367
88104W        W58704   7.773  16.558   0.918
88105W        W58705  30.318  26.203  11.324
88106W        W58706  43.784   0.828   0.352
88107W        W58707   2.263  13.157  11.832
88108W        W58708  37.422  24.962  10.686
88109W        W58709  26.503   7.867   1.502
88110W        W58710  33.627  10.611   3.719
88111W        W58711  10.773  20.664   4.113
88112W        W58712  20.602  42.481   2.339
88113W        W58713  28.996  17.313  10.555
88114W        W58714  11.864  17.988  11.665
88115W        W58715  14.270  13.397   3.343
88116W        W58716   0.022  11.544  12.171
88117W        W58717  11.722  29.006  10.183
88118W        W58718  10.797  14.318  11.691
88119W        W58719  42.063  41.090  10.623
88120W        W58720  22.665  40.242   1.789
88121W        W58721  18.758  19.717  10.850
88122W        W58722  13.822   8.436   4.766
88123W        W58723  14.117   6.322  13.523
88124W        W58724   4.360  37.886  11.616
88125W        W58725   1.325  34.567   3.197
88126W        W58726   3.624   9.384  12.021
88127W        W58727  26.351   8.154   2.763
88128W        W58728  36.880  26.051  14.835
88129W        W58729  44.775  39.789  13.838
88130W        W58730  30.173  13.501  14.442
88131W        W58731  35.537  44.926  11.232
88132W        W58732  44.462  35.032   4.169
88133W        W58733  13.755  39.986   3.987
88134W        W58734  23.722  36.295  12.450
88135W        W58735  26.255  24.043  10.653
88136W        W58736   6.647  27.243   2.236
88137W        W58737  28.814  29.628   4.658
88138W        W58738  28.126  19.882  10.443
88139W        W58739   3.997  26.486  14.415
88140W        W58740  21.717  22.011   4.122
88141W        W58741  40.598  32.047  12.639
88142W        W58742  44.309   0.017   4.135
88143W        W58743  21.663   7.645   3.854
88144W        W58744   3.280  35.336   2.799
88145W        W58745  35.924   3.345   2.623
88146W        W58746   4.190  15.600  11.970
88147W        W58747   7.865  28.995  14.153
88148W        W58748  33.942   6.482  10.287
88149W        W58749  39.506  42.280  11.084
88150W        W58750  41.632  31.168   2.650
88151W        W58751  27.977  13.631  11.057
88152W        W58752  14.253  25.956   2.840
88153W        W58753  20.798  39.504  13.001
88154W        W58754  32.095   0.310   2.536
88155W        W58755   0.359  17.084  11.933
88156W        W58756   9.684  24.129  13.280
88157W        W58757  38.860  39.869   0.616
88158W        W58758  33.773   2.658   1.414
88159W        W58759  21.484  42.031   4.562
88160W        W58760  14.700   1.451  13.423
88161W        W58761   0.514  35.886  13.755
88162W        W58762  43.431  12.705   4.749
88163W        W58763  40.821  23.194  12.436
88164W        W58764  36.582  35.005  13.924
88165W        W58765  38.603  16.912   0.735
88166W        W58766  13.264  23.054  14.933
88167W        W58767  37.887  37.428  12.704
88168W        W58768  19.116   4.781  14.888
88169W        W58769  29.051  13.889   4.132
88170W        W58770  23.026   9.805   4.809
88171W        W58771  35.969  14.027   0.876
88172W        W58772   3.704   5.229  11.647
88173W        W58773  20.480   3.231  13.379
88174W        W58774  39.991  42.360  14.164
88175W        W58775  39.437  11.510   3.217
88176W        W58776  17.666  39.879  14.623
88177W        W58777  26.544  31.905   1.438
88178W        W58778   7.840  30.830   0.463
88179W        W58779  32.125  37.580   1.278
88180W        W58780   2.993   6.965   0.500
88181W        W58781  12.720  32.588   2.386
88182W        W58782  27.496  15.815  12.425
88183W        W58783  18.283  28.401   1.649
88184W        W58784  11.089  32.429  11.166
88185W        W58785  19.045  16.095   1.315
88186W        W58786  12.765  26.934   3.353
88187W        W58787  32.900  15.311   3.795
88188W        W58788   4.430   9.288  10.734
88189W        W58789  33.034  28.678   2.619
88190W        W58790  37.713  22.064   1.522
88191W        W58791  29.443  20.745  11.182
88192W        W58792  17.376   4.690   0.785
88193W        W58793  39.726   7.228   3.671
88194W        W58794  13.285  15.634   0.953
88195W        W58795  37.996  11.170  13.688
88196W        W58796  27.118  19.726   3.409
88197W        W58797  31.957   2.161  11.124
88198W        W58798   2.997  18.068   1.827
88199W        W58799  16.122  41.819   0.233
88200W        W58800  13.289  14.319   1.037
88201W        W58801  29.565  31.572  13.929
88202W        W58802  14.646   1.251   0.948
88203W        W58803  35.859  12.113   4.546
88204W        W58804  27.763  24.047  13.317
88205W        W58805   1.721  28.220   4.195
88206W        W58806  43.026  27.167   3.528
88207W        W58807   3.218   9.786  10.961
88208W        W58808   8.132  43.028  11.308
88209W        W58809  37.781  29.010   4.072
88210W        W58810  16.100  36.312   1.718
88211W        W58811  19.716  37.368   4.865
88212W        W58812  41.015  44.611  13.515
88213W        W58813  16.549  15.558   4.943
88214W        W58814  22.437  36.632   1.300
88215W        W58815  27.650  26.934  13.098
88216W        W58816  30.458  18.563   0.006
88217W        W58817   0.773  44.023  14.910
88218W        W58818  14.662  21.173   2.600
88219W        W58819   9.182  32.558   3.385
88220W        W58820   0.532  37.395   3.640
88221W        W58821  32.654  16.379  12.604
88222W        W58822  19.545  44.473   1.843
88223W        W58823   5.775   0.915   3.792
88224W        W58824   3.265  29.624   2.413
88225W        W58825  33.140   8.383  12.069
88226W        W58826  35.441  31.783   2.264
88227W        W58827  31.593  12.122  14.318
88228W        W58828  27.890  39.973  10.654
88229W        W58829  23.108  28.862  14.895
88230W        W58830  44.282  18.567  13.462
88231W        W58831  39.840  22.778   3.600
88232W        W58832   3.786  22.944   2.700
88233W        W58833  19.023  21.060   2.244
88234W        W58834   0.955  14.397  11.532
88235W        W58835  34.164   9.219   2.757
88236W        W58836  12.584  40.187   0.379
88237W        W58837  10.393   7.370  12.219
88238W        W58838  28.911  19.514  13.300
88239W        W58839   3.984  35.343   4.895
88240W        W58840   4.766  16.953  13.841
88241W        W58841  33.825  17.810   0.842
88242W        W58842  24.220  38.453  12.590
88243W        W58843  42.732   0.774   0.095
88244W        W58844  23.609  37.870  11.786
88245W        W58845  42.108  18.635   3.261
88246W        W58846  17.777   2.772   4.217
88247W        W58847  15.318  11.784   2.180
88248W        W58848  15.628  21.252   1.141
88249W        W58849  31.953   4.671  13.336
88250W        W58850   3.955  27.989   0.500
88251W        W58851   6.673  27.912  13.650
88252W        W58852  18.451  20.901  11.683
88253W        W58853  34.904  35.903   0.467
88254W        W58854  44.796  44.963   2.396
88255W        W58855  32.896  12.612   0.369
88256W        W58856  21.096  24.293   2.133
88257W        W58857  19.018  30.928   2.190
88258W        W58858  38.075  32.606  11.118
88259W        W58859  28.089  33.995  12.405
88260W        W58860  23.772   3.715   3.418
88261W        W58861  28.564  29.726  13.455
88262W        W58862   3.970   8.001  13.358
88263W        W58863  12.639   1.724   0.005
88264W        W58864  20.201  22.495  14.818
88265W        W58865   4.411  36.130   0.155
88266W        W58866  21.540  42.803   4.175
88267W        W58867  21.556  39.957   1.418
88268W        W58868   1.317  16.380  12.267
88269W        W58869  42.255  13.651   0.236
88270W        W58870  38.511   4.627   9.961
88271W        W58871  30.393  18.607   1.241
88272W        W58872  12.844  43.701  12.440
88273W        W58873   5.467  20.439   1.020
88274W        W58874  21.466   1.718   4.288
88275W        W58875   0.681  42.823  10.309
88276W        W58876  21.190   0.973   4.920
88277W        W58877  34.328  38.652   4.585
88278W        W58878  16.238  37.598  14.840
88279W        W58879  42.343  30.440   0.396
88280W        W58880   0.923  27.054   4.383
88281W        W58881  19.155  32.838   2.437
88282W        W58882   4.818  39.708   4.970
88283W        W58883  38.112  42.513   3.075
88284W        W58884  37.002  11.899  11.471
88285W        W58885  32.806  22.541  12.062
88286W        W58886  32.278  30.576  11.579
88287W        W58887  23.580  31.010  14.219
88288W        W58888  20.763  38.085  10.748
88289W        W58889  13.556  35.993  14.804
88290W        W58890  15.596   0.357  14.134
88291W        W58891   4.146  33.055   1.238
88292W        W58892  43.405   6.535  11.605
88293W        W58893   0.722  20.023  10.727
88294W        W58894  16.088  29.183   1.300
88295W        W58895  39.454   3.537   2.783
88296W        W58896  27.180  19.507  13.857
88297W        W58897   0.362  34.438  14.838
88298W        W58898  37.506   9.704   4.246
88299W        W58899  21.057  31.861  10.802
88300W        W58900   0.779  30.176   0.090
88301W        W58901  11.535  19.721   3.323
88302W        W58902  23.032  20.923   0.583
88303W        W58903  11.780  39.234  12.903
88304W        W58904   5.797  38.815  12.964
88305W        W58905   5.315  27.100  12.162
88306W        W58906  43.780   3.439  13.944
88307W        W58907  27.702  34.542   2.304
88308W        W58908  31.242   0.477  12.059
88309W        W58909  28.844  36.061   1.457
88310W        W58910  34.157   4.347   3.521
88311W        W58911  23.729   5.819  14.811
88312W        W58912   1.841   2.828  14.803
88313W        W58913  33.517  39.343  10.711
88314W        W58914  30.506  32.615   0.473
88315W        W58915  24.278  38.472   1.816
88316W        W58916  30.185  37.773  12.497
88317W        W58917  31.354  29.715  10.671
88318W        W58918   0.873  30.125  11.483
88319W        W58919  16.760  23.507   2.416
88320W        W58920  28.905  34.314  10.702
88321W        W58921  12.206  24.161  13.534
88322W        W58922  20.950  12.559   2.343
88323W        W58923  18.123   1.914   2.528
88324W        W58924  16.178  19.765   0.571
88325W        W58925  25.940  32.952  10.471
88326W        W58926  16.854   4.876  13.471
88327W        W58927  22.178  43.340  14.239
88328W        W58928  40.397  34.971  13.926
88329W        W58929  44.084   5.444   4.638
88330W        W58930  16.279   1.982   3.233
88331W        W58931  22.578   2.232  13.514
88332W        W58932  18.127  27.574   3.543
88333W        W58933  15.597  13.771   2.845
88334W        W58934  27.981   5.416  12.726
88335W        W58935   6.326  22.209   3.191
88336W        W58936   9.199  24.722  12.125
88337W        W58937  29.067  27.522   4.174
88338W        W58938  33.167  44.267   2.268
88339W        W58939  32.091  16.441   0.549
88340W        W58940  36.574   3.402  14.142
88341W        W58941  42.900  36.672  12.969
88342W        W58942   6.930   8.315   4.540
88343W        W58943  25.204   7.351   0.482
88344W        W58944  27.447  11.435   4.995
88345W        W58945  31.447  29.710   2.865
88346W        W58946   2.042  29.274  10.761
88347W        W58947  35.147   9.116  11.979
88348W        W58948  29.620  25.620   2.614
88349W        W58949  37.574  25.803  13.870
88350W        W58950  33.396  20.649  14.288
88351W        W58951  39.132   6.960   2.856
88352W        W58952   1.266   7.218  13.008
88353W        W58953  17.382  35.904   4.037
88354W        W58954  39.914  12.846  12.946
88355W        W58955  29.429  29.534  11.122
88356W        W58956  27.211  21.160   0.969
88357W        W58957  44.519  21.928  12.341
88358W        W58958  20.940  14.073  13.921
88359W        W58959   2.991  44.448   4.713
88360W        W58960  21.090  30.079  14.851
88361W        W58961  18.519  35.941   3.705
88362W        W58962  31.858  23.089  12.081
88363W        W58963   0.882  18.287  11.222
88364W        W58964  22.227  22.883  14.367
88365W        W58965  14.567  20.997  12.016
88366W        W58966   2.384  26.617   4.577
88367W        W58967  18.594   9.659   1.427
88368W        W58968   6.244  41.398   0.497
88369W        W58969  31.825  22.652  12.398
88370W        W58970   8.333   3.746  13.992
88371W        W58971   0.934  29.218  13.932
88372W        W58972  17.665  40.752  11.097
88373W        W58973  14.575  25.956   1.954
88374W        W58974   3.397  34.037  13.148
88375W        W58975  26.632  19.494   3.502
88376W        W58976  29.415   1.206  12.681
88377W        W58977  36.383   4.321  12.058
88378W        W58978  32.578  40.552  14.901
88379W        W58979  29.138  25.642   3.359
88380W        W58980   7.393  17.795   2.764
88381W        W58981   7.650  38.555  14.422
88382W        W58982   9.243  28.355   0.667
88383W        W58983  17.507  22.031  12.566
88384W        W58984  35.638  20.007   0.463
88385W        W58985  21.612   7.003   0.022
88386W        W58986   4.872  31.171  14.460
88387W        W58987  20.527   9.905  14.550
88388W        W58988  34.044  21.491   3.110
88389W        W58989  31.448  20.057  12.967
88390W        W58990   7.618  38.428   0.286
88391W        W58991  35.557  33.188   1.890
88392W        W58992  35.834  36.906  12.413
88393W        W58993  33.065   2.386   2.880
88394W        W58994  17.029  35.780   1.765
88395W        W58995  34.859  29.392   0.525
88396W        W58996  20.009  24.724  12.875
88397W        W58997  35.359  27.665   0.003
88398W        W58998   5.754  34.142   3.431
88399W        W58999   3.968  16.172  13.400
88400W        W59000  20.327  32.453   0.829
88401W        W59001  22.131  40.267  10.981
88402W        W59002   6.140  33.931   3.135
88403W        W59003  25.143  17.126   0.824
88404W        W59004  22.976  13.541  13.465
88405W        W59005  17.831  32.161   1.538
88406W        W59006  18.109   1.932  11.934
88407W        W59007  25.988   2.182  12.499
88408W        W59008  32.846  26.763   2.767
88409W        W59009  22.401  22.546  12.610
88410W        W59010  16.825  41.445  13.242
88411W        W59011  41.256  23.647  10.870
88412W        W59012   6.745  35.302   3.962
88413W        W59013   5.439  23.924   3.773
88414W        W59014  31.640  21.279  14.768
88415W        W59015  30.003  17.191   2.728
88416W        W59016   2.248   1.731  11.550
88417W        W59017  39.425  30.182  12.693
88418W        W59018  27.561  29.477   0.884
88419W        W59019  26.065  44.533  13.635
88420W        W59020  27.022   3.064   1.699
88421W        W59021  17.737  10.791   0.992
88422W        W59022  11.396   7.720  14.847
88423W        W59023   3.551  12.164  12.448
88424W        W59024  31.662  32.008  12.348
88425W        W59025  44.697  40.500   3.697
88426W        W59026  31.649  26.941  13.147
88427W        W59027  35.112  41.643  13.257
88428W        W59028  32.325   8.869   1.316
88429W        W59029  15.556  20.542   2.711
88430W        W59030  44.849  41.252  12.820
88431W        W59031  31.157  33.875   4.081
88432W        W59032   7.877  44.872  12.909
88433W        W59033  15.710  11.506   5.075
88434W        W59034  25.986  28.979  14.966
88435W        W59035   5.853  38.006  13.539
88436W        W59036  26.482  33.275   4.214
88437W        W59037  35.018  30.942  12.493
88438W        W59038  13.333  16.340   1.719
88439W        W59039  13.874  12.371  13.411
88440W        W59040  20.227  10.113   1.274
88441W        W59041  12.877  37.376   9.727
88442W        W59042  34.511  26.142   2.290
88443W        W59043  30.593   9.721   3.707
88444W        W59044  36.810  21.777   1.895
88445W        W59045  13.830  25.010   0.783
88446W        W59046  37.535  33.264   4.763
88447W        W59047  39.223   2.648  14.895
88448W        W59048  12.830   2.530  13.841
88449W        W59049  24.516  24.211  10.682
88450W        W59050  31.426  27.968   2.370
88451W        W59051  14.344  15.946  13.380
88452W        W59052   7.954   1.237   2.920
88453W        W59053  32.425  44.137   3.708
88454W        W59054   0.485   5.188  11.294
88455W        W59055   0.662  30.199   4.624
88456W        W59056  37.030  40.690  12.019
88457W        W59057  20.620   2.688   3.619
88458W        W59058  20.683  17.546   3.720
88459W        W59059  36.913  32.833  12.112
88460W        W59060  23.046   4.044  14.447
88461W        W59061  22.621  12.902  12.435
88462W        W59062   2.990   4.697   2.731
88463W        W59063  29.056   5.522  11.126
88464W        W59064  24.793  43.798   3.671
88465W        W59065  27.038  29.908   0.269
88466W        W59066  17.554  33.325   3.116
88467W        W59067  19.498  13.130  11.429
88468W        W59068  23.950  42.736  13.517
88469W        W59069  27.350  23.262   3.413
88470W        W59070  18.325  36.478  12.801
88471W        W59071  26.127  42.949  14.353
88472W        W59072  37.475  41.097  12.872
88473W        W59073  44.902  40.785   4.747
88474W        W59074  16.494  44.027  13.293
88475W        W59075   2.943  25.962  13.547
88476W        W59076  29.615  32.576  11.481
88477W        W59077  19.179  31.454   2.218
88478W        W59078  14.793  26.025  11.784
88479W        W59079  20.798   7.203   0.364
88480W        W59080  39.357  22.111  13.902
88481W        W59081  16.593  18.464  10.583
88482W        W59082   5.473   6.351   1.183
88483W        W59083  19.100  27.928   3.261
88484W        W59084   7.106  32.095  10.627
88485W        W59085  10.559   5.227  10.704
88486W        W59086   5.413   8.366   3.715
88487W        W59087  44.493  37.405   3.705
88488W        W59088   6.413  35.655   2.613
88489W        W59089   5.334  15.551  14.340
88490W        W59090   8.164   9.316  10.717
88491W        W59091   6.463  27.102   3.173
88492W        W59092   4.901  11.299  11.996
88493W        W59093  25.304  23.142  14.541
88494W        W59094  23.513   9.670  12.162
88495W        W59095  27.887  31.986   3.681
88496W        W59096  44.981   5.704   1.571
88497W        W59097  25.161  23.664   1.930
88498W        W59098  28.599  21.728  12.113
88499W        W59099  40.641   3.688   2.972
88500W        W59100  25.156   4.498  12.543
88501W        W59101  39.945  42.054   2.229
88502W        W59102   3.124  15.898   4.880
88503W        W59103  11.249  14.476  14.548
88504W        W59104  43.455  27.667  14.018
88505W        W59105  13.726   0.064  11.681
88506W        W59106  44.629   1.150  11.428
88507W        W59107  43.376  35.360  11.593
88508W        W59108  14.752   3.786   1.289
88509W        W59109  18.550  31.164  14.988
88510W        W59110  10.873  18.245   1.953
88511W        W59111  42.353  18.701   0.624
88512W        W59112  12.568  23.081   2.457
88513W        W59113  22.702  10.810  12.956
88514W        W59114  39.581   4.378   9.844
88515W        W59115  38.072  20.759   1.875
88516W        W59116  36.490  24.512  10.457
88517W        W59117   4.742  23.555  11.200
88518W        W59118  36.892  10.985   3.925
88519W        W59119  44.061  42.793  14.775
88520W        W59120   5.804  13.634   1.818
88521W        W59121   0.557  43.958   3.118
88522W        W59122  37.315  32.885   0.287
88523W        W59123   9.168  36.821  14.763
88524W        W59124   8.970  32.080   0.438
88525W        W59125  11.512  31.525   4.184
88526W        W59126  35.443  42.545   2.745
88527W        W59127  11.126  44.312   2.876
88528W        W59128   8.316   1.366  13.517
88529W        W59129   4.510  26.670  13.395
88530W        W59130  30.770  32.864  13.907
88531W        W59131  13.571   3.886   3.699
88532W        W59132  11.444  41.066  12.957
88533W        W59133   7.323   7.873  12.530
88534W        W59134  35.788  39.299  11.176
88535W        W59135  36.679  39.671  11.220
88536W        W59136   5.585   1.460  13.405
88537W        W59137  21.533  42.016  11.192
88538W        W59138  39.337  10.145  14.802
88539W        W59139  30.442  14.481  14.510
88540W        W59140  18.530  17.100  13.034
88541W        W59141  29.560  14.822  12.419
88542W        W59142  40.299  13.801  14.228
88543W        W59143  23.665  39.057   3.286
88544W        W59144  33.070  17.182  14.537
88545W        W59145  43.125  29.710  14.574
88546W        W59146   8.358   6.503  11.555
88547W        W59147  29.859  30.622   4.553
88548W        W59148   8.148  32.132  11.922
88549W        W59149   9.136  24.688   3.938
88550W        W59150  39.896  29.443   1.951
88551W        W59151  33.627  20.239  14.502
88552W        W59152   4.233  35.454  14.907
88553W        W59153  33.247   2.664   1.219
88554W        W59154  15.780  16.064   4.065
88555W        W59155  43.912  27.662  11.541
88556W        W59156  11.300   8.255  14.845
88557W        W59157  33.709   6.412  12.378
88558W        W59158   2.526  16.743  13.926
88559W        W59159  34.098  12.919  13.810
88560W        W59160  41.615   1.666   4.858
88561W        W59161   5.258  10.756   3.254
88562W        W59162   7.860  42.804  13.044
88563W        W59163  26.718  11.313  13.864
88564W        W59164  38.161  36.580   1.231
88565W        W59165   7.649   6.921   3.311
88566W        W59166  40.892  21.361  13.426
88567W        W59167   9.165  20.973   0.462
88568W        W59168   3.813  39.344  11.786
88569W        W59169  37.109  27.219  11.570
88570W        W59170   7.023  17.027   1.758
88571W        W59171  38.802  43.765   1.767
88572W        W59172  27.707  34.314  13.411
88573W        W59173  17.155  42.811  13.749
88574W        W59174  23.947  15.616   0.010
88575W        W59175  29.594  27.405  14.231
88576W        W59176  19.494  40.072  11.937
88577W        W59177  11.329  20.577   4.230
88578W        W59178  22.177  34.008   4.868
88579W        W59179  29.525   5.118   1.544
88580W        W59180  32.018  12.782  12.871
88581W        W59181  25.507  29.503  11.671
88582W        W59182   1.925  20.921  11.885
88583W        W59183  26.081  42.071  12.563
88584W        W59184  29.300  27.082  13.969
88585W        W59185  10.203   8.275  11.625
88586W        W59186   8.211  33.664   2.147
88587W        W59187  38.935  10.805   0.982
88588W        W59188   5.427  15.127  10.569
88589W        W59189  39.926  42.885  10.661
88590W        W59190  42.996  18.902   4.410
88591W        W59191  40.093  15.679   4.179
88592W        W59192   5.301  16.252   0.781
88593W        W59193  28.245  42.047   1.153
88594W        W59194  35.443  31.412  14.775
88595W        W59195  15.250  38.258  13.477
88596W        W59196   2.489  10.146  10.594
88597W        W59197  43.551  10.843  11.221
88598W        W59198  37.654  26.525  13.101
88599W        W59199  21.721  34.518  14.475
88600W        W59200  21.511  10.718  13.386
88601W        W59201  43.534   0.008  13.023
88602W        W59202  30.563  14.220   1.056
88603W        W59203   7.682   2.633  14.531
88604W        W59204  44.951   7.254  10.958
88605W        W59205  43.028  25.542   1.296
88606W        W59206  27.538  16.636  14.841
88607W        W59207  17.999  11.775  13.499
88608W        W59208  43.627  13.581   4.963
88609W        W59209  10.705  36.414  14.591
88610W        W59210  36.455  11.863   1.236
88611W        W59211  27.159   5.745  10.795
88612W        W59212   4.710  31.692   3.743
88613W        W59213  24.070  39.495  14.963
88614W        W59214  44.330  30.153  13.915
88615W        W59215  11.086   8.886  12.010
88616W        W59216  34.342  13.743   2.238
88617W        W59217  28.370  10.368  10.669
88618W        W59218   9.930  35.588   3.638
88619W        W59219  40.270  11.600  14.515
88620W        W59220  31.566  37.028  14.716
88621W        W59221  39.894   5.314  13.369
88622W        W59222   9.015  42.305   4.286
88623W        W59223  19.772  36.524   3.809
88624W        W59224  13.250  37.963   1.762
88625W        W59225  18.665  20.256  12.619
88626W        W59226  43.711  14.985  14.422
88627W        W59227  39.981  31.833   2.130
88628W        W59228   5.459  38.453  11.225
88629W        W59229  39.746  21.578   1.803
88630W        W59230  17.195  36.268  12.603
88631W        W59231  41.258  22.861  11.113
88632W        W59232   0.230  30.211  14.956
88633W        W59233  34.341   0.437   0.367
88634W        W59234  25.005  32.701   3.424
88635W        W59235  31.280  42.694   3.290
88636W        W59236   2.764  12.748  13.445
88637W        W59237  35.452  17.611   0.882
88638W        W59238  30.454  13.395  13.987
88639W        W59239  11.332  17.776  12.849
88640W        W59240  28.954  43.250  13.525
88641W        W59241  37.744  30.578  12.121
88642W        W59242  24.918  27.488   0.337
88643W        W59243   3.157  11.188  13.459
88644W        W59244   7.952  30.000  13.610
88645W        W59245   6.446  34.446   2.238
88646W        W59246  24.873  12.676   2.365
88647W        W59247  31.445  23.590  13.212
88648W        W59248  16.769  21.536   4.205
88649W        W59249  44.280  40.692   3.985
88650W        W59250  35.022  37.942   1.799
88651W        W59251  14.144  17.676  12.465
88652W        W59252  36.422  13.674   0.422
88653W        W59253  28.029  38.268   4.100
88654W        W59254  11.036  21.385   0.932
88655W        W59255   0.594  23.686  12.170
88656W        W59256   6.352  43.202   2.812
88657W        W59257   9.053  15.006  14.264
88658W        W59258  36.940  25.239   2.363
88659W        W59259   7.717  29.522  12.213
88660W        W59260  30.448   3.458   4.182
88661W        W59261  12.247  35.823  10.659
88662W        W59262  18.186  44.187   2.152
88663W        W59263  25.558  23.178   2.801
88664W        W59264  44.490  16.250   1.904
88665W        W59265   0.362   4.792  13.855
88666W        W59266  13.238  22.038  14.853
88667W        W59267  31.975  35.359   1.281
88668W        W59268  22.399  41.027   1.269
88669W        W59269  28.106   5.466   4.513
88670W        W59270  14.670   0.326   0.945
88671W        W59271  43.880  33.036  12.497
88672W        W59272  10.702  17.692   1.192
88673W        W59273  26.009  22.944  13.015
88674W        W59274  36.450   0.225   4.824
88675W        W59275  36.547  12.293  10.799
88676W        W59276  25.131  44.999   3.253
88677W        W59277  15.195   9.626   2.367
88678W        W59278  21.857  27.673  13.857
88679W        W59279   1.162   4.339  10.414
88680W        W59280  12.792  26.275  13.486
88681W        W59281  39.044   5.566   2.848
88682W        W59282  24.789  34.926  11.089
88683W        W59283   2.123   8.325  12.530
88684W        W59284  26.589   2.745   1.414
88685W        W59285  32.718  15.593   1.304
88686W        W59286  16.651   1.600  13.976
88687W        W59287  29.411  44.266   1.792
88688W        W59288  30.449   8.697   1.749
88689W        W59289  12.316  26.382   0.500
88690W        W59290  23.232  32.474  10.721
88691W        W59291  19.190  25.055   4.613
88692W        W59292   5.339  10.690  14.048
88693W        W59293  21.897  15.246  11.495
88694W        W59294  41.456  43.424   4.340
88695W        W59295  21.037  37.053  14.401
88696W        W59296  23.228  33.562  12.329
88697W        W59297   6.791   9.391  14.947
88698W        W59298  36.170   2.415  12.521
88699W        W59299  20.291   0.534  13.547
88700W        W59300  12.123  18.793  14.839
88701W        W59301  30.439   4.679  12.328
88702W        W59302  28.491  17.130   4.449
88703W        W59303  27.416   6.165   2.478
88704W        W59304  22.519  17.743   3.090
88705W        W59305  38.063  22.109  14.541
88706W        W59306   5.152   9.711   0.300
88707W        W59307  39.394  37.314  12.521
88708W        W59308  19.935   5.347   0.873
88709W        W59309  36.671  14.819  11.446
88710W        W59310  19.706  14.238  12.649
88711W        W59311  30.547  28.834  13.417
88712W        W59312   6.339  38.945  10.470
88713W        W59313  39.709  26.486  11.951
88714W        W59314   2.546   1.344   4.660
88715W        W59315  37.890   3.360   3.654
88716W        W59316  27.572  27.967  13.039
88717W        W59317   6.673  43.419   4.549
88718W        W59318  18.805  42.318   4.153
88719W        W59319  33.678  24.478   2.248
88720W        W59320  13.391  16.070  12.425
88721W        W59321  13.353  33.592  12.456
88722W        W59322  42.013  13.122  11.901
88723W        W59323  33.954  39.074   0.273
88724W        W59324  14.767  15.951   4.120
88725W        W59325   7.579   8.864   2.376
88726W        W59326  26.528  33.792   4.081
88727W        W59327   6.072  28.552   1.821
88728W        W59328  43.926  35.587  12.301
88729W        W59329   2.728  30.133  14.994
88730W        W59330  27.487  26.712   1.307
88731W        W59331   0.512  26.030   1.641
88732W        W59332  42.471  17.521   2.556
88733W        W59333  41.916  38.218   2.987
88734W        W59334  15.594  25.663   4.861
88735W        W59335  38.369  44.510  13.070
88736W        W59336   2.729  43.412   1.472
88737W        W59337  19.801  26.624   2.605
88738W        W59338   0.872  22.210  11.099
88739W        W59339   5.665  39.989  13.726
88740W        W59340  23.581   4.726  12.035
88741W        W59341  29.987   0.479   1.502
88742W        W59342  36.201  11.648  14.817
88743W        W59343   3.321  18.131  14.933
88744W        W59344  11.637   1.521  13.030
88745W        W59345  31.878  23.170  12.581
88746W        W59346   0.722  16.255   1.332
88747W        W59347  14.714  16.202   3.148
88748W        W59348  42.932  25.792   3.699
88749W        W59349   0.743   0.049   3.018
88750W        W59350  40.590   0.972  10.963
88751W        W59351  43.053  29.595  11.664
88752W        W59352  31.649  23.175  13.450
88753W        W59353  19.373  39.498   1.958
88754W        W59354   5.596   5.727  11.958
88755W        W59355   4.186  35.354  11.219
88756W        W59356  28.797  44.817  14.422
88757W        W59357   0.501  22.104   0.366
88758W        W59358   0.784   5.967   4.270
88759W        W59359   7.220  38.492  13.348
88760W        W59360   5.393  26.177   2.829
88761W        W59361   6.313   5.381   0.042
88762W        W59362   9.235   8.242  11.273
88763W        W59363  17.287  40.161  14.374
88764W        W59364  13.313  33.531   1.085
88765W        W59365  12.787  31.515  14.513
88766W        W59366  35.947  24.958   0.876
88767W        W59367   7.778   9.352  12.042
88768W        W59368  22.449   6.588   9.829
88769W        W59369  13.554  19.196   2.888
88770W        W59370  13.755  22.613  12.902
88771W        W59371  20.564  31.953   2.052
88772W        W59372  20.306  35.448  12.496
88773W        W59373  30.326  11.095  11.225
88774W        W59374   7.915  36.441   2.740
88775W        W59375  44.978  12.764   3.147
88776W        W59376  23.496  25.689  14.994
88777W        W59377  41.193  25.641  13.308
88778W        W59378  41.572  21.133   1.469
88779W        W59379  41.983  32.781  14.187
88780W        W59380  38.579   0.121  12.990
88781W        W59381   5.442  25.499  14.372
88782W        W59382   0.039   2.270  12.950
88783W        W59383  14.139  44.548   9.413
88784W        W59384  32.565   3.501  13.153
88785W        W59385  41.920  31.455  10.773
88786W        W59386  44.673   6.935   2.198
88787W        W59387  36.630  31.771  10.216
88788W        W59388  18.274  29.889   2.140
88789W        W59389   7.771  20.542   4.190
88790W        W59390  18.868  12.945   3.889
88791W        W59391  27.293  23.788  12.519
88792W        W59392  39.526  20.199   1.596
88793W        W59393   4.569  25.149  11.524
88794W        W59394  29.730   7.654  14.401
88795W        W59395  10.847  25.282   0.927
88796W        W59396  14.072  26.000  11.914
88797W        W59397  36.031  22.568   1.330
88798W        W59398  11.706  18.521  10.767
88799W        W59399  13.403  22.541   2.675
88800W        W59400   8.398  27.172  10.675
88801W        W59401  30.843  31.021   4.121
88802W        W59402   1.314  12.570   1.765
88803W        W59403   8.863   0.003  12.603
88804W        W59404  21.382   1.245   2.371
88805W        W59405  16.648  44.666   1.669
88806W        W59406  31.890  26.353   2.775
88807W        W59407  25.676  44.475   0.988
88808W        W59408  36.460   2.571   3.600
88809W        W59409  20.705  15.094  11.929
88810W        W59410  12.156  32.957   4.227
88811W        W59411   4.335  38.540  11.449
88812W        W59412  38.837  35.442   3.524
88813W        W59413  10.608  31.490   3.608
88814W        W59414  15.674  13.086   2.346
88815W        W59415  19.267  13.624  14.056
88816W        W59416  24.703  40.863  12.104
88817W        W59417  31.606  18.523   0.716
88818W        W59418  10.563  38.773   3.693
88819W        W59419  14.725  40.909   1.874
88820W        W59420  38.970  37.385   1.835
88821W        W59421  16.231  18.210  13.835
88822W        W59422  16.678   3.977  11.166
88823W        W59423   0.842  31.295   2.766
88824W        W59424  14.458   1.492  11.204
88825W        W59425  18.105  27.606  12.094
88826W        W59426  26.680  26.695   4.117
88827W        W59427  31.548  29.148  13.982
88828W        W59428  11.608  30.162  13.417
88829W        W59429  21.620  42.935   3.274
88830W        W59430  43.350  26.442   3.226
88831W        W59431  20.460   1.325   4.355
88832W        W59432  37.542  38.023   3.240
88833W        W59433  32.060  33.985   5.026
88834W        W59434  28.013  24.144  14.868
88835W        W59435  31.159  17.256   1.041
88836W        W59436  25.917  14.230  11.912
88837W        W59437   1.928  22.645  13.763
88838W        W59438  34.437  34.318   2.426
88839W        W59439   2.994  23.284  13.437
88840W        W59440  21.041   2.645  11.214
88841W        W59441   4.806   2.346  11.534
88842W        W59442  16.005  44.203  12.022
88843W        W59443   0.179  27.301   4.088
88844W        W59444  31.435  18.060  12.902
88845W        W59445  15.729  14.536   1.636
88846W        W59446   9.955  11.155   0.273
88847W        W59447  15.909  20.512  11.084
88848W        W59448   7.252   1.239   4.115
88849W        W59449  28.085  14.701   2.358
88850W        W59450  12.144  13.585  14.855
88851W        W59451  20.158  30.557   0.896
88852W        W59452  20.839  34.829   4.148
88853W        W59453  36.691  31.443   4.122
88854W        W59454  44.836   7.640   3.064
88855W        W59455  22.474   7.114   9.898
88856W        W59456  36.645  32.110   2.797
88857W        W59457  20.563  11.675  13.334
88858W        W59458  36.083  21.064  13.953
88859W        W59459  37.965  35.214   0.931
88860W        W59460   5.321   3.326  14.542
88861W        W59461  43.192  14.857  13.618
88862W        W59462   9.925  10.286  11.714
88863W        W59463   5.099  20.206   1.282
88864W        W59464  43.499  24.009   3.175
88865W        W59465  12.855  10.425   3.650
88866W        W59466   6.874  41.464  12.399
88867W        W59467  21.207   4.443   4.229
88868W        W59468  17.569  29.214  14.752
88869W        W59469   9.207  43.931   1.085
88870W        W59470  26.991  22.551   4.074
88871W        W59471   6.318  25.644  13.253
88872W        W59472  19.275  29.342  10.690
88873W        W59473  17.864  20.621  12.542
88874W        W59474  35.857   6.208  14.003
88875W        W59475  31.749  42.178  11.163
88876W        W59476   7.787  36.050  10.001
88877W        W59477  13.040  42.237  14.540
88878W        W59478   6.574  38.969   2.690
88879W        W59479   6.320  19.363   3.244
88880W        W59480   3.313  33.064   3.994
88881W        W59481  16.226   0.295  13.408
88882W        W59482  22.313  28.707   3.727
88883W        W59483  41.108  20.156   0.888
88884W        W59484  11.347  25.123  14.180
88885W        W59485  17.302  25.973   0.816
88886W        W59486  22.239  35.542  13.026
88887W        W59487  10.380  23.684   4.610
88888W        W59488  41.772  11.408   2.219
88889W        W59489  40.027  20.161   2.842
88890W        W59490   6.455  26.542  11.801
88891W        W59491  11.968  11.422  14.338
88892W        W59492  38.054  32.169   4.219
88893W        W59493  20.703  33.278  11.521
88894W        W59494  38.886  42.978  12.478
88895W        W59495  15.498  24.593   4.067
88896W        W59496  27.550  18.633  12.846
88897W        W59497  13.082  14.821  10.622
88898W        W59498  32.637   9.170  12.986
88899W        W59499  23.536  36.833  12.485
88900W        W59500  22.430  11.669  11.588
88901W        W59501  37.813  41.067   1.635
88902W        W59502  43.482  25.751   3.876
88903W        W59503  35.268   3.329   0.769
88904W        W59504  35.075  29.937  12.527
88905W        W59505   2.474  20.602   1.608
88906W        W59506   3.273  44.132  11.632
88907W        W59507  37.942  21.622  13.839
88908W        W59508  31.374  21.458  11.654
88909W        W59509  43.661  33.907  13.020
88910W        W59510  13.122  31.920  12.442
88911W        W59511   9.382  23.542   4.603
88912W        W59512  20.490   4.890   0.220
88913W        W59513  31.974  28.438   0.754
88914W        W59514  28.898  23.198   1.241
88915W        W59515  14.118  17.276   2.681
88916W        W59516  15.138  15.915  12.104
88917W        W59517  39.415  27.158  12.038
88918W        W59518  44.378  13.201  12.652
88919W        W59519  37.005   8.817  12.422
88920W        W59520   4.745   1.790   3.556
88921W        W59521   4.017  16.302   0.846
88922W        W59522  26.400  34.527   3.292
88923W        W59523   6.286  10.422  13.036
88924W        W59524  23.105  21.043   0.061
88925W        W59525  14.639   4.885  11.986
88926W        W59526  19.781  34.770  11.691
88927W        W59527  17.208  34.657   2.251
88928W        W59528  29.884  14.810   1.398
88929W        W59529   0.825   0.720   0.104
88930W        W59530  43.844  31.236  14.863
88931W        W59531  30.261  36.070   3.709
88932W        W59532   2.666  10.175   2.852
88933W        W59533   2.853  26.239  10.956
88934W        W59534  10.723  34.169   2.820
88935W        W59535  20.614  36.442   0.075
88936W        W59536  37.065   9.481  13.879
88937W        W59537  15.160  18.253  13.868
88938W        W59538   1.910  29.763  10.624
88939W        W59539  23.630  40.099  12.567
88940W        W59540   5.318  16.260  14.858
88941W        W59541  13.423  21.350   0.706
88942W        W59542   4.588   4.296   0.914
88943W        W59543  26.395   7.684   5.042
88944W        W59544  11.414  32.883  11.055
88945W        W59545  17.761  31.710  12.934
88946W        W59546  39.832  30.448   1.168
88947W        W59547  23.285  13.161  14.758
88948W        W59548  27.742   8.265   1.717
88949W        W59549  13.496  22.635  11.212
88950W        W59550  24.781   6.323  11.425
88951W        W59551  15.292  23.490  12.505
88952W        W59552  36.080  33.042  13.912
88953W        W59553  25.431  18.633  12.308
88954W        W59554  18.511  38.954   0.479
88955W        W59555  40.792  16.770   4.554
88956W        W59556  36.879  23.109  13.921
88957W        W59557   5.853   3.241  10.678
88958W        W59558  13.172   7.494   0.363
88959W        W59559  13.449  18.744  14.407
88960W        W59560  21.692  22.130   3.225
88961W        W59561  13.753  12.097  11.559
88962W        W59562  13.383  40.974  14.912
88963W        W59563  21.954  17.658  10.594
88964W        W59564  35.959   3.109   3.100
88965W        W59565   2.015   4.195   2.746
88966W        W59566  44.327  39.018  10.380
88967W        W59567  23.485   6.627   0.749
88968W        W59568  30.690  33.630  11.890
88969W        W59569  27.411  29.403  14.871
88970W        W59570  31.890  28.068   4.440
88971W        W59571  36.391   6.738  10.751
88972W        W59572  13.143  12.833   0.832
88973W        W59573  12.908  12.034   4.265
88974W        W59574  36.826   6.760  13.677
88975W        W59575  14.034  30.408   1.429
88976W        W59576  25.454   9.296  14.344
88977W        W59577  21.530   4.143  12.808
88978W        W59578  14.851  30.005   1.447
88979W        W59579  11.033  38.998   3.723
88980W        W59580  33.339   8.807   1.414
88981W        W59581  28.392  11.168   1.314
88982W        W59582  11.437  43.373  13.363
88983W        W59583  24.788  22.484   4.188
88984W        W59584  29.524  28.646  14.947
88985W        W59585  42.937  35.717   3.352
88986W        W59586  29.898   0.916   4.613
88987W        W59587  38.790   2.935   1.906
88988W        W59588  20.145   8.932   3.230
88989W        W59589   8.624   8.828   4.796
88990W        W59590  22.694  42.445  12.487
88991W        W59591  27.957   5.500  12.172
88992W        W59592   8.989  43.689  12.017
88993W        W59593  23.584  14.430   5.051
88994W        W59594  22.557   4.704  11.151
88995W        W59595  22.800  29.120   1.102
88996W        W59596  44.978  10.984  14.834
88997W        W59597  36.581  18.992   3.220
88998W        W59598  18.076  41.464   3.559
88999W        W59599   2.985  11.450  13.003
89000W        W59600  32.807  14.827   3.515
89001W        W59601  30.894   1.189  14.013
89002W        W59602  18.216  42.846   2.188
89003W        W59603  37.953   1.789  11.011
89004W        W59604  44.446  43.901  11.994
89005W        W59605  29.188  26.458  11.365
89006W        W59606   3.554   6.917  12.082
89007W        W59607  12.570   0.023   2.675
89008W        W59608  22.336  39.571  12.906
89009W        W59609  19.737  17.080  10.683
89010W        W59610  26.698   0.377  14.547
89011W        W59611  24.633   8.812   2.791
89012W        W59612  19.090  43.531  11.542
89013W        W59613  13.693  21.690   1.004
89014W        W59614  40.506   8.620  14.739
89015W        W59615  42.830   6.875   4.094
89016W        W59616  38.898  38.784  13.046
89017W        W59617  26.556  27.877  12.090
89018W        W59618   7.547  11.927  14.768
89019W        W59619   5.628   2.850   2.687
89020W        W59620   1.937  32.910   3.294
89021W        W59621   2.555   0.288   4.553
89022W        W59622  13.950   3.163  11.040
89023W        W59623  16.797   9.889   0.182
89024W        W59624  25.259   5.497  13.069
89025W        W59625  19.608  24.992  10.682
89026W        W59626  10.681  21.019   3.742
89027W        W59627  40.060  21.335   0.517
89028W        W59628  43.342  12.191  14.304
89029W        W59629  35.916   4.479   1.939
89030W        W59630  23.704  19.320   0.672
89031W        W59631  11.480  41.762  12.766
89032W        W59632  15.387  43.346   0.289
89033W        W59633  10.596  30.781   4.334
89034W        W59634  23.067  26.133   4.244
89035W        W59635  26.615  16.814  12.503
89036W        W59636   5.005  12.144   3.021
89037W        W59637  44.870  12.134   4.512
89038W        W59638   1.231   6.832   4.001
89039W        W59639   3.790   6.325   4.486
89040W        W59640   5.388   3.422   1.210
89041W        W59641  29.923  13.207   2.603
89042W        W59642  36.605  44.966   3.586
89043W        W59643  13.866   1.821  14.332
89044W        W59644   7.432  38.548   0.773
89045W        W59645   8.984   5.047   1.402
89046W        W59646  23.612  17.188   1.478
89047W        W59647  15.403  29.017   2.806
89048W        W59648  21.012  44.255  11.561
89049W        W59649  39.303  34.430   2.330
89050W        W59650  31.169  37.666   0.299
89051W        W59651  10.284  32.839   0.297
89052W        W59652  38.144  19.992  14.506
89053W        W59653  28.588  14.822   1.740
89054W        W59654  33.143   4.940   0.554
89055W        W59655  39.509  23.180   3.349
89056W        W59656  15.640  11.573  11.479
89057W        W59657  32.519  15.319   1.714
89058W        W59658  10.293  34.656   2.217
89059W        W59659  39.287  22.052   3.417
89060W        W59660   3.937   6.131   0.421
89061W        W59661  24.232  42.298  12.377
89062W        W59662  24.351  22.587  10.122
89063W        W59663  22.426  33.429  10.090
89064W        W59664  23.533  42.764   0.992
89065W        W59665  13.794   4.351  13.819
89066W        W59666  21.571  23.619  12.934
89067W        W59667  16.277  13.345   1.334
89068W        W59668  21.137  33.117  14.322
89069W        W59669  23.588  23.819  14.911
89070W        W59670  44.315   7.464  12.610
89071W        W59671   5.917  27.063   4.003
89072W        W59672  33.294  15.115   0.910
89073W        W59673   5.319  34.787   0.471
89074W        W59674  17.288  39.458   0.998
89075W        W59675  29.650   6.769   2.725
89076W        W59676  35.025  26.039  11.253
89077W        W59677  21.998  14.413   1.825
89078W        W59678  26.555   8.315   3.538
89079W        W59679  30.943  25.917   2.432
89080W        W59680  33.299  37.346  10.196
89081W        W59681  12.383  24.596   0.492
89082W        W59682  11.199  34.799   0.916
89083W        W59683  17.585   8.955   3.075
89084W        W59684  16.006  28.218  13.567
89085W        W59685   7.415  35.864   3.223
89086W        W59686  30.071  22.276   0.955
89087W        W59687   0.017  23.131   0.832
89088W        W59688   4.009  40.773   3.495
89089W        W59689  28.915   6.923  13.536
89090W        W59690   0.047  43.841   0.541
89091W        W59691  39.979  15.736   4.708
89092W        W59692  13.665  13.856   3.229
89093W        W59693  39.538   1.529   1.862
89094W        W59694  32.830  17.317   2.015
89095W        W59695  29.711  24.063   0.363
89096W        W59696   8.177  27.557   0.321
89097W        W59697  26.699  18.106   1.578
89098W        W59698  18.268  33.758   2.991
89099W        W59699  26.965  33.494  13.277
89100W        W59700   1.839  31.160  12.107
89101W        W59701   4.302   7.811   0.970
89102W        W59702  30.751  35.149   5.062
89103W        W59703  35.983   7.820   3.903
89104W        W59704  42.867  20.427   4.047
89105W        W59705  11.275  28.888  11.578
89106W        W59706  21.558  14.646   0.501
89107W        W59707   4.562  13.565  11.000
89108W        W59708  36.123   7.232  12.756
89109W        W59709  33.115  41.291   0.260
89110W        W59710   2.680  22.542   4.700
89111W        W59711  23.273   1.410  13.327
89112W        W59712  13.072   6.483   4.193
89113W        W59713  13.689  40.211   1.333
89114W        W59714  35.240  29.073   3.998
89115W        W59715   5.679   7.493  13.085
89116W        W59716   9.756   1.419  13.293
89117W        W59717  11.307   6.441  11.998
89118W        W59718  11.662  32.004  11.816
89119W        W59719  42.325  38.516  14.446
89120W        W59720  10.078  29.138  14.337
89121W        W59721  14.144  37.436   4.182
89122W        W59722  31.065   8.171  11.213
89123W        W59723  30.045  41.919   3.522
89124W        W59724  22.371   5.703   1.337
89125W        W59725  27.959  27.517   3.411
89126W        W59726   1.499   4.197   2.630
89127W        W59727  32.697  11.336  12.729
89128W        W59728  41.040   3.833   0.396
89129W        W59729   9.834  22.764   2.677
89130W        W59730  21.349  29.605   3.976
89131W        W59731  24.961  38.481   3.749
89132W        W59732  29.869  43.037  12.433
89133W        W59733  14.726   3.483   4.241
89134W        W59734  30.577  36.406   2.313
89135W        W59735  43.412   0.003  14.494
89136W        W59736  11.027  25.489  14.337
89137W        W59737  23.185  11.871   0.837
89138W        W59738  33.557  16.599  14.394
89139W        W59739  34.543  43.375  13.397
89140W        W59740  39.469  44.856  14.566
89141W        W59741  16.648  43.269  12.999
89142W        W59742   6.220  28.133  10.780
89143W        W59743  24.031  28.769  12.572
89144W        W59744  30.091  13.395  12.661
89145W        W59745  24.579  25.067   1.822
89146W        W59746  31.012   9.415   3.655
89147W        W59747  30.904  13.141  13.967
89148W        W59748  37.080  34.086  11.051
89149W        W59749  35.661   4.790  10.695
89150W        W59750  11.764  33.662   3.751
89151W        W59751  15.209  28.728   3.171
89152W        W59752  18.227  11.192  12.601
89153W        W59753   5.131  25.705  14.878
89154W        W59754  29.886  23.779  11.097
89155W        W59755   1.259  26.841  10.496
89156W        W59756  24.499  14.564  12.005
89157W        W59757  36.921   4.472   2.726
89158W        W59758  25.401  25.488   1.751
89159W        W59759  40.940   9.374   4.087
89160W        W59760  14.751   4.262   3.810
89161W        W59761  21.767   9.661  14.865
89162W        W59762  14.814  11.289   0.909
89163W        W59763   9.169  29.451   3.943
89164W        W59764  37.447  18.688  11.194
89165W        W59765  11.238   2.792   3.628
89166W        W59766  43.391  36.403   3.616
89167W        W59767   7.050  10.265   2.127
89168W        W59768  24.096  38.987  14.342
89169W        W59769  35.500  27.469  14.061
89170W        W59770  16.028  35.421   1.192
89171W        W59771  16.894  32.228  14.444
89172W        W59772  13.784  44.720  10.637
89173W        W59773  41.231  41.971  14.450
89174W        W59774  18.577  24.899   4.050
89175W        W59775   1.914   4.066  11.109
89176W        W59776  38.587   8.359  10.585
89177W        W59777  24.602  44.295   3.595
89178W        W59778  12.110   9.514  12.954
89179W        W59779   0.907  15.216   4.553
89180W        W59780  37.123   5.961   4.747
89181W        W59781   0.837  19.103   2.614
89182W        W59782  19.320  37.837  11.198
89183W        W59783   5.635   1.284   1.499
89184W        W59784   5.127   3.171   0.039
89185W        W59785  24.176  34.663   0.132
89186W        W59786   2.804  28.680   3.370
89187W        W59787  13.913  22.256   3.600
89188W        W59788  30.442  31.758   1.977
89189W        W59789  14.629  40.457   3.217
89190W        W59790  42.999  20.144   4.466
89191W        W59791  17.437  29.591  12.815
89192W        W59792  36.348  43.381   1.910
89193W        W59793  31.011   7.838   4.588
89194W        W59794  22.201   4.234   4.119
89195W        W59795  10.732  22.589   0.018
89196W        W59796   6.278  24.547   4.576
89197W        W59797   2.878  28.606   2.865
89198W        W59798  36.306  42.466   0.941
89199W        W59799  19.586  21.272   4.154
89200W        W59800  24.553   8.245  12.537
89201W        W59801  26.092  43.951  10.757
89202W        W59802  38.458  36.045   0.738
89203W        W59803  20.398  18.977   1.319
89204W        W59804  30.487   8.885  10.849
89205W        W59805  18.144   3.681   4.476
89206W        W59806  21.184  27.053  12.326
89207W        W59807  41.946  32.855   2.137
89208W        W59808  41.229  29.919  14.870
89209W        W59809  18.957  41.324  12.568
89210W        W59810  30.100   9.780   1.797
89211W        W59811  27.700  29.932  12.502
89212W        W59812  37.036  42.737   1.838
89213W        W59813   4.308   0.353   4.086
89214W        W59814  28.179  44.032   3.915
89215W        W59815   6.555  43.647  12.030
89216W        W59816  36.686   9.130  13.990
89217W        W59817  33.647  35.129   1.271
89218W        W59818   7.986   1.461  12.807
89219W        W59819   2.308  24.716   3.324
89220W        W59820  11.780  23.967  11.687
89221W        W59821  25.246  36.170  11.183
89222W        W59822  22.324  14.184  10.658
89223W        W59823  26.910  27.156   2.173
89224W        W59824   0.280  14.095   4.914
89225W        W59825  33.732  22.658  14.125
89226W        W59826  26.208   4.704   2.722
89227W        W59827  42.546  40.880   4.512
89228W        W59828   1.719   5.382  11.700
89229W        W59829  24.736   3.848   2.257
89230W        W59830  43.283   9.604   2.683
89231W        W59831  24.578  17.373   3.242
89232W        W59832  35.230  32.108  14.372
89233W        W59833  26.007  34.048  14.630
89234W        W59834  13.053  14.580   3.763
89235W        W59835  12.868  35.382   0.309
89236W        W59836   5.151   1.691  12.971
89237W        W59837  23.529  24.937  13.375
89238W        W59838  34.402  17.129   3.154
89239W        W59839  29.521  11.396   1.554
89240W        W59840  28.485   3.062  11.234
89241W        W59841  27.047  11.412  11.653
89242W        W59842  41.471  40.863   2.327
89243W        W59843  17.053  36.420  10.602
89244W        W59844  16.545   6.719   2.673
89245W        W59845  30.620  29.139  13.857
89246W        W59846   0.161   2.221   4.256
89247W        W59847  32.049   5.435  12.274
89248W        W59848  38.367   3.898   4.151
89249W        W59849  33.367  27.040  12.873
89250W        W59850   8.548  40.841  12.550
89251W        W59851  29.016  15.148  11.077
89252W        W59852  18.200  24.110   3.836
89253W        W59853  42.407  29.133   3.259
89254W        W59854   0.828  23.879   1.605
89255W        W59855  25.532  37.858   2.051
89256W        W59856  40.464   8.739   4.932
89257W        W59857   5.658  12.569  13.806
89258W        W59858   8.847   4.897   0.068
89259W        W59859   8.270  12.478   4.017
89260W        W59860  30.098  10.866   1.833
89261W        W59861   9.572   8.373   1.883
89262W        W59862  37.988  15.892   3.841
89263W        W59863  38.883  30.517   3.676
89264W        W59864   0.770  24.878   0.077
89265W        W59865  19.768  29.007   4.614
89266W        W59866   4.744   2.711   3.577
89267W        W59867  18.049  39.282   3.624
89268W        W59868   9.164  30.996  14.947
89269W        W59869  15.288   6.158   4.176
89270W        W59870  34.368   9.860  10.694
89271W        W59871  34.244  42.371   1.236
89272W        W59872   7.923   3.872   0.046
89273W        W59873  36.744   8.371  14.554
89274W        W59874  10.453  25.609   1.024
89275W        W59875  32.017   0.676   4.981
89276W        W59876  38.343   8.344   3.371
89277W        W59877  16.512  34.202  13.413
89278W        W59878  20.060  17.098  12.026
89279W        W59879  21.814  20.014   4.153
89280W        W59880  20.501  32.937  13.783
89281W        W59881  29.645  31.865  10.773
89282W        W59882  23.173   7.561   2.654
89283W        W59883  43.269  34.867  11.591
89284W        W59884  41.281  42.923   2.017
89285W        W59885  32.734  19.505  13.951
89286W        W59886  13.861  31.646   0.987
89287W        W59887  32.160  15.115  13.035
89288W        W59888   3.208  17.626  12.998
89289W        W59889  13.350  33.441   2.321
89290W        W59890  13.689  27.219   3.692
89291W        W59891  44.162  34.213  10.565
89292W        W59892   0.849  16.966   0.649
89293W        W59893   2.070  34.994   4.054
89294W        W59894  17.776  41.837  11.067
89295W        W59895  29.215  23.286   0.296
89296W        W59896   3.694  38.973  12.141
89297W        W59897  39.415  18.130   3.134
89298W        W59898   2.760  42.018  10.935
89299W        W59899  18.677  31.011   4.607
89300W        W59900  36.351  38.642   1.863
89301W        W59901  33.070   7.378   1.541
89302W        W59902  20.545   5.283  11.019
89303W        W59903  12.284  34.677   0.737
89304W        W59904  12.951  10.581   3.140
89305W        W59905  12.207   8.286   4.780
89306W        W59906  43.972  35.934   4.062
89307W        W59907  21.251  33.568   0.455
89308W        W59908  28.077  12.393   0.900
89309W        W59909   4.301  32.004  11.521
89310W        W59910  21.636  36.314  10.797
89311W        W59911  43.891   8.296   0.830
89312W        W59912   6.698  15.836  11.530
89313W        W59913  41.345  36.475   1.517
89314W        W59914   5.591   7.868   0.684
89315W        W59915   7.166  38.069  12.546
89316W        W59916  22.550  13.193   3.907
89317W        W59917  34.425   6.105  12.840
89318W        W59918  15.748   5.249  11.885
89319W        W59919   1.422   9.444   3.352
89320W        W59920  31.881   4.321  11.998
89321W        W59921  21.666  37.913   2.310
89322W        W59922  37.296   7.181  11.089
89323W        W59923  10.753  25.137  14.929
89324W        W59924  41.522  43.734  12.016
89325W        W59925   3.277   4.996   1.516
89326W        W59926  14.832  21.477  10.490
89327W        W59927  28.017  33.843  13.974
89328W        W59928   1.399   8.908   4.520
89329W        W59929   2.930   1.002  13.608
89330W        W59930  16.466  21.394  11.998
89331W        W59931  24.180   5.937   1.711
89332W        W59932  35.970   3.292   1.703
89333W        W59933  43.492  23.433   0.922
89334W        W59934  25.956  21.060  14.787
89335W        W59935  24.619  37.161  12.412
89336W        W59936   0.385   7.428   2.561
89337W        W59937  30.148  19.553   0.483
89338W        W59938   5.861  31.517  10.515
89339W        W59939  24.086  32.815  10.801
89340W        W59940  36.056  42.651  14.915
89341W        W59941  44.306  40.484  11.153
89342W        W59942  30.852  11.113   1.236
89343W        W59943  24.611  32.159  13.295
89344W        W59944  38.627   7.921   4.074
89345W        W59945  27.077  32.368   3.376
89346W        W59946  35.602  11.903   4.149
89347W        W59947  19.656  15.281  11.189
89348W        W59948  19.225  28.428  11.582
89349W        W59949  30.360  21.061  14.257
89350W        W59950  30.547  12.760   4.436
89351W        W59951  30.152   0.166   4.263
89352W        W59952  38.990   1.168  10.648
89353W        W59953  37.529   8.478  10.537
89354W        W59954   5.632  30.797  13.456
89355W        W59955  30.851  27.095   4.156
89356W        W59956  29.753  26.577   0.285
89357W        W59957  35.921  33.009   2.193
89358W        W59958  34.130   0.758   1.216
89359W        W59959  41.563  22.491  11.893
89360W        W59960  14.599  26.549  13.421
89361W        W59961  19.624  36.336  13.023
89362W        W59962   3.208  26.947   2.039
89363W        W59963   4.023  43.996  11.181
89364W        W59964  31.766   3.503  11.431
89365W        W59965  18.668  27.819   1.375
89366W        W59966  18.197  29.182  13.484
89367W        W59967  35.852   5.597   4.636
89368W        W59968  16.264  40.915   0.698
89369W        W59969  18.488  41.935   1.805
89370W        W59970   7.072   2.536  13.403
89371W        W59971  42.757  29.355  12.844
89372W        W59972  23.279  15.778  12.196
89373W        W59973  38.503  15.931   3.720
89374W        W59974  30.716   5.732   0.308
89375W        W59975   8.607  24.846  14.959
89376W        W59976  12.372  35.810  14.163
89377W        W59977  21.828  32.951  11.982
89378W        W59978  13.808   0.355  13.450
89379W        W59979   1.365  37.043   2.019
89380W        W59980   4.645   7.310  14.785
89381W        W59981   2.694   2.454  10.982
89382W        W59982  30.373  34.116  13.108
89383W        W59983  25.936  19.691   2.714
89384W        W59984   6.220   1.043  11.307
89385W        W59985   1.706  20.080  13.422
89386W        W59986  33.999  21.063  10.613
89387W        W59987  10.340   1.414   4.437
89388W        W59988  34.409   0.064  13.987
89389W        W59989  13.883   4.877   2.282
89390W        W59990  24.828  26.892   3.531
89391W        W59991  14.350   9.713   2.701
89392W        W59992   8.790  39.927  13.288
89393W        W59993  30.520  29.583  12.930
89394W        W59994   8.496  32.189   2.667
89395W        W59995  31.082  15.529  12.619
89396W        W59996   5.628  31.172  13.830
89397W        W59997  39.098  28.476  14.216
89398W        W59998  34.118  32.230   1.421
89399W        W59999  16.074  15.747  12.621
89400W        W60000  39.312  39.618  11.550
89401W        W60001  19.621  42.190  14.319
89402W        W60002  23.025   9.548   0.371
89403W        W60003   0.914  26.973  11.637
89404W        W60004  35.524  23.042  10.790
89405W        W60005  21.106  29.486  14.336
89406W        W60006  22.468  27.265   2.528
89407W        W60007  19.731   0.601   0.257
89408W        W60008   8.917   1.353  14.818
89409W        W60009   5.227  35.509   3.212
89410W        W60010  24.091   4.193  10.696
89411W        W60011   6.393  23.499   1.446
89412W        W60012  19.707  30.509   4.683
89413W        W60013   0.026  14.305   4.492
89414W        W60014  14.929  34.950  14.320
89415W        W60015  24.967  22.086  11.609
89416W        W60016  26.824  21.587  14.823
89417W        W60017  30.613   4.933  11.917
89418W        W60018  21.213  40.432   4.583
89419W        W60019  36.091  15.963  13.816
89420W        W60020  20.131  44.544  13.397
89421W        W60021  31.066  19.653  14.532
89422W        W60022  27.105   6.285   4.894
89423W        W60023  32.156  12.279  13.665
89424W        W60024  12.543  41.825   1.772
89425W        W60025  24.298  16.550  11.051
89426W        W60026   4.512  35.818   2.351
89427W        W60027  11.380   5.814  14.418
89428W        W60028  28.933  29.085   1.799
89429W        W60029   9.787  18.698  13.032
89430W        W60030  40.791  32.139   0.451
89431W        W60031  21.677   5.182   0.344
89432W        W60032  28.332  38.457   5.077
89433W        W60033   4.866  16.747  10.573
89434W        W60034   2.597  43.799   4.237
89435W        W60035  39.391  44.617   4.845
89436W        W60036  10.217  16.413   0.850
89437W        W60037  15.702  19.259  11.297
89438W        W60038  13.996  43.047  11.818
89439W        W60039  44.371  30.546  11.626
89440W        W60040   7.916  17.675   4.808
89441W        W60041  12.298  24.212  14.374
89442W        W60042  36.119  12.059  13.117
89443W        W60043  40.467  22.469   4.990
89444W        W60044  13.194  21.602   3.175
89445W        W60045  20.089  30.290   2.889
89446W        W60046  44.872  28.905   0.464
89447W        W60047  29.828  14.172   4.690
89448W        W60048  28.510  39.698  11.203
89449W        W60049  31.191  31.048   0.305
89450W        W60050   0.962  25.284   1.343
89451W        W60051  42.451  18.353   2.902
89452W        W60052  25.246  20.290   0.947
89453W        W60053  38.029  30.914   0.734
89454W        W60054  32.231  15.622   1.148
89455W        W60055  18.012   0.422   1.092
89456W        W60056   1.287  15.546   2.819
89457W        W60057  40.471  23.582   2.123
89458W        W60058  12.702  16.645  10.670
89459W        W60059   7.236  39.432   1.199
89460W        W60060   3.496  35.580  13.857
89461W        W60061  34.122  34.389  12.390
89462W        W60062  34.939  33.590  10.774
89463W        W60063  18.580  26.705  12.134
89464W        W60064  13.299  35.434   1.555
89465W        W60065  25.723   8.799  11.942
89466W        W60066  23.712  17.992  11.491
89467W        W60067  23.276   6.623  13.920
89468W        W60068   3.385  35.502   4.334
89469W        W60069  33.879  37.327  13.883
89470W        W60070  21.174  30.963  13.848
89471W        W60071  25.525  24.421   2.211
89472W        W60072  40.875  36.074   3.354
89473W        W60073  39.844   0.038   2.796
89474W        W60074  42.815   8.434   4.058
89475W        W60075  21.562  25.368  12.401
89476W        W60076   1.721  43.405  14.568
89477W        W60077  11.113  38.065   1.459
89478W        W60078  26.124  25.595  13.304
89479W        W60079  36.182  34.454   0.464
89480W        W60080  31.461   6.523   2.212
89481W        W60081  17.211  13.908   0.272
89482W        W60082   7.189  28.009  13.601
89483W        W60083  12.272  41.530  13.900
89484W        W60084  20.522  14.253  11.900
89485W        W60085  32.151  34.850   2.258
89486W        W60086  11.734   6.303   0.199
89487W        W60087  33.943  30.773   1.456
89488W        W60088  32.875   0.167   2.183
89489W        W60089   5.457  38.667  14.791
89490W        W60090  29.373  32.205   0.292
89491W        W60091  11.071  33.408   0.539
89492W        W60092  18.335   1.842  12.761
89493W        W60093  20.281  41.417  10.693
89494W        W60094  15.104  29.040  13.972
89495W        W60095   3.091  21.255   3.015
89496W        W60096  33.622  41.510   0.960
89497W        W60097   5.678  10.763  11.960
89498W        W60098   4.226  37.499  12.033
89499W        W60099  30.146  42.458  14.513
89500W        W60100  34.998   6.969   0.888
89501W        W60101   5.109  14.128  12.483
89502W        W60102  24.676   1.939   0.790
89503W        W60103   9.587  31.137  13.664
89504W        W60104  44.874  40.178  11.985
89505W        W60105   4.457   3.300   2.688
89506W        W60106  23.857  22.425  12.930
89507W        W60107  27.004  43.003  10.280
89508W        W60108  42.757  21.696  12.447
89509W        W60109  27.481   0.930   2.340
89510W        W60110  21.242  34.458   0.365
89511W        W60111   0.893   9.341  12.416
89512W        W60112  36.314   3.223   0.911
89513W        W60113  18.030  12.163  13.176
89514W        W60114  12.187  20.366  12.646
89515W        W60115  42.058  39.561  14.227
89516W        W60116   0.945  25.390  10.792
89517W        W60117  36.418  39.025  14.892
89518W        W60118  33.845  31.481   3.664
89519W        W60119  39.931  10.191   1.914
89520W        W60120  36.993  23.626   2.881
89521W        W60121  43.887  37.455  11.922
89522W        W60122  42.175   9.181   1.967
89523W        W60123  16.423  16.810   0.246
89524W        W60124  17.575  37.019  13.502
89525W        W60125  38.647  32.126  11.151
89526W        W60126  37.797  34.516  10.710
89527W        W60127   3.830   5.720   2.808
89528W        W60128   7.851   1.354   4.536
89529W        W60129  12.374  23.570  11.998
89530W        W60130  13.337  25.452   2.317
89531W        W60131  35.775  31.949   0.582
89532W        W60132  16.010  42.895   0.732
89533W        W60133  12.064  42.967  13.814
89534W        W60134  27.748  26.037   3.674
89535W        W60135  10.543  22.451   4.602
89536W        W60136  44.481  42.846  12.858
89537W        W60137   4.511  19.504   1.548
89538W        W60138  24.434   8.150   3.201
89539W        W60139  30.970  25.748   3.378
89540W        W60140  34.637  33.472   0.910
89541W        W60141  31.548  31.441   4.599
89542W        W60142  36.425   3.972  12.729
89543W        W60143  33.798   1.797   3.266
89544W        W60144  38.540  43.538  12.963
89545W        W60145   9.291  18.802   1.211
89546W        W60146  44.949  10.612   2.265
89547W        W60147  15.660  33.395  14.323
89548W        W60148  19.627  15.576   1.721
89549W        W60149   2.952   6.453   3.946
89550W        W60150  26.440  19.155  14.372
89551W        W60151  27.895  19.746   3.387
89552W        W60152  43.288  33.920  12.424
89553W        W60153  15.573   4.465   2.855
89554W        W60154  43.376  24.853   0.788
89555W        W60155  35.849  35.025  11.638
89556W        W60156  25.308   7.318   4.581
89557W        W60157   5.419  29.920   4.091
89558W        W60158  22.258  18.722  12.692
89559W        W60159  34.121  20.269  11.671
89560W        W60160  39.181  44.261  12.127
89561W        W60161  44.728  12.848  12.470
89562W        W60162  40.495  36.860  14.484
89563W        W60163  21.602  10.776   2.815
89564W        W60164  35.915   1.035  11.670
89565W        W60165   3.022  23.080   3.790
89566W        W60166  26.929  44.798  12.419
89567W        W60167  42.347  38.551  14.961
89568W        W60168  31.099   4.229   1.376
89569W        W60169  28.125  12.676   3.213
89570W        W60170  30.176  10.802   0.031
89571W        W60171  13.394  14.312  13.961
89572W        W60172   3.846   3.387   0.312
89573W        W60173   9.146  16.489  14.727
89574W        W60174  15.091  26.125  13.901
89575W        W60175  12.158  12.044  12.031
89576W        W60176  43.206  13.796  11.608
89577W        W60177   9.245  15.777  11.992
89578W        W60178  21.231  43.686   3.757
89579W        W60179  40.834  43.128  10.798
89580W        W60180  36.381  34.114   1.801
89581W        W60181   5.371  22.437   3.617
89582W        W60182   1.207  37.680   4.203
89583W        W60183  24.681  32.147   4.156
89584W        W60184  21.046  15.520  14.449
89585W        W60185  10.801  36.483   0.597
89586W        W60186  30.414   9.678  14.983
89587W        W60187  44.448  27.170  13.084
89588W        W60188  18.978  10.648   2.309
89589W        W60189   2.297   2.326   2.566
89590W        W60190   8.882  30.804  11.327
89591W        W60191  38.278   1.859   3.088
89592W        W60192  34.301  24.503  14.312
89593W        W60193  21.506  44.163  14.976
89594W        W60194   5.753  38.500   0.748
89595W        W60195   1.951   1.021   4.180
89596W        W60196  25.541  14.095  13.423
89597W        W60197   9.139  40.396  10.655
89598W        W60198   6.808   0.489  11.906
89599W        W60199   7.921  12.113   4.451
89600W        W60200   6.896   5.843   2.206
89601W        W60201   8.124  14.604   0.036
89602W        W60202  17.748  14.636  14.991
89603W        W60203  39.862  28.565  13.020
89604W        W60204  39.452  39.888   1.594
89605W        W60205  24.306  32.398  11.512
89606W        W60206  31.798  11.133  13.145
89607W        W60207  17.720  18.254  13.533
89608W        W60208  21.137  15.509   4.740
89609W        W60209  19.808  42.759  13.426
89610W        W60210  39.532   5.769  12.392
89611W        W60211  39.608  37.464   4.497
89612W        W60212  35.409  34.766  11.491
89613W        W60213  22.794  41.948   0.929
89614W        W60214  27.208   0.329  10.683
89615W        W60215  18.662  28.277  10.721
89616W        W60216  10.288   8.357   4.651
89617W        W60217  40.938  18.093   5.345
89618W        W60218  25.133  18.075   3.185
89619W        W60219  10.541   7.290  14.823
89620W        W60220   8.157  29.560  13.383
89621W        W60221  31.949  41.499   4.566
89622W        W60222  11.636  29.941   2.856
89623W        W60223  34.928   7.413   2.876
89624W        W60224  44.839  21.070   0.041
89625W        W60225  19.020  19.304  12.450
89626W        W60226  25.311   3.204  10.391
89627W        W60227  17.356  33.038   2.644
89628W        W60228   3.356  30.485   4.965
89629W        W60229  26.702  29.227   2.684
89630W        W60230  18.786  27.291   1.377
89631W        W60231  16.160  20.736   0.922
89632W        W60232   6.505  32.005  12.839
89633W        W60233  29.964  10.296  10.934
89634W        W60234   4.565  28.248  13.700
89635W        W60235  19.618   9.654   2.222
89636W        W60236   1.754   0.877   5.165
89637W        W60237  35.509  13.626   3.691
89638W        W60238  43.814  18.863   0.536
89639W        W60239   7.621  19.851   3.749
89640W        W60240  13.736  16.703   4.534
89641W        W60241   5.355   8.589   3.258
89642W        W60242   9.225  11.729   1.355
89643W        W60243  20.516   1.700   3.595
89644W        W60244   4.195  22.766  11.612
89645W        W60245  41.924  25.658   3.657
89646W        W60246   3.023  42.995  13.921
89647W        W60247  31.328  23.643  11.129
89648W        W60248  15.863   2.844   1.440
89649W        W60249  28.612   3.805  12.634
89650W        W60250  35.158  32.610  12.461
89651W        W60251   8.914  41.780  11.659
89652W        W60252  21.985  44.861   2.438
89653W        W60253  31.994  12.104   2.699
89654W        W60254   4.707  16.753  13.005
89655W        W60255  44.965  38.287   4.594
89656W        W60256   7.069  41.892  11.911
89657W        W60257  31.994  22.584  10.884
89658W        W60258  35.515   3.469   1.520
89659W        W60259  33.625  19.703   3.622
89660W        W60260  11.642  34.182   3.592
89661W        W60261  29.457   2.694   2.018
89662W        W60262   6.228   7.754  13.979
89663W        W60263  24.438  31.466   0.503
89664W        W60264  15.840  44.764   1.336
89665W        W60265  35.310  23.665   1.369
89666W        W60266   7.586  18.958  13.845
89667W        W60267   0.377  44.819  13.009
89668W        W60268   0.522  11.291   4.226
89669W        W60269  10.913  18.293  12.429
89670W        W60270  16.134  30.467   4.554
89671W        W60271   1.672  20.839   1.349
89672W        W60272  31.973   1.894  14.117
89673W        W60273  12.932  10.369  12.186
89674W        W60274  18.350  20.190   1.253
89675W        W60275  11.227   9.768   3.437
89676W        W60276  42.828  38.795   4.197
89677W        W60277  17.285   3.548  13.344
89678W        W60278  15.327  20.666   4.594
89679W        W60279  21.496  26.657  13.978
89680W        W60280  11.657   7.868   1.311
89681W        W60281   7.726  22.862   5.064
89682W        W60282  30.876  12.073   2.229
89683W        W60283  23.426  32.122   4.562
89684W        W60284  34.631  25.420  10.740
89685W        W60285  15.541  25.645   2.611
89686W        W60286   0.931  27.249  12.146
89687W        W60287  28.787  40.274  12.967
89688W        W60288  44.784  16.757   0.015
89689W        W60289  41.915  31.631  12.519
89690W        W60290  43.702  41.099  11.567
89691W        W60291  28.272  40.787  14.801
89692W        W60292   2.447  16.212  14.593
89693W        W60293   0.863   0.655  11.724
89694W        W60294  33.428   9.718   2.305
89695W        W60295   7.017  36.074   4.102
89696W        W60296  13.339   4.343  14.054
89697W        W60297  32.965  37.454   4.631
89698W        W60298  36.009   5.760  12.891
89699W        W60299  21.182  23.956   3.091
89700W        W60300  15.574  40.276  11.741
89701W        W60301   7.605  14.669  14.983
89702W        W60302  26.998  37.503   3.219
89703W        W60303  15.494   2.844   4.326
89704W        W60304  37.005  22.735  11.870
89705W        W60305  23.672  22.636   3.226
89706W        W60306  38.082  37.715  13.615
89707W        W60307  36.338  11.243   1.052
89708W        W60308  39.222  21.051  13.753
89709W        W60309  14.998  32.555   3.625
89710W        W60310   8.134  21.644  13.394
89711W        W60311   8.221  32.548   4.365
89712W        W60312  17.780   8.938   1.634
89713W        W60313  41.727  31.388  13.160
89714W        W60314  14.436  15.190   4.242
89715W        W60315   7.814  42.976   3.455
89716W        W60316   8.483  39.264  12.548
89717W        W60317   6.904  38.827  14.857
89718W        W60318  21.637  23.239   0.891
89719W        W60319  28.125  15.902   3.798
89720W        W60320  16.888  18.842  11.874
89721W        W60321   2.359  43.457   3.333
89722W        W60322  35.943  25.230   4.842
89723W        W60323  21.752  18.769  12.533
89724W        W60324  35.066   5.857  13.343
89725W        W60325  33.537  26.042   4.415
89726W        W60326  21.027   5.275  13.900
89727W        W60327  21.265  25.771   4.271
89728W        W60328   4.189  38.951   4.541
89729W        W60329  16.161  10.416   4.457
89730W        W60330  36.041  12.144   4.042
89731W        W60331   5.614   4.779   0.420
89732W        W60332   3.742  42.291  14.918
89733W        W60333  13.703  35.020  12.116
89734W        W60334  34.722  11.592  11.095
89735W        W60335  18.812  24.962   4.959
89736W        W60336  37.128   1.726   0.968
89737W        W60337  30.722  44.545  11.102
89738W        W60338  20.287  22.235  12.844
89739W        W60339  25.939  17.099  11.471
89740W        W60340  19.348  34.623   4.186
89741W        W60341  30.928  16.254  14.707
89742W        W60342  17.103  39.917   1.673
89743W        W60343  20.072  30.431  11.474
89744W        W60344  23.523  19.997  12.010
89745W        W60345  26.569  28.668  12.528
89746W        W60346   0.996  25.208   0.421
89747W        W60347  22.589  20.705  10.497
89748W        W60348  27.034   4.782  10.585
89749W        W60349  20.020  15.300   3.400
89750W        W60350   3.244  25.076  10.844
89751W        W60351  34.907  40.539  12.938
89752W        W60352  18.583   5.484   1.152
89753W        W60353  43.500   2.285   3.218
89754W        W60354  37.382  36.304   5.037
89755W        W60355  42.461   7.396   1.483
89756W        W60356  14.185  31.010   4.225
89757W        W60357  23.457  28.481   4.703
89758W        W60358   7.873   8.440   2.380
89759W        W60359  31.585  32.324   2.168
89760W        W60360  32.866  30.874   2.410
89761W        W60361  32.156  13.748   1.962
89762W        W60362   5.734  12.374  12.048
89763W        W60363  13.570   5.956   4.202
89764W        W60364  44.831  19.550  12.657
89765W        W60365   9.172   8.792   2.129
89766W        W60366  19.066  12.183  10.818
89767W        W60367  25.530  32.612  10.923
89768W        W60368  38.233   5.017   4.644
89769W        W60369  25.308  17.634  11.188
89770W        W60370  41.093  40.501   1.402
89771W        W60371   9.305  21.800   0.848
89772W        W60372  12.101  18.315   2.242
89773W        W60373  28.669   1.035   3.700
89774W        W60374  39.608  34.459  11.155
89775W        W60375  32.875  21.062   0.347
89776W        W60376  38.861   1.351  11.110
89777W        W60377   4.180  41.750   4.653
89778W        W60378  37.222  29.924   2.044
89779W        W60379  34.787  24.828  14.599
89780W        W60380  32.223   8.917   3.591
89781W        W60381  38.546   9.095  11.056
89782W        W60382  41.388  15.929   4.435
89783W        W60383  21.761  17.184   2.806
89784W        W60384  25.132   8.280  11.017
89785W        W60385   5.306   5.786   0.473
89786W        W60386  25.183  30.043  10.724
89787W        W60387   0.459  28.645  14.143
89788W        W60388  29.987   5.679  14.564
89789W        W60389  40.890  38.507   3.315
89790W        W60390  12.214  32.707  14.067
89791W        W60391  14.984   0.696   5.029
89792W        W60392  39.362  43.802   0.015
89793W        W60393   5.542  38.370   4.716
89794W        W60394  24.096  30.481   1.351
89795W        W60395  18.096  13.277  12.435
89796W        W60396  38.105  41.352  12.990
89797W        W60397  21.484  32.121   4.700
89798W        W60398   5.968   2.877   0.030
89799W        W60399  14.176  31.179  14.354
89800W        W60400  20.649  27.270  14.243
89801W        W60401   0.350   8.595   0.435
89802W        W60402  16.804   2.299   3.137
89803W        W60403  28.559  28.647  14.172
89804W        W60404   5.670  24.528  14.777
89805W        W60405   7.451   0.519  12.455
89806W        W60406   9.919  13.277   4.532
89807W        W60407  26.285  43.591  13.850
89808W        W60408  15.236  15.341  12.554
89809W        W60409   4.132  16.463  12.992
89810W        W60410   0.163  38.959  14.801
89811W        W60411  10.774  13.637   2.399
89812W        W60412  14.210  12.262   4.534
89813W        W60413  16.285  37.329  12.846
89814W        W60414  30.784  41.980   9.713
89815W        W60415  41.354  19.562   0.846
89816W        W60416  27.636  25.404   0.835
89817W        W60417  35.861  11.797   2.113
89818W        W60418  12.558  29.608   1.430
89819W        W60419  20.588  43.665   4.540
89820W        W60420  28.169  42.069  11.211
89821W        W60421  33.142   3.625   5.108
89822W        W60422  43.787  40.540   1.060
89823W        W60423   5.071   1.340  13.381
89824W        W60424   4.852  31.455   2.712
89825W        W60425  38.840   9.376  11.366
89826W        W60426  25.073  39.314   2.666
89827W        W60427  17.267  23.980   4.187
89828W        W60428  37.870  28.143  11.000
89829W        W60429  33.583  35.409   0.843
89830W        W60430  39.479   7.787   0.899
89831W        W60431  34.457  36.273  11.967
89832W        W60432   5.848  37.021   3.182
89833W        W60433  44.723  18.805  13.116
89834W        W60434  39.264  24.184  12.483
89835W        W60435  37.428  12.955  10.352
89836W        W60436  18.806  29.557  11.951
89837W        W60437  14.281  22.728   0.007
89838W        W60438  22.610  39.410  12.456
89839W        W60439  19.125  27.426   3.245
89840W        W60440  42.754  22.146  12.156
89841W        W60441  33.395  18.991  12.920
89842W        W60442   5.896  39.829   4.107
89843W        W60443  30.148   2.874   3.935
89844W        W60444  28.064  17.226   4.113
89845W        W60445   9.704  30.652   4.286
89846W        W60446  39.032  35.685  14.998
89847W        W60447  27.459   3.757   2.145
89848W        W60448  25.949   9.340   0.823
89849W        W60449   0.789  32.911  10.935
89850W        W60450  18.065  29.729  11.284
89851W        W60451  11.755  41.579   0.902
89852W        W60452   7.444  39.724  11.326
89853W        W60453  29.690  43.024   3.477
89854W        W60454  33.821  22.023   4.537
89855W        W60455  16.331   5.836   4.056
89856W        W60456  29.022   2.786  13.082
89857W        W60457  28.751  41.287  10.258
89858W        W60458  14.935  32.972   1.350
89859W        W60459  31.527  24.480  11.772
89860W        W60460  37.809   5.805  12.286
89861W        W60461  15.983   5.488   0.414
89862W        W60462  42.459  43.266  11.564
89863W        W60463  30.216   6.187   2.635
89864W        W60464   2.898  14.807   2.621
89865W        W60465  26.005  18.256  11.631
89866W        W60466  43.435  31.090   0.865
89867W        W60467   2.519  31.186   4.147
89868W        W60468   2.297  27.178   2.273
89869W        W60469   1.313  10.314   3.863
89870W        W60470   0.264  36.917   3.566
89871W        W60471   1.456  29.966  13.531
89872W        W60472  16.556  31.143   4.241
89873W        W60473   3.280  16.693  11.734
89874W        W60474   9.827   2.192  10.992
89875W        W60475  28.278   8.854   4.534
89876W        W60476   4.866  37.902   0.005
89877W        W60477  20.148   0.050   4.218
89878W        W60478  10.208  26.405  14.065
89879W        W60479  37.106  44.542   0.395
89880W        W60480   1.687  29.249   2.134
89881W        W60481  11.978  38.116  12.436
89882W        W60482   6.895  33.367   1.642
89883W        W60483  10.875  42.937  10.543
89884W        W60484   4.510   9.621   1.774
89885W        W60485  22.654  28.231  10.012
89886W        W60486  38.885  16.202   2.277
89887W        W60487  32.307  40.823   2.184
89888W        W60488  19.203  33.336  14.386
89889W        W60489  13.284  40.250   4.045
89890W        W60490  15.250   8.629  11.577
89891W        W60491  43.480  11.805  13.991
89892W        W60492  21.573  27.747  12.516
89893W        W60493  17.511  22.693  13.796
89894W        W60494   9.647   1.689  14.874
89895W        W60495  20.477  17.347  13.004
89896W        W60496  16.715   3.701   2.994
89897W        W60497  28.158  40.918  13.864
89898W        W60498  25.490  24.017   4.404
89899W        W60499  37.039  11.804  14.601
89900W        W60500   5.214  42.059  10.717
89901W        W60501  19.888  38.041  13.809
89902W        W60502  35.500  40.373  11.266
89903W        W60503  43.724  41.361   4.171
89904W        W60504  23.985   4.652  13.858
89905W        W60505   0.459  28.571   2.142
89906W        W60506  31.491  17.573  10.799
89907W        W60507  43.399  25.136  12.059
89908W        W60508  36.674  24.793  13.032
89909W        W60509  22.779  14.324   9.787
89910W        W60510  10.610  13.164  12.911
89911W        W60511  22.022  43.764   0.794
89912W        W60512   0.191  25.421   0.794
89913W        W60513  16.316  29.522  12.455
89914W        W60514  27.979  14.067   4.434
89915W        W60515   0.987  44.272   4.683
89916W        W60516   3.851  26.722   0.672
89917W        W60517  18.766  25.565  10.207
89918W        W60518   5.228  20.628   0.127
89919W        W60519   9.298   3.999  12.026
89920W        W60520   1.907  38.535   3.499
89921W        W60521   0.754   9.961   1.013
89922W        W60522  18.626  37.934  13.046
89923W        W60523  25.059  34.269  10.695
89924W        W60524  22.416  24.707  14.450
89925W        W60525  12.294  27.833   3.216
89926W        W60526  30.889  26.723   5.054
89927W        W60527  38.641  19.262  11.520
89928W        W60528   9.794  26.282   4.301
89929W        W60529  35.502  21.200  11.715
89930W        W60530  23.695  10.887   0.976
89931W        W60531  21.826   6.659  11.628
89932W        W60532  30.136  24.923  13.503
89933W        W60533   0.210  27.934   1.570
89934W        W60534  25.315   9.887  14.865
89935W        W60535   9.208  15.594   3.731
89936W        W60536   9.196  35.730   1.666
89937W        W60537  12.539  14.233   4.238
89938W        W60538  33.792  43.759  11.641
89939W        W60539  30.956  42.706  11.033
89940W        W60540   8.685  12.269  12.448
89941W        W60541   3.444  38.132   3.294
89942W        W60542   5.537  14.493   0.198
89943W        W60543   0.283  24.061  13.356
89944W        W60544   6.657  39.424  13.881
89945W        W60545   5.407  39.939   3.194
89946W        W60546   4.464  43.031   0.705
89947W        W60547  10.365  28.396   0.376
89948W        W60548  14.646   6.041   2.710
89949W        W60549  30.040  12.152  11.951
89950W        W60550   6.080  11.213   4.538
89951W        W60551  32.675  36.309   4.779
89952W        W60552  32.129  20.043  12.514
89953W        W60553  44.261  19.370  11.464
89954W        W60554  24.529  40.032   2.663
89955W        W60555  23.660   2.910   2.281
89956W        W60556   1.944  10.680  11.016
89957W        W60557  37.959  40.359  14.412
89958W        W60558  33.023  42.940  10.999
89959W        W60559  21.802   8.274  14.775
89960W        W60560   8.697  11.854   1.226
89961W        W60561  21.728  43.064   2.764
89962W        W60562  42.494  11.265   2.714
89963W        W60563  17.082  36.605   2.757
89964W        W60564  17.744  14.779  10.993
89965W        W60565  26.976  44.810   2.664
89966W        W60566  32.850  23.430  13.588
89967W        W60567  43.955  38.932  14.300
89968W        W60568  12.687  36.070  12.992
89969W        W60569  11.595   3.080   2.048
89970W        W60570  37.161  32.582  12.527
89971W        W60571  22.511  16.787  13.900
89972W        W60572  18.192  17.079  14.246
89973W        W60573  34.005  38.618  12.203
89974W        W60574   4.264  12.366   2.524
89975W        W60575   8.253   3.141   0.786
89976W        W60576   3.151   1.324   2.561
89977W        W60577  30.243  11.648   0.906
89978W        W60578  43.557   8.401   2.276
89979W        W60579  21.099  21.455   4.035
89980W        W60580  31.914  38.007   2.393
89981W        W60581   5.322   7.585   3.085
89982W        W60582  30.986  24.815  13.883
89983W        W60583   6.033  10.316   1.342
89984W        W60584  40.042  22.016   2.704
89985W        W60585   0.573  30.025  14.218
89986W        W60586   4.271   2.397  11.607
89987W        W60587  25.267   9.200   0.273
89988W        W60588  43.214  30.683  10.687
89989W        W60589  33.425  12.258  11.628
89990W        W60590  23.627  35.048  13.923
89991W        W60591  12.901  12.081  12.412
89992W        W60592  39.951   3.529   2.937
89993W        W60593   0.986  15.607   3.231
89994W        W60594  16.131  16.397   3.141
89995W        W60595  41.872  34.736   3.808
89996W        W60596  33.480   8.953  13.818
89997W        W60597  39.603  42.912  11.584
89998W        W60598   1.800  25.476  14.903
89999W        W60599   4.229  35.214   3.236
90000W        W60600  24.965  26.083  11.493
90001W        W60601  19.485   9.208  11.587
90002W        W60602  39.428  26.490  11.240
90003W        W60603  39.079  37.813  12.679
90004W        W60604   7.414  25.610   0.684
90005W        W60605  18.768   7.344  12.151
90006W        W60606  40.045  37.289   2.410
90007W        W60607   4.092  13.202  10.742
90008W        W60608   7.811  11.606   4.628
90009W        W60609  28.842  31.642  10.739
90010W        W60610  11.552  35.860   2.209
90011W        W60611  26.520  41.842  12.398
90012W        W60612  32.075  24.558  12.706
90013W        W60613  10.641  31.620   1.675
90014W        W60614  34.216  41.773  13.958
90015W        W60615  22.045  13.382   0.302
90016W        W60616  30.980   1.195   4.380
90017W        W60617  26.917   5.055   3.155
90018W        W60618   3.857  11.792  11.606
90019W        W60619  27.268   4.353  10.399
90020W        W60620   4.911  42.516  13.441
90021W        W60621   3.851  29.953  14.146
90022W        W60622   2.273   2.289  12.089
90023W        W60623   7.642  34.572   3.553
90024W        W60624  10.327   0.169  11.584
90025W        W60625  44.422   3.174   3.191
90026W        W60626  35.048  20.607  11.227
90027W        W60627  30.940   9.663  12.922
90028W        W60628  10.633  21.573  13.432
90029W        W60629   0.843  12.711  11.190
90030W        W60630  44.533  11.142  11.356
90031W        W60631   1.340  28.636   3.291
90032W        W60632  29.359  21.230   3.399
90033W        W60633  40.601  23.658  12.481
90034W        W60634   3.687  20.466  12.496
90035W        W60635  38.266   8.322  14.372
90036W        W60636  42.827   0.086   0.733
90037W        W60637  37.184  39.737   3.264
90038W        W60638  10.674  38.107  13.412
90039W        W60639  12.462  10.889   0.813
90040W        W60640  13.748   8.637  13.496
90041W        W60641  19.177  39.223  12.473
90042W        W60642  33.465  36.285   2.292
90043W        W60643  37.929  38.998   4.372
90044W        W60644   2.692  18.210   4.643
90045W        W60645  22.466  35.614   1.424
90046W        W60646   1.934  12.868  13.053
90047W        W60647  31.472   1.438  12.886
90048W        W60648  36.625  21.528  11.182
90049W        W60649  16.751  21.221   0.278
90050W        W60650   0.862  20.572   3.227
90051W        W60651   2.546  33.604   3.169
90052W        W60652  36.579  44.309   3.803
90053W        W60653  10.607  19.147   0.973
90054W        W60654   9.868   5.710  12.096
90055W        W60655  42.403  42.069   3.154
90056W        W60656  43.940   1.117   4.524
90057W        W60657   4.316  11.863  10.836
90058W        W60658  39.983  24.631   2.319
90059W        W60659  11.336   8.439   4.861
90060W        W60660   9.471  21.153  10.288
90061W        W60661  36.894  40.033  12.588
90062W        W60662  21.492  30.145  11.072
90063W        W60663  35.463   2.303   0.371
90064W        W60664  20.825  11.688   1.760
90065W        W60665  11.410  44.281  13.513
90066W        W60666   4.505  14.991  12.667
90067W        W60667  16.596  33.526   3.139
90068W        W60668  21.813  34.496   1.248
90069W        W60669  34.182  35.221   3.231
90070W        W60670  36.529  21.314  13.048
90071W        W60671  40.952  14.126   0.919
90072W        W60672  18.283  17.467  13.348
90073W        W60673  14.611  27.103   3.816
90074W        W60674  21.542   8.787   0.061
90075W        W60675  30.072  37.490   2.779
90076W        W60676  43.297  17.668  13.773
90077W        W60677  32.077  44.901   4.462
90078W        W60678  15.174  17.663   4.937
90079W        W60679  31.502  10.276  13.502
90080W        W60680  13.800  11.031  13.179
90081W        W60681   0.948  12.600  13.953
90082W        W60682  13.845  25.041  14.015
90083W        W60683  13.619  22.315  12.496
90084W        W60684  24.061  19.165  13.948
90085W        W60685  10.386  23.972   2.187
90086W        W60686  29.703  25.200  13.562
90087W        W60687  26.701  41.819  10.730
90088W        W60688  14.260  28.815  13.314
90089W        W60689   6.738  40.522   4.502
90090W        W60690  33.039   1.567  14.425
90091W        W60691  20.574   5.901   0.886
90092W        W60692   8.565  44.684  14.236
90093W        W60693  37.970   2.739  13.509
90094W        W60694  41.499  20.238   0.033
90095W        W60695  36.321   7.882   5.083
90096W        W60696  44.032   0.750   0.817
90097W        W60697  23.527  39.482   2.407
90098W        W60698  39.189  16.030  13.507
90099W        W60699  35.102  19.790  10.788
90100W        W60700  15.513  26.748   2.232
90101W        W60701  44.778  38.723   0.799
90102W        W60702  18.808  38.876   1.366
90103W        W60703  11.431  12.472   1.828
90104W        W60704  42.496   6.928  12.895
90105W        W60705  40.345   1.850  10.686
90106W        W60706   8.891  28.005   2.295
90107W        W60707   3.161   9.393   2.827
90108W        W60708   7.544  37.716  12.574
90109W        W60709  24.064  29.675   0.896
90110W        W60710  36.859  12.694  11.157
90111W        W60711  15.439  19.268  14.879
90112W        W60712  38.576  10.604  13.794
90113W        W60713  29.406  16.668   1.756
90114W        W60714   3.984  43.620   4.179
90115W        W60715  26.964  31.356  12.250
90116W        W60716  30.752  35.402   3.022
90117W        W60717  19.612  42.057   4.068
90118W        W60718  27.035   8.685   1.594
90119W        W60719   0.736  29.146  14.393
90120W        W60720   8.631  22.102   2.637
90121W        W60721  16.241  40.551  14.982
90122W        W60722  17.825   4.391  10.965
90123W        W60723  22.227   0.486   2.817
90124W        W60724   8.771  24.802   4.762
90125W        W60725  16.375  27.499  12.511
90126W        W60726  30.308   3.380  12.912
90127W        W60727   6.249  18.529   2.259
90128W        W60728  35.583  25.151  12.493
90129W        W60729  13.567  33.889   3.816
90130W        W60730  44.544  33.990   0.760
90131W        W60731   7.387  41.938  14.808
90132W        W60732  20.826  13.585  14.073
90133W        W60733  29.426  26.968  12.478
90134W        W60734   4.253  13.659   2.790
90135W        W60735   1.418  33.415  11.360
90136W        W60736   3.197  20.257  14.452
90137W        W60737  42.402  26.986  14.940
90138W        W60738  27.527   0.538   0.230
90139W        W60739  27.169  26.644   4.798
90140W        W60740   0.767  33.444   1.460
90141W        W60741   8.367  28.240  12.351
90142W        W60742  16.306  13.607  12.046
90143W        W60743  27.501  42.612  10.961
90144W        W60744  37.777  35.295   1.961
90145W        W60745  17.451  17.305   3.781
90146W        W60746  25.492  38.475  13.478
90147W        W60747  37.415  13.640   4.126
90148W        W60748  39.069  37.653   1.342
90149W        W60749  23.789  40.147  11.470
90150W        W60750  12.335   8.401  10.684
90151W        W60751   9.979  28.938   2.864
90152W        W60752  31.684  43.362  11.123
90153W        W60753  21.037   7.504  12.438
90154W        W60754  43.913  19.454   1.750
90155W        W60755  11.211  10.174   0.877
90156W        W60756   6.726  38.179   3.976
90157W        W60757  15.692  24.663  12.868
90158W        W60758  43.367   5.694  13.293
90159W        W60759  33.926  34.779   3.237
90160W        W60760  32.894   0.755  12.473
90161W        W60761   1.738  21.059   1.813
90162W        W60762  39.202   3.896  11.025
90163W        W60763  41.407  10.263  11.570
90164W        W60764   2.838  30.243  11.910
90165W        W60765  19.776  25.707   4.018
90166W        W60766  37.625  40.464   4.670
90167W        W60767  21.361  19.489  13.923
90168W        W60768  30.940   1.953   0.262
90169W        W60769  11.765   5.740  14.823
90170W        W60770   5.441   3.457   2.897
90171W        W60771  25.775  19.919  13.220
90172W        W60772  28.400  41.465   2.846
90173W        W60773  38.073  29.204   0.483
90174W        W60774   1.543  20.044   0.003
90175W        W60775  12.703  35.202  13.610
90176W        W60776   1.344  36.856   0.738
90177W        W60777   7.153  21.076   1.398
90178W        W60778   5.715  35.308  12.122
90179W        W60779  34.910   4.439  14.888
90180W        W60780  43.346  41.448   5.181
90181W        W60781   0.864  11.136   4.616
90182W        W60782  28.280  26.603  14.782
90183W        W60783  18.274  14.233  13.457
90184W        W60784  22.743  33.220   0.931
90185W        W60785   2.866  14.058  11.480
90186W        W60786   7.366  13.562   1.859
90187W        W60787  39.293  32.910   4.273
90188W        W60788  36.643  35.669  11.600
90189W        W60789  30.417  44.931   2.836
90190W        W60790  42.306  17.147  13.566
90191W        W60791  10.260   4.560  13.975
90192W        W60792  40.695  43.855   4.461
90193W        W60793  36.425  28.815   4.779
90194W        W60794  35.655  36.600  13.501
90195W        W60795  12.800  22.043   1.935
90196W        W60796   2.704   2.523  10.477
90197W        W60797   0.033   5.216   2.290
90198W        W60798  34.564  18.400   3.396
90199W        W60799  36.557  21.363  10.165
90200W        W60800  36.422  15.741  10.751
90201W        W60801  30.682  17.388   4.271
90202W        W60802  25.120  43.340   1.352
90203W        W60803  43.547  32.601  10.576
90204W        W60804   6.885  13.387  14.997
90205W        W60805  37.971   4.716  11.645
90206W        W60806   7.362   3.270   0.646
90207W        W60807   0.971  18.122   5.102
90208W        W60808  30.446   6.515   2.299
90209W        W60809  24.688  24.781  12.479
90210W        W60810  19.352  17.825   3.450
90211W        W60811  36.909  28.878   3.915
90212W        W60812  25.196  16.752   4.297
90213W        W60813   5.963  16.853  13.472
90214W        W60814  28.060  15.112   4.654
90215W        W60815  44.317  22.290   1.819
90216W        W60816  10.318  23.973  11.564
90217W        W60817   5.146  18.088   1.318
90218W        W60818  38.822   7.928  10.743
90219W        W60819   8.894  20.637   1.665
90220W        W60820  33.473  16.310   2.836
90221W        W60821  29.431   7.222   2.879
90222W        W60822  44.278  20.987   4.094
90223W        W60823  31.283   0.743  11.579
90224W        W60824  41.317  44.936   0.204
90225W        W60825  34.850  19.142   1.441
90226W        W60826  26.889  37.808  10.721
90227W        W60827   2.241  41.133   2.688
90228W        W60828   9.730  17.738   1.344
90229W        W60829  38.794   2.257   0.901
90230W        W60830  25.661  27.621  10.559
90231W        W60831  20.281  16.193   3.779
90232W        W60832  33.133  44.456  14.472
90233W        W60833  33.772  21.179   4.239
90234W        W60834  21.107  28.104   3.806
90235W        W60835  14.591  24.172   2.264
90236W        W60836  14.826  13.909   2.592
90237W        W60837  42.240  41.230   1.340
90238W        W60838  21.884   4.894   3.983
90239W        W60839  14.452   4.379  10.705
90240W        W60840  19.840  13.130  12.298
90241W        W60841  25.731  25.165  12.006
90242W        W60842   9.453  30.842  10.610
90243W        W60843  15.347   4.675  10.817
90244W        W60844   4.946  13.304  11.903
90245W        W60845  20.800  29.088   0.269
90246W        W60846   5.147   6.185  14.079
90247W        W60847   4.525  24.002   3.421
90248W        W60848  33.413   8.647  14.849
90249W        W60849  19.464  18.574  12.538
90250W        W60850  34.944  12.905   3.145
90251W        W60851  30.712  38.338  14.092
90252W        W60852  27.599  33.040   4.438
90253W        W60853  19.507   7.809  13.546
90254W        W60854  20.906   4.898   1.766
90255W        W60855   2.965  32.158   0.243
90256W        W60856  12.204  17.682  11.147
90257W        W60857   2.939   4.660   0.462
90258W        W60858  26.047  25.154  12.964
90259W        W60859   5.431  19.837   4.195
90260W        W60860  31.708  12.072  13.809
90261W        W60861  37.434   3.488   3.962
90262W        W60862  23.380  37.350   2.793
90263W        W60863   9.136  11.090   3.255
90264W        W60864  15.118  23.979   4.567
90265W        W60865  37.231   8.222   1.258
90266W        W60866  44.302  19.714   2.597
90267W        W60867  22.941  23.608   2.879
90268W        W60868  39.213  26.042  13.563
90269W        W60869   1.836  17.792  12.468
90270W        W60870  39.453  43.470  12.965
90271W        W60871  21.528  29.444  13.494
90272W        W60872  40.823  21.214   4.556
90273W        W60873  38.945  42.346   4.596
90274W        W60874  39.402   0.925  12.377
90275W        W60875  31.283   2.059   9.973
90276W        W60876  23.733  21.206  14.991
90277W        W60877  17.310   4.364   1.853
90278W        W60878  42.031  37.579  14.816
90279W        W60879  37.549  31.005  11.912
90280W        W60880  32.465   4.456  11.095
90281W        W60881   6.392  30.387   4.669
90282W        W60882  31.472  43.486   1.201
90283W        W60883  38.526   7.409  13.008
90284W        W60884  30.935   1.490  13.585
90285W        W60885  34.054  29.178  12.601
90286W        W60886  43.497  23.539  13.028
90287W        W60887  20.172  14.319  12.924
90288W        W60888  40.083   2.821   2.446
90289W        W60889  38.063  25.039  13.396
90290W        W60890  16.336  30.497  12.418
90291W        W60891  23.323  21.787  14.022
90292W        W60892  43.022  25.270   3.729
90293W        W60893  35.346   4.165  11.990
90294W        W60894  24.445   5.230   3.309
90295W        W60895  31.282  29.086  13.090
90296W        W60896  25.585  40.466  12.768
90297W        W60897  34.330   1.792  12.911
90298W        W60898  28.203   0.869  14.304
90299W        W60899  23.482   8.426   3.343
90300W        W60900  17.094   6.242   1.213
90301W        W60901  17.559  38.568   3.950
90302W        W60902  13.348  30.622   3.782
90303W        W60903   6.754   3.862  13.952
90304W        W60904  34.425  39.963   0.522
90305W        W60905  31.989  29.250  12.611
90306W        W60906  32.710  10.755  11.659
90307W        W60907  12.248  21.713  10.614
90308W        W60908  14.996  16.258   4.597
90309W        W60909  37.790  20.787   2.874
90310W        W60910  36.135  14.773   1.149
90311W        W60911  37.466  41.875  13.490
90312W        W60912  31.647   3.245  13.319
90313W        W60913   6.691   1.817  11.791
90314W        W60914  13.674  15.733   4.336
90315W        W60915   0.448  19.773   3.113
90316W        W60916   2.798  30.627  12.450
90317W        W60917   6.908   3.218   1.331
90318W        W60918  25.478  30.581   4.177
90319W        W60919  40.003  18.074  11.472
90320W        W60920  42.389  31.825  10.317
90321W        W60921  25.697  19.992   4.561
90322W        W60922   6.718  27.506  12.873
90323W        W60923  33.919  42.852  13.395
90324W        W60924  21.046  30.580  12.364
90325W        W60925  19.580   6.598   4.282
90326W        W60926  38.469  38.403  12.032
90327W        W60927  19.439  13.115  11.938
90328W        W60928   7.374  13.335  11.348
90329W        W60929  42.795  31.874  14.930
90330W        W60930  44.594   5.249   3.590
90331W        W60931  21.254   9.397   2.215
90332W        W60932  25.989  23.668   4.616
90333W        W60933  24.619  40.444  13.328
90334W        W60934  38.325  29.371  10.756
90335W        W60935  28.979  15.823   4.352
90336W        W60936   6.843   7.640   2.033
90337W        W60937  25.552  33.417  14.004
90338W        W60938  19.360  29.896  13.062
90339W        W60939   6.800  28.686  11.943
90340W        W60940  24.722  29.600   1.173
90341W        W60941  14.503  38.497  11.536
90342W        W60942  19.255   9.395   0.929
90343W        W60943  18.569  36.376  11.671
90344W        W60944  32.860  41.025  14.869
90345W        W60945   0.741  40.975   1.792
90346W        W60946  25.395   5.957   0.923
90347W        W60947   4.604   3.473   4.576
90348W        W60948  29.604  29.841   1.846
90349W        W60949  11.022  13.934   2.758
90350W        W60950  28.714   6.639  14.031
90351W        W60951  38.396  13.001   3.314
90352W        W60952  15.611  41.326  12.480
90353W        W60953   6.464   4.872  14.987
90354W        W60954  13.430   1.751   3.885
90355W        W60955  21.012  14.260   1.813
90356W        W60956  43.050  16.589   4.066
90357W        W60957  39.365  19.833  14.330
90358W        W60958  18.734  33.949   1.893
90359W        W60959   7.815  22.861  11.409
90360W        W60960  37.380  12.235  11.501
90361W        W60961   9.095  16.828   2.255
90362W        W60962  10.587  40.435  14.171
90363W        W60963  30.912  24.112  10.745
90364W        W60964  27.689  38.053  12.928
90365W        W60965  32.786  42.147   1.237
90366W        W60966  21.982  18.737  14.869
90367W        W60967  40.298  26.865  14.320
90368W        W60968  30.066   6.934   2.375
90369W        W60969  38.066  13.141  12.061
90370W        W60970   9.271  18.088  11.431
90371W        W60971  11.661  32.772  10.608
90372W        W60972  19.530  21.250   0.339
90373W        W60973  11.503  21.326   5.053
90374W        W60974  12.737  19.678   0.732
90375W        W60975   7.427  26.079  14.803
90376W        W60976  15.153  42.830  11.692
90377W        W60977  20.835  36.377   0.556
90378W        W60978  16.448   9.711   0.528
90379W        W60979  14.693  32.132  11.153
90380W        W60980  12.096   4.873   3.597
90381W        W60981  37.810  17.781  12.863
90382W        W60982  29.387   2.101   2.715
90383W        W60983  16.609  34.473  14.617
90384W        W60984  21.137  33.206  10.326
90385W        W60985  37.408  32.413  10.803
90386W        W60986   6.491  36.842   3.970
90387W        W60987  39.905  16.786   4.551
90388W        W60988  39.193   9.038  11.598
90389W        W60989   9.896  15.279   4.203
90390W        W60990  14.411  13.842  13.392
90391W        W60991   7.429  16.709   1.680
90392W        W60992  32.515   9.313   4.355
90393W        W60993  26.994  19.065   1.368
90394W        W60994  40.062  37.530  10.254
90395W        W60995  18.622  10.147  13.091
90396W        W60996  29.438  31.657  12.558
90397W        W60997  39.802   0.465  10.642
90398W        W60998  19.659   9.324  13.936
90399W        W60999   8.902   9.185   2.347
90400W        W61000  10.347  42.992  11.547
90401W        W61001   1.822  38.364   4.521
90402W        W61002  14.749  11.562   4.986
90403W        W61003  28.843  30.590  13.830
90404W        W61004  12.192  11.900   2.317
90405W        W61005  39.078  10.145   4.524
90406W        W61006  26.043  37.496   5.085
90407W        W61007  40.437   5.782   0.306
90408W        W61008  13.741   7.467   4.036
90409W        W61009  16.235  18.008  14.334
90410W        W61010  10.885  32.163   0.416
90411W        W61011   4.933  44.523  13.460
90412W        W61012  16.991  11.817  13.913
90413W        W61013  13.244   4.772   0.349
90414W        W61014  10.407   2.954  11.511
90415W        W61015  24.773  39.062   4.160
90416W        W61016  38.885  13.089   0.926
90417W        W61017  31.062  24.599   1.966
90418W        W61018  13.833   2.222   1.350
90419W        W61019  10.848  23.836  14.486
90420W        W61020   2.949  10.797  11.870
90421W        W61021   5.716  39.068  12.529
90422W        W61022  26.158  28.251  12.054
90423W        W61023  15.575   1.031   3.122
90424W        W61024   5.907   2.038   4.060
90425W        W61025  16.136   9.315  13.355
90426W        W61026   7.163   4.469   0.873
90427W        W61027   7.460  18.315   4.101
90428W        W61028   0.527   9.551  12.104
90429W        W61029   2.445  11.040   0.756
90430W        W61030  18.860  36.587  14.489
90431W        W61031  36.168  40.297   0.912
90432W        W61032  38.346  11.214   3.933
90433W        W61033  44.209  42.394  13.019
90434W        W61034  40.814  28.489   2.183
90435W        W61035  35.096  36.902   3.017
90436W        W61036   2.833  10.175   0.842
90437W        W61037  42.729  43.971  12.512
90438W        W61038  37.807  20.078  14.080
90439W        W61039  12.660  20.102   1.440
90440W        W61040  15.056  20.264  11.163
90441W        W61041   5.260   5.345   1.150
90442W        W61042  19.995  11.216  13.484
90443W        W61043   8.956  21.875  12.153
90444W        W61044  32.646  38.302   1.528
90445W        W61045   5.822  41.885  10.513
90446W        W61046  19.017  23.253  14.812
90447W        W61047  24.271  43.852   4.553
90448W        W61048  25.720  43.556  10.753
90449W        W61049  12.862  30.148   9.632
90450W        W61050  37.003   2.693  14.814
90451W        W61051  21.452   5.842   3.177
90452W        W61052  35.800  25.599   2.147
90453W        W61053  26.932  42.792  14.805
90454W        W61054  28.635  12.877   4.275
90455W        W61055  22.935  42.624   4.148
90456W        W61056  42.380  27.968   2.734
90457W        W61057   0.578  13.571   4.123
90458W        W61058  41.367  26.970  13.572
90459W        W61059  25.816   6.175  10.107
90460W        W61060   0.182  12.321   4.876
90461W        W61061   9.221  31.314  13.353
90462W        W61062  31.940  15.685  14.870
90463W        W61063  34.879  39.824  13.497
90464W        W61064   8.856  42.826   1.681
90465W        W61065  31.145  29.213   3.277
90466W        W61066  11.397  20.881  13.100
90467W        W61067  42.074   5.741   0.239
90468W        W61068   5.062  17.333   4.639
90469W        W61069   2.402  29.523  13.796
90470W        W61070   4.661  31.820   1.818
90471W        W61071  23.494  16.713   2.185
90472W        W61072   2.249  39.057  10.192
90473W        W61073  24.724  25.036   3.635
90474W        W61074  15.539  10.938   2.130
90475W        W61075  19.832  27.117  10.779
90476W        W61076  25.146   0.887  11.249
90477W        W61077   3.955  16.136   0.153
90478W        W61078  11.069   6.149   4.213
90479W        W61079  33.921  36.544  10.794
90480W        W61080  37.517  27.865   1.809
90481W        W61081   3.699  39.222   0.304
90482W        W61082  25.603   6.428  11.964
90483W        W61083  10.708  30.187  13.816
90484W        W61084  32.461  25.376   4.509
90485W        W61085  17.139  22.088   2.451
90486W        W61086  14.215  34.595  14.698
90487W        W61087  42.839  36.286  14.318
90488W        W61088  10.941  12.716  11.152
90489W        W61089  20.877   3.077  12.571
90490W        W61090   1.379  26.741  11.596
90491W        W61091  28.514  29.812  10.752
90492W        W61092  42.432   2.825   1.682
90493W        W61093   3.201   5.363   4.107
90494W        W61094   0.335   9.603   2.958
90495W        W61095  21.030  41.656  10.407
90496W        W61096  44.988  16.044   4.657
90497W        W61097   6.261  26.219   3.107
90498W        W61098   1.558  31.171  12.887
90499W        W61099  29.547  35.982  14.574
90500W        W61100  15.668   7.622   5.133
90501W        W61101  26.061   7.784   3.356
90502W        W61102  41.016   8.807  11.853
90503W        W61103   5.876  40.991   3.653
90504W        W61104  39.922  41.279   1.482
90505W        W61105   4.247  30.627  13.590
90506W        W61106  18.741  30.528   1.973
90507W        W61107  34.430  29.308   2.694
90508W        W61108  40.610  42.760  12.535
90509W        W61109   1.756  37.407   3.235
90510W        W61110  41.050  24.239   2.686
90511W        W61111  24.700   9.820   3.710
90512W        W61112  43.913  14.733  13.839
90513W        W61113  27.107  33.953  11.324
90514W        W61114   0.897  10.548  11.137
90515W        W61115  39.363  32.615  13.503
90516W        W61116   9.796  31.046  13.137
90517W        W61117  39.607  33.884   4.180
90518W        W61118  28.546  39.468  10.331
90519W        W61119  31.609   3.438  14.752
90520W        W61120  38.145  12.871   3.803
90521W        W61121  28.962  24.808  12.062
90522W        W61122  12.624  19.602  11.848
90523W        W61123  21.578  41.533  11.452
90524W        W61124  44.060  12.767  11.109
90525W        W61125  40.327   3.259  11.587
90526W        W61126  31.353  40.553   3.689
90527W        W61127   5.270  15.056   1.623
90528W        W61128  28.045  20.254   4.079
90529W        W61129  24.218   4.850   4.079
90530W        W61130  43.944   7.889   0.512
90531W        W61131  31.132  19.162   2.354
90532W        W61132  20.510  10.013   3.994
90533W        W61133   5.913   2.055  12.035
90534W        W61134   2.929  18.315  10.773
90535W        W61135  16.317  31.003  11.142
90536W        W61136  36.340  25.955  12.543
90537W        W61137  23.169   8.600   3.730
90538W        W61138  28.486  10.863  10.607
90539W        W61139  43.100  40.787  12.202
90540W        W61140   9.748   5.382   3.160
90541W        W61141  10.463  27.068   0.425
90542W        W61142  36.438  26.031  10.724
90543W        W61143   5.778  24.986   1.148
90544W        W61144  44.971   7.755  12.038
90545W        W61145  34.449  33.524  12.431
90546W        W61146  13.657   4.488   2.640
90547W        W61147  39.451  37.138   3.077
90548W        W61148   5.941   7.074   0.429
90549W        W61149   4.639  18.001  12.488
90550W        W61150  39.575  23.417  14.566
90551W        W61151  15.485   4.978  14.460
90552W        W61152   9.263  39.987  12.011
90553W        W61153  18.361  21.660   2.226
90554W        W61154  35.396  40.901   3.091
90555W        W61155  14.451  43.178  12.049
90556W        W61156  25.152   4.748  14.761
90557W        W61157  14.868  22.528  10.804
90558W        W61158  24.789   5.667   3.308
90559W        W61159  39.906  25.148   3.355
90560W        W61160  26.944  44.480  11.076
90561W        W61161  38.908  15.170  10.666
90562W        W61162   2.880  32.875   0.800
90563W        W61163   1.943  30.768  13.719
90564W        W61164  29.652  13.515  14.381
90565W        W61165   0.164  36.583  14.964
90566W        W61166  33.561  16.722   2.002
90567W        W61167  15.695  12.448   1.229
90568W        W61168  10.721  36.599  14.077
90569W        W61169   2.337   2.188  13.104
90570W        W61170  43.968   7.863  12.595
90571W        W61171  26.511  34.576  14.546
90572W        W61172  15.564  43.507   3.517
90573W        W61173  38.585   0.491   4.290
90574W        W61174  25.278   1.205   2.796
90575W        W61175  36.765  41.911   3.651
90576W        W61176  26.081  10.510  13.978
90577W        W61177  34.077  17.529   3.236
90578W        W61178  18.159  28.585   4.586
90579W        W61179   1.873   3.868   0.241
90580W        W61180   6.235   4.412   3.795
90581W        W61181   7.406   0.992   2.826
90582W        W61182  43.273  44.905   3.562
90583W        W61183  21.534   9.777  12.857
90584W        W61184   2.434  30.506   1.811
90585W        W61185  16.503  42.783  13.006
90586W        W61186  21.216  41.783  10.864
90587W        W61187  28.815  36.531  11.672
90588W        W61188   4.830  24.490  11.069
90589W        W61189  15.024  20.602  13.879
90590W        W61190  27.307   3.479   1.741
90591W        W61191   8.246  10.228  12.140
90592W        W61192  13.985  37.051   5.107
90593W        W61193  28.976  43.537  11.578
90594W        W61194  31.109  15.402   2.728
90595W        W61195   3.966  34.501  13.660
90596W        W61196  22.741  32.367  14.063
90597W        W61197  14.995  42.933  10.583
90598W        W61198   0.445   6.875  10.686
90599W        W61199  26.272   7.613  14.005
90600W        W61200   0.311  13.766  14.804
90601W        W61201  16.520  28.347   4.630
90602W        W61202  10.239   1.347   4.960
90603W        W61203  29.215  16.960   1.263
90604W        W61204  28.107  20.298   1.283
90605W        W61205  18.558  41.484  14.952
90606W        W61206  43.928  43.716  12.800
90607W        W61207   8.222  26.504  11.796
90608W        W61208  15.039  43.278  13.518
90609W        W61209  18.437  19.880   3.577
90610W        W61210   8.452   9.734  14.469
90611W        W61211   2.958   7.283   4.416
90612W        W61212  22.058   2.178  13.345
90613W        W61213  43.548   2.559   4.822
90614W        W61214  40.410  27.980  11.620
90615W        W61215  28.071  18.249   3.266
90616W        W61216   3.053  35.595   1.173
90617W        W61217  19.808  25.966   1.915
90618W        W61218  17.969  31.148  14.273
90619W        W61219  22.789   8.317  13.331
90620W        W61220  43.718  21.295   4.032
90621W        W61221  21.840  15.918   1.627
90622W        W61222   0.655  38.599  13.429
90623W        W61223  39.015  13.253   3.221
90624W        W61224  10.254  31.742  11.192
90625W        W61225  32.897  39.544  13.999
90626W        W61226  10.854  28.120   1.746
90627W        W61227  28.181  34.572  13.409
90628W        W61228  41.327  44.377  13.835
90629W        W61229  32.431  27.612   2.820
90630W        W61230  20.755   3.794  10.628
90631W        W61231  12.458  18.507   4.246
90632W        W61232  14.266  13.733  12.028
90633W        W61233  31.416  43.492  10.716
90634W        W61234  23.776   2.369  14.847
90635W        W61235  40.971  40.445   2.255
90636W        W61236  10.946   6.746  13.013
90637W        W61237  14.138  41.232  10.201
90638W        W61238  40.541  22.175   4.152
90639W        W61239   4.889   8.995   5.117
90640W        W61240  14.732  41.111  11.002
90641W        W61241  34.594   2.410  11.163
90642W        W61242  23.125   9.469   0.887
90643W        W61243  23.002  30.764   2.401
90644W        W61244   7.722  11.184  10.376
90645W        W61245  43.298  42.024  11.641
90646W        W61246  28.934   0.303   0.247
90647W        W61247  41.565  25.331   4.213
90648W        W61248  43.500   7.448   4.599
90649W        W61249   4.792  38.164   2.171
90650W        W61250  39.404  41.772  13.970
90651W        W61251  35.753  27.644   1.373
90652W        W61252  34.798  27.818  14.383
90653W        W61253  20.405  34.417  14.875
90654W        W61254   8.723   4.119   3.909
90655W        W61255  34.158  25.141   4.114
90656W        W61256  16.003  44.940   0.014
90657W        W61257  10.291  26.476   4.324
90658W        W61258  24.285   3.336   1.520
90659W        W61259  27.887  14.079   2.773
90660W        W61260  28.690  38.865  13.930
90661W        W61261  27.665  41.419   1.138
90662W        W61262  27.871   6.269   3.227
90663W        W61263   2.511  13.438  10.650
90664W        W61264  11.688  13.529   4.079
90665W        W61265  23.651  41.476   0.111
90666W        W61266   6.156  44.585   0.863
90667W        W61267  32.602  13.596  12.916
90668W        W61268  40.321   5.023  13.599
90669W        W61269  42.393   5.816  11.649
90670W        W61270  42.646   1.018   3.812
90671W        W61271   6.600  36.973   2.312
90672W        W61272  40.532  13.671   1.765
90673W        W61273  41.931  35.360   0.285
90674W        W61274   9.635  17.284  13.936
90675W        W61275  36.842  21.638  14.041
90676W        W61276  20.357   5.826  12.306
90677W        W61277  13.791   5.796  14.723
90678W        W61278  24.182  20.094   3.003
90679W        W61279  17.392   9.350   1.748
90680W        W61280  23.153   6.192  12.606
90681W        W61281  33.529  11.283  13.331
90682W        W61282  42.831  11.271   1.327
90683W        W61283  36.416  14.571   3.585
90684W        W61284   5.414  12.630  11.408
90685W        W61285   3.768  39.890   1.483
90686W        W61286  18.152  38.262  13.866
90687W        W61287  37.695  34.395   0.375
90688W        W61288   4.350  13.142  11.207
90689W        W61289  31.979  14.286  11.947
90690W        W61290  21.466  27.720   0.937
90691W        W61291  21.059  35.300   3.176
90692W        W61292  32.184  36.525  13.497
90693W        W61293   6.740   5.034  14.516
90694W        W61294  23.694  30.530  14.447
90695W        W61295  27.114  15.431   1.653
90696W        W61296  38.976  41.966  13.758
90697W        W61297  41.375  14.781   1.687
90698W        W61298  25.248  27.633   4.549
90699W        W61299  35.623   9.707   3.758
90700W        W61300  39.560   5.704   1.265
90701W        W61301  13.874  30.714  11.581
90702W        W61302  21.208  43.026  13.883
90703W        W61303   8.903  30.880   0.634
90704W        W61304  22.286   5.946  11.991
90705W        W61305  33.073  42.495  11.236
90706W        W61306  40.909   7.266  14.897
90707W        W61307  39.960  21.029  12.533
90708W        W61308  36.875  17.943   1.305
90709W        W61309   1.699  16.131   2.146
90710W        W61310  25.779  18.055   2.369
90711W        W61311  16.130  34.291  14.403
90712W        W61312  44.739   6.436  11.475
90713W        W61313  34.355   1.809  14.372
90714W        W61314   8.356  10.583   2.845
90715W        W61315   4.781  21.585   4.451
90716W        W61316  37.027  24.570   3.106
90717W        W61317  15.128  25.102   1.480
90718W        W61318  14.077  26.632  14.505
90719W        W61319  44.474   9.312  12.398
90720W        W61320   5.249  35.206   4.112
90721W        W61321   4.030  40.354  14.787
90722W        W61322  18.212   0.882   1.259
90723W        W61323  17.572   6.435   1.076
90724W        W61324  20.547  23.302  13.788
90725W        W61325  18.243  25.538  14.336
90726W        W61326  34.531  38.018   2.382
90727W        W61327   6.221  38.546  10.793
90728W        W61328  18.791  35.124  12.042
90729W        W61329  38.318  17.221   1.762
90730W        W61330  37.636  33.050   2.227
90731W        W61331   7.560   2.767   1.825
90732W        W61332  23.753  15.178   4.877
90733W        W61333  17.059  43.099   3.793
90734W        W61334  36.960  26.635   0.918
90735W        W61335  23.841  30.839   4.317
90736W        W61336   9.218  36.265   1.704
90737W        W61337  15.297  35.774   3.222
90738W        W61338  14.615  26.180  14.911
90739W        W61339   2.240  28.193   4.502
90740W        W61340   1.327   2.704  11.957
90741W        W61341   2.813   2.876   2.382
90742W        W61342  16.826  44.644   0.471
90743W        W61343  14.194   5.958  14.383
90744W        W61344  20.976  43.294  11.553
90745W        W61345  28.649  28.166   0.855
90746W        W61346  38.394  21.342   3.583
90747W        W61347  35.952  17.343   3.637
90748W        W61348  22.979   8.583  11.867
90749W        W61349  28.936  22.651  12.639
90750W        W61350  22.629  13.328  14.312
90751W        W61351  25.485  29.124  14.877
90752W        W61352  27.236  19.475   0.480
90753W        W61353   0.691  28.857  11.232
90754W        W61354  43.035   8.424   2.313
90755W        W61355   3.373   5.962  12.288
90756W        W61356  23.960   6.974  11.819
90757W        W61357  42.941  27.463  12.371
90758W        W61358  41.022  13.083  11.534
90759W        W61359  35.232  19.064  10.589
90760W        W61360  12.857  30.108  13.841
90761W        W61361  29.809   1.104  11.121
90762W        W61362   1.922  26.881  12.422
90763W        W61363  44.208  12.272   2.113
90764W        W61364  39.062  33.393   2.832
90765W        W61365  27.309   5.860  14.889
90766W        W61366   3.575   4.418  13.645
90767W        W61367   3.616  23.957   0.247
90768W        W61368   5.579  25.494  12.482
90769W        W61369   1.470   8.332   1.364
90770W        W61370  37.511   0.268   3.650
90771W        W61371  20.220  44.332   3.753
90772W        W61372  41.725  24.696  11.613
90773W        W61373   6.185   4.898  11.855
90774W        W61374  10.460  15.903  12.998
90775W        W61375  23.624  34.299  10.704
90776W        W61376  42.035   6.293   5.528
90777W        W61377   1.080   6.809  14.795
90778W        W61378  43.797  36.545  13.883
90779W        W61379   2.606  44.417  12.101
90780W        W61380   8.268  33.634   3.678
90781W        W61381  17.257  39.020  11.717
90782W        W61382  23.975  34.105   2.372
90783W        W61383  13.290  36.827  14.349
90784W        W61384  20.169  18.112  13.513
90785W        W61385   7.548  40.376   0.900
90786W        W61386  27.947   5.384  14.970
90787W        W61387  15.167  26.503  10.579
90788W        W61388  25.156   0.002   2.027
90789W        W61389   2.223  26.697   3.161
90790W        W61390   3.199  36.443   4.304
90791W        W61391  36.138  27.337  12.481
90792W        W61392  25.436  37.399   4.586
90793W        W61393  20.980  30.474  13.859
90794W        W61394  19.105  38.144   0.963
90795W        W61395  27.137  14.513  14.243
90796W        W61396  39.078   9.415  14.060
90797W        W61397  31.111  43.097  11.828
90798W        W61398   9.578  18.244   1.352
90799W        W61399  15.320   1.726  11.163
90800W        W61400   3.543  37.593  10.219
90801W        W61401   2.871  36.627  14.108
90802W        W61402  25.002  10.145  12.139
90803W        W61403  22.620  43.020   0.339
90804W        W61404   9.555  13.093   2.685
90805W        W61405   4.119  39.818  13.925
90806W        W61406   3.411  42.331   0.335
90807W        W61407  27.454  22.621  12.127
90808W        W61408   2.884  28.947   1.469
90809W        W61409  44.840   6.139   1.835
90810W        W61410  21.784  10.675  11.914
90811W        W61411  18.146  14.887   2.348
90812W        W61412  44.413   4.180  10.745
90813W        W61413  13.589  17.935   5.061
90814W        W61414   7.467  36.788  14.035
90815W        W61415   9.629  27.049  10.983
90816W        W61416  35.995   7.835   4.425
90817W        W61417  41.520  21.336  12.867
90818W        W61418  22.377  27.802  14.000
90819W        W61419  32.511  19.376  11.526
90820W        W61420   6.560  40.402  12.223
90821W        W61421  31.515  36.182  11.112
90822W        W61422  20.293   8.823  13.700
90823W        W61423   9.642  33.406   0.579
90824W        W61424   9.648  21.934  12.462
90825W        W61425   4.436  21.563  12.917
90826W        W61426  41.291  34.509   3.712
90827W        W61427  40.573  30.906   3.746
90828W        W61428  11.128   0.893   1.761
90829W        W61429  20.350  25.431   4.907
90830W        W61430  36.633   5.376   0.355
90831W        W61431  20.336  36.349  10.788
90832W        W61432  27.963  26.914  14.511
90833W        W61433  10.246  28.600   2.192
90834W        W61434  13.623   4.865   1.816
90835W        W61435  19.720  11.758  14.848
90836W        W61436  28.081  12.649  13.051
90837W        W61437  24.438  10.008   4.110
90838W        W61438  29.942  15.323   1.416
90839W        W61439   6.821  17.009  11.211
90840W        W61440   1.237  42.105  10.773
90841W        W61441  33.086  40.208  12.977
90842W        W61442   8.933  36.790  14.312
90843W        W61443  36.139  27.381  11.594
90844W        W61444   8.116  13.685  11.607
90845W        W61445  44.193   0.329  11.074
90846W        W61446  23.526  31.450  14.572
90847W        W61447  15.058   2.859  12.141
90848W        W61448  19.019   6.265   0.934
90849W        W61449  26.586  17.181   3.717
90850W        W61450  41.761   3.543  12.308
90851W        W61451  21.198  44.583   0.872
90852W        W61452  26.269  40.888   3.683
90853W        W61453  28.161  25.651  13.981
90854W        W61454  13.677   3.207   2.395
90855W        W61455   3.477  19.041  14.759
90856W        W61456  32.371  12.315   2.977
90857W        W61457  42.251  30.270  14.508
90858W        W61458  15.299  16.780  10.185
90859W        W61459   5.744   7.234  11.707
90860W        W61460  34.754  21.173  10.613
90861W        W61461  13.616  30.084  14.298
90862W        W61462  27.781  35.441   4.122
90863W        W61463  26.986  12.312  14.890
90864W        W61464   5.798  25.446   0.494
90865W        W61465  23.499  36.310   0.464
90866W        W61466  18.729  26.939  13.529
90867W        W61467   5.481  17.733  12.612
90868W        W61468  25.198   6.221   4.510
90869W        W61469  26.639  42.896   1.328
90870W        W61470   3.811  29.659  10.717
90871W        W61471  19.748  28.915   2.725
90872W        W61472   3.899  25.707   1.912
90873W        W61473   0.398  16.032   3.624
90874W        W61474  21.690  24.211   1.880
90875W        W61475  42.833  42.583  12.144
90876W        W61476  43.988  12.007   3.572
90877W        W61477  15.045   1.675   2.700
90878W        W61478   0.236  14.174   2.578
90879W        W61479  19.968   7.708  12.846
90880W        W61480   5.677  36.822  12.871
90881W        W61481  26.717  11.576  12.075
90882W        W61482  32.049  33.448   2.485
90883W        W61483  37.350  44.236  14.503
90884W        W61484  31.637  30.376  12.382
90885W        W61485  39.094  13.210   4.725
90886W        W61486  21.382  14.756   1.391
90887W        W61487  20.134  24.103  14.084
90888W        W61488  28.700  17.550   4.203
90889W        W61489   9.823  38.864   4.368
90890W        W61490  11.429  16.564   4.443
90891W        W61491  28.524   8.583  11.958
90892W        W61492  20.641   0.001  12.982
90893W        W61493   9.414  19.550   2.659
90894W        W61494  19.210  38.741  11.825
90895W        W61495  40.913  30.209  12.945
90896W        W61496  23.894   1.937  12.719
90897W        W61497  28.135  10.530  11.950
90898W        W61498   7.626  23.430  12.827
90899W        W61499  30.485  23.218  12.392
90900W        W61500  42.752   4.877  11.755
90901W        W61501  11.715  21.128  11.604
90902W        W61502  42.284  22.882   0.006
90903W        W61503  40.778  39.390  12.490
90904W        W61504   3.067  35.269  13.848
90905W        W61505  39.917  39.761   4.556
90906W        W61506  10.345  38.404  14.901
90907W        W61507  42.040  31.365  14.484
90908W        W61508   2.226   9.669   0.332
90909W        W61509  28.595   0.472   3.869
90910W        W61510  39.626  43.770   3.796
90911W        W61511   1.493   3.745  14.900
90912W        W61512  42.422  35.953   1.665
90913W        W61513   1.284  10.770  10.848
90914W        W61514  38.849  24.508   1.418
90915W        W61515  37.388  22.063   2.564
90916W        W61516  38.397  43.835   4.135
90917W        W61517  27.020  39.104   1.451
90918W        W61518  33.475  13.401  12.456
90919W        W61519   8.777   4.463  14.791
90920W        W61520  25.716  43.821  12.035
90921W        W61521  28.469  17.515   2.153
90922W        W61522  42.779  14.183   3.728
90923W        W61523  43.229  33.446   2.864
90924W        W61524  17.800   6.862   3.197
90925W        W61525   5.241  26.504   2.420
90926W        W61526  36.001  12.366   0.421
90927W        W61527  18.719   9.640  14.979
90928W        W61528  42.414  37.153   0.459
90929W        W61529  16.115  40.047  14.893
90930W        W61530  38.420  18.456  11.077
90931W        W61531  38.134  21.119   0.040
90932W        W61532   9.462  11.162   0.404
90933W        W61533   6.894  17.610  11.081
90934W        W61534  18.666  31.892  13.022
90935W        W61535  14.886  16.145   0.841
90936W        W61536  31.998   3.952   1.856
90937W        W61537   5.188  12.052   4.670
90938W        W61538  13.065  37.985  11.741
90939W        W61539  17.815  29.276   3.696
90940W        W61540  37.765   4.258   2.328
90941W        W61541  18.993  18.671   3.721
90942W        W61542   1.210   4.029  12.900
90943W        W61543  38.468  14.537  12.488
90944W        W61544   2.499  12.818  13.012
90945W        W61545  37.098   8.721   4.029
90946W        W61546   7.238  33.087  13.512
90947W        W61547  31.384  31.556   3.550
90948W        W61548   6.998  36.976  14.056
90949W        W61549  29.070  10.289   4.922
90950W        W61550  21.416  12.949  13.565
90951W        W61551  14.331   0.221   3.292
90952W        W61552  31.154  35.586  10.736
90953W        W61553  31.883  31.510  11.031
90954W        W61554  28.138  19.818   0.091
90955W        W61555   7.896  21.234  14.030
90956W        W61556  23.258   9.846  14.585
90957W        W61557   8.900   0.292  13.756
90958W        W61558  41.031  41.227  14.250
90959W        W61559   4.991   5.869  12.958
90960W        W61560   4.097  28.027  14.263
90961W        W61561  18.136   6.273  12.540
90962W        W61562  14.755   3.786   2.312
90963W        W61563   9.765   2.307  13.998
90964W        W61564   4.315   5.873   0.889
90965W        W61565   8.228   6.744   1.489
90966W        W61566  22.010  26.913   0.469
90967W        W61567   9.140  17.154   2.637
90968W        W61568  29.850  25.436   1.718
90969W        W61569  16.769  34.868   4.014
90970W        W61570  23.325  42.867  13.721
90971W        W61571  37.611  19.701  11.564
90972W        W61572  28.218   4.467   4.246
90973W        W61573  38.474   7.260  12.498
90974W        W61574  25.393  30.050   2.775
90975W        W61575   9.870  21.511   3.814
90976W        W61576  41.480  18.304  12.630
90977W        W61577  30.968  14.699   0.476
90978W        W61578  36.025  23.197   3.906
90979W        W61579  38.126  31.808   1.898
90980W        W61580  39.752  32.394  10.613
90981W        W61581  21.103  16.861   2.267
90982W        W61582  16.342  17.134  11.752
90983W        W61583  36.585  22.984  14.640
90984W        W61584  17.600  22.521   2.766
90985W        W61585   0.938  21.183   1.972
90986W        W61586  27.416  24.338   2.897
90987W        W61587  29.064  22.189   3.578
90988W        W61588  16.121  43.615   5.162
90989W        W61589   9.256  28.654   0.237
90990W        W61590  42.358  19.979  12.609
90991W        W61591  41.251  15.205   1.363
90992W        W61592  19.173  31.493  13.981
90993W        W61593  35.943  20.540   0.346
90994W        W61594  39.687  14.377   1.446
90995W        W61595  38.027  32.547   4.572
90996W        W61596  14.308  28.924  12.436
90997W        W61597  41.517  33.321   4.031
90998W        W61598  10.888  19.841   4.475
90999W        W61599   1.854  36.381   4.158
91000W        W61600  43.518  23.299   1.743
91001W        W61601  32.229  18.886  12.367
91002W        W61602   9.977  22.754  12.769
91003W        W61603  26.565  15.317   0.902
91004W        W61604   1.857  11.724   0.758
91005W        W61605   9.053  20.634   0.084
91006W        W61606  29.699  30.080   2.305
91007W        W61607  34.529   9.108   1.429
91008W        W61608  28.102  15.036   4.138
91009W        W61609  25.523  40.304   1.504
91010W        W61610  12.047   4.375  12.002
91011W        W61611  35.072   4.903   1.812
91012W        W61612  27.739  19.307  11.563
91013W        W61613   4.938   8.887   3.129
91014W        W61614  40.029  13.310  11.057
91015W        W61615  19.718   1.799  12.776
91016W        W61616   1.258  33.403  14.827
91017W        W61617  22.286  25.558   2.245
91018W        W61618  10.117  41.834  10.938
91019W        W61619   2.666  23.594   4.528
91020W        W61620  34.590  25.191   0.833
91021W        W61621  12.148   7.602  11.482
91022W        W61622  35.588  27.590  10.845
91023W        W61623  43.908  12.104  14.004
91024W        W61624  29.408  14.770   0.782
91025W        W61625   7.911  44.099   1.335
91026W        W61626  37.549  24.614  13.915
91027W        W61627   4.080  41.942  11.713
91028W        W61628  33.212   7.313   1.043
91029W        W61629   0.288   8.147  14.432
91030W        W61630  35.281   5.235   3.554
91031W        W61631  30.987  41.354   0.343
91032W        W61632  12.423  10.417   4.023
91033W        W61633  10.727  27.010   3.745
91034W        W61634  21.666   9.926   4.533
91035W        W61635  25.476  29.606   5.044
91036W        W61636  15.254  20.151  12.508
91037W        W61637  39.634  12.686  10.648
91038W        W61638  44.529  37.657  13.572
91039W        W61639  15.264   5.163  12.069
91040W        W61640  44.837   8.915   1.663
91041W        W61641  18.099  30.164   3.757
91042W        W61642  44.161  25.159  11.476
91043W        W61643   0.338  11.192   2.165
91044W        W61644  19.103  28.009  12.914
91045W        W61645  44.338   0.255  12.565
91046W        W61646  10.565  40.515   2.942
91047W        W61647  29.107  20.658   0.743
91048W        W61648  12.382  44.166  10.631
91049W        W61649   8.090  14.756  11.244
91050W        W61650  25.221   6.007  11.064
91051W        W61651  11.278   1.387  11.158
91052W        W61652  27.196   4.753   2.773
91053W        W61653   6.307  37.528   1.513
91054W        W61654  31.135  21.549   3.444
91055W        W61655  21.954   1.256   0.218
91056W        W61656  41.414  17.129  13.471
91057W        W61657  11.265  39.890   1.708
91058W        W61658  42.362  28.543  14.944
91059W        W61659  23.705  19.835  14.374
91060W        W61660  35.377  14.608  10.737
91061W        W61661  41.225  34.875  12.506
91062W        W61662  33.511   2.993  12.930
91063W        W61663  39.423  28.906  11.597
91064W        W61664   4.739  44.506   1.959
91065W        W61665  42.030  44.900  10.694
91066W        W61666  37.108  32.130  11.289
91067W        W61667  39.142  21.127  14.254
91068W        W61668   1.179  32.155   1.574
91069W        W61669  35.426  26.917   1.645
91070W        W61670  16.000  26.429   2.251
91071W        W61671  32.623  33.643  11.610
91072W        W61672  30.540  41.436   3.008
91073W        W61673  28.063  26.393  10.302
91074W        W61674  28.569  27.153   1.774
91075W        W61675  42.917  25.417  10.670
91076W        W61676  30.125  19.703  14.181
91077W        W61677  43.405  11.259   4.593
91078W        W61678  39.424  28.213  11.996
91079W        W61679  11.624  39.818  14.371
91080W        W61680  14.242  44.483  10.668
91081W        W61681  28.388   6.822  14.405
91082W        W61682  41.272  25.130  12.070
91083W        W61683  32.390  25.188   3.800
91084W        W61684  42.843  30.218   1.513
91085W        W61685  26.114  19.299   2.378
91086W        W61686   5.421  20.267   1.694
91087W        W61687  33.746  33.648   4.662
91088W        W61688   2.213  15.062   1.835
91089W        W61689   0.948  19.136  13.054
91090W        W61690  27.011  36.390   2.406
91091W        W61691  16.230   5.763  12.383
91092W        W61692  15.076  25.363   2.745
91093W        W61693  32.551   7.390   3.285
91094W        W61694  31.342  20.532  11.269
91095W        W61695  39.459  36.489   3.077
91096W        W61696  33.438  29.656  12.099
91097W        W61697  19.790  37.110   0.461
91098W        W61698   4.472  24.390   1.988
91099W        W61699  39.483  21.789  12.475
91100W        W61700  18.511   3.799  14.876
91101W        W61701   0.410  36.364  11.502
91102W        W61702  38.038   0.415   2.360
91103W        W61703  44.255  27.895   2.610
91104W        W61704  42.097  13.776   3.172
91105W        W61705  16.835  37.573  11.518
91106W        W61706  22.047  35.123  12.788
91107W        W61707  21.294   6.388   3.011
91108W        W61708  39.520   9.653  14.689
91109W        W61709  25.197   7.877   3.984
91110W        W61710  42.231   6.424   3.264
91111W        W61711  14.813   6.466  14.833
91112W        W61712  32.943  38.772   3.077
91113W        W61713  26.749  19.670   0.429
91114W        W61714  37.436  19.581   1.987
91115W        W61715  19.580  36.117  12.498
91116W        W61716   1.702  28.159   1.273
91117W        W61717  27.363  34.169   1.904
91118W        W61718  24.350  41.846   2.717
91119W        W61719  42.617  16.548  12.504
91120W        W61720  17.231  25.115  13.017
91121W        W61721  36.120  38.020  11.399
91122W        W61722  40.576  35.006   2.303
91123W        W61723  19.697  42.347   0.721
91124W        W61724  22.640   1.961  10.349
91125W        W61725  35.002  41.450  12.433
91126W        W61726  32.105   1.046   3.625
91127W        W61727   8.650  23.814  11.532
91128W        W61728  19.558  10.112  12.083
91129W        W61729  34.416   4.203   4.835
91130W        W61730  31.924  10.722  13.955
91131W        W61731   8.945  37.988   2.857
91132W        W61732  27.699  44.964  12.818
91133W        W61733  35.910   7.802  10.784
91134W        W61734  32.854   8.230   2.159
91135W        W61735  22.132  35.589   3.577
91136W        W61736  34.528  43.342   4.947
91137W        W61737  44.753  39.447   1.318
91138W        W61738  39.564  30.868   3.027
91139W        W61739  26.818  24.059  14.275
91140W        W61740  12.801  18.831  13.419
91141W        W61741  29.522   0.530  13.893
91142W        W61742   4.865   0.856   1.706
91143W        W61743  24.600   0.325   2.315
91144W        W61744  23.198  20.054   0.480
91145W        W61745   1.439  26.978   2.665
91146W        W61746   1.213   6.784   1.830
91147W        W61747  12.180  36.136  13.824
91148W        W61748  41.482   9.372  14.458
91149W        W61749  28.355  24.278  10.995
91150W        W61750  18.217  44.542   0.869
91151W        W61751  14.349  40.653   3.614
91152W        W61752  31.682   7.048  13.310
91153W        W61753  17.904  19.097  13.956
91154W        W61754  42.464  36.667   1.381
91155W        W61755  28.702   3.791   1.811
91156W        W61756  37.392   4.748  10.602
91157W        W61757   6.779  32.347  14.405
91158W        W61758  21.829  22.437   0.476
91159W        W61759  14.596  15.326   4.739
91160W        W61760  32.129   1.319  10.685
91161W        W61761   8.077  30.414   2.718
91162W        W61762  30.191  41.804   2.877
91163W        W61763  42.973  18.349   1.367
91164W        W61764  26.451  10.251   0.814
91165W        W61765  26.315  30.487  10.344
91166W        W61766  17.287  10.850  14.147
91167W        W61767  13.145  13.128  14.511
91168W        W61768  23.716  10.780   1.496
91169W        W61769   0.547  37.221   1.448
91170W        W61770  37.312  24.697  10.195
91171W        W61771  39.038   6.639   0.904
91172W        W61772  12.496   0.884  14.341
91173W        W61773   2.127  42.762  11.507
91174W        W61774  16.617  18.505  14.830
91175W        W61775   1.789  35.015   4.476
91176W        W61776  32.130  21.271  11.140
91177W        W61777  11.122  18.234  11.968
91178W        W61778  36.909  26.739  11.583
91179W        W61779   3.959  35.040  11.538
91180W        W61780  16.026  17.741  13.891
91181W        W61781  12.596  10.859   2.195
91182W        W61782  16.360  12.315  11.553
91183W        W61783  35.179  33.156  11.645
91184W        W61784   2.499  39.363   2.573
91185W        W61785   5.838   8.636  14.418
91186W        W61786  25.003  43.607   0.249
91187W        W61787  25.037  24.983  13.017
91188W        W61788  15.529   4.181   0.689
91189W        W61789  12.092  24.556   1.943
91190W        W61790  35.431  34.840   2.319
91191W        W61791  35.926  38.514  12.623
91192W        W61792  32.982   2.367   0.475
91193W        W61793  43.478  40.883   4.216
91194W        W61794  37.018  42.256  12.232
91195W        W61795  32.177  39.972  13.878
91196W        W61796  26.635  38.729   0.680
91197W        W61797  25.390  40.943  13.460
91198W        W61798  26.142  19.547   3.709
91199W        W61799   4.017  15.711   2.193
91200W        W61800   2.627  20.927   1.233
91201W        W61801   4.731  17.897   1.070
91202W        W61802  30.119  26.924   1.878
91203W        W61803   4.343   6.760   1.442
91204W        W61804   1.655  43.486   2.895
91205W        W61805  17.868  23.873  12.138
91206W        W61806  43.073  30.619   2.825
91207W        W61807  26.882  27.441  12.156
91208W        W61808  22.058  36.591  14.021
91209W        W61809   2.898  11.281   2.340
91210W        W61810  25.734  40.023  10.754
91211W        W61811  12.201  10.521  11.181
91212W        W61812   7.449  26.657  13.913
91213W        W61813  25.732  38.570   2.789
91214W        W61814   1.442  38.378   0.334
91215W        W61815  44.778  34.872  11.531
91216W        W61816  14.095   7.125   2.744
91217W        W61817  39.870  20.003   3.318
91218W        W61818  27.195  12.892  12.027
91219W        W61819  44.668  33.955  11.983
91220W        W61820  26.671   9.631  13.335
91221W        W61821  16.786   8.890  12.981
91222W        W61822  34.448   0.040   3.959
91223W        W61823  31.170  19.889   0.451
91224W        W61824  13.806  28.848  12.189
91225W        W61825   9.198  10.317  14.397
91226W        W61826   7.989   9.823  11.923
91227W        W61827  23.659  24.643  11.968
91228W        W61828  35.635  14.735   2.610
91229W        W61829   0.460  10.841  12.026
91230W        W61830  37.804  37.265   2.389
91231W        W61831  38.028  33.306  13.934
91232W        W61832  21.726  43.140  14.975
91233W        W61833  29.478  31.720  11.280
91234W        W61834  42.508  33.055  14.896
91235W        W61835   1.512  42.712   2.370
91236W        W61836  42.883   9.893   2.914
91237W        W61837  38.950  11.303   4.586
91238W        W61838   2.174   0.590  13.800
91239W        W61839   0.275  37.886  11.570
91240W        W61840   0.727   0.241  11.407
91241W        W61841  32.589  13.629   3.300
91242W        W61842  25.518  16.379   4.156
91243W        W61843  32.465   2.378   1.614
91244W        W61844  41.898  10.073  13.000
91245W        W61845  33.626  21.663  11.401
91246W        W61846  39.218  11.352   5.018
91247W        W61847  42.771  24.702   4.606
91248W        W61848  43.424   3.524   2.578
91249W        W61849   8.645  17.337   2.741
91250W        W61850  16.193  26.450   0.957
91251W        W61851  43.018  41.859   2.361
91252W        W61852  33.018  19.691  10.905
91253W        W61853  18.584  40.401   2.597
91254W        W61854  33.420  32.959   1.549
91255W        W61855  30.491  41.530   4.607
91256W        W61856  31.741   6.343   4.239
91257W        W61857  16.064   6.771  14.860
91258W        W61858  42.815  20.350   1.410
91259W        W61859  44.644   1.436  12.443
91260W        W61860  26.057  42.294  11.641
91261W        W61861  42.815  38.504  14.627
91262W        W61862  30.109   6.953   0.543
91263W        W61863  20.508  43.462   2.437
91264W        W61864  39.301  20.109  11.933
91265W        W61865  37.979  34.539   3.192
91266W        W61866  34.983  35.120   4.283
91267W        W61867  16.078  25.171   1.419
91268W        W61868   3.179  41.813   0.510
91269W        W61869  11.043  14.002   3.781
91270W        W61870  29.518  36.607  14.900
91271W        W61871  34.155  16.796   2.385
91272W        W61872  26.670  12.957  11.932
91273W        W61873  23.791  28.040   1.195
91274W        W61874   9.318  24.701   3.094
91275W        W61875  21.696  39.600   3.190
91276W        W61876  30.419  27.713   2.851
91277W        W61877   8.199  28.052   3.102
91278W        W61878  33.484  25.630  11.424
91279W        W61879  19.746  41.042  12.669
91280W        W61880  17.968   3.308  11.623
91281W        W61881  31.104  43.531   3.181
91282W        W61882  38.479  20.735   2.855
91283W        W61883  36.666  15.508  10.236
91284W        W61884  27.531  24.726   4.413
91285W        W61885  10.741   5.693  12.114
91286W        W61886  25.091  26.605   5.182
91287W        W61887  29.566   2.520  14.928
91288W        W61888  39.530  20.191  11.467
91289W        W61889  24.745   8.727  10.376
91290W        W61890  24.710   6.293  12.837
91291W        W61891   0.433   3.434   1.927
91292W        W61892   3.596  10.372   0.393
91293W        W61893   2.283  27.027   9.868
91294W        W61894  24.682  25.041  14.217
91295W        W61895   5.057  15.155  13.562
91296W        W61896   4.966  27.842   3.357
91297W        W61897  21.115  41.395  12.249
91298W        W61898  19.235  17.632   2.248
91299W        W61899  21.792  28.559  12.738
91300W        W61900  34.966  14.271   4.601
91301W        W61901   8.346  39.074   4.717
91302W        W61902  28.165  24.693  12.617
91303W        W61903  23.904  22.994   0.928
91304W        W61904  20.766  23.449  10.206
91305W        W61905  10.719  44.457   2.582
91306W        W61906  27.394  24.467  12.102
91307W        W61907  37.510  10.375  10.771
91308W        W61908  30.607   6.891   0.736
91309W        W61909  10.819  25.679  12.457
91310W        W61910   0.536  14.283   4.518
91311W        W61911  17.315  10.662   0.198
91312W        W61912  44.423  30.964   2.718
91313W        W61913  33.026   9.811   1.031
91314W        W61914   9.896  16.812  11.584
91315W        W61915  24.076  12.723  11.733
91316W        W61916  43.361   8.728   1.053
91317W        W61917  22.287  15.782   1.848
91318W        W61918  37.079  44.036   3.677
91319W        W61919  16.748  43.354   1.006
91320W        W61920  29.312  20.787  13.895
91321W        W61921  24.593  35.405  12.375
91322W        W61922  20.902  22.905   3.783
91323W        W61923  37.081  27.699  14.969
91324W        W61924   2.897  24.886  11.269
91325W        W61925   0.058  15.109  14.238
91326W        W61926  13.749   4.343   3.562
91327W        W61927  42.971  40.112   2.704
91328W        W61928   6.412  15.100   2.458
91329W        W61929  35.354  30.391   3.396
91330W        W61930  22.789  26.716  10.421
91331W        W61931  11.884  12.253  12.521
91332W        W61932  31.943  39.483  13.778
91333W        W61933   2.979  37.917   0.763
91334W        W61934  40.359  40.538  13.312
91335W        W61935  16.936  33.939   2.784
91336W        W61936  38.048  32.502  14.946
91337W        W61937   1.706  44.833  12.364
91338W        W61938  36.453  43.521   0.765
91339W        W61939  11.423   2.233  10.727
91340W        W61940  37.358  32.223   2.337
91341W        W61941  33.070  28.368  11.907
91342W        W61942  41.490   5.528   4.965
91343W        W61943  17.066  14.096   3.284
91344W        W61944  11.151  38.362  12.960
91345W        W61945   2.873  19.151  14.220
91346W        W61946   2.255  20.275  10.763
91347W        W61947  15.201  23.005   2.799
91348W        W61948  39.183  14.677   0.885
91349W        W61949   9.609   9.329   1.573
91350W        W61950  35.341   5.140  14.933
91351W        W61951  21.296  41.906   2.709
91352W        W61952   2.671  43.295   2.838
91353W        W61953  39.161   5.317  12.586
91354W        W61954   0.466  11.350  11.983
91355W        W61955  10.997  21.463  12.069
91356W        W61956   6.589   9.009   1.286
91357W        W61957  25.215  28.060  11.905
91358W        W61958  36.825  17.175   4.468
91359W        W61959  41.495  34.810  14.568
91360W        W61960  18.099  36.169   4.612
91361W        W61961   1.225  26.218  13.802
91362W        W61962  14.191  23.736   1.434
91363W        W61963   4.727  16.162   3.981
91364W        W61964  16.170  20.278   4.129
91365W        W61965  31.505  12.783  11.943
91366W        W61966   3.974  40.862  14.788
91367W        W61967  10.196  12.723  10.627
91368W        W61968  32.534  32.633  13.943
91369W        W61969  28.374  16.276   4.334
91370W        W61970  18.055  32.565   1.787
91371W        W61971  23.167  31.583   1.391
91372W        W61972  16.099  13.816   2.668
91373W        W61973  21.789  36.449   0.762
91374W        W61974  11.592   1.137   2.299
91375W        W61975  39.828  21.550   0.936
91376W        W61976   2.851   5.499  11.595
91377W        W61977   0.756  39.811   0.809
91378W        W61978  31.109  18.605   0.771
91379W        W61979  22.819  27.667   2.710
91380W        W61980  17.788  32.312  10.519
91381W        W61981   1.873  31.361   0.989
91382W        W61982  39.623  29.500   3.262
91383W        W61983   2.585  32.460   2.187
91384W        W61984  30.113  24.787   0.196
91385W        W61985  18.529  36.504  14.877
91386W        W61986  38.420  23.991  11.174
91387W        W61987  35.410   2.213  13.100
91388W        W61988  13.558  44.840  13.450
91389W        W61989  21.894   8.216   2.284
91390W        W61990  21.294  38.945  13.457
91391W        W61991  11.575   0.510   0.203
91392W        W61992   2.251  35.984  10.713
91393W        W61993   4.976  12.162   0.377
91394W        W61994   9.908  13.196  11.643
91395W        W61995  39.313  19.784  14.847
91396W        W61996  23.147  11.168   4.223
91397W        W61997  29.418  27.092  11.099
91398W        W61998  22.038  30.460  13.020
91399W        W61999   2.853  23.791   4.098
91400W        W62000  23.010  23.172   2.608
91401W        W62001  25.040  10.451   1.176
91402W        W62002  23.787  23.243  13.807
91403W        W62003  44.487  42.304   3.174
91404W        W62004   7.271  38.003  13.971
91405W        W62005   2.492  27.696   1.379
91406W        W62006  39.100  15.321  11.643
91407W        W62007  41.419  21.521  13.466
91408W        W62008  18.655  28.850  13.468
91409W        W62009  18.111  18.351   2.884
91410W        W62010  43.782  13.065  10.789
91411W        W62011  10.799  23.587  12.578
91412W        W62012  43.354  14.430   1.124
91413W        W62013  33.827  18.108  11.136
91414W        W62014   0.943  30.065  13.535
91415W        W62015  17.737  25.020   2.789
91416W        W62016   0.470  26.085   1.108
91417W        W62017   5.361   1.285  12.076
91418W        W62018   8.316  19.658  14.254
91419W        W62019  31.642   4.808   3.851
91420W        W62020  32.426   7.157   1.812
91421W        W62021  34.312  18.255  11.102
91422W        W62022  34.881   0.334  14.749
91423W        W62023  36.032  30.830   3.755
91424W        W62024   8.663  22.418   3.855
91425W        W62025   7.827   8.884  10.730
91426W        W62026  15.484  40.710  11.957
91427W        W62027  29.726   2.281   0.774
91428W        W62028  20.182  38.674   2.704
91429W        W62029   4.685  30.436   1.851
91430W        W62030  28.685  29.178  14.880
91431W        W62031  13.622  11.590   3.630
91432W        W62032  33.343  15.782  10.613
91433W        W62033  28.726  38.518   3.671
91434W        W62034  35.130  17.112  13.506
91435W        W62035  13.736   4.736   1.302
91436W        W62036  18.624  11.509   1.921
91437W        W62037  27.240  43.347  11.662
91438W        W62038  12.842  37.678   4.626
91439W        W62039  39.842   2.564  13.410
91440W        W62040   2.671  41.073  13.062
91441W        W62041  24.575  25.160  12.802
91442W        W62042  23.592   7.831   2.452
91443W        W62043  33.657   1.221  12.506
91444W        W62044  29.998   7.673  13.919
91445W        W62045   5.264   6.409   3.811
91446W        W62046  27.716  37.323  11.785
91447W        W62047   8.696  11.878   3.163
91448W        W62048  30.699  10.236   3.640
91449W        W62049  14.120  44.052   2.842
91450W        W62050  37.557  44.800   0.762
91451W        W62051  22.121   0.928   1.048
91452W        W62052  30.106  23.581  12.473
91453W        W62053  17.215  27.351   0.785
91454W        W62054   4.942  39.458  14.886
91455W        W62055  21.154  38.292  12.897
91456W        W62056  35.382   6.781   1.568
91457W        W62057  38.075  17.472  12.004
91458W        W62058  31.197  17.739   2.931
91459W        W62059  24.596  27.183  12.902
91460W        W62060  25.929   8.452   2.709
91461W        W62061  17.176   9.825   1.647
91462W        W62062  38.950  18.527  10.299
91463W        W62063  38.370  38.884   4.130
91464W        W62064  42.281   1.799   0.830
91465W        W62065  43.016  37.939  10.443
91466W        W62066  39.932  34.925  11.901
91467W        W62067  44.303  38.715  11.380
91468W        W62068   4.162   3.396  12.586
91469W        W62069  37.197  10.158  14.321
91470W        W62070  35.051  14.727   2.724
91471W        W62071   1.838  13.086   1.357
91472W        W62072   3.697   0.340   1.385
91473W        W62073  32.079  15.186  10.733
91474W        W62074  40.963  17.875  13.535
91475W        W62075  34.075   7.614  11.655
91476W        W62076   6.202  40.073   4.485
91477W        W62077   1.288  16.290  12.754
91478W        W62078   3.759  14.868  11.119
91479W        W62079  16.521  13.144   3.420
91480W        W62080   9.251  30.533  11.586
91481W        W62081  23.310   0.552   5.503
91482W        W62082   8.903   0.504  12.628
91483W        W62083   8.366  10.650   3.733
91484W        W62084  23.043  18.554  12.012
91485W        W62085  25.558  28.177   0.208
91486W        W62086   3.219  37.257  11.480
91487W        W62087  23.896  25.995  14.504
91488W        W62088  39.913  25.551   1.307
91489W        W62089  21.647  16.455  11.996
91490W        W62090   2.381  43.746   1.214
91491W        W62091  11.147  31.712   0.341
91492W        W62092  43.329   3.230  11.225
91493W        W62093  33.272  25.238   4.291
91494W        W62094   1.109  11.921   1.320
91495W        W62095   4.836  10.730  10.639
91496W        W62096  30.984   9.080  10.783
91497W        W62097  34.459  40.606   0.654
91498W        W62098  28.258  11.134   2.425
91499W        W62099  10.567   1.469   0.779
91500W        W62100  36.474  40.998   2.992
91501W        W62101   6.709  37.448   2.527
91502W        W62102  13.265  34.927  12.387
91503W        W62103   8.298  28.963  11.179
91504W        W62104  14.570  22.098  14.373
91505W        W62105  37.688  37.555  11.101
91506W        W62106  31.335  10.100   2.768
91507W        W62107  10.306  18.758   4.091
91508W        W62108   7.305  41.832   2.883
91509W        W62109  21.933   0.885   2.928
91510W        W62110  18.277  19.546  13.053
91511W        W62111  11.412  18.740  11.124
91512W        W62112  19.507   5.998  10.576
91513W        W62113   9.670  16.894   4.841
91514W        W62114  36.318  34.106  10.780
91515W        W62115   5.142   6.500  10.816
91516W        W62116  17.793  26.470   0.929
91517W        W62117  20.540  14.260  12.429
91518W        W62118  13.409  29.098   4.592
91519W        W62119  17.075  34.383   3.166
91520W        W62120  22.686  16.058  11.283
91521W        W62121  41.513  16.616   1.382
91522W        W62122  31.617   0.530   4.193
91523W        W62123  34.017  31.073  12.490
91524W        W62124  26.592   8.835   3.428
91525W        W62125  33.296  28.651  10.950
91526W        W62126  20.626   8.128   0.448
91527W        W62127  44.801   6.603  14.241
91528W        W62128  42.441  12.396   3.806
91529W        W62129  19.788  26.656  12.127
91530W        W62130  44.453  31.192  13.823
91531W        W62131  22.029  21.221   4.619
91532W        W62132  33.283  27.615   2.270
91533W        W62133  22.671   3.246  12.146
91534W        W62134  36.398  33.360  11.072
91535W        W62135  25.269  25.681   4.148
91536W        W62136  28.216  30.697   0.415
91537W        W62137  35.170   3.896  13.341
91538W        W62138  38.566  40.880  14.210
91539W        W62139  32.604  22.624   4.598
91540W        W62140   2.935  25.695   2.809
91541W        W62141  21.138  16.136  11.137
91542W        W62142   7.205  14.592   2.650
91543W        W62143  44.211  43.006  10.676
91544W        W62144  32.564  33.053   0.360
91545W        W62145  17.793  43.125   2.245
91546W        W62146  28.722   2.740   3.899
91547W        W62147   5.589   1.192  11.614
91548W        W62148   7.740  18.241  14.549
91549W        W62149  32.514   0.704   0.318
91550W        W62150  42.287  23.467  11.090
91551W        W62151  13.127  11.971   0.410
91552W        W62152  22.901  15.691  12.558
91553W        W62153  21.107   9.207  14.104
91554W        W62154  42.308  34.824   2.608
91555W        W62155  25.518  38.629   3.716
91556W        W62156  44.001  37.555   3.520
91557W        W62157  42.556  38.698  11.426
91558W        W62158  22.682  25.544  13.325
91559W        W62159  23.230  39.440   0.992
91560W        W62160   0.325  12.274   4.320
91561W        W62161   0.598  15.154  14.804
91562W        W62162  38.366  27.245   4.934
91563W        W62163  19.192  23.279  10.607
91564W        W62164  22.595  39.411   1.406
91565W        W62165  44.524  18.326  13.064
91566W        W62166  19.024  17.212  12.052
91567W        W62167   0.288  38.895   1.806
91568W        W62168  13.256  36.460  12.028
91569W        W62169  26.022  16.183  13.340
91570W        W62170  15.215  24.974  14.606
91571W        W62171   7.092  12.620   0.350
91572W        W62172  26.180  32.606  11.626
91573W        W62173  22.648   5.583   5.150
91574W        W62174  12.802  37.532  10.587
91575W        W62175  14.408   5.646  10.465
91576W        W62176  15.600  25.662  13.151
91577W        W62177  10.714  44.317  10.325
91578W        W62178  10.385   6.711  12.865
91579W        W62179  35.950  20.941   1.402
91580W        W62180  40.329  37.522  11.499
91581W        W62181   0.323  33.433  10.352
91582W        W62182   9.738  31.202  11.029
91583W        W62183  13.759  28.643  13.298
91584W        W62184  15.677  24.053  12.094
91585W        W62185   6.128  34.167   1.926
91586W        W62186  16.094  11.866   0.472
91587W        W62187   3.967  12.952  14.970
91588W        W62188  41.935  18.056  12.612
91589W        W62189  13.510  31.095   3.604
91590W        W62190  29.923  22.781  14.854
91591W        W62191  14.085  34.821   1.333
91592W        W62192  41.933  39.427   4.507
91593W        W62193  15.160   9.445  14.943
91594W        W62194   0.361   9.364   2.294
91595W        W62195  38.569  29.285   2.128
91596W        W62196  27.515  36.377   3.399
91597W        W62197  17.546  36.374   3.058
91598W        W62198  29.895  23.702   0.707
91599W        W62199  26.418  20.462  11.501
91600W        W62200  26.365  34.003   2.092
91601W        W62201  28.575  10.706   2.348
91602W        W62202  23.031  28.298   0.579
91603W        W62203   7.617   8.002   2.750
91604W        W62204  13.379  18.376  11.580
91605W        W62205  14.866  25.560   4.409
91606W        W62206  25.054  36.118  14.693
91607W        W62207   0.906   5.464  11.280
91608W        W62208  43.541  25.480   1.343
91609W        W62209  34.091  15.108  11.573
91610W        W62210  37.046  19.633  10.642
91611W        W62211  24.658  37.215  11.037
91612W        W62212   5.160   0.795  12.896
91613W        W62213  25.700  27.853   2.697
91614W        W62214  19.228  30.391   4.352
91615W        W62215  31.418  23.537  13.734
91616W        W62216  18.373  22.790   0.320
91617W        W62217  24.059  12.147  13.170
91618W        W62218  28.972  35.562  14.404
91619W        W62219  30.053  20.689   2.623
91620W        W62220  10.747   7.362   3.252
91621W        W62221  41.905  14.602   0.279
91622W        W62222  42.430  27.505  14.888
91623W        W62223  17.118  38.951  13.114
91624W        W62224  31.114  35.607   2.235
91625W        W62225  29.143  10.371   3.217
91626W        W62226  20.712  39.960   4.090
91627W        W62227  31.936  44.859   1.683
91628W        W62228   5.605  28.961   3.677
91629W        W62229   3.195   0.240  10.755
91630W        W62230   6.682   9.663  13.994
91631W        W62231  41.642  23.560  12.344
91632W        W62232   9.671   1.836   0.851
91633W        W62233   7.484  32.980  14.585
91634W        W62234  15.753  10.487  12.348
91635W        W62235  35.614   5.828  10.607
91636W        W62236  19.022  15.485  13.336
91637W        W62237   9.459  29.627  14.853
91638W        W62238  27.412  31.336  12.498
91639W        W62239  37.061   5.287  11.587
91640W        W62240   1.504   8.735   4.994
91641W        W62241  41.262  30.174  12.552
91642W        W62242  12.937  25.960   4.749
91643W        W62243  14.246  13.316  14.532
91644W        W62244  42.785  22.768   1.276
91645W        W62245  16.492  33.888   0.302
91646W        W62246  23.317  31.177   2.299
91647W        W62247  25.440  19.151   1.364
91648W        W62248  28.017  18.933  10.664
91649W        W62249  29.059   4.845  10.640
91650W        W62250   9.702   5.139   3.605
91651W        W62251   9.656  13.586  13.252
91652W        W62252  17.696   5.525  10.397
91653W        W62253  41.548  37.529  14.989
91654W        W62254  42.323  36.943   2.824
91655W        W62255  10.137  17.632  12.464
91656W        W62256  16.205  11.308  13.912
91657W        W62257  17.186  32.877  14.859
91658W        W62258  18.692  41.964   0.162
91659W        W62259  23.865  12.843   3.576
91660W        W62260  26.453  41.998  11.518
91661W        W62261  13.862  29.648  12.923
91662W        W62262  24.625   6.488  13.861
91663W        W62263  27.559  31.904  11.690
91664W        W62264   8.554  38.023   2.281
91665W        W62265   9.495  19.129  12.845
91666W        W62266  30.956   7.093  13.925
91667W        W62267  35.206   4.871  10.162
91668W        W62268  36.475  35.905  11.160
91669W        W62269   2.182  33.586   2.324
91670W        W62270  12.002  27.394  11.130
91671W        W62271   8.825  27.539   4.673
91672W        W62272  43.527  28.623  12.028
91673W        W62273  20.321  33.109   4.177
91674W        W62274  38.081  12.040  12.786
91675W        W62275  34.541   1.751  10.420
91676W        W62276  39.585  15.056   0.087
91677W        W62277  34.115   5.933   1.694
91678W        W62278  10.945  35.783   3.659
91679W        W62279  22.392   5.412  13.860
91680W        W62280   9.999  24.073   0.827
91681W        W62281   3.234   9.978  11.416
91682W        W62282  20.140   9.679  12.435
91683W        W62283  37.645  22.489   4.679
91684W        W62284  42.251  14.986   2.110
91685W        W62285   0.888  32.551   0.713
91686W        W62286   6.190  18.368   4.556
91687W        W62287  20.192  11.918  12.728
91688W        W62288   3.076  29.920  13.396
91689W        W62289   5.202  27.016   4.642
91690W        W62290  29.360  16.311  13.933
91691W        W62291  13.769   1.550  10.240
91692W        W62292  18.635  14.527  12.736
91693W        W62293  28.985  20.689   4.313
91694W        W62294  12.718  38.781   2.501
91695W        W62295  11.193  26.972  11.596
91696W        W62296  15.847  23.637  11.261
91697W        W62297  23.066  13.098   3.927
91698W        W62298  26.069   7.377  10.832
91699W        W62299  41.293  20.417   0.476
91700W        W62300   5.452  35.432   3.699
91701W        W62301   1.876  24.402   2.294
91702W        W62302  26.947  28.544   2.341
91703W        W62303  25.065  23.627   3.218
91704W        W62304  37.572  35.511   2.406
91705W        W62305  10.283  27.031  13.514
91706W        W62306  33.897   7.771  10.650
91707W        W62307  43.553   9.778  14.044
91708W        W62308   1.712  21.660   2.214
91709W        W62309  36.929   7.246   0.180
91710W        W62310  21.037  34.972  12.833
91711W        W62311   1.937  42.243  12.812
91712W        W62312   6.537  27.205   4.575
91713W        W62313   3.468   1.234  10.650
91714W        W62314   0.968  37.404   2.237
91715W        W62315  25.572  10.372   3.568
91716W        W62316  33.025  41.792  13.514
91717W        W62317  18.692  19.538   3.249
91718W        W62318  14.672  35.074   0.278
91719W        W62319   2.283  13.360   1.184
91720W        W62320  14.217   0.972   2.196
91721W        W62321  18.802  16.045   0.261
91722W        W62322  13.330  39.261  12.182
91723W        W62323  27.144   9.138   0.244
91724W        W62324  25.146  21.605  11.510
91725W        W62325  30.986  41.684   4.707
91726W        W62326  41.389  12.632  13.004
91727W        W62327  32.440  40.678   2.737
91728W        W62328  26.170  28.983   1.791
91729W        W62329   8.185   5.633  14.520
91730W        W62330  38.537  17.079  12.469
91731W        W62331  25.294  20.564   1.387
91732W        W62332   8.714  34.107  11.031
91733W        W62333  15.045  11.794   1.240
91734W        W62334  32.036  34.939   3.513
91735W        W62335  33.407  33.301   2.682
91736W        W62336   3.229  25.574  11.973
91737W        W62337  43.341  35.752  13.031
91738W        W62338  32.598  30.267  13.987
91739W        W62339  29.571   4.342  14.742
91740W        W62340  27.539   1.547  10.761
91741W        W62341  17.981  10.874   2.282
91742W        W62342  24.231  35.083   0.542
91743W        W62343  31.172  38.813   0.796
91744W        W62344   4.544  29.390   4.847
91745W        W62345  33.018  39.840  14.428
91746W        W62346  26.527   4.696  13.898
91747W        W62347  43.725  14.604  10.742
91748W        W62348  23.659   1.189  11.865
91749W        W62349  11.276  22.603   0.055
91750W        W62350  18.244  27.674  11.615
91751W        W62351  21.211  12.684   1.844
91752W        W62352  28.612  17.127  13.501
91753W        W62353  14.273  20.062   3.330
91754W        W62354  38.498   0.446   3.768
91755W        W62355  23.695  44.866  13.158
91756W        W62356  36.561  14.871   2.572
91757W        W62357   6.326  31.202   4.274
91758W        W62358  25.032  11.939  13.934
91759W        W62359  24.177   1.177   4.138
91760W        W62360   3.444  27.385  14.175
91761W        W62361   6.477  31.625  11.628
91762W        W62362   5.819   3.204  14.432
91763W        W62363  29.411  21.969  13.460
91764W        W62364  34.105  44.043  12.858
91765W        W62365  20.278  25.567  11.622
91766W        W62366  28.685  42.798   4.160
91767W        W62367  40.829   3.744   3.781
91768W        W62368  30.127  20.349   1.252
91769W        W62369   6.902  32.468  11.219
91770W        W62370   5.881  43.051   1.950
91771W        W62371   5.020   8.620  11.320
91772W        W62372  36.081  12.156  14.896
91773W        W62373  17.811  11.872  14.742
91774W        W62374  17.813  21.718   2.275
91775W        W62375  36.045  23.882   3.643
91776W        W62376  19.033   1.798  10.922
91777W        W62377  27.480   2.028  13.100
91778W        W62378  29.185  17.634  12.828
91779W        W62379  21.069  19.064  13.891
91780W        W62380  23.074   4.271  13.505
91781W        W62381   2.563  13.770  11.157
91782W        W62382  30.178  10.253   3.697
91783W        W62383  11.125  22.515   3.215
91784W        W62384  11.238  30.476  11.012
91785W        W62385  24.649  20.765   3.544
91786W        W62386  21.211   2.794   0.786
91787W        W62387   7.471  20.946  13.831
91788W        W62388  20.515  39.420  12.557
91789W        W62389  42.728   5.333   1.620
91790W        W62390  19.981   7.683  10.743
91791W        W62391  25.681  29.985  13.354
91792W        W62392  31.398   2.813  10.601
91793W        W62393  34.192  36.360   0.033
91794W        W62394  16.103  38.989   4.788
91795W        W62395  17.283  27.724  14.745
91796W        W62396  25.056  22.318   4.921
91797W        W62397   3.307  33.133   3.486
91798W        W62398  36.238  42.453   4.326
91799W        W62399  18.725  29.149   2.591
91800W        W62400  28.861  34.217  13.113
91801W        W62401  28.215   8.423   1.496
91802W        W62402  15.609  17.731   0.676
91803W        W62403   8.770  41.284  12.017
91804W        W62404   8.269  13.397  10.956
91805W        W62405  40.951  20.073  12.998
91806W        W62406  37.821  40.259   4.043
91807W        W62407   9.349  23.611   1.210
91808W        W62408  29.404   7.243   1.939
91809W        W62409  35.147  30.850  10.514
91810W        W62410  43.276  32.361  12.402
91811W        W62411  31.705  39.313  14.218
91812W        W62412  44.693  25.175  11.428
91813W        W62413  18.746  25.171   9.848
91814W        W62414   3.259  31.396   4.640
91815W        W62415  42.447  17.931  14.655
91816W        W62416  12.056  30.046   2.006
91817W        W62417  21.716  35.932  13.974
91818W        W62418  35.379  32.257  12.928
91819W        W62419  39.097  34.666   0.730
91820W        W62420  25.190  31.138  12.489
91821W        W62421  16.798  17.814  11.957
91822W        W62422   2.827   8.557  14.085
91823W        W62423   6.736  14.371  13.294
91824W        W62424  41.528  30.963   1.199
91825W        W62425  14.804  27.055   4.305
91826W        W62426  44.298  26.171   3.299
91827W        W62427  40.499  32.212  14.900
91828W        W62428  36.481  26.743  11.259
91829W        W62429  25.670  28.527   3.520
91830W        W62430  24.964  16.522  14.002
91831W        W62431  19.923   2.094   1.300
91832W        W62432  29.860  34.974  13.472
91833W        W62433  42.702  25.689  12.858
91834W        W62434  10.151  34.021  10.018
91835W        W62435  21.275   0.388   3.547
91836W        W62436  33.471  26.351   2.234
91837W        W62437  16.584  16.693  12.618
91838W        W62438  26.261   0.197   4.110
91839W        W62439  16.057  15.703  14.549
91840W        W62440  32.572   1.611  12.381
91841W        W62441  24.478   0.507   1.177
91842W        W62442   5.920  20.781  11.589
91843W        W62443  15.011  28.081  13.391
91844W        W62444  34.875  28.925  13.923
91845W        W62445   3.917  29.198  10.500
91846W        W62446  15.372  42.383  12.623
91847W        W62447  30.418  22.234   1.362
91848W        W62448  37.590   7.217  12.957
91849W        W62449  25.400  23.690   1.244
91850W        W62450  19.364  18.145   4.569
91851W        W62451  28.995  32.497  14.311
91852W        W62452  29.972   8.325   2.781
91853W        W62453  36.268  19.005  13.067
91854W        W62454  43.488  28.161   3.268
91855W        W62455  24.582   1.180  13.106
91856W        W62456  44.901  39.760  12.826
91857W        W62457  24.456  16.606  13.859
91858W        W62458  34.443  43.831  14.477
91859W        W62459  33.954  39.101  12.048
91860W        W62460  38.187  23.012   1.496
91861W        W62461   9.099  27.712   3.995
91862W        W62462  41.758  13.683  13.321
91863W        W62463  19.277  14.627   2.724
91864W        W62464  10.286  44.885   1.299
91865W        W62465  17.453   0.235   3.830
91866W        W62466  12.865   0.245   2.299
91867W        W62467   2.953  12.586   4.741
91868W        W62468  21.477  14.889   3.216
91869W        W62469  21.118  25.819  13.846
91870W        W62470  44.142   9.957   1.704
91871W        W62471  37.019  37.451  11.503
91872W        W62472  25.977  30.927   2.662
91873W        W62473  21.965  36.294  11.194
91874W        W62474  27.955  43.537   4.297
91875W        W62475  29.465   6.204  14.562
91876W        W62476  13.234   9.082   4.616
91877W        W62477  31.850  23.607   3.276
91878W        W62478  18.784   7.683  12.546
91879W        W62479   3.224   7.228   3.382
91880W        W62480  32.192  41.819   4.894
91881W        W62481   5.296   9.199   4.757
91882W        W62482  39.319   0.871  11.533
91883W        W62483   2.506  38.292   1.188
91884W        W62484   7.381   2.016  12.443
91885W        W62485   0.822  18.091  14.297
91886W        W62486  30.532   0.905  10.840
91887W        W62487  33.976  29.431  14.641
91888W        W62488  11.168  34.354  14.432
91889W        W62489  19.959  30.994  13.668
91890W        W62490  10.280  37.312   0.438
91891W        W62491  16.303   7.849   1.690
91892W        W62492  13.852  24.658   1.445
91893W        W62493  43.480   6.209  13.321
91894W        W62494   1.552  27.066   0.746
91895W        W62495  16.586  18.955   2.562
91896W        W62496  21.750  43.976   0.393
91897W        W62497   9.611   6.940   3.121
91898W        W62498  18.142  25.747  11.495
91899W        W62499  43.393   5.690   3.547
91900W        W62500  41.512  37.305   1.838
91901W        W62501  38.465  40.875   1.015
91902W        W62502  29.546  37.742   0.815
91903W        W62503  34.368   3.195   4.530
91904W        W62504  17.252   0.668   3.657
91905W        W62505   3.414   0.558  13.152
91906W        W62506  43.882  23.478  13.392
91907W        W62507  21.951  32.483  12.964
91908W        W62508  22.157   5.603   4.925
91909W        W62509   8.776  14.311  13.633
91910W        W62510  30.427   3.387   2.724
91911W        W62511  39.955  36.405   1.914
91912W        W62512  43.657   5.928   1.167
91913W        W62513  20.207  27.887  14.459
91914W        W62514  26.077   5.817   3.651
91915W        W62515  13.742   1.446   1.753
91916W        W62516  35.392  18.514  12.057
91917W        W62517  18.292  34.200  12.134
91918W        W62518   5.942  34.405  10.133
91919W        W62519  35.934   6.619  13.346
91920W        W62520  20.318  33.653  14.443
91921W        W62521  30.931  19.155  14.433
91922W        W62522  40.364   0.559  10.688
91923W        W62523  32.496  20.639   2.367
91924W        W62524  10.173  12.917  14.436
91925W        W62525  15.859   4.852  13.411
91926W        W62526  11.107  38.024  11.101
91927W        W62527  26.156  21.717   2.392
91928W        W62528  12.207   5.656  12.792
91929W        W62529  22.180  15.831   4.149
91930W        W62530  20.236  18.505   4.542
91931W        W62531  16.032  25.907   4.970
91932W        W62532  35.754  42.961  14.576
91933W        W62533  19.657  40.716  13.532
91934W        W62534  31.508   1.959  12.024
91935W        W62535  16.184  32.418  11.609
91936W        W62536  17.575  20.770  12.958
91937W        W62537  15.716  20.319  13.455
91938W        W62538   2.743  15.602   1.777
91939W        W62539   6.613  38.915  12.492
91940W        W62540  37.847   3.472  12.436
91941W        W62541  42.514  18.920  13.694
91942W        W62542   3.390  21.677  12.632
91943W        W62543  15.504  29.102   4.322
91944W        W62544  23.486  33.408  14.845
91945W        W62545  25.535   9.945   5.059
91946W        W62546  35.560  30.542   0.806
91947W        W62547  32.158  26.748  11.942
91948W        W62548  26.099  34.941   0.295
91949W        W62549  10.362  24.592   4.117
91950W        W62550  41.538  41.348   3.530
91951W        W62551  11.346  30.698  10.578
91952W        W62552  35.012  36.974  13.596
91953W        W62553  37.118  17.356   0.453
91954W        W62554  33.196  36.937   2.878
91955W        W62555   7.241   6.666   2.629
91956W        W62556  28.517   7.804  10.516
91957W        W62557   0.301   9.280  10.687
91958W        W62558  33.367   4.403   2.774
91959W        W62559   8.316   5.644  11.079
91960W        W62560  23.758  17.557  11.753
91961W        W62561   5.508  37.026   0.462
91962W        W62562  24.612  37.286  13.446
91963W        W62563   0.234  18.654   0.748
91964W        W62564  32.323   1.507   0.030
91965W        W62565   5.133  22.615   1.869
91966W        W62566  42.104   5.447   2.695
91967W        W62567   1.227  12.078   3.381
91968W        W62568   2.414  40.049   4.206
91969W        W62569  13.727  41.372  14.799
91970W        W62570  19.274  15.008  12.106
91971W        W62571  10.311   6.209  14.069
91972W        W62572  23.092  29.042   3.771
91973W        W62573   2.331  32.391   2.667
91974W        W62574   5.401  37.507   0.676
91975W        W62575  10.155  37.386  13.746
91976W        W62576  17.767  27.423  11.711
91977W        W62577   9.210  23.187  11.495
91978W        W62578  27.123  20.249   2.351
91979W        W62579  24.307  42.421  13.750
91980W        W62580  41.952  26.196  14.832
91981W        W62581  40.636  40.772  11.951
91982W        W62582  33.031  15.856   2.570
91983W        W62583  11.771  32.120   3.745
91984W        W62584  16.276  13.096  13.313
91985W        W62585  17.810  27.755  10.467
91986W        W62586  39.098  21.097   0.292
91987W        W62587  37.817  17.249  12.907
91988W        W62588  34.671  31.431  11.167
91989W        W62589  44.759   5.905  11.118
91990W        W62590  44.758   6.276   3.791
91991W        W62591  43.270  20.531   1.206
91992W        W62592  36.391  13.171   1.326
91993W        W62593  24.952  19.529   1.825
91994W        W62594   4.974  24.199   3.633
91995W        W62595  21.994  24.992  12.439
91996W        W62596  31.894  33.961  12.671
91997W        W62597  15.169  36.338   4.483
91998W        W62598  44.407  14.230  13.496
91999W        W62599  10.814  27.475  10.746
92000W        W62600  37.111  16.551  10.715
92001W        W62601   3.522  28.951  13.459
92002W        W62602  15.942   5.792  14.300
92003W        W62603  34.966  42.292   0.884
92004W        W62604   5.611  21.231  11.713
92005W        W62605  34.049  13.614  14.968
92006W        W62606   4.713  44.930   0.700
92007W        W62607  43.661  15.863   2.773
92008W        W62608  15.065   3.354   2.160
92009W        W62609  36.135  34.159  14.646
92010W        W62610  14.092  41.968  12.496
92011W        W62611   1.378  12.850   2.204
92012W        W62612  41.250  42.865  10.972
92013W        W62613   1.899   4.888   2.222
92014W        W62614  31.416   6.072  11.708
92015W        W62615   7.834  41.512  11.950
92016W        W62616   3.611   3.648  13.025
92017W        W62617  40.035   4.789  11.928
92018W        W62618  25.369  19.634  13.385
92019W        W62619  37.124  41.748   1.380
92020W        W62620  21.754  37.656   3.342
92021W        W62621  32.971  19.861  14.251
92022W        W62622  37.859  35.767   4.582
92023W        W62623   3.284  32.732   5.038
92024W        W62624   7.056  20.801   3.614
92025W        W62625   8.340  21.799   0.848
92026W        W62626  33.974  20.224   0.069
92027W        W62627  25.654  10.293   0.360
92028W        W62628  11.367  44.660  14.903
92029W        W62629   8.562   9.962  11.805
92030W        W62630  25.246   8.641  11.795
92031W        W62631  12.330  38.313  13.264
92032W        W62632  15.098   2.187   1.932
92033W        W62633  44.782  16.170  12.889
92034W        W62634  44.444  15.681  14.531
92035W        W62635  12.339  21.500   2.256
92036W        W62636  19.474  10.846  10.904
92037W        W62637  15.543  20.130  11.082
92038W        W62638  31.167  38.901   4.437
92039W        W62639   8.672  26.298  13.599
92040W        W62640  13.049  37.514  13.954
92041W        W62641  11.823  40.325   0.202
92042W        W62642  38.528  42.019   4.215
92043W        W62643  24.947  10.643  12.536
92044W        W62644  27.169   9.776  10.671
92045W        W62645  25.185   3.755  14.854
92046W        W62646  31.512  37.386   0.880
92047W        W62647  31.384  27.019  14.050
92048W        W62648  21.660  11.293   3.356
92049W        W62649  16.540  14.003   3.254
92050W        W62650  18.811  26.993  14.481
92051W        W62651  27.176  43.005  14.301
92052W        W62652  25.784  18.608  10.918
92053W        W62653   7.809   6.004   3.210
92054W        W62654  26.272  38.029   3.289
92055W        W62655  16.044   0.496  11.678
92056W        W62656  22.520  37.023   0.928
92057W        W62657  19.167  31.386  11.494
92058W        W62658   6.953  39.374  11.969
92059W        W62659  29.555  10.190   0.289
92060W        W62660  32.339  32.347   1.693
92061W        W62661  43.058   9.718  14.490
92062W        W62662   1.641  27.528   0.520
92063W        W62663  22.216  41.764   1.837
92064W        W62664  18.447  28.537  11.131
92065W        W62665  38.401  17.371   0.684
92066W        W62666  16.417  32.884  11.554
92067W        W62667  33.006  39.109  11.623
92068W        W62668   6.454  40.493   2.608
92069W        W62669  38.861  17.486  12.566
92070W        W62670  14.247  17.975   1.845
92071W        W62671  24.040   4.352   3.678
92072W        W62672  39.319   5.293  11.649
92073W        W62673  27.592  34.607  13.839
92074W        W62674  15.679  34.825   0.945
92075W        W62675   3.460  37.374   0.276
92076W        W62676  11.648  14.640   1.802
92077W        W62677  23.469  27.694  13.513
92078W        W62678  18.794  30.621   5.190
92079W        W62679  30.043   7.915  13.447
92080W        W62680   7.456  16.093  14.843
92081W        W62681  21.644  39.356   0.672
92082W        W62682  16.298   7.320   3.357
92083W        W62683  41.337  40.316   2.642
92084W        W62684  43.756  32.353   3.971
92085W        W62685  11.914  35.025  12.442
92086W        W62686  11.302   7.924   3.559
92087W        W62687  16.992  34.434  12.373
92088W        W62688   1.124   8.107  12.436
92089W        W62689   9.781  10.931  13.902
92090W        W62690  21.201  29.680   3.480
92091W        W62691  10.378  23.029  12.911
92092W        W62692   2.773  24.648  13.276
92093W        W62693  27.895  42.409   1.339
92094W        W62694  30.939  40.951   0.692
92095W        W62695  30.890  16.826   2.170
92096W        W62696  26.904  30.598  10.505
92097W        W62697  42.725   4.975   0.373
92098W        W62698  31.599  14.672  11.964
92099W        W62699  14.119  35.049   5.018
92100W        W62700   2.291   5.734  14.015
92101W        W62701  43.317  35.922  10.719
92102W        W62702  14.351  24.670  14.891
92103W        W62703   9.877  10.889  14.833
92104W        W62704   3.956  12.054  11.166
92105W        W62705  18.567   1.795   3.490
92106W        W62706  36.308   6.845   2.926
92107W        W62707  30.585  22.612  10.990
92108W        W62708  38.378  29.149  13.614
92109W        W62709  12.645  31.200   2.199
92110W        W62710  41.543  43.055   3.322
92111W        W62711  25.882  21.595   4.391
92112W        W62712  36.526  21.012   4.453
92113W        W62713  24.274   9.811  12.614
92114W        W62714   1.880  37.050  11.947
92115W        W62715  41.071  16.656   4.119
92116W        W62716   1.486  12.129  13.526
92117W        W62717  38.421   9.321   2.860
92118W        W62718  21.778  16.932  12.129
92119W        W62719  32.828  43.158   4.381
92120W        W62720  32.847  38.596   3.584
92121W        W62721  31.605  18.556  12.893
92122W        W62722  12.134  18.805  13.054
92123W        W62723  42.260  30.913   1.631
92124W        W62724   6.318  31.391  11.142
92125W        W62725  22.160  16.447   2.266
92126W        W62726  42.050   6.472   0.453
92127W        W62727  38.054  33.766   1.927
92128W        W62728  32.164  39.321   2.600
92129W        W62729  44.796  17.743   4.894
92130W        W62730  41.311  30.667  14.345
92131W        W62731   8.824  18.069  11.803
92132W        W62732   7.341  42.901  13.302
92133W        W62733  15.137   3.775   3.637
92134W        W62734  38.820  11.906   1.307
92135W        W62735  11.344  31.204  10.643
92136W        W62736  17.527  32.398  11.013
92137W        W62737  26.603   5.764  13.777
92138W        W62738  37.851  33.897  12.468
92139W        W62739  13.475  16.132   3.521
92140W        W62740  10.709  24.910   2.337
92141W        W62741  29.663  24.614   2.717
92142W        W62742  38.606  13.891   2.017
92143W        W62743   6.748  37.024   1.319
92144W        W62744  16.302  39.959  11.453
92145W        W62745  38.078   2.987   2.651
92146W        W62746   0.506  39.590   2.909
92147W        W62747  28.437  41.875   4.655
92148W        W62748  11.596  12.692  11.817
92149W        W62749  13.219   2.791  10.426
92150W        W62750  12.062  14.293  10.438
92151W        W62751  27.625   6.232  14.608
92152W        W62752  30.895   5.414   2.829
92153W        W62753  27.229  24.486   4.099
92154W        W62754  23.686  14.581  13.930
92155W        W62755  20.063  12.225  14.376
92156W        W62756  18.243   8.246   3.171
92157W        W62757   1.465  26.617  12.907
92158W        W62758  39.561   4.879   2.644
92159W        W62759   4.982  35.976  12.628
92160W        W62760  16.610  22.707  13.983
92161W        W62761  11.115  33.454  14.393
92162W        W62762  35.044  21.177   1.828
92163W        W62763   4.856  41.418  12.571
92164W        W62764  27.707  12.361  13.553
92165W        W62765  29.941  18.482  13.546
92166W        W62766   9.747   1.772   1.746
92167W        W62767  15.236  24.497   0.037
92168W        W62768  17.884   7.466   4.158
92169W        W62769  37.817  28.460  12.409
92170W        W62770   9.589  33.090   0.034
92171W        W62771  20.624   9.109   3.144
92172W        W62772   0.374  11.785  14.904
92173W        W62773  37.867   5.727   4.238
92174W        W62774  42.429  41.539  10.791
92175W        W62775  24.180  36.548  12.516
92176W        W62776   4.710  31.975   2.703
92177W        W62777  23.422  25.512  10.835
92178W        W62778   5.434  15.506   1.813
92179W        W62779  23.057   2.989  12.720
92180W        W62780  29.438   2.352   4.416
92181W        W62781  32.527  32.860   0.822
92182W        W62782  37.554   1.717   3.850
92183W        W62783  40.443  17.470   4.353
92184W        W62784  32.085  38.923   2.936
92185W        W62785   8.766  35.959  10.663
92186W        W62786  13.184  10.703  12.570
92187W        W62787   4.512   0.429  12.300
92188W        W62788   5.355  19.895   2.063
92189W        W62789  12.576  19.114  12.993
92190W        W62790  16.770   8.239  10.647
92191W        W62791   0.988  44.308  11.200
92192W        W62792  44.449   9.874  10.752
92193W        W62793  24.412  15.253  13.924
92194W        W62794  22.551  42.525   0.301
92195W        W62795  20.432  12.174   1.914
92196W        W62796   6.186  12.642  12.055
92197W        W62797  12.435   3.287   4.026
92198W        W62798  34.515  15.526  13.957
92199W        W62799  17.277  33.452   0.791
92200W        W62800  12.582  27.134   4.179
92201W        W62801  14.544  38.776  11.072
92202W        W62802  18.015   6.884  11.790
92203W        W62803  42.512  10.075   3.246
92204W        W62804  21.615  35.599  12.744
92205W        W62805  10.333  25.494  11.605
92206W        W62806  12.943  11.136  12.444
92207W        W62807  44.873  18.500   4.175
92208W        W62808  34.037  37.322  14.819
92209W        W62809  34.889  28.550   3.183
92210W        W62810   6.329   2.534   0.390
92211W        W62811   4.638  21.099   1.294
92212W        W62812  14.822  28.914   3.492
92213W        W62813  40.311  25.512  13.598
92214W        W62814  17.511  14.126   2.321
92215W        W62815  28.134  31.407   1.649
92216W        W62816  27.009  10.308   3.578
92217W        W62817  34.820  36.403   2.308
92218W        W62818  16.082   8.388  13.729
92219W        W62819   3.740  11.660  14.137
92220W        W62820  30.964  15.574  13.588
92221W        W62821  18.993  17.872  13.041
92222W        W62822  36.868  26.218  11.506
92223W        W62823  23.491  17.632  10.867
92224W        W62824  44.827  38.701  11.608
92225W        W62825  35.427  21.579   0.898
92226W        W62826  32.018   0.859   3.146
92227W        W62827  23.530   0.326  11.809
92228W        W62828  17.800  35.194   0.768
92229W        W62829  20.955  40.159  14.208
92230W        W62830  38.075   5.478  13.630
92231W        W62831  16.367  41.237   3.219
92232W        W62832   6.211  36.767  10.277
92233W        W62833  22.974  38.821  10.944
92234W        W62834   5.589  42.513  14.779
92235W        W62835  16.473  28.481  14.714
92236W        W62836   6.930   7.201   3.808
92237W        W62837  31.932  34.652   1.809
92238W        W62838  38.898  36.409  13.174
92239W        W62839  35.057  42.810   0.894
92240W        W62840  16.228  18.567   0.860
92241W        W62841  15.100   2.585  12.596
92242W        W62842  44.090   1.236  11.074
92243W        W62843  15.257  21.516  12.492
92244W        W62844  21.545  24.987  12.725
92245W        W62845  22.272  28.139   0.680
92246W        W62846  42.850  24.514  13.592
92247W        W62847  24.491  40.028   0.637
92248W        W62848  40.350   0.955  13.841
92249W        W62849  35.476  29.143   2.756
92250W        W62850   0.734  19.508  12.757
92251W        W62851  37.330  20.648   1.386
92252W        W62852   8.765  13.655   1.445
92253W        W62853  33.101  42.790  14.369
92254W        W62854  32.532   8.866  11.401
92255W        W62855  36.089  42.985   0.433
92256W        W62856  30.994  17.961   1.419
92257W        W62857  18.859   0.417   0.510
92258W        W62858  40.280  33.867   4.813
92259W        W62859   3.493  13.165   0.823
92260W        W62860  11.197   0.880   0.294
92261W        W62861   3.932  25.078   4.997
92262W        W62862  39.640  38.749  10.726
92263W        W62863  41.341  15.041   2.258
92264W        W62864  38.334   4.208  10.304
92265W        W62865   8.852  13.288   4.143
92266W        W62866  44.872  31.028   4.253
92267W        W62867   7.884  12.848   4.127
92268W        W62868  42.288  37.141  14.944
92269W        W62869  26.494  23.471  11.508
92270W        W62870  10.254  37.992   3.129
92271W        W62871  19.185   7.687   2.869
92272W        W62872  34.936  30.225   2.263
92273W        W62873  39.183   0.685   0.101
92274W        W62874   0.847   2.324   3.236
92275W        W62875  20.297  22.641   3.319
92276W        W62876  14.307  15.663  11.177
92277W        W62877   4.733  13.723   1.738
92278W        W62878  37.471  35.844  11.084
92279W        W62879   7.845  37.373   1.871
92280W        W62880  38.830  44.772   0.329
92281W        W62881  29.126  20.539  12.329
92282W        W62882  15.832  26.183   1.832
92283W        W62883  43.595  40.824  12.020
92284W        W62884  35.967   4.442   2.489
92285W        W62885  30.338  23.976   1.735
92286W        W62886  30.701  15.099   0.277
92287W        W62887  15.248  23.602  14.839
92288W        W62888  27.701  31.700   1.831
92289W        W62889  19.584  39.172  10.678
92290W        W62890  35.298  26.235  13.454
92291W        W62891  40.841   1.336  13.069
92292W        W62892  15.795  28.130   4.181
92293W        W62893   8.378  42.771  10.965
92294W        W62894  20.756  30.215   1.306
92295W        W62895  37.422  28.469   1.177
92296W        W62896  18.130  13.703   3.351
92297W        W62897  28.615  11.786  12.169
92298W        W62898  42.303  26.196  14.266
92299W        W62899   0.560  30.610   3.897
92300W        W62900   8.590  18.045   3.313
92301W        W62901  29.423  29.400  12.678
92302W        W62902  19.842  44.514  11.032
92303W        W62903  13.882  16.402   3.256
92304W        W62904  22.685  43.545   0.244
92305W        W62905  19.978  19.633   2.242
92306W        W62906   3.523   4.157  11.733
92307W        W62907  22.718  31.026   0.756
92308W        W62908  24.764  19.264   0.730
92309W        W62909  33.399  28.895   0.825
92310W        W62910   3.461  16.313   3.590
92311W        W62911   8.116  40.710  11.664
92312W        W62912  20.672  33.928  12.990
92313W        W62913  16.149  18.283  12.805
92314W        W62914  38.949  35.491   0.718
92315W        W62915  43.947  20.649   2.853
92316W        W62916  22.268  23.083  13.553
92317W        W62917  17.387  15.026  14.261
92318W        W62918   3.361  31.958  11.895
92319W        W62919  27.417   5.715   1.846
92320W        W62920  10.386  23.000   0.715
92321W        W62921  29.363  29.472  10.609
92322W        W62922  26.104  21.219   0.260
92323W        W62923   4.847   4.726   0.779
92324W        W62924  22.655  32.137  12.496
92325W        W62925  43.223  27.313  14.996
92326W        W62926  15.361  27.796   3.179
92327W        W62927  26.077   5.214   2.618
92328W        W62928  15.138  25.284   3.998
92329W        W62929   9.344   6.679  11.167
92330W        W62930  33.515  20.259  10.985
92331W        W62931  21.059   5.224  11.115
92332W        W62932   9.213   4.046   0.834
92333W        W62933  10.764  20.085  11.619
92334W        W62934   4.449  42.202   4.528
92335W        W62935  11.645  28.643   4.087
92336W        W62936   4.643  34.468   0.924
92337W        W62937   4.379  11.351   1.244
92338W        W62938  24.616  31.452  11.616
92339W        W62939  25.678  43.970   0.056
92340W        W62940  29.653  17.634  12.075
92341W        W62941  27.220  31.983  10.268
92342W        W62942  25.516  25.996  13.086
92343W        W62943  34.567  38.942  11.118
92344W        W62944  18.344  16.843   1.263
92345W        W62945  12.330  14.356  13.427
92346W        W62946   1.188   5.208   0.779
92347W        W62947   9.176  20.362   4.108
92348W        W62948  40.211  32.529  11.423
92349W        W62949  12.659  28.166   0.486
92350W        W62950  40.613  42.913  11.626
92351W        W62951  42.318  18.613   1.669
92352W        W62952  31.741  10.154   1.113
92353W        W62953  36.406  27.439  11.163
92354W        W62954   3.209  26.163   3.685
92355W        W62955   8.429   7.430   0.988
92356W        W62956  43.422  14.731  14.057
92357W        W62957   5.140  20.009   0.779
92358W        W62958  14.139  25.986  10.627
92359W        W62959  17.107  39.025  12.595
92360W        W62960  32.423  42.321  14.581
92361W        W62961   4.971  20.253   3.643
92362W        W62962  43.897   9.622  14.758
92363W        W62963  27.673  24.421   0.972
92364W        W62964  39.614  15.228  14.577
92365W        W62965  14.928  43.957  11.345
92366W        W62966  21.420  34.460   2.256
92367W        W62967  17.783  21.189  12.054
92368W        W62968   2.674  30.068   3.033
92369W        W62969  23.053  33.003  10.677
92370W        W62970  38.593  31.443  12.929
92371W        W62971  38.889  12.596   1.854
92372W        W62972  28.040  43.081   0.467
92373W        W62973  12.630  32.020   4.887
92374W        W62974  29.221  14.578  14.984
92375W        W62975  10.939  10.860  14.835
92376W        W62976  43.747   6.321   2.261
92377W        W62977   2.328   5.190  14.214
92378W        W62978   2.403  40.087   2.819
92379W        W62979   7.107   4.154  11.214
92380W        W62980  26.578  35.100   1.486
92381W        W62981   0.001  25.762   2.352
92382W        W62982  40.620  12.827  13.435
92383W        W62983  10.151  38.932  14.959
92384W        W62984  12.626  15.332   2.802
92385W        W62985  13.549  11.618   3.125
92386W        W62986  39.308  28.725  12.071
92387W        W62987  19.674  42.714  12.408
92388W        W62988  21.206  23.447  11.980
92389W        W62989   9.699  25.757  10.586
92390W        W62990  29.234   5.272  12.072
92391W        W62991  36.329  30.747  13.916
92392W        W62992  23.711  37.934   2.333
92393W        W62993  34.573   3.863   0.198
92394W        W62994  32.489  23.921   0.319
92395W        W62995  25.108  41.190   1.001
92396W        W62996  18.689   1.160  14.044
92397W        W62997   1.690   5.078   0.836
92398W        W62998  30.713  38.671   4.571
92399W        W62999   3.805   7.147   1.961
92400W        W63000  37.592  31.183   4.964
92401W        W63001  23.607  14.350   4.540
92402W        W63002  21.187  13.666   3.640
92403W        W63003  42.392  32.446   4.720
92404W        W63004  32.952  27.179  12.024
92405W        W63005  39.989   4.698  12.470
92406W        W63006  44.888  42.964   0.279
92407W        W63007  36.442  13.523   3.655
92408W        W63008  25.888  25.444  11.601
92409W        W63009   8.641  19.072  11.707
92410W        W63010  10.009  13.516  13.599
92411W        W63011  11.725  37.185  10.790
92412W        W63012   6.141  40.903  10.736
92413W        W63013  17.600  44.335  10.530
92414W        W63014   5.400  32.129  14.286
92415W        W63015  36.954  16.058  12.186
92416W        W63016  40.073   5.417  13.846
92417W        W63017  37.345  24.017  11.983
92418W        W63018  13.602  28.617   3.756
92419W        W63019  27.059  16.504  10.818
92420W        W63020  23.571   7.069  12.543
92421W        W63021   3.484  40.415  14.785
92422W        W63022  26.212  29.246  11.085
92423W        W63023  35.467  22.134   0.054
92424W        W63024  23.172   9.716  12.541
92425W        W63025  32.960  12.649   1.914
92426W        W63026  13.696  40.430  10.292
92427W        W63027   4.334  34.903   0.861
92428W        W63028  14.171  43.567  10.323
92429W        W63029   8.948  36.070  12.981
92430W        W63030  20.459   1.452  14.481
92431W        W63031  37.969   2.361  11.500
92432W        W63032   6.097  35.384   0.737
92433W        W63033   7.964  14.697   4.512
92434W        W63034  18.269  16.542   1.667
92435W        W63035  22.263  43.930  13.976
92436W        W63036  26.241  43.852  14.321
92437W        W63037  20.712  10.721  12.379
92438W        W63038   9.649  29.109  14.822
92439W        W63039  13.274  40.955  11.601
92440W        W63040  34.911  35.992   1.520
92441W        W63041   7.336   6.872  10.549
92442W        W63042  37.177  40.244  12.205
92443W        W63043   9.726   1.394  12.272
92444W        W63044  14.154  18.678   2.344
92445W        W63045  37.200  22.495   4.974
92446W        W63046   2.329   3.919   0.948
92447W        W63047  44.310  29.439   2.238
92448W        W63048  30.758   4.303   4.219
92449W        W63049  33.239  31.539   4.019
92450W        W63050   8.314  30.426  13.066
92451W        W63051  31.665  38.885   4.573
92452W        W63052  27.513   0.834  13.153
92453W        W63053  34.648   5.926  11.475
92454W        W63054  39.842  14.382   0.452
92455W        W63055  43.885  28.155   4.499
92456W        W63056  10.264   4.150   3.298
92457W        W63057  11.639  22.440  10.737
92458W        W63058  16.929  13.196   3.772
92459W        W63059  23.135   4.831  13.663
92460W        W63060  39.807  25.031  13.081
92461W        W63061   1.448  25.448   1.545
92462W        W63062   5.985   9.176  10.617
92463W        W63063  22.683   9.343   2.157
92464W        W63064  18.481  11.948  11.152
92465W        W63065  32.491  17.042  14.900
92466W        W63066  42.838   5.133   3.491
92467W        W63067   9.665   9.769  10.880
92468W        W63068  18.259   5.338  11.989
92469W        W63069  29.544  36.297   3.160
92470W        W63070  27.215   3.263   4.674
92471W        W63071  10.619  42.257   4.890
92472W        W63072  20.990  43.401  12.424
92473W        W63073  11.653  36.201  13.768
92474W        W63074  35.921  31.619  14.984
92475W        W63075  33.559  22.666  11.733
92476W        W63076  10.119  44.530   2.604
92477W        W63077  17.020  28.815  10.916
92478W        W63078  25.510  22.704  10.235
92479W        W63079  27.644  20.366   2.868
92480W        W63080  13.189  23.253   3.096
92481W        W63081  41.124  10.677  14.896
92482W        W63082  29.041   2.221   1.392
92483W        W63083  21.615  19.503  12.964
92484W        W63084  38.398  16.766  10.730
92485W        W63085   1.505  22.233   1.328
92486W        W63086   6.176   6.510  11.166
92487W        W63087   8.377  37.385   3.902
92488W        W63088  31.101  29.627   4.573
92489W        W63089  44.904  17.136  13.162
92490W        W63090  23.559  40.058   3.761
92491W        W63091  23.211  28.376  13.018
92492W        W63092  18.263  35.086  12.135
92493W        W63093  29.647   8.716  14.446
92494W        W63094   4.766   8.923   4.087
92495W        W63095  23.173  28.228  12.381
92496W        W63096  38.900  12.181  11.629
92497W        W63097  20.674  15.959   4.468
92498W        W63098  28.030  16.475   1.281
92499W        W63099  20.586  44.166   1.442
92500W        W63100  20.696  16.616  11.461
92501W        W63101  17.245  24.219  11.611
92502W        W63102  25.902  32.611  13.547
92503W        W63103  34.445  17.680  11.972
92504W        W63104  16.309  33.455   4.567
92505W        W63105   1.252   7.823   1.872
92506W        W63106  31.842   2.025   0.856
92507W        W63107  13.736  34.646   0.974
92508W        W63108  34.487  39.530   2.902
92509W        W63109  25.216  26.713  12.161
92510W        W63110   7.524   0.630  10.273
92511W        W63111  36.597  17.274  11.792
92512W        W63112  11.823  24.459  11.645
92513W        W63113  41.330  14.145  12.911
92514W        W63114  24.072  16.693  12.318
92515W        W63115  28.883  23.967  11.117
92516W        W63116  26.706  16.192   1.918
92517W        W63117  14.228  16.904  13.267
92518W        W63118  17.308   2.134   9.756
92519W        W63119  28.985  24.166   0.853
92520W        W63120  21.000   3.369   4.097
92521W        W63121   2.054  31.580   3.305
92522W        W63122  13.077  24.717   1.700
92523W        W63123  27.506  13.805  14.468
92524W        W63124  31.247  36.605  12.492
92525W        W63125  29.210   4.950   1.164
92526W        W63126  40.149  33.302  12.788
92527W        W63127  14.795  30.496   0.058
92528W        W63128   1.802   2.742  13.473
92529W        W63129  31.122   2.868   3.766
92530W        W63130   7.758   0.002   0.663
92531W        W63131  29.484  19.351  13.454
92532W        W63132   1.316  27.420   1.698
92533W        W63133  22.487  34.899  12.275
92534W        W63134  39.588  44.228   2.842
92535W        W63135   2.891  42.905   1.420
92536W        W63136  15.129  39.194   4.232
92537W        W63137  39.638  34.979   4.239
92538W        W63138  39.319  26.915   4.519
92539W        W63139  39.872  13.869   0.487
92540W        W63140   5.370  25.290   2.629
92541W        W63141  38.347  23.935  14.832
92542W        W63142   3.453  36.920   4.365
92543W        W63143  27.966  34.017   3.722
92544W        W63144  28.366  14.559  11.189
92545W        W63145  27.601   9.697   4.541
92546W        W63146  27.995  37.599  10.814
92547W        W63147  21.653  22.035  11.304
92548W        W63148  18.358  22.661   1.633
92549W        W63149  27.622  43.015  13.053
92550W        W63150  28.047  18.436  10.776
92551W        W63151  29.952   1.673  10.442
92552W        W63152  32.318  27.986  13.734
92553W        W63153  40.941  43.434   0.609
92554W        W63154  25.849  28.837   3.139
92555W        W63155  36.919   8.911  11.026
92556W        W63156  33.799  24.456   4.130
92557W        W63157  21.407  27.681  11.186
92558W        W63158   3.935  33.069  12.002
92559W        W63159  13.920  19.149   3.797
92560W        W63160  23.095   5.205   3.950
92561W        W63161  32.537  38.418  11.117
92562W        W63162  30.912   7.709   1.176
92563W        W63163  14.273  11.106   1.294
92564W        W63164  27.586   0.168   3.316
92565W        W63165  16.743  42.961   2.268
92566W        W63166   5.839  31.373   1.737
92567W        W63167   9.790  18.749  14.036
92568W        W63168   1.509  12.186  12.155
92569W        W63169   9.029  32.616  14.285
92570W        W63170   5.247   7.201   4.464
92571W        W63171  23.984  34.741   4.561
92572W        W63172   1.528  27.843   3.102
92573W        W63173  15.200  20.232  13.496
92574W        W63174  15.723  29.405   2.851
92575W        W63175  14.368  38.287   1.873
92576W        W63176  39.954  36.770   1.286
92577W        W63177  23.111  13.284  13.041
92578W        W63178  30.644  14.222   2.074
92579W        W63179  25.425   3.367  12.700
92580W        W63180  28.476  44.211   3.493
92581W        W63181  10.779  24.797  13.021
92582W        W63182  13.008   7.294   4.769
92583W        W63183   5.790  37.329  12.986
92584W        W63184   0.025  34.971  11.986
92585W        W63185  40.889  35.770   0.398
92586W        W63186  10.316  41.604  14.389
92587W        W63187  44.053  42.422  14.407
92588W        W63188  41.429  43.697  12.893
92589W        W63189   1.042  43.959   2.236
92590W        W63190  30.538   2.047  14.039
92591W        W63191  17.627  40.945  11.599
92592W        W63192  31.193  32.036  12.042
92593W        W63193   6.176   4.295   2.354
92594W        W63194  36.589  40.850   2.032
92595W        W63195   3.956  25.990   1.222
92596W        W63196  38.349  34.090  14.133
92597W        W63197  35.884   3.536   2.140
92598W        W63198  25.101  18.264  11.620
92599W        W63199  13.668  16.007  10.743
92600W        W63200  41.269  17.631   3.154
92601W        W63201   6.471  15.155  11.163
92602W        W63202  29.113  18.050  13.560
92603W        W63203  30.155  40.216  12.965
92604W        W63204  13.335  24.667   0.133
92605W        W63205  22.493   7.235   3.730
92606W        W63206  31.239   8.104   4.180
92607W        W63207  23.135  38.011  14.748
92608W        W63208  14.335  28.427   2.355
92609W        W63209   0.277  13.755   4.512
92610W        W63210  27.143  14.654   4.581
92611W        W63211  44.272  21.724   3.220
92612W        W63212  36.860  27.589   4.078
92613W        W63213   5.128   1.392  12.520
92614W        W63214  14.758  26.607   4.623
92615W        W63215  28.917   7.401   1.911
92616W        W63216   4.208  11.663  13.886
92617W        W63217  28.577  35.565   2.050
92618W        W63218  43.499  37.122  12.009
92619W        W63219   6.345  14.659  11.163
92620W        W63220  42.481  18.127   3.870
92621W        W63221   6.187  22.412  11.049
92622W        W63222  43.098  17.850  13.225
92623W        W63223   3.739   7.143  10.598
92624W        W63224  10.127  40.271   2.781
92625W        W63225  25.602   7.384  13.479
92626W        W63226  26.562   6.244  11.978
92627W        W63227   6.401  42.619   0.809
92628W        W63228   6.908  42.770  12.989
92629W        W63229  38.752  34.075   2.360
92630W        W63230  33.087  44.434   0.367
92631W        W63231  30.250  20.185  14.393
92632W        W63232  15.411  16.253   0.921
92633W        W63233  42.011   3.262  12.653
92634W        W63234  35.128  20.731  14.990
92635W        W63235  26.041  36.412  13.039
92636W        W63236   5.210  34.934  12.960
92637W        W63237  30.888  39.749  13.740
92638W        W63238  38.003  27.218  12.908
92639W        W63239  38.749  20.309  11.675
92640W        W63240  22.780  25.480  12.380
92641W        W63241   7.950  22.253  13.242
92642W        W63242  11.526  36.308   3.142
92643W        W63243  27.529  27.993   1.976
92644W        W63244  33.003  10.414  12.983
92645W        W63245   2.675   2.374  14.820
92646W        W63246  27.267  33.403   4.618
92647W        W63247  11.032  23.111   2.365
92648W        W63248  39.328  15.365   0.445
92649W        W63249  37.525  30.531  14.044
92650W        W63250   1.297  35.895   4.567
92651W        W63251  34.425  24.886   0.391
92652W        W63252   0.840  25.126  11.233
92653W        W63253  22.589  30.190  14.814
92654W        W63254  25.233  36.668  12.154
92655W        W63255  27.002  19.134  14.360
92656W        W63256   8.643  27.764   4.256
92657W        W63257  35.945  44.617  13.496
92658W        W63258  25.283  26.395  11.187
92659W        W63259   4.217   5.426  12.288
92660W        W63260  20.784  18.741   0.476
92661W        W63261  30.320  20.074   0.316
92662W        W63262   8.151   6.350  10.452
92663W        W63263   2.477  43.932   0.706
92664W        W63264  23.231   5.179  13.272
92665W        W63265  25.141  17.750  12.135
92666W        W63266  14.839  26.085  13.435
92667W        W63267   2.722  15.644   0.838
92668W        W63268  18.699  43.233   1.264
92669W        W63269   0.514   0.705   2.821
92670W        W63270  34.959  27.842   1.806
92671W        W63271   7.207  17.530   2.338
92672W        W63272   4.346  43.706   1.767
92673W        W63273  14.319   5.196   3.835
92674W        W63274   9.668  17.846  13.573
92675W        W63275  15.147  23.467  14.358
92676W        W63276   3.436  33.430   2.857
92677W        W63277   2.367   0.345   3.703
92678W        W63278  33.821  39.473   4.149
92679W        W63279   6.494  36.808  12.929
92680W        W63280  14.759  35.604  12.932
92681W        W63281  25.560  10.193  10.833
92682W        W63282   5.725  40.483  14.466
92683W        W63283   3.062  28.960  10.672
92684W        W63284  35.271  19.302   1.198
92685W        W63285  39.017  41.531   2.212
92686W        W63286  43.736  37.627   0.767
92687W        W63287  11.093  44.500   0.310
92688W        W63288   0.864   3.438  12.502
92689W        W63289  42.917  31.322  13.860
92690W        W63290   6.435   9.690   0.936
92691W        W63291   0.655   7.620   4.080
92692W        W63292   3.680  22.616   4.661
92693W        W63293   6.909  29.058  12.342
92694W        W63294  34.553  28.115  13.379
92695W        W63295  22.761  16.237  12.632
92696W        W63296   1.105  13.582  13.316
92697W        W63297   7.392  17.119  13.331
92698W        W63298  43.422  16.583  14.404
92699W        W63299  14.415  30.148   3.693
92700W        W63300  35.416  40.253  12.166
92701W        W63301  41.753  41.768  11.313
92702W        W63302  14.494  39.067  14.928
92703W        W63303  41.255  14.052  14.354
92704W        W63304   5.266   5.662  11.247
92705W        W63305  34.652   0.798   1.276
92706W        W63306  28.671  18.616   2.669
92707W        W63307   3.492  36.965   3.408
92708W        W63308  43.747   1.224   0.722
92709W        W63309   7.246   5.429   4.156
92710W        W63310  11.321   1.245  12.158
92711W        W63311  40.424   8.367  14.258
92712W        W63312   3.281  16.553  14.922
92713W        W63313  44.808  17.742   2.791
92714W        W63314   8.295  34.688  14.634
92715W        W63315   4.456  38.829   0.458
92716W        W63316  17.619  12.958  11.688
92717W        W63317  21.601  18.989  12.100
92718W        W63318   0.821  38.619  11.561
92719W        W63319  39.339  36.098   0.691
92720W        W63320  25.736  38.707   4.927
92721W        W63321  35.632  29.010   3.612
92722W        W63322  24.174  23.293   4.549
92723W        W63323   1.840  36.411  13.507
92724W        W63324  19.809  29.384  13.761
92725W        W63325  12.600  44.429   3.757
92726W        W63326  31.482   6.262  14.839
92727W        W63327  32.431  32.343  12.923
92728W        W63328  25.058  41.132   1.582
92729W        W63329  41.402   7.218   9.834
92730W        W63330  29.451  26.039  11.488
92731W        W63331  16.694  25.507  10.714
92732W        W63332  14.086  17.880   3.193
92733W        W63333  24.166   2.607  10.749
92734W        W63334  15.535  44.874   0.265
92735W        W63335   0.447   0.394   4.628
92736W        W63336  28.644   6.281  12.790
92737W        W63337   5.693  31.795   3.707
92738W        W63338   8.603  34.731  11.702
92739W        W63339  29.359  32.924  14.068
92740W        W63340  34.183  23.002  11.900
92741W        W63341  31.424  27.445   2.342
92742W        W63342  35.296  16.155   2.417
92743W        W63343  34.395  33.133  13.181
92744W        W63344  31.780  15.073   3.311
92745W        W63345  40.510   9.770  11.571
92746W        W63346  14.472  12.910  13.457
92747W        W63347   1.214  32.000   1.036
92748W        W63348  38.134   5.650  14.280
92749W        W63349  42.309   2.176   4.265
92750W        W63350   5.237  16.788  12.911
92751W        W63351  44.300  21.524   9.862
92752W        W63352  29.594  40.581   0.842
92753W        W63353  26.153  41.598   2.696
92754W        W63354  13.917  22.507   2.774
92755W        W63355   7.446  17.709  14.129
92756W        W63356   5.225  23.086   3.977
92757W        W63357  30.883  37.887   0.741
92758W        W63358   1.769  22.433  14.210
92759W        W63359   4.769   9.599  12.812
92760W        W63360  28.459  17.642  14.594
92761W        W63361  38.847  34.462  11.592
92762W        W63362  19.115  39.925   2.106
92763W        W63363  31.552  22.184   0.423
92764W        W63364  13.260  21.156   4.952
92765W        W63365  11.005  37.766  14.847
92766W        W63366  43.523  41.412  13.487
92767W        W63367  34.924  11.215  11.372
92768W        W63368  44.517  11.489   4.899
92769W        W63369  29.474  31.018  11.879
92770W        W63370   9.287  44.932  11.780
92771W        W63371  42.531  13.221   4.234
92772W        W63372  16.420  18.038  14.905
92773W        W63373  14.068  32.444   2.758
92774W        W63374   5.342  18.007   2.227
92775W        W63375  22.492  30.905  13.846
92776W        W63376   2.396  37.082  12.021
92777W        W63377  20.110  39.095  13.852
92778W        W63378  20.492  38.543  13.379
92779W        W63379  18.261  13.069   5.087
92780W        W63380  33.594  31.923   4.540
92781W        W63381  38.869  32.817   1.698
92782W        W63382  29.403   1.837   1.446
92783W        W63383  41.526  14.810   1.194
92784W        W63384  42.871  16.881   4.456
92785W        W63385  35.149  25.252  14.434
92786W        W63386  28.533   0.258   5.005
92787W        W63387  13.085   0.282   1.005
92788W        W63388  18.778  35.037   2.704
92789W        W63389  44.493   6.478   0.885
92790W        W63390  23.853  22.059   3.554
92791W        W63391  42.943  10.366   3.218
92792W        W63392  17.797  32.055  12.133
92793W        W63393  12.019  36.481   1.767
92794W        W63394  28.839  43.054  12.124
92795W        W63395  33.944  28.603  11.510
92796W        W63396  34.669  12.770  12.384
92797W        W63397  29.641   3.889   4.660
92798W        W63398  17.579  28.115   0.483
92799W        W63399   9.590  18.795   3.288
92800W        W63400  36.673  17.577  13.922
92801W        W63401  30.159  13.448  11.440
92802W        W63402  24.085  27.310   4.581
92803W        W63403  15.878  18.699   4.657
92804W        W63404   6.836  15.833  13.308
92805W        W63405   8.684  41.574  10.284
92806W        W63406  27.250  41.567   5.090
92807W        W63407  14.262  20.454   0.827
92808W        W63408  13.065   7.482   1.860
92809W        W63409   1.839  19.693  14.772
92810W        W63410  40.471  33.211   0.001
92811W        W63411  31.080  28.699   1.237
92812W        W63412  29.098  35.304  14.864
92813W        W63413  27.083  35.896  14.010
92814W        W63414   4.878  15.674  11.092
92815W        W63415  26.555  33.368  12.984
92816W        W63416  20.534  11.179  14.933
92817W        W63417  20.100  39.764  14.463
92818W        W63418   0.420  29.631   2.237
92819W        W63419  21.997   9.346   0.300
92820W        W63420  21.547   2.326   2.840
92821W        W63421  18.569  38.906   3.570
92822W        W63422  28.553  22.786  13.867
92823W        W63423  32.066  21.201   0.734
92824W        W63424  43.816   4.503   1.473
92825W        W63425  28.660  30.680  12.546
92826W        W63426   2.050  20.780   3.848
92827W        W63427  14.553  44.319   2.695
92828W        W63428  23.805  28.185   3.033
92829W        W63429   0.731  25.457   0.823
92830W        W63430   9.750   4.847   3.163
92831W        W63431  30.612  24.187   2.698
92832W        W63432  26.002   8.145   2.267
92833W        W63433   1.915  39.513   4.751
92834W        W63434  12.683   8.161   4.569
92835W        W63435  44.077  28.042  13.500
92836W        W63436   4.042  23.750   4.081
92837W        W63437  10.894   6.452   4.619
92838W        W63438  29.670  42.232   1.859
92839W        W63439  42.999  36.167  12.973
92840W        W63440  34.192  10.153   4.187
92841W        W63441  44.107  10.918  12.113
92842W        W63442  19.782  14.618  14.369
92843W        W63443  26.990  34.913   2.103
92844W        W63444  29.422  34.273   2.688
92845W        W63445  28.653  37.950  11.081
92846W        W63446  18.994   7.352   0.191
92847W        W63447  29.925  16.672  11.887
92848W        W63448  36.350  34.787   2.436
92849W        W63449   4.037  31.757   2.298
92850W        W63450  13.581   5.685   0.181
92851W        W63451  36.300  28.633  11.627
92852W        W63452  20.761  13.605  11.267
92853W        W63453   5.335  18.096  10.545
92854W        W63454  22.258  22.395  14.221
92855W        W63455  42.535  13.853  14.843
92856W        W63456  20.980  42.266  14.054
92857W        W63457   0.719   5.358  11.754
92858W        W63458   2.836  38.407   2.482
92859W        W63459  13.374  33.171  14.829
92860W        W63460   1.957   6.778  13.765
92861W        W63461  26.105  16.878   1.432
92862W        W63462   0.911  38.484   1.408
92863W        W63463  23.617  39.758   1.093
92864W        W63464   7.221  22.038   2.671
92865W        W63465  38.771  41.544   4.172
92866W        W63466  15.335  16.660   2.080
92867W        W63467  39.388  34.649  11.607
92868W        W63468  26.581   7.267  10.978
92869W        W63469  22.622  14.422   2.156
92870W        W63470  26.159   2.909   4.702
92871W        W63471  12.722   9.306   1.504
92872W        W63472  10.216  25.520   2.280
92873W        W63473  37.038  27.653   1.685
92874W        W63474  44.530  34.214   2.668
92875W        W63475  27.131  15.124  13.323
92876W        W63476  20.058  32.722   3.238
92877W        W63477  41.279  20.534  13.119
92878W        W63478  27.648   6.189   0.112
92879W        W63479  29.637  29.321   5.106
92880W        W63480  36.585   9.947   0.227
92881W        W63481  13.810  42.464  11.778
92882W        W63482  40.831  21.595  14.903
92883W        W63483   1.470  36.464   1.424
92884W        W63484  10.319  14.672  13.940
92885W        W63485   3.789  31.577  11.212
92886W        W63486  23.207  23.204   3.090
92887W        W63487  30.023   1.951   1.243
92888W        W63488  27.121  38.508  13.515
92889W        W63489  42.113   0.341  12.665
92890W        W63490  43.307  41.933   0.815
92891W        W63491   5.692  22.928  14.733
92892W        W63492  23.834  28.622   3.665
92893W        W63493  35.284  25.545   2.083
92894W        W63494  42.394   8.499  13.815
92895W        W63495   4.780  27.000   0.367
92896W        W63496  38.698   8.388  11.885
92897W        W63497  31.579  43.521   3.617
92898W        W63498  25.513   2.441  11.986
92899W        W63499  10.604   8.741  13.287
92900W        W63500  23.277  43.274   0.936
92901W        W63501   5.946  25.943   2.225
92902W        W63502   2.773  32.182   5.505
92903W        W63503   4.303   0.860  12.876
92904W        W63504  27.531  44.305  11.643
92905W        W63505   9.484  25.913  11.860
92906W        W63506  16.115  32.473  14.335
92907W        W63507   2.233  28.918  11.122
92908W        W63508   9.299  29.624   4.423
92909W        W63509  36.412   1.497  13.287
92910W        W63510  36.175  27.085   2.445
92911W        W63511  17.339  24.622  11.928
92912W        W63512  19.800  40.921   2.165
92913W        W63513  33.878  11.679  13.059
92914W        W63514  10.207  34.091  11.316
92915W        W63515  10.825   1.300   2.555
92916W        W63516  42.503  29.004  12.202
92917W        W63517   2.799   1.468  13.859
92918W        W63518   2.234  35.874   2.781
92919W        W63519  33.979   7.250  14.841
92920W        W63520  14.112  13.718  13.019
92921W        W63521  36.845  24.133   4.586
92922W        W63522   7.642  15.548   3.151
92923W        W63523   7.703  29.517   1.987
92924W        W63524  29.426   8.642  12.465
92925W        W63525  41.799  11.248  10.690
92926W        W63526  38.488   6.826  11.589
92927W        W63527  33.543  27.971   0.442
92928W        W63528  23.243  36.591   0.829
92929W        W63529  10.230   1.752   1.995
92930W        W63530   0.311  10.317   3.210
92931W        W63531  29.837   0.709  14.735
92932W        W63532  28.555   3.030   1.279
92933W        W63533  22.969   9.353  13.473
92934W        W63534  43.086  35.801  12.004
92935W        W63535  31.415  16.387  14.916
92936W        W63536  17.243  27.528  13.310
92937W        W63537  21.998  29.690  14.302
92938W        W63538   2.806  17.703   3.407
92939W        W63539   7.033  39.480  12.869
92940W        W63540  30.515  40.458  11.738
92941W        W63541  16.385   6.060  14.257
92942W        W63542  26.048  15.753  11.423
92943W        W63543  42.476  36.395  13.571
92944W        W63544  18.525  10.362  14.778
92945W        W63545  28.676   3.111   4.776
92946W        W63546   9.375  44.780   3.526
92947W        W63547  21.573   4.759   3.603
92948W        W63548  22.307  38.955   4.607
92949W        W63549   3.868  16.681  11.640
92950W        W63550  10.360  31.949  12.117
92951W        W63551  42.519  25.296  12.544
92952W        W63552  14.243  18.324  14.799
92953W        W63553  13.066  15.832   0.511
92954W        W63554   5.892  15.462   3.081
92955W        W63555  15.839   1.819  14.216
92956W        W63556  14.618   2.350  13.487
92957W        W63557  18.756  40.387  13.062
92958W        W63558  20.982  29.219  14.791
92959W        W63559  14.731  43.280   0.763
92960W        W63560  34.589   6.768  12.343
92961W        W63561  27.504  39.028  13.431
92962W        W63562  42.363  32.416   1.955
92963W        W63563  44.667  26.999   4.684
92964W        W63564  31.462  30.208  10.802
92965W        W63565  38.555   7.927  14.160
92966W        W63566  24.608   5.317   1.332
92967W        W63567  33.418  39.581  13.021
92968W        W63568  30.600  34.984  14.693
92969W        W63569   0.854   9.794  10.682
92970W        W63570  28.068   1.591  13.342
92971W        W63571  14.202   8.288   3.746
92972W        W63572  30.929  39.283   0.929
92973W        W63573  18.343  15.849   0.047
92974W        W63574   7.400   9.904   1.255
92975W        W63575  33.866  30.831  10.512
92976W        W63576  33.678  24.713   3.682
92977W        W63577  26.201  10.308  12.127
92978W        W63578  43.554  41.108   4.677
92979W        W63579  43.024  37.920   2.301
92980W        W63580  42.414  12.957   0.329
92981W        W63581  10.660  24.740  11.036
92982W        W63582  12.186  30.154  11.688
92983W        W63583  16.310   0.894  12.001
92984W        W63584   6.519  26.614   0.383
92985W        W63585  36.573  18.658   1.897
92986W        W63586  18.859  38.888  14.145
92987W        W63587  41.222  28.676   3.024
92988W        W63588  27.662   2.872  14.449
92989W        W63589   2.804  40.492   3.044
92990W        W63590  15.838  30.440  13.330
92991W        W63591  26.605  22.158  13.076
92992W        W63592   9.950  18.109  12.452
92993W        W63593  22.586  23.754  12.047
92994W        W63594   0.955  40.821   2.720
92995W        W63595  44.189  14.426   4.961
92996W        W63596  30.615  18.832   1.661
92997W        W63597  22.583   1.052   2.020
92998W        W63598  35.182  33.935  14.698
92999W        W63599  42.287  25.165   0.313
93000W        W63600   3.204  32.430   4.625
93001W        W63601  35.585  38.829  11.109
93002W        W63602  13.535   4.848  14.870
93003W        W63603  28.381  37.691   5.019
93004W        W63604  22.668   5.271   0.173
93005W        W63605  12.504  23.604   4.542
93006W        W63606   5.040   3.960   0.429
93007W        W63607   4.913   0.009   2.230
93008W        W63608  13.300   0.480   3.986
93009W        W63609  40.033  28.577   2.105
93010W        W63610  18.208  28.967   2.708
93011W        W63611  36.534  15.049  12.626
93012W        W63612  44.197   9.533  14.313
93013W        W63613  23.473   7.133  10.633
93014W        W63614  27.610  34.118  11.138
93015W        W63615  26.955  28.666   0.946
93016W        W63616  33.240  27.121  11.600
93017W        W63617   9.874   0.624  14.910
93018W        W63618  44.973  27.154  13.568
93019W        W63619  12.520  37.891   4.272
93020W        W63620   8.263  29.908  10.594
93021W        W63621  43.770  25.588   3.471
93022W        W63622  32.818  31.491   2.670
93023W        W63623  38.185  38.231  13.897
93024W        W63624  43.398  35.476   4.312
93025W        W63625  42.855  32.087   1.241
93026W        W63626  40.559  21.339   0.944
93027W        W63627  39.642  30.510   2.217
93028W        W63628  26.084   3.923   0.311
93029W        W63629  13.063  17.624  11.959
93030W        W63630  27.732   0.960  12.222
93031W        W63631  27.122  32.408   2.145
93032W        W63632  24.213   8.441   1.838
93033W        W63633  12.819   4.498   3.285
93034W        W63634  32.989  12.705  14.827
93035W        W63635   5.343  11.575   1.301
93036W        W63636  10.050  32.676   3.325
93037W        W63637  23.300  35.064  14.911
93038W        W63638  33.787  41.436  12.883
93039W        W63639  22.270  29.126   0.950
93040W        W63640   8.365  14.147   0.051
93041W        W63641  11.702   7.410  13.898
93042W        W63642   9.138  18.363   5.219
93043W        W63643  37.972  25.105   4.992
93044W        W63644  23.597  32.596   4.757
93045W        W63645   6.677  28.943  11.429
93046W        W63646  29.399   2.103  12.632
93047W        W63647  27.601   6.390   3.659
93048W        W63648  29.438  43.463  12.635
93049W        W63649   1.410  17.090   0.830
93050W        W63650  42.906  22.470  14.434
93051W        W63651  15.197  25.909   4.616
93052W        W63652  22.257  35.072  14.958
93053W        W63653  25.576  28.112  14.696
93054W        W63654   9.264  42.426   1.993
93055W        W63655  33.399  31.565  14.557
93056W        W63656  12.721  43.987  13.399
93057W        W63657  44.376   9.919  14.601
93058W        W63658  26.267  27.445  11.086
93059W        W63659  37.402  39.458  11.376
93060W        W63660   3.169  33.849  12.197
93061W        W63661  43.241  27.394  14.443
93062W        W63662  41.486  41.284   3.033
93063W        W63663  17.594  28.628   0.693
93064W        W63664  25.388  19.257   0.056
93065W        W63665  27.543  33.797  12.469
93066W        W63666  27.100  22.401   4.574
93067W        W63667  29.763  27.714   1.380
93068W        W63668  23.020  36.009  12.998
93069W        W63669  16.524  21.112   0.735
93070W        W63670  38.518  22.073   3.966
93071W        W63671  34.052  41.342   1.194
93072W        W63672   8.472  30.073   0.376
93073W        W63673  34.790   5.433  14.845
93074W        W63674  31.676  44.286   1.904
93075W        W63675  19.617   8.907  14.298
93076W        W63676  27.726   6.695  10.348
93077W        W63677  17.146  36.068   1.363
93078W        W63678  36.603  30.692  13.017
93079W        W63679  43.611  25.172   0.077
93080W        W63680   3.620  11.099  10.969
93081W        W63681   8.750  35.584   0.664
93082W        W63682  23.210  27.699  12.444
93083W        W63683  25.710  40.932   2.227
93084W        W63684  28.198  16.039  14.270
93085W        W63685   3.815   3.836  14.928
93086W        W63686  28.252   4.830   3.279
93087W        W63687  24.069   2.567   2.245
93088W        W63688  37.874  42.001   0.359
93089W        W63689  37.002  28.955   3.402
93090W        W63690  44.213   5.141  10.752
93091W        W63691  11.670   8.891   1.199
93092W        W63692  43.572  12.643  11.117
93093W        W63693  13.915  20.257   1.177
93094W        W63694   9.049  16.649  13.814
93095W        W63695   7.668  22.658  13.173
93096W        W63696  28.928  34.074   3.823
93097W        W63697  17.239  37.697   3.171
93098W        W63698   3.142  12.263  11.491
93099W        W63699  23.987   7.774  12.986
93100W        W63700  13.123  13.376   1.898
93101W        W63701  33.625  32.000  12.362
93102W        W63702  42.284   5.967   1.049
93103W        W63703   4.612   6.228  12.894
93104W        W63704  15.073   2.381   2.433
93105W        W63705   6.920  10.594   3.500
93106W        W63706   2.729  26.983   4.260
93107W        W63707  13.636  22.997  13.723
93108W        W63708  10.417  33.198  11.053
93109W        W63709  25.428   6.212   2.486
93110W        W63710  30.811  24.029   3.208
93111W        W63711  11.246  23.198  12.834
93112W        W63712  44.930  19.099  14.975
93113W        W63713  33.351  39.873  10.612
93114W        W63714  24.203  40.284  13.611
93115W        W63715  29.027  40.534   1.386
93116W        W63716  38.691   0.346   3.276
93117W        W63717   9.329  15.332   3.315
93118W        W63718  24.068  34.409  13.457
93119W        W63719  43.995  34.826  11.154
93120W        W63720  29.593  22.393   1.852
93121W        W63721  16.130  25.152   3.555
93122W        W63722  28.172   1.212  12.421
93123W        W63723  36.534  30.988   1.998
93124W        W63724  26.660  35.359  13.431
93125W        W63725   8.072  36.187   4.951
93126W        W63726  13.563  42.144  13.339
93127W        W63727  18.238  42.554  14.024
93128W        W63728  43.498  34.069  14.779
93129W        W63729  29.836  10.977   0.424
93130W        W63730   7.328  25.537  10.715
93131W        W63731   7.504  29.976  12.070
93132W        W63732  41.865  15.137   0.337
93133W        W63733  26.951  41.318  14.802
93134W        W63734  14.081  37.835   3.141
93135W        W63735  13.762  10.725   4.102
93136W        W63736   7.361   5.698  10.664
93137W        W63737  38.662  17.665   4.110
93138W        W63738  31.586  40.832   2.209
93139W        W63739  40.432  41.482   1.522
93140W        W63740  36.584  10.686   3.220
93141W        W63741  27.869  16.860   1.637
93142W        W63742  19.734   9.249   3.220
93143W        W63743   7.595  20.251  14.249
93144W        W63744  13.775   2.902   0.316
93145W        W63745  38.028  15.636  12.156
93146W        W63746  35.634   5.133   3.945
93147W        W63747  18.333  29.407  12.162
93148W        W63748  27.068  38.549   0.452
93149W        W63749   1.090  23.663  12.256
93150W        W63750  33.609  23.817   3.419
93151W        W63751  36.810  12.439   4.159
93152W        W63752  41.373   8.247   2.780
93153W        W63753  43.757  15.581   4.546
93154W        W63754   4.336  23.592  11.908
93155W        W63755  17.193  40.323   1.983
93156W        W63756  25.185  31.902  13.837
93157W        W63757  43.404  38.300   3.158
93158W        W63758   5.611  24.399   3.832
93159W        W63759  40.891   9.740   4.802
93160W        W63760  10.271  37.440  12.346
93161W        W63761  21.277  25.127   5.050
93162W        W63762  39.252  29.717  12.557
93163W        W63763  22.606  35.427   3.704
93164W        W63764  40.357  34.378   4.694
93165W        W63765  17.716  23.938   3.715
93166W        W63766   3.968  13.526   3.212
93167W        W63767  16.851  25.808  12.081
93168W        W63768  11.363  25.291   4.352
93169W        W63769  40.371  31.351  13.977
93170W        W63770  36.915  25.730  13.292
93171W        W63771   7.310  31.648  10.882
93172W        W63772  12.204  26.659   4.592
93173W        W63773  12.650  11.868  14.245
93174W        W63774  17.497  18.614  10.427
93175W        W63775  43.340   3.148  12.804
93176W        W63776  20.575   1.448   0.419
93177W        W63777  35.029  24.624   4.475
93178W        W63778  18.256  30.376   4.220
93179W        W63779  43.710  43.017  10.672
93180W        W63780  43.719  43.826   0.968
93181W        W63781  34.034   5.882   3.851
93182W        W63782  26.157  31.109  12.449
93183W        W63783  38.334  27.577  12.643
93184W        W63784  19.719  34.360   4.665
93185W        W63785  31.439  16.672  13.045
93186W        W63786  17.126   6.552   1.616
93187W        W63787  28.993  11.264   0.209
93188W        W63788  34.786  43.924   1.885
93189W        W63789  23.066   9.867   2.781
93190W        W63790  18.321  13.275   2.101
93191W        W63791  21.499  41.261   1.874
93192W        W63792   0.242  32.259  13.960
93193W        W63793  39.942  17.148   0.742
93194W        W63794  26.532  42.997   4.189
93195W        W63795  11.586  12.769   3.210
93196W        W63796  38.761  43.797  14.275
93197W        W63797   2.184  12.893   3.310
93198W        W63798  11.707  40.760  11.238
93199W        W63799  43.582   6.021  11.547
93200W        W63800  22.734  27.862   3.202
93201W        W63801  43.678  43.448   2.666
93202W        W63802  17.360  18.952   3.245
93203W        W63803  15.365  27.640   0.498
93204W        W63804  26.360  37.561  13.987
93205W        W63805  33.986  36.221   1.332
93206W        W63806   6.667  27.501   2.680
93207W        W63807  11.095   9.165  13.842
93208W        W63808  26.999  31.465   2.313
93209W        W63809   8.639   6.539  12.466
93210W        W63810  16.089  30.815  13.659
93211W        W63811  20.048  15.760  10.573
93212W        W63812   7.915  18.159  13.506
93213W        W63813  38.520  37.940   3.255
93214W        W63814  36.712  24.490  11.399
93215W        W63815  13.712  17.937   4.141
93216W        W63816  40.038  15.120   3.312
93217W        W63817  16.338  34.965  12.651
93218W        W63818  16.061  14.797  11.287
93219W        W63819  17.764   2.139  13.850
93220W        W63820  32.581  19.507   0.787
93221W        W63821  29.593  25.716  13.523
93222W        W63822  42.427  30.883  10.385
93223W        W63823  22.124  18.851  13.172
93224W        W63824  19.560  37.427   2.808
93225W        W63825  39.150  23.101   1.148
93226W        W63826  43.751  29.679   0.464
93227W        W63827  38.811  35.323   4.527
93228W        W63828   2.372  33.423   1.571
93229W        W63829   6.396   5.681   2.230
93230W        W63830  20.138  43.942  14.062
93231W        W63831  30.723  10.621  11.854
93232W        W63832  42.881  21.548  10.898
93233W        W63833   5.466  11.330  11.145
93234W        W63834   3.368  12.895   4.607
93235W        W63835  35.047  41.533   1.243
93236W        W63836  28.949  30.089  13.798
93237W        W63837  39.835   9.416   4.061
93238W        W63838   3.682  32.952   0.148
93239W        W63839  19.992   1.838   3.656
93240W        W63840  16.604   9.696  11.270
93241W        W63841  34.254  17.973   3.438
93242W        W63842  10.944  14.225   0.429
93243W        W63843  31.236  40.094   4.013
93244W        W63844  40.900  34.155   2.111
93245W        W63845  24.947  23.897  12.856
93246W        W63846   9.928  20.457  11.468
93247W        W63847  34.351  24.986  10.742
93248W        W63848  22.275  36.133  11.594
93249W        W63849  24.743  25.102   4.670
93250W        W63850   5.788  22.621   0.586
93251W        W63851  12.816  40.057   4.120
93252W        W63852  20.757  32.541   2.671
93253W        W63853  28.507  33.391   0.712
93254W        W63854  38.275   8.616  14.964
93255W        W63855  20.056  19.786  11.655
93256W        W63856  38.509  11.892  13.311
93257W        W63857  37.811  32.992  14.340
93258W        W63858  24.959  15.398   2.293
93259W        W63859   4.818  21.788   0.831
93260W        W63860   1.864   2.354   2.077
93261W        W63861  24.236  20.823   1.444
93262W        W63862  41.946  12.099  14.101
93263W        W63863   3.312  20.991   3.746
93264W        W63864  30.672  33.117   3.316
93265W        W63865  11.943  38.993   0.332
93266W        W63866  16.301  28.483   2.113
93267W        W63867   2.672  24.097  10.811
93268W        W63868  20.128  10.374   0.784
93269W        W63869  39.085  32.585   2.609
93270W        W63870  33.420  21.972  14.201
93271W        W63871  15.109  21.305   1.416
93272W        W63872  34.177   6.696  13.811
93273W        W63873  44.382  28.703   3.207
93274W        W63874  23.082   2.662   3.730
93275W        W63875  22.636  21.057   2.147
93276W        W63876  37.037  28.104   4.878
93277W        W63877   4.252  26.426  12.436
93278W        W63878  32.321   7.381   0.761
93279W        W63879  28.511  23.264  14.000
93280W        W63880   3.738  17.659   2.928
93281W        W63881  29.847  44.361  14.462
93282W        W63882  29.140  21.530  12.085
93283W        W63883  31.019  39.214   3.566
93284W        W63884   7.638  20.129   1.301
93285W        W63885  17.262  42.338  10.099
93286W        W63886  35.598  31.519   4.520
93287W        W63887  14.141   9.438  11.665
93288W        W63888  25.985  24.181  12.662
93289W        W63889  44.874  26.089   4.170
93290W        W63890  39.134  23.631  14.278
93291W        W63891  17.186  18.534   2.323
93292W        W63892   8.836   4.891  11.905
93293W        W63893  11.387  26.504  12.458
93294W        W63894   5.832  32.546   1.305
93295W        W63895  26.559  33.851  13.151
93296W        W63896  16.966   9.880   4.108
93297W        W63897  22.576  36.988   2.351
93298W        W63898  17.870  15.379   4.644
93299W        W63899  39.928  16.843  11.136
93300W        W63900  27.036  18.727  12.668
93301W        W63901  32.145   2.441   2.906
93302W        W63902  19.938  11.761  11.239
93303W        W63903  14.796  44.277   0.818
93304W        W63904  38.137  13.233  11.094
93305W        W63905  18.966  39.804  11.929
93306W        W63906  35.623  19.461  10.600
93307W        W63907  15.647  21.639   2.820
93308W        W63908  21.365  36.032  14.325
93309W        W63909  15.065  11.078   3.733
93310W        W63910   5.917  18.280   2.821
93311W        W63911   3.817   6.603  10.613
93312W        W63912   1.265   2.501   0.386
93313W        W63913  36.862  12.879  13.833
93314W        W63914   1.183  36.923   3.876
93315W        W63915  39.966  16.510   1.854
93316W        W63916  42.426  18.031   2.470
93317W        W63917   3.425  13.055  12.060
93318W        W63918  20.196  21.794   1.414
93319W        W63919   0.853  28.808   2.379
93320W        W63920   7.176  20.311   3.706
93321W        W63921   6.672  43.920  12.422
93322W        W63922   6.459  26.885   3.658
93323W        W63923   3.921   3.224  13.073
93324W        W63924  44.693  16.268   1.375
93325W        W63925  10.510  34.835   0.462
93326W        W63926  38.976  41.943   1.299
93327W        W63927   3.237  27.444   4.672
93328W        W63928   8.644  13.655  10.686
93329W        W63929  44.286  42.129  10.202
93330W        W63930  13.823  43.638   2.213
93331W        W63931  28.421  39.405   0.193
93332W        W63932  16.682  31.882   3.715
93333W        W63933  23.743  26.068  10.650
93334W        W63934  23.755  10.257  12.859
93335W        W63935  20.616  21.035  14.473
93336W        W63936   0.433  20.803   4.080
93337W        W63937  26.056  29.181   0.900
93338W        W63938  10.560  33.844  10.424
93339W        W63939   0.339  17.797  10.695
93340W        W63940  15.195  44.589   0.980
93341W        W63941  38.156   1.897  11.494
93342W        W63942   6.263  19.041  12.105
93343W        W63943  44.860   9.763   0.526
93344W        W63944   4.824  40.978   0.086
93345W        W63945  12.851  20.691  13.318
93346W        W63946   6.218  28.149   3.612
93347W        W63947  29.633  13.888   2.442
93348W        W63948  24.017  29.256  12.430
93349W        W63949  41.987  27.055   1.153
93350W        W63950  18.367  14.004   4.634
93351W        W63951   7.815  22.938  14.405
93352W        W63952   1.861   9.457   3.775
93353W        W63953  26.600  35.100   0.237
93354W        W63954  34.569  21.001   1.066
93355W        W63955   3.147   4.213   0.264
93356W        W63956  26.865  44.774   1.866
93357W        W63957  33.222  15.468   2.925
93358W        W63958  14.155   9.576  13.899
93359W        W63959   2.670  31.418  12.094
93360W        W63960   5.647  32.054   0.470
93361W        W63961   6.224   0.321  10.544
93362W        W63962  30.201   8.707   2.468
93363W        W63963  38.880  18.337   1.459
93364W        W63964   7.168  30.228   3.639
93365W        W63965  19.311  35.630  12.621
93366W        W63966  16.335  43.292   0.279
93367W        W63967  28.588  13.942  13.817
93368W        W63968  21.011  22.724   4.262
93369W        W63969  38.372  21.604   4.118
93370W        W63970  11.228  30.196   0.303
93371W        W63971  40.455   4.052  12.187
93372W        W63972  34.109  17.301   1.706
93373W        W63973  15.754  36.124   0.568
93374W        W63974  32.344  37.442  10.717
93375W        W63975  34.363  32.583   2.771
93376W        W63976   8.301   8.138  14.834
93377W        W63977  41.372  16.688   0.866
93378W        W63978  39.113  22.099  11.230
93379W        W63979  43.504   9.762   3.188
93380W        W63980   3.684  12.178   3.456
93381W        W63981  33.885  33.196   1.740
93382W        W63982   8.070  27.285  11.555
93383W        W63983  14.493  14.630  14.301
93384W        W63984  26.096  41.998  13.531
93385W        W63985  19.071  34.367  11.206
93386W        W63986   0.361  20.675   1.262
93387W        W63987  38.049  10.342  12.067
93388W        W63988  33.599  42.012   0.307
93389W        W63989  32.471   7.803   0.366
93390W        W63990  26.970   9.239  13.534
93391W        W63991  20.966  33.595   3.723
93392W        W63992   4.328  17.034  14.422
93393W        W63993  11.235  17.346   4.920
93394W        W63994  16.267   1.930  13.881
93395W        W63995  37.386  39.355   1.213
93396W        W63996  25.305   2.470  13.843
93397W        W63997  29.148  32.948  13.124
93398W        W63998  23.951  40.225  10.573
93399W        W63999   2.449  30.634   3.188
93400W        W64000  21.548  26.180  13.751
93401W        W64001  39.836  10.209   1.395
93402W        W64002  42.320   4.630   0.475
93403W        W64003  33.488  29.144  10.813
93404W        W64004  29.162  44.316   4.220
93405W        W64005  18.323  23.984   4.304
93406W        W64006  17.164  26.720   3.580
93407W        W64007  15.936  37.998   3.138
93408W        W64008   2.963   6.080   1.819
93409W        W64009  27.526  12.137  12.506
93410W        W64010  27.635  43.903  12.554
93411W        W64011  22.321  28.350  10.406
93412W        W64012   9.610  13.744   3.342
93413W        W64013   2.720  24.141  12.053
93414W        W64014   2.986   6.422   1.366
93415W        W64015  28.992  42.063   0.999
93416W        W64016   5.894  37.843  13.028
93417W        W64017   8.897  14.891   0.399
93418W        W64018  41.439  41.030  14.525
93419W        W64019  14.218  19.107   0.377
93420W        W64020  35.152  13.305  10.861
93421W        W64021  19.276  16.500  13.183
93422W        W64022  41.366   1.904   2.387
93423W        W64023  20.651  15.433   2.217
93424W        W64024  32.135  32.903  11.152
93425W        W64025  42.898  11.242  14.434
93426W        W64026   5.115  34.362  12.991
93427W        W64027  20.615  32.326   4.875
93428W        W64028   2.280  19.513  14.552
93429W        W64029   6.476  10.963  13.213
93430W        W64030   4.397   9.732   2.655
93431W        W64031  16.092   0.241   3.354
93432W        W64032  17.184  11.870  12.171
93433W        W64033  35.879  44.716   4.205
93434W        W64034  25.756  42.445   4.705
93435W        W64035  25.457  23.085   3.857
93436W        W64036  14.349  38.964  14.088
93437W        W64037  32.390   5.865   4.631
93438W        W64038   4.331   3.421  11.567
93439W        W64039  28.644  19.771   4.497
93440W        W64040   6.976   6.330   2.338
93441W        W64041  38.446  24.330   1.856
93442W        W64042  17.193   8.686  11.222
93443W        W64043   8.734  14.487  11.782
93444W        W64044  28.948  11.742  11.580
93445W        W64045   2.660  18.393   0.839
93446W        W64046  28.529  14.725  10.683
93447W        W64047  31.008  37.974   1.309
93448W        W64048   7.921  27.022   0.478
93449W        W64049   9.805  22.264  12.047
93450W        W64050   0.854   0.629   5.206
93451W        W64051  24.459   0.025  11.973
93452W        W64052  29.197  23.778   0.072
93453W        W64053  41.372  17.379  13.920
93454W        W64054   1.314  16.948   2.319
93455W        W64055  15.294  41.234   4.149
93456W        W64056   5.974   5.607  13.919
93457W        W64057  22.609  42.539  11.561
93458W        W64058  11.616  28.723  12.853
93459W        W64059  16.844  41.895  12.970
93460W        W64060  13.059   3.233  13.452
93461W        W64061  15.231  17.638   1.881
93462W        W64062  39.863  17.814   4.717
93463W        W64063  21.271  40.938  11.938
93464W        W64064  39.552  41.283  11.227
93465W        W64065  25.989  32.554  12.526
93466W        W64066  16.592  35.833  12.861
93467W        W64067  20.848   7.090   2.254
93468W        W64068  25.156  27.656   2.131
93469W        W64069  27.489  13.547   1.980
93470W        W64070   0.181  16.723  11.631
93471W        W64071  16.012  26.207  12.078
93472W        W64072   2.014  35.439  13.864
93473W        W64073   0.925   7.714  14.331
93474W        W64074  13.233  25.927  12.681
93475W        W64075  15.862  19.219   4.052
93476W        W64076   5.534  26.479  14.302
93477W        W64077  15.763  41.830  10.701
93478W        W64078  34.739   4.924   1.408
93479W        W64079  20.248   5.402   3.373
93480W        W64080  27.239  27.400   1.790
93481W        W64081  16.756  31.207  14.328
93482W        W64082  34.534  44.262   2.760
93483W        W64083  29.127  32.475  11.303
93484W        W64084  23.232   7.271  12.926
93485W        W64085   0.319  14.397  12.935
93486W        W64086   3.278   8.916   0.861
93487W        W64087  33.533  17.063  11.034
93488W        W64088  16.973  25.213  13.503
93489W        W64089  28.194  40.403  10.685
93490W        W64090  15.967   6.374   4.941
93491W        W64091  31.397  10.753   4.519
93492W        W64092   7.279   0.459  14.412
93493W        W64093  31.311  42.503   2.181
93494W        W64094  41.957  12.731   1.757
93495W        W64095  31.606  15.044   0.275
93496W        W64096  29.420  37.927   1.297
93497W        W64097   6.618  27.941  13.133
93498W        W64098   0.601   3.488  14.182
93499W        W64099  24.157  23.267  10.587
93500W        W64100  44.291  11.750   3.935
93501W        W64101   4.196  28.073   1.918
93502W        W64102  43.672  24.431   2.265
93503W        W64103   9.794  42.236   2.744
93504W        W64104   7.749  43.635  14.802
93505W        W64105  29.106  36.328  14.810
93506W        W64106   7.188  30.126  12.933
93507W        W64107  14.591  29.236   3.156
93508W        W64108  42.792  19.550  14.787
93509W        W64109   2.449  10.075  11.934
93510W        W64110   7.419  25.169   1.415
93511W        W64111  13.917  22.777   3.729
93512W        W64112  31.588  30.419   2.404
93513W        W64113  23.256  38.028  10.417
93514W        W64114  22.978  16.784   2.223
93515W        W64115   8.096  40.546   3.388
93516W        W64116   1.412   4.185   0.901
93517W        W64117  28.979  12.317  11.091
93518W        W64118  30.343  37.579  10.099
93519W        W64119   8.845  19.336   3.271
93520W        W64120  42.384  25.624   4.397
93521W        W64121  22.996  37.637  11.936
93522W        W64122   8.156  39.563   1.081
93523W        W64123   1.947  19.556  12.375
93524W        W64124   9.765  35.013   1.417
93525W        W64125  35.361  42.206  11.299
93526W        W64126  42.944   6.867   3.096
93527W        W64127  23.404  30.739  12.142
93528W        W64128   0.172  33.632   1.520
93529W        W64129  16.569   6.961  13.970
93530W        W64130  16.300   5.893   3.158
93531W        W64131  36.103  33.053  10.780
93532W        W64132   2.907  34.351  12.068
93533W        W64133  43.878  29.155  12.516
93534W        W64134   0.938   2.865  10.617
93535W        W64135   2.425  43.784  12.975
93536W        W64136  35.569  16.010  14.924
93537W        W64137  23.666  11.467  14.875
93538W        W64138  38.816   6.661   3.148
93539W        W64139  40.419  41.780   2.257
93540W        W64140  36.015  33.257   3.732
93541W        W64141  36.061  38.074   0.874
93542W        W64142   7.475  22.499  11.089
93543W        W64143  40.370  29.196  10.662
93544W        W64144  32.557   2.721   3.414
93545W        W64145  33.421  34.119   1.378
93546W        W64146  43.062  31.639   4.122
93547W        W64147  25.534  36.268   1.357
93548W        W64148  23.199   0.904  13.408
93549W        W64149   4.818   6.530   0.517
93550W        W64150  19.746   1.102   0.407
93551W        W64151  14.121  35.583   5.010
93552W        W64152  25.734  14.030   0.224
93553W        W64153  34.069  24.279   4.592
93554W        W64154  37.121  23.762  11.571
93555W        W64155  14.418  12.870   3.239
93556W        W64156  23.739  35.915   1.054
93557W        W64157   2.821  12.897   1.780
93558W        W64158  28.720  16.884  12.840
93559W        W64159  12.363   3.195  12.942
93560W        W64160  32.718  37.494  13.483
93561W        W64161  14.606   3.202  12.953
93562W        W64162   1.646  24.530   1.362
93563W        W64163  14.383  24.130  10.421
93564W        W64164  42.273  28.517  12.443
93565W        W64165  17.094   2.807   2.611
93566W        W64166  14.731   5.370   4.263
93567W        W64167  34.124  13.529   1.798
93568W        W64168   5.424  29.449   3.843
93569W        W64169  32.085  11.695   1.925
93570W        W64170  42.060   3.234  10.727
93571W        W64171  18.759   2.474   0.825
93572W        W64172  40.776  34.905   4.913
93573W        W64173  26.420  35.193  11.139
93574W        W64174  43.297  38.468   0.295
93575W        W64175  27.391  31.418  13.476
93576W        W64176  18.687  44.490   3.219
93577W        W64177   3.218   5.856   3.396
93578W        W64178  16.333   3.943   0.308
93579W        W64179  18.073   5.760   2.213
93580W        W64180  22.111   4.011  14.037
93581W        W64181   9.640   4.515  14.894
93582W        W64182  27.728  13.368   3.387
93583W        W64183   9.629   2.424  13.478
93584W        W64184  18.738   0.885  11.115
93585W        W64185   5.459  43.703   3.282
93586W        W64186   5.753  38.837   4.790
93587W        W64187  30.086   1.599   2.388
93588W        W64188  42.608  11.713   1.197
93589W        W64189   9.609  28.592  13.075
93590W        W64190   4.689  27.766  10.740
93591W        W64191  32.759   2.737  11.113
93592W        W64192   1.556   3.410   2.313
93593W        W64193   4.401  26.237   3.139
93594W        W64194  43.861  37.035  11.122
93595W        W64195  41.524  32.112   2.243
93596W        W64196  24.498  39.660   0.238
93597W        W64197  26.587  20.762   4.357
93598W        W64198  12.634  16.236   2.632
93599W        W64199  20.125  30.606  13.361
93600W        W64200  14.090  12.060   1.638
93601W        W64201  15.388  11.134   3.325
93602W        W64202  12.233  38.046   4.669
93603W        W64203  11.093  28.664  12.913
93604W        W64204   6.708  18.349   4.532
93605W        W64205  26.358  39.579   2.032
93606W        W64206  33.653  27.252   2.379
93607W        W64207  20.709  22.096  13.147
93608W        W64208  43.915  30.382   0.848
93609W        W64209   2.993  16.587   3.154
93610W        W64210  26.928  25.966  14.554
93611W        W64211   8.734  15.363  10.328
93612W        W64212   8.689   5.442   2.706
93613W        W64213  23.992  10.249   3.987
93614W        W64214  26.574  39.029  14.555
93615W        W64215  43.324  16.238   2.878
93616W        W64216  13.627  11.798  11.126
93617W        W64217  28.057  23.815   4.749
93618W        W64218  34.532  24.054   4.482
93619W        W64219  10.179  24.976  12.494
93620W        W64220  36.758  18.326   0.368
93621W        W64221  33.024  21.543  11.276
93622W        W64222  25.152  42.124  12.621
93623W        W64223  38.047  39.811   0.088
93624W        W64224   4.537   2.354   0.762
93625W        W64225  37.395   3.009  14.927
93626W        W64226  43.731   1.428  14.323
93627W        W64227   2.310  27.153   4.526
93628W        W64228  37.037  11.150  14.790
93629W        W64229  26.347  44.986  13.619
93630W        W64230  17.455  10.498  13.792
93631W        W64231   1.148  40.012  13.359
93632W        W64232  29.437  24.388   3.719
93633W        W64233  39.359   8.143   3.297
93634W        W64234   7.862  41.394  14.297
93635W        W64235  19.114  37.443   0.458
93636W        W64236  38.307  19.531  13.354
93637W        W64237  38.827  11.212   3.160
93638W        W64238  36.905  32.613   3.368
93639W        W64239  43.376  22.064   0.396
93640W        W64240  26.982   5.983   2.672
93641W        W64241  44.937  35.098  14.137
93642W        W64242   5.713   2.393   0.013
93643W        W64243   7.906   4.323   2.160
93644W        W64244   5.354   4.463   1.284
93645W        W64245   1.707   9.680   0.279
93646W        W64246  23.854  17.622   4.649
93647W        W64247   9.346  39.773   0.035
93648W        W64248  27.456  30.433  14.994
93649W        W64249  11.662  42.913  13.457
93650W        W64250  16.769  16.229   4.113
93651W        W64251  29.713   5.087   2.024
93652W        W64252  32.944  43.685   0.818
93653W        W64253   6.514  38.861  13.994
93654W        W64254   4.333   9.466   2.223
93655W        W64255   7.733  30.561   2.259
93656W        W64256   4.952  14.300  13.842
93657W        W64257  19.862  12.265   2.933
93658W        W64258  35.806  10.707   4.868
93659W        W64259  19.023   0.426   3.135
93660W        W64260  15.291   6.328  11.034
93661W        W64261  42.399   1.820   3.385
93662W        W64262  44.180   7.802  13.556
93663W        W64263   7.702   3.030  11.333
93664W        W64264  23.927   2.996   1.330
93665W        W64265  33.053  38.725  12.882
93666W        W64266  37.961  14.694   1.864
93667W        W64267  28.352  44.069  14.292
93668W        W64268  20.071  11.475   2.403
93669W        W64269  26.629  31.212  12.600
93670W        W64270  34.430  30.162   2.344
93671W        W64271  13.168  19.566   3.298
93672W        W64272  10.320  26.195  12.183
93673W        W64273  19.060  24.094   5.003
93674W        W64274  30.731  20.505  10.634
93675W        W64275  12.860  12.839   0.003
93676W        W64276   8.403  20.303  14.899
93677W        W64277  18.567   6.933  10.986
93678W        W64278  29.271  17.727  14.474
93679W        W64279  35.068   1.840  13.298
93680W        W64280  36.310  44.826   4.488
93681W        W64281  28.866   4.744  11.356
93682W        W64282  29.007  10.844  10.689
93683W        W64283  31.185  32.046   2.334
93684W        W64284   2.966  39.738  14.579
93685W        W64285  34.797  22.137   3.428
93686W        W64286  23.417  13.389   4.185
93687W        W64287   9.067  35.311  13.400
93688W        W64288   3.136  37.242  10.687
93689W        W64289   4.236  26.965   2.507
93690W        W64290  21.147  11.346   2.287
93691W        W64291  14.342  10.302   1.816
93692W        W64292  36.043  26.075  14.016
93693W        W64293  22.125  10.274  13.328
93694W        W64294  33.779  22.947   1.355
93695W        W64295  10.009  44.727   0.891
93696W        W64296  24.851   5.974   0.981
93697W        W64297  22.097  44.999   9.470
93698W        W64298  35.815  10.592   1.139
93699W        W64299  16.777  32.385   3.679
93700W        W64300   5.371   2.977  10.588
93701W        W64301  31.008  44.568  14.904
93702W        W64302  17.629  43.320  10.379
93703W        W64303  20.795   5.290  14.925
93704W        W64304  11.187  39.925  12.865
93705W        W64305  22.032  31.392   0.532
93706W        W64306  36.950  11.797  12.325
93707W        W64307   4.947   1.863  11.284
93708W        W64308   2.462  34.926   0.469
93709W        W64309  12.809  36.517   2.850
93710W        W64310  22.056  33.526   0.036
93711W        W64311  39.592  40.374  12.493
93712W        W64312  26.204  28.605   3.687
93713W        W64313  10.362  14.709   3.600
93714W        W64314  15.622  32.126   1.227
93715W        W64315  41.223  37.665  10.977
93716W        W64316  11.855  44.475  14.794
93717W        W64317  44.916   0.903  11.020
93718W        W64318   8.181   4.133  12.153
93719W        W64319  31.557   8.573   1.753
93720W        W64320   0.864  22.059  11.607
93721W        W64321  15.460  32.321   3.564
93722W        W64322   1.533  41.987   4.129
93723W        W64323  35.245  37.588   4.061
93724W        W64324  31.373  41.131  14.405
93725W        W64325  39.041  27.100  11.680
93726W        W64326  24.039  33.980  12.504
93727W        W64327  13.511  39.017  10.202
93728W        W64328  42.005  28.841   5.017
93729W        W64329  28.079  30.662   1.226
93730W        W64330  27.401  26.033  14.834
93731W        W64331  28.428  41.962   3.757
93732W        W64332  26.783  33.109  14.934
93733W        W64333  43.718   0.468  13.882
93734W        W64334  10.876  18.721   0.374
93735W        W64335  29.369  40.684   3.483
93736W        W64336  26.127   7.260   3.298
93737W        W64337  43.608  31.535  13.903
93738W        W64338   2.490   9.424  11.139
93739W        W64339  13.386  33.167  12.115
93740W        W64340  29.065   8.308  11.163
93741W        W64341   0.827  13.380   0.490
93742W        W64342  44.558  12.385   0.813
93743W        W64343  25.135  14.264  10.707
93744W        W64344   0.330  31.720  14.013
93745W        W64345  42.784  14.054   2.167
93746W        W64346  23.559  13.785   2.909
93747W        W64347  41.929  27.164  13.883
93748W        W64348  17.786  39.856   4.221
93749W        W64349  36.455  18.728  14.810
93750W        W64350   0.884  28.969  13.490
93751W        W64351   3.364  23.766  10.720
93752W        W64352  15.639   0.316   0.013
93753W        W64353  35.883  17.872  10.731
93754W        W64354  26.696  17.243  10.431
93755W        W64355  36.473   6.899  11.661
93756W        W64356   8.690  34.548   3.700
93757W        W64357   3.883  35.399   1.689
93758W        W64358  21.180  21.030   3.163
93759W        W64359  23.664  30.412   0.346
93760W        W64360  23.249  38.264   4.534
93761W        W64361  42.629  35.970  13.287
93762W        W64362  33.631  39.971   0.640
93763W        W64363  40.575  21.151  14.912
93764W        W64364  10.750   1.311  11.865
93765W        W64365  32.094  21.494   0.301
93766W        W64366  42.045  30.011   0.370
93767W        W64367  13.234  16.302  12.870
93768W        W64368  20.467  14.339  13.915
93769W        W64369  42.483   3.705  14.313
93770W        W64370  24.061  44.883  11.269
93771W        W64371  31.823  29.207   1.215
93772W        W64372  30.035  17.620   3.512
93773W        W64373  35.078  28.705  12.085
93774W        W64374  12.458   7.337   2.778
93775W        W64375  42.576  23.725   2.365
93776W        W64376   0.377  43.598   4.714
93777W        W64377  42.849  32.113   2.660
93778W        W64378  26.118   3.119   3.257
93779W        W64379   2.934  44.311  13.339
93780W        W64380  16.163  35.507   3.157
93781W        W64381  24.055  24.624   4.644
93782W        W64382   7.401   6.763   0.425
93783W        W64383   8.556  23.599   4.015
93784W        W64384  29.386  14.846  13.577
93785W        W64385  13.287  19.274  10.990
93786W        W64386  32.080  13.159   2.764
93787W        W64387  30.408  28.145   2.266
93788W        W64388  16.632  12.195   4.633
93789W        W64389  23.685  39.768   2.885
93790W        W64390   3.359  34.588  10.129
93791W        W64391  38.372  26.429  11.532
93792W        W64392  40.123   2.163   3.616
93793W        W64393  44.274   5.192  14.124
93794W        W64394  30.889   7.621  13.932
93795W        W64395  42.954   4.712   2.610
93796W        W64396  22.963  35.540  13.591
93797W        W64397  41.743  33.886  11.001
93798W        W64398   8.313  25.598   3.591
93799W        W64399  26.037  21.323  11.575
93800W        W64400   8.768  11.780  12.592
93801W        W64401  32.055  15.620  11.900
93802W        W64402  16.119  11.769  11.628
93803W        W64403  21.004   5.807   4.717
93804W        W64404  29.655   5.903   4.658
93805W        W64405   4.413  14.804  11.441
93806W        W64406  30.175   2.822  14.436
93807W        W64407  10.556  12.245  12.168
93808W        W64408  13.746   7.282   4.529
93809W        W64409  11.482  29.547   3.547
93810W        W64410  36.578  41.445   2.764
93811W        W64411  34.067  27.408  12.474
93812W        W64412  14.642   6.885   0.957
93813W        W64413  30.611  31.269   1.970
93814W        W64414  19.163  33.192   2.850
93815W        W64415  28.767  44.873   1.247
93816W        W64416  10.667  29.151   3.437
93817W        W64417   9.072   9.750  11.961
93818W        W64418  43.434  41.117  13.025
93819W        W64419  20.756   8.854  14.233
93820W        W64420   4.401  16.623  12.569
93821W        W64421  28.533  24.156   1.132
93822W        W64422  36.937  41.234   4.653
93823W        W64423  44.417  12.166  12.876
93824W        W64424  11.230   0.105   3.792
93825W        W64425  28.591  35.410  13.383
93826W        W64426  40.945  30.882  13.981
93827W        W64427   1.359  42.535  12.161
93828W        W64428  23.719  34.080  11.145
93829W        W64429  16.086   1.205  11.120
93830W        W64430  24.380  35.014  12.063
93831W        W64431  16.369  22.971  11.941
93832W        W64432  33.912  34.887  10.408
93833W        W64433  13.407  21.651   0.187
93834W        W64434   3.103  33.977   1.472
93835W        W64435  22.115  21.454   1.078
93836W        W64436  40.502  20.945   4.274
93837W        W64437  14.192  19.015   4.771
93838W        W64438   7.509  15.831  14.372
93839W        W64439  20.003  36.069  12.750
93840W        W64440  40.478  24.486   2.290
93841W        W64441  21.848  16.135   0.434
93842W        W64442   4.002   2.742   4.277
93843W        W64443   3.842  27.067  14.300
93844W        W64444  28.028  18.307  12.077
93845W        W64445  34.102  25.158   1.744
93846W        W64446  42.326  36.618   3.253
93847W        W64447  43.765  43.481  11.497
93848W        W64448   4.765  38.071   2.665
93849W        W64449  23.213  18.737   2.571
93850W        W64450  20.144  43.748   1.223
93851W        W64451  24.285  26.085  10.700
93852W        W64452  42.772  44.440   1.111
93853W        W64453  22.492  35.569   0.778
93854W        W64454  30.744   7.334  11.845
93855W        W64455  30.189   0.828   3.749
93856W        W64456  27.164  30.648  14.652
93857W        W64457  12.591  25.511   1.242
93858W        W64458  43.407  32.010   4.211
93859W        W64459  31.036   3.405   3.618
93860W        W64460  28.850  29.593   2.234
93861W        W64461  37.568  40.508   0.053
93862W        W64462   5.450   0.270  14.256
93863W        W64463  27.701  11.178   4.168
93864W        W64464  25.585   6.311  13.812
93865W        W64465  29.381  41.920  14.726
93866W        W64466  42.976  24.022   3.109
93867W        W64467   8.664  23.255  14.851
93868W        W64468  39.255  42.044  13.303
93869W        W64469   7.764  31.966  14.374
93870W        W64470  42.771  44.044   1.899
93871W        W64471  18.387  36.931  10.763
93872W        W64472  30.777  30.009  13.175
93873W        W64473   9.805  28.274   4.075
93874W        W64474  14.337  24.836  11.197
93875W        W64475  43.383  36.616   4.099
93876W        W64476  33.431   0.885   4.565
93877W        W64477  30.074   7.082  14.820
93878W        W64478  31.859   8.400  13.455
93879W        W64479  15.221   8.383   3.633
93880W        W64480  39.268   5.766  12.836
93881W        W64481   1.468  20.615   1.850
93882W        W64482   2.779  10.939   3.880
93883W        W64483  23.285  32.473   1.373
93884W        W64484   2.476   9.671  11.578
93885W        W64485  36.593  35.373   3.280
93886W        W64486  34.857   2.287   2.819
93887W        W64487   9.945   3.730   2.024
93888W        W64488  39.873  28.920   1.733
93889W        W64489  14.685  36.837  13.457
93890W        W64490  40.998  22.357   2.899
93891W        W64491   8.187  38.399   4.099
93892W        W64492   1.925  13.601  13.801
93893W        W64493  29.873  42.554  11.600
93894W        W64494  36.156  39.074  12.051
93895W        W64495  36.507  27.249  14.899
93896W        W64496  19.645  22.228  13.756
93897W        W64497  19.793  36.428   4.703
93898W        W64498   5.793   7.314   3.075
93899W        W64499  33.381  22.522  12.694
93900W        W64500  20.563  32.875  12.389
93901W        W64501   0.692   5.288  13.400
93902W        W64502  29.435  35.527  11.890
93903W        W64503  19.607  39.724  13.209
93904W        W64504  24.709  27.515  12.531
93905W        W64505  23.036   5.247  11.559
93906W        W64506   4.118  25.020   2.102
93907W        W64507  19.620  16.426   1.102
93908W        W64508  21.553   0.957   0.200
93909W        W64509  38.081  18.191   0.715
93910W        W64510  35.022  37.662  11.997
93911W        W64511   1.007   0.346   4.636
93912W        W64512  14.188  20.373  14.942
93913W        W64513   0.438  31.219   3.086
93914W        W64514  31.011   0.964  10.663
93915W        W64515  34.793   9.556  10.729
93916W        W64516   5.741  12.553  10.645
93917W        W64517  21.564   7.120  13.019
93918W        W64518  36.364  32.245   2.366
93919W        W64519  33.005   2.540  13.401
93920W        W64520   9.362  25.987   4.220
93921W        W64521   0.967  35.989  11.973
93922W        W64522  28.076   6.849   2.711
93923W        W64523  24.459  30.484  11.670
93924W        W64524   5.728  14.725   3.740
93925W        W64525   5.964  11.243  11.204
93926W        W64526  40.272  30.008   3.589
93927W        W64527   5.234   2.792  13.803
93928W        W64528  10.789   7.916   4.878
93929W        W64529   3.875  43.999  13.065
93930W        W64530  30.494  22.984  11.906
93931W        W64531   0.363  29.567   4.141
93932W        W64532   7.620  14.794  12.581
93933W        W64533  11.749  17.332  12.433
93934W        W64534  23.664  43.005   4.586
93935W        W64535  41.238  27.030  10.617
93936W        W64536  39.008  36.355   1.478
93937W        W64537  44.774  20.774   0.848
93938W        W64538  12.846  10.291  11.662
93939W        W64539  10.272   8.247  12.148
93940W        W64540  36.326   4.874  11.703
93941W        W64541  11.373   4.225  13.179
93942W        W64542  31.460  38.305  12.701
93943W        W64543  26.674  36.115  10.161
93944W        W64544   4.422  28.734  14.955
93945W        W64545  31.663  10.648   3.602
93946W        W64546  34.358   7.267   0.426
93947W        W64547  20.621  39.080   1.697
93948W        W64548   0.317  32.853  11.205
93949W        W64549   1.330  43.957   4.100
93950W        W64550  44.249  21.058  11.499
93951W        W64551  18.302  26.960  14.522
93952W        W64552  22.645   4.739   1.339
93953W        W64553   5.448  26.641  11.921
93954W        W64554  26.688  11.639   5.016
93955W        W64555  35.407  26.516  12.713
93956W        W64556  13.158  13.325   0.532
93957W        W64557  29.486  11.675  10.773
93958W        W64558  21.821  26.554   4.508
93959W        W64559  32.533  29.942  12.544
93960W        W64560  18.114  26.056  12.541
93961W        W64561  41.922  39.710   3.217
93962W        W64562  21.505  36.844  12.342
93963W        W64563  25.696  43.290  11.796
93964W        W64564  17.798  39.375  12.471
93965W        W64565  28.104   5.462   2.432
93966W        W64566  36.821   4.411  11.133
93967W        W64567   4.943  40.490   0.040
93968W        W64568  15.300  12.413   5.051
93969W        W64569  14.191  33.062  13.461
93970W        W64570  12.249   5.339   0.552
93971W        W64571  18.372  36.110   1.860
93972W        W64572  40.382   1.723   1.357
93973W        W64573  30.493  39.265  10.741
93974W        W64574   0.985  27.159   3.886
93975W        W64575   1.416  32.601  12.546
93976W        W64576  42.961   3.630  10.347
93977W        W64577  11.200  30.673  14.862
93978W        W64578  11.212  37.647   1.159
93979W        W64579  32.712   6.466   0.775
93980W        W64580  21.103   2.950  13.010
93981W        W64581  23.209   7.966  12.521
93982W        W64582   4.897   0.926   0.109
93983W        W64583  30.558  17.649  13.854
93984W        W64584  25.580   3.994   0.081
93985W        W64585  14.219  32.498  11.995
93986W        W64586  26.768  35.757   0.736
93987W        W64587  17.282  43.666  14.733
93988W        W64588  39.324   8.713  12.935
93989W        W64589  25.269  35.400   1.211
93990W        W64590   6.372  33.525  13.558
93991W        W64591   9.131  23.685  11.644
93992W        W64592  21.523  44.222  11.617
93993W        W64593  12.744  44.359   0.309
93994W        W64594   5.238  14.815   3.354
93995W        W64595  12.086  35.975   0.096
93996W        W64596   5.635   9.354   0.927
93997W        W64597  20.031  40.409   3.176
93998W        W64598  17.724  18.536   1.749
93999W        W64599  12.692   1.887  12.907
94000W        W64600   5.740  43.974  10.558
94001W        W64601  24.589  12.455   1.479
94002W        W64602  37.420  34.457  14.105
94003W        W64603   5.840  41.575   2.317
94004W        W64604  29.776  18.287   4.593
94005W        W64605  44.842  32.300   3.885
94006W        W64606  39.041  29.503   1.978
94007W        W64607  21.290   9.243   0.888
94008W        W64608  18.059  37.678  14.579
94009W        W64609  32.946   0.484   4.124
94010W        W64610  39.532  16.932  14.828
94011W        W64611  14.481   1.728  11.653
94012W        W64612  36.076  25.920   0.923
94013W        W64613  11.121  10.008   2.956
94014W        W64614  12.439   9.682  11.173
94015W        W64615  40.643  20.608   4.615
94016W        W64616  17.158  43.693  11.643
94017W        W64617  21.811  22.954  14.715
94018W        W64618  24.214  14.457   2.734
94019W        W64619  29.609   8.287   2.255
94020W        W64620   1.307  33.183   1.381
94021W        W64621  17.296   9.890   2.783
94022W        W64622   6.598  26.035   0.926
94023W        W64623  31.633   0.292   2.784
94024W        W64624  43.825  11.136   1.246
94025W        W64625  10.144  39.573   3.810
94026W        W64626  38.895  36.946  10.889
94027W        W64627  35.336  15.272  14.428
94028W        W64628  39.558  22.034   3.864
94029W        W64629  22.433  26.941   3.419
94030W        W64630  20.256  25.929  12.191
94031W        W64631  40.715   7.920  11.426
94032W        W64632   1.355   8.871  11.790
94033W        W64633  34.855  11.271   3.028
94034W        W64634   7.868  43.222   2.718
94035W        W64635  10.386  43.899  14.186
94036W        W64636   6.164   0.028  14.937
94037W        W64637  34.686   9.071  10.616
94038W        W64638  33.727  31.550   1.727
94039W        W64639  38.997  40.887   2.457
94040W        W64640  17.650  35.596  14.367
94041W        W64641  35.193  19.546  10.330
94042W        W64642  10.714  24.891   4.802
94043W        W64643  26.682   4.289   4.869
94044W        W64644  19.217  38.425   0.542
94045W        W64645  32.359  32.638  11.558
94046W        W64646  30.467  25.580  14.068
94047W        W64647   3.434  29.261  11.558
94048W        W64648  37.450  43.811   1.766
94049W        W64649  43.454  24.658  14.299
94050W        W64650  18.229   8.066   3.669
94051W        W64651  32.101   4.803  11.274
94052W        W64652  36.466  12.888   0.020
94053W        W64653  35.390  21.480   4.478
94054W        W64654  40.064  38.557   2.665
94055W        W64655   6.765  41.468   2.698
94056W        W64656  35.296  14.528  12.459
94057W        W64657  14.819  34.147   0.817
94058W        W64658  18.021  41.245   4.041
94059W        W64659   5.674   0.628   2.129
94060W        W64660  30.000   7.369   4.689
94061W        W64661  13.634  23.194   4.412
94062W        W64662  41.445  31.348   0.861
94063W        W64663  43.632  31.647   0.107
94064W        W64664   2.339  41.565   1.846
94065W        W64665  20.798   2.011  13.889
94066W        W64666  35.325  34.979  11.972
94067W        W64667  23.072  20.927  12.968
94068W        W64668  18.629  15.581   0.408
94069W        W64669   5.397  31.638   4.091
94070W        W64670  35.568   4.159   2.794
94071W        W64671  18.077  32.602  13.014
94072W        W64672  15.694  32.677  10.686
94073W        W64673  12.701  17.776   2.889
94074W        W64674  20.126  27.030   0.940
94075W        W64675  12.440  41.421  12.005
94076W        W64676  12.181  32.875  10.659
94077W        W64677  37.384  23.153  13.860
94078W        W64678   3.484   7.152   0.442
94079W        W64679  13.136  25.278   1.372
94080W        W64680  25.927   8.458   1.369
94081W        W64681  38.634  37.127  13.924
94082W        W64682  40.853  17.659   3.596
94083W        W64683   1.366  17.058  12.977
94084W        W64684  15.027  39.071  10.688
94085W        W64685  39.364  10.337   4.131
94086W        W64686  16.247  25.146   0.433
94087W        W64687   0.061  28.918  14.921
94088W        W64688  26.925   1.400   3.710
94089W        W64689  42.315   6.469   5.134
94090W        W64690  10.583  22.627  12.127
94091W        W64691  34.438  33.602  12.940
94092W        W64692  10.093  11.432   4.199
94093W        W64693  18.689  30.138   5.060
94094W        W64694  36.403  26.235  11.208
94095W        W64695  11.070  11.132   2.690
94096W        W64696   0.492  24.730  13.078
94097W        W64697  40.657   4.753  14.371
94098W        W64698   6.360  14.398  10.729
94099W        W64699  30.718  18.195   4.956
94100W        W64700  10.045  27.103   4.307
94101W        W64701  40.599   2.231  13.013
94102W        W64702   1.310  42.382   2.868
94103W        W64703  14.189  39.341  10.674
94104W        W64704  41.418   6.210   1.691
94105W        W64705  31.020  10.977   1.801
94106W        W64706  31.551   3.239  13.832
94107W        W64707  31.554  42.857   2.473
94108W        W64708  42.854  21.458  13.315
94109W        W64709  34.270  35.852  11.197
94110W        W64710  36.021  27.689   3.285
94111W        W64711  14.070  43.568   2.665
94112W        W64712  15.753  15.584   3.202
94113W        W64713  31.965   0.602  10.264
94114W        W64714  33.901  30.113   2.229
94115W        W64715  11.756  11.605   4.611
94116W        W64716  19.694  35.351  11.199
94117W        W64717   3.853   6.094  11.532
94118W        W64718  16.643  18.054   3.530
94119W        W64719   8.896  34.693   4.968
94120W        W64720  28.079  23.300   1.165
94121W        W64721  31.360   6.902  12.898
94122W        W64722  17.872  16.766  13.094
94123W        W64723  42.633   7.446   4.029
94124W        W64724  13.261  44.386   0.489
94125W        W64725  30.982  40.701   4.581
94126W        W64726  24.121  37.771  14.459
94127W        W64727  23.180   1.517   2.229
94128W        W64728  12.785   5.739  10.828
94129W        W64729   7.840   3.970   0.944
94130W        W64730  32.553  42.594   1.019
94131W        W64731   4.849  22.228   3.667
94132W        W64732  25.561  24.579   3.562
94133W        W64733   4.799  23.433  14.595
94134W        W64734  23.697   8.699   2.128
94135W        W64735   0.152   5.355  13.113
94136W        W64736  38.827  38.145   4.290
94137W        W64737   6.640  24.869  13.353
94138W        W64738  31.912  38.313  11.969
94139W        W64739  35.163  36.612  14.914
94140W        W64740  41.366   6.412  11.449
94141W        W64741  40.946  25.889   4.239
94142W        W64742  10.153  31.938   3.828
94143W        W64743   4.263  19.558  11.447
94144W        W64744   8.599  29.361  10.987
94145W        W64745  37.604  18.201  14.809
94146W        W64746  34.055  36.877  12.902
94147W        W64747   3.252  18.133  13.801
94148W        W64748  20.005  38.987  12.925
94149W        W64749  29.686  43.465  11.270
94150W        W64750  32.992  38.029   2.387
94151W        W64751  33.310  10.723  14.381
94152W        W64752  35.433  43.579   1.452
94153W        W64753   4.914  43.574  11.475
94154W        W64754  42.328  21.531  13.399
94155W        W64755  12.542  32.358  13.872
94156W        W64756   3.394   5.512  11.992
94157W        W64757  44.521  10.005  13.573
94158W        W64758  19.748  15.538   4.644
94159W        W64759  43.868   0.198   0.767
94160W        W64760  30.619   2.138  14.839
94161W        W64761  31.328  13.704   0.280
94162W        W64762  31.927  14.766  11.193
94163W        W64763  26.754  31.125  14.817
94164W        W64764  29.651   0.416   2.926
94165W        W64765   9.854  37.537   1.363
94166W        W64766   6.472  22.579   3.694
94167W        W64767  32.001   7.403  12.466
94168W        W64768  22.034  34.551  10.644
94169W        W64769  43.036  18.939  12.537
94170W        W64770   5.263  22.850  10.991
94171W        W64771  38.888  44.054  12.542
94172W        W64772  40.560  31.669   0.357
94173W        W64773  14.748   5.043   1.945
94174W        W64774  18.788  17.458   4.194
94175W        W64775  20.609  18.430   0.846
94176W        W64776  13.425  11.325  11.393
94177W        W64777  19.502  12.718   2.914
94178W        W64778  17.182  34.154   2.305
94179W        W64779   0.870  26.280   1.367
94180W        W64780  12.868   7.277  13.322
94181W        W64781   0.965   4.980   1.606
94182W        W64782   1.754   5.023   4.007
94183W        W64783  26.920   3.473  10.590
94184W        W64784  26.326  19.588  12.375
94185W        W64785  43.362  20.496  11.570
94186W        W64786   8.150  35.602  14.406
94187W        W64787   7.238  10.151  12.972
94188W        W64788  22.265  28.668  13.009
94189W        W64789  26.991  22.624   0.304
94190W        W64790  14.102  22.722   4.217
94191W        W64791  10.242  28.012   0.031
94192W        W64792  27.448  18.011   4.200
94193W        W64793  39.863   5.598   4.049
94194W        W64794   2.520  20.123  13.136
94195W        W64795  32.325  22.874   9.908
94196W        W64796   0.013  40.649  13.610
94197W        W64797  20.252  14.841  12.335
94198W        W64798  12.746   0.974  12.814
94199W        W64799  34.933   4.389  13.389
94200W        W64800  25.233  28.505  12.542
94201W        W64801  42.121  24.976   3.802
94202W        W64802  11.634  34.974  12.871
94203W        W64803  22.008  20.930   2.883
94204W        W64804   2.367  17.917  11.948
94205W        W64805  25.553   0.866  10.300
94206W        W64806   6.254  18.564   1.364
94207W        W64807  23.720  10.603  13.599
94208W        W64808  19.187   2.248   5.049
94209W        W64809  16.137   4.126   2.365
94210W        W64810  31.241  26.605  12.229
94211W        W64811  29.468   5.668   1.630
94212W        W64812   7.173   5.945   4.084
94213W        W64813  31.526  18.014   4.341
94214W        W64814  26.926  15.294   3.851
94215W        W64815   6.147  40.092  12.047
94216W        W64816   2.987   5.644   0.332
94217W        W64817  42.435  13.822   0.718
94218W        W64818  12.286   1.820  11.158
94219W        W64819  24.593   3.049  14.386
94220W        W64820   9.215  29.790   4.910
94221W        W64821   0.208  25.253   2.759
94222W        W64822  37.952  35.853  10.925
94223W        W64823   6.114   6.849   0.911
94224W        W64824  22.213  32.577  14.831
94225W        W64825   2.440  13.600   1.848
94226W        W64826   7.477   5.792  13.046
94227W        W64827  32.622  11.997   4.386
94228W        W64828  28.872   2.042   1.918
94229W        W64829   7.491  32.485  13.882
94230W        W64830  23.064   3.060   0.563
94231W        W64831  31.411  36.643  11.405
94232W        W64832  25.570  34.620   0.751
94233W        W64833  11.722  23.538  13.846
94234W        W64834  19.079   2.467  13.870
94235W        W64835  34.998  18.758   1.110
94236W        W64836  30.870  41.844   1.710
94237W        W64837  22.185  16.078  14.824
94238W        W64838  22.531  23.126   0.312
94239W        W64839  21.213   5.421  12.142
94240W        W64840  22.543  41.478  10.965
94241W        W64841  25.595  11.559  11.227
94242W        W64842  40.603   0.072   3.757
94243W        W64843  23.582  24.623  10.711
94244W        W64844  10.769  38.959   4.184
94245W        W64845   9.220   3.073   0.968
94246W        W64846   4.406   1.239   2.133
94247W        W64847   5.624  29.528  12.859
94248W        W64848  34.930  26.443  11.567
94249W        W64849  42.984  38.542  13.940
94250W        W64850  30.898   0.344   0.512
94251W        W64851  28.560  17.999   4.848
94252W        W64852  25.027   1.410  11.912
94253W        W64853  20.781  16.681  13.374
94254W        W64854   8.283  42.288  12.440
94255W        W64855  12.653  40.530  14.888
94256W        W64856   8.157  35.675  12.130
94257W        W64857  18.707  28.730  14.544
94258W        W64858  37.867  25.511   4.678
94259W        W64859  15.078   7.159  10.594
94260W        W64860  36.994  22.705  10.416
94261W        W64861   6.804   0.697  14.333
94262W        W64862  40.607  41.288  11.995
94263W        W64863  14.885  40.649   5.006
94264W        W64864  37.484  15.188  12.629
94265W        W64865  40.899  20.038   2.409
94266W        W64866   4.712   7.932   3.755
94267W        W64867  16.337  43.773   0.497
94268W        W64868   7.224   3.385   3.826
94269W        W64869  11.339  20.551   2.811
94270W        W64870  43.267  17.009   1.442
94271W        W64871  34.117  19.329  14.731
94272W        W64872   0.299  14.585   2.890
94273W        W64873  39.574  20.008  12.941
94274W        W64874  31.174  15.258  13.942
94275W        W64875   2.848   3.665  14.523
94276W        W64876  16.067  30.550  11.008
94277W        W64877  39.291   0.492   0.971
94278W        W64878   9.398  15.609  11.532
94279W        W64879  35.642   2.431  12.436
94280W        W64880   6.141  40.785   4.071
94281W        W64881  35.883   3.726  12.109
94282W        W64882  43.299  27.776   1.427
94283W        W64883  31.865   9.864   0.002
94284W        W64884  35.576   5.948  13.523
94285W        W64885  10.547  21.879   4.078
94286W        W64886  23.681   7.346   1.310
94287W        W64887   5.724   8.089  11.804
94288W        W64888  20.056  14.389   3.909
94289W        W64889  41.048  18.699   2.812
94290W        W64890  16.613  27.172   0.032
94291W        W64891  28.929  14.229   4.751
94292W        W64892  10.252  30.967   1.299
94293W        W64893   9.355  17.651  14.220
94294W        W64894  26.671  35.106  12.982
94295W        W64895  41.817  22.591   2.366
94296W        W64896  26.614  39.936   2.354
94297W        W64897  33.493  18.983   1.861
94298W        W64898  34.969  19.279   4.246
94299W        W64899   1.402  32.077   4.605
94300W        W64900   6.705  14.595   0.963
94301W        W64901   6.851  11.086   3.311
94302W        W64902  28.336  43.550   1.873
94303W        W64903  27.127   2.826   2.191
94304W        W64904  14.352  20.628   4.579
94305W        W64905   5.889  25.814  13.025
94306W        W64906  44.913  24.011  13.718
94307W        W64907  34.739  16.054  11.591
94308W        W64908  31.446   8.082  13.416
94309W        W64909  35.994  26.343  12.585
94310W        W64910  24.936  32.113  14.682
94311W        W64911  23.674   3.883  10.702
94312W        W64912  14.623  31.827   1.359
94313W        W64913  22.698  16.901   3.107
94314W        W64914   8.513  27.948   0.418
94315W        W64915  44.302  26.698  14.849
94316W        W64916  10.388  11.084   3.194
94317W        W64917  19.536  43.686  14.414
94318W        W64918  42.470  30.324  11.639
94319W        W64919  28.045  21.050  13.126
94320W        W64920  27.758  30.637  10.322
94321W        W64921  40.413  11.419   1.317
94322W        W64922   1.963  18.163   4.162
94323W        W64923  42.703  11.307  13.809
94324W        W64924  14.608  25.309  13.344
94325W        W64925   7.670  21.341  11.631
94326W        W64926   9.072  20.655  14.289
94327W        W64927  14.706  31.551   3.403
94328W        W64928   1.824  41.640   4.892
94329W        W64929  10.771   2.675   1.460
94330W        W64930  21.435   7.674  12.111
94331W        W64931  30.938  12.142  12.985
94332W        W64932  23.798  21.687  14.119
94333W        W64933   0.782  21.926   2.828
94334W        W64934   3.809  15.002  11.648
94335W        W64935  32.622  15.041  14.816
94336W        W64936  38.007  18.160  10.206
94337W        W64937  38.892  22.728   3.542
94338W        W64938  33.291  42.973   4.579
94339W        W64939  21.558  16.905   4.747
94340W        W64940  12.643  16.806  12.438
94341W        W64941  29.438  35.965  11.596
94342W        W64942   7.754  14.612   3.257
94343W        W64943   9.054  11.937   0.869
94344W        W64944  11.248  20.150  11.398
94345W        W64945  24.006  20.370   3.390
94346W        W64946  26.881  39.326   2.025
94347W        W64947  26.368  39.849  13.419
94348W        W64948   1.271  21.496   3.446
94349W        W64949  13.490  44.836   3.500
94350W        W64950  20.505  33.597  10.565
94351W        W64951  24.573  37.372   4.168
94352W        W64952  19.774  22.861   5.087
94353W        W64953  12.373  19.729   1.994
94354W        W64954  21.306  22.817  12.538
94355W        W64955  37.419  44.858   2.882
94356W        W64956  14.139  19.831  14.011
94357W        W64957  20.595  17.641  11.558
94358W        W64958  25.080  39.062  13.238
94359W        W64959  17.533   2.449  11.174
94360W        W64960  21.030  21.143   0.569
94361W        W64961  29.983  33.375  11.211
94362W        W64962  25.308  16.632  13.014
94363W        W64963   5.778   8.289   4.075
94364W        W64964   3.962   4.755  13.825
94365W        W64965  28.533  28.620   1.320
94366W        W64966  36.626  16.710   1.036
94367W        W64967   7.934  27.623  12.035
94368W        W64968  21.217  21.588   0.772
94369W        W64969   5.595  41.442   4.696
94370W        W64970  24.211   1.220  13.470
94371W        W64971  44.694   8.346  14.731
94372W        W64972  21.538  34.504  10.822
94373W        W64973  18.731  22.694  13.353
94374W        W64974  28.508  22.558   2.367
94375W        W64975   9.918   2.939  11.679
94376W        W64976  25.321  24.539   0.832
94377W        W64977  26.640  39.073  10.853
94378W        W64978  22.432  23.113   4.073
94379W        W64979   7.412  30.566   1.839
94380W        W64980  20.673  13.702   3.934
94381W        W64981  13.605   6.313   0.009
94382W        W64982   4.378  43.891  12.336
94383W        W64983  33.464   2.397   0.756
94384W        W64984   2.331  40.568   3.281
94385W        W64985   9.740  44.495  14.250
94386W        W64986   0.406  22.711   0.927
94387W        W64987  13.796  28.984  14.919
94388W        W64988  32.252  23.981   4.540
94389W        W64989   8.312  39.516  11.201
94390W        W64990  28.659  22.525   3.197
94391W        W64991  14.704  34.401  13.395
94392W        W64992  42.517  10.779  13.857
94393W        W64993  24.285  31.990  12.446
94394W        W64994  17.028  24.535  14.022
94395W        W64995  21.818  31.911  11.289
94396W        W64996  32.970  37.050  13.549
94397W        W64997   0.584   4.414   2.141
94398W        W64998  41.297  17.280   2.775
94399W        W64999  25.771  37.487   1.793
94400W        W65000   6.906  36.069   1.455
94401W        W65001  16.132  27.995   4.550
94402W        W65002   0.539  44.271  10.950
94403W        W65003   7.437  29.073  12.126
94404W        W65004   1.842  42.492  14.358
94405W        W65005   3.609  35.864  12.982
94406W        W65006  12.446  28.249   1.052
94407W        W65007  16.353   1.073   2.927
94408W        W65008  43.883  22.228  13.049
94409W        W65009   0.845  20.363  13.087
94410W        W65010  16.278   3.670   2.631
94411W        W65011  24.172   9.684   1.214
94412W        W65012  11.156  28.470  12.441
94413W        W65013  35.798  33.557   4.103
94414W        W65014   1.470  27.060  13.391
94415W        W65015  12.256  19.746   0.968
94416W        W65016  43.726  36.784  13.027
94417W        W65017   0.043  10.906   4.054
94418W        W65018  35.058   3.617   1.323
94419W        W65019  27.023  37.967   1.618
94420W        W65020  10.711   3.847  13.825
94421W        W65021  39.569  39.912  14.861
94422W        W65022   8.316  22.081  13.552
94423W        W65023  21.265   2.718  13.465
94424W        W65024   7.327  21.791  12.635
94425W        W65025  39.935  26.955  11.997
94426W        W65026   2.726  17.214   1.440
94427W        W65027  19.323  37.633   1.766
94428W        W65028  38.076  36.105  12.825
94429W        W65029  16.725  33.897   4.524
94430W        W65030   0.297  23.554  13.448
94431W        W65031  38.124  34.321   1.328
94432W        W65032  44.474  14.909   0.721
94433W        W65033  12.355   7.140   4.532
94434W        W65034  22.107  25.643  14.600
94435W        W65035  29.173  33.621  13.509
94436W        W65036   6.430  44.391   0.367
94437W        W65037  41.581  10.898   1.827
94438W        W65038  16.824  17.002  14.516
94439W        W65039  21.612  14.284  10.329
94440W        W65040  38.300  33.552   1.197
94441W        W65041   3.047  24.905   1.375
94442W        W65042  29.173   3.322  13.807
94443W        W65043   6.064  17.261   3.735
94444W        W65044  33.488  43.947  12.068
94445W        W65045  32.025   5.181  10.922
94446W        W65046  10.667   2.264   0.293
94447W        W65047  16.683   7.272  14.471
94448W        W65048  21.081  12.795   3.589
94449W        W65049  15.926  42.516  14.906
94450W        W65050  33.553  21.941   2.870
94451W        W65051  35.055  15.562   3.551
94452W        W65052  10.719  17.896  13.573
94453W        W65053  10.241  34.865   1.259
94454W        W65054  29.235  31.540   0.858
94455W        W65055   0.330  44.919  12.518
94456W        W65056   2.259  21.115  10.519
94457W        W65057  34.874  38.901  10.698
94458W        W65058   5.483  25.334  14.885
94459W        W65059  34.387  42.835   1.372
94460W        W65060  38.302   4.462  13.816
94461W        W65061   8.074  33.922   3.295
94462W        W65062  31.393  42.965  10.869
94463W        W65063  19.180  21.307  13.604
94464W        W65064  39.291  37.846  14.953
94465W        W65065   8.954  32.417   2.393
94466W        W65066  18.958   4.959   1.738
94467W        W65067  28.151  22.304  13.188
94468W        W65068   7.814   8.151   3.267
94469W        W65069  18.819  40.299  11.091
94470W        W65070   9.114  31.860  12.033
94471W        W65071  27.446   5.562  11.208
94472W        W65072  41.694  39.047   2.832
94473W        W65073   1.998  44.377   4.523
94474W        W65074  14.753  44.920   3.085
94475W        W65075  41.372  28.308  11.410
94476W        W65076  42.890  26.655  12.781
94477W        W65077   9.440  24.178   4.544
94478W        W65078  12.646  39.299   4.433
94479W        W65079  14.716  11.256  14.085
94480W        W65080  43.641  37.134   2.414
94481W        W65081  39.474  17.206   3.390
94482W        W65082   3.962   7.058   0.281
94483W        W65083  13.693  24.015  13.882
94484W        W65084  21.794  29.988  12.967
94485W        W65085  26.497  17.750   3.315
94486W        W65086  30.803  23.180   2.588
94487W        W65087  19.639  22.145  10.934
94488W        W65088   5.351  16.686  14.476
94489W        W65089  17.558  17.609  14.075
94490W        W65090   1.278  36.950   1.495
94491W        W65091  16.975  44.040  13.441
94492W        W65092   4.353  36.873   2.230
94493W        W65093   8.693  29.594  12.843
94494W        W65094  37.462   3.766  13.493
94495W        W65095   9.163  41.323  11.426
94496W        W65096  11.436  10.208   5.097
94497W        W65097   3.438  12.959  13.807
94498W        W65098  39.291  25.990  11.086
94499W        W65099   2.495  32.040  11.062
94500W        W65100   2.404  34.965   1.896
94501W        W65101  17.593  17.099   4.265
94502W        W65102  27.926  22.127   1.934
94503W        W65103   0.566   9.059  11.117
94504W        W65104  44.837  33.754   2.828
94505W        W65105  16.826  22.926  13.363
94506W        W65106   6.181   0.291  13.539
94507W        W65107  36.981  25.525   1.930
94508W        W65108  22.354   4.777   2.315
94509W        W65109  30.203   3.937  13.842
94510W        W65110  36.085  24.605  11.933
94511W        W65111  26.863  30.630   1.804
94512W        W65112   6.258  12.785   0.474
94513W        W65113  37.126  38.059   3.562
94514W        W65114   2.449  22.616   4.234
94515W        W65115   8.749  23.155   2.206
94516W        W65116   4.341  36.090   4.020
94517W        W65117  12.053  36.821   4.655
94518W        W65118  33.998  33.892  12.855
94519W        W65119  23.233   6.125   2.385
94520W        W65120  12.194  12.160   1.486
94521W        W65121   1.378  34.381   4.272
94522W        W65122  38.116   3.000   1.742
94523W        W65123   8.100  12.035  14.689
94524W        W65124   4.692  22.495  10.391
94525W        W65125  29.809  30.883  12.831
94526W        W65126  14.852  35.400  10.277
94527W        W65127  17.234  12.299   4.784
94528W        W65128  16.648  21.948  10.658
94529W        W65129   9.895  35.892  12.623
94530W        W65130  44.575   2.303  14.620
94531W        W65131  44.279  32.984   1.931
94532W        W65132  36.108  17.847  12.438
94533W        W65133  29.713   0.529   4.281
94534W        W65134  35.606  12.737   0.463
94535W        W65135  23.185  11.732   2.564
94536W        W65136  20.664  32.740   1.293
94537W        W65137  28.944  21.959   0.427
94538W        W65138  37.882  24.734   2.225
94539W        W65139  37.081  19.229  12.846
94540W        W65140   2.396  39.080  12.448
94541W        W65141   3.892  23.650   4.980
94542W        W65142  16.307  33.217   3.692
94543W        W65143  30.679  28.731   0.466
94544W        W65144   2.998  38.337  11.059
94545W        W65145  11.068   5.984  13.452
94546W        W65146  33.128  15.132  14.907
94547W        W65147  12.324   5.336   4.057
94548W        W65148  42.865  17.580  14.020
94549W        W65149  17.205  40.049   2.958
94550W        W65150  11.117  33.830  13.072
94551W        W65151   5.734  26.393  13.816
94552W        W65152  13.636  38.467   0.899
94553W        W65153  13.795  26.643  12.646
94554W        W65154  37.500  27.115  12.211
94555W        W65155  44.290   3.890   1.345
94556W        W65156  39.449  26.020  14.518
94557W        W65157  43.774  15.209   1.291
94558W        W65158   7.346  27.523  11.204
94559W        W65159  16.755  26.621  12.379
94560W        W65160  19.624  32.991   4.635
94561W        W65161  22.494  42.717   5.129
94562W        W65162  27.135  42.602   0.811
94563W        W65163  30.364  14.782   4.081
94564W        W65164  31.739   1.360   4.604
94565W        W65165   7.649  27.468  14.964
94566W        W65166  24.788  27.436  11.157
94567W        W65167   2.384  14.000   2.636
94568W        W65168  44.046   7.957  14.031
94569W        W65169   7.284  38.813  10.796
94570W        W65170   4.637  23.089  12.505
94571W        W65171  19.105   6.340  14.961
94572W        W65172  26.626  39.933   3.356
94573W        W65173  28.903  20.273  13.169
94574W        W65174  11.368  21.180   1.730
94575W        W65175   0.556   9.084   0.158
94576W        W65176   1.350   4.174  14.399
94577W        W65177  36.287  31.391   3.245
94578W        W65178  42.741  38.149  11.457
94579W        W65179  20.035  32.428   2.355
94580W        W65180  10.780  38.971   2.312
94581W        W65181   6.933  27.885   1.807
94582W        W65182  34.529  13.324   0.009
94583W        W65183  28.047  36.929   3.585
94584W        W65184  13.638   9.153   1.006
94585W        W65185  43.249  43.586  13.044
94586W        W65186   0.253   6.551  11.569
94587W        W65187   4.615  24.000   4.637
94588W        W65188  22.325   6.815   4.245
94589W        W65189  22.155  44.352   2.313
94590W        W65190   5.912   9.876   1.822
94591W        W65191  31.668  32.140   3.788
94592W        W65192  40.600  25.301   3.598
94593W        W65193   7.387  13.889   3.170
94594W        W65194   6.411   7.259  10.457
94595W        W65195  15.537  32.917  14.112
94596W        W65196   6.910  32.689  13.321
94597W        W65197  27.901  28.955   3.248
94598W        W65198  24.579  43.877  13.526
94599W        W65199  44.939   5.774   1.074
94600W        W65200  39.920  25.406  10.756
94601W        W65201  12.798   9.699   0.351
94602W        W65202  12.282   4.014   2.178
94603W        W65203  37.915  34.860  14.475
94604W        W65204   2.363  21.208  12.031
94605W        W65205  43.281  43.931  12.587
94606W        W65206  27.426   7.981   0.518
94607W        W65207  33.968  37.330   2.660
94608W        W65208   7.754  26.276  10.619
94609W        W65209  38.404  22.224  11.655
94610W        W65210  43.583  34.632  13.545
94611W        W65211  23.107   5.292   1.971
94612W        W65212  22.598  16.784   3.617
94613W        W65213  35.497   1.355   2.311
94614W        W65214   8.275  31.124  11.972
94615W        W65215  30.475  30.365   0.959
94616W        W65216   2.934  31.948   2.141
94617W        W65217  36.706   4.143   0.848
94618W        W65218   4.636   4.852   0.072
94619W        W65219  11.557  30.158  14.253
94620W        W65220   3.734  18.974  11.839
94621W        W65221  40.219   7.086  13.889
94622W        W65222   6.726  32.059  11.490
94623W        W65223  43.472  15.471   2.453
94624W        W65224  15.712   2.074   3.938
94625W        W65225   3.533  35.412  10.777
94626W        W65226  23.194  10.622  11.205
94627W        W65227  22.906   3.386   3.256
94628W        W65228  29.730  33.543   0.324
94629W        W65229  44.317  19.317   2.959
94630W        W65230   4.242  39.272   2.796
94631W        W65231  44.056  12.667   2.800
94632W        W65232   9.811   1.578   1.247
94633W        W65233   2.933   5.879  14.454
94634W        W65234  23.099  11.119   1.227
94635W        W65235   3.436  20.718  10.821
94636W        W65236  44.511  43.133  11.062
94637W        W65237  10.152  23.653  14.448
94638W        W65238   3.297  31.614   3.627
94639W        W65239   0.263  39.961  12.528
94640W        W65240  41.353   7.728   0.408
94641W        W65241  12.789  11.558   1.444
94642W        W65242  12.954  12.561   2.819
94643W        W65243  22.629  19.200   1.923
94644W        W65244  30.365  16.193   1.861
94645W        W65245   0.617  36.314  14.903
94646W        W65246   9.865   6.333  13.769
94647W        W65247  13.776  21.209  12.651
94648W        W65248  36.962  33.970  12.943
94649W        W65249  24.021  42.974   3.279
94650W        W65250  32.591   4.083   0.978
94651W        W65251  39.188  22.782  13.400
94652W        W65252  19.309  24.969   5.125
94653W        W65253  25.398   3.042   4.132
94654W        W65254  28.047   1.821   4.617
94655W        W65255  17.271   8.876   1.575
94656W        W65256  40.476  22.517  11.924
94657W        W65257  25.686  43.090   1.262
94658W        W65258   9.132  43.748  14.114
94659W        W65259  12.239  19.791   3.328
94660W        W65260  29.178  28.399   2.796
94661W        W65261   6.627  13.459   0.434
94662W        W65262   0.810  33.662   4.075
94663W        W65263  23.974  38.101  13.475
94664W        W65264  38.378  17.718   1.948
94665W        W65265  10.402  21.522  12.977
94666W        W65266  25.503   8.279  12.049
94667W        W65267  35.516   5.511   3.141
94668W        W65268  26.339  22.092  14.401
94669W        W65269  41.097  42.442  10.318
94670W        W65270  34.051  21.081   4.675
94671W        W65271  18.135  34.976   2.369
94672W        W65272  12.244  15.906   1.879
94673W        W65273  15.339  13.737  13.639
94674W        W65274  17.699  38.032   3.268
94675W        W65275  30.365  15.155  10.031
94676W        W65276  12.114  43.225   2.641
94677W        W65277   8.149   5.116   4.457
94678W        W65278   3.136  20.272   4.547
94679W        W65279  42.318  17.630  13.362
94680W        W65280  41.806  12.669  14.858
94681W        W65281  32.691  12.582   4.138
94682W        W65282   5.379  15.516   0.311
94683W        W65283  23.000   4.469   3.741
94684W        W65284  30.434  12.892  13.910
94685W        W65285  27.716  43.080   4.188
94686W        W65286  24.583  39.465  11.176
94687W        W65287   7.934  26.908   4.597
94688W        W65288  24.205   4.484   3.185
94689W        W65289  27.888  21.104   3.624
94690W        W65290  27.085  29.286  13.502
94691W        W65291  34.001  12.748  14.308
94692W        W65292  27.239  43.224  14.787
94693W        W65293  40.794  43.557   3.539
94694W        W65294  37.949  16.220   4.623
94695W        W65295   3.008  13.746   4.062
94696W        W65296  42.760   2.045   4.546
94697W        W65297  25.610  12.004   0.581
94698W        W65298  20.803  39.013   0.269
94699W        W65299   4.481  13.369  12.738
94700W        W65300  38.300  26.817  14.394
94701W        W65301  31.068  24.748  11.916
94702W        W65302  37.391  11.730  12.065
94703W        W65303  16.013  27.762   1.521
94704W        W65304  18.917  23.552   0.305
94705W        W65305  22.256   4.732   4.318
94706W        W65306  12.634  32.004   2.806
94707W        W65307  14.715  23.149  12.179
94708W        W65308  26.634  37.161   0.145
94709W        W65309  32.032  30.683   4.466
94710W        W65310  25.917  14.308   1.837
94711W        W65311   6.638  44.829   1.642
94712W        W65312  40.861  42.991   0.861
94713W        W65313  41.957  42.676   1.302
94714W        W65314  40.820  31.126  13.500
94715W        W65315  27.124  11.543  10.265
94716W        W65316   6.093  34.154  14.284
94717W        W65317   6.526  13.625  11.079
94718W        W65318  24.787  19.165   4.211
94719W        W65319  21.121  16.474   1.027
94720W        W65320  21.006  37.556  11.725
94721W        W65321  29.158  31.087   2.269
94722W        W65322   2.387  24.211   2.345
94723W        W65323  29.571  20.605   2.409
94724W        W65324  11.621  36.848   1.367
94725W        W65325  30.498  35.455   0.918
94726W        W65326  25.342  24.071  11.552
94727W        W65327  17.198  18.807  14.495
94728W        W65328   4.440   3.762   1.881
94729W        W65329  13.933  40.414  13.821
94730W        W65330  19.395  26.405  12.380
94731W        W65331  16.075  29.903   0.569
94732W        W65332  15.789  22.077  12.814
94733W        W65333   3.973  25.852   0.394
94734W        W65334   2.744  19.810   2.149
94735W        W65335  33.402  18.734  14.256
94736W        W65336   0.572   5.343   4.568
94737W        W65337  37.026  34.592   1.988
94738W        W65338  39.825   9.144   3.608
94739W        W65339  31.547   0.383  14.562
94740W        W65340  30.067  37.299   0.433
94741W        W65341  14.824  25.915   0.311
94742W        W65342  22.091  18.743   0.375
94743W        W65343   5.374  13.333  12.228
94744W        W65344  15.613  21.194   2.195
94745W        W65345   5.839  40.488   3.766
94746W        W65346  38.130  31.710  14.310
94747W        W65347  29.254   1.699   1.921
94748W        W65348   8.232  27.480   4.098
94749W        W65349  40.811  16.156  13.030
94750W        W65350  22.181   6.148  14.374
94751W        W65351   8.626  26.472  14.611
94752W        W65352  20.142  13.120   0.942
94753W        W65353  15.811  23.938  13.465
94754W        W65354  38.519   9.109   1.340
94755W        W65355  25.805  13.872   3.374
94756W        W65356  14.905  29.506  12.621
94757W        W65357  40.103   6.855   0.010
94758W        W65358  22.295  26.554   5.101
94759W        W65359  40.270   3.888   0.810
94760W        W65360  27.642  37.134   4.499
94761W        W65361  25.794   4.728  11.667
94762W        W65362   8.603  21.589   1.286
94763W        W65363  24.583  20.657  13.893
94764W        W65364  32.115   0.001   3.529
94765W        W65365  39.353  36.119  13.408
94766W        W65366   4.699  19.532  11.144
94767W        W65367   6.368  36.575  11.991
94768W        W65368  35.018   3.393  11.727
94769W        W65369  37.756  19.341  12.831
94770W        W65370  30.321  38.972  10.327
94771W        W65371   5.423   8.120   1.508
94772W        W65372   2.314  28.076  11.429
94773W        W65373  25.592   8.656  10.562
94774W        W65374  27.048  30.590  13.712
94775W        W65375   3.408  16.831  14.483
94776W        W65376  11.636   1.724  11.018
94777W        W65377   6.433  20.844  14.428
94778W        W65378   9.877  24.060   2.193
94779W        W65379  35.844   9.744  12.652
94780W        W65380   9.119  10.759   1.967
94781W        W65381  42.253  26.501   3.645
94782W        W65382   2.811   4.420  12.490
94783W        W65383  14.798  32.182   0.805
94784W        W65384  27.982  19.849   2.390
94785W        W65385  12.438  12.231   1.942
94786W        W65386  35.999   5.737  12.357
94787W        W65387  40.980  38.734   1.599
94788W        W65388  43.596  20.144   1.333
94789W        W65389  31.189   9.736   2.395
94790W        W65390  25.126  13.518   4.423
94791W        W65391  29.728  44.441   2.221
94792W        W65392  37.896   0.855  14.356
94793W        W65393  10.712  41.748  12.738
94794W        W65394  15.942  22.526   5.124
94795W        W65395  10.933  43.632   1.397
94796W        W65396   6.336   4.004  11.996
94797W        W65397  38.553  40.143   1.597
94798W        W65398   8.181  32.070   1.858
94799W        W65399   9.704  29.941   4.842
94800W        W65400  16.782  33.295  11.464
94801W        W65401  28.851  18.875  14.346
94802W        W65402  17.633   1.236  14.044
94803W        W65403  23.680  24.428   1.845
94804W        W65404  30.747   6.098   1.735
94805W        W65405  32.114  18.173   1.090
94806W        W65406  10.248  42.426   1.891
94807W        W65407  41.995  40.808   2.325
94808W        W65408   5.918  22.454   4.261
94809W        W65409   2.054  42.067   2.487
94810W        W65410  36.244  24.795   4.100
94811W        W65411  25.794   7.320   2.863
94812W        W65412  39.441  11.256   0.349
94813W        W65413  23.137  28.420   1.652
94814W        W65414  41.823  10.575  11.589
94815W        W65415  23.825   5.562   1.731
94816W        W65416  32.554  21.099   0.900
94817W        W65417   8.169  28.212  10.657
94818W        W65418  19.522   9.412   3.841
94819W        W65419  41.117  26.157  10.492
94820W        W65420  17.090  37.869   0.923
94821W        W65421  31.786  18.289  12.511
94822W        W65422  42.118  26.094  10.577
94823W        W65423  22.537   4.304  10.832
94824W        W65424  44.340  30.179  12.907
94825W        W65425  44.948  32.629  11.501
94826W        W65426  36.889   6.197   3.555
94827W        W65427  22.977  34.970  12.524
94828W        W65428   8.278  17.159  11.642
94829W        W65429  30.453   5.915  13.015
94830W        W65430  40.010   7.820  12.825
94831W        W65431  41.777  34.225  11.412
94832W        W65432  11.276  12.651   3.586
94833W        W65433  27.906   4.032  13.541
94834W        W65434   2.618  22.115  12.102
94835W        W65435  20.646  42.381   0.871
94836W        W65436  35.472   6.938   0.590
94837W        W65437   3.413  23.012   0.465
94838W        W65438  39.597   9.188  12.932
94839W        W65439  38.263  11.802  12.371
94840W        W65440   5.679  14.666   1.457
94841W        W65441  15.520  31.460  10.995
94842W        W65442   2.666  22.523   0.533
94843W        W65443  27.973  43.032  12.656
94844W        W65444  19.647  10.640   3.294
94845W        W65445  42.399  32.127   2.384
94846W        W65446  44.139  39.284   5.130
94847W        W65447  35.875  25.117   2.384
94848W        W65448  28.253   4.912  10.261
94849W        W65449  41.636  31.905  11.594
94850W        W65450   6.403  27.462  11.976
94851W        W65451  33.370  29.694   0.165
94852W        W65452  17.449  34.166  12.273
94853W        W65453  16.133  29.974  13.520
94854W        W65454  40.299  39.097  14.511
94855W        W65455   2.288   0.930   3.358
94856W        W65456   2.359   0.268   2.707
94857W        W65457  24.039  40.633   0.556
94858W        W65458  40.004  17.254  13.780
94859W        W65459  37.508   6.889  11.626
94860W        W65460  43.479  29.255   3.240
94861W        W65461   3.917   3.696   4.577
94862W        W65462  10.372  25.299  12.077
94863W        W65463  44.137  36.498   4.550
94864W        W65464   7.179   6.328   3.754
94865W        W65465  18.163  26.180   3.689
94866W        W65466  17.724   9.762  10.727
94867W        W65467  33.010  19.900   1.534
94868W        W65468  29.005   0.499  11.348
94869W        W65469  17.199  32.087   3.620
94870W        W65470  21.747  26.432   1.788
94871W        W65471  24.473  11.872  11.910
94872W        W65472  41.431  35.002   3.698
94873W        W65473  40.208  28.637  13.416
94874W        W65474  38.650  40.786  13.682
94875W        W65475  19.491  15.564  14.579
94876W        W65476  19.652   4.702   3.518
94877W        W65477  28.227  38.017   1.012
94878W        W65478   4.333   0.806   4.339
94879W        W65479  10.142  41.280  12.144
94880W        W65480  37.292   5.554  10.926
94881W        W65481  15.116  27.395  12.924
94882W        W65482  14.986  21.041  13.625
94883W        W65483  44.950  23.731  11.492
94884W        W65484   0.302   4.343  11.055
94885W        W65485  34.361  38.287  10.432
94886W        W65486  30.524  17.057  14.385
94887W        W65487  44.509  28.258  12.056
94888W        W65488  43.195  23.802  12.273
94889W        W65489  18.903  40.475  14.852
94890W        W65490  24.668  10.804   0.943
94891W        W65491   1.864  26.173  10.708
94892W        W65492  26.603  42.952   4.683
94893W        W65493   4.597  26.317  12.085
94894W        W65494  20.066  42.948   3.182
94895W        W65495  16.191  10.172   2.711
94896W        W65496  36.766  44.988   0.472
94897W        W65497  20.746  35.466   3.606
94898W        W65498  12.123  10.313  12.442
94899W        W65499   0.061  10.583  13.010
94900W        W65500  11.932   6.464   4.392
94901W        W65501  11.897   4.651   0.026
94902W        W65502  11.865  26.784  12.449
94903W        W65503  18.875  43.043  12.995
94904W        W65504   7.092   7.740  14.118
94905W        W65505  36.992  42.566   3.580
94906W        W65506   6.827   6.677   3.876
94907W        W65507  12.355  24.103   1.871
94908W        W65508   0.464  43.442   2.345
94909W        W65509  38.761   9.267   4.763
94910W        W65510  39.736  41.014  11.686
94911W        W65511  25.906  16.867   2.393
94912W        W65512  18.389  31.020  13.034
94913W        W65513  37.840  29.016   0.012
94914W        W65514  35.157  36.073  10.910
94915W        W65515  20.257  12.605   0.984
94916W        W65516  33.550  30.449   1.393
94917W        W65517   3.737   1.035   1.698
94918W        W65518   4.450  10.708   4.467
94919W        W65519  39.548  28.351  14.992
94920W        W65520  23.784   2.961  12.856
94921W        W65521   7.267  15.167   0.487
94922W        W65522   2.610   1.876   1.356
94923W        W65523  32.613  10.616  12.142
94924W        W65524  44.230  18.763   2.928
94925W        W65525  38.380  15.291   2.560
94926W        W65526   9.644   5.876  10.807
94927W        W65527   5.457  33.581   1.380
94928W        W65528  34.088  22.233   1.827
94929W        W65529  19.222  11.319  13.130
94930W        W65530  10.776  17.122  14.770
94931W        W65531  15.675  30.453   3.718
94932W        W65532  29.291  38.041   2.264
94933W        W65533  21.399  22.776   3.766
94934W        W65534  37.414  17.716  14.902
94935W        W65535  23.492  37.036   0.838
94936W        W65536  26.467  27.932   3.715
94937W        W65537  14.298  14.766   0.875
94938W        W65538   3.639  14.273  10.485
94939W        W65539  30.935   2.247   3.312
94940W        W65540   0.396  34.087  14.416
94941W        W65541   3.161  36.894   0.359
94942W        W65542  32.041  22.613   3.193
94943W        W65543  42.309  42.779   0.923
94944W        W65544   0.406   2.762  11.680
94945W        W65545  16.051   0.731   1.717
94946W        W65546   2.933  14.060  13.469
94947W        W65547   4.300  29.870  12.812
94948W        W65548  27.945  29.429   1.993
94949W        W65549  34.808  26.616   3.287
94950W        W65550  11.205  18.622   2.277
94951W        W65551   6.290  14.134   2.784
94952W        W65552  22.368  38.300  12.897
94953W        W65553  25.188  15.229   3.884
94954W        W65554  12.570  24.175  13.929
94955W        W65555  41.805   7.934   4.519
94956W        W65556  10.242  40.033  13.457
94957W        W65557  22.727   4.850   4.582
94958W        W65558  42.008  43.071  12.645
94959W        W65559  42.166  29.418   3.637
94960W        W65560  19.103  36.137   3.341
94961W        W65561  39.539  39.296  11.881
94962W        W65562   6.221   5.205  10.603
94963W        W65563   8.810  13.762   4.402
94964W        W65564  37.878   3.183   3.121
94965W        W65565  28.055  11.498   0.536
94966W        W65566  15.822  33.545  12.977
94967W        W65567   7.856  18.462   2.757
94968W        W65568  40.725   1.471  11.560
94969W        W65569  26.257   5.684   1.686
94970W        W65570  12.751  39.156  13.852
94971W        W65571  28.845  18.618   2.189
94972W        W65572   2.628   2.454   0.681
94973W        W65573  36.542   2.169  11.284
94974W        W65574   2.325  29.900   2.692
94975W        W65575  42.495  33.686   4.723
94976W        W65576   8.731  37.314   1.437
94977W        W65577  42.951  27.840   4.754
94978W        W65578  40.137  21.111  14.532
94979W        W65579  34.999  27.612   1.312
94980W        W65580  43.710  42.228  12.985
94981W        W65581  25.214   4.810   1.271
94982W        W65582  42.767  32.928  13.065
94983W        W65583  11.165  38.961  11.297
94984W        W65584  38.514  29.363   2.638
94985W        W65585   5.995  10.109   0.377
94986W        W65586  34.555  44.883  11.464
94987W        W65587   1.387  33.652  14.386
94988W        W65588  30.558  36.827   1.906
94989W        W65589  14.634  10.838   3.227
94990W        W65590  39.549  39.116  14.080
94991W        W65591  36.540   4.832  11.212
94992W        W65592   7.243  28.522  14.250
94993W        W65593  13.642  29.548   2.427
94994W        W65594  31.128  44.756  14.058
94995W        W65595  38.573  13.496   3.279
94996W        W65596  41.921  32.081   3.559
94997W        W65597  18.290  34.574  12.937
94998W        W65598  34.124  33.967   0.708
94999W        W65599  36.012   0.809  11.208
95000W        W65600   7.846  31.289  13.752
95001W        W65601  28.333   7.679  10.968
95002W        W65602  14.365  10.610   1.383
95003W        W65603  22.549   8.749   0.289
95004W        W65604  14.891   6.579  14.256
95005W        W65605  28.094  31.424  11.149
95006W        W65606  32.401  26.663  14.824
95007W        W65607  21.055  35.405   0.926
95008W        W65608   5.478  33.598   2.270
95009W        W65609   3.836  26.686  10.609
95010W        W65610  44.319   8.119   4.035
95011W        W65611   5.080   2.906   4.946
95012W        W65612  33.574   4.862  10.506
95013W        W65613  21.157  37.915   2.314
95014W        W65614  29.528  23.599  14.718
95015W        W65615  18.290  28.910   0.892
95016W        W65616  41.873   8.680  12.884
95017W        W65617   8.462  17.302   4.022
95018W        W65618  13.742  11.146   0.063
95019W        W65619  32.023   0.429   4.482
95020W        W65620   8.850  44.240   4.109
95021W        W65621   6.841  21.552  13.813
95022W        W65622  22.781   9.381   5.008
95023W        W65623  37.765  37.033   2.868
95024W        W65624  37.819   3.854   1.382
95025W        W65625   0.686  16.784  11.626
95026W        W65626  42.123  32.587  13.297
95027W        W65627  38.605  34.496  13.896
95028W        W65628  43.554  44.983   1.347
95029W        W65629  21.151  41.486  13.606
95030W        W65630   4.990  31.501  11.861
95031W        W65631  20.609  27.645   2.756
95032W        W65632  15.827  27.324  10.833
95033W        W65633  15.714   9.846   3.643
95034W        W65634  32.912  41.912   1.687
95035W        W65635  21.116  35.415   1.889
95036W        W65636  42.695   6.392  12.516
95037W        W65637  30.288  43.303   2.283
95038W        W65638  11.267  37.086  11.462
95039W        W65639  26.365  32.128  14.273
95040W        W65640  24.455  11.586   1.333
95041W        W65641  12.582  40.795   3.782
95042W        W65642  43.476  33.532   0.339
95043W        W65643  22.537  23.696   5.170
95044W        W65644  22.453  17.682  14.100
95045W        W65645  28.715  36.421   2.653
95046W        W65646   6.414  44.178  12.056
95047W        W65647  25.090  11.830   5.089
95048W        W65648  21.047   5.409  14.427
95049W        W65649  18.610  19.648   9.734
95050W        W65650   2.736   0.060  13.873
95051W        W65651   4.304  41.840  13.929
95052W        W65652  11.837  19.932   0.366
95053W        W65653   2.434   2.987  10.475
95054W        W65654   4.681  36.983   1.757
95055W        W65655  13.302  18.131   3.296
95056W        W65656  14.335  10.679   2.844
95057W        W65657   1.922  40.994   0.008
95058W        W65658   2.867  29.577   2.788
95059W        W65659  21.282  24.948   3.615
95060W        W65660   6.849  43.021   2.786
95061W        W65661  33.432  31.644   1.308
95062W        W65662  33.425  38.295  11.951
95063W        W65663   9.879   9.853  14.626
95064W        W65664  44.827  10.978   1.219
95065W        W65665  42.329  30.633  14.904
95066W        W65666   3.656   3.328  14.796
95067W        W65667  39.345  35.597  13.465
95068W        W65668   7.324  27.533   4.118
95069W        W65669  36.342  14.390   0.773
95070W        W65670  37.956  12.568   2.875
95071W        W65671  34.654  42.475   3.251
95072W        W65672  39.782  23.828   3.895
95073W        W65673  34.533   6.562   2.523
95074W        W65674  30.684  31.094   0.176
95075W        W65675   8.319   6.789  12.046
95076W        W65676  10.636   7.400  14.309
95077W        W65677  26.529  39.059  12.026
95078W        W65678   0.107  14.389  14.012
95079W        W65679  20.482  10.085   2.323
95080W        W65680  32.764  30.010  13.560
95081W        W65681  29.120  37.071   4.820
95082W        W65682  10.059  28.226  11.295
95083W        W65683  28.639  20.575   0.390
95084W        W65684  36.163  23.494   0.694
95085W        W65685  31.947  27.498   0.878
95086W        W65686  11.576  16.811   0.896
95087W        W65687  35.561  42.982  11.078
95088W        W65688  24.404   2.741  11.178
95089W        W65689  21.427   4.335  13.845
95090W        W65690   3.342   1.268  13.067
95091W        W65691  28.261  33.414   4.563
95092W        W65692  16.674  12.909  13.573
95093W        W65693  35.136  30.054  12.026
95094W        W65694  15.378  11.282   4.287
95095W        W65695  24.684  39.594   4.651
95096W        W65696  38.113   2.373  13.932
95097W        W65697  44.548  23.461  14.949
95098W        W65698  38.568   4.709  13.441
95099W        W65699  23.044  34.967  11.543
95100W        W65700  25.980  21.832  10.582
95101W        W65701  17.370  27.674   4.317
95102W        W65702   0.802  36.239  13.397
95103W        W65703  27.100   0.914  14.880
95104W        W65704  32.591  37.295  11.168
95105W        W65705  10.691  44.914   1.703
95106W        W65706  33.506  11.563  12.222
95107W        W65707   0.813  38.360  14.730
95108W        W65708   3.166  20.743  12.649
95109W        W65709  16.398  11.107   4.069
95110W        W65710  32.078  21.733   0.779
95111W        W65711   1.699  29.934  12.553
95112W        W65712  30.630   0.677  10.387
95113W        W65713   5.318  33.365  11.386
95114W        W65714   4.742   7.699  11.507
95115W        W65715  27.739  37.860   3.203
95116W        W65716  13.261  16.816   1.941
95117W        W65717  10.790  16.580   2.264
95118W        W65718   1.827  43.922  14.428
95119W        W65719  22.159  11.138   4.113
95120W        W65720   3.405   9.402  14.077
95121W        W65721  43.369   0.178   0.906
95122W        W65722  35.192  23.529   4.571
95123W        W65723  30.476  17.099   4.669
95124W        W65724  24.743  11.438  13.192
95125W        W65725  36.633  34.863   4.195
95126W        W65726  25.010  19.609  10.704
95127W        W65727  34.883  32.150  13.976
95128W        W65728   7.736  21.209   0.482
95129W        W65729   3.421   8.263   3.691
95130W        W65730  29.328  21.401   9.859
95131W        W65731  16.060  39.166  13.340
95132W        W65732   7.679  43.348   4.327
95133W        W65733   1.190   8.736   1.609
95134W        W65734  12.720  37.962   1.617
95135W        W65735  17.198  34.552   3.639
95136W        W65736  23.051  40.082  14.351
95137W        W65737   0.343  17.011  14.901
95138W        W65738  14.382  17.850  12.880
95139W        W65739   0.440  18.035  11.145
95140W        W65740   2.437   9.418  14.882
95141W        W65741  13.271  41.651   3.170
95142W        W65742   5.925  29.343   1.420
95143W        W65743  15.288  14.939   2.967
95144W        W65744  14.562  16.538  11.611
95145W        W65745   3.685  22.791   1.953
95146W        W65746  17.554  11.612   0.492
95147W        W65747  41.873  39.453   3.716
95148W        W65748  38.985  44.918   3.095
95149W        W65749   1.872  36.949   2.294
95150W        W65750  17.085  33.171  11.882
95151W        W65751  23.749  17.596  14.473
95152W        W65752  10.602  31.547  14.224
95153W        W65753  44.724  17.878  14.317
95154W        W65754  43.430  17.707   2.918
95155W        W65755  39.867  20.712  10.739
95156W        W65756  19.800  21.788   2.340
95157W        W65757  41.371  19.324   3.660
95158W        W65758  43.205   9.088   2.780
95159W        W65759   9.057  38.657  13.735
95160W        W65760  10.792  30.175  11.214
95161W        W65761  10.132  30.556   3.622
95162W        W65762   1.025  31.418   3.275
95163W        W65763   7.116  40.311   2.330
95164W        W65764   5.387  36.542  11.201
95165W        W65765   5.344  37.532   1.203
95166W        W65766   9.123  40.919  13.441
95167W        W65767  43.806  22.789  11.773
95168W        W65768  20.344   8.198  14.723
95169W        W65769  13.578   0.165  14.378
95170W        W65770   4.311  37.536   0.001
95171W        W65771  43.858   0.256  14.324
95172W        W65772  15.306   8.109   0.716
95173W        W65773   2.631  33.828   2.334
95174W        W65774  23.666   7.344  11.103
95175W        W65775  34.876  16.078  10.793
95176W        W65776  44.732  16.722   0.765
95177W        W65777  10.870  30.882   0.309
95178W        W65778  15.291   5.332  13.886
95179W        W65779  41.574  21.305  13.954
95180W        W65780   1.546   5.805   4.791
95181W        W65781  27.937  44.706   0.854
95182W        W65782  42.799  11.723   3.541
95183W        W65783  13.031  35.951  10.905
95184W        W65784  32.366   5.753  13.914
95185W        W65785  10.228  16.884  12.014
95186W        W65786  34.004  40.576   1.648
95187W        W65787  12.691  38.698  12.072
95188W        W65788   3.790  29.343  11.160
95189W        W65789  30.428  16.722   2.731
95190W        W65790  27.636   7.445  13.998
95191W        W65791  44.006  17.228  11.180
95192W        W65792  18.042  21.134  12.492
95193W        W65793  17.980  33.430   5.540
95194W        W65794  22.629  23.251  14.419
95195W        W65795   2.408  12.693   4.677
95196W        W65796  44.212  29.101   3.642
95197W        W65797  33.103  15.604  11.910
95198W        W65798  14.270  24.458  10.820
95199W        W65799   5.928   0.141   3.353
95200W        W65800  43.326  24.108  14.163
95201W        W65801  38.727  29.733   2.936
95202W        W65802  28.074   3.202   0.788
95203W        W65803  38.358  30.338  14.424
95204W        W65804  19.204   9.621  13.987
95205W        W65805  13.778  38.060   1.825
95206W        W65806   6.401  12.516  11.619
95207W        W65807  22.851  31.930   3.251
95208W        W65808   3.438  39.962  14.535
95209W        W65809  19.168  14.379   3.438
95210W        W65810  35.639   5.156  14.470
95211W        W65811   6.832  31.374   4.137
95212W        W65812  20.326  27.115   4.798
95213W        W65813   4.429   3.518   3.851
95214W        W65814  35.916  16.099  12.075
95215W        W65815   6.286  42.313  12.150
95216W        W65816  28.903  16.120  13.037
95217W        W65817  19.309  20.766  13.370
95218W        W65818   8.162   9.841  10.640
95219W        W65819  32.989  26.410  10.753
95220W        W65820  29.670  32.559   0.536
95221W        W65821  41.465  29.714   1.609
95222W        W65822  22.553   9.918  12.601
95223W        W65823  12.659  35.843  11.994
95224W        W65824  25.195   4.081   2.311
95225W        W65825   0.914  14.292  14.495
95226W        W65826  16.602  30.159  13.347
95227W        W65827  24.687  13.745  13.331
95228W        W65828  34.589  27.479  12.563
95229W        W65829  16.240  24.253  13.506
95230W        W65830   8.852  10.439   2.731
95231W        W65831  32.253  12.183   4.708
95232W        W65832   8.309   2.432   2.143
95233W        W65833  15.541  21.243  12.873
95234W        W65834  18.271   8.158   2.648
95235W        W65835  16.856   0.001   1.326
95236W        W65836   7.382  39.957  13.151
95237W        W65837  32.355  16.404   1.585
95238W        W65838  33.304  10.865   0.251
95239W        W65839  15.363  22.014  12.523
95240W        W65840  10.609  37.931  11.563
95241W        W65841  21.069  15.280   1.959
95242W        W65842  29.546  41.154   3.634
95243W        W65843  23.842  27.644  10.819
95244W        W65844  40.542  19.098  11.665
95245W        W65845  39.637  37.978   4.037
95246W        W65846  35.917  25.633   3.565
95247W        W65847   7.728  12.297  11.260
95248W        W65848  10.435  37.837   2.143
95249W        W65849  40.759  27.880  11.227
95250W        W65850  24.578  43.454   4.611
95251W        W65851  25.473  33.666   0.268
95252W        W65852  43.712  26.650  11.634
95253W        W65853  14.632  43.066   3.153
95254W        W65854  22.757  34.498  12.536
95255W        W65855   9.794  27.911  12.493
95256W        W65856  20.571  13.152   4.606
95257W        W65857  22.941  38.531  12.159
95258W        W65858  15.856  36.007  13.454
95259W        W65859  38.840  18.899   4.058
95260W        W65860  18.055  31.546   1.138
95261W        W65861  43.798   6.098   5.604
95262W        W65862   4.415  41.104  14.691
95263W        W65863  11.909  17.454  10.797
95264W        W65864  34.846  20.537   2.696
95265W        W65865   1.216  41.806  11.690
95266W        W65866  27.072  23.584   4.067
95267W        W65867  20.592  23.030  10.473
95268W        W65868   1.829  33.110   2.804
95269W        W65869  17.682  25.918  11.678
95270W        W65870  11.263  12.738   0.504
95271W        W65871   8.402  13.179  14.937
95272W        W65872  25.618  22.570   3.655
95273W        W65873  39.957  31.048  13.122
95274W        W65874   0.392  37.041  12.106
95275W        W65875  35.344  37.852  13.093
95276W        W65876  42.195  43.173   4.950
95277W        W65877  41.824  44.089   0.827
95278W        W65878  23.008  17.171   3.670
95279W        W65879  19.699  29.155   3.615
95280W        W65880  31.001  41.602   2.188
95281W        W65881  13.916   4.435   1.701
95282W        W65882   8.753  19.782   2.440
95283W        W65883  42.510  17.399   0.736
95284W        W65884   5.649  22.627   4.649
95285W        W65885  18.684  42.337   0.546
95286W        W65886   2.741  13.615   2.609
95287W        W65887  37.340   1.448  11.491
95288W        W65888  27.794   9.190  13.896
95289W        W65889  21.801  38.345  13.865
95290W        W65890  28.365  25.818  12.803
95291W        W65891  33.480  38.090  13.739
95292W        W65892  18.265  12.652   2.824
95293W        W65893  29.944  14.230  11.510
95294W        W65894  24.048  17.925   4.285
95295W        W65895  40.827  41.173   4.205
95296W        W65896  44.885  36.313  10.477
95297W        W65897  23.217  36.947  12.949
95298W        W65898   6.894  36.103  14.131
95299W        W65899  31.418  11.227  11.913
95300W        W65900  31.665  41.977   0.328
95301W        W65901  13.104  41.818   2.166
95302W        W65902  43.183  21.217   4.020
95303W        W65903  35.577   1.544  14.996
95304W        W65904   4.539   8.857  11.509
95305W        W65905   7.734  13.207   1.871
95306W        W65906  42.058  14.418   2.533
95307W        W65907  28.087  23.873   0.321
95308W        W65908  28.846  34.424   1.875
95309W        W65909  11.126  33.689   2.388
95310W        W65910   2.523  22.462   3.378
95311W        W65911  16.053   1.612   1.961
95312W        W65912  37.872  22.156   2.411
95313W        W65913  35.617  42.306   4.123
95314W        W65914  23.253   8.524  13.453
95315W        W65915   5.652  32.094  12.472
95316W        W65916  29.411  28.747  11.548
95317W        W65917  12.578   1.995   1.020
95318W        W65918  36.944  15.564   2.343
95319W        W65919   2.271   9.731   4.595
95320W        W65920  33.993  32.706   1.241
95321W        W65921  15.649  37.880   0.452
95322W        W65922  14.146  10.412  14.383
95323W        W65923  32.047  13.372   2.275
95324W        W65924  15.532  14.178  10.697
95325W        W65925   6.462  43.007   4.796
95326W        W65926   9.078  29.641   1.411
95327W        W65927  37.171   4.397   0.956
95328W        W65928   1.352  26.690   2.166
95329W        W65929  19.389  25.809   2.520
95330W        W65930  36.814   4.722   9.843
95331W        W65931  43.244  14.066  13.047
95332W        W65932  41.876  21.775   4.366
95333W        W65933   8.744  32.450  12.465
95334W        W65934  44.356  42.022  14.308
95335W        W65935  19.424  29.722   2.912
95336W        W65936  11.825  42.482   3.173
95337W        W65937  10.654  42.010  13.312
95338W        W65938  21.615  37.962   2.816
95339W        W65939  10.125  30.093   1.841
95340W        W65940  39.917  36.975  13.364
95341W        W65941  13.718  13.081  12.908
95342W        W65942   5.831  43.683  11.489
95343W        W65943  36.356  38.900   1.004
95344W        W65944  38.170   9.852   0.023
95345W        W65945  18.337  21.131  10.624
95346W        W65946  33.468  28.005  11.858
95347W        W65947  10.169  11.383   9.601
95348W        W65948  44.305  31.385  14.526
95349W        W65949   8.295   2.211  11.014
95350W        W65950   0.519  44.864  14.439
95351W        W65951  41.969  26.304   4.936
95352W        W65952  33.884  24.321  11.560
95353W        W65953  27.300  30.917   1.680
95354W        W65954  42.153  19.756   1.827
95355W        W65955  41.917  44.591   1.700
95356W        W65956  40.213  24.094  13.299
95357W        W65957  43.893  32.170   1.775
95358W        W65958  29.982  15.476   0.829
95359W        W65959  25.287  28.099   2.856
95360W        W65960  36.025  10.406  13.021
95361W        W65961  22.066  24.660   2.286
95362W        W65962  28.274  21.266  12.126
95363W        W65963   5.204   3.750  14.258
95364W        W65964   5.442  29.080   2.730
95365W        W65965  42.510  23.546   1.860
95366W        W65966   4.315   4.972   2.812
95367W        W65967  23.270  16.849  13.050
95368W        W65968  11.342  13.276   2.368
95369W        W65969  37.331  29.655  10.483
95370W        W65970   0.974  17.574   3.245
95371W        W65971  43.377  43.447  10.651
95372W        W65972  25.227  27.966  10.637
95373W        W65973  29.474   1.558  10.228
95374W        W65974  26.262  25.803  11.670
95375W        W65975  13.697  11.523  12.893
95376W        W65976  44.516  20.086  10.108
95377W        W65977  27.597   0.944   1.041
95378W        W65978  27.018  32.102  14.870
95379W        W65979  35.131   6.203  14.480
95380W        W65980  24.015  42.847  12.515
95381W        W65981  44.907  16.387  10.918
95382W        W65982   6.653  41.949  10.855
95383W        W65983   2.131  16.054   3.745
95384W        W65984  42.941  26.657   1.474
95385W        W65985   0.982  22.844  14.208
95386W        W65986  21.967  19.810   3.724
95387W        W65987  39.607  24.324   4.025
95388W        W65988   9.454  23.633   0.258
95389W        W65989  32.506   9.368   1.388
95390W        W65990  36.529  11.733   4.135
95391W        W65991  21.160  27.253  11.385
95392W        W65992  16.175  22.391  13.958
95393W        W65993  44.491  15.163  10.834
95394W        W65994  27.155  12.775   3.789
95395W        W65995  27.655  26.628  13.535
95396W        W65996  41.071   7.644   3.867
95397W        W65997  13.461  12.135  14.437
95398W        W65998  28.162  42.711   2.398
95399W        W65999  20.244  26.883  12.522
95400W        W66000  22.535  43.405  11.446
95401W        W66001  20.973  40.516  12.106
95402W        W66002  33.661  33.866  14.786
95403W        W66003  11.100  37.044   4.724
95404W        W66004  15.662  11.375   1.297
95405W        W66005  39.320  34.592   3.234
95406W        W66006  13.181   1.840  10.734
95407W        W66007  24.790  42.899   3.860
95408W        W66008  12.211  39.826  10.897
95409W        W66009  24.785  42.454  13.586
95410W        W66010  44.511  31.673   3.183
95411W        W66011  27.916  24.222   2.815
95412W        W66012  12.411  20.260   0.951
95413W        W66013  31.957  39.902  14.883
95414W        W66014  16.694   2.262   3.654
95415W        W66015   7.673  20.254  10.708
95416W        W66016   1.256  43.885  11.019
95417W        W66017  34.437  24.592  13.824
95418W        W66018  19.134  32.311   4.659
95419W        W66019  15.701  19.712  14.732
95420W        W66020  30.144  16.722   4.502
95421W        W66021  35.130  22.819  11.002
95422W        W66022  21.946  42.826   2.361
95423W        W66023  22.484   5.695   3.179
95424W        W66024  12.646  37.264   1.305
95425W        W66025  12.979   9.112  12.260
95426W        W66026  26.938  22.929  11.157
95427W        W66027   6.468  22.045   3.671
95428W        W66028   8.346  30.669   4.412
95429W        W66029   9.333  40.307   0.825
95430W        W66030  32.187  27.531  13.089
95431W        W66031  36.516  12.677  12.388
95432W        W66032  44.002  13.070   4.267
95433W        W66033  40.096   4.071  11.218
95434W        W66034  33.778   6.364   2.240
95435W        W66035   3.873  18.104  14.872
95436W        W66036  16.330   1.470   3.326
95437W        W66037  43.123  44.704   1.380
95438W        W66038  22.116  34.477   4.534
95439W        W66039  24.705  40.885   1.921
95440W        W66040  37.014  39.447  14.390
95441W        W66041  28.459  30.104   2.925
95442W        W66042  31.326   4.671   0.041
95443W        W66043  43.334  43.320  13.477
95444W        W66044  28.094   8.843  11.822
95445W        W66045  30.149  13.835  12.991
95446W        W66046  22.149  18.539   3.017
95447W        W66047   5.187   3.677  14.906
95448W        W66048  23.700  44.206   1.229
95449W        W66049  38.335  20.144  14.033
95450W        W66050  13.353  33.226  14.305
95451W        W66051  37.554  31.403  11.150
95452W        W66052   1.306  24.163  13.946
95453W        W66053  41.510  30.125  13.938
95454W        W66054  31.016  24.617   0.401
95455W        W66055  11.765  11.136  12.090
95456W        W66056  16.600   7.892  12.938
95457W        W66057  15.091  13.587  11.695
95458W        W66058  42.281  34.386   2.887
95459W        W66059   4.487  19.640  13.820
95460W        W66060  42.754  30.078  14.571
95461W        W66061  12.236  24.109   0.516
95462W        W66062  14.792  31.171  13.735
95463W        W66063  21.712  10.311   2.579
95464W        W66064  30.845   4.750  12.638
95465W        W66065  42.453  18.733  12.814
95466W        W66066   1.431   1.198  11.033
95467W        W66067  43.235  40.508   0.846
95468W        W66068  10.189  30.065  10.052
95469W        W66069  15.594  28.255   4.633
95470W        W66070  28.940  14.528   1.448
95471W        W66071  38.504  22.716  10.707
95472W        W66072  17.210  23.458  11.168
95473W        W66073  28.120   8.844   3.824
95474W        W66074  15.896  33.870   2.823
95475W        W66075  25.473  38.101   3.901
95476W        W66076  31.490  27.685   1.866
95477W        W66077  37.739  41.017   0.266
95478W        W66078  23.707  22.834  14.276
95479W        W66079  16.100  12.050   3.165
95480W        W66080  31.176  22.755   1.176
95481W        W66081   5.977  28.118  11.659
95482W        W66082  36.501  14.598  11.026
95483W        W66083  28.049   4.979   2.225
95484W        W66084  24.709   2.914   4.965
95485W        W66085  32.340   6.622  14.330
95486W        W66086  39.581  15.368   4.571
95487W        W66087  11.716  44.310   4.510
95488W        W66088  30.938   3.859  12.450
95489W        W66089   4.461  32.549   2.459
95490W        W66090  38.924   5.415  13.068
95491W        W66091  42.600  20.783  11.165
95492W        W66092  35.947   9.896  13.136
95493W        W66093  36.307  43.803   3.946
95494W        W66094  25.556  31.443   4.594
95495W        W66095  33.262  30.217   3.844
95496W        W66096  43.843   1.403  12.972
95497W        W66097  15.653  23.096   4.169
95498W        W66098  36.135  17.540  12.050
95499W        W66099  30.316  31.710   2.873
95500W        W66100  13.137   8.223  11.915
95501W        W66101  22.099  25.557   0.096
95502W        W66102  18.283  17.532   3.983
95503W        W66103  42.112   7.695  14.982
95504W        W66104  41.092  28.551  13.844
95505W        W66105  23.992  21.481   0.966
95506W        W66106   6.214  34.038   3.668
95507W        W66107   1.432  29.141   0.952
95508W        W66108   5.716  19.317   0.229
95509W        W66109   4.234  11.316   4.856
95510W        W66110   4.743  37.130   2.476
95511W        W66111   9.387  15.627   0.524
95512W        W66112  43.236  40.905  11.657
95513W        W66113  22.263  40.723  10.756
95514W        W66114  36.346  33.770   2.198
95515W        W66115  38.364  42.113   2.823
95516W        W66116   3.997  41.489  10.480
95517W        W66117  43.357  22.981   4.741
95518W        W66118  19.657   3.258  11.075
95519W        W66119   5.297  30.092   2.851
95520W        W66120  37.433  13.130  14.502
95521W        W66121  35.860  37.686   3.318
95522W        W66122   7.379   9.163  13.922
95523W        W66123   4.894  26.918  10.976
95524W        W66124   0.567  29.414   2.821
95525W        W66125  13.301   8.892  14.400
95526W        W66126  25.627  44.481   0.028
95527W        W66127  28.550  36.672   3.301
95528W        W66128  20.515  16.677   3.743
95529W        W66129  12.057   2.430  13.400
95530W        W66130  37.461  44.586   2.437
95531W        W66131  28.566  40.876  11.993
95532W        W66132  40.391  17.294   3.676
95533W        W66133  24.973  24.597  14.388
95534W        W66134  10.690  11.542   4.784
95535W        W66135  27.960  39.162   0.286
95536W        W66136   2.120  29.078  12.951
95537W        W66137  41.524   8.780  13.323
95538W        W66138   4.021  22.780   3.302
95539W        W66139   1.463   2.145   2.377
95540W        W66140  23.191  36.737  11.603
95541W        W66141  44.813  20.126  10.526
95542W        W66142  18.035  18.553  12.801
95543W        W66143  39.001  15.808   1.355
95544W        W66144  29.138  24.412  11.140
95545W        W66145   5.719  34.286   4.957
95546W        W66146  18.560  17.225   2.655
95547W        W66147   2.198  33.053   3.777
95548W        W66148  23.683   8.320   1.778
95549W        W66149  14.256  36.350   0.410
95550W        W66150  17.972  31.344   2.352
95551W        W66151   9.687  13.253   3.521
95552W        W66152  41.076  27.633   2.389
95553W        W66153  29.173  13.626  14.018
95554W        W66154  29.151   5.243  11.567
95555W        W66155  21.912  20.684  13.497
95556W        W66156  33.704  27.470  12.873
95557W        W66157   7.295  20.118  13.361
95558W        W66158   1.107  25.393   3.206
95559W        W66159  21.545  24.556   0.442
95560W        W66160  32.547  19.928   1.751
95561W        W66161   6.719  11.645  10.383
95562W        W66162  30.100   2.309  10.529
95563W        W66163  24.338  42.039   1.723
95564W        W66164   3.336  39.458   1.352
95565W        W66165  17.277   6.474  14.803
95566W        W66166  13.406  23.244  12.662
95567W        W66167  24.467  17.216   5.171
95568W        W66168  30.447  31.965   4.311
95569W        W66169   5.255  15.587  13.819
95570W        W66170   6.332   9.147   0.016
95571W        W66171   7.261  14.285   0.751
95572W        W66172  36.630   6.383  13.399
95573W        W66173  43.345  14.263  10.916
95574W        W66174   6.182   6.220  12.942
95575W        W66175  31.493  39.168   4.127
95576W        W66176   4.888   8.915   4.584
95577W        W66177   6.829  22.977  12.884
95578W        W66178   7.808  35.351   2.954
95579W        W66179  24.424  42.852  14.993
95580W        W66180  34.998  15.106   3.082
95581W        W66181  34.414  37.998   0.073
95582W        W66182   4.173   8.282  14.229
95583W        W66183  12.908  22.837   0.332
95584W        W66184  14.245   2.412  12.613
95585W        W66185  17.248   6.168   2.005
95586W        W66186  16.554  28.911   1.354
95587W        W66187  31.961  44.339  12.573
95588W        W66188  17.253  38.362  13.268
95589W        W66189  36.888  34.501  12.964
95590W        W66190   5.418  30.429   0.388
95591W        W66191  34.092  30.544   0.488
95592W        W66192   8.363   8.203   1.467
95593W        W66193  22.700   2.383  10.646
95594W        W66194  12.638  25.914  13.859
95595W        W66195  19.689   7.973   0.399
95596W        W66196  38.863  40.852   3.821
95597W        W66197  29.975  41.888  10.805
95598W        W66198  44.529  44.363   4.771
95599W        W66199   1.689  41.889  12.536
95600W        W66200  13.173   7.685  11.528
95601W        W66201  33.344  41.430  12.623
95602W        W66202  40.002  26.713   0.495
95603W        W66203   1.918  19.311   4.927
95604W        W66204  24.229   2.943   3.158
95605W        W66205  32.923  38.156   1.124
95606W        W66206   1.613  31.004   2.297
95607W        W66207  26.960   7.917   2.267
95608W        W66208   9.701  21.016  13.602
95609W        W66209  40.514  33.380  11.636
95610W        W66210  40.736  10.878  10.755
95611W        W66211   7.850   5.974  10.696
95612W        W66212  29.930  16.690  14.772
95613W        W66213   5.962   7.007   4.705
95614W        W66214  39.879  24.644   3.283
95615W        W66215  34.422  19.460  12.071
95616W        W66216  36.674  42.785  12.916
95617W        W66217  31.101  18.211   4.139
95618W        W66218   8.227   2.299  12.561
95619W        W66219   0.776  20.868   3.677
95620W        W66220  44.713   0.006  12.084
95621W        W66221  31.446  39.996   0.607
95622W        W66222  21.581   1.916  11.079
95623W        W66223  28.100  18.525  11.603
95624W        W66224   5.503  39.792  12.854
95625W        W66225  15.013  38.994  11.950
95626W        W66226  27.999  20.074   0.831
95627W        W66227  40.324  23.834   3.785
95628W        W66228  18.309  12.636  10.571
95629W        W66229  44.350  16.778  14.671
95630W        W66230  29.672  34.354   4.698
95631W        W66231  30.926  17.498  13.247
95632W        W66232   0.759  24.553  11.202
95633W        W66233  15.118  27.049  10.745
95634W        W66234  21.015  41.903   0.212
95635W        W66235  42.972  16.630  13.867
95636W        W66236  33.958  23.650  14.551
95637W        W66237   1.193  19.276  12.571
95638W        W66238   6.868  20.602   1.297
95639W        W66239   6.999  35.943   2.907
95640W        W66240  15.218  19.796  14.900
95641W        W66241   8.698  36.809   0.459
95642W        W66242  18.689  27.443   2.238
95643W        W66243   7.426  17.704   1.909
95644W        W66244  34.861  17.104  11.591
95645W        W66245  23.591   1.608   4.964
95646W        W66246  10.439  23.643   0.335
95647W        W66247  17.695   1.367  10.850
95648W        W66248   6.235  32.665   0.300
95649W        W66249  24.075  23.033   3.828
95650W        W66250   8.178   1.516   0.418
95651W        W66251  14.944  16.257   3.684
95652W        W66252  11.587  21.927   4.167
95653W        W66253  16.392   4.818  12.288
95654W        W66254  12.070   9.911  14.395
95655W        W66255  17.377   3.300  10.731
95656W        W66256  16.413   1.319  14.502
95657W        W66257  40.403  21.600  11.046
95658W        W66258  34.895  25.540  14.810
95659W        W66259  31.195  42.043   4.446
95660W        W66260  10.888  33.540  13.464
95661W        W66261   0.472  27.000  14.504
95662W        W66262  24.981  43.574  14.369
95663W        W66263  20.529  17.104   2.317
95664W        W66264   3.386  26.560  12.997
95665W        W66265  10.167  21.994   3.736
95666W        W66266   4.277   2.988  13.416
95667W        W66267  23.582   3.691  11.161
95668W        W66268   4.294   7.917   3.453
95669W        W66269   2.016   0.734   1.440
95670W        W66270  11.198  44.281   4.586
95671W        W66271  42.229  26.680  12.046
95672W        W66272  26.917  12.730  11.545
95673W        W66273  15.782  44.947  13.402
95674W        W66274  16.560  15.583  12.550
95675W        W66275  37.537   0.708  11.081
95676W        W66276  24.492   3.744  12.568
95677W        W66277   3.772  27.272   4.164
95678W        W66278  21.411  40.069   2.291
95679W        W66279  12.876  17.640  10.566
95680W        W66280  22.883   9.917   0.754
95681W        W66281  41.546  20.614  13.568
95682W        W66282  27.574  26.292  13.943
95683W        W66283  31.725  39.374   0.706
95684W        W66284  11.663   0.826  10.254
95685W        W66285  44.924   2.807  12.927
95686W        W66286  26.436   4.375   0.020
95687W        W66287  39.774  41.579   0.021
95688W        W66288  23.978  10.855  11.607
95689W        W66289  12.394   7.962   1.261
95690W        W66290   5.371  15.296   4.857
95691W        W66291  39.587  12.153  12.060
95692W        W66292   1.824   2.520  10.832
95693W        W66293  24.285  40.309  14.121
95694W        W66294  27.222  37.561  12.330
95695W        W66295  27.245  37.056  12.056
95696W        W66296  23.684   9.409  13.462
95697W        W66297  31.899   5.998  13.968
95698W        W66298   9.653  32.975  12.547
95699W        W66299  26.643  15.186  13.999
95700W        W66300  41.442  24.453   1.927
95701W        W66301  34.903  10.064  10.749
95702W        W66302   0.751  28.517  11.620
95703W        W66303   1.384   4.965   1.279
95704W        W66304  28.390   1.802  10.769
95705W        W66305  22.563  21.198   4.573
95706W        W66306   5.184   5.918  11.690
95707W        W66307  40.878  26.236   2.338
95708W        W66308  31.117  10.453  14.836
95709W        W66309   5.992  15.573   0.395
95710W        W66310  23.723  22.718  14.781
95711W        W66311  34.080  36.120  14.418
95712W        W66312  11.537  39.024   3.617
95713W        W66313  31.808   6.947   4.168
95714W        W66314   7.792  43.193  11.645
95715W        W66315   9.073  38.919  14.952
95716W        W66316  22.321  22.606   1.654
95717W        W66317   0.494  28.499  10.931
95718W        W66318  27.389   4.318   2.999
95719W        W66319   9.040  31.934  11.164
95720W        W66320  33.876  32.528  12.084
95721W        W66321  37.489  31.469   1.230
95722W        W66322  24.414  19.577   0.958
95723W        W66323   2.408  41.210  11.935
95724W        W66324   1.034   5.335   4.814
95725W        W66325  27.723   9.075   2.206
95726W        W66326  21.495  28.952  12.996
95727W        W66327  18.822   3.967  13.499
95728W        W66328  14.461  41.539  13.678
95729W        W66329  14.695  23.772   1.383
95730W        W66330  44.967  14.756  12.947
95731W        W66331  19.570  27.104  13.945
95732W        W66332  17.511  23.601  13.233
95733W        W66333  28.995  22.530  14.014
95734W        W66334  19.378  42.989  13.233
95735W        W66335  20.167  26.687  13.372
95736W        W66336  32.404   8.484   3.829
95737W        W66337   9.106  34.584   0.661
95738W        W66338  14.659  37.487  13.154
95739W        W66339  33.149   7.292  14.827
95740W        W66340  39.796  24.694  14.921
95741W        W66341  32.085  12.247  10.617
95742W        W66342  31.673  38.634  11.090
95743W        W66343  28.220  20.707   3.817
95744W        W66344   3.779  39.060   2.669
95745W        W66345  37.142  44.981   0.086
95746W        W66346  12.515  20.606  12.018
95747W        W66347  35.107  39.157  10.290
95748W        W66348   1.425  35.154   0.066
95749W        W66349  32.758  35.892   5.090
95750W        W66350  43.006   8.167   3.658
95751W        W66351  29.535   0.230  10.632
95752W        W66352  31.935  33.031   4.806
95753W        W66353  13.272  15.200   1.984
95754W        W66354   9.694  37.579  14.003
95755W        W66355  17.695  17.713   1.253
95756W        W66356  44.508  31.659  13.149
95757W        W66357  29.692  32.250   3.620
95758W        W66358  40.365   6.315  11.872
95759W        W66359  24.212  17.510  11.994
95760W        W66360  37.143  24.014  10.739
95761W        W66361  10.157  33.820   1.268
95762W        W66362  42.453  39.286   2.449
95763W        W66363  32.149  20.940   1.186
95764W        W66364  23.983  26.808  12.421
95765W        W66365  34.548  39.583   2.361
95766W        W66366   1.033  23.975   4.154
95767W        W66367   9.667  13.128   1.731
95768W        W66368  33.493  38.018   2.310
95769W        W66369  17.802  31.445  11.562
95770W        W66370  28.535  14.357   5.077
95771W        W66371  42.563  35.506  12.466
95772W        W66372  10.283   8.800   4.066
95773W        W66373  14.861  41.168   4.960
95774W        W66374  16.604   2.359   1.237
95775W        W66375  10.706  14.819  10.415
95776W        W66376  18.975   9.159  11.721
95777W        W66377  16.525  15.045  12.497
95778W        W66378   9.864   4.186   3.647
95779W        W66379  28.922   0.339   2.649
95780W        W66380  33.354  37.109   3.706
95781W        W66381  12.311  12.582  12.792
95782W        W66382  27.597   0.410   2.342
95783W        W66383   7.126   5.358  14.297
95784W        W66384  10.799  44.952  11.926
95785W        W66385  41.879   9.675   3.710
95786W        W66386  31.211  36.453   4.676
95787W        W66387  42.769  28.504   0.226
95788W        W66388   5.918  29.850  14.844
95789W        W66389   8.332  19.680   4.153
95790W        W66390  10.675   6.090   3.850
95791W        W66391  27.115  29.049  13.957
95792W        W66392  38.103  35.048  13.728
95793W        W66393  36.783   0.853   2.297
95794W        W66394  39.643  40.152   1.189
95795W        W66395  39.070  43.416   1.152
95796W        W66396  42.891   2.883   0.396
95797W        W66397  19.317   9.171  10.694
95798W        W66398  42.287  44.247   4.209
95799W        W66399  11.257  32.561   4.117
95800W        W66400  15.127  41.953  12.822
95801W        W66401   9.365  34.892  12.083
95802W        W66402   9.331  31.187  12.450
95803W        W66403  10.309  23.050  11.535
95804W        W66404  24.200  36.196   2.307
95805W        W66405  35.932  12.595   0.895
95806W        W66406   5.905  18.971   0.623
95807W        W66407  38.990  21.874   2.098
95808W        W66408  23.010  33.303   3.550
95809W        W66409   2.898   9.892  11.777
95810W        W66410   1.333  26.483  13.375
95811W        W66411  16.552  16.097  14.855
95812W        W66412  31.558  27.142  10.660
95813W        W66413  15.776  33.972  14.965
95814W        W66414   9.235   6.866   1.896
95815W        W66415   2.891  44.380   0.999
95816W        W66416  10.368  23.408  14.878
95817W        W66417  19.674  39.603   2.359
95818W        W66418  34.648  31.906   3.156
95819W        W66419  39.695  27.562  12.614
95820W        W66420   5.780   3.751  10.759
95821W        W66421   5.453   4.867  13.907
95822W        W66422  32.395  10.051  13.921
95823W        W66423   4.674  28.594  12.827
95824W        W66424  33.034  10.601  14.849
95825W        W66425  22.133  20.634  12.485
95826W        W66426  15.623  12.692  13.805
95827W        W66427  36.541  41.829  14.754
95828W        W66428   1.883  41.917  13.419
95829W        W66429  36.965  21.210   4.232
95830W        W66430  16.835  21.110  10.432
95831W        W66431  35.475  29.125   0.062
95832W        W66432  27.169  25.636   4.677
95833W        W66433  27.096  26.327  14.209
95834W        W66434   7.866   5.388   1.332
95835W        W66435  31.587  43.190   9.470
95836W        W66436  44.977  15.811   1.426
95837W        W66437  18.475  18.823  13.492
95838W        W66438   6.421  21.550   1.285
95839W        W66439  13.736  34.590  12.920
95840W        W66440   6.312  28.355  11.989
95841W        W66441   2.134  11.582  14.853
95842W        W66442  40.958   0.300   1.207
95843W        W66443  15.245   8.910  14.949
95844W        W66444  22.058  38.478  14.397
95845W        W66445   2.613  19.032  12.963
95846W        W66446  37.168  16.578   2.516
95847W        W66447   6.709   2.793   2.316
95848W        W66448  10.724  16.624   1.339
95849W        W66449  34.773  33.594   0.314
95850W        W66450  35.459  18.131  14.530
95851W        W66451  20.305  36.867  10.905
95852W        W66452  41.408  12.447  12.521
95853W        W66453  27.761  25.629   2.918
95854W        W66454  40.102  40.379   1.227
95855W        W66455  37.294  32.462  11.646
95856W        W66456   4.959  14.886  10.562
95857W        W66457  15.665  14.391  11.164
95858W        W66458  33.375   0.278   3.836
95859W        W66459  10.384  10.829   0.914
95860W        W66460  42.328  44.255  11.787
95861W        W66461  23.739  33.885  14.922
95862W        W66462  17.504  35.084   1.404
95863W        W66463  11.943  41.321   2.438
95864W        W66464  27.819  17.500  11.778
95865W        W66465  18.321  16.774   2.752
95866W        W66466  44.004  17.571   1.741
95867W        W66467   3.561   3.255   3.772
95868W        W66468  41.473   2.456   0.842
95869W        W66469  30.683   9.142   1.713
95870W        W66470  13.589  15.871   0.418
95871W        W66471   4.324  22.288  14.794
95872W        W66472  40.358  32.111   1.323
95873W        W66473  29.377  23.991   2.154
95874W        W66474  13.256   9.489   0.231
95875W        W66475  30.647  24.934   1.844
95876W        W66476   1.450   6.892   1.399
95877W        W66477  29.296  25.872   2.303
95878W        W66478  12.247  33.556   2.021
95879W        W66479  44.729  33.608   1.778
95880W        W66480  37.914  39.570  13.592
95881W        W66481  12.530  44.065   3.399
95882W        W66482  27.005  16.028  12.414
95883W        W66483  21.186  32.439   4.400
95884W        W66484   7.095   2.243   4.008
95885W        W66485   2.504   4.872   2.779
95886W        W66486  39.597  22.220   5.001
95887W        W66487   2.863   7.144  13.042
95888W        W66488  31.978   3.759  14.373
95889W        W66489  21.443   8.189   3.191
95890W        W66490   4.864   9.827   2.129
95891W        W66491  44.438  26.564   0.617
95892W        W66492  42.537  24.664   1.232
95893W        W66493  35.406  27.704  13.605
95894W        W66494  18.462  16.473  10.694
95895W        W66495  10.227  42.517   2.786
95896W        W66496  28.600  38.370  10.797
95897W        W66497  37.980  19.847   2.768
95898W        W66498  11.831   1.358   0.334
95899W        W66499  44.740   4.378  14.381
95900W        W66500  27.280  42.873  13.417
95901W        W66501  31.657  30.451   4.795
95902W        W66502   7.050  24.872   1.224
95903W        W66503  19.800  24.049   0.332
95904W        W66504  40.907  28.662   0.321
95905W        W66505  28.618  22.080  12.830
95906W        W66506   1.408  20.326  12.443
95907W        W66507  42.276  34.575  10.766
95908W        W66508  29.154  11.177  11.907
95909W        W66509   8.048  11.371   0.203
95910W        W66510  20.226  37.343   1.405
95911W        W66511  21.005   0.838  11.176
95912W        W66512  40.114  10.145  12.949
95913W        W66513  16.296  20.954   2.771
95914W        W66514  36.696  34.364   0.515
95915W        W66515  24.888  18.471  12.967
95916W        W66516  20.232  12.699  12.023
95917W        W66517   9.294  44.396   3.870
95918W        W66518  11.549  10.288  10.266
95919W        W66519  44.038  18.285   2.760
95920W        W66520  15.144  42.024   2.432
95921W        W66521  36.976  21.726   4.162
95922W        W66522  30.561   2.741   2.005
95923W        W66523  27.231   2.677   1.387
95924W        W66524  22.700  41.054   0.391
95925W        W66525  33.533  33.912  12.137
95926W        W66526  33.314  20.574   2.791
95927W        W66527  13.582  40.025  11.109
95928W        W66528  30.458  29.010   2.861
95929W        W66529  18.014  33.128  10.420
95930W        W66530   8.872  14.641  14.576
95931W        W66531  35.560  22.128  10.691
95932W        W66532  39.897  14.826   3.771
95933W        W66533  43.405  31.080  13.843
95934W        W66534  17.711  26.705   3.635
95935W        W66535  14.082   9.657  12.996
95936W        W66536  17.411   8.162   4.817
95937W        W66537   9.920  25.025   1.641
95938W        W66538  44.732  27.000   2.792
95939W        W66539   2.839  43.367  10.700
95940W        W66540  36.791  42.173  11.401
95941W        W66541  16.003  21.536  14.555
95942W        W66542   5.479  36.033  11.244
95943W        W66543  43.243  41.228   2.789
95944W        W66544   5.970  40.020   1.867
95945W        W66545  39.850   4.935  14.819
95946W        W66546  21.692  41.435   1.427
95947W        W66547  33.353   3.479   0.877
95948W        W66548  35.003  39.084  14.178
95949W        W66549  27.604  32.594   0.271
95950W        W66550  23.269  13.766   1.188
95951W        W66551  20.641  13.041   1.464
95952W        W66552   1.227  44.969   1.807
95953W        W66553  17.620  18.772  11.893
95954W        W66554  27.125  23.606  12.963
95955W        W66555  27.089  40.834   3.176
95956W        W66556  13.558  20.164   2.630
95957W        W66557   1.336  13.843   4.539
95958W        W66558  33.154   7.964   1.679
95959W        W66559  29.445  30.195  13.829
95960W        W66560   3.934   6.245  12.541
95961W        W66561  44.566   2.429  13.835
95962W        W66562   1.338  29.976  12.177
95963W        W66563  16.186   8.290  12.566
95964W        W66564  38.474  44.744  14.451
95965W        W66565  36.053  19.984  13.006
95966W        W66566  22.866  13.486   4.203
95967W        W66567  18.134  30.085   5.023
95968W        W66568  10.258  26.012  11.702
95969W        W66569   7.255  44.882   0.781
95970W        W66570  20.278  11.311  14.066
95971W        W66571  42.422  11.332  14.828
95972W        W66572  24.263   6.676  11.533
95973W        W66573  41.194   4.884   1.341
95974W        W66574  12.109   3.854  11.996
95975W        W66575  40.013  20.764  12.051
95976W        W66576  17.237  37.727  11.997
95977W        W66577  42.168  32.031   4.998
95978W        W66578  36.196  26.131  12.076
95979W        W66579  22.348  17.536  11.440
95980W        W66580  24.491  19.201   1.577
95981W        W66581  44.861  14.230  14.451
95982W        W66582  28.968   3.731  13.585
95983W        W66583   8.298  19.547   2.385
95984W        W66584  38.900  38.410  11.088
95985W        W66585  43.349  21.653  11.115
95986W        W66586   4.958  42.374   0.393
95987W        W66587  20.095  34.639  12.991
95988W        W66588   4.831  38.968  12.787
95989W        W66589   5.683   8.969   1.289
95990W        W66590  10.403  37.826   2.666
95991W        W66591  12.188   4.952  14.750
95992W        W66592  13.274  42.309   2.275
95993W        W66593  15.146  19.212   4.501
95994W        W66594  15.794   1.866   2.316
95995W        W66595  32.946  40.536   2.763
95996W        W66596  32.947  13.382   4.866
95997W        W66597  39.310  14.247  10.899
95998W        W66598   0.971   6.766  10.663
95999W        W66599  35.992  28.497  14.779
96000W        W66600  18.824  15.272  12.050
96001W        W66601  39.275  11.653   1.410
96002W        W66602  15.301  13.104  12.378
96003W        W66603  27.357   4.844  12.602
96004W        W66604  39.486   8.671   3.342
96005W        W66605  34.215   2.899   2.341
96006W        W66606  41.788  23.712  11.069
96007W        W66607  42.547  44.903   1.184
96008W        W66608  39.183   6.083  13.547
96009W        W66609  33.992  43.853  13.307
96010W        W66610  37.196  18.306   1.120
96011W        W66611  39.957   6.575  12.513
96012W        W66612  15.375  44.960   1.336
96013W        W66613   4.826   4.895  13.373
96014W        W66614  35.990  44.997  11.489
96015W        W66615   2.412  27.999  14.808
96016W        W66616  16.201  21.093   0.152
96017W        W66617  13.583  38.255  12.915
96018W        W66618  21.735  12.824   3.439
96019W        W66619  18.605  29.533   3.489
96020W        W66620  22.238  13.811  11.846
96021W        W66621  21.531  22.112   0.183
96022W        W66622   3.740  21.608   1.457
96023W        W66623  29.077  11.337  12.841
96024W        W66624  36.064  10.548   2.835
96025W        W66625  21.647  31.137  13.724
96026W        W66626  17.613  38.440   2.413
96027W        W66627   4.340   9.645  12.095
96028W        W66628  43.938  20.954  14.022
96029W        W66629  32.983  25.522   3.133
96030W        W66630   0.911   9.735   3.844
96031W        W66631  22.520  36.140   1.392
96032W        W66632  23.415   0.459  13.574
96033W        W66633   6.621  36.607  13.947
96034W        W66634   5.662   5.900  11.477
96035W        W66635  16.832  17.991   1.248
96036W        W66636  37.210  33.607   5.030
96037W        W66637  34.468   1.708   3.783
96038W        W66638  13.901  35.716  13.425
96039W        W66639  19.528  18.651   3.686
96040W        W66640  11.815   8.076  11.452
96041W        W66641  43.964  25.047  10.957
96042W        W66642  18.125   2.768   2.919
96043W        W66643  24.907  39.748   1.152
96044W        W66644  12.626  42.528  14.527
96045W        W66645  14.318   4.802  13.508
96046W        W66646  16.616  33.519   2.626
96047W        W66647   0.943  33.572  11.444
96048W        W66648  38.905   8.585  10.232
96049W        W66649  38.057  11.645   3.940
96050W        W66650   8.234  35.403  11.124
96051W        W66651  12.193  14.687   4.239
96052W        W66652  41.545  37.916  10.658
96053W        W66653  30.495   5.979  12.067
96054W        W66654  32.344  17.137   1.955
96055W        W66655  44.498  13.793  11.462
96056W        W66656  32.651   9.164  14.009
96057W        W66657  24.903  22.089  12.946
96058W        W66658  15.702   5.287   4.090
96059W        W66659  43.521  24.765   1.682
96060W        W66660   7.496   2.325  11.425
96061W        W66661  16.310  39.114   2.490
96062W        W66662  21.584   0.491   3.087
96063W        W66663  15.827  21.680  14.074
96064W        W66664  10.785   3.942   4.177
96065W        W66665  34.976  17.773  11.091
96066W        W66666  16.997  32.848  10.703
96067W        W66667  10.458  16.598   4.046
96068W        W66668  17.757  22.425  11.672
96069W        W66669  43.701  22.712  13.107
96070W        W66670  42.128   3.758   2.125
96071W        W66671  18.588  39.227  14.970
96072W        W66672   8.372  34.006   0.853
96073W        W66673  39.091  19.558   9.879
96074W        W66674   7.925  30.626   4.091
96075W        W66675  25.812  39.074   2.714
96076W        W66676  39.299  38.866   0.900
96077W        W66677  23.714  29.942   3.310
96078W        W66678  17.167   3.862  12.391
96079W        W66679   0.026  27.007  11.985
96080W        W66680   9.722  17.934  11.678
96081W        W66681  39.861  30.950   1.910
96082W        W66682  31.284  37.800  10.199
96083W        W66683   9.120  43.479   0.319
96084W        W66684  22.928   6.940  14.982
96085W        W66685  42.480   9.129   4.387
96086W        W66686  19.835  30.065  13.148
96087W        W66687  40.167  26.381   5.483
96088W        W66688   5.889  42.784  13.497
96089W        W66689  25.347  31.124  13.010
96090W        W66690  26.314   6.130   9.910
96091W        W66691  39.367  14.778   1.351
96092W        W66692   5.777  34.538   3.807
96093W        W66693  28.699  21.210   4.025
96094W        W66694  12.249  10.917   2.631
96095W        W66695  34.374  28.568   3.223
96096W        W66696  16.169  38.119   1.658
96097W        W66697   9.421   0.313  12.115
96098W        W66698  37.132  19.041  11.448
96099W        W66699  24.806  18.246   4.186
96100W        W66700  17.458  37.868   0.447
96101W        W66701  36.486   7.875   4.596
96102W        W66702   5.681  27.605   4.798
96103W        W66703  39.565   9.300  10.807
96104W        W66704  34.819  21.685  10.647
96105W        W66705  26.286  42.501  13.453
96106W        W66706  27.155  32.351   0.293
96107W        W66707  30.864  36.496  14.010
96108W        W66708   5.446  15.331  12.018
96109W        W66709   8.192  26.050   1.858
96110W        W66710  32.258  23.201   0.753
96111W        W66711  44.719  27.565   3.465
96112W        W66712  42.740  15.846  13.429
96113W        W66713   0.333  44.973   2.313
96114W        W66714  14.155  24.646   1.881
96115W        W66715  37.640  13.416   4.550
96116W        W66716  13.053  20.137   4.094
96117W        W66717   3.062  15.080   3.843
96118W        W66718  28.919  34.054   2.291
96119W        W66719  27.057   2.151  12.533
96120W        W66720   5.129  32.403   3.295
96121W        W66721  32.369   1.686   5.185
96122W        W66722  14.527   2.959  14.887
96123W        W66723  36.527  27.805   4.629
96124W        W66724  11.893  12.462  11.022
96125W        W66725  42.561  10.135   4.208
96126W        W66726  39.606  25.760   4.275
96127W        W66727  44.014  42.741   1.680
96128W        W66728   5.406  21.266  13.055
96129W        W66729   7.416  30.416  10.687
96130W        W66730  36.315  35.172  10.699
96131W        W66731   9.190  27.940   1.303
96132W        W66732   1.815   9.918  13.028
96133W        W66733   3.401  16.809   3.413
96134W        W66734  38.498  30.489   4.316
96135W        W66735  33.487  12.082  12.114
96136W        W66736  42.813  22.749   4.428
96137W        W66737  35.031   6.130   0.408
96138W        W66738  13.136  19.123   2.206
96139W        W66739   5.342   5.152  14.327
96140W        W66740   9.079   9.040   4.594
96141W        W66741  11.567  42.791   1.259
96142W        W66742  18.901   4.041   4.534
96143W        W66743   1.439  17.679  12.127
96144W        W66744  40.020  21.132   2.596
96145W        W66745  18.218  24.501   3.201
96146W        W66746  31.651   2.363  10.723
96147W        W66747  43.450   4.892  11.564
96148W        W66748  28.409   9.374  14.956
96149W        W66749  36.842  36.411  12.581
96150W        W66750  36.552   8.370  11.153
96151W        W66751  34.066   2.384   2.372
96152W        W66752  29.961  19.220  14.074
96153W        W66753  44.786  20.815  14.148
96154W        W66754  18.533  33.698   1.203
96155W        W66755  13.528  15.319   4.024
96156W        W66756  22.917  25.490  10.744
96157W        W66757  30.634   6.509  14.111
96158W        W66758  11.758  39.271  12.361
96159W        W66759  27.073  13.200   1.967
96160W        W66760  16.222   9.852   3.661
96161W        W66761  16.041  11.729  12.978
96162W        W66762  35.821   1.879   3.202
96163W        W66763  11.214  12.670  13.771
96164W        W66764  30.882  20.447   2.690
96165W        W66765  12.380  28.535  12.026
96166W        W66766  10.360  10.114   2.298
96167W        W66767  44.344  36.814  11.125
96168W        W66768   2.490   3.244   3.626
96169W        W66769  25.240  35.744  11.465
96170W        W66770   9.335  20.177   0.112
96171W        W66771  22.126  44.537  12.915
96172W        W66772   1.134  30.843   2.205
96173W        W66773   3.978   2.452  11.192
96174W        W66774  33.828   3.381  11.623
96175W        W66775  42.097  17.099   0.205
96176W        W66776  23.449  32.387   1.878
96177W        W66777  14.215  37.590   2.694
96178W        W66778  43.246   8.590  13.967
96179W        W66779  27.665  10.605  12.184
96180W        W66780  38.565  17.149   4.127
96181W        W66781  42.842  23.244  12.655
96182W        W66782  38.562  32.629  12.410
96183W        W66783  22.461  23.001   4.598
96184W        W66784  41.361  18.793   3.696
96185W        W66785  33.887  15.798  10.683
96186W        W66786   2.852  28.502  10.749
96187W        W66787  35.756  42.519  11.703
96188W        W66788   4.188  29.621   1.455
96189W        W66789   9.546  19.151  11.291
96190W        W66790  32.596   6.880   1.394
96191W        W66791  11.164   4.452   1.896
96192W        W66792  27.131   3.676   3.853
96193W        W66793  19.063   7.697  10.727
96194W        W66794  33.893  36.598  14.362
96195W        W66795  38.341   4.181  11.145
96196W        W66796  31.101  29.408  13.929
96197W        W66797   1.058  29.221  10.342
96198W        W66798  37.373  21.036  13.525
96199W        W66799   0.805  37.602  12.646
96200W        W66800  28.933  32.399   4.205
96201W        W66801   3.317  32.403  14.047
96202W        W66802  37.999  42.983  11.640
96203W        W66803   4.424   0.839  10.687
96204W        W66804  13.179  14.691  12.050
96205W        W66805  37.441  43.006   4.572
96206W        W66806  13.068  35.361   2.989
96207W        W66807  16.206  43.823  14.115
96208W        W66808  33.145  28.113   4.221
96209W        W66809  20.856  28.570   3.137
96210W        W66810  25.476  33.198   1.235
96211W        W66811  36.253  38.526  11.674
96212W        W66812  21.076  26.317   5.535
96213W        W66813   2.191  36.982   1.456
96214W        W66814  25.352  21.232  11.183
96215W        W66815  28.676  10.647   3.230
96216W        W66816  26.705  26.093  11.668
96217W        W66817   4.969  24.279  13.059
96218W        W66818  26.217  31.543   3.684
96219W        W66819  15.907  27.410   5.155
96220W        W66820  36.644  24.258  13.071
96221W        W66821  28.513  15.845  13.911
96222W        W66822  11.988  34.568   2.525
96223W        W66823  38.777  37.662   4.167
96224W        W66824  34.438   0.813   0.774
96225W        W66825  26.482  15.884   0.063
96226W        W66826  15.208  33.020   4.055
96227W        W66827   5.465   5.183  11.081
96228W        W66828  39.424  22.296  12.548
96229W        W66829  35.950  34.609   3.223
96230W        W66830  19.232  28.167   3.752
96231W        W66831   2.809  30.579   4.827
96232W        W66832  22.028  28.107   4.839
96233W        W66833  40.611   9.857   2.831
96234W        W66834  36.232  38.959  14.406
96235W        W66835   6.311  17.099   0.440
96236W        W66836  26.709  19.829  12.074
96237W        W66837  44.830  13.300  13.360
96238W        W66838  44.582  43.362  13.880
96239W        W66839   6.909  33.554   2.554
96240W        W66840  14.820  37.127   2.214
96241W        W66841  16.514  36.039   3.774
96242W        W66842  28.624  23.410   0.752
96243W        W66843   0.285  18.157   2.173
96244W        W66844  29.864   4.897   2.468
96245W        W66845  27.648  32.127  11.212
96246W        W66846  30.768   6.194   5.061
96247W        W66847  42.101   5.750  12.970
96248W        W66848  30.714  14.794  14.844
96249W        W66849   7.489  30.535  12.830
96250W        W66850  10.104  15.663  12.420
96251W        W66851  14.106  14.320   0.556
96252W        W66852  35.083  33.483  14.312
96253W        W66853  27.480  42.319  10.512
96254W        W66854   5.603  32.429  14.671
96255W        W66855  44.694  25.251   0.934
96256W        W66856  23.850  23.732  12.547
96257W        W66857  10.779  40.276  11.548
96258W        W66858  22.577  28.723   4.521
96259W        W66859   3.074   1.775   3.299
96260W        W66860  14.153   9.227  14.852
96261W        W66861   4.786   3.815   1.522
96262W        W66862  28.998  19.517   1.761
96263W        W66863   7.897  30.456   0.874
96264W        W66864  38.327  36.978   1.541
96265W        W66865  11.080  36.775   1.674
96266W        W66866  33.672  24.086   0.867
96267W        W66867  27.531  13.705  11.905
96268W        W66868  13.139  23.651   5.064
96269W        W66869  10.283   3.727  13.564
96270W        W66870  22.155  19.226   4.534
96271W        W66871  12.707  41.506   2.753
96272W        W66872  16.818  38.463   2.973
96273W        W66873  28.021  34.339  13.837
96274W        W66874  42.148  44.841   3.608
96275W        W66875   3.377  42.951   3.746
96276W        W66876  25.823  43.318   0.509
96277W        W66877  15.820  28.065   3.295
96278W        W66878  11.461  18.804   3.689
96279W        W66879  36.460   1.548   3.712
96280W        W66880  40.612   7.659   4.125
96281W        W66881   4.375  19.552   2.098
96282W        W66882  41.925   6.729  14.230
96283W        W66883  40.614  44.517  13.866
96284W        W66884  37.596   4.403  14.433
96285W        W66885  19.892  25.030  14.545
96286W        W66886  27.571  12.181   0.730
96287W        W66887  27.486  35.940  14.377
96288W        W66888   3.178   2.420  12.504
96289W        W66889  37.814  10.192   4.236
96290W        W66890  32.122  29.653  14.608
96291W        W66891   9.232  33.439   2.239
96292W        W66892  32.063  10.343  11.029
96293W        W66893  20.535  39.534  14.967
96294W        W66894  24.077  40.262   4.834
96295W        W66895   3.708  28.889  11.944
96296W        W66896  33.554  24.225   3.120
96297W        W66897  35.928   2.887  12.469
96298W        W66898   4.181   4.326   3.393
96299W        W66899  43.334   7.112   0.056
96300W        W66900  11.742   3.412  10.149
96301W        W66901  18.505  41.235  11.313
96302W        W66902  35.119  37.802   2.826
96303W        W66903  15.634  42.876  11.937
96304W        W66904  39.293   5.286   1.496
96305W        W66905  37.048  28.924  12.057
96306W        W66906  32.386   0.250  14.404
96307W        W66907  34.936   6.684   0.439
96308W        W66908  12.639  11.012   4.869
96309W        W66909  33.155  34.710  12.568
96310W        W66910  43.400  35.873  11.616
96311W        W66911   7.159  27.958  12.207
96312W        W66912  35.858  35.178   0.934
96313W        W66913  18.362  37.491  13.144
96314W        W66914  28.194  32.397   4.718
96315W        W66915  23.642   9.123  10.837
96316W        W66916  31.211  36.038   3.526
96317W        W66917  13.056  42.766  13.944
96318W        W66918   6.527  14.099  10.314
96319W        W66919  30.435  43.295   2.866
96320W        W66920  13.115  30.972  13.148
96321W        W66921  28.022  10.973   0.627
96322W        W66922  26.752  14.822   2.847
96323W        W66923  30.198  25.221   0.459
96324W        W66924  29.742  32.069   1.304
96325W        W66925  34.017  30.342  14.490
96326W        W66926  17.633  11.241   4.659
96327W        W66927  15.147   4.288   3.488
96328W        W66928  30.203  11.311   0.488
96329W        W66929  23.384  42.413  10.300
96330W        W66930  15.548   9.648   3.200
96331W        W66931  24.584  26.482   3.238
96332W        W66932  17.509  33.432  13.997
96333W        W66933  22.430   8.655   1.303
96334W        W66934  37.817  16.123   2.752
96335W        W66935  36.969  36.916   1.384
96336W        W66936  18.608  10.285  10.572
96337W        W66937  20.416  16.760   1.859
96338W        W66938  20.836  22.637   0.688
96339W        W66939  42.789  17.586   3.274
96340W        W66940  12.149  38.211  10.918
96341W        W66941  12.385  29.164  11.559
96342W        W66942  32.655  14.083   4.121
96343W        W66943  39.606   3.388  14.136
96344W        W66944  23.638  41.981   3.471
96345W        W66945  35.021  10.820  12.392
96346W        W66946  25.670  16.350   0.804
96347W        W66947   4.923  26.949  10.451
96348W        W66948  22.109  22.512  10.778
96349W        W66949  14.393  33.526  14.365
96350W        W66950   9.637   5.749  14.462
96351W        W66951  21.868   9.307   3.112
96352W        W66952  30.552  44.455   2.896
96353W        W66953   8.500  44.359   1.022
96354W        W66954   4.590  32.940  12.542
96355W        W66955  42.940  31.133  14.504
96356W        W66956   3.174  19.098   1.995
96357W        W66957  10.946  24.940   4.344
96358W        W66958  17.049  44.291  13.920
96359W        W66959  27.937  36.954   3.086
96360W        W66960  30.538  15.304  13.451
96361W        W66961  39.222  10.012  10.310
96362W        W66962  44.844  23.964  12.777
96363W        W66963  44.916  34.054   4.504
96364W        W66964  27.064  41.267   4.098
96365W        W66965  15.963  15.493  11.960
96366W        W66966  15.286  42.807  13.570
96367W        W66967   5.393   1.244  12.952
96368W        W66968  40.294  15.154  12.459
96369W        W66969  22.705  12.179  10.771
96370W        W66970  33.511   4.034  13.561
96371W        W66971  38.343  10.914  14.822
96372W        W66972  35.650  15.040  10.704
96373W        W66973  39.333  35.798  12.431
96374W        W66974  17.563   3.683  11.652
96375W        W66975  17.355  19.141   4.137
96376W        W66976  24.179  28.681  11.616
96377W        W66977  22.220   1.740   2.951
96378W        W66978  23.839  25.168   3.110
96379W        W66979  20.248  44.242  11.973
96380W        W66980  34.359   4.800  14.962
96381W        W66981  10.158  23.507   2.156
96382W        W66982  14.549  31.494  14.987
96383W        W66983   1.424  34.957  10.761
96384W        W66984  40.844  10.708   1.386
96385W        W66985   9.421  43.424  14.894
96386W        W66986   3.683   0.329  10.678
96387W        W66987   7.236  18.847  11.508
96388W        W66988  20.570  34.304  11.265
96389W        W66989   8.096  32.811   3.353
96390W        W66990  11.576  36.969  12.911
96391W        W66991  23.793  15.688  12.364
96392W        W66992  22.542  35.816   3.276
96393W        W66993  32.622  17.585   3.253
96394W        W66994  16.232   3.187  12.572
96395W        W66995  14.858  34.068   2.696
96396W        W66996  37.534  37.114   4.093
96397W        W66997  32.828  35.412  14.619
96398W        W66998  13.558   6.206  11.225
96399W        W66999  28.967  43.778   0.204
96400W        W67000  12.677  37.150  11.988
96401W        W67001  16.491  24.451   4.239
96402W        W67002  15.769  11.096   1.712
96403W        W67003   7.659  39.617   0.933
96404W        W67004  31.190  41.909   2.568
96405W        W67005   8.789  44.097  14.258
96406W        W67006  24.893   3.343   0.778
96407W        W67007  42.810  24.186   4.517
96408W        W67008  38.055  13.246  13.980
96409W        W67009  29.196  26.021   0.323
96410W        W67010  20.050   1.600   1.308
96411W        W67011  37.869  21.065  13.766
96412W        W67012  29.383   1.842  12.076
96413W        W67013  25.422  21.027   2.325
96414W        W67014   6.737  10.788   0.023
96415W        W67015   9.800  42.785   2.695
96416W        W67016  29.405  41.774  13.870
96417W        W67017  11.269  21.174   0.492
96418W        W67018  12.408  40.602   1.884
96419W        W67019  13.357   6.358  13.120
96420W        W67020   6.640  19.294   2.253
96421W        W67021   0.958  10.177   4.684
96422W        W67022  27.776  41.163   9.920
96423W        W67023  32.433   2.949   0.894
96424W        W67024  20.746  31.812   4.189
96425W        W67025  14.344  42.786   2.378
96426W        W67026  21.551  29.638   0.433
96427W        W67027  32.126   1.920   4.703
96428W        W67028   3.468  39.773  10.679
96429W        W67029  40.885  31.394  13.940
96430W        W67030  42.892   9.262  13.333
96431W        W67031  32.579  32.811  11.984
96432W        W67032   6.249  39.252   0.143
96433W        W67033  44.603   4.350   1.243
96434W        W67034  18.694  26.123  14.034
96435W        W67035  18.022  18.153  11.464
96436W        W67036  43.793   3.448  14.514
96437W        W67037  10.808  11.151  12.070
96438W        W67038  10.252  17.120   5.030
96439W        W67039  31.379  43.803   1.634
96440W        W67040  18.534   6.133  13.983
96441W        W67041  29.158  41.953   3.134
96442W        W67042  36.591  12.175  11.293
96443W        W67043  36.639  19.429   1.468
96444W        W67044   0.027  39.697   2.631
96445W        W67045  19.635   8.299   4.585
96446W        W67046  30.629  38.466   2.394
96447W        W67047   3.329  31.384   5.166
96448W        W67048  16.122  44.792   1.786
96449W        W67049  13.978  41.407  13.449
96450W        W67050  31.426  33.824  11.248
96451W        W67051  37.849  25.240   4.000
96452W        W67052   7.440   8.737  14.415
96453W        W67053  27.132   8.055  10.653
96454W        W67054  18.040  36.286   0.816
96455W        W67055  18.177  15.537  14.651
96456W        W67056  35.600  43.524  13.881
96457W        W67057   0.273  13.380  12.927
96458W        W67058   6.816  19.976   3.875
96459W        W67059   4.697  25.239  10.560
96460W        W67060  17.583  36.805   1.643
96461W        W67061  24.946   6.182   3.232
96462W        W67062   8.616  39.913   2.290
96463W        W67063   5.243   4.819   4.399
96464W        W67064  39.556   6.641   1.895
96465W        W67065  25.562  18.009  11.591
96466W        W67066  24.257   3.752   2.429
96467W        W67067  21.897  35.248   2.201
96468W        W67068   9.701  30.497   4.809
96469W        W67069  40.485   4.977   3.523
96470W        W67070   6.173  19.524  10.927
96471W        W67071  37.046  19.653   1.181
96472W        W67072  14.857  44.972  10.306
96473W        W67073  22.617   7.833  14.311
96474W        W67074  23.719  24.992   4.611
96475W        W67075  40.842  24.466  13.832
96476W        W67076  41.989  33.108   3.839
96477W        W67077  40.871  18.077  11.683
96478W        W67078  30.523  36.526  12.663
96479W        W67079  26.198  32.550  14.555
96480W        W67080  36.268  16.033  14.328
96481W        W67081  10.971  18.594   3.630
96482W        W67082  20.737  36.324   4.731
96483W        W67083  10.459   3.680   3.301
96484W        W67084  23.531   4.632   0.942
96485W        W67085  12.211  32.886   4.755
96486W        W67086  21.125  20.022  12.461
96487W        W67087  39.500  44.508   1.760
96488W        W67088   5.439  38.840  13.392
96489W        W67089  23.735  13.794   1.401
96490W        W67090  17.465  42.058   1.952
96491W        W67091  19.672  10.132   0.781
96492W        W67092  38.635   5.630  14.373
96493W        W67093  35.392  33.944  12.580
96494W        W67094  17.908  24.320  14.997
96495W        W67095  17.215  25.596  10.264
96496W        W67096  14.133  20.664  14.477
96497W        W67097   2.849  23.746  13.574
96498W        W67098  27.523  13.095   1.704
96499W        W67099   1.294  34.622   2.271
96500W        W67100   5.994  32.931  13.959
96501W        W67101  27.663  43.571  13.873
96502W        W67102   6.613   0.739  11.211
96503W        W67103   9.362  19.933  11.157
96504W        W67104  40.987  13.251  11.028
96505W        W67105  33.030   8.380  14.261
96506W        W67106  23.952  19.410  12.744
96507W        W67107  21.547  18.633   1.203
96508W        W67108   8.562   8.676   1.654
96509W        W67109   4.274  27.537  13.054
96510W        W67110  14.690  14.248   1.823
96511W        W67111   7.277  24.776   1.711
96512W        W67112  41.591  40.841   3.297
96513W        W67113  30.083  32.843  14.839
96514W        W67114  40.810  29.955   2.288
96515W        W67115  41.262   5.883  13.070
96516W        W67116  38.699   3.161  11.671
96517W        W67117  34.986  37.402   3.139
96518W        W67118  37.856  34.587  13.330
96519W        W67119  36.392   1.334  14.292
96520W        W67120  29.663  15.672  14.789
96521W        W67121  31.899   8.214  11.616
96522W        W67122   8.483  36.028   4.179
96523W        W67123   1.276   8.773   1.105
96524W        W67124  10.213  26.926  14.004
96525W        W67125   4.230  21.726  11.545
96526W        W67126  28.077  27.380   1.651
96527W        W67127   0.408  35.847  13.235
96528W        W67128  44.860  21.312   3.617
96529W        W67129  40.076  23.339  12.018
96530W        W67130  23.253  35.800   3.761
96531W        W67131  41.941  14.740   2.915
96532W        W67132  26.529  28.638  10.452
96533W        W67133  37.671  17.465  13.337
96534W        W67134   2.367  26.857   5.040
96535W        W67135  31.161  41.579  13.119
96536W        W67136   9.286  29.398   0.984
96537W        W67137  25.925   5.300   0.248
96538W        W67138  14.802  35.999   4.029
96539W        W67139  17.483  36.031   4.944
96540W        W67140  40.962  20.340  11.168
96541W        W67141  24.484  41.062  12.558
96542W        W67142  36.502  41.820   3.163
96543W        W67143  18.719  10.923   3.310
96544W        W67144  31.863  18.626   1.158
96545W        W67145  25.080  39.735   4.023
96546W        W67146  22.070   2.217   2.832
96547W        W67147   0.904  16.596   2.240
96548W        W67148  34.885   9.357   4.133
96549W        W67149   9.682  24.050  13.798
96550W        W67150  22.840  39.865  10.783
96551W        W67151  38.381  35.318   4.190
96552W        W67152  40.219  23.773   1.729
96553W        W67153  40.820  40.931  12.572
96554W        W67154  39.394  20.842  12.601
96555W        W67155  41.390  41.680   2.161
96556W        W67156  16.538  41.992  13.930
96557W        W67157  31.630  26.704  11.890
96558W        W67158   2.180  25.079   1.916
96559W        W67159  10.655  20.920   2.425
96560W        W67160   8.856   5.362  12.161
96561W        W67161  13.132   8.323   3.692
96562W        W67162  33.438   5.979   3.143
96563W        W67163   5.974  44.368   3.623
96564W        W67164  17.953  40.884  10.670
96565W        W67165   2.845   6.469  12.694
96566W        W67166  17.273  36.756  13.897
96567W        W67167  30.039  19.584   4.573
96568W        W67168   2.502  25.762   2.458
96569W        W67169  21.530  31.409  12.381
96570W        W67170  40.826  23.165  14.194
96571W        W67171  10.317  28.708  14.463
96572W        W67172  21.001  42.075  14.538
96573W        W67173  35.093   2.682   0.224
96574W        W67174  33.680  10.170   1.227
96575W        W67175  38.105   3.176  11.037
96576W        W67176  10.541   5.865   0.850
96577W        W67177  30.887  19.646   2.271
96578W        W67178  42.196  43.265   0.779
96579W        W67179  12.741   4.570   0.367
96580W        W67180  26.688  40.830  14.690
96581W        W67181  17.007  42.933   0.781
96582W        W67182  32.422   9.610  14.297
96583W        W67183  16.220  17.966  11.039
96584W        W67184  19.149  29.159  13.456
96585W        W67185  34.116  19.683   3.470
96586W        W67186   9.781  38.791   0.881
96587W        W67187   3.739  14.311  12.330
96588W        W67188  11.082  11.804  12.582
96589W        W67189  34.519  40.741   4.106
96590W        W67190  38.773  11.787   2.268
96591W        W67191  15.767  38.060  12.961
96592W        W67192   3.445  13.932  13.487
96593W        W67193  32.025  25.562   1.252
96594W        W67194  27.529  42.309   0.332
96595W        W67195  34.186  18.876   0.711
96596W        W67196   6.998  40.387  14.843
96597W        W67197   1.734  32.623  13.903
96598W        W67198  40.114  14.992   1.869
96599W        W67199  30.560  14.733  13.568
96600W        W67200  23.001  24.517  10.652
96601W        W67201  40.073   5.205   3.747
96602W        W67202  33.375   2.687  12.522
96603W        W67203  44.194  35.808  14.304
96604W        W67204  18.043   3.200  14.388
96605W        W67205  39.302  31.061  14.400
96606W        W67206  23.190  44.039   2.767
96607W        W67207  44.478  30.898   1.457
96608W        W67208   5.435  10.880  11.405
96609W        W67209  32.417  30.704  12.076
96610W        W67210  35.157  44.600  11.929
96611W        W67211  29.564  25.486  13.977
96612W        W67212   0.490  25.963   2.173
96613W        W67213  41.961  12.140   3.833
96614W        W67214  11.031  18.150  13.260
96615W        W67215  18.551  42.369  13.363
96616W        W67216  43.869  38.553   3.216
96617W        W67217  10.872  34.502   0.285
96618W        W67218  27.119  31.470   1.232
96619W        W67219  43.555   9.136   0.776
96620W        W67220  31.008  27.005  11.957
96621W        W67221   5.941  39.511  13.485
96622W        W67222  13.280  32.718  14.477
96623W        W67223  28.975  38.611   0.329
96624W        W67224  29.433  40.989   2.779
96625W        W67225   1.762  12.370   4.119
96626W        W67226  32.889   2.475   1.934
96627W        W67227  15.563  39.000  11.973
96628W        W67228  14.592  15.516   3.872
96629W        W67229  36.884  40.672  11.516
96630W        W67230  39.525   4.866  11.920
96631W        W67231  34.332  15.328  12.010
96632W        W67232  12.907  40.583   4.201
96633W        W67233  40.344  10.186  12.305
96634W        W67234  10.469   6.075   2.898
96635W        W67235  18.409  14.594   0.125
96636W        W67236  22.085  40.091   4.296
96637W        W67237  42.799  22.561   2.819
96638W        W67238  17.592  23.996  10.715
96639W        W67239  33.914  34.538   4.521
96640W        W67240  35.446  44.474  13.824
96641W        W67241  19.270  31.014   4.286
96642W        W67242  30.922  23.321  11.842
96643W        W67243  44.386  22.783   1.671
96644W        W67244  27.966  21.737   4.534
96645W        W67245  36.105  35.500  12.182
96646W        W67246  35.900  36.478  14.939
96647W        W67247  41.979  15.779   2.266
96648W        W67248   7.202  25.624   1.520
96649W        W67249  44.872   0.503  12.840
96650W        W67250  22.778  22.495   3.307
96651W        W67251  17.598  40.973   2.169
96652W        W67252   7.111  30.282  13.462
96653W        W67253  41.337  41.810  11.624
96654W        W67254  15.181  34.573   1.873
96655W        W67255  24.090  33.389  11.582
96656W        W67256  36.060   5.354   4.154
96657W        W67257  17.138  40.175   0.292
96658W        W67258  43.524  24.868  11.174
96659W        W67259  36.564  13.683  14.262
96660W        W67260  18.122   1.426  11.122
96661W        W67261  23.335  33.159  11.999
96662W        W67262  36.083  33.377  11.460
96663W        W67263  29.649  17.042   1.997
96664W        W67264  38.266  20.754   4.661
96665W        W67265   8.629  12.845   2.892
96666W        W67266  44.471  21.186   0.761
96667W        W67267  12.894  37.516  12.859
96668W        W67268  26.671  41.751  14.770
96669W        W67269  24.783  30.580   2.120
96670W        W67270   7.852  34.409   4.556
96671W        W67271  33.549  41.827  11.008
96672W        W67272  11.053  32.132  10.765
96673W        W67273   9.445  13.739  11.068
96674W        W67274   3.195  30.688   1.177
96675W        W67275  30.992   4.925   3.177
96676W        W67276  34.135  44.230   4.114
96677W        W67277   2.217  22.516   1.936
96678W        W67278  38.417  43.304   4.125
96679W        W67279   6.084  34.511   0.777
96680W        W67280  27.001  44.305   1.537
96681W        W67281  17.130  33.705   1.462
96682W        W67282  37.845  17.342   1.910
96683W        W67283   2.453  13.419   3.876
96684W        W67284  35.622  29.906  11.930
96685W        W67285   1.276  41.946   3.681
96686W        W67286  27.843  11.360   4.655
96687W        W67287   8.280  41.771  12.549
96688W        W67288  25.413   8.564   1.335
96689W        W67289  42.737  29.937   2.970
96690W        W67290   3.512  31.006  12.371
96691W        W67291  31.656  42.749   2.952
96692W        W67292  31.201  21.599  13.060
96693W        W67293  13.635  20.251   4.529
96694W        W67294  27.042  13.779  13.105
96695W        W67295  12.361  22.351   4.256
96696W        W67296  44.851  18.529  13.529
96697W        W67297   8.314  43.271  13.406
96698W        W67298   6.747  23.543  13.788
96699W        W67299  37.549  24.222  12.970
96700W        W67300  20.004  41.872  12.630
96701W        W67301  21.576  36.408   2.880
96702W        W67302  22.376  19.176  12.465
96703W        W67303  28.330  18.249   2.824
96704W        W67304  10.419  24.480  11.775
96705W        W67305  24.587  29.416  11.861
96706W        W67306  44.439  15.406   0.872
96707W        W67307  19.091  34.561   3.568
96708W        W67308  20.683  18.557   1.395
96709W        W67309  14.369  43.578   1.273
96710W        W67310  41.723  19.713  12.649
96711W        W67311  29.408  32.638   3.366
96712W        W67312   6.852  18.827   4.467
96713W        W67313  22.627  30.976  14.325
96714W        W67314  24.361  27.614   1.779
96715W        W67315   0.008  14.760   1.934
96716W        W67316  14.740  38.831   4.116
96717W        W67317  37.815  41.025  13.270
96718W        W67318  15.652  13.873  11.111
96719W        W67319   4.010  19.915  12.181
96720W        W67320  23.690  25.128  10.583
96721W        W67321  43.871   2.410   4.423
96722W        W67322  16.111  31.008   2.261
96723W        W67323   5.375  41.606  10.474
96724W        W67324  42.380   6.791   1.233
96725W        W67325  23.785   4.880   2.477
96726W        W67326  10.431   9.664   1.528
96727W        W67327  19.701  13.245   2.807
96728W        W67328   4.730  44.575  11.145
96729W        W67329  31.596   8.748   0.873
96730W        W67330   9.071  21.488  14.332
96731W        W67331   7.439  29.488  10.382
96732W        W67332  42.984  37.681   1.864
96733W        W67333  31.583   8.885  12.350
96734W        W67334  21.369  40.386   3.563
96735W        W67335   4.243  22.551   3.738
96736W        W67336  43.905  15.646   0.240
96737W        W67337  43.470  30.519  12.592
96738W        W67338  27.049  10.479  12.001
96739W        W67339  33.690  15.593   4.519
96740W        W67340  33.973  16.627   3.789
96741W        W67341  39.465   4.974   0.705
96742W        W67342  17.546  32.515   1.894
96743W        W67343  44.090  27.973  11.913
96744W        W67344  14.005  42.808   1.309
96745W        W67345  40.829  11.897  12.333
96746W        W67346  33.367  12.608   2.238
96747W        W67347  30.966   9.671   4.097
96748W        W67348  39.795  37.960   1.789
96749W        W67349   6.883   1.940  13.950
96750W        W67350  40.033  34.931  10.922
96751W        W67351  31.623   2.683   1.844
96752W        W67352  30.928  12.822   0.662
96753W        W67353  35.713  18.127  12.198
96754W        W67354  10.680  41.821   0.323
96755W        W67355  41.972  32.963  12.140
96756W        W67356  20.648  18.343  14.316
96757W        W67357  11.728  41.030   4.222
96758W        W67358  12.924  18.492   0.347
96759W        W67359  16.050  23.178  12.286
96760W        W67360  33.084  40.527  14.866
96761W        W67361  30.197  35.855   1.897
96762W        W67362  18.111   2.773   0.418
96763W        W67363   2.810  38.414  14.777
96764W        W67364  27.754  43.901   2.723
96765W        W67365  42.369  31.559   4.553
96766W        W67366  15.173  10.382   2.731
96767W        W67367  34.480  14.904  11.128
96768W        W67368  30.016  26.052   4.291
96769W        W67369   8.394  24.716  13.331
96770W        W67370   0.683   9.680  14.521
96771W        W67371   9.253  15.777   1.007
96772W        W67372   6.726  36.439   0.522
96773W        W67373  13.788  36.933  12.689
96774W        W67374   5.216  35.456  12.136
96775W        W67375  11.343  22.752  13.116
96776W        W67376  40.653   5.514   2.872
96777W        W67377   1.925  33.902   1.374
96778W        W67378  19.581  28.514   4.343
96779W        W67379  21.741  11.471   3.851
96780W        W67380  44.829  19.243   4.642
96781W        W67381  42.804  14.327  11.681
96782W        W67382  25.462  16.838  14.742
96783W        W67383  14.204  21.437   2.564
96784W        W67384  24.708   8.995  11.557
96785W        W67385  22.273   4.912   3.660
96786W        W67386   0.007  41.105   4.361
96787W        W67387  17.497   4.455  11.345
96788W        W67388  18.510   8.889   3.805
96789W        W67389  12.074  33.081   1.906
96790W        W67390   0.762  42.323   3.708
96791W        W67391  39.089  16.630  14.902
96792W        W67392  14.273  28.166  12.076
96793W        W67393  27.169  28.185   3.636
96794W        W67394  16.878   7.357  13.872
96795W        W67395   1.957  41.242   4.081
96796W        W67396  38.975  15.700   0.280
96797W        W67397  33.620  43.278   2.800
96798W        W67398  22.074  20.227  12.883
96799W        W67399  32.376  31.800   4.391
96800W        W67400   7.617  34.895   4.988
96801W        W67401  11.622  17.210  10.462
96802W        W67402  14.677  43.850  14.956
96803W        W67403  23.219   2.118  14.846
96804W        W67404  28.133  10.887  12.345
96805W        W67405  43.032  41.377   1.746
96806W        W67406  23.322  17.260   4.348
96807W        W67407   8.794  37.780  11.430
96808W        W67408   1.458   3.557   3.333
96809W        W67409  27.219   4.709   1.232
96810W        W67410  29.959  26.044  11.654
96811W        W67411  24.741  23.260  10.828
96812W        W67412   8.464  38.453   1.967
96813W        W67413  26.608   0.042   3.742
96814W        W67414  24.996  20.060  11.557
96815W        W67415   0.827  24.428   3.299
96816W        W67416  43.705  35.863   4.502
96817W        W67417  44.446  18.226   4.014
96818W        W67418  39.741  36.876   1.772
96819W        W67419  23.302   9.013   0.249
96820W        W67420  11.707   6.690  10.767
96821W        W67421  10.961  31.338  13.325
96822W        W67422  17.154   3.469  14.931
96823W        W67423  14.729   4.361  11.935
96824W        W67424  11.271   4.260  10.708
96825W        W67425  15.378  20.242  13.996
96826W        W67426  21.194  36.021   3.654
96827W        W67427  41.580   3.531   2.785
96828W        W67428   3.982  17.367   1.726
96829W        W67429   8.824  44.590   1.444
96830W        W67430   2.584   5.009   5.204
96831W        W67431  43.292   3.157   0.559
96832W        W67432  15.696  17.255   2.256
96833W        W67433  38.044  10.188  12.868
96834W        W67434  11.578  42.707   2.185
96835W        W67435  16.645  24.853   2.701
96836W        W67436  18.493  14.497   2.342
96837W        W67437  22.063   9.578   0.988
96838W        W67438  27.420   2.832  12.328
96839W        W67439  24.697  20.235   4.142
96840W        W67440  38.940  27.287   1.726
96841W        W67441  13.545  33.554  10.710
96842W        W67442   5.412  16.655  10.473
96843W        W67443  12.693   4.392  10.668
96844W        W67444  41.753  30.660  13.342
96845W        W67445  27.703  28.696  10.996
96846W        W67446  17.296   2.386  13.854
96847W        W67447  11.272  30.182  14.722
96848W        W67448  20.237  29.925  10.593
96849W        W67449  32.241  35.449  12.870
96850W        W67450  41.856   6.522   4.143
96851W        W67451   6.305  29.936   0.437
96852W        W67452  30.759  42.337   3.716
96853W        W67453  16.513  43.839   1.845
96854W        W67454   9.846   1.022   5.034
96855W        W67455   7.674  30.404   3.632
96856W        W67456  25.478  23.557   4.609
96857W        W67457  23.127  16.436   2.959
96858W        W67458   6.801  27.247   0.367
96859W        W67459  44.236  40.080   0.165
96860W        W67460  42.578  14.095  12.670
96861W        W67461  38.022  24.576  14.126
96862W        W67462  14.421   6.330  13.097
96863W        W67463   7.385   1.962   1.379
96864W        W67464  26.782  20.095  11.589
96865W        W67465  31.076   4.702  13.086
96866W        W67466  44.715  12.944   4.240
96867W        W67467  36.144   2.235   3.367
96868W        W67468  29.520  44.724   3.201
96869W        W67469   3.142   4.174   3.599
96870W        W67470  33.982  23.961   4.206
96871W        W67471  19.769  20.377  10.987
96872W        W67472   7.299  32.672   3.882
96873W        W67473  18.808  38.961   3.103
96874W        W67474  24.502   2.460  10.396
96875W        W67475  38.707  24.049   9.912
96876W        W67476  17.308  15.118  10.311
96877W        W67477   3.092   9.194   4.042
96878W        W67478  37.806  42.450  14.323
96879W        W67479  42.901  42.728  12.647
96880W        W67480  10.649   1.326  14.869
96881W        W67481  11.066  26.224  13.119
96882W        W67482  40.532   8.060  13.858
96883W        W67483  20.952  20.111  11.568
96884W        W67484  13.379  15.343  12.222
96885W        W67485  14.246  23.078   0.840
96886W        W67486  27.090  14.482  12.435
96887W        W67487  37.120  43.943  12.897
96888W        W67488  41.988   8.321  12.502
96889W        W67489  40.208   8.177   3.591
96890W        W67490   4.529  15.062  13.622
96891W        W67491  33.088  30.045   1.829
96892W        W67492  11.668  15.355   4.568
96893W        W67493  44.252   2.093   2.663
96894W        W67494  35.532  18.667   0.928
96895W        W67495  21.166  24.841   4.584
96896W        W67496   0.183  39.509   1.016
96897W        W67497  20.809  22.560  13.371
96898W        W67498   8.216   9.807  11.464
96899W        W67499  38.138   7.721  14.482
96900W        W67500  33.080  25.313   2.625
96901W        W67501   5.718  34.889  13.919
96902W        W67502   6.927  37.003   2.718
96903W        W67503   8.578   3.070   3.714
96904W        W67504  42.004  12.666  10.644
96905W        W67505  39.447  28.686  14.560
96906W        W67506  29.196  43.019   3.311
96907W        W67507  11.274   8.733  12.463
96908W        W67508  30.115   2.024   3.788
96909W        W67509   7.680  27.981  11.163
96910W        W67510  21.683   3.684   4.642
96911W        W67511  10.221  30.078  11.004
96912W        W67512   8.181  21.444  11.595
96913W        W67513   0.423  18.695  13.454
96914W        W67514  36.520  21.087  10.892
96915W        W67515  13.564  26.793  14.435
96916W        W67516  38.427   0.973   4.474
96917W        W67517  21.470  31.220   2.643
96918W        W67518  35.435   1.186  14.630
96919W        W67519   7.637  25.051  11.157
96920W        W67520  39.340   2.336   4.001
96921W        W67521  40.105  26.002  14.756
96922W        W67522   3.875  18.583   4.391
96923W        W67523  13.418   6.229   1.229
96924W        W67524  11.188  34.603   1.906
96925W        W67525   9.581   8.572  11.088
96926W        W67526  28.328  39.055   2.355
96927W        W67527   0.887   7.864  13.295
96928W        W67528  17.381  10.036  12.127
96929W        W67529  40.934  43.088  14.811
96930W        W67530  40.746  33.404   0.415
96931W        W67531  11.330  39.835   3.226
96932W        W67532   8.859   2.010   0.450
96933W        W67533  40.383  42.940   4.989
96934W        W67534  22.231  38.103   3.290
96935W        W67535  27.361  18.565  13.630
96936W        W67536  41.918  13.336   2.843
96937W        W67537  39.370  11.290  10.462
96938W        W67538  41.961  32.365   2.255
96939W        W67539   8.812  22.028  10.361
96940W        W67540  28.093  10.724   2.154
96941W        W67541   1.328  14.564  11.205
96942W        W67542  14.176  18.338  12.947
96943W        W67543  44.121   3.196  11.688
96944W        W67544  34.062  16.057   0.950
96945W        W67545  22.308  12.221   1.399
96946W        W67546  34.987  19.810   3.259
96947W        W67547  21.736   2.248  14.683
96948W        W67548   8.424  24.058  11.921
96949W        W67549  44.576  10.196  10.361
96950W        W67550   3.392   4.420  10.798
96951W        W67551  33.469  34.764  14.276
96952W        W67552  43.528  23.228  10.590
96953W        W67553  13.572  37.815   3.281
96954W        W67554  35.011  26.060  13.851
96955W        W67555  15.312  15.260   0.261
96956W        W67556   4.420  41.798   1.788
96957W        W67557  38.504  38.413  10.747
96958W        W67558  17.074   6.881  13.936
96959W        W67559   8.659  33.920  12.463
96960W        W67560  44.898  17.207   0.928
96961W        W67561   4.446  24.487   0.454
96962W        W67562   3.429  42.587  10.645
96963W        W67563   8.739  13.440   0.405
96964W        W67564  41.028   3.368   0.110
96965W        W67565  28.867  37.484   5.035
96966W        W67566   1.317  17.169  12.121
96967W        W67567   7.945  20.103  11.123
96968W        W67568   0.963  10.134  12.918
96969W        W67569   8.840  14.108  12.127
96970W        W67570  33.246   0.139   4.999
96971W        W67571  28.132  13.957  14.099
96972W        W67572  30.074  34.316  12.329
96973W        W67573  36.344  37.774   4.278
96974W        W67574  12.706  14.289   2.253
96975W        W67575  31.759  33.399  11.245
96976W        W67576  21.031   2.941  11.632
96977W        W67577  19.370  21.439   2.360
96978W        W67578   1.371  21.989  14.144
96979W        W67579  27.295  30.146  14.468
96980W        W67580  42.544  10.537  13.390
96981W        W67581  42.864  13.603  10.664
96982W        W67582   6.155  15.742  14.372
96983W        W67583  20.045  12.239  11.051
96984W        W67584  13.092  34.076   3.746
96985W        W67585  18.269  31.384   3.168
96986W        W67586  34.165   4.437   0.849
96987W        W67587  44.351  25.590  12.017
96988W        W67588  27.293  29.181   4.446
96989W        W67589   7.010  35.770  11.208
96990W        W67590  16.121  19.688   0.065
96991W        W67591  36.746  13.260   1.828
96992W        W67592  39.443  30.007  12.195
96993W        W67593  29.389  10.715   0.446
96994W        W67594   7.452  18.006   0.864
96995W        W67595  36.554  21.962   3.989
96996W        W67596  27.508  27.169  14.521
96997W        W67597  36.285  13.215   3.146
96998W        W67598  31.937  21.232   2.585
96999W        W67599   7.347   4.575  14.844
97000W        W67600  23.416   3.389   3.256
97001W        W67601  27.514  12.575  14.014
97002W        W67602  17.133  33.346  11.086
97003W        W67603  18.798   9.163  12.781
97004W        W67604   9.588  16.218  14.647
97005W        W67605  35.481  41.846   2.162
97006W        W67606   5.792  17.306   0.383
97007W        W67607  33.568   5.243  12.984
97008W        W67608  15.124  33.345   1.732
97009W        W67609  19.328   2.365   2.259
97010W        W67610  30.680  12.445  13.795
97011W        W67611  42.996  30.893  12.000
97012W        W67612  12.361  32.977   3.738
97013W        W67613  13.460  23.713   0.492
97014W        W67614  16.289  30.478   0.157
97015W        W67615  26.105  20.240  12.976
97016W        W67616   4.746  38.238   1.454
97017W        W67617  19.215  32.525   1.258
97018W        W67618  40.948  43.627  10.933
97019W        W67619  43.765  25.189   4.962
97020W        W67620  41.026  17.543  13.101
97021W        W67621  25.951   5.431  12.014
97022W        W67622   2.056  39.962   3.816
97023W        W67623  18.008  12.761  11.955
97024W        W67624   3.442   5.708  12.734
97025W        W67625  37.438  39.054  14.808
97026W        W67626  39.325   2.289   2.566
97027W        W67627  28.073   0.426   1.308
97028W        W67628  44.411  43.760   2.938
97029W        W67629  36.784   3.035  10.391
97030W        W67630   4.825  44.867   4.127
97031W        W67631   0.624  11.469   3.732
97032W        W67632   7.701  26.572   4.274
97033W        W67633   1.485  22.869  14.476
97034W        W67634  37.488  36.612   3.252
97035W        W67635  16.684  23.183  12.939
97036W        W67636  11.385  15.045  11.162
97037W        W67637  21.082  13.128   3.200
97038W        W67638   0.357  36.141   1.300
97039W        W67639   9.183  19.958   4.421
97040W        W67640  33.393  25.771   3.386
97041W        W67641  23.075   0.440  11.588
97042W        W67642  25.042  33.971   0.310
97043W        W67643  25.590  31.460  12.487
97044W        W67644  41.275  34.906  11.589
97045W        W67645  15.090  24.088   2.315
97046W        W67646  41.686  18.165  13.084
97047W        W67647  13.404  13.779   2.213
97048W        W67648  34.574  10.469  13.488
97049W        W67649  41.935  13.052  11.395
97050W        W67650   7.529  38.102  12.131
97051W        W67651  13.294   1.211  12.853
97052W        W67652  34.590   4.694  11.553
97053W        W67653   9.553  15.163   2.895
97054W        W67654  24.548  34.956   3.220
97055W        W67655  30.045  10.373   3.210
97056W        W67656  41.339  22.079  12.101
97057W        W67657   4.448  44.867  13.056
97058W        W67658  38.934  28.115  14.573
97059W        W67659  43.891   3.931   4.738
97060W        W67660  18.777  40.471   1.076
97061W        W67661   6.477   0.917   1.291
97062W        W67662  17.309   1.930   2.276
97063W        W67663  37.867  18.066  10.692
97064W        W67664  41.839   1.906   2.158
97065W        W67665   8.796  36.518   1.846
97066W        W67666  15.066  28.476   0.193
97067W        W67667   2.029  23.725   1.419
97068W        W67668   7.279   6.886   4.094
97069W        W67669  40.055   2.274  10.807
97070W        W67670   8.974  44.765   3.181
97071W        W67671  42.901   2.664  13.809
97072W        W67672  20.797  39.720   5.063
97073W        W67673  10.037  13.514  14.834
97074W        W67674  37.964   4.749   3.786
97075W        W67675   4.162  28.284  11.499
97076W        W67676  44.470  19.517  13.308
97077W        W67677  23.010  14.973   3.329
97078W        W67678  42.575  30.510  10.731
97079W        W67679  36.714  34.899   0.727
97080W        W67680   0.031  37.382   3.627
97081W        W67681  10.145  37.083   3.661
97082W        W67682  15.152   9.934   1.401
97083W        W67683   4.271  11.440   2.249
97084W        W67684  18.845   5.196   9.974
97085W        W67685  12.143  43.882   0.896
97086W        W67686  12.710  37.416   4.182
97087W        W67687   7.225  44.501  14.038
97088W        W67688   2.928  41.728  13.663
97089W        W67689  18.566  35.635  14.507
97090W        W67690  38.919  40.087  10.800
97091W        W67691  26.906   3.474  12.894
97092W        W67692  17.041  35.596   3.724
97093W        W67693   1.558   6.302   3.325
97094W        W67694  26.523   2.153  12.506
97095W        W67695   8.708   4.783   1.065
97096W        W67696  38.589  29.313   0.320
97097W        W67697  29.257  29.296  14.023
97098W        W67698  33.522   6.874   0.970
97099W        W67699  12.271  17.572  14.826
97100W        W67700   3.446  32.228   3.304
97101W        W67701  21.167  15.722   3.076
97102W        W67702  41.276   3.191  14.688
97103W        W67703  23.231  34.442   3.080
97104W        W67704  19.275   4.901   2.627
97105W        W67705  43.763  10.818   1.669
97106W        W67706   1.646   4.895  14.483
97107W        W67707  38.881  22.252   0.217
97108W        W67708  22.894  35.162  12.059
97109W        W67709  32.257  11.453  12.429
97110W        W67710  19.387  25.023  14.532
97111W        W67711   4.894  36.540  11.365
97112W        W67712  27.991  41.279   0.695
97113W        W67713  20.103  17.837  12.424
97114W        W67714   7.718  18.975  10.778
97115W        W67715  22.002  33.605  10.770
97116W        W67716  19.183   7.772   4.427
97117W        W67717  28.570  33.733   3.705
97118W        W67718  17.165   6.649  12.900
97119W        W67719  35.449   7.769   2.580
97120W        W67720  17.553  21.239   0.909
97121W        W67721   4.795  39.254  11.520
97122W        W67722   9.209  17.444   3.562
97123W        W67723   4.337  14.434   3.149
97124W        W67724  43.490  25.523  14.042
97125W        W67725   7.692  15.261   3.630
97126W        W67726  17.958   7.535  12.397
97127W        W67727  43.844  43.133  13.480
97128W        W67728  14.564  21.589   3.402
97129W        W67729  17.869  27.108   3.365
97130W        W67730  20.706  27.901  11.995
97131W        W67731  30.750  28.947  14.327
97132W        W67732  24.203   6.107  13.907
97133W        W67733  20.191   9.686   3.758
97134W        W67734  17.856  14.244  12.288
97135W        W67735  13.171  30.431   1.339
97136W        W67736  12.669  31.362  10.563
97137W        W67737  29.548  42.482   4.243
97138W        W67738  27.569  31.115  11.011
97139W        W67739  41.475   7.782   4.161
97140W        W67740  30.479  12.267  13.334
97141W        W67741  30.202  27.210   3.181
97142W        W67742  38.334  17.694  14.654
97143W        W67743  39.237   5.751  11.931
97144W        W67744  20.200   4.926  13.098
97145W        W67745  35.881  14.043  14.845
97146W        W67746   2.696  41.928  12.382
97147W        W67747   6.187  35.841  13.961
97148W        W67748  40.717  34.987  12.397
97149W        W67749  16.064  30.107  14.550
97150W        W67750  41.476   2.004   3.783
97151W        W67751   5.624   7.119   1.675
97152W        W67752  16.794  27.896   3.336
97153W        W67753  28.727  24.023  14.315
97154W        W67754  18.687  38.669  13.464
97155W        W67755   2.102   6.425  14.835
97156W        W67756  28.396  27.549  10.289
97157W        W67757   2.261  42.266   4.787
97158W        W67758   4.323   1.799   3.828
97159W        W67759   5.754  41.447   0.329
97160W        W67760  10.609   9.334  11.542
97161W        W67761  17.198  35.789  14.504
97162W        W67762  36.575  31.494   1.793
97163W        W67763  31.042   2.689   4.777
97164W        W67764  20.516   9.910  14.034
97165W        W67765  31.039  40.259   2.359
97166W        W67766  15.290   4.348  14.196
97167W        W67767  31.282  38.864  11.494
97168W        W67768   9.674  26.528   1.760
97169W        W67769  11.700  41.567  14.510
97170W        W67770  22.412  17.266   5.106
97171W        W67771   1.215  13.512   2.832
97172W        W67772   1.638  26.124  12.912
97173W        W67773   3.197   0.555  13.624
97174W        W67774  42.707  12.164   0.220
97175W        W67775  19.631  28.430   2.411
97176W        W67776  38.967  41.421   1.193
97177W        W67777  11.373   5.296  14.310
97178W        W67778   4.712   3.440  14.798
97179W        W67779   1.609   0.365  13.339
97180W        W67780   4.619   9.522  11.162
97181W        W67781  31.370   8.764  14.789
97182W        W67782  29.678  16.728   4.748
97183W        W67783  18.666   8.460   3.382
97184W        W67784  20.196  10.877   4.141
97185W        W67785  24.135  30.970   3.537
97186W        W67786  39.512   4.334   2.788
97187W        W67787  34.707   2.980   2.495
97188W        W67788   6.380  28.923  13.407
97189W        W67789  23.441   3.191  11.187
97190W        W67790  42.424  44.634  12.095
97191W        W67791  19.466   7.292   1.785
97192W        W67792  28.913  41.528   1.695
97193W        W67793  41.869   1.555  12.843
97194W        W67794   1.379  10.333   3.319
97195W        W67795  33.463   1.344  11.188
97196W        W67796   6.518  32.812  13.823
97197W        W67797  34.094   4.533  11.571
97198W        W67798  12.077  19.310   1.237
97199W        W67799  22.649  35.055  10.904
97200W        W67800  19.102   1.005   2.216
97201W        W67801  31.503   0.038   4.154
97202W        W67802  35.437  36.136   1.723
97203W        W67803  34.335  44.665  14.822
97204W        W67804   4.848  12.765   3.790
97205W        W67805  21.852  22.600   3.939
97206W        W67806   1.204   5.680  13.087
97207W        W67807  31.693  17.243   4.245
97208W        W67808  25.944   9.546   1.781
97209W        W67809  16.246  14.423  11.578
97210W        W67810  31.103  27.553   4.139
97211W        W67811  29.224  33.411   2.892
97212W        W67812  24.037  29.976  12.387
97213W        W67813  20.207  39.804  12.415
97214W        W67814   3.323  30.495   2.631
97215W        W67815  38.012  33.023  11.958
97216W        W67816  14.127  39.362  13.473
97217W        W67817  39.866  41.572   2.342
97218W        W67818  34.344  33.486   1.889
97219W        W67819  42.485   9.763   1.360
97220W        W67820  33.322  25.642   0.865
97221W        W67821  39.957  34.929   1.220
97222W        W67822  29.924  10.773  11.172
97223W        W67823  35.329  19.110  12.305
97224W        W67824  12.631  41.659   4.971
97225W        W67825  21.115  37.360   3.188
97226W        W67826  36.749  33.126   4.289
97227W        W67827   0.531  19.514  13.874
97228W        W67828   5.924  33.954  10.973
97229W        W67829   5.244  24.750   3.121
97230W        W67830  44.751   9.899   0.013
97231W        W67831  15.527  13.339  11.977
97232W        W67832  12.125   0.338   1.371
97233W        W67833  43.267  17.216   2.832
97234W        W67834  22.154  34.070   2.463
97235W        W67835  26.295  25.971   2.683
97236W        W67836  44.426  44.317  13.145
97237W        W67837  31.573  44.785   0.371
97238W        W67838   4.250  14.620  13.441
97239W        W67839   7.234  23.966  11.544
97240W        W67840  24.950  22.280  14.309
97241W        W67841  32.747  39.045   1.985
97242W        W67842  10.595  12.694  14.666
97243W        W67843   1.944  19.731  13.763
97244W        W67844  35.490  16.563   4.584
97245W        W67845  28.759  33.230  12.943
97246W        W67846   8.906  34.121  12.933
97247W        W67847  18.204   0.170  10.744
97248W        W67848  33.915  34.129   0.267
97249W        W67849  12.900  40.960  14.715
97250W        W67850  14.666  20.181  13.436
97251W        W67851  13.990  32.098  12.298
97252W        W67852  32.800  25.334  10.425
97253W        W67853   6.483  43.385   0.269
97254W        W67854   3.275  15.573   3.145
97255W        W67855  10.323  29.114  12.958
97256W        W67856  10.718  37.802   3.313
97257W        W67857   7.275  25.577  12.444
97258W        W67858  36.230  11.756   4.597
97259W        W67859   4.258  31.001   3.833
97260W        W67860  38.310  38.358   3.470
97261W        W67861   8.249  33.466   0.164
97262W        W67862  10.422   0.164  11.072
97263W        W67863  31.687  27.657  10.437
97264W        W67864  36.969  20.816  12.891
97265W        W67865  22.172  42.990   5.547
97266W        W67866   9.710   6.870   4.387
97267W        W67867  25.133   6.410   0.263
97268W        W67868  24.627  12.087  12.373
97269W        W67869  10.807  42.488  13.059
97270W        W67870   2.159  37.167  14.407
97271W        W67871  18.640  11.634  11.518
97272W        W67872   1.409  10.433  14.927
97273W        W67873  17.540  11.394   3.656
97274W        W67874  27.061  13.736  11.664
97275W        W67875  44.762  19.147  11.624
97276W        W67876  39.995  21.131  11.672
97277W        W67877  11.909  32.680  11.068
97278W        W67878   1.933  15.313  11.441
97279W        W67879  16.561  43.099  14.807
97280W        W67880  39.624   4.877  13.408
97281W        W67881  13.855  22.006  13.901
97282W        W67882   4.526  34.610  14.347
97283W        W67883  28.785  16.841   3.217
97284W        W67884  12.348  36.872  10.731
97285W        W67885  42.431   6.926   3.329
97286W        W67886  10.047  43.936  13.783
97287W        W67887  16.728  27.127  14.530
97288W        W67888   6.489  16.161  14.462
97289W        W67889  10.008   6.528  14.950
97290W        W67890  17.448   4.307   3.741
97291W        W67891  26.159  28.922   0.440
97292W        W67892  40.325   5.320   2.517
97293W        W67893  10.302  14.353  10.710
97294W        W67894  39.643  29.669  11.666
97295W        W67895  24.021   3.715   1.918
97296W        W67896   1.708  35.120   1.378
97297W        W67897  41.409  17.201  10.759
97298W        W67898  40.373  14.113  13.336
97299W        W67899  26.558  40.938   3.254
97300W        W67900  26.631  27.415  13.008
97301W        W67901  20.667   0.522   0.296
97302W        W67902  28.492  22.572  12.898
97303W        W67903  27.330  37.064   0.378
97304W        W67904   1.017  27.656   3.088
97305W        W67905  30.277  39.993  12.076
97306W        W67906  41.996  32.196  10.283
97307W        W67907  14.376  39.229   4.081
97308W        W67908  21.212  39.549   2.896
97309W        W67909  33.360  29.975   1.271
97310W        W67910  33.550  38.787  11.412
97311W        W67911  10.807  43.085   2.618
97312W        W67912   3.695  37.501  11.984
97313W        W67913  20.579  32.658  13.357
97314W        W67914  22.198  29.504  12.858
97315W        W67915  32.170  35.591  11.586
97316W        W67916  29.069  29.838   4.198
97317W        W67917   8.727  21.630   0.195
97318W        W67918  26.855   8.764  12.825
97319W        W67919  27.853  37.864   2.325
97320W        W67920  29.233  36.406   2.762
97321W        W67921   4.808  42.062   2.643
97322W        W67922  43.147  21.638   2.227
97323W        W67923   1.692  10.222   0.328
97324W        W67924  37.325  26.197  12.493
97325W        W67925  12.222  26.636   2.693
97326W        W67926  39.317  37.628   3.133
97327W        W67927   5.454  22.105   0.320
97328W        W67928   9.653  33.021   4.292
97329W        W67929  40.251  28.949  14.765
97330W        W67930  33.922  22.085  11.477
97331W        W67931   8.435  18.297  13.473
97332W        W67932  24.012  28.936  14.484
97333W        W67933  19.517  39.462   1.455
97334W        W67934   0.552  13.730   1.817
97335W        W67935  22.725  39.729   1.813
97336W        W67936  37.355   6.797   2.325
97337W        W67937  33.911   5.856   2.202
97338W        W67938  20.306  42.846  14.135
97339W        W67939  38.720  16.256  14.792
97340W        W67940  31.345  17.328   3.406
97341W        W67941  39.813  22.711  10.788
97342W        W67942   9.181  33.667   0.377
97343W        W67943  10.559  32.448   0.117
97344W        W67944  27.017  24.092  11.807
97345W        W67945  20.301   0.833   1.003
97346W        W67946  34.909   7.044  12.638
97347W        W67947  43.421  44.966   4.052
97348W        W67948  15.801  25.488  14.108
97349W        W67949  19.179  14.394   0.836
97350W        W67950  10.803  12.650  14.118
97351W        W67951   6.501  31.443   1.184
97352W        W67952  14.908  36.824   0.797
97353W        W67953  41.344  29.785  13.518
97354W        W67954  42.841  31.644  10.554
97355W        W67955  29.411  35.117   0.392
97356W        W67956  20.774  42.372   3.348
97357W        W67957  42.771  37.656   3.161
97358W        W67958  44.347  35.185  12.360
97359W        W67959   7.804  37.021   0.225
97360W        W67960  14.624  35.081  11.419
97361W        W67961  30.011   9.912  12.599
97362W        W67962  14.678  11.984   2.738
97363W        W67963  34.516  22.274   2.198
97364W        W67964  21.191  39.629   0.792
97365W        W67965  16.676  40.039   1.969
97366W        W67966  10.631  10.310  12.343
97367W        W67967  27.479  22.449   0.318
97368W        W67968  26.406  24.188   3.169
97369W        W67969  43.504   6.746  12.068
97370W        W67970   7.297  23.993  10.662
97371W        W67971   7.677  44.942   2.695
97372W        W67972  31.686   7.826   0.755
97373W        W67973  28.335  11.679   3.592
97374W        W67974  38.825  11.209   4.103
97375W        W67975   9.534   4.251  12.519
97376W        W67976  31.882  42.447  13.906
97377W        W67977  15.773  32.278  13.517
97378W        W67978  44.881  10.792   4.542
97379W        W67979  13.821  35.525  12.466
97380W        W67980  35.246  29.817   2.273
97381W        W67981  18.166  33.657  11.778
97382W        W67982  11.744  26.359   3.799
97383W        W67983  10.186   0.708  12.313
97384W        W67984  31.943  14.654   3.048
97385W        W67985   9.287  44.214   2.338
97386W        W67986  29.171  39.784  14.762
97387W        W67987  14.381  21.353  11.065
97388W        W67988  31.465  25.649   4.705
97389W        W67989  32.883  43.460   3.396
97390W        W67990  10.170   4.796  14.440
97391W        W67991  17.536  25.540   0.678
97392W        W67992  29.972  39.864   0.205
97393W        W67993  36.619  32.011  11.525
97394W        W67994  41.125  41.595  10.720
97395W        W67995  35.037   4.362   4.110
97396W        W67996   2.987  44.660  14.409
97397W        W67997   8.988  43.475   2.872
97398W        W67998   0.036  37.045   4.266
97399W        W67999   1.826  43.974   2.726
97400W        W68000   7.922  33.149  11.531
97401W        W68001   6.342   8.035   2.890
97402W        W68002  32.907   9.010   0.487
97403W        W68003  18.647  16.051  13.023
97404W        W68004  22.669  20.190   1.213
97405W        W68005   2.932  28.067   0.325
97406W        W68006  32.160  21.686   3.309
97407W        W68007  43.832  12.972   3.765
97408W        W68008  10.528   7.005  11.858
97409W        W68009  35.017   7.098  11.155
97410W        W68010   0.060  33.689  12.200
97411W        W68011   7.837  38.928   3.612
97412W        W68012  11.075  37.887  13.200
97413W        W68013  22.576  25.704  11.063
97414W        W68014  31.456  11.753   1.466
97415W        W68015  31.031   8.961  14.371
97416W        W68016  11.092  43.601   0.414
97417W        W68017  17.435   2.162   1.417
97418W        W68018  25.058  29.037   2.870
97419W        W68019  28.091  37.902   3.586
97420W        W68020  37.109   3.776   4.550
97421W        W68021  13.765  22.220   1.624
97422W        W68022  19.676   0.738  10.607
97423W        W68023   9.192  15.088  10.610
97424W        W68024  32.109   7.137   3.793
97425W        W68025   4.282   1.369  12.971
97426W        W68026  37.036  31.129   2.699
97427W        W68027  26.460  17.826  13.524
97428W        W68028  44.278  35.651  11.508
97429W        W68029  26.046  31.038   1.139
97430W        W68030  18.593  19.441   4.364
97431W        W68031   7.479  35.839   4.126
97432W        W68032  41.275   9.285   2.642
97433W        W68033  21.773  42.668  14.642
97434W        W68034  26.531  23.289  12.419
97435W        W68035  34.983  18.236  14.799
97436W        W68036  29.911  17.211   3.816
97437W        W68037  29.468  19.820  13.958
97438W        W68038  13.355  37.567  11.692
97439W        W68039   4.767  32.174   3.593
97440W        W68040  27.644   2.250   2.175
97441W        W68041  28.049  24.677  14.003
97442W        W68042   6.268   8.356  12.402
97443W        W68043  15.796  26.073   0.945
97444W        W68044   2.366  35.472  10.670
97445W        W68045  24.753  42.067   1.428
97446W        W68046  19.696   8.295   2.364
97447W        W68047  15.123  16.418  11.967
97448W        W68048  22.446  34.024  12.434
97449W        W68049  36.291   1.924  10.890
97450W        W68050  16.549  20.056  13.339
97451W        W68051  31.099  20.940   2.756
97452W        W68052  17.611  17.344  12.028
97453W        W68053  32.152  39.510  13.303
97454W        W68054  30.143  15.377   2.417
97455W        W68055  14.042  41.250  14.420
97456W        W68056  20.224  28.003   1.475
97457W        W68057  40.588   5.375   0.013
97458W        W68058   5.357  25.059  10.743
97459W        W68059  34.264  29.734  13.964
97460W        W68060  19.215  33.710   2.713
97461W        W68061   1.474  31.124   4.092
97462W        W68062  37.897   7.872  10.830
97463W        W68063  19.087   7.346   0.890
97464W        W68064  41.519  33.929   1.336
97465W        W68065  16.201  39.981   1.752
97466W        W68066   9.782  27.875   2.735
97467W        W68067  44.909  23.015   3.358
97468W        W68068  36.319  27.926  10.614
97469W        W68069   9.771  18.572  14.511
97470W        W68070  23.356  16.620   0.835
97471W        W68071  11.872   1.935  13.260
97472W        W68072  24.991  26.035  14.422
97473W        W68073  41.490  11.334  12.721
97474W        W68074   3.253  24.961   4.533
97475W        W68075  11.803  28.694  14.499
97476W        W68076  40.298   5.025   1.499
97477W        W68077   5.338  23.638  13.391
97478W        W68078  16.694  26.241   2.774
97479W        W68079  23.213  22.527  12.494
97480W        W68080  30.234  32.986   3.618
97481W        W68081  25.013  14.178  13.515
97482W        W68082   5.381  35.097  10.365
97483W        W68083   9.380  34.506   2.312
97484W        W68084  32.807   6.295  13.017
97485W        W68085  32.574  23.235   3.926
97486W        W68086   2.666  14.344  10.517
97487W        W68087  30.762  37.823  10.300
97488W        W68088  22.077   6.709  13.516
97489W        W68089   0.439  17.521  11.111
97490W        W68090  12.131  22.198  11.529
97491W        W68091   6.838  25.744  10.706
97492W        W68092  44.352  13.025   3.871
97493W        W68093  12.580   1.576   1.329
97494W        W68094  24.152  14.150   1.321
97495W        W68095  15.596   9.676  13.926
97496W        W68096  31.095  32.437  14.801
97497W        W68097  31.421   3.518   2.944
97498W        W68098  42.785  35.021  11.581
97499W        W68099  44.210  38.189  14.827
97500W        W68100  41.763   2.463  10.915
97501W        W68101  27.440  12.787  14.895
97502W        W68102  44.722   4.260  12.444
97503W        W68103   0.464  38.535   3.305
97504W        W68104  12.205  13.347  14.408
97505W        W68105  20.700  29.104  14.363
97506W        W68106   4.639  38.213  14.200
97507W        W68107   0.896   5.835   2.495
97508W        W68108  34.665  20.279  13.463
97509W        W68109  41.993  38.769  10.753
97510W        W68110  12.605  30.702   2.055
97511W        W68111  15.379  41.442   2.110
97512W        W68112  11.817  16.364  12.083
97513W        W68113  31.766  38.000  12.402
97514W        W68114  44.709  41.778  11.040
97515W        W68115  25.976   1.704   3.302
97516W        W68116  21.107  41.415  11.727
97517W        W68117  33.632  28.424   3.674
97518W        W68118  22.471   9.905   4.182
97519W        W68119  41.423   2.834   0.471
97520W        W68120   6.842  13.621   2.395
97521W        W68121  43.982  31.011   1.308
97522W        W68122  27.710  29.482   4.601
97523W        W68123  16.331  15.291  14.304
97524W        W68124   0.276  34.294  10.665
97525W        W68125  38.077  30.103   1.742
97526W        W68126  23.368  21.222   0.901
97527W        W68127  32.543  34.880   3.692
97528W        W68128  12.378  30.263   3.649
97529W        W68129  12.776  44.501  10.465
97530W        W68130  39.832  42.538   3.374
97531W        W68131  41.247  37.918  14.776
97532W        W68132  14.288   0.666  13.912
97533W        W68133  30.992  37.406  12.420
97534W        W68134   1.226  35.103  14.075
97535W        W68135   2.875  13.395   1.644
97536W        W68136  28.042  15.664  14.574
97537W        W68137   3.757  41.478  10.974
97538W        W68138  43.888  41.830  11.055
97539W        W68139   7.719   9.170  11.568
97540W        W68140  33.927  41.383   4.191
97541W        W68141  36.003  17.883   4.505
97542W        W68142  27.983  42.125  12.583
97543W        W68143   4.119  11.300  11.488
97544W        W68144  19.493  39.082  12.070
97545W        W68145  11.340  10.456  11.669
97546W        W68146  26.505  44.915  10.437
97547W        W68147  23.566  23.768   4.136
97548W        W68148   2.359   1.425  11.116
97549W        W68149  41.000  24.584   4.860
97550W        W68150  23.125  23.912   0.166
97551W        W68151  37.294  19.603  12.529
97552W        W68152  31.645  30.075  13.020
97553W        W68153   4.688   5.759   1.250
97554W        W68154  10.786  44.824  14.068
97555W        W68155   7.438  43.825   2.214
97556W        W68156   5.733  25.123   1.690
97557W        W68157  22.699  29.045   2.115
97558W        W68158  10.642  36.004   4.021
97559W        W68159  40.889   1.392   2.816
97560W        W68160  21.569  31.938   0.763
97561W        W68161  21.426  12.898  10.342
97562W        W68162  35.528  19.257  14.783
97563W        W68163  14.537  29.818   2.285
97564W        W68164  40.888  38.138  12.164
97565W        W68165   4.691   6.117  10.685
97566W        W68166  10.407   0.334   1.577
97567W        W68167   1.541  41.379  11.674
97568W        W68168   8.362   8.829  14.496
97569W        W68169  24.912  41.318  12.034
97570W        W68170   6.999  19.726  13.105
97571W        W68171  33.452   0.694  13.368
97572W        W68172  19.920  17.721  14.679
97573W        W68173  28.730  21.267  12.344
97574W        W68174  34.136   8.745   4.148
97575W        W68175  34.459  13.208   0.534
97576W        W68176  12.097  41.078  11.070
97577W        W68177  36.799  42.418   0.804
97578W        W68178  26.967   4.973  12.946
97579W        W68179  22.859  16.341   0.369
97580W        W68180  19.670  30.335   4.105
97581W        W68181   3.258  36.364  12.456
97582W        W68182  23.828   6.742   4.165
97583W        W68183  23.071  15.661  13.391
97584W        W68184  10.383  31.877   1.293
97585W        W68185  32.362  16.523   4.174
97586W        W68186  28.115  31.968  14.400
97587W        W68187   6.471  37.862   2.215
97588W        W68188   2.441   5.194  13.311
97589W        W68189  15.482   3.763   0.033
97590W        W68190  10.145   3.416  11.629
97591W        W68191  41.464  26.686   0.989
97592W        W68192  44.827  44.292   1.224
97593W        W68193  26.512  42.679  13.881
97594W        W68194   2.570  13.320  14.288
97595W        W68195  33.408   8.392  11.603
97596W        W68196  24.265   5.790   1.179
97597W        W68197  17.573  27.136   0.423
97598W        W68198  34.049  26.646   4.030
97599W        W68199   9.393   9.478   4.647
97600W        W68200  41.903   1.172   2.757
97601W        W68201  25.702  11.487   2.344
97602W        W68202  43.028  37.656  12.883
97603W        W68203  34.426  28.090  10.764
97604W        W68204  43.450   1.717   4.029
97605W        W68205  33.904  23.602   0.548
97606W        W68206   9.742  24.667  14.926
97607W        W68207   3.815  25.902  11.661
97608W        W68208  24.867  34.220   4.179
97609W        W68209   5.883  31.155   4.527
97610W        W68210   9.214   0.941   1.938
97611W        W68211  18.281   9.757  13.196
97612W        W68212  40.820  34.384   0.379
97613W        W68213   7.393   4.639   3.217
97614W        W68214  41.367  38.460   0.836
97615W        W68215  30.106  27.318  11.691
97616W        W68216  30.512  39.599  14.533
97617W        W68217  11.263  39.117   0.754
97618W        W68218  11.306  14.323  14.051
97619W        W68219  13.651  27.028  14.886
97620W        W68220  28.221  14.694   3.779
97621W        W68221   3.733  33.980   3.597
97622W        W68222  23.615  31.326   4.137
97623W        W68223  10.857   0.316  14.786
97624W        W68224  41.889  27.987   1.603
97625W        W68225  38.909   2.957  12.899
97626W        W68226  31.936   9.894   1.768
97627W        W68227  28.109  37.065  12.066
97628W        W68228  28.444  14.262   0.334
97629W        W68229  31.529   9.510   0.301
97630W        W68230   3.230  21.565   1.346
97631W        W68231  29.048  34.803   1.610
97632W        W68232  30.580  38.739  10.733
97633W        W68233   0.262  11.332   2.899
97634W        W68234  38.058  30.371  12.458
97635W        W68235  25.268  35.785  11.986
97636W        W68236  36.597   9.920   1.941
97637W        W68237  44.492  43.552   4.258
97638W        W68238   2.310   6.854   4.360
97639W        W68239  37.331  43.974   1.267
97640W        W68240  20.974  18.075   0.957
97641W        W68241  25.495  10.989   3.118
97642W        W68242  21.989  43.344  13.353
97643W        W68243  43.485  26.712   4.216
97644W        W68244  26.251  36.538   1.014
97645W        W68245  31.451  38.505   2.796
97646W        W68246  33.882   9.051   0.690
97647W        W68247  34.515  35.955  10.758
97648W        W68248  28.419   3.264  14.308
97649W        W68249   0.720  13.776  12.087
97650W        W68250   3.933  22.966   0.522
97651W        W68251  37.128  11.403   3.735
97652W        W68252   4.462  36.534  11.645
97653W        W68253  43.495  16.182   3.904
97654W        W68254  41.916  11.225  12.003
97655W        W68255  18.353  11.801  13.978
97656W        W68256  18.993  22.835   2.808
97657W        W68257   7.388  42.310  14.369
97658W        W68258  12.708   4.543   1.204
97659W        W68259  24.205  43.624  13.099
97660W        W68260  17.270  10.453  10.745
97661W        W68261  10.300  35.100   4.531
97662W        W68262   3.794  35.847   4.021
97663W        W68263  44.376  14.403   1.649
97664W        W68264   1.161  35.555  12.179
97665W        W68265  26.153  14.266   3.238
97666W        W68266  26.506  27.987   4.660
97667W        W68267  25.668  37.294   0.573
97668W        W68268  22.068   4.624   0.631
97669W        W68269  35.117  27.897  12.901
97670W        W68270  10.792  34.538  11.652
97671W        W68271  26.431  34.614  12.237
97672W        W68272  44.411   0.766  14.998
97673W        W68273  21.723   0.639   4.111
97674W        W68274   4.857  37.431  11.217
97675W        W68275  10.273  32.446   3.754
97676W        W68276  14.343  41.414   1.026
97677W        W68277  34.909  10.295  11.581
97678W        W68278  27.650  43.990  10.942
97679W        W68279   3.324  24.224  12.800
97680W        W68280   6.797   6.467   4.343
97681W        W68281  36.032  21.449   2.883
97682W        W68282  32.235  34.086   3.108
97683W        W68283  39.732  27.640  13.126
97684W        W68284  33.649   0.418   4.839
97685W        W68285  27.108  13.198   2.492
97686W        W68286  16.313  30.922   3.799
97687W        W68287  11.132   0.365   2.347
97688W        W68288   2.376  15.805  14.909
97689W        W68289  11.664  12.841   1.399
97690W        W68290  24.653  16.682  14.815
97691W        W68291  16.083  39.605  12.526
97692W        W68292  24.364   4.075  12.200
97693W        W68293  35.350  11.929   4.616
97694W        W68294  31.448  31.027   3.213
97695W        W68295  16.243  14.557  10.212
97696W        W68296  24.043  18.547   3.757
97697W        W68297  37.539  35.299   4.875
97698W        W68298  43.982  14.927   3.617
97699W        W68299   8.285  29.546   4.714
97700W        W68300  31.385  27.479  14.337
97701W        W68301  18.213  43.325   2.003
97702W        W68302   0.771   1.946  13.625
97703W        W68303  26.927  16.200  14.285
97704W        W68304  22.762   1.105  10.645
97705W        W68305  28.551  22.565  13.407
97706W        W68306  24.212   2.968   1.884
97707W        W68307   0.225  27.626   3.664
97708W        W68308  20.354  42.445   4.285
97709W        W68309  19.982  19.630   4.824
97710W        W68310  18.890  27.587   4.103
97711W        W68311  40.433  22.426  13.006
97712W        W68312  17.653  41.765  12.420
97713W        W68313  43.457  14.547   2.152
97714W        W68314   6.817  42.349   4.236
97715W        W68315  12.188   2.786  10.566
97716W        W68316  13.168  27.437   4.381
97717W        W68317  17.117   8.920   2.851
97718W        W68318  40.580  41.777   4.173
97719W        W68319  35.962  13.726   2.395
97720W        W68320  44.941   8.991   1.143
97721W        W68321  42.827  24.256  14.022
97722W        W68322  39.443  32.044   3.657
97723W        W68323  17.769  23.802  12.787
97724W        W68324  38.950  32.180   4.038
97725W        W68325  12.205  26.782  10.739
97726W        W68326   6.750  23.166   4.494
97727W        W68327  21.846  43.272   0.863
97728W        W68328  40.979  13.015   3.915
97729W        W68329  15.258  44.067   0.873
97730W        W68330  42.194  28.095  11.191
97731W        W68331  25.800  35.776  12.002
97732W        W68332  40.191  38.910   4.283
97733W        W68333  44.843   9.852  11.672
97734W        W68334  14.192  27.110  13.905
97735W        W68335  28.922  31.699  12.477
97736W        W68336  18.822  31.695  13.486
97737W        W68337  22.379  22.605   3.876
97738W        W68338  11.666  38.523   1.753
97739W        W68339   9.290   2.779  11.262
97740W        W68340   2.259   6.849   1.045
97741W        W68341  22.003  19.877   2.857
97742W        W68342   5.978  30.164  13.974
97743W        W68343  42.552  35.439  10.347
97744W        W68344  24.518   6.512  12.395
97745W        W68345  10.894   9.793   1.717
97746W        W68346   0.285  14.253   1.790
97747W        W68347  21.041  41.594   1.039
97748W        W68348  37.295  31.671  13.398
97749W        W68349   6.418   9.703  12.508
97750W        W68350  28.604  19.219  13.625
97751W        W68351   5.021  36.401   3.051
97752W        W68352  27.467  10.278   0.772
97753W        W68353  27.607  12.056   1.678
97754W        W68354   7.371  11.976   1.975
97755W        W68355   0.275   1.755   4.437
97756W        W68356  25.819  35.435   4.050
97757W        W68357  27.376  29.014   3.255
97758W        W68358  38.034   2.544  12.513
97759W        W68359  34.689  14.436   1.713
97760W        W68360  18.895  37.911   0.529
97761W        W68361  30.304  28.387   0.400
97762W        W68362   3.028  21.372  12.348
97763W        W68363   1.418  19.564   4.169
97764W        W68364  11.759   1.664   1.541
97765W        W68365  30.987  38.229  11.594
97766W        W68366  32.429  15.901  13.943
97767W        W68367  10.187  30.907   0.792
97768W        W68368  35.051   6.329  13.637
97769W        W68369   9.109  38.421   0.152
97770W        W68370  23.315  35.408  12.260
97771W        W68371  28.538  26.020  13.980
97772W        W68372  13.871  10.486   1.075
97773W        W68373  17.548  14.220   1.149
97774W        W68374  12.823  33.155   3.549
97775W        W68375  17.107  11.345  12.126
97776W        W68376  13.160  12.309  12.817
97777W        W68377  30.097  42.074   4.712
97778W        W68378   3.779  38.313  14.289
97779W        W68379  44.737  11.263  10.824
97780W        W68380  31.631  30.882  13.502
97781W        W68381   0.409  34.448   2.938
97782W        W68382  26.579  29.894   4.549
97783W        W68383  28.699  36.015  13.005
97784W        W68384  41.936  12.218   4.844
97785W        W68385  27.086  17.753   1.431
97786W        W68386   4.640  27.647  12.536
97787W        W68387   6.012  11.879   0.721
97788W        W68388  25.230  16.842   1.252
97789W        W68389  23.078  25.480  14.314
97790W        W68390  22.360  40.766   3.325
97791W        W68391  13.759   9.152  14.450
97792W        W68392  31.524   4.692  10.024
97793W        W68393  36.041   9.207   2.247
97794W        W68394  13.687  24.928  11.577
97795W        W68395  13.057  32.766   4.678
97796W        W68396   1.590   4.480   1.398
97797W        W68397  16.251  16.614   2.660
97798W        W68398  29.092  26.659   0.999
97799W        W68399  14.236  33.415   4.626
97800W        W68400  42.358  22.755   3.551
97801W        W68401  36.057  17.561   1.691
97802W        W68402  34.891  41.860   4.827
97803W        W68403  30.293  22.230  13.273
97804W        W68404  40.049  33.441   0.791
97805W        W68405  16.065  35.790   3.876
97806W        W68406  18.907  30.955  11.064
97807W        W68407  30.409   8.004   0.221
97808W        W68408   4.062  35.247   0.368
97809W        W68409  42.619  19.098  12.086
97810W        W68410   9.832   6.264  14.297
97811W        W68411  24.026  39.034   3.654
97812W        W68412  38.434  20.557  11.113
97813W        W68413  20.150  18.010   5.068
97814W        W68414  29.055  13.065  12.162
97815W        W68415  22.431   9.309  11.302
97816W        W68416  23.428  36.380   1.292
97817W        W68417   0.291  32.913  12.604
97818W        W68418  35.440  26.995  12.507
97819W        W68419  26.006  33.517  10.713
97820W        W68420  29.479  15.275   0.729
97821W        W68421   3.136  29.273  14.758
97822W        W68422  15.236  23.200  12.084
97823W        W68423  24.636  13.551   2.946
97824W        W68424   7.543   5.341  12.414
97825W        W68425  20.538   6.290  12.458
97826W        W68426  38.427  12.073   4.430
97827W        W68427  22.707   5.467   4.151
97828W        W68428  22.089  23.986   0.637
97829W        W68429  17.762  35.114  11.346
97830W        W68430  27.581  31.618  11.177
97831W        W68431  39.587  18.175   2.241
97832W        W68432  42.847  35.206   3.258
97833W        W68433  41.731   9.413   3.296
97834W        W68434  11.409  22.052   3.160
97835W        W68435  20.158  27.874   2.818
97836W        W68436  43.898  42.480   2.505
97837W        W68437   4.233  16.979  12.951
97838W        W68438  19.283  40.513   3.856
97839W        W68439  14.072  44.897  13.462
97840W        W68440  32.882  19.578   3.095
97841W        W68441   5.091  44.741  12.005
97842W        W68442  23.113  13.191   2.307
97843W        W68443  23.167   0.009  13.574
97844W        W68444  36.474   5.854  13.132
97845W        W68445  18.584  11.787  14.439
97846W        W68446   1.855  32.145   2.692
97847W        W68447  22.664  43.464  14.168
97848W        W68448  17.302  30.208  13.911
97849W        W68449  25.574  39.569   3.883
97850W        W68450  35.747  36.904   3.852
97851W        W68451  41.301  40.511   0.267
97852W        W68452  17.781  30.360  14.052
97853W        W68453  41.809  16.694   4.601
97854W        W68454  14.101  39.568  12.555
97855W        W68455  22.713  26.939   0.884
97856W        W68456  42.990   0.208  10.640
97857W        W68457  19.699  21.247  11.850
97858W        W68458  26.564  17.685   0.809
97859W        W68459  25.813  34.853  13.783
97860W        W68460  15.722  24.453  13.431
97861W        W68461  30.563  19.109   1.166
97862W        W68462  41.527  16.916   4.159
97863W        W68463   4.899  41.139  13.505
97864W        W68464  11.442   2.267   1.939
97865W        W68465  12.619  37.046  12.967
97866W        W68466  42.438  34.375   3.369
97867W        W68467   2.341  28.086  11.929
97868W        W68468  14.222   5.266   0.725
97869W        W68469  29.647  17.594  14.086
97870W        W68470  24.239  20.596  12.020
97871W        W68471  27.992   2.735  11.618
97872W        W68472   1.154  42.831   2.709
97873W        W68473  33.898  28.956   4.525
97874W        W68474   3.182  33.417   0.770
97875W        W68475  11.786  21.617  11.387
97876W        W68476  16.632  15.109  13.395
97877W        W68477   6.993  40.229   4.127
97878W        W68478  16.339   2.398  14.769
97879W        W68479  44.916  42.918   4.654
97880W        W68480   0.043  16.744   4.028
97881W        W68481  35.925  32.501   2.180
97882W        W68482  43.929  44.728   1.863
97883W        W68483  12.024  14.149   4.146
97884W        W68484  26.694  40.653  13.727
97885W        W68485   0.806  14.607   0.845
97886W        W68486  30.627  11.315   2.743
97887W        W68487  29.096   8.818   4.124
97888W        W68488  32.994  28.418  14.957
97889W        W68489  29.516   4.697  10.426
97890W        W68490   7.724  14.828  10.443
97891W        W68491   3.248   1.153  12.279
97892W        W68492  21.488   0.507  12.991
97893W        W68493  24.645  16.165   3.813
97894W        W68494   5.226   1.965  14.298
97895W        W68495  43.054   5.775   1.748
97896W        W68496  44.448  32.026   2.814
97897W        W68497  42.016  14.188  10.968
97898W        W68498  19.050  25.193  14.878
97899W        W68499   9.830  22.743   0.407
97900W        W68500  28.945   8.330   3.407
97901W        W68501  20.985  34.393  13.986
97902W        W68502   0.362  22.278  13.868
97903W        W68503  13.798   8.346  12.951
97904W        W68504   1.723   4.992  10.916
97905W        W68505  30.925   9.136   1.248
97906W        W68506  10.686  11.437   1.427
97907W        W68507  25.468  11.170  14.196
97908W        W68508  27.733   4.457  12.483
97909W        W68509  24.665  20.776  12.838
97910W        W68510   0.868  23.202  12.363
97911W        W68511  23.946  28.478   4.615
97912W        W68512  18.298  18.783   0.339
97913W        W68513   6.279  42.121   4.728
97914W        W68514  35.475  16.573   3.631
97915W        W68515   2.228   2.703   4.807
97916W        W68516  20.167  24.962  14.117
97917W        W68517  25.177  28.764   0.100
97918W        W68518  39.453  33.908  13.780
97919W        W68519   5.917   9.175  13.859
97920W        W68520  19.180  12.674  11.969
97921W        W68521  15.586  36.275   2.711
97922W        W68522   9.062   8.473   1.632
97923W        W68523   8.623  13.648  11.528
97924W        W68524   4.885  12.114  14.438
97925W        W68525  23.240   5.720   1.106
97926W        W68526   5.820   8.343   3.120
97927W        W68527  23.450  11.615  11.706
97928W        W68528  28.071  16.504  12.316
97929W        W68529  37.026  11.825   0.962
97930W        W68530  15.580  31.824   2.067
97931W        W68531  31.637  43.284  13.943
97932W        W68532   6.832   2.558   3.703
97933W        W68533  33.399  24.467  14.771
97934W        W68534   1.848  26.902   3.757
97935W        W68535  27.881  33.403  10.947
97936W        W68536  28.371  39.877  13.814
97937W        W68537  43.049  25.708   2.186
97938W        W68538  16.466  18.594   1.734
97939W        W68539   8.183  29.046  13.504
97940W        W68540  37.223  23.267   3.189
97941W        W68541   4.542  44.481  10.644
97942W        W68542  43.786  41.918   3.359
97943W        W68543  16.237  37.103   0.070
97944W        W68544  14.669  31.946   4.684
97945W        W68545  18.108  41.993   2.818
97946W        W68546   2.914   5.289   0.693
97947W        W68547  29.173   1.225   2.180
97948W        W68548  19.235  41.919   4.837
97949W        W68549  24.023  20.993  13.010
97950W        W68550  22.051   4.980   1.904
97951W        W68551  17.639  20.293   4.712
97952W        W68552  23.219  26.008  10.792
97953W        W68553  24.694  44.032   2.826
97954W        W68554  42.966  26.788   4.206
97955W        W68555  20.328  13.136   4.141
97956W        W68556   9.602   8.094  10.934
97957W        W68557  10.951  44.828   0.842
97958W        W68558  14.521  28.120   3.638
97959W        W68559  37.016  18.654  13.474
97960W        W68560  19.522  18.510  11.606
97961W        W68561  32.857  40.921   0.932
97962W        W68562   4.330   5.263   3.247
97963W        W68563  44.853   3.960  14.975
97964W        W68564   5.525  13.908   2.175
97965W        W68565   5.299  40.806   0.281
97966W        W68566   6.982  33.259  11.671
97967W        W68567  35.993  20.597  10.800
97968W        W68568  43.252  18.470   2.561
97969W        W68569   4.889  28.991  14.990
97970W        W68570  29.754  13.070   4.983
97971W        W68571  10.325  22.596  10.845
97972W        W68572   2.684  33.089   2.719
97973W        W68573  24.569  41.870   3.904
97974W        W68574  21.510  11.417  14.856
97975W        W68575  25.234  44.732   3.694
97976W        W68576  13.170  35.328  10.633
97977W        W68577  23.071  36.614   0.032
97978W        W68578  13.754  28.671   2.395
97979W        W68579   0.339  39.036  13.327
97980W        W68580  35.312  37.153   3.790
97981W        W68581  29.282   5.798   0.323
97982W        W68582  41.245  27.990  11.023
97983W        W68583   3.535  20.487   0.051
97984W        W68584   3.438   3.598   1.914
97985W        W68585   2.923   3.803  14.035
97986W        W68586  20.576  30.142  10.918
97987W        W68587   1.825  43.498  13.530
97988W        W68588  15.171  27.571   3.591
97989W        W68589  11.482  20.766   0.139
97990W        W68590  13.854  31.376   4.070
97991W        W68591   6.662   8.767   4.555
97992W        W68592  14.172  40.290   4.103
97993W        W68593   5.976  18.550   0.930
97994W        W68594  16.104  44.065  14.556
97995W        W68595   9.854   8.622   3.760
97996W        W68596  32.071   8.807   4.065
97997W        W68597   3.777  39.480   3.043
97998W        W68598  24.004  11.833  13.563
97999W        W68599  33.016   7.276  14.347
98000W        W68600  24.911   3.803  13.381
98001W        W68601   6.768  29.610   0.545
98002W        W68602   8.545  11.581   5.111
98003W        W68603  34.931  40.662   3.821
98004W        W68604   2.658  28.210   3.103
98005W        W68605   1.014  30.913  11.123
98006W        W68606   1.976  37.426   1.212
98007W        W68607  33.077  37.812  10.782
98008W        W68608  33.952  42.998  11.461
98009W        W68609  20.514  17.334   0.810
98010W        W68610  40.241  29.434   4.654
98011W        W68611  29.141  36.087  12.306
98012W        W68612  19.066  25.064   4.103
98013W        W68613  29.129  29.434  14.937
98014W        W68614   8.817  37.124   4.545
98015W        W68615   4.306  43.393  12.471
98016W        W68616  28.440  42.240  13.902
98017W        W68617   9.855   3.257  12.083
98018W        W68618  32.316  33.431   1.761
98019W        W68619  13.144  30.742   1.820
98020W        W68620  30.264  31.070  11.052
98021W        W68621   5.391  31.697  12.649
98022W        W68622  29.896  13.375   0.040
98023W        W68623  11.672   5.174   4.556
98024W        W68624   4.211  20.075  14.029
98025W        W68625  16.592  20.685  14.443
98026W        W68626  25.842  37.584  14.120
98027W        W68627  23.081  43.176  14.075
98028W        W68628  14.181  12.138  14.733
98029W        W68629   3.197  33.583  13.030
98030W        W68630  41.005  16.878  10.947
98031W        W68631   1.210  12.172  13.101
98032W        W68632  41.124  12.263  12.136
98033W        W68633  40.707   3.269   0.909
98034W        W68634  44.320  35.946   0.667
98035W        W68635   7.465  37.439   3.778
98036W        W68636  35.440   1.391   2.837
98037W        W68637  23.540  43.209  10.931
98038W        W68638   3.190  20.607  13.142
98039W        W68639  20.163  12.889   3.591
98040W        W68640  27.264  24.955  13.425
98041W        W68641  13.906  24.087  14.347
98042W        W68642  20.138  22.474  13.901
98043W        W68643  15.058  17.655   2.869
98044W        W68644  25.205  41.782  10.973
98045W        W68645  14.191  43.269   0.873
98046W        W68646  11.667  31.509  11.045
98047W        W68647  24.223  33.037   1.706
98048W        W68648  16.696  33.549   3.659
98049W        W68649  27.715  11.715   0.850
98050W        W68650  23.927  15.402  13.898
98051W        W68651   3.244   4.886   4.583
98052W        W68652   9.815  21.376  11.181
98053W        W68653  16.735  25.073  11.604
98054W        W68654  32.177  33.046   3.386
98055W        W68655  38.793  42.852   3.710
98056W        W68656  20.744   5.151  11.936
98057W        W68657   7.135  29.199  14.946
98058W        W68658  17.058  44.996   0.790
98059W        W68659  32.086  44.055  12.004
98060W        W68660  38.988  18.552   0.497
98061W        W68661  32.217   6.542  10.539
98062W        W68662  16.922  18.637   4.718
98063W        W68663  29.646   4.917  13.425
98064W        W68664   7.473   3.818   4.641
98065W        W68665  44.189  37.690   1.708
98066W        W68666  26.894  12.481  11.999
98067W        W68667  32.539  12.920   0.029
98068W        W68668   7.622  24.097   1.226
98069W        W68669  11.959  20.750   4.816
98070W        W68670  13.189  34.855  10.361
98071W        W68671  11.933  21.804  13.887
98072W        W68672  17.908  30.752   0.964
98073W        W68673  24.784  21.297  13.512
98074W        W68674  40.514   9.173  10.952
98075W        W68675  42.263   4.053   3.527
98076W        W68676  36.754  10.175  12.381
98077W        W68677  11.284  20.190  10.888
98078W        W68678  25.994   4.134  14.792
98079W        W68679   9.278   0.861   1.442
98080W        W68680  23.004  18.240   2.739
98081W        W68681   8.497   7.794   2.819
98082W        W68682  24.048  39.435   2.334
98083W        W68683  12.353  39.100  12.112
98084W        W68684  29.839  26.983   4.093
98085W        W68685  12.525  34.969   3.135
98086W        W68686  44.426  17.184  14.370
98087W        W68687   7.893   3.625   1.835
98088W        W68688   7.442  21.259   0.955
98089W        W68689  12.840  13.654  12.181
98090W        W68690  18.144   5.280   0.051
98091W        W68691   7.668  41.253  11.558
98092W        W68692  23.958  23.630  14.586
98093W        W68693  37.979  27.536   4.706
98094W        W68694   5.163  29.836   3.624
98095W        W68695  12.352   2.366  10.801
98096W        W68696  28.348  35.231   1.700
98097W        W68697  22.596   5.693  14.871
98098W        W68698  21.137  14.116  14.914
98099W        W68699  39.892  10.009   3.310
98100W        W68700  16.712  15.268  12.926
98101W        W68701  14.687  24.524   2.761
98102W        W68702   5.779  42.867  14.406
98103W        W68703  20.284   3.942  14.603
98104W        W68704   0.728  43.077   2.572
98105W        W68705  25.129  39.282   1.176
98106W        W68706  10.269   1.048   0.487
98107W        W68707  26.647   6.719   2.759
98108W        W68708   9.688  36.801   3.377
98109W        W68709  11.753  21.812   2.815
98110W        W68710  23.673  28.606  13.452
98111W        W68711  43.479  31.887  11.593
98112W        W68712   6.699  38.857   1.780
98113W        W68713  43.916  32.417  12.482
98114W        W68714   9.386  34.376  12.181
98115W        W68715   5.940  41.075   2.259
98116W        W68716  17.646  43.810   4.650
98117W        W68717  26.072   0.814   1.971
98118W        W68718  20.630  25.110  11.502
98119W        W68719   7.164  33.577  13.065
98120W        W68720  30.825  39.630  11.990
98121W        W68721  18.067  31.995   0.804
98122W        W68722  29.458   0.242   4.666
98123W        W68723  32.029   9.820   0.849
98124W        W68724  35.002  31.976  13.502
98125W        W68725  16.598  37.242  12.431
98126W        W68726  33.025   3.613  11.938
98127W        W68727  11.718  26.683   2.798
98128W        W68728   9.872  36.384   4.209
98129W        W68729   3.517  16.126   0.918
98130W        W68730  11.523  27.494   0.897
98131W        W68731   5.877  13.074  13.835
98132W        W68732  28.865   2.363  13.442
98133W        W68733  22.701  27.141   1.369
98134W        W68734  40.869  12.475  12.531
98135W        W68735  14.009  27.682   0.312
98136W        W68736   2.284   4.752  11.732
98137W        W68737  27.584   4.170  11.190
98138W        W68738  20.561   7.263   3.109
98139W        W68739  28.516  42.278  12.605
98140W        W68740   1.813   5.379  12.554
98141W        W68741  39.362  20.617  10.652
98142W        W68742  41.848  34.834  13.894
98143W        W68743  30.275  38.049  14.366
98144W        W68744   4.194  17.503   2.699
98145W        W68745  30.187  16.005  10.770
98146W        W68746  24.578  17.544  14.932
98147W        W68747  30.610  35.797   1.340
98148W        W68748  26.243   6.440   2.943
98149W        W68749  22.468   3.506   5.127
98150W        W68750   0.933  43.757  13.524
98151W        W68751  44.726  14.704  14.289
98152W        W68752  20.832   6.289   2.820
98153W        W68753  25.556  10.788   1.784
98154W        W68754  13.297  22.036  12.083
98155W        W68755  33.959  17.715  10.391
98156W        W68756  34.963  13.188   0.390
98157W        W68757  11.719   4.295   2.815
98158W        W68758  32.787  33.888  11.063
98159W        W68759  11.774   8.876   0.318
98160W        W68760  37.599  38.729  10.356
98161W        W68761  29.072  38.508  11.693
98162W        W68762  14.764   7.868  10.548
98163W        W68763   8.795  23.370   3.554
98164W        W68764  41.571  38.461  13.939
98165W        W68765  39.113  34.489  14.044
98166W        W68766  32.936   2.768   0.793
98167W        W68767  39.373   1.501  13.981
98168W        W68768   5.900  25.311  12.949
98169W        W68769  43.531  20.035  12.914
98170W        W68770  29.437  14.230   3.984
98171W        W68771  31.619  20.835   2.762
98172W        W68772  42.556   8.246   2.236
98173W        W68773  35.327  40.377   3.218
98174W        W68774  40.177  16.240   0.399
98175W        W68775   7.862  36.557  14.289
98176W        W68776  34.627   0.477  14.326
98177W        W68777  37.106  38.257   3.058
98178W        W68778  32.313  29.235  11.380
98179W        W68779  34.097  34.063   4.588
98180W        W68780  14.385  15.173   2.749
98181W        W68781   0.040  40.975   2.556
98182W        W68782  31.687  22.271  13.864
98183W        W68783  31.459  38.115   4.159
98184W        W68784  17.681  20.161   3.176
98185W        W68785  29.698  12.040  10.454
98186W        W68786  29.400  33.077   1.435
98187W        W68787  11.680  23.757  11.237
98188W        W68788  35.316  12.345  12.278
98189W        W68789  36.597  39.957  12.995
98190W        W68790  24.089  10.092   2.132
98191W        W68791  20.522   0.896  11.027
98192W        W68792  19.687  31.057   1.297
98193W        W68793  10.852   1.713  10.464
98194W        W68794  39.914  14.278  12.674
98195W        W68795  12.087  29.592   4.317
98196W        W68796  38.252  10.968  11.174
98197W        W68797  33.966  41.382  14.778
98198W        W68798   2.275   7.696  11.217
98199W        W68799  11.188  22.999  12.354
98200W        W68800  24.932  16.625   3.285
98201W        W68801  40.777  20.086  13.857
98202W        W68802  27.998  41.055   4.597
98203W        W68803  24.232   7.818  14.889
98204W        W68804   5.339  10.628  10.646
98205W        W68805   4.897   5.407  14.386
98206W        W68806  29.087  38.519  10.690
98207W        W68807  12.717  36.083  10.523
98208W        W68808  34.940  10.251   3.660
98209W        W68809  23.457   5.246  13.749
98210W        W68810  10.133   7.909   1.919
98211W        W68811  30.904  35.388  14.879
98212W        W68812  28.058   1.101   3.223
98213W        W68813  19.716  27.711   0.381
98214W        W68814  10.491   2.359  14.334
98215W        W68815  12.353   3.758  14.491
98216W        W68816  27.992  34.285  11.631
98217W        W68817  39.642  39.366  10.937
98218W        W68818  16.514  42.976   0.681
98219W        W68819  40.516  32.998  12.531
98220W        W68820  10.071   5.027  13.993
98221W        W68821  29.040  37.894  13.005
98222W        W68822  41.931  42.554  14.419
98223W        W68823  18.594   4.508  13.401
98224W        W68824  30.595  12.883  10.810
98225W        W68825   4.476  32.053   2.243
98226W        W68826  43.333  22.237   1.768
98227W        W68827   3.921  35.882  12.530
98228W        W68828  21.251  12.086   3.934
98229W        W68829  23.465  34.781  10.693
98230W        W68830  22.105  33.531   4.650
98231W        W68831   2.778   7.891   2.405
98232W        W68832  41.047  31.089   3.747
98233W        W68833  25.562  33.396  10.495
98234W        W68834  21.256  23.734   1.323
98235W        W68835  36.479  33.384   0.814
98236W        W68836  28.564  14.277   1.699
98237W        W68837  37.266  30.015   0.802
98238W        W68838  12.748  31.092   1.702
98239W        W68839   1.227  43.262   1.266
98240W        W68840  21.167  22.189   2.435
98241W        W68841  20.517   7.682   3.417
98242W        W68842  26.560  36.143   0.425
98243W        W68843  32.872  28.612  11.490
98244W        W68844   3.153  26.454   2.213
98245W        W68845  19.761  35.289  11.700
98246W        W68846  13.596   2.014  11.025
98247W        W68847  25.058  10.154   2.940
98248W        W68848  31.204  16.281   3.241
98249W        W68849  26.552  11.805   4.022
98250W        W68850  11.780  28.741   0.456
98251W        W68851   9.903  41.090  10.417
98252W        W68852  42.746  26.114   2.289
98253W        W68853   9.401   7.425  12.179
98254W        W68854   7.412  29.597  14.748
98255W        W68855  34.522  29.091   0.282
98256W        W68856   9.273   5.246  13.091
98257W        W68857  22.495   7.852   2.295
98258W        W68858   2.995   4.700  12.026
98259W        W68859  25.040  24.136  13.364
98260W        W68860  12.395  29.162   2.670
98261W        W68861  42.246  12.781   4.099
98262W        W68862  44.583   2.894   1.873
98263W        W68863  17.280   3.705   3.705
98264W        W68864   2.109   4.880  11.287
98265W        W68865  37.012  25.256  14.364
98266W        W68866  34.591  39.363  14.297
98267W        W68867  37.485  28.380   4.344
98268W        W68868  43.648  33.941  11.472
98269W        W68869  39.799   3.808  12.569
98270W        W68870  31.413  42.697  11.728
98271W        W68871  40.172  12.602  10.579
98272W        W68872  44.665  27.379   3.966
98273W        W68873   2.339   9.673   3.596
98274W        W68874  34.571  29.893  12.466
98275W        W68875  43.775  37.950  11.148
98276W        W68876  39.491   4.099   3.711
98277W        W68877  34.929  43.087  11.741
98278W        W68878  13.493  22.622  12.085
98279W        W68879  44.384  44.251   2.712
98280W        W68880  24.947  23.985  14.507
98281W        W68881  19.967  31.961   2.138
98282W        W68882   4.496  11.789   0.953
98283W        W68883  14.361  22.134   3.347
98284W        W68884   4.299  21.196   0.200
98285W        W68885  19.555   1.587   3.516
98286W        W68886  29.023  43.759  12.678
98287W        W68887  35.098  28.238   3.748
98288W        W68888  24.148  19.884   3.496
98289W        W68889  11.241  34.118   4.217
98290W        W68890  39.464   2.039  14.028
98291W        W68891  38.006   6.255  10.526
98292W        W68892   3.107  44.011   4.247
98293W        W68893  25.442  40.257   4.626
98294W        W68894   4.859   5.226   5.004
98295W        W68895   2.486   3.839   0.442
98296W        W68896  29.310  26.100  10.422
98297W        W68897   9.375  43.561  12.434
98298W        W68898  33.820  17.282  10.143
98299W        W68899  19.829  13.204   5.064
98300W        W68900   6.708  37.499  11.522
98301W        W68901   1.278   6.404  10.442
98302W        W68902   0.734   6.845  11.121
98303W        W68903   5.150  19.287  13.725
98304W        W68904  34.930  26.223  14.361
98305W        W68905  40.578   4.312   0.824
98306W        W68906   1.825  12.678   0.449
98307W        W68907  30.955   5.642  14.193
98308W        W68908  18.678   0.929  10.603
98309W        W68909  19.706   7.539  10.303
98310W        W68910  33.238   7.397  11.500
98311W        W68911  36.432  36.355   2.297
98312W        W68912  44.811  34.810   1.460
98313W        W68913   1.558  34.813   4.027
98314W        W68914  30.133   2.558  13.047
98315W        W68915  36.059  13.070  11.189
98316W        W68916  19.498  34.466   2.236
98317W        W68917  18.563  16.619   4.367
98318W        W68918  11.738  18.525  11.730
98319W        W68919  34.007  36.645   3.213
98320W        W68920  43.382   0.697   3.247
98321W        W68921  34.642  26.972  14.078
98322W        W68922   8.871  16.766  12.951
98323W        W68923  14.345  23.128  14.237
98324W        W68924   0.690  21.592   0.481
98325W        W68925  26.923  30.654  12.042
98326W        W68926  19.315  41.279  12.932
98327W        W68927  18.623  14.885  11.398
98328W        W68928  22.484   1.348   4.120
98329W        W68929  16.671   0.145  14.328
98330W        W68930  42.311   3.287  11.199
98331W        W68931  33.883  42.201  14.015
98332W        W68932  18.523  11.615  13.517
98333W        W68933  28.002  14.408  13.894
98334W        W68934  31.610  28.526   0.010
98335W        W68935  11.181   6.288   1.308
98336W        W68936  42.995  23.402   3.888
98337W        W68937  24.463  44.189  11.736
98338W        W68938  37.307  22.037   1.174
98339W        W68939  10.714  34.827   1.928
98340W        W68940  25.523  33.362   2.837
98341W        W68941  19.799  23.784  14.883
98342W        W68942  19.104  41.797  10.793
98343W        W68943  24.773  42.913  11.480
98344W        W68944  37.925  30.998   1.891
98345W        W68945  40.692  33.866   0.212
98346W        W68946  36.038  20.041  14.546
98347W        W68947  35.895  29.503   2.725
98348W        W68948  36.583  24.541  13.538
98349W        W68949  34.648  30.708  10.582
98350W        W68950  33.862  26.229  10.674
98351W        W68951  21.816  14.753  14.275
98352W        W68952  41.156  15.798   2.796
98353W        W68953  29.105  43.999  13.141
98354W        W68954  39.489   7.836  14.588
98355W        W68955  18.579  40.325   3.616
98356W        W68956  28.786   5.211   0.152
98357W        W68957  22.196  21.753   2.389
98358W        W68958  40.976  10.278   0.649
98359W        W68959  40.416  32.302  13.070
98360W        W68960  20.240   3.866  14.083
98361W        W68961  26.179  19.791   2.256
98362W        W68962  36.403   3.066   1.862
98363W        W68963   1.381  44.015  14.719
98364W        W68964   9.897  21.041  11.586
98365W        W68965  30.452  16.707  12.115
98366W        W68966  35.127  10.389  12.033
98367W        W68967  36.111  44.476   3.003
98368W        W68968   3.286  25.080  13.156
98369W        W68969  19.306  41.456   0.387
98370W        W68970   7.680  27.499   0.484
98371W        W68971   0.407   7.647   4.541
98372W        W68972   6.789   9.772   4.545
98373W        W68973  23.069  20.339  13.942
98374W        W68974  25.141  36.156   2.364
98375W        W68975  25.683  11.455   3.156
98376W        W68976  28.282  40.829   4.957
98377W        W68977  12.258  38.271   0.966
98378W        W68978  36.906   4.394  12.059
98379W        W68979  21.621  29.226  12.023
98380W        W68980   8.957   3.797   4.262
98381W        W68981  27.084  38.433   4.452
98382W        W68982  13.858  15.259  14.428
98383W        W68983   5.719  28.619   4.788
98384W        W68984  12.702   4.744  11.953
98385W        W68985   1.161  20.567  13.889
98386W        W68986   7.156  30.291  11.129
98387W        W68987  30.176  16.790   5.028
98388W        W68988  38.982   3.467   0.376
98389W        W68989  33.787   9.852  13.232
98390W        W68990   4.873  35.981   0.419
98391W        W68991  18.350  33.648   2.110
98392W        W68992   7.806   4.116   3.460
98393W        W68993  20.546  12.759   4.930
98394W        W68994   7.471  17.491   1.027
98395W        W68995  33.644   9.120  11.155
98396W        W68996  15.023  37.238  13.434
98397W        W68997   6.108  42.729  13.977
98398W        W68998   3.209  19.127   2.894
98399W        W68999  42.085  17.530   2.904
98400W        W69000  29.146  37.160  11.422
98401W        W69001  30.939   0.280  12.453
98402W        W69002  43.329  13.635   2.631
98403W        W69003  18.307   4.010   3.058
98404W        W69004  34.069   2.004   2.872
98405W        W69005  44.996   1.429  13.298
98406W        W69006   5.005  36.701   1.364
98407W        W69007  27.227  31.864   3.546
98408W        W69008  24.784  19.133   4.733
98409W        W69009  36.863  19.490  13.853
98410W        W69010  38.867  27.910  11.172
98411W        W69011  20.156  35.596   2.755
98412W        W69012  18.305   9.173  10.641
98413W        W69013  39.388  39.986   2.681
98414W        W69014   5.622  25.002  12.619
98415W        W69015  18.046  32.881  13.453
98416W        W69016   0.026  36.496   4.228
98417W        W69017  42.035   0.337   0.400
98418W        W69018  20.117   7.297   3.363
98419W        W69019   8.412  16.650   1.341
98420W        W69020   2.205  21.737  13.856
98421W        W69021  40.757  40.844   1.917
98422W        W69022  38.788   9.233  14.465
98423W        W69023  36.662   0.464   3.792
98424W        W69024   0.807  28.522   3.243
98425W        W69025  10.105  28.799  13.843
98426W        W69026  43.851  41.892   0.816
98427W        W69027   8.166  41.627  10.396
98428W        W69028  32.027   3.435  13.852
98429W        W69029  24.020  40.344   3.850
98430W        W69030  21.824  32.123  13.467
98431W        W69031  25.863   7.671  13.118
98432W        W69032  40.830  24.239  14.313
98433W        W69033  41.137  12.288  11.280
98434W        W69034  40.902  32.954  14.044
98435W        W69035  14.761  10.207  11.008
98436W        W69036  29.637  37.435  12.987
98437W        W69037  10.419  20.275  12.364
98438W        W69038   0.199   7.615  13.382
98439W        W69039  30.492  31.900  14.346
98440W        W69040   7.997  31.381   4.926
98441W        W69041  20.875   4.156   0.493
98442W        W69042  38.543  42.453   2.301
98443W        W69043  40.743   4.887  14.866
98444W        W69044   0.473  35.965   3.168
98445W        W69045   3.652  32.720  12.791
98446W        W69046  13.591  40.778  12.921
98447W        W69047  25.349  23.694  12.373
98448W        W69048  12.678  26.252   3.912
98449W        W69049  39.487  42.193  14.255
98450W        W69050  21.716   4.445   4.141
98451W        W69051  29.557  39.881   3.096
98452W        W69052  18.313  22.545  14.855
98453W        W69053   8.889  34.162  10.545
98454W        W69054  44.546  26.153  10.662
98455W        W69055   6.587  38.576  14.455
98456W        W69056   6.428   6.388   2.657
98457W        W69057  26.926  33.877   1.733
98458W        W69058  37.296   2.641  14.071
98459W        W69059  12.223   4.379   3.683
98460W        W69060  16.410  20.657   2.349
98461W        W69061  34.007  22.781   4.822
98462W        W69062  15.619   9.557  11.532
98463W        W69063   8.663   0.895   3.310
98464W        W69064  19.593  20.614   0.940
98465W        W69065  42.890   1.896   2.235
98466W        W69066  21.158  44.640   2.106
98467W        W69067  20.126  16.769   1.229
98468W        W69068   3.971  44.640   3.739
98469W        W69069  35.509  26.762   4.033
98470W        W69070  38.581  27.451   0.862
98471W        W69071   3.849  33.158   2.286
98472W        W69072  33.635  20.869   9.803
98473W        W69073  15.227  33.165  14.465
98474W        W69074   3.286  33.500   1.286
98475W        W69075  38.891  44.967  13.407
98476W        W69076  24.575  21.926  14.346
98477W        W69077  18.640  43.205   2.248
98478W        W69078  41.022  25.894   3.337
98479W        W69079   3.420  12.537  12.102
98480W        W69080  27.606  35.040   1.471
98481W        W69081  18.068  36.407  11.900
98482W        W69082  42.639  15.277  13.114
98483W        W69083  11.888  29.219   1.805
98484W        W69084  20.636  44.481  13.061
98485W        W69085  19.308   4.215   0.044
98486W        W69086  13.818  12.199   4.870
98487W        W69087   0.761  41.703   0.384
98488W        W69088  19.667  32.362  11.975
98489W        W69089  43.218  42.563  11.195
98490W        W69090  37.517  12.786   3.144
98491W        W69091  26.929  27.778  14.132
98492W        W69092   7.222  12.820  12.331
98493W        W69093  22.671  32.013   2.408
98494W        W69094  16.807   4.461   4.134
98495W        W69095  12.851  14.122   0.819
98496W        W69096   1.004  31.675   1.716
98497W        W69097  41.749  26.263   0.741
98498W        W69098  37.894   5.149   0.894
98499W        W69099  42.886  33.157  12.610
98500W        W69100  29.531  10.329   1.383
98501W        W69101  10.445   7.463   3.664
98502W        W69102  44.717  37.918  12.512
98503W        W69103   1.846  33.141   0.319
98504W        W69104  22.215  19.516   4.094
98505W        W69105  17.733   8.473   0.028
98506W        W69106   6.757  25.022  12.028
98507W        W69107  31.334   1.716  11.594
98508W        W69108  31.195   6.619   0.438
98509W        W69109  44.810   3.657   0.403
98510W        W69110  22.555  39.967  10.321
98511W        W69111   5.058   2.168   0.871
98512W        W69112  32.092  43.106  13.087
98513W        W69113  39.316   6.178  10.816
98514W        W69114   8.760  43.007   0.260
98515W        W69115  29.481  12.237   1.765
98516W        W69116  38.827  36.378   0.595
98517W        W69117  31.558   5.991  13.509
98518W        W69118  11.417  21.970  11.471
98519W        W69119  39.006  31.497   0.381
98520W        W69120  34.980  18.703   0.057
98521W        W69121   3.779  20.123   1.782
98522W        W69122  33.464  36.626  12.683
98523W        W69123  20.949  44.837   1.304
98524W        W69124   9.305   4.411   0.468
98525W        W69125  40.811  27.482   3.318
98526W        W69126  31.354   2.354   4.544
98527W        W69127   2.832  43.980   2.344
98528W        W69128  23.226  21.148  13.445
98529W        W69129  30.023  28.665  13.041
98530W        W69130  12.084  24.278   4.141
98531W        W69131  18.678   2.058  12.410
98532W        W69132   0.886  44.199  11.684
98533W        W69133  34.652  24.049  14.942
98534W        W69134   8.829   2.680  14.565
98535W        W69135  25.278  18.129   1.745
98536W        W69136  19.549  11.033  10.424
98537W        W69137  41.036  27.527   1.391
98538W        W69138  22.536   3.767  14.262
98539W        W69139   1.004   4.522  12.181
98540W        W69140  33.128  36.904  13.086
98541W        W69141  43.476  31.504  13.372
98542W        W69142  19.496  37.859  11.977
98543W        W69143  27.543  33.074   3.925
98544W        W69144   4.726  10.612  11.842
98545W        W69145  40.894  29.543   4.398
98546W        W69146   5.930  30.636   4.638
98547W        W69147  21.936  36.954   4.107
98548W        W69148  16.288  34.620  13.621
98549W        W69149  36.951   6.853   3.878
98550W        W69150  28.983  41.494  13.829
98551W        W69151  22.112  40.394  12.469
98552W        W69152  43.950  30.967  14.411
98553W        W69153   8.577  35.293  13.495
98554W        W69154   5.714  29.042  11.901
98555W        W69155  43.934   4.758   2.884
98556W        W69156  17.323  25.252   1.826
98557W        W69157  32.434   9.875  12.599
98558W        W69158  40.408  38.292   3.466
98559W        W69159  27.268  33.676   2.687
98560W        W69160  34.366   5.764   4.256
98561W        W69161   2.751  25.536  14.686
98562W        W69162  12.916   2.229   2.654
98563W        W69163  14.628   3.479   2.792
98564W        W69164  31.079  25.147  14.310
98565W        W69165  43.379  25.173   2.703
98566W        W69166  22.304  26.013  12.350
98567W        W69167  37.672  21.446  13.434
98568W        W69168  22.257  30.076   2.630
98569W        W69169  29.660  12.200  14.702
98570W        W69170   5.624  24.097   0.685
98571W        W69171  34.353  25.113  13.116
98572W        W69172   9.262  43.691  11.510
98573W        W69173  43.563  29.553  11.658
98574W        W69174  14.926  29.076   0.807
98575W        W69175  14.350  27.637   0.727
98576W        W69176  19.851   0.925   2.853
98577W        W69177  34.610  31.416   0.781
98578W        W69178  38.099   3.409  10.592
98579W        W69179  41.697  11.676  14.445
98580W        W69180   5.363  13.291  13.210
98581W        W69181  36.474   1.021   4.665
98582W        W69182  27.020  31.832   0.303
98583W        W69183  14.262  12.387  10.823
98584W        W69184  38.079  33.189  12.883
98585W        W69185  16.673  34.545   4.427
98586W        W69186  11.706  33.405   0.131
98587W        W69187  15.056  43.440  14.340
98588W        W69188  44.358  22.131  13.321
98589W        W69189  30.623  27.478   4.445
98590W        W69190  40.782  17.092   0.347
98591W        W69191  33.962   0.081   3.763
98592W        W69192  33.169  31.129  14.350
98593W        W69193  14.905   0.080  12.938
98594W        W69194  11.809  19.760   1.265
98595W        W69195   4.127  36.604   3.213
98596W        W69196  10.700  16.383  13.417
98597W        W69197  33.494  19.339   4.577
98598W        W69198  24.733  22.670  12.522
98599W        W69199   8.462  39.423  12.042
98600W        W69200  42.717  33.402  11.267
98601W        W69201  24.665   4.843  11.618
98602W        W69202   7.388  26.439   0.525
98603W        W69203   0.453  23.638   1.959
98604W        W69204   8.172  19.255  12.485
98605W        W69205  42.795  16.909  13.474
98606W        W69206  36.148  44.193  12.774
98607W        W69207  42.278  18.224  12.185
98608W        W69208  31.129  19.609  12.737
98609W        W69209  17.200  44.284   0.376
98610W        W69210   8.836  39.892   4.090
98611W        W69211  11.172  31.771  11.761
98612W        W69212  37.965  20.127   3.737
98613W        W69213  19.932  14.087  13.516
98614W        W69214  15.017  34.309   3.647
98615W        W69215  25.291  15.833   3.171
98616W        W69216  31.204  12.528  11.598
98617W        W69217   8.748  25.894   0.322
98618W        W69218  31.916  12.275   3.220
98619W        W69219  44.241  12.351   1.214
98620W        W69220  36.883  27.050  11.135
98621W        W69221  11.318  26.674   4.471
98622W        W69222  43.372  43.831  13.514
98623W        W69223  22.404  30.957  10.743
98624W        W69224   5.754  20.206  11.561
98625W        W69225  44.529  18.159   2.700
98626W        W69226  11.384   5.595  12.419
98627W        W69227   0.692  19.038   4.028
98628W        W69228  21.402   3.228   3.177
98629W        W69229  33.490  29.386   3.732
98630W        W69230   5.683  12.533   2.875
98631W        W69231  28.908   5.971  10.962
98632W        W69232   9.591  18.564   0.810
98633W        W69233  22.739  38.620  12.628
98634W        W69234  13.817  38.987   3.680
98635W        W69235   8.143  29.153   1.811
98636W        W69236  30.377  42.512   4.601
98637W        W69237   6.889   9.928  14.436
98638W        W69238  41.332  27.979  12.864
98639W        W69239  32.727  33.554   0.483
98640W        W69240  36.167  35.471  11.679
98641W        W69241   2.955  40.307  12.056
98642W        W69242   1.300  30.429  10.467
98643W        W69243  31.722   1.457  14.297
98644W        W69244  11.539  38.604  13.676
98645W        W69245   3.891  40.744  12.614
98646W        W69246  15.416  12.881  10.651
98647W        W69247  20.500  27.273   3.331
98648W        W69248  34.025  22.697  14.541
98649W        W69249  11.296  25.480  12.458
98650W        W69250  20.390  43.844   2.750
98651W        W69251   3.211  29.062  11.979
98652W        W69252  24.708   2.769  11.586
98653W        W69253  27.694   8.339  13.787
98654W        W69254  22.101   5.206   2.382
98655W        W69255   6.965  37.764   0.832
98656W        W69256   5.865  34.080   0.499
98657W        W69257  29.693  28.289  13.295
98658W        W69258  29.494   2.266   4.908
98659W        W69259  34.453  19.265   4.626
98660W        W69260  22.715   7.802  13.393
98661W        W69261  12.666  41.186   4.729
98662W        W69262  19.463  19.526   2.237
98663W        W69263  17.069  11.150   1.430
98664W        W69264  13.777  12.815   4.016
98665W        W69265  43.853  17.854  14.421
98666W        W69266  38.860  28.019  14.077
98667W        W69267  15.359  40.421   2.884
98668W        W69268  40.052  31.545  10.630
98669W        W69269  10.535   8.142  13.193
98670W        W69270  42.270  17.328   3.907
98671W        W69271  13.167   4.250   0.442
98672W        W69272  11.989  29.652   3.784
98673W        W69273  36.044  37.931   1.403
98674W        W69274  43.144  29.904  13.356
98675W        W69275   7.188  15.587  12.563
98676W        W69276  43.501  29.374  14.389
98677W        W69277  22.931  43.187   1.727
98678W        W69278  43.751  40.455  14.787
98679W        W69279  27.557   5.298  12.399
98680W        W69280   2.544   4.533   3.222
98681W        W69281  20.039   2.332  14.075
98682W        W69282  16.322  43.793  11.909
98683W        W69283  30.833  15.046   1.342
98684W        W69284  17.221  39.472  13.138
98685W        W69285  20.606  27.296   3.835
98686W        W69286  32.946   8.263  13.404
98687W        W69287  39.572  17.095  14.327
98688W        W69288  42.916  22.668  11.568
98689W        W69289  31.924  30.602  11.224
98690W        W69290  24.287   8.649   3.275
98691W        W69291  44.437  24.429  11.116
98692W        W69292  24.416  11.126  13.940
98693W        W69293  21.117  41.291   3.282
98694W        W69294  33.410  37.722   1.857
98695W        W69295  14.486   1.551  14.957
98696W        W69296  33.518  23.596   1.863
98697W        W69297  34.471  20.804   2.393
98698W        W69298  23.151  16.198   3.432
98699W        W69299  42.015  18.525  12.967
98700W        W69300   1.307  22.168  12.730
98701W        W69301   6.624  23.810  12.428
98702W        W69302  16.222  26.746   1.413
98703W        W69303  18.765  14.117   3.193
98704W        W69304  27.367  41.968  10.128
98705W        W69305  20.604  11.141  11.614
98706W        W69306  29.314   3.999   0.431
98707W        W69307  34.976   6.547  12.041
98708W        W69308  16.526   5.369   0.464
98709W        W69309  28.624  25.481   4.253
98710W        W69310  16.907  12.638   4.564
98711W        W69311   8.208  26.314  13.872
98712W        W69312   1.675  36.014  10.726
98713W        W69313  39.702  12.528  11.609
98714W        W69314  27.786  10.860  11.592
98715W        W69315  37.284  35.020  11.980
98716W        W69316   8.351  37.272   1.803
98717W        W69317   7.419   2.794  14.960
98718W        W69318  40.953  25.120   4.746
98719W        W69319  40.633  11.297   4.796
98720W        W69320  32.812  40.826   2.351
98721W        W69321  21.773  12.861  14.895
98722W        W69322  13.872  42.314  14.876
98723W        W69323  22.055   1.440  13.030
98724W        W69324  38.791  44.942  14.839
98725W        W69325  44.936   3.247   1.978
98726W        W69326  23.649   3.751  13.936
98727W        W69327  17.324   2.903  13.711
98728W        W69328   4.370  34.093   1.183
98729W        W69329  28.209  11.839  10.251
98730W        W69330  36.644  20.552  14.693
98731W        W69331  12.871  43.290  12.823
98732W        W69332  21.462  12.530   3.785
98733W        W69333  34.844  38.529   1.244
98734W        W69334  22.825  42.533  14.462
98735W        W69335  41.658  37.204  12.889
98736W        W69336  34.504  37.376   4.331
98737W        W69337  39.673  11.415  14.126
98738W        W69338  27.222  38.389  14.027
98739W        W69339  26.505  39.558  10.764
98740W        W69340  10.080  19.208  14.408
98741W        W69341  30.158  44.750   1.351
98742W        W69342  24.427  41.412  10.857
98743W        W69343   2.855  20.717   4.540
98744W        W69344  30.573  23.055   2.150
98745W        W69345  10.803  32.118  11.929
98746W        W69346  38.532  41.993  14.081
98747W        W69347   0.222  44.272  10.540
98748W        W69348  44.246  26.889  11.543
98749W        W69349  12.919  41.247  10.699
98750W        W69350  26.773  38.048   3.939
98751W        W69351  33.869  12.463   3.705
98752W        W69352  27.011  24.164  12.319
98753W        W69353   9.374   4.768   2.770
98754W        W69354  21.914  44.539  11.472
98755W        W69355  14.708  36.805   2.650
98756W        W69356  13.226  37.655   4.282
98757W        W69357  43.860  34.287  14.364
98758W        W69358  40.547  17.968   0.872
98759W        W69359  34.421  15.974  13.759
98760W        W69360  11.444  20.213   3.179
98761W        W69361  15.275  41.523  10.982
98762W        W69362  34.828  44.834   4.678
98763W        W69363   7.314  31.379  14.454
98764W        W69364  30.535  19.708  12.027
98765W        W69365  27.960  22.147   4.192
98766W        W69366  33.963  38.365  11.242
98767W        W69367   2.202  16.306   4.167
98768W        W69368  34.337  44.855  10.621
98769W        W69369   6.827  23.561   4.129
98770W        W69370  32.629  24.763  11.924
98771W        W69371  16.591   1.285  11.337
98772W        W69372  33.948  26.633   0.928
98773W        W69373   0.792  19.100  10.711
98774W        W69374   8.393  11.681  14.920
98775W        W69375   1.396  19.825  14.465
98776W        W69376   6.805  22.318  13.335
98777W        W69377   2.767  24.323   4.033
98778W        W69378  35.373  42.044  14.003
98779W        W69379  19.296   2.239  10.828
98780W        W69380  35.618  42.339   2.301
98781W        W69381  36.006   4.111   0.324
98782W        W69382  27.245  43.892   2.783
98783W        W69383   7.738  15.925  13.124
98784W        W69384  43.917  14.477   3.880
98785W        W69385  27.670  44.117  13.019
98786W        W69386  37.829  29.625  10.635
98787W        W69387   7.470   9.088   3.119
98788W        W69388  28.761  26.526   2.537
98789W        W69389  39.987   2.047   1.421
98790W        W69390  16.704   4.160   3.235
98791W        W69391  15.064  20.016  14.394
98792W        W69392   4.252  11.641  14.935
98793W        W69393  28.628  19.839  11.572
98794W        W69394  15.511  33.472   4.089
98795W        W69395  36.005  35.362   0.471
98796W        W69396  26.485  12.731  12.889
98797W        W69397   1.995  18.260  14.075
98798W        W69398  37.968  26.125  13.921
98799W        W69399  35.268  24.560   4.016
98800W        W69400  34.949   4.482  10.399
98801W        W69401   7.304  38.167  14.472
98802W        W69402   5.582   5.522   2.345
98803W        W69403  10.132  38.311  11.947
98804W        W69404   3.662   2.168   0.834
98805W        W69405  36.978  34.566   4.481
98806W        W69406  40.822  35.054   2.906
98807W        W69407  20.626  38.401   2.766
98808W        W69408  30.438  17.626   1.280
98809W        W69409  19.312  26.020   0.354
98810W        W69410  18.920  30.182  14.300
98811W        W69411  23.239  11.571  13.902
98812W        W69412  21.146   0.747  13.819
98813W        W69413  14.573  31.627  11.248
98814W        W69414  28.057  41.527   1.452
98815W        W69415  41.797  31.068  11.599
98816W        W69416  42.973  43.861   0.251
98817W        W69417  33.155  23.867   0.901
98818W        W69418  32.617  34.553  12.602
98819W        W69419  23.976  27.575  13.544
98820W        W69420   9.799  15.147   1.890
98821W        W69421  40.750  40.017  12.934
98822W        W69422   3.717  42.054   0.662
98823W        W69423  23.231  38.304   1.776
98824W        W69424  34.613   5.246  12.195
98825W        W69425  37.424  21.606   0.924
98826W        W69426  31.385  19.084   2.807
98827W        W69427   0.681  12.671  12.489
98828W        W69428  22.035  29.268  13.305
98829W        W69429  42.964  25.166   0.916
98830W        W69430   2.648  12.202   4.575
98831W        W69431  13.251  39.551  14.561
98832W        W69432  15.090  22.355   1.204
98833W        W69433  14.089  33.667   2.812
98834W        W69434  38.359  34.661   1.975
98835W        W69435   0.044  21.075   4.380
98836W        W69436  44.801   6.817   3.113
98837W        W69437  19.199  25.465  14.343
98838W        W69438  13.807  21.518   3.899
98839W        W69439  42.352  20.622   1.384
98840W        W69440   0.809  18.033  10.780
98841W        W69441   6.655  30.817   2.497
98842W        W69442  14.518  21.746  14.969
98843W        W69443  23.388  38.587   2.218
98844W        W69444   0.262  22.252   4.894
98845W        W69445  40.898   3.793   1.768
98846W        W69446  28.546  14.534   2.169
98847W        W69447  42.839   0.009   1.692
98848W        W69448  29.533  19.475   3.954
98849W        W69449  38.966  23.592   3.417
98850W        W69450  36.318   5.268  11.290
98851W        W69451  15.353  33.949   2.903
98852W        W69452  15.605   1.589  14.937
98853W        W69453  24.049   0.528  14.859
98854W        W69454  20.973  10.255   2.313
98855W        W69455  33.572  23.580   0.948
98856W        W69456  28.466  26.797   2.208
98857W        W69457  39.489  39.493  13.284
98858W        W69458  27.334  21.548  14.708
98859W        W69459  18.360  24.429   4.551
98860W        W69460   9.797  41.095   1.912
98861W        W69461  43.826  19.559  14.983
98862W        W69462   4.609  28.518  11.522
98863W        W69463  31.597   8.306   0.604
98864W        W69464  42.977   2.919  12.465
98865W        W69465  14.394  15.831   2.300
98866W        W69466  12.183  25.654  14.051
98867W        W69467  34.162   3.795  12.330
98868W        W69468  20.800  25.684  10.757
98869W        W69469   0.590  16.596  13.829
98870W        W69470   9.189  35.284  14.774
98871W        W69471  21.187  39.922  11.609
98872W        W69472   1.240  24.089   3.314
98873W        W69473  44.966  29.348   2.333
98874W        W69474  13.539  35.983  10.793
98875W        W69475  28.084   8.714   3.330
98876W        W69476  20.335  43.388   3.171
98877W        W69477  20.321  10.718  14.826
98878W        W69478  44.320  40.992  11.078
98879W        W69479  26.808   1.293   0.062
98880W        W69480  17.919  40.813  12.021
98881W        W69481   1.741  34.325   0.026
98882W        W69482  33.502  42.487   4.827
98883W        W69483  25.656  17.517  11.545
98884W        W69484  30.452  31.087   1.409
98885W        W69485   3.178  22.764   1.900
98886W        W69486  37.817  10.905   4.673
98887W        W69487  26.283  31.895  11.967
98888W        W69488  12.816  43.453  13.342
98889W        W69489  33.856  41.918  13.041
98890W        W69490  37.554  29.284  13.306
98891W        W69491  31.352  43.787   0.362
98892W        W69492  18.157  21.821   4.055
98893W        W69493  28.244   7.256   4.222
98894W        W69494  13.322  42.769   3.867
98895W        W69495  30.366  38.372  11.695
98896W        W69496   2.799  36.295   0.003
98897W        W69497  44.954  12.593  11.101
98898W        W69498  32.189  12.771  14.020
98899W        W69499  10.919  17.678   2.178
98900W        W69500  31.983  44.415   3.599
98901W        W69501  17.389  39.818   4.597
98902W        W69502  37.598  34.645   2.849
98903W        W69503  12.904  15.334   4.756
98904W        W69504  41.604   8.235  12.981
98905W        W69505  23.198  24.694  14.971
98906W        W69506  33.414  20.779   1.302
98907W        W69507  25.005   7.375   3.761
98908W        W69508  41.090  31.488  10.435
98909W        W69509  11.597  31.032   4.385
98910W        W69510  21.795  43.469   0.396
98911W        W69511   9.785  18.485  10.664
98912W        W69512  13.302  15.943  13.334
98913W        W69513   5.323  40.861  11.430
98914W        W69514   8.572  19.188   4.098
98915W        W69515   4.418  15.008   4.019
98916W        W69516  31.114   5.169  14.361
98917W        W69517  24.876  10.148   1.557
98918W        W69518  20.129  31.533   4.502
98919W        W69519  34.577  17.500  13.828
98920W        W69520  18.072  20.028  13.061
98921W        W69521  38.361  23.540   1.441
98922W        W69522   3.702  14.130   1.366
98923W        W69523   4.348  14.171   0.271
98924W        W69524  39.123  10.664  12.877
98925W        W69525  11.663  31.986  14.989
98926W        W69526  42.442  43.169  13.947
98927W        W69527  10.859  17.777  12.553
98928W        W69528   9.823  39.392   4.228
98929W        W69529  13.094  25.227  11.586
98930W        W69530   0.227  26.022  13.764
98931W        W69531  42.505  31.093   0.262
98932W        W69532  15.187  13.636  11.188
98933W        W69533  32.715  18.519  14.744
98934W        W69534  26.380   0.700  14.252
98935W        W69535  13.862  22.120  12.927
98936W        W69536  15.304   3.228   5.151
98937W        W69537  33.450  31.135  13.811
98938W        W69538   1.872  23.097   0.813
98939W        W69539  31.016   8.935  13.493
98940W        W69540  14.751  22.990  12.978
98941W        W69541  27.307   7.193   0.383
98942W        W69542  35.073  29.985  14.815
98943W        W69543  20.682  37.349   2.869
98944W        W69544   2.281   2.759  10.926
98945W        W69545  40.527  44.442   2.054
98946W        W69546   9.308   8.921   1.647
98947W        W69547  21.011  17.326   1.433
98948W        W69548  11.834  12.723  12.337
98949W        W69549   5.963  31.602  11.546
98950W        W69550  26.488  15.802  11.674
98951W        W69551  33.136  37.890   2.849
98952W        W69552  10.661  25.629   2.034
98953W        W69553  38.402   7.609  12.130
98954W        W69554  44.061  20.160   2.756
98955W        W69555  11.200   5.942  12.058
98956W        W69556  23.803  42.317  13.816
98957W        W69557  17.665  40.060   3.222
98958W        W69558  17.880  17.534   1.708
98959W        W69559   2.060  18.857   4.721
98960W        W69560  28.253  10.776  14.653
98961W        W69561  21.907  38.070   0.209
98962W        W69562  22.061  19.861  10.648
98963W        W69563  28.241  25.299   0.238
98964W        W69564  28.929  14.833  13.292
98965W        W69565  18.116  30.107  11.661
98966W        W69566   8.505  27.819   4.979
98967W        W69567  13.914  40.964  13.975
98968W        W69568  10.767  44.037   2.317
98969W        W69569  17.270  20.471   3.348
98970W        W69570  41.295  26.995  11.143
98971W        W69571   2.466  30.687  13.737
98972W        W69572  27.051   3.682   1.311
98973W        W69573  11.777  13.354   2.684
98974W        W69574  15.748   8.828   0.953
98975W        W69575   2.721   5.882  14.949
98976W        W69576  24.780  26.132  11.006
98977W        W69577  11.303  32.832   4.568
98978W        W69578  15.487  25.700  12.614
98979W        W69579  32.916  43.275   3.880
98980W        W69580  17.057  18.680  10.711
98981W        W69581  15.325   9.704  14.496
98982W        W69582   0.835  24.785   1.478
98983W        W69583  20.097  17.463  13.363
98984W        W69584   7.682  11.603  10.705
98985W        W69585  11.330  17.329  11.068
98986W        W69586  34.199  25.725   2.368
98987W        W69587  18.771  11.118   2.270
98988W        W69588  20.947   0.389  12.121
98989W        W69589  25.675  26.619  14.369
98990W        W69590  27.912  14.022  12.088
98991W        W69591  27.995  41.584  11.376
98992W        W69592   6.162  15.810  10.467
98993W        W69593   7.649  21.671  10.726
98994W        W69594  30.984  19.077   0.863
98995W        W69595   2.927  33.619  13.586
98996W        W69596  27.414  30.629  10.727
98997W        W69597   8.274  22.921  14.148
98998W        W69598   9.191  44.929  13.478
98999W        W69599   0.928  33.468   1.949
99000W        W69600  41.029   1.285   0.249
99001W        W69601  21.831  29.511  14.889
99002W        W69602   9.811  27.533   4.491
99003W        W69603  32.339  34.830   0.812
99004W        W69604   4.875  33.093  12.120
99005W        W69605  21.930  37.958  11.471
99006W        W69606   2.590   9.313  13.556
99007W        W69607  17.279   5.138  14.373
99008W        W69608  22.587  21.049  13.902
99009W        W69609  33.031  35.824  13.853
99010W        W69610  38.024   3.694  11.587
99011W        W69611  10.915  40.597   1.814
99012W        W69612  35.046   8.178   0.283
99013W        W69613  21.536  38.998   1.693
99014W        W69614  17.072  13.864   2.468
99015W        W69615  20.869  26.192  10.851
99016W        W69616   6.815  33.534  12.621
99017W        W69617  30.173   4.167   0.693
99018W        W69618  29.180   2.777   4.639
99019W        W69619   2.404  20.093   2.429
99020W        W69620  25.228  33.004  12.673
99021W        W69621  10.420  43.360  13.358
99022W        W69622  26.621  38.828   1.237
99023W        W69623  32.586  42.821   2.724
99024W        W69624  20.082   6.800   2.520
99025W        W69625  42.089  33.379  10.661
99026W        W69626  39.144  42.732  12.881
99027W        W69627  28.227  27.373  14.459
99028W        W69628  34.139  43.383  14.933
99029W        W69629  12.290  14.363   1.446
99030W        W69630   6.007  28.782  13.942
99031W        W69631  18.467  15.885  11.552
99032W        W69632  43.074  39.509   3.110
99033W        W69633  32.165  40.538   3.150
99034W        W69634  13.336  34.528   3.801
99035W        W69635   8.092  16.495  13.960
99036W        W69636  29.077   1.255  14.836
99037W        W69637  25.764  36.298  11.157
99038W        W69638  20.220  36.945  12.808
99039W        W69639  40.678   1.843  10.274
99040W        W69640  22.040  31.071  14.052
99041W        W69641  27.388  37.443  11.381
99042W        W69642  29.053  44.286   2.728
99043W        W69643  19.812   2.172   2.235
99044W        W69644   3.319  23.685  13.343
99045W        W69645  22.141  38.835  10.960
99046W        W69646   0.767   9.147  12.899
99047W        W69647   1.495  31.398  10.662
99048W        W69648  32.081  20.845  13.833
99049W        W69649  14.083  40.844   4.013
99050W        W69650  33.343  30.275  14.581
99051W        W69651  34.900   8.208  12.557
99052W        W69652  17.314  38.104  14.866
99053W        W69653  13.384   3.646  14.333
99054W        W69654  40.334   3.472   4.556
99055W        W69655  37.428   8.560   2.893
99056W        W69656  15.372  22.311   3.759
99057W        W69657  13.496   4.725   0.821
99058W        W69658  17.734  43.541  14.492
99059W        W69659   6.769   6.136   1.791
99060W        W69660  25.242  25.420  12.817
99061W        W69661  32.093   7.168  11.593
99062W        W69662  28.694  11.680   0.421
99063W        W69663  26.535  40.039   9.858
99064W        W69664  43.276   9.460   0.466
99065W        W69665  13.150  28.054  11.104
99066W        W69666  33.098  13.329  11.736
99067W        W69667  31.862  44.046  14.527
99068W        W69668  38.964  32.141  14.783
99069W        W69669  19.509  17.989  11.606
99070W        W69670  29.458  37.804  14.264
99071W        W69671  27.774  21.632   1.785
99072W        W69672  38.681  11.250   0.851
99073W        W69673   4.812  21.390  12.421
99074W        W69674  12.380  30.436  13.908
99075W        W69675   6.801  32.399   3.326
99076W        W69676  43.253  11.307  11.055
99077W        W69677  42.583   9.226  10.750
99078W        W69678   9.146  30.424  13.695
99079W        W69679  36.685   0.940  13.419
99080W        W69680   0.668  37.085  11.051
99081W        W69681  37.814  29.943  12.588
99082W        W69682  34.108  43.708   4.070
99083W        W69683   0.053  13.322   0.607
99084W        W69684  29.535  41.087  14.917
99085W        W69685  18.251  29.858   4.193
99086W        W69686  14.800  39.976  14.486
99087W        W69687  39.356  17.589   3.068
99088W        W69688  44.923  43.279   1.156
99089W        W69689   6.803   8.508   1.230
99090W        W69690  42.406   1.893  13.882
99091W        W69691   7.575  43.085   3.901
99092W        W69692   6.523  13.820   4.631
99093W        W69693   6.265  31.962  13.980
99094W        W69694  25.538   9.287  11.158
99095W        W69695   9.270  33.056   3.930
99096W        W69696  36.791  28.439   0.482
99097W        W69697  23.555  43.224   2.890
99098W        W69698  17.138  38.339   2.582
99099W        W69699  25.428   7.319   0.983
99100W        W69700   5.068  36.014  14.662
99101W        W69701  27.291   9.055   1.930
99102W        W69702   7.607  29.955   4.888
99103W        W69703  20.352   9.525   2.356
99104W        W69704  32.229  42.893   0.747
99105W        W69705   5.201  26.610   4.312
99106W        W69706   1.952   7.408   3.705
99107W        W69707  12.688  34.131   1.391
99108W        W69708  19.063   6.975  14.361
99109W        W69709  38.535  30.567  13.978
99110W        W69710  38.628   0.801   2.639
99111W        W69711   4.925  39.887  12.643
99112W        W69712  18.227  39.405   0.670
99113W        W69713   6.271  39.313  11.543
99114W        W69714  22.141  20.931  10.660
99115W        W69715  43.736  16.272   1.455
99116W        W69716   6.146   5.935   0.795
99117W        W69717  41.535  41.036  12.051
99118W        W69718  38.091   2.226  13.406
99119W        W69719  15.742  26.628   2.691
99120W        W69720  44.690  39.977   1.668
99121W        W69721  28.193   4.599   0.302
99122W        W69722   7.766  20.565  14.723
99123W        W69723  23.504  13.304   1.606
99124W        W69724  22.120  15.297   4.083
99125W        W69725  21.182  36.036   4.547
99126W        W69726   3.005   6.729  14.020
99127W        W69727  16.717   2.953   0.362
99128W        W69728  12.048  35.843  11.133
99129W        W69729   8.200  17.135   4.877
99130W        W69730   6.252   5.289  12.909
99131W        W69731  16.151  32.388   1.620
99132W        W69732  15.558   2.448  12.435
99133W        W69733   4.827  30.636   3.574
99134W        W69734  18.833   9.200   1.211
99135W        W69735   5.211  17.299   0.842
99136W        W69736  35.209  21.207  10.365
99137W        W69737  26.742   3.350   4.882
99138W        W69738   1.275   4.395  13.273
99139W        W69739  24.513  19.184   3.086
99140W        W69740  30.449  25.470  10.686
99141W        W69741  38.116  28.034  11.502
99142W        W69742   0.936  41.179  14.249
99143W        W69743  19.143   6.655  10.391
99144W        W69744  27.967  30.028   4.664
99145W        W69745  37.607  44.810  13.004
99146W        W69746  26.037  25.425   0.070
99147W        W69747  29.908   6.356  11.392
99148W        W69748  43.825  26.029   0.373
99149W        W69749  19.606  22.630   0.995
99150W        W69750  34.214  20.140   3.198
99151W        W69751  37.118   1.822   1.726
99152W        W69752  11.591  18.539  13.962
99153W        W69753  22.159   9.842   0.346
99154W        W69754  36.895  39.463   1.963
99155W        W69755  34.012  14.661  11.870
99156W        W69756   6.299   1.426  14.589
99157W        W69757  22.196   8.314   3.994
99158W        W69758  23.750  36.779   1.249
99159W        W69759  24.525   5.401  14.867
99160W        W69760  15.835  36.065   2.301
99161W        W69761  38.014  35.991  11.940
99162W        W69762  11.430  36.856   3.923
99163W        W69763  36.292  24.308   3.835
99164W        W69764  19.261   4.856   0.765
99165W        W69765  22.595  39.484   4.608
99166W        W69766  27.184  12.701  13.616
99167W        W69767  15.524  14.073   3.238
99168W        W69768  27.446  21.102   1.449
99169W        W69769   1.004  18.758  11.041
99170W        W69770  38.702  26.701  12.572
99171W        W69771  41.497  25.267   3.699
99172W        W69772  11.790  37.626   4.917
99173W        W69773  35.519  12.256  13.961
99174W        W69774  20.537   6.434   3.254
99175W        W69775  41.556  19.419  14.784
99176W        W69776  23.023  44.233   0.891
99177W        W69777  44.745  44.753   3.944
99178W        W69778   6.278  29.498  12.192
99179W        W69779   4.424  31.794  13.077
99180W        W69780   1.799  23.672   3.414
99181W        W69781  39.860  42.849   4.956
99182W        W69782  29.516  33.304  13.311
99183W        W69783  41.259  43.904  12.432
99184W        W69784  17.178  38.964   9.896
99185W        W69785  28.100   9.865  12.612
99186W        W69786  30.840  14.730  14.304
99187W        W69787  13.613  15.078   0.774
99188W        W69788  26.944  15.556  10.801
99189W        W69789  16.635  40.265   1.143
99190W        W69790   0.044  43.321   0.656
99191W        W69791  34.435  33.992   0.264
99192W        W69792  15.182   5.686  12.009
99193W        W69793  21.242  42.346  14.962
99194W        W69794   7.886  31.421   3.978
99195W        W69795  22.067  43.794   3.189
99196W        W69796  17.307  32.444  11.500
99197W        W69797  10.905  44.175  13.545
99198W        W69798   7.859  22.219  13.747
99199W        W69799  16.554  31.635   1.215
99200W        W69800  29.500  32.421  14.068
99201W        W69801  20.279   5.956   3.243
99202W        W69802   8.787   7.466   4.616
99203W        W69803   8.811   5.493  13.056
99204W        W69804  40.568   1.231   4.207
99205W        W69805  31.643   2.869  12.000
99206W        W69806   8.888  17.315  11.603
99207W        W69807  26.746   1.681  12.498
99208W        W69808   4.127   9.408  12.544
99209W        W69809  39.063  34.941  13.776
99210W        W69810  10.667  31.198   4.657
99211W        W69811   3.028  28.508  11.255
99212W        W69812  32.860  27.864  13.615
99213W        W69813  28.551   2.898  12.889
99214W        W69814  30.957  10.259   0.283
99215W        W69815  12.665  27.384   0.029
99216W        W69816  39.080   6.488   2.663
99217W        W69817  44.516  39.498   1.808
99218W        W69818  19.258  35.439   2.552
99219W        W69819  15.491  27.052  13.131
99220W        W69820  37.543  14.531  11.984
99221W        W69821   7.680  32.480  14.465
99222W        W69822  17.133  33.366   4.243
99223W        W69823   8.734   3.968   3.430
99224W        W69824  12.589  24.925   4.146
99225W        W69825  24.894  22.202   0.698
99226W        W69826   2.708   7.911   5.161
99227W        W69827  14.146   4.889   4.606
99228W        W69828  32.299  41.694  10.192
99229W        W69829  10.694  27.159  13.808
99230W        W69830  41.779  38.996  11.146
99231W        W69831  19.950  41.476   5.151
99232W        W69832  10.397   9.753  14.782
99233W        W69833  30.095  32.449   0.236
99234W        W69834  39.347  33.704   3.148
99235W        W69835  29.435  25.034   0.837
99236W        W69836  39.582  35.983  11.991
99237W        W69837  43.512  13.346   0.898
99238W        W69838  23.881  41.973   0.398
99239W        W69839  12.379  39.804   0.734
99240W        W69840  22.929  28.521   1.174
99241W        W69841  14.017  26.005  13.093
99242W        W69842  44.887  17.433  14.540
99243W        W69843  37.043  35.467   4.756
99244W        W69844   7.923  39.182  11.195
99245W        W69845  36.805   2.261  14.571
99246W        W69846   8.469  41.088   1.705
99247W        W69847  32.521  36.160   2.170
99248W        W69848  44.034  10.290  12.849
99249W        W69849  36.196  39.896   4.358
99250W        W69850  32.432   4.236   0.491
99251W        W69851  36.525  29.185   4.121
99252W        W69852  42.539  24.443  12.842
99253W        W69853   2.725  29.454  11.881
99254W        W69854  29.942  43.722   1.345
99255W        W69855  38.938  11.312  12.081
99256W        W69856  17.450  16.180  10.752
99257W        W69857  40.952  21.619  10.461
99258W        W69858  22.970  25.545  13.791
99259W        W69859  41.454   4.411  14.464
99260W        W69860   2.415  26.371  14.312
99261W        W69861  26.057  24.120  11.115
99262W        W69862  42.541  24.584  14.331
99263W        W69863  38.996  42.050   2.310
99264W        W69864  21.664  15.874   4.247
99265W        W69865  31.807   7.324   0.014
99266W        W69866  37.997  33.690  14.851
99267W        W69867   4.713  25.399   2.622
99268W        W69868  37.012  32.314  12.113
99269W        W69869  13.992  41.816  14.757
99270W        W69870  37.001  37.348   1.710
99271W        W69871  26.370  24.615  11.946
99272W        W69872  43.960  30.951  12.940
99273W        W69873  38.008  43.784  14.902
99274W        W69874  27.870   7.673  11.172
99275W        W69875  43.691   6.433   1.285
99276W        W69876  37.941  18.162   3.699
99277W        W69877  40.795   6.292   2.142
99278W        W69878   4.991   3.870   3.210
99279W        W69879   6.378  30.593   2.118
99280W        W69880   2.883  31.691  12.487
99281W        W69881  22.106  22.424  11.664
99282W        W69882  33.369  37.477   3.055
99283W        W69883  27.977  43.396   3.142
99284W        W69884  39.812  15.630  12.413
99285W        W69885  11.502  11.730  10.624
99286W        W69886   5.741  33.480   2.702
99287W        W69887   7.595  17.392  14.592
99288W        W69888  42.748  28.093  11.898
99289W        W69889  20.784   1.674   4.574
99290W        W69890  33.510  41.522   4.469
99291W        W69891  20.051  33.674   3.006
99292W        W69892   5.947  35.569   3.625
99293W        W69893  36.504   8.926  12.551
99294W        W69894  38.070   9.241   4.899
99295W        W69895  37.416  44.331   2.877
99296W        W69896  34.782  14.326   0.710
99297W        W69897  44.772  33.797   1.203
99298W        W69898  18.821  16.564   4.831
99299W        W69899  19.714  40.015   2.720
99300W        W69900  29.421  14.788  11.093
99301W        W69901  22.591  25.337  14.074
99302W        W69902   6.478  43.424  10.839
99303W        W69903  11.837  40.672  11.732
99304W        W69904  25.016   5.450   4.058
99305W        W69905  33.241  44.853  14.144
99306W        W69906  43.721  16.202  11.129
99307W        W69907   7.726  25.329   4.920
99308W        W69908  12.643  24.672  10.596
99309W        W69909  44.038  23.506  14.905
99310W        W69910  10.765   6.716   1.739
99311W        W69911   5.424  22.948   2.147
99312W        W69912  40.987  35.632  12.015
99313W        W69913  26.378   5.702  11.936
99314W        W69914  27.506   5.362   1.173
99315W        W69915  23.633  32.743  11.585
99316W        W69916  43.630  37.478  14.461
99317W        W69917   0.439  32.380  10.287
99318W        W69918  34.388  23.590  14.898
99319W        W69919  43.294  33.865   0.707
99320W        W69920  12.847   3.633   4.180
99321W        W69921  28.990  40.442  12.491
99322W        W69922   4.349  40.541   3.773
99323W        W69923  18.941   8.199   1.991
99324W        W69924  42.892   0.077   2.697
99325W        W69925  43.003  39.802   1.338
99326W        W69926  24.185   8.255  14.286
99327W        W69927  16.603  39.876  14.966
99328W        W69928  38.765  25.695  13.467
99329W        W69929   5.863   7.886   2.138
99330W        W69930  14.895  33.900  13.330
99331W        W69931  23.810  36.951  11.054
99332W        W69932  43.350   7.382  11.218
99333W        W69933   8.205  40.247  13.429
99334W        W69934   4.503   1.784  14.909
99335W        W69935  34.163   5.257   4.267
99336W        W69936  17.070  10.253   0.433
99337W        W69937  38.446  25.581  10.407
99338W        W69938  18.914  28.183  11.167
99339W        W69939  13.564  22.670   1.766
99340W        W69940  12.688  27.043  12.538
99341W        W69941  42.948  18.147   4.139
99342W        W69942  11.605  33.401  10.005
99343W        W69943   4.203  13.130   2.112
99344W        W69944  18.113  32.242   5.042
99345W        W69945  16.715  24.030  10.977
99346W        W69946   9.830  40.071   1.748
99347W        W69947   2.392   7.081  10.406
99348W        W69948   9.342  17.668   0.941
99349W        W69949  27.720  15.804   4.093
99350W        W69950  37.015  26.919   2.783
99351W        W69951  15.835  43.442  12.604
99352W        W69952  18.548  25.215  12.599
99353W        W69953   7.228   9.158   3.593
99354W        W69954  37.493  20.615  14.470
99355W        W69955  21.015  37.013  11.608
99356W        W69956  41.102   4.262   0.812
99357W        W69957  20.952  40.729   1.300
99358W        W69958  22.724  28.170  12.099
99359W        W69959   3.809  35.588   0.667
99360W        W69960  11.800   0.644   3.591
99361W        W69961  15.844  39.417  12.088
99362W        W69962  25.774   2.648  12.429
99363W        W69963  37.097  15.410  13.458
99364W        W69964   5.778  27.919   1.384
99365W        W69965  24.661   3.014  14.916
99366W        W69966  23.936  10.447   0.767
99367W        W69967  30.053  19.977   0.778
99368W        W69968  39.716  44.081  11.239
99369W        W69969  41.852  11.580  12.971
99370W        W69970  36.332  24.883   1.635
99371W        W69971   8.134  26.981  11.072
99372W        W69972   9.460  33.458   3.271
99373W        W69973  15.809  15.265   0.399
99374W        W69974  13.017  32.672   3.512
99375W        W69975  28.030  38.430  10.127
99376W        W69976  28.625  43.950   2.145
99377W        W69977  28.404  11.479  13.077
99378W        W69978   0.697  14.845   1.318
99379W        W69979  25.229  15.754   5.271
99380W        W69980  34.007   2.264   3.358
99381W        W69981  25.192  39.581  13.406
99382W        W69982  19.172  33.635  10.462
99383W        W69983  43.318  16.552   4.498
99384W        W69984  16.522  17.151   2.853
99385W        W69985  10.214  31.188   4.953
99386W        W69986  23.226  31.027  12.541
99387W        W69987  22.645   7.323   0.175
99388W        W69988   8.865   0.827   0.799
99389W        W69989  10.592  18.200  11.943
99390W        W69990  40.010  18.849  12.263
99391W        W69991  13.198  33.942  12.913
99392W        W69992  34.154   7.871   3.640
99393W        W69993  14.154  10.340   0.434
99394W        W69994   7.668   6.526  11.204
99395W        W69995  31.585  27.183   0.170
99396W        W69996  19.585  17.241   1.726
99397W        W69997  11.003  24.527   0.260
99398W        W69998  34.741  40.994   2.261
99399W        W69999   0.047  13.250  10.343
99400W        W70000  26.042  33.124   4.503
99401W        W70001  36.110  13.799   1.906
99402W        W70002  38.791   8.328  14.411
99403W        W70003   2.732   4.346   2.198
99404W        W70004   9.608  20.141   1.449
99405W        W70005  17.616  20.621  12.089
99406W        W70006  37.142   1.840  14.489
99407W        W70007  17.397  10.401  11.749
99408W        W70008  44.940  36.794   0.835
99409W        W70009   3.504   6.294   0.633
99410W        W70010  28.613  24.912   1.730
99411W        W70011  32.084  28.056  12.038
99412W        W70012  26.613  15.417   4.701
99413W        W70013  26.175  25.935  13.838
99414W        W70014   0.740  29.051  12.079
99415W        W70015   2.161  17.703  13.310
99416W        W70016  13.097  12.104   2.542
99417W        W70017   0.270  10.511   0.301
99418W        W70018   9.681  34.320  11.722
99419W        W70019  40.430  28.481   0.222
99420W        W70020  32.662  37.613  14.449
99421W        W70021  36.184   1.453   4.928
99422W        W70022  26.984  32.869  10.200
99423W        W70023  12.339   6.574  11.236
99424W        W70024  33.850  12.019   1.425
99425W        W70025   8.242  11.122  12.904
99426W        W70026   6.665  34.726   3.380
99427W        W70027  29.903  16.833  10.496
99428W        W70028  28.647  10.476   0.021
99429W        W70029  10.168  13.174  11.204
99430W        W70030   7.935   4.839   0.569
99431W        W70031  42.514  27.885   3.743
99432W        W70032  40.824   6.695   0.463
99433W        W70033   2.196  15.719   0.804
99434W        W70034  11.917  29.046   0.910
99435W        W70035   5.894  40.813  11.188
99436W        W70036  43.035  39.456   0.800
99437W        W70037   3.263  34.069  10.332
99438W        W70038   2.374  32.214  14.606
99439W        W70039  15.315  32.071   0.795
99440W        W70040  35.687  13.157   0.804
99441W        W70041  43.285  41.814   1.904
99442W        W70042   9.516  11.281  12.641
99443W        W70043  12.294  27.111  13.305
99444W        W70044   3.456  41.903   2.170
99445W        W70045  12.129  11.805  12.520
99446W        W70046  11.722  17.489  11.630
99447W        W70047  23.764  10.971   0.019
99448W        W70048   5.595  34.351   1.844
99449W        W70049   4.804  16.128   2.158
99450W        W70050  38.425  27.092   2.786
99451W        W70051  18.363  11.232  11.635
99452W        W70052  20.125   2.758   1.196
99453W        W70053  44.897  35.799  12.641
99454W        W70054  24.699  31.128   0.826
99455W        W70055  22.511  41.384   1.624
99456W        W70056  19.584  33.671  12.113
99457W        W70057  43.378  40.305   4.243
99458W        W70058  20.135  13.915   4.643
99459W        W70059   7.783  20.695   0.625
99460W        W70060  39.468  38.079   2.217
99461W        W70061  29.999  28.371  10.839
99462W        W70062  26.173   2.765  12.851
99463W        W70063  38.489  39.577   3.302
99464W        W70064  10.058   3.670   4.729
99465W        W70065  33.538  43.388  12.514
99466W        W70066  31.419   2.997  11.071
99467W        W70067  22.129  21.146  13.348
99468W        W70068  39.540  41.513   4.720
99469W        W70069  41.315  29.950   2.086
99470W        W70070  15.545  11.874   0.488
99471W        W70071   5.216  38.042   1.305
99472W        W70072  15.965   1.974   2.805
99473W        W70073  12.918  29.201  13.852
99474W        W70074  15.731  18.696   1.044
99475W        W70075  34.607   3.343   1.281
99476W        W70076  20.524  15.646  14.370
99477W        W70077  12.608  25.936  11.878
99478W        W70078  29.584  26.665  14.789
99479W        W70079  29.551  43.961   2.194
99480W        W70080   0.508   2.743   0.608
99481W        W70081   6.570  19.212  13.889
99482W        W70082  14.375  35.839   1.305
99483W        W70083  15.761  15.094  11.699
99484W        W70084   9.557  24.227  14.710
99485W        W70085  40.425  19.010   2.147
99486W        W70086   1.421   3.653   1.755
99487W        W70087  33.948  18.601  10.983
99488W        W70088  28.102   9.450   2.852
99489W        W70089  18.601  44.298  11.586
99490W        W70090  36.892  43.080  13.790
99491W        W70091  11.810  44.915  13.150
99492W        W70092   1.548   0.266   2.082
99493W        W70093   0.523  39.866  14.340
99494W        W70094  16.245  14.890  11.843
99495W        W70095   8.079  43.497  12.954
99496W        W70096  32.460  32.587  10.813
99497W        W70097  40.054  30.984  14.135
99498W        W70098  31.397  42.832  12.213
99499W        W70099  43.356   6.405   2.606
99500W        W70100  37.767  17.814   0.883
99501W        W70101  17.990   9.835   2.263
99502W        W70102  15.746  38.897  12.453
99503W        W70103  13.466  24.174  10.035
99504W        W70104   4.308  42.088   3.271
99505W        W70105  15.889  27.628   4.254
99506W        W70106  37.440  26.218  13.462
99507W        W70107  25.666  28.724  10.806
99508W        W70108   8.106  43.392  12.076
99509W        W70109  39.085  35.957   9.874
99510W        W70110  36.678  10.755  14.776
99511W        W70111  25.702  16.593   1.267
99512W        W70112  44.354  31.080  11.918
99513W        W70113  42.315  15.027  14.469
99514W        W70114   6.288  25.213   0.542
99515W        W70115  35.081  44.046   2.310
99516W        W70116  12.349   4.388  12.473
99517W        W70117  25.028   6.342   2.151
99518W        W70118   1.406   9.264   2.870
99519W        W70119   0.244  15.811   2.767
99520W        W70120  17.355  19.651   2.727
99521W        W70121  24.036  39.894   0.308
99522W        W70122  26.362  33.383   1.260
99523W        W70123  43.323  35.323   0.292
99524W        W70124  24.038  13.368  12.181
99525W        W70125   4.380   7.455   2.703
99526W        W70126   2.390   4.280  11.111
99527W        W70127  34.419  38.973   0.035
99528W        W70128  20.535  40.396  13.446
99529W        W70129   9.063   5.530  13.517
99530W        W70130  38.485  20.316   3.797
99531W        W70131  44.303  19.522  14.732
99532W        W70132  24.184   1.393   2.771
99533W        W70133  16.713  26.183  13.086
99534W        W70134  38.780  19.773   1.289
99535W        W70135  38.937  11.257  13.568
99536W        W70136  19.648  23.001   0.460
99537W        W70137   5.038  38.304   4.599
99538W        W70138   4.802  25.459  11.152
99539W        W70139  37.313  27.206   3.093
99540W        W70140  11.042  31.560   3.269
99541W        W70141  17.793  26.665   0.448
99542W        W70142  12.118   4.737   2.651
99543W        W70143  13.274  33.380  11.127
99544W        W70144  23.494   3.633   1.891
99545W        W70145  24.156  28.073   1.604
99546W        W70146  15.308   6.487  14.639
99547W        W70147  12.586  39.415  12.866
99548W        W70148  18.768  16.977  12.570
99549W        W70149   0.953  16.149  13.116
99550W        W70150  28.505   0.182   3.437
99551W        W70151   6.749  18.274  10.732
99552W        W70152  34.105   6.593  11.593
99553W        W70153  21.994  31.084   1.783
99554W        W70154  30.173  30.526   4.152
99555W        W70155  28.118  27.215   4.898
99556W        W70156  37.887  11.646  13.499
99557W        W70157  43.945  44.324  14.970
99558W        W70158   7.170  25.474  13.799
99559W        W70159  31.187   1.455  10.640
99560W        W70160  21.494  33.578  12.615
99561W        W70161  42.703  37.051  14.662
99562W        W70162  23.028  29.208  11.461
99563W        W70163   6.331   6.288  14.833
99564W        W70164  40.970  25.968   0.283
99565W        W70165  40.577   9.838   0.945
99566W        W70166  33.002  34.831   3.929
99567W        W70167   3.301  27.281  12.354
99568W        W70168  33.768  40.883   5.032
99569W        W70169  20.074  33.302  10.560
99570W        W70170   5.421  22.566  14.410
99571W        W70171   4.355   3.149   1.232
99572W        W70172  11.403  36.731  10.682
99573W        W70173   3.792  21.754   3.709
99574W        W70174  29.197  21.961  13.937
99575W        W70175  44.088  19.222   0.285
99576W        W70176  21.283  20.022  13.867
99577W        W70177   2.430  22.779   2.953
99578W        W70178  23.904   1.179   4.976
99579W        W70179  31.881  15.132  13.506
99580W        W70180  39.980  27.250   3.306
99581W        W70181   7.951  26.630   9.607
99582W        W70182  10.624  36.836   1.937
99583W        W70183  41.192  17.481   0.315
99584W        W70184  30.135  22.439  11.829
99585W        W70185   3.041  17.591   0.311
99586W        W70186   3.888  13.632  11.657
99587W        W70187  29.062  24.224   4.503
99588W        W70188  40.881  18.354   0.963
99589W        W70189  10.782   3.471   1.888
99590W        W70190  15.554   3.230   0.931
99591W        W70191   4.467  32.898   0.736
99592W        W70192  23.065  15.936  13.831
99593W        W70193  40.423  17.959  14.773
99594W        W70194  35.132  39.832   1.752
99595W        W70195  21.255  31.528   0.787
99596W        W70196  24.061  15.256   4.244
99597W        W70197  35.290  37.781  11.134
99598W        W70198   1.299  25.490   0.077
99599W        W70199  38.892  12.137  12.448
99600W        W70200  28.196  22.110  11.683
99601W        W70201  17.457  26.018  14.468
99602W        W70202  26.894  27.936  14.794
99603W        W70203   6.940   0.265   3.365
99604W        W70204  18.345   4.860   4.077
99605W        W70205   1.803   7.851  13.297
99606W        W70206   8.899  12.177  14.390
99607W        W70207  32.679  21.609  11.665
99608W        W70208  41.833  31.724   4.130
99609W        W70209  40.852  39.346   3.668
99610W        W70210  33.372  17.025  10.227
99611W        W70211  33.634  12.280   0.677
99612W        W70212  16.269  18.534  14.461
99613W        W70213  10.640  10.812   1.776
99614W        W70214  20.211  13.942  14.860
99615W        W70215  37.838  40.223  13.906
99616W        W70216   9.626  10.912   3.221
99617W        W70217  12.723   3.337  11.657
99618W        W70218   9.596   8.362  10.495
99619W        W70219  15.605   3.365   4.312
99620W        W70220   6.348  27.526  12.486
99621W        W70221  43.149  30.597   4.238
99622W        W70222  26.118  14.603   0.790
99623W        W70223  30.555  35.431   1.947
99624W        W70224  14.332   7.172   2.284
99625W        W70225   6.694  25.502  11.140
99626W        W70226  25.404   7.414  10.238
99627W        W70227   4.484  24.518   2.826
99628W        W70228  22.988  35.401   4.070
99629W        W70229  27.378   4.830   3.232
99630W        W70230  33.849  14.819  12.854
99631W        W70231  26.566  22.607  11.023
99632W        W70232  35.969  38.087   2.477
99633W        W70233  24.726  35.892  11.245
99634W        W70234   7.170  17.202  10.905
99635W        W70235  32.840  21.695  13.001
99636W        W70236  24.717  32.863   1.727
99637W        W70237  34.845  33.092  10.832
99638W        W70238  13.467  26.831  10.377
99639W        W70239   7.986  13.116  12.098
99640W        W70240   0.705  12.283  13.138
99641W        W70241  30.902  19.487  11.399
99642W        W70242  20.039  32.952   1.356
99643W        W70243  26.249   0.905   2.954
99644W        W70244  28.001   0.581   3.154
99645W        W70245  40.798   9.220  14.575
99646W        W70246  28.393  26.925  14.220
99647W        W70247  30.257  33.620   0.387
99648W        W70248  34.648  20.712   3.251
99649W        W70249  37.024   6.887   4.856
99650W        W70250  17.008   7.291   4.382
99651W        W70251  12.490   8.334   0.411
99652W        W70252  10.794  10.940   1.274
99653W        W70253   4.243  31.040  13.950
99654W        W70254  11.702  13.171  14.242
99655W        W70255  41.087  24.704  12.447
99656W        W70256  29.587  37.247   0.683
99657W        W70257   0.764  36.391   3.213
99658W        W70258  37.099  12.137  11.951
99659W        W70259  32.315  21.191  10.329
99660W        W70260  14.008  10.830  11.010
99661W        W70261  29.053  13.287   0.005
99662W        W70262  30.517  27.587  12.445
99663W        W70263  23.697   4.932   0.029
99664W        W70264  23.995  21.979   4.044
99665W        W70265  22.104   3.466  14.979
99666W        W70266  16.818   2.175  14.780
99667W        W70267  15.606  44.875   0.787
99668W        W70268  11.256   2.987   0.361
99669W        W70269  37.964   2.442   4.696
99670W        W70270  21.495  21.233   2.777
99671W        W70271  36.601  40.577   3.699
99672W        W70272  41.433   3.566   9.911
99673W        W70273   8.839  41.889   0.250
99674W        W70274  17.275  44.179  11.528
99675W        W70275  32.785   9.965  10.728
99676W        W70276   7.694   8.453  13.426
99677W        W70277  18.585   1.768  10.643
99678W        W70278  13.110  27.524   2.361
99679W        W70279   0.034   5.545   4.257
99680W        W70280   5.474  16.713  11.396
99681W        W70281  44.563  27.753  12.003
99682W        W70282  19.504  42.790  11.560
99683W        W70283   1.930  11.186  13.921
99684W        W70284  19.265  21.016   3.802
99685W        W70285  31.524  42.016   1.484
99686W        W70286  27.701  20.931   3.167
99687W        W70287  25.097  38.293   4.222
99688W        W70288   5.381  20.957  12.135
99689W        W70289  38.397  17.682  12.704
99690W        W70290  32.069  27.214   4.053
99691W        W70291  20.067   1.697   2.252
99692W        W70292   7.348  26.451  10.328
99693W        W70293  37.704  42.175   0.885
99694W        W70294  36.058  30.008   2.769
99695W        W70295  37.203  28.933  13.548
99696W        W70296   9.722   5.906   3.209
99697W        W70297   0.230   9.480   0.280
99698W        W70298  26.675  14.636   1.524
99699W        W70299   6.620  16.640   3.343
99700W        W70300  19.655  44.311  10.586
99701W        W70301  20.780  22.124   2.785
99702W        W70302  13.599  25.577   0.924
99703W        W70303  27.859  41.917  14.053
99704W        W70304  27.339   3.400   3.051
99705W        W70305  31.055  36.454   3.153
99706W        W70306  12.258  11.561   3.380
99707W        W70307  30.925   4.283  13.357
99708W        W70308  17.878  24.359  11.960
99709W        W70309  23.259  44.148  11.284
99710W        W70310   6.116  16.369  13.338
99711W        W70311  31.402  32.920  14.401
99712W        W70312  12.899  14.088   4.660
99713W        W70313   5.693  38.977   2.493
99714W        W70314  33.500  15.622   2.186
99715W        W70315  24.741  24.201   2.621
99716W        W70316  20.726  20.397  12.395
99717W        W70317  11.352  32.956  13.166
99718W        W70318  35.857   0.135  13.432
99719W        W70319   2.832   4.690   4.853
99720W        W70320   4.811  14.556   0.045
99721W        W70321   1.691  10.696   1.773
99722W        W70322   3.210  31.118   3.743
99723W        W70323  20.204  39.246  14.356
99724W        W70324  19.022   5.520  11.051
99725W        W70325   0.672  14.161   3.305
99726W        W70326  43.884  24.720  12.903
99727W        W70327  28.312   3.465   4.083
99728W        W70328  43.177   5.002   2.220
99729W        W70329  43.070   5.257  11.595
99730W        W70330  29.260  34.763  10.150
99731W        W70331  26.115  32.808   1.733
99732W        W70332  25.943  44.233  13.228
99733W        W70333  24.091   5.329   2.631
99734W        W70334  14.536  35.193  11.918
99735W        W70335  32.453  36.970  13.421
99736W        W70336  40.306  25.594  11.433
99737W        W70337  21.250  44.777   3.577
99738W        W70338  14.221  23.963  10.953
99739W        W70339  26.471  18.352  13.513
99740W        W70340  35.813  21.024   3.795
99741W        W70341  13.592  15.553   2.721
99742W        W70342  37.845  22.006   4.761
99743W        W70343  28.612  36.504   2.147
99744W        W70344  21.112   0.577   0.867
99745W        W70345  14.714  21.254   0.795
99746W        W70346  15.767  10.316  14.886
99747W        W70347  13.792   2.167   2.284
99748W        W70348  26.395  41.428  12.118
99749W        W70349  44.444  19.658   3.937
99750W        W70350  22.031  29.243  10.944
99751W        W70351  37.533  41.543   0.242
99752W        W70352  12.143  41.081   0.292
99753W        W70353   1.895  16.664  14.789
99754W        W70354   3.980  19.285   2.328
99755W        W70355  28.325  19.219   3.667
99756W        W70356  20.672   9.888   4.465
99757W        W70357  17.132  35.454   4.776
99758W        W70358   2.502  40.342  11.786
99759W        W70359  19.038  39.582   0.740
99760W        W70360   7.290  34.836   4.134
99761W        W70361  25.716  14.651  12.177
99762W        W70362   0.500  20.259  11.606
99763W        W70363  43.087   7.772   1.770
99764W        W70364  41.889   4.933  12.440
99765W        W70365  25.028   7.758  10.918
99766W        W70366  19.348  40.412  11.079
99767W        W70367   1.822  10.440  14.352
99768W        W70368  17.647   6.659  11.481
99769W        W70369   8.171  14.504   2.567
99770W        W70370   3.769  10.387  12.121
99771W        W70371  39.404  17.416   2.603
99772W        W70372   5.765  37.839   4.795
99773W        W70373  44.301   6.726  14.387
99774W        W70374  26.139  21.477  13.890
99775W        W70375  35.659  27.973   2.365
99776W        W70376   5.923  24.338   4.256
99777W        W70377  18.931   2.718   3.505
99778W        W70378  39.290  42.480  11.498
99779W        W70379  33.603   5.697  14.480
99780W        W70380  38.186  34.519   0.411
99781W        W70381   0.686   2.868   4.670
99782W        W70382   5.178  43.322  11.102
99783W        W70383  37.105  21.261  13.104
99784W        W70384  15.785  14.163  12.948
99785W        W70385   7.175  34.100   2.785
99786W        W70386  11.623   0.622   2.260
99787W        W70387   7.782   3.573  10.251
99788W        W70388  12.174  19.341  11.156
99789W        W70389  34.296  28.977   1.840
99790W        W70390  28.142  42.585  11.085
99791W        W70391  35.625  32.879  10.747
99792W        W70392  19.316  26.619   2.280
99793W        W70393  42.461  25.127  14.460
99794W        W70394  31.456  11.490   0.584
99795W        W70395   2.981  12.647  14.840
99796W        W70396  17.695  42.042  13.438
99797W        W70397   7.284  27.447  12.090
99798W        W70398   3.050  27.728  14.116
99799W        W70399   6.059  30.518  11.914
99800W        W70400  35.186  28.572  10.550
99801W        W70401  15.732  23.509  14.995
99802W        W70402   8.676  19.837   3.315
99803W        W70403  14.737   9.838   3.555
99804W        W70404   8.047  33.345   1.464
99805W        W70405  23.473   1.593  14.326
99806W        W70406   8.693   5.322   0.401
99807W        W70407  29.495  14.875  11.922
99808W        W70408   2.786  16.572  11.633
99809W        W70409  39.872  36.101  14.238
99810W        W70410  42.896  12.248  13.344
99811W        W70411   1.368  10.772   3.614
99812W        W70412  14.618  37.467  13.667
99813W        W70413  22.217   9.201  11.756
99814W        W70414  25.080  35.676   2.194
99815W        W70415  39.779  43.916  14.760
99816W        W70416  28.663   0.778  14.571
99817W        W70417   0.172   5.047   0.704
99818W        W70418  28.119  36.956  10.193
99819W        W70419   7.590  41.833  14.330
99820W        W70420   8.469  34.078   1.894
99821W        W70421  17.206  22.597   0.199
99822W        W70422  38.143   9.262  10.790
99823W        W70423  18.536   2.471   0.365
99824W        W70424  26.667  12.158   1.599
99825W        W70425  10.131   7.933   2.788
99826W        W70426  26.354  11.709  10.827
99827W        W70427  17.804   5.148  12.129
99828W        W70428  40.550   7.565   4.997
99829W        W70429  44.395  41.969  12.303
99830W        W70430  36.636  24.916  14.455
99831W        W70431  43.376  30.672   3.242
99832W        W70432  33.790  25.269  13.375
99833W        W70433   2.814  38.705   4.825
99834W        W70434  37.950   4.180   3.190
99835W        W70435  36.989  30.676  11.097
99836W        W70436   6.139  43.346  12.066
99837W        W70437  19.069   2.805   1.293
99838W        W70438  26.244  39.577   3.297
99839W        W70439  20.768  31.438  10.702
99840W        W70440  28.634  26.367   3.057
99841W        W70441   3.763  32.876   3.405
99842W        W70442  37.102  11.645   1.829
99843W        W70443   8.405  30.036   3.728
99844W        W70444  28.145  31.488   3.660
99845W        W70445  10.147  20.318   4.168
99846W        W70446  11.436   0.914  10.706
99847W        W70447  40.866   6.635   3.328
99848W        W70448  39.846   8.462   0.647
99849W        W70449  34.934  36.855   0.356
99850W        W70450  22.583  25.965   1.271
99851W        W70451   8.428  21.660  11.131
99852W        W70452  31.623  13.259   0.416
99853W        W70453  24.736  31.715  11.188
99854W        W70454   4.175  20.270  12.502
99855W        W70455  35.322  43.718  14.253
99856W        W70456  32.022  22.966   4.618
99857W        W70457  19.591   8.109   0.900
99858W        W70458  21.210  38.368   3.248
99859W        W70459  29.354  15.588  10.668
99860W        W70460  38.846  15.512   2.649
99861W        W70461  11.854  27.654   1.246
99862W        W70462  41.943  23.977   1.349
99863W        W70463   5.784  17.278   2.217
99864W        W70464  28.848  39.499   3.678
99865W        W70465  19.135  19.274  10.736
99866W        W70466   6.934  44.432   2.858
99867W        W70467  30.200  41.335  14.885
99868W        W70468  32.641  21.263  12.827
99869W        W70469   6.884   6.387   2.892
99870W        W70470  28.621  29.085   0.960
99871W        W70471  11.117  32.835  11.478
99872W        W70472   1.149  37.961  11.049
99873W        W70473  30.016  20.170  10.776
99874W        W70474  13.680  17.462  12.567
99875W        W70475  43.232  17.788  14.807
99876W        W70476  37.017   4.003  13.382
99877W        W70477  32.076  12.472  12.408
99878W        W70478   8.215  13.181  14.022
99879W        W70479  12.563  15.930   0.538
99880W        W70480   7.599  23.204   0.216
99881W        W70481  44.787  38.931  10.601
99882W        W70482  44.704  31.913   4.227
99883W        W70483  25.695  30.868  13.894
99884W        W70484  20.787  23.253   2.677
99885W        W70485   8.241  26.752   3.224
99886W        W70486  21.704   1.770  12.114
99887W        W70487  37.351  40.899  11.633
99888W        W70488   3.458  42.258  12.818
99889W        W70489  38.831  24.548   0.039
99890W        W70490   5.068  30.545   3.070
99891W        W70491  40.861  14.385  14.433
99892W        W70492  32.487  38.104  14.313
99893W        W70493   3.379   4.132   3.127
99894W        W70494  32.474  17.542   2.342
99895W        W70495   8.034  38.053  11.973
99896W        W70496  26.789  16.249   3.742
99897W        W70497   6.695  24.746  12.516
99898W        W70498  10.615  29.954  13.342
99899W        W70499  18.866   4.998   4.105
99900W        W70500  12.333  34.618   3.581
99901W        W70501   6.723  32.914  12.599
99902W        W70502  16.112  16.162   2.250
99903W        W70503  18.853  27.948  12.444
99904W        W70504  13.849   5.275  14.748
99905W        W70505  14.563  13.219   0.741
99906W        W70506  36.611  16.386  14.463
99907W        W70507  13.227  14.055  13.495
99908W        W70508  15.268  10.410   4.626
99909W        W70509  11.254  36.855  13.366
99910W        W70510  22.305  34.769  13.717
99911W        W70511   8.827  23.898  10.669
99912W        W70512  27.968  36.205  11.633
99913W        W70513  42.642  37.643  13.236
99914W        W70514  27.525  33.426   2.302
99915W        W70515  43.378  36.135  11.182
99916W        W70516  40.002  38.236   2.203
99917W        W70517  32.789  43.130  14.881
99918W        W70518   0.042  12.545  14.432
99919W        W70519  43.232  39.987   3.178
99920W        W70520  43.800   5.775   0.696
99921W        W70521  23.576  26.360  13.604
99922W        W70522   2.175  11.681  12.574
99923W        W70523   4.266  40.619  10.575
99924W        W70524   7.564  15.093  11.736
99925W        W70525  44.853  27.969   3.767
99926W        W70526  14.110  14.328   2.375
99927W        W70527  21.109  22.721   2.321
99928W        W70528  18.524  11.864  12.068
99929W        W70529  42.722  39.190  13.523
99930W        W70530  27.207  20.204  13.569
99931W        W70531  22.825  12.135   1.353
99932W        W70532  43.744   8.721   3.373
99933W        W70533  32.979  38.404  13.709
99934W        W70534  23.186  29.047  13.852
99935W        W70535  38.710   5.186   4.096
99936W        W70536  38.737  19.185   9.748
99937W        W70537  36.358  43.486  14.412
99938W        W70538  38.340  24.630  11.507
99939W        W70539  24.529  22.071   1.849
99940W        W70540  35.632  31.422  13.848
99941W        W70541  10.928  21.993  11.220
99942W        W70542  30.106  41.790   1.223
99943W        W70543  19.051  16.269  12.800
99944W        W70544  31.616  41.308  13.067
99945W        W70545  18.430  44.065   0.868
99946W        W70546  17.943  25.033  10.272
99947W        W70547  33.040  12.333  10.878
99948W        W70548  17.033  37.265  12.122
99949W        W70549   1.798  37.749   0.646
99950W        W70550  33.074  34.394   2.278
99951W        W70551  16.880   7.619  12.556
99952W        W70552  43.479  33.305   4.661
99953W        W70553  21.774  11.278  12.993
99954W        W70554  25.893  16.733   2.898
99955W        W70555  23.582  16.158   1.084
99956W        W70556   0.872  24.875  11.673
99957W        W70557   2.498   0.818   0.333
99958W        W70558   9.429   3.278   3.248
99959W        W70559  23.868  31.362  12.041
99960W        W70560   9.128  43.363   1.787
99961W        W70561  28.519   0.385  13.687
99962W        W70562  14.167   4.361   4.708
99963W        W70563  29.848   8.834   2.818
99964W        W70564  19.320  29.078  11.183
99965W        W70565  19.303  44.024   1.751
99966W        W70566  37.084  37.342   4.008
99967W        W70567  42.715  32.162  10.566
99968W        W70568  16.926  27.088   2.997
99969W        W70569  25.263   2.735  12.359
99970W        W70570  44.401  12.906  13.064
99971W        W70571  35.333   1.995   3.163
99972W        W70572  18.928  24.182  14.887
99973W        W70573  13.574  40.693   3.143
99974W        W70574  13.343  37.093   3.875
99975W        W70575  16.820  29.610  10.899
99976W        W70576  25.730  25.959   4.578
99977W        W70577   6.614  30.447  11.992
99978W        W70578   4.819  12.381  12.945
99979W        W70579  27.480  22.475   1.199
99980W        W70580  26.921   9.676   2.396
99981W        W70581  29.467  39.377   9.922
99982W        W70582  27.609  10.648   2.902
99983W        W70583  25.673  22.982  11.997
99984W        W70584  43.895  36.260   3.651
99985W        W70585  38.121  25.940  12.579
99986W        W70586   8.189  27.603   2.827
99987W        W70587  33.683  23.116  11.952
99988W        W70588  40.454  24.270  11.862
99989W        W70589  16.830  39.242  12.003
99990W        W70590  44.924   0.905  14.994
99991W        W70591  38.832   2.310  14.994
99992W        W70592   0.443  12.351   2.185
99993W        W70593  18.331  31.577  10.465
99994W        W70594  33.193  19.258   2.220
99995W        W70595  30.005  38.537  12.066
99996W        W70596   3.285   1.802  10.774
99997W        W70597  18.755  25.634  13.419
99998W        W70598  39.596  36.850  13.813
99999W        W70599   1.160   0.193   1.300
    0W        W70600   2.716  31.884   5.054
    1W        W70601  26.037  38.551   2.389
    2W        W70602  29.602  14.682   2.703
    3W        W70603  44.617  36.047   0.248
    4W        W70604   6.242  17.702  14.611
    5W        W70605   6.745  23.613   3.115
    6W        W70606  37.802  31.474   2.107
    7W        W70607   2.423   6.150   3.666
    8W        W70608  33.934  19.504  13.316
    9W        W70609  17.549  19.056  10.718
   10W        W70610   9.867  25.176  11.549
   11W        W70611  44.343  33.972  12.434
   12W        W70612  30.604  20.650  13.309
   13W        W70613  43.002   2.948  14.515
   14W        W70614   0.871  22.303  14.054
   15W        W70615  35.587   0.201  14.286
   16W        W70616  30.638  44.429   0.621
   17W        W70617  20.172  25.986   0.385
   18W        W70618  13.926  13.840   2.355
   19W        W70619  13.238   9.214  12.995
   20W        W70620  30.386  39.051   0.275
   21W        W70621  44.998  37.838  13.602
   22W        W70622  42.937   3.666  14.027
   23W        W70623   3.887  19.814   0.762
   24W        W70624   6.445  15.871   3.585
   25W        W70625   1.896  21.656   2.713
   26W        W70626  13.729  33.407   1.358
   27W        W70627  42.157   6.237  13.385
   28W        W70628  39.916  35.070  13.143
   29W        W70629  16.153   6.814   4.714
   30W        W70630   7.804  13.057   3.257
   31W        W70631  32.428  40.978   1.683
   32W        W70632  32.432  36.491   2.800
   33W        W70633   3.003  32.037  13.841
   34W        W70634  40.752  19.543  14.727
   35W        W70635  13.020  43.173   2.118
   36W        W70636  40.497  14.628  11.130
   37W        W70637   1.988  30.101  12.095
   38W        W70638  15.101   9.984  13.992
   39W        W70639  32.089   2.806  14.275
   40W        W70640   4.152  37.007   1.764
   41W        W70641   5.884  28.230  12.467
   42W        W70642  22.222   1.030  14.837
   43W        W70643   3.229  37.759  10.630
   44W        W70644  25.529   3.642   3.294
   45W        W70645  36.106   4.895  10.941
   46W        W70646  21.889   4.502  14.002
   47W        W70647  19.491  42.371   0.199
   48W        W70648   4.610   6.678   0.971
   49W        W70649  29.606  17.172   5.045
   50W        W70650  29.040  22.467  14.528
   51W        W70651   6.748  38.781   0.903
   52W        W70652  15.230  22.175   4.246
   53W        W70653  39.035  10.164   9.807
   54W        W70654  37.875   2.741  11.173
   55W        W70655   5.258  20.715   2.777
   56W        W70656  41.751  36.472   1.202
   57W        W70657  42.484  15.687   4.143
   58W        W70658  17.563  36.657   2.617
   59W        W70659  35.286  15.222  13.305
   60W        W70660  37.919  43.046  13.469
   61W        W70661   5.197  39.770   0.350
   62W        W70662  38.423  36.523   2.135
   63W        W70663  27.706   1.937   1.519
   64W        W70664  23.191  20.304   4.626
   65W        W70665  41.635  36.409   1.937
   66W        W70666  16.778   5.412  12.916
   67W        W70667  33.422   6.328  13.896
   68W        W70668  25.630  27.183   0.263
   69W        W70669  42.805  17.537  12.317
   70W        W70670  39.296  30.552  14.243
   71W        W70671   4.859   9.829  13.540
   72W        W70672  14.984  36.332  12.316
   73W        W70673  32.831  35.691  13.404
   74W        W70674   2.048  23.038   4.168
   75W        W70675  22.022  16.649   0.445
   76W        W70676  28.224  16.870  13.824
   77W        W70677   9.404  10.134   4.185
   78W        W70678  33.378  31.679   3.541
   79W        W70679  20.660   6.690   0.381
   80W        W70680  17.665  36.163  11.246
   81W        W70681   8.024  28.759   4.147
   82W        W70682  21.181  28.134   4.875
   83W        W70683   5.169  27.465   0.904
   84W        W70684   2.271  43.208  11.328
   85W        W70685  26.621  16.412   4.585
   86W        W70686  14.159  25.228   3.208
   87W        W70687  24.162  25.448  12.004
   88W        W70688  25.619  36.326   2.227
   89W        W70689   6.125  12.114   2.728
   90W        W70690  20.311  44.575   0.221
   91W        W70691  31.575   7.227  14.574
   92W        W70692   8.363   9.722  12.244
   93W        W70693  41.838  14.632   3.775
   94W        W70694  27.230   5.005   1.959
   95W        W70695  14.062   1.725  13.084
   96W        W70696  22.638  44.850  14.735
   97W        W70697   8.690   2.292   0.022
   98W        W70698  15.121   4.850   4.544
   99W        W70699  38.449  32.866  10.717
  100W        W70700  23.245  43.496   1.417
  101W        W70701  20.525  22.501   1.479
  102W        W70702  35.903  36.635  11.933
  103W        W70703  25.647  22.022   4.635
  104W        W70704  33.940  22.604  13.587
  105W        W70705  33.974  12.478   4.480
  106W        W70706  16.679  10.787  12.008
  107W        W70707   4.774  27.697  13.033
  108W        W70708  17.304  31.633   2.762
  109W        W70709   9.811  25.099   9.894
  110W        W70710  17.863  21.906  13.917
  111W        W70711  40.991  36.626  12.958
  112W        W70712  26.353  44.141  13.893
  113W        W70713  41.858  31.698   4.654
  114W        W70714   4.297  22.786   0.034
  115W        W70715  40.979  15.099   0.284
  116W        W70716   7.216  13.126   0.416
  117W        W70717  35.553  15.358  12.457
  118W        W70718  41.484  32.552  11.120
  119W        W70719  43.391  42.426   2.686
  120W        W70720  17.965  23.084  12.077
  121W        W70721   3.028  13.163   2.745
  122W        W70722  22.999  24.187   1.244
  123W        W70723  18.836  29.204   1.221
  124W        W70724  13.581  38.640  11.143
  125W        W70725  15.202   7.389   1.992
  126W        W70726  32.898  25.574   1.185
  127W        W70727   1.012  38.693   0.407
  128W        W70728  19.740   5.931  13.795
  129W        W70729  39.510  38.968   2.121
  130W        W70730  25.580   0.421  13.375
  131W        W70731   5.282  34.058   3.166
  132W        W70732  42.929  23.073   2.926
  133W        W70733   5.116  25.237   4.328
  134W        W70734  35.501  28.513  10.963
  135W        W70735  41.893   3.159  13.138
  136W        W70736  38.597  21.812   0.245
  137W        W70737   4.869  13.710   0.872
  138W        W70738  13.366   0.826   2.890
  139W        W70739  29.903  21.704  12.561
  140W        W70740  21.744  33.632   2.670
  141W        W70741   0.914  17.126  10.405
  142W        W70742  17.286  17.689  14.980
  143W        W70743  38.487  36.967   1.044
  144W        W70744   1.903  12.475  13.464
  145W        W70745  43.477  21.498   1.246
  146W        W70746  33.811  25.801   3.716
  147W        W70747   7.165  31.205  10.659
  148W        W70748   1.312  44.853   0.889
  149W        W70749  10.322  44.278   2.141
  150W        W70750  40.374  15.153  11.145
  151W        W70751  14.443  32.826   1.322
  152W        W70752  39.483  24.114   1.970
  153W        W70753  11.216  25.761   4.154
  154W        W70754  12.086  37.928   3.689
  155W        W70755  25.473  19.037  14.061
  156W        W70756  17.240   9.859   4.543
  157W        W70757  26.696   5.803   2.250
  158W        W70758  11.894  18.707  14.396
  159W        W70759   8.927  35.090   0.789
  160W        W70760  44.844   8.835   4.158
  161W        W70761  11.726  36.765   3.208
  162W        W70762  16.045   6.501  12.204
  163W        W70763   9.285   5.181  11.276
  164W        W70764  10.332  35.865  13.835
  165W        W70765   9.353   3.798  11.089
  166W        W70766   5.793  15.141   1.647
  167W        W70767   5.330  11.147   4.154
  168W        W70768  27.757  13.591   4.240
  169W        W70769  23.999  16.740  14.062
  170W        W70770   3.848  17.138   2.209
  171W        W70771  24.689  23.755   2.865
  172W        W70772  21.264   0.979  12.976
  173W        W70773  34.095   3.847  14.853
  174W        W70774  32.616  21.609   4.120
  175W        W70775  16.618   5.376  13.601
  176W        W70776  38.849  39.057  10.357
  177W        W70777  29.432  39.654   2.663
  178W        W70778  28.979  32.778   3.835
  179W        W70779  21.076  30.085  10.669
  180W        W70780  31.546  13.545  14.357
  181W        W70781   7.349  38.552   4.314
  182W        W70782   9.172  36.078   3.607
  183W        W70783  22.150  39.314  11.233
  184W        W70784  17.030  41.334   1.714
  185W        W70785  41.582  44.377  11.238
  186W        W70786  18.433  44.268  14.374
  187W        W70787  24.116  43.442   1.436
  188W        W70788   6.875  15.623   3.498
  189W        W70789   1.389  10.424  14.054
  190W        W70790  28.887  30.941   1.533
  191W        W70791  13.229  17.329   1.871
  192W        W70792  35.081   2.717   1.607
  193W        W70793  42.757  29.539  11.251
  194W        W70794  40.508  36.018   4.054
  195W        W70795   3.728   7.914  11.026
  196W        W70796  36.022  34.457  13.577
  197W        W70797  43.413  30.864  11.611
  198W        W70798  41.514  33.070  11.971
  199W        W70799  19.063  19.634   0.622
  200W        W70800  25.117  11.448   2.304
  201W        W70801  11.230  25.659   4.662
  202W        W70802  16.703   2.296   0.740
  203W        W70803  41.434  20.146  12.817
  204W        W70804  20.192  44.275  12.939
  205W        W70805  34.694   6.970   3.725
  206W        W70806  11.233  43.394   2.730
  207W        W70807  28.506  29.740   4.232
  208W        W70808  43.358  14.016  10.009
  209W        W70809   5.458  30.871   4.608
  210W        W70810  27.971  37.397   3.380
  211W        W70811  31.945  32.628  10.763
  212W        W70812  42.481  25.805  13.485
  213W        W70813  11.722  39.037   1.911
  214W        W70814  20.522  44.918   0.925
  215W        W70815  35.572  34.840  13.859
  216W        W70816  28.881   0.970  11.177
  217W        W70817   1.373  19.490  12.090
  218W        W70818   5.736  14.093   2.844
  219W        W70819  17.963  27.091  12.060
  220W        W70820  43.156  23.185  14.807
  221W        W70821   6.799  25.472  14.466
  222W        W70822  16.623  14.141  12.660
  223W        W70823   7.662  19.972   2.883
  224W        W70824  21.132  15.975   1.023
  225W        W70825  19.952  26.147  13.203
  226W        W70826   9.388  41.804  11.471
  227W        W70827  38.180  24.735   4.077
  228W        W70828  23.032   8.919   2.080
  229W        W70829  16.147  16.655  11.290
  230W        W70830   3.996   3.763  10.715
  231W        W70831  43.588  30.468   1.938
  232W        W70832  27.716  35.740  12.189
  233W        W70833  29.800  23.402   3.770
  234W        W70834  37.357  14.051  12.019
  235W        W70835   7.843  33.371   0.973
  236W        W70836  41.946  40.026   2.800
  237W        W70837  36.427  25.231  11.192
  238W        W70838  32.924  27.918   0.006
  239W        W70839  12.358   1.233  13.052
  240W        W70840  11.272  41.906  13.998
  241W        W70841  26.733  30.505   1.324
  242W        W70842  24.295  12.897  12.161
  243W        W70843  27.659   2.551  13.150
  244W        W70844  34.353  32.926  10.731
  245W        W70845   8.288  42.526   1.744
  246W        W70846  40.252  37.396  14.278
  247W        W70847  30.213   2.806  12.594
  248W        W70848  25.490  17.547   3.222
  249W        W70849  35.901  33.787   1.227
  250W        W70850   4.041  34.282   0.015
  251W        W70851   3.696  36.636   2.916
  252W        W70852  39.109   7.707   0.536
  253W        W70853   3.778   5.243  14.501
  254W        W70854   0.391  11.135  13.642
  255W        W70855  34.385   9.588   3.284
  256W        W70856   7.317  33.642   1.835
  257W        W70857  27.063  27.160  12.986
  258W        W70858  15.799  12.063  10.734
  259W        W70859  22.811  18.993  13.893
  260W        W70860   5.458  29.614  14.767
  261W        W70861  33.169  33.084  14.398
  262W        W70862  39.381  18.267   0.342
  263W        W70863   3.282  31.644   1.890
  264W        W70864  12.997  20.262   3.268
  265W        W70865  37.322  10.613   1.816
  266W        W70866   4.983  38.104   4.103
  267W        W70867  44.110  28.466   0.633
  268W        W70868   0.188   7.073  13.460
  269W        W70869  14.763   7.684   4.331
  270W        W70870  38.895  35.876  13.393
  271W        W70871   5.686  14.883  12.165
  272W        W70872  29.175  18.186   3.227
  273W        W70873  30.654  34.600  11.238
  274W        W70874   0.696  22.011   0.951
  275W        W70875  15.994  27.988  11.251
  276W        W70876  35.379   7.383  12.045
  277W        W70877  39.992   9.521  14.853
  278W        W70878  25.646   0.905   2.231
  279W        W70879  39.814   5.767   3.114
  280W        W70880  26.124  22.284  10.831
  281W        W70881  22.950  29.561   3.250
  282W        W70882  40.902  15.017   1.706
  283W        W70883  26.976  36.489   1.752
  284W        W70884   5.860   9.852  13.416
  285W        W70885  31.984   1.222   1.325
  286W        W70886  13.332   5.915  13.382
  287W        W70887   2.835   6.150   4.340
  288W        W70888   3.359  22.054  10.636
  289W        W70889  25.680   8.271  14.054
  290W        W70890  42.023  23.634   0.917
  291W        W70891   8.750   8.414  14.884
  292W        W70892  37.395   3.936  12.426
  293W        W70893  30.082  31.101  12.428
  294W        W70894   4.703  14.380  11.653
  295W        W70895  22.398  16.814  14.831
  296W        W70896  39.429  42.245  13.744
  297W        W70897  10.148  38.815  13.622
  298W        W70898  35.970  29.544  13.329
  299W        W70899  39.518  14.711  11.143
  300W        W70900  10.403  18.243  13.321
  301W        W70901  29.730  28.143  12.023
  302W        W70902  15.589   1.902  10.756
  303W        W70903   5.993  16.540   2.781
  304W        W70904  21.377  14.605   4.941
  305W        W70905   7.715   1.299  14.272
  306W        W70906  33.063  36.309   3.439
  307W        W70907  35.860   7.160   4.670
  308W        W70908  24.777  25.086   1.337
  309W        W70909  18.287   6.676   1.209
  310W        W70910   0.237  18.263  12.479
  311W        W70911  13.017  25.062   0.430
  312W        W70912   1.462  33.467   5.339
  313W        W70913   9.344  17.318   1.316
  314W        W70914   3.989  29.078   0.033
  315W        W70915  33.287  10.174  12.484
  316W        W70916  20.510  16.098  12.110
  317W        W70917  36.093  39.602   3.423
  318W        W70918  38.767   3.396  12.592
  319W        W70919  43.311  40.806  13.998
  320W        W70920  41.676  37.569   3.663
  321W        W70921  24.787   2.317  14.813
  322W        W70922  15.076  30.013   1.930
  323W        W70923  35.844   7.745  13.145
  324W        W70924  32.986  21.367   0.810
  325W        W70925  43.008  44.517   4.469
  326W        W70926  17.089  12.369  11.030
  327W        W70927  36.359  30.838   3.334
  328W        W70928  26.604  21.228   0.409
  329W        W70929  39.965   9.268  12.561
  330W        W70930   2.500  39.743  12.479
  331W        W70931  10.904  38.350  11.447
  332W        W70932  42.343  17.189   1.186
  333W        W70933  19.018  33.519   1.331
  334W        W70934   4.787   4.196  11.235
  335W        W70935  11.308  13.408  13.349
  336W        W70936  19.579   2.876  11.934
  337W        W70937   4.471  39.673  14.807
  338W        W70938  31.668  32.285   5.031
  339W        W70939  41.473   2.883   4.988
  340W        W70940   7.954  30.570   1.797
  341W        W70941  38.407  15.203   3.796
  342W        W70942  39.368  36.555   4.100
  343W        W70943  24.616  22.573   1.694
  344W        W70944   2.684  26.536  13.852
  345W        W70945  30.103  42.841   3.189
  346W        W70946  40.117  12.202   4.722
  347W        W70947  42.013  27.519   1.382
  348W        W70948  13.542   9.906   3.157
  349W        W70949   3.062  25.280   4.080
  350W        W70950   0.900   3.745   3.385
  351W        W70951  12.041   0.059   4.061
  352W        W70952  29.578  30.145   0.331
  353W        W70953  18.186  18.036  11.965
  354W        W70954  44.812   2.378  12.493
  355W        W70955  17.133  15.036   0.555
  356W        W70956  40.491  22.483  10.502
  357W        W70957  16.118  24.448  13.980
  358W        W70958  34.373  19.791  13.060
  359W        W70959  36.029  44.584  12.429
  360W        W70960  28.482  28.437  10.707
  361W        W70961  30.281  32.714   1.821
  362W        W70962  32.407  35.614  14.852
  363W        W70963  27.590  11.612  12.455
  364W        W70964  38.527  39.857   3.809
  365W        W70965  31.563  35.855  13.286
  366W        W70966  18.736  42.212  14.255
  367W        W70967   2.766   2.780   4.787
  368W        W70968   3.499  20.065  11.398
  369W        W70969   3.649   1.201  11.946
  370W        W70970  26.519  31.124   3.713
  371W        W70971  30.014  29.664  14.246
  372W        W70972  21.770   6.899   3.367
  373W        W70973  32.156  36.960  13.848
  374W        W70974   5.855   7.308  12.221
  375W        W70975   7.940  33.932  10.243
  376W        W70976  42.962   9.673  11.574
  377W        W70977  21.045  32.265  12.154
  378W        W70978  38.045  20.921   3.364
  379W        W70979   8.923  24.911  14.551
  380W        W70980  43.191   8.010  13.351
  381W        W70981   8.706  44.332   3.191
  382W        W70982  26.772  19.964   2.636
  383W        W70983   3.742  23.036  11.545
  384W        W70984  13.827  43.326  12.324
  385W        W70985  29.082  30.689   3.560
  386W        W70986   3.032   3.283   0.658
  387W        W70987  11.860  43.266   3.415
  388W        W70988  18.160  26.214   2.636
  389W        W70989   3.923  29.667  14.596
  390W        W70990  22.808  16.092  11.769
  391W        W70991  23.656  23.242  12.531
  392W        W70992  14.544  22.702   1.973
  393W        W70993   2.973  43.713  11.552
  394W        W70994  20.567  20.171   4.684
  395W        W70995   2.505   8.909  12.597
  396W        W70996  14.561  43.519  14.421
  397W        W70997  14.551  23.046  14.684
  398W        W70998  27.120  17.880  11.999
  399W        W70999  33.546  13.439  14.938
  400W        W71000  13.409  16.634   2.390
  401W        W71001  28.609  29.909  12.029
  402W        W71002  16.653  31.699  12.479
  403W        W71003  29.929  11.122   2.276
  404W        W71004  39.341  14.362   0.179
  405W        W71005  39.457  41.817   2.188
  406W        W71006   4.781  34.378   1.419
  407W        W71007  37.421   5.724  13.059
  408W        W71008   0.846   4.916  13.765
  409W        W71009   0.823  22.928   1.489
  410W        W71010  21.512  34.457  14.010
  411W        W71011   5.844   6.742  14.093
  412W        W71012  22.127   4.259  14.493
  413W        W71013  34.044  38.812  13.864
  414W        W71014  42.508   1.320  14.998
  415W        W71015  40.493  40.945   2.798
  416W        W71016   2.407  33.113   3.295
  417W        W71017   4.409  38.232   1.854
  418W        W71018   7.458   4.057   2.175
  419W        W71019  32.437  33.677  13.981
  420W        W71020  38.793  12.264   4.093
  421W        W71021  23.955  17.764  13.419
  422W        W71022  36.418   5.726  12.060
  423W        W71023   3.318   6.449  12.120
  424W        W71024  42.869  40.529  14.079
  425W        W71025  23.033  30.288   2.178
  426W        W71026  30.072  17.561  13.693
  427W        W71027  11.846  31.573   2.807
  428W        W71028   4.057  15.673   0.448
  429W        W71029  38.979  30.879  13.980
  430W        W71030  12.618  20.625   1.294
  431W        W71031   7.359  12.025  11.020
  432W        W71032  23.948   9.164   2.006
  433W        W71033  30.431  31.633  13.370
  434W        W71034  35.107   1.361  12.872
  435W        W71035  42.795  41.409   2.212
  436W        W71036  35.135  40.994  13.108
  437W        W71037  44.355   2.794  10.659
  438W        W71038  38.746  38.596   3.318
  439W        W71039   0.490  18.016   4.852
  440W        W71040   6.306  16.036  13.952
  441W        W71041   7.704   4.925  14.109
  442W        W71042   9.334   1.199  12.583
  443W        W71043  25.675  41.758   2.893
  444W        W71044  17.189  15.367  12.834
  445W        W71045  13.253  11.341  10.422
  446W        W71046   2.253  38.481  14.873
  447W        W71047  39.789  33.354  11.880
  448W        W71048   4.288   1.263  14.001
  449W        W71049  11.343  43.838   4.107
  450W        W71050  16.300  31.440  11.418
  451W        W71051   0.778  21.613  12.939
  452W        W71052  39.344  38.911   4.863
  453W        W71053  28.009  25.093  11.159
  454W        W71054  42.442  40.572   2.139
  455W        W71055  40.257   6.324   1.260
  456W        W71056  25.936  41.830  11.459
  457W        W71057  19.306  27.186   1.577
  458W        W71058  19.815  41.360   3.671
  459W        W71059  26.052  40.472   0.730
  460W        W71060  19.062   7.765  14.828
  461W        W71061  36.053  44.474  11.887
  462W        W71062  36.885  38.118   2.163
  463W        W71063  18.844   7.456   5.138
  464W        W71064   3.026  19.745  13.563
  465W        W71065  41.825  14.720  10.981
  466W        W71066  27.061  27.673   3.604
  467W        W71067  14.067  28.026   4.461
  468W        W71068  28.201   8.158  13.518
  469W        W71069  38.876   4.921  13.909
  470W        W71070  30.792  18.479  13.417
  471W        W71071  38.777  26.052   4.447
  472W        W71072  30.056  34.899  13.012
  473W        W71073  32.639  26.029   4.039
  474W        W71074  13.833  37.850  13.865
  475W        W71075   9.634   6.128   2.751
  476W        W71076   4.615  10.526   4.008
  477W        W71077   7.229  37.651  12.992
  478W        W71078  43.023   3.846   2.715
  479W        W71079  38.839  29.428   3.921
  480W        W71080  35.624   9.777   2.903
  481W        W71081   4.834  15.923  13.904
  482W        W71082  20.505  43.421   3.705
  483W        W71083  42.738   8.143   2.748
  484W        W71084  23.964   9.241  14.330
  485W        W71085  38.449  19.656   0.906
  486W        W71086  26.144   6.435  10.877
  487W        W71087  22.214  37.522  13.468
  488W        W71088  38.430  12.777  12.769
  489W        W71089  21.645  13.303   0.939
  490W        W71090  18.885  41.392  11.023
  491W        W71091   9.253  19.823   1.708
  492W        W71092   6.511  19.203   4.257
  493W        W71093   6.621   4.608   4.140
  494W        W71094   5.321  30.979   3.318
  495W        W71095   6.740  12.662   4.127
  496W        W71096  17.167  38.630   4.291
  497W        W71097  23.943  26.170   0.325
  498W        W71098  13.633  35.425   2.401
  499W        W71099  44.804   6.762   3.615
  500W        W71100   9.225  24.060  13.511
  501W        W71101  16.551  16.774  13.520
  502W        W71102  13.577  20.324  12.389
  503W        W71103  35.033  10.702   2.693
  504W        W71104  19.117  39.530  12.902
  505W        W71105  37.412   4.793  13.380
  506W        W71106  33.318  36.284   1.798
  507W        W71107  20.232  39.386  12.104
  508W        W71108   1.191  42.375   0.993
  509W        W71109  32.771  29.116  11.614
  510W        W71110  20.204  32.045   4.247
  511W        W71111  32.422  36.474   1.779
  512W        W71112  23.201  37.633   3.899
  513W        W71113  40.930  18.175  10.732
  514W        W71114  43.460  19.475  12.985
  515W        W71115  16.057  18.749   3.186
  516W        W71116  33.549  20.021  12.119
  517W        W71117  44.263   4.183   0.129
  518W        W71118  28.892  39.027  10.668
  519W        W71119  18.812  24.358  14.055
  520W        W71120  24.477  39.077  10.404
  521W        W71121  15.115  44.310   1.425
  522W        W71122  23.540  11.888   3.687
  523W        W71123  31.548  23.812   0.352
  524W        W71124  25.297   1.542  14.891
  525W        W71125  10.501  42.701   4.628
  526W        W71126  43.496   7.129   4.210
  527W        W71127  16.359  37.651   1.880
  528W        W71128  37.357   5.664  14.858
  529W        W71129   4.788  31.076  12.089
  530W        W71130  19.276  26.634  12.832
  531W        W71131   3.772  21.288  12.129
  532W        W71132  43.817  26.423  13.149
  533W        W71133  16.686  23.703  13.797
  534W        W71134   2.885  16.816   0.152
  535W        W71135  10.033   8.956  11.135
  536W        W71136  36.175   0.594   4.540
  537W        W71137  37.861   8.400   3.163
  538W        W71138  13.155  27.232   3.146
  539W        W71139  41.991  32.634   2.687
  540W        W71140  22.147  13.371  10.576
  541W        W71141  30.099  43.537   4.545
  542W        W71142  12.271  17.549   2.778
  543W        W71143  10.877  22.290   1.382
  544W        W71144  13.708   9.743   0.314
  545W        W71145  14.526  37.821  11.177
  546W        W71146  27.080  11.756  12.556
  547W        W71147  16.662  23.287   3.749
  548W        W71148  12.286  27.215   4.609
  549W        W71149  30.603  20.612  14.454
  550W        W71150  39.348   4.082   4.556
  551W        W71151  10.850  29.690  13.725
  552W        W71152  34.060  10.915   4.330
  553W        W71153  21.750  19.485  10.448
  554W        W71154  20.222  41.653  14.966
  555W        W71155  13.292  16.811  12.044
  556W        W71156  25.816  21.429  13.179
  557W        W71157  39.818   1.163  11.500
  558W        W71158  32.615  17.175  13.415
  559W        W71159  21.789  32.986  13.068
  560W        W71160  15.329  16.816   2.561
  561W        W71161   4.915  31.455   4.164
  562W        W71162  19.665  40.766   0.924
  563W        W71163  24.625  20.020   3.265
  564W        W71164  41.430  12.278  11.726
  565W        W71165  23.763   1.466  13.447
  566W        W71166  24.094  41.486  10.432
  567W        W71167   5.551  33.403   0.573
  568W        W71168   0.874   4.682  14.973
  569W        W71169   8.808  10.150   0.754
  570W        W71170  26.952  13.079   5.002
  571W        W71171   3.832  41.718   5.046
  572W        W71172  33.083  35.156   0.468
  573W        W71173  13.339   2.490  13.915
  574W        W71174   1.832  12.381  12.944
  575W        W71175  43.740  15.156   0.347
  576W        W71176  37.214  18.229   1.645
  577W        W71177  35.009  44.943  10.590
  578W        W71178  44.900  16.770  11.219
  579W        W71179  35.395   6.775   2.593
  580W        W71180  15.367  16.588   0.273
  581W        W71181   1.538  11.699   3.180
  582W        W71182  18.757   1.509   0.310
  583W        W71183  26.512   2.862   2.897
  584W        W71184   0.291   0.258   2.761
  585W        W71185  42.934  32.131   0.363
  586W        W71186  31.529  42.930   1.945
  587W        W71187  37.332   1.737   3.371
  588W        W71188   0.262  43.875  14.222
  589W        W71189  31.351  37.804   3.230
  590W        W71190  40.964  42.905   4.684
  591W        W71191  13.616  15.475   1.716
  592W        W71192  43.200  26.709   3.714
  593W        W71193  35.757   8.251  14.321
  594W        W71194  24.252  15.105   4.705
  595W        W71195   6.873  24.689  10.748
  596W        W71196   4.512   1.637   4.318
  597W        W71197  25.701  21.453   2.441
  598W        W71198   5.417  36.631  12.061
  599W        W71199  11.332  27.230  14.944
  600W        W71200  16.517  23.112  14.794
  601W        W71201  24.713  44.483  12.421
  602W        W71202  20.277  27.553   0.177
  603W        W71203  29.083  32.274   1.934
  604W        W71204  25.947  32.028  10.682
  605W        W71205  20.330  17.167   3.723
  606W        W71206  14.882  34.559   2.302
  607W        W71207  43.160   8.072  13.905
  608W        W71208   6.393  36.938   4.479
  609W        W71209  22.512  27.428   1.766
  610W        W71210  18.591  14.049   0.398
  611W        W71211  31.980   3.579   5.248
  612W        W71212  30.516   0.269   1.986
  613W        W71213  27.969   9.528   2.306
  614W        W71214  13.331   5.012  13.411
  615W        W71215  38.390  27.244   0.429
  616W        W71216  43.741  14.252  11.255
  617W        W71217  18.117   1.827  11.443
  618W        W71218  32.618  38.442   4.525
  619W        W71219  26.184  13.779   0.305
  620W        W71220  40.301  30.687   0.436
  621W        W71221  25.718  26.091  10.541
  622W        W71222  12.862   6.728   1.423
  623W        W71223  13.681  16.270   2.161
  624W        W71224   3.463  24.342   2.804
  625W        W71225  18.746  28.349  13.626
  626W        W71226  40.313   3.296   5.046
  627W        W71227   3.349  17.739  11.952
  628W        W71228  28.171  13.164   1.555
  629W        W71229  17.744  18.607   3.176
  630W        W71230  20.584  33.450  13.861
  631W        W71231  16.893   3.920  14.416
  632W        W71232  21.708  42.666   1.933
  633W        W71233  27.025  42.896   4.096
  634W        W71234  37.511  32.589   1.333
  635W        W71235  44.927   7.853   4.501
  636W        W71236  19.577  37.370   0.882
  637W        W71237  38.370  41.894  10.325
  638W        W71238  44.389  17.668   2.090
  639W        W71239  21.620  18.686   2.237
  640W        W71240  31.017  24.643   1.445
  641W        W71241  12.128  43.735   3.539
  642W        W71242  26.990  34.213  11.753
  643W        W71243  42.326  44.452  10.577
  644W        W71244  34.919   0.424  10.831
  645W        W71245   0.683  30.201   1.340
  646W        W71246  27.944  42.946  14.943
  647W        W71247  10.802  10.438  11.544
  648W        W71248   5.851   9.428  14.799
  649W        W71249  34.070   9.417  11.142
  650W        W71250  32.241  13.055   3.700
  651W        W71251  30.185  25.566   4.210
  652W        W71252  18.812  21.030   1.594
  653W        W71253  12.150  43.411  14.549
  654W        W71254  20.063  35.901  10.704
  655W        W71255  36.679  23.670  12.899
  656W        W71256  10.145  17.292   2.746
  657W        W71257  22.537  14.179   3.699
  658W        W71258  36.571   5.173  10.293
  659W        W71259  34.928  23.467  12.834
  660W        W71260  36.519   6.474   3.244
  661W        W71261  21.249  35.563   2.769
  662W        W71262  12.155  19.587  10.689
  663W        W71263   6.271  38.770   4.704
  664W        W71264  25.970  23.698   1.299
  665W        W71265  14.790  40.399   9.977
  666W        W71266   0.583  25.608  14.483
  667W        W71267  39.036   4.299   2.259
  668W        W71268  25.233  16.352  12.277
  669W        W71269  19.745  28.539   0.971
  670W        W71270  10.953  27.485   3.704
  671W        W71271  11.891   6.768   1.404
  672W        W71272  28.097  13.157  14.511
  673W        W71273   7.331  23.085  13.102
  674W        W71274  38.000  14.824  14.910
  675W        W71275  40.189  20.318  12.247
  676W        W71276  15.916  22.485  13.530
  677W        W71277  36.326   1.768   3.242
  678W        W71278  44.274   0.640   3.402
  679W        W71279   6.850  38.094  12.994
  680W        W71280  11.241   7.788  12.881
  681W        W71281  26.965  36.867   4.731
  682W        W71282  27.313  22.002  14.427
  683W        W71283  28.422  27.880   0.473
  684W        W71284  28.746  26.467  11.111
  685W        W71285  16.781  28.250  13.078
  686W        W71286  19.608   1.307  12.616
  687W        W71287  43.087  30.366   1.976
  688W        W71288  25.973  13.115   1.980
  689W        W71289   9.947  29.359  11.619
  690W        W71290  44.189   9.226   0.515
  691W        W71291   6.161  15.541   4.377
  692W        W71292  35.944  44.923   2.724
  693W        W71293  33.165  23.798   3.693
  694W        W71294   0.046  11.150   1.664
  695W        W71295   8.259   7.145  14.947
  696W        W71296  35.180  28.406  12.985
  697W        W71297  25.733   1.036  13.593
  698W        W71298  20.148  38.075  11.345
  699W        W71299   5.504  20.113  12.916
  700W        W71300  41.313   5.183   0.719
  701W        W71301   6.892  15.496   0.482
  702W        W71302  34.884  14.335  14.423
  703W        W71303  35.551  17.650  12.017
  704W        W71304  27.020  31.020   3.600
  705W        W71305  33.503  15.864  13.874
  706W        W71306  32.054  22.006   0.336
  707W        W71307  35.582  33.428  11.468
  708W        W71308  42.557  36.348   2.885
  709W        W71309  36.259   3.852   3.528
  710W        W71310  16.178  14.132  12.025
  711W        W71311  13.269  21.427   2.687
  712W        W71312  13.511   4.220  12.039
  713W        W71313  37.619  26.292   3.393
  714W        W71314  25.813  12.105  14.430
  715W        W71315  29.196   5.878   1.240
  716W        W71316  42.007  16.751  14.281
  717W        W71317  33.979  22.511   3.153
  718W        W71318   0.293  43.208   2.842
  719W        W71319   1.288  39.332   4.072
  720W        W71320   1.902  14.816  11.680
  721W        W71321  22.141  18.292   1.627
  722W        W71322  11.661  21.172   3.637
  723W        W71323  13.277   6.442   2.137
  724W        W71324   1.324  23.595   0.199
  725W        W71325  37.402   9.855  10.744
  726W        W71326   9.198  13.356   1.725
  727W        W71327  32.196  22.394  13.849
  728W        W71328   4.723  23.366  11.666
  729W        W71329  39.856  29.172  11.558
  730W        W71330  44.435  28.761  12.110
  731W        W71331   6.379  17.403   4.549
  732W        W71332  25.463  30.387  11.626
  733W        W71333  20.230  28.909   0.929
  734W        W71334  21.744  34.920  13.989
  735W        W71335   7.858   1.969  12.638
  736W        W71336  26.205  43.262  11.611
  737W        W71337  25.435   9.274   0.823
  738W        W71338   7.164  44.394   0.967
  739W        W71339  25.950  19.059   0.434
  740W        W71340  20.592   5.653   2.286
  741W        W71341   0.381  23.379  11.181
  742W        W71342  27.417  31.071  12.026
  743W        W71343  16.043   4.366   3.670
  744W        W71344  42.027  13.163   4.365
  745W        W71345  44.530  17.100   0.476
  746W        W71346  14.919  16.580   2.808
  747W        W71347  38.354  18.725   2.295
  748W        W71348  39.488   2.402   0.319
  749W        W71349  16.635  12.981   4.253
  750W        W71350  29.513   2.862  11.437
  751W        W71351  12.056  38.881   3.752
  752W        W71352  32.105   5.676  14.351
  753W        W71353   6.672   3.543  11.966
  754W        W71354   8.816  10.698  10.527
  755W        W71355  42.063  35.653  11.183
  756W        W71356   7.193   7.741   3.899
  757W        W71357   4.620  28.189  14.934
  758W        W71358  22.737   2.063  13.014
  759W        W71359   2.428  40.901  11.535
  760W        W71360  44.695   7.720  13.475
  761W        W71361  40.449   3.972  10.860
  762W        W71362   3.465  17.220  11.760
  763W        W71363   1.796   2.707  11.543
  764W        W71364  34.412  14.290  13.495
  765W        W71365  10.950   7.004  12.539
  766W        W71366   7.752  10.902  12.891
  767W        W71367   9.249  37.345  13.914
  768W        W71368  37.488  31.605  12.050
  769W        W71369   0.470  24.724  13.748
  770W        W71370  15.100  25.403   1.040
  771W        W71371  31.387  29.062   3.746
  772W        W71372  25.698   1.973  10.465
  773W        W71373   8.617  23.612   2.462
  774W        W71374  19.864  38.122   0.495
  775W        W71375  39.133  30.566  11.554
  776W        W71376  10.239  32.675  12.432
  777W        W71377  32.375  39.378  12.837
  778W        W71378   6.688  30.199  12.954
  779W        W71379  14.075   3.281  13.289
  780W        W71380  35.709  39.825  11.178
  781W        W71381  19.732   2.317  11.155
  782W        W71382  27.286  40.413  11.025
  783W        W71383  30.640  27.067   0.610
  784W        W71384  33.883  26.333   3.658
  785W        W71385  40.874   4.175  11.906
  786W        W71386   1.225  12.703   4.181
  787W        W71387  31.823  13.193  12.039
  788W        W71388  29.481   2.369  12.199
  789W        W71389  11.078   3.477   4.629
  790W        W71390  38.732  20.975  13.954
  791W        W71391  21.857  41.534   3.735
  792W        W71392  39.831   1.305  11.018
  793W        W71393   2.826  18.705   3.145
  794W        W71394  15.322  34.045   0.895
  795W        W71395  11.633  26.123   4.256
  796W        W71396  33.470   4.407   1.168
  797W        W71397  17.580  37.327   3.347
  798W        W71398  26.076   9.108  14.937
  799W        W71399  44.895  13.068  12.044
  800W        W71400   4.269  14.559  10.983
  801W        W71401  43.657  34.071  10.539
  802W        W71402  42.462  42.849  11.909
  803W        W71403  28.587  14.366   3.023
  804W        W71404  24.084  34.313   3.639
  805W        W71405  29.209  42.516   0.837
  806W        W71406   0.851  27.512  14.955
  807W        W71407  13.445  19.957  12.727
  808W        W71408   8.300  35.735   1.819
  809W        W71409  37.247   8.723  11.513
  810W        W71410   5.872  30.370  14.841
  811W        W71411   5.836  40.068  12.503
  812W        W71412   8.432   1.829  10.640
  813W        W71413  20.115  29.235  13.007
  814W        W71414  14.988  11.446  12.072
  815W        W71415  26.186  14.278  12.356
  816W        W71416  30.939  43.913   2.313
  817W        W71417   4.756  22.734   3.809
  818W        W71418  40.807  34.064  13.479
  819W        W71419   0.679  37.012  13.116
  820W        W71420   2.668   5.694  11.135
  821W        W71421  22.038  34.492  14.063
  822W        W71422  42.341   1.821   3.885
  823W        W71423  12.768  43.518  14.763
  824W        W71424   7.725  35.333   1.494
  825W        W71425  38.915  30.765   4.118
  826W        W71426  35.164  42.412   3.217
  827W        W71427  43.845  10.844  11.685
  828W        W71428  28.988  26.155   0.839
  829W        W71429  29.001  12.306   0.386
  830W        W71430  17.961  24.044  13.933
  831W        W71431  13.185   5.094  10.712
  832W        W71432  12.999   5.449   3.347
  833W        W71433   8.105  20.213   2.791
  834W        W71434  16.563  32.419   2.779
  835W        W71435  11.213  43.167   1.287
  836W        W71436   5.365   1.501   3.296
  837W        W71437   5.170  17.646   4.216
  838W        W71438  20.708  26.940   1.945
  839W        W71439   0.998  35.751   0.810
  840W        W71440  40.490  27.990  13.199
  841W        W71441  23.107  38.023   2.754
  842W        W71442  30.924   8.354   3.799
  843W        W71443  41.451  43.264  14.818
  844W        W71444  35.386  36.399   2.217
  845W        W71445   3.978  18.222   0.806
  846W        W71446  10.400   9.984   3.909
  847W        W71447  39.746  11.127   0.767
  848W        W71448  18.854  30.706   4.198
  849W        W71449  27.105   6.494  12.821
  850W        W71450  35.486  20.541   0.757
  851W        W71451  31.695  15.591   1.231
  852W        W71452  15.416   9.373   1.417
  853W        W71453  21.022   9.211   1.781
  854W        W71454  39.903  11.745  11.067
  855W        W71455  17.401   2.416   2.442
  856W        W71456  16.850   5.855   0.275
  857W        W71457  22.617  11.247   1.371
  858W        W71458  28.593  19.458   4.076
  859W        W71459   4.185  33.324  14.469
  860W        W71460  16.940  43.222   1.475
  861W        W71461  12.729   9.076  11.802
  862W        W71462  18.769   3.502   4.588
  863W        W71463  21.326  37.308   4.099
  864W        W71464   3.385  27.592  13.183
  865W        W71465  29.172   4.939   4.622
  866W        W71466  44.088   4.408   4.741
  867W        W71467  38.416  25.040   1.124
  868W        W71468  13.582   1.215  12.416
  869W        W71469  33.325  14.067  14.338
  870W        W71470  33.151  17.572  11.926
  871W        W71471  34.105  36.103  11.627
  872W        W71472  29.111  32.564   2.397
  873W        W71473   9.239   3.899  13.440
  874W        W71474  40.028  11.351   2.220
  875W        W71475  33.145  24.472   2.241
  876W        W71476  12.891  17.101  13.045
  877W        W71477  22.172  21.609  13.603
  878W        W71478  18.924  37.808  10.876
  879W        W71479  15.968  26.185   5.424
  880W        W71480  33.378  43.956   0.949
  881W        W71481  30.831  17.245  14.034
  882W        W71482  31.187   9.213   1.704
  883W        W71483   9.607  21.827   1.308
  884W        W71484  20.126   4.937   3.611
  885W        W71485  35.846  10.630   2.350
  886W        W71486   5.209  14.303   2.293
  887W        W71487  34.838  11.559   4.483
  888W        W71488  37.838  44.037  14.496
  889W        W71489  29.394   1.322  14.276
  890W        W71490  31.512  11.336   3.937
  891W        W71491  27.647  32.661   3.626
  892W        W71492  26.767  14.374   5.075
  893W        W71493  25.937  22.090  14.870
  894W        W71494  11.728   9.218   3.098
  895W        W71495  20.645  38.187  11.229
  896W        W71496   9.056  18.672   0.747
  897W        W71497  42.956  17.663   0.864
  898W        W71498  17.084  10.906   2.392
  899W        W71499  39.802  31.990  14.301
  900W        W71500   1.952  17.131   2.128
  901W        W71501  39.357  27.915  14.230
  902W        W71502  17.119  21.540  10.622
  903W        W71503  22.645  11.570  14.308
  904W        W71504  17.472  34.046  13.303
  905W        W71505  34.828  37.448   1.794
  906W        W71506  15.714  34.492   1.912
  907W        W71507  33.750  16.299  10.681
  908W        W71508  43.827   3.137  12.109
  909W        W71509  13.583  23.670  14.304
  910W        W71510  42.879  32.651   1.244
  911W        W71511  22.154  20.723  13.022
  912W        W71512  12.381  14.895   2.632
  913W        W71513  26.915   2.256  14.556
  914W        W71514  32.748   4.293  10.624
  915W        W71515  23.824  42.528   4.681
  916W        W71516  11.765  41.963  10.253
  917W        W71517  42.409  16.005   1.369
  918W        W71518  27.203  37.880  14.115
  919W        W71519  38.288  36.045   2.350
  920W        W71520  42.220   2.739  14.314
  921W        W71521  27.575  26.622   3.152
  922W        W71522  28.736   3.277  10.842
  923W        W71523  13.251  20.734   3.275
  924W        W71524   1.390  22.277  11.225
  925W        W71525  13.657  18.280   1.387
  926W        W71526  13.924  43.069   2.642
  927W        W71527  11.946  10.923   0.754
  928W        W71528   4.801  35.451   1.271
  929W        W71529  21.891  35.099   3.276
  930W        W71530  21.902   4.236  11.562
  931W        W71531  22.199  18.142  10.653
  932W        W71532  22.512  15.309  12.462
  933W        W71533  25.978   9.943  10.056
  934W        W71534   8.941  43.438  11.109
  935W        W71535  30.673  37.907   1.792
  936W        W71536  40.823  43.925   2.614
  937W        W71537  42.002  12.612   0.333
  938W        W71538  20.190  30.525  14.473
  939W        W71539  24.041  26.277  13.363
  940W        W71540  21.773  39.755  12.592
  941W        W71541  23.999  33.621  12.861
  942W        W71542  14.071  15.487  13.394
  943W        W71543  22.006   4.152   2.789
  944W        W71544  10.346  41.364  13.935
  945W        W71545  22.650   6.174   0.184
  946W        W71546   8.384  23.222   0.848
  947W        W71547  32.578   3.799  11.393
  948W        W71548  29.524  24.532   3.222
  949W        W71549  25.665  35.175  14.158
  950W        W71550   1.212  28.827   2.804
  951W        W71551  28.275  10.455  13.724
  952W        W71552  36.291  24.182   3.314
  953W        W71553   5.393  44.923  10.888
  954W        W71554  32.892  18.586   4.107
  955W        W71555  44.282  34.112  11.641
  956W        W71556  17.279  37.057   1.271
  957W        W71557   4.758  23.610  12.596
  958W        W71558  29.050  40.737  13.323
  959W        W71559   6.638  23.822  13.357
  960W        W71560   5.538   1.545   2.360
  961W        W71561  22.752  20.589   0.262
  962W        W71562  25.127   9.733   0.717
  963W        W71563   4.829  34.478  13.509
  964W        W71564  18.334  43.004  12.954
  965W        W71565  44.734  44.458   0.338
  966W        W71566  30.704  35.347   2.444
  967W        W71567  13.746  32.474   0.306
  968W        W71568  17.655  29.124  12.646
  969W        W71569  44.163  25.246   0.848
  970W        W71570  26.512  37.554   2.194
  971W        W71571   9.943  29.206  13.422
  972W        W71572  25.708   1.855  14.033
  973W        W71573  24.076   5.197   4.458
  974W        W71574  31.529   5.872   4.198
  975W        W71575  20.839  19.488  11.443
  976W        W71576   2.223  44.848   0.903
  977W        W71577   9.540  17.524   2.609
  978W        W71578   4.506  24.270  11.419
  979W        W71579  10.218  42.044  12.610
  980W        W71580  18.101  29.468  13.052
  981W        W71581  12.668  25.733   3.782
  982W        W71582  24.021  25.104   4.237
  983W        W71583  28.660  40.071   3.029
  984W        W71584  25.847  12.616  11.135
  985W        W71585  35.034   1.582   2.291
  986W        W71586  26.626  10.721   0.654
  987W        W71587   7.121  35.459   0.815
  988W        W71588  39.842  33.385   1.274
  989W        W71589  38.577  32.642  11.161
  990W        W71590  42.861  36.085   2.468
  991W        W71591  40.403  34.373  11.609
  992W        W71592  11.016  13.359  11.476
  993W        W71593  39.156  17.824   4.046
  994W        W71594   5.534  13.064  14.542
  995W        W71595  19.674   6.165  12.787
  996W        W71596  16.169   6.353   0.690
  997W        W71597  22.453   7.021  11.230
  998W        W71598   7.169   1.469   1.327
  999W        W71599  14.572  38.743   1.726
 1000W        W71600   6.167   9.877  14.945
 1001W        W71601   1.823  14.705  12.600
 1002W        W71602  12.275  34.802   0.171
 1003W        W71603  11.206  17.409  11.569
 1004W        W71604  16.639  20.802   3.611
 1005W        W71605  31.595  25.204   4.441
 1006W        W71606  41.081  39.888  13.362
 1007W        W71607  31.911  33.818   0.527
 1008W        W71608  37.354  20.204   2.257
 1009W        W71609  21.069  36.289  14.889
 1010W        W71610   3.492  23.165   3.581
 1011W        W71611   0.845  35.963   4.121
 1012W        W71612  36.335  25.479   4.598
 1013W        W71613  30.060  18.054  12.465
 1014W        W71614  32.460  24.797   1.450
 1015W        W71615  11.801  39.500   1.698
 1016W        W71616  26.836  31.470  11.456
 1017W        W71617  37.496  27.473   4.866
 1018W        W71618  16.714  27.668   2.205
 1019W        W71619  12.599  20.625   3.818
 1020W        W71620  42.950   6.731   0.879
 1021W        W71621  21.090  31.154  14.932
 1022W        W71622  41.894   0.070  11.681
 1023W        W71623  22.471  12.287  11.213
 1024W        W71624  24.490  13.421   2.275
 1025W        W71625  26.990  31.503   4.362
 1026W        W71626   2.677  34.358   2.311
 1027W        W71627  30.680  20.845  13.784
 1028W        W71628   5.609   7.559   3.515
 1029W        W71629  34.696  14.974   4.057
 1030W        W71630  22.287  33.096  12.914
 1031W        W71631  14.622  16.587   0.840
 1032W        W71632   4.695  38.957  12.296
 1033W        W71633  38.292  21.558  11.189
 1034W        W71634  43.161  11.986   3.778
 1035W        W71635  26.325  12.828   2.286
 1036W        W71636   6.260  23.581  14.147
 1037W        W71637  20.208  42.691   2.711
 1038W        W71638  32.556  35.955  10.745
 1039W        W71639  37.411  34.096   1.303
 1040W        W71640   2.836  19.308   2.332
 1041W        W71641  39.007  11.290   2.285
 1042W        W71642   8.855  17.777  11.365
 1043W        W71643  28.996  39.262   4.124
 1044W        W71644  36.425  22.895   2.809
 1045W        W71645  36.025  30.729   0.930
 1046W        W71646  23.518  11.982   2.888
 1047W        W71647  41.433  23.291  13.049
 1048W        W71648  34.072  20.105   4.927
 1049W        W71649  15.993   0.694   2.923
 1050W        W71650  23.178  14.570  14.388
 1051W        W71651  28.615  15.883   0.260
 1052W        W71652  12.160  39.539  13.155
 1053W        W71653  34.875  16.742  12.445
 1054W        W71654  12.395  28.438  12.879
 1055W        W71655  20.323  19.045   0.457
 1056W        W71656   6.955   9.206  12.994
 1057W        W71657   1.227  44.799   4.627
 1058W        W71658  24.225  30.272   0.459
 1059W        W71659  24.667   6.227  11.919
 1060W        W71660  39.042  41.345   4.713
 1061W        W71661  39.586  19.412   1.437
 1062W        W71662  32.974  25.014  10.797
 1063W        W71663  13.104  41.062   0.328
 1064W        W71664  40.426  31.580  11.020
 1065W        W71665   0.996  34.696   4.086
 1066W        W71666  28.418   6.328   3.252
 1067W        W71667  10.828  27.964  11.580
 1068W        W71668  15.714   8.278  10.940
 1069W        W71669   7.144  44.235   2.403
 1070W        W71670  34.178  27.514   2.010
 1071W        W71671   0.385   9.317  14.739
 1072W        W71672  11.840   2.935   2.613
 1073W        W71673   4.204  38.504   0.889
 1074W        W71674   1.789  30.875  12.536
 1075W        W71675   8.647   9.643   3.939
 1076W        W71676  40.916  27.598   0.876
 1077W        W71677  29.549  36.890  11.652
 1078W        W71678   7.218   2.357   0.756
 1079W        W71679  16.690  35.601   1.427
 1080W        W71680  17.120  21.688   2.842
 1081W        W71681  33.167  14.724  11.537
 1082W        W71682  26.765  17.635   1.811
 1083W        W71683  27.025  17.319  12.853
 1084W        W71684  44.761  33.476   4.988
 1085W        W71685   0.767  43.998  14.017
 1086W        W71686  33.860  23.992   2.350
 1087W        W71687  22.168   3.051  14.644
 1088W        W71688  34.315  31.104  12.092
 1089W        W71689   3.330  24.143   4.890
 1090W        W71690  23.329  40.906   2.169
 1091W        W71691  21.935  23.671  14.962
 1092W        W71692  21.076  28.583   3.605
 1093W        W71693  36.088  29.529   2.221
 1094W        W71694  44.277  27.753   3.193
 1095W        W71695  12.594  33.432   1.646
 1096W        W71696  17.593  40.711  13.045
 1097W        W71697  10.688  20.116  14.742
 1098W        W71698   7.089  25.144  13.369
 1099W        W71699   5.490   9.860   2.774
 1100W        W71700  23.479  29.529   2.327
 1101W        W71701   4.475  28.971   4.578
 1102W        W71702   8.467  43.769   2.382
 1103W        W71703  43.170  19.007   0.930
 1104W        W71704  24.181   9.181   1.092
 1105W        W71705   6.379   7.270   0.730
 1106W        W71706  44.344  23.165  12.573
 1107W        W71707  34.418  11.363   2.752
 1108W        W71708   6.709  20.385  12.519
 1109W        W71709  34.990  24.858   0.891
 1110W        W71710  28.617  34.871  13.449
 1111W        W71711  20.974  40.836  12.909
 1112W        W71712  15.567  25.216   1.786
 1113W        W71713  26.972  23.038   1.800
 1114W        W71714   9.906  13.282   1.292
 1115W        W71715  15.848  32.555   4.258
 1116W        W71716  44.155  31.450  11.165
 1117W        W71717  25.571  38.417   1.237
 1118W        W71718   0.839   8.676   0.256
 1119W        W71719  23.353  15.527  14.982
 1120W        W71720  41.532  24.973  12.508
 1121W        W71721  13.194  35.864   2.938
 1122W        W71722  32.574  29.228   4.672
 1123W        W71723  11.771  34.908   0.030
 1124W        W71724  18.572   5.841  12.875
 1125W        W71725   8.195  29.429  12.881
 1126W        W71726  13.359  21.088   9.942
 1127W        W71727  38.117  35.449  10.617
 1128W        W71728  33.468  19.737   1.315
 1129W        W71729  13.287  35.085   0.334
 1130W        W71730  38.908   0.556   1.425
 1131W        W71731  32.749  36.243  12.026
 1132W        W71732  14.733  38.494  12.027
 1133W        W71733  44.016  29.015   2.339
 1134W        W71734  12.876  44.894   3.068
 1135W        W71735   0.001  25.903  13.321
 1136W        W71736  22.736   1.801   5.291
 1137W        W71737  39.107   2.968   0.437
 1138W        W71738  29.099  37.269   0.919
 1139W        W71739  16.693  17.042   3.347
 1140W        W71740  37.014  29.859  13.568
 1141W        W71741   9.687  42.866  11.976
 1142W        W71742  20.188   2.514   3.383
 1143W        W71743  19.700   6.641  13.072
 1144W        W71744  30.246   7.216   4.230
 1145W        W71745   8.716  18.578  12.606
 1146W        W71746  24.915  21.223   3.521
 1147W        W71747  10.710  15.959  11.986
 1148W        W71748  38.861  26.346  11.392
 1149W        W71749   3.421  17.095  14.948
 1150W        W71750  42.428  43.850  13.150
 1151W        W71751  17.153   5.157   2.369
 1152W        W71752   3.367  42.062   3.587
 1153W        W71753   1.507  22.728   1.906
 1154W        W71754  22.278  20.828   3.880
 1155W        W71755  30.039  28.478   0.834
 1156W        W71756  27.626  39.069   3.298
 1157W        W71757  18.534   0.919   0.852
 1158W        W71758  23.246  26.620   4.105
 1159W        W71759  26.543   3.833   2.686
 1160W        W71760  14.367  13.231   2.874
 1161W        W71761  36.082  28.006  13.357
 1162W        W71762  10.338  28.657  11.104
 1163W        W71763   3.173   9.348   4.519
 1164W        W71764  28.404   0.974  11.013
 1165W        W71765  23.231  21.195  12.580
 1166W        W71766  40.620  25.327   2.193
 1167W        W71767   5.505  32.659   4.157
 1168W        W71768  28.600   0.728   0.431
 1169W        W71769  39.318  20.455  12.973
 1170W        W71770  34.499  40.323  12.695
 1171W        W71771   3.733  31.631  13.515
 1172W        W71772  36.524   1.185  11.125
 1173W        W71773  17.130  34.249  11.870
 1174W        W71774  10.644  31.989  14.932
 1175W        W71775  18.195  24.385   5.059
 1176W        W71776  31.518  24.785  12.179
 1177W        W71777  43.106  23.160   3.447
 1178W        W71778  29.953  23.830  14.922
 1179W        W71779  16.784  38.043  14.882
 1180W        W71780  43.374  36.205   2.661
 1181W        W71781   2.668  34.915   1.428
 1182W        W71782  25.319   0.071  11.422
 1183W        W71783  24.608  19.788   3.766
 1184W        W71784  41.995  16.515   1.840
 1185W        W71785  26.572   8.265  14.416
 1186W        W71786  14.818  32.504   2.176
 1187W        W71787  28.526  15.364  10.264
 1188W        W71788  38.063  36.559   4.450
 1189W        W71789  35.167  42.450  12.498
 1190W        W71790  20.545  38.395  11.697
 1191W        W71791   9.840  32.463  12.660
 1192W        W71792  30.615  15.614   1.899
 1193W        W71793   1.931  31.138  14.085
 1194W        W71794  42.966   8.891  10.715
 1195W        W71795  14.831  37.516   0.387
 1196W        W71796  32.859  30.772  10.867
 1197W        W71797  10.895   3.847   0.923
 1198W        W71798   2.352  35.857  13.862
 1199W        W71799  33.069   1.385   3.773
 1200W        W71800   7.532  15.636   1.755
 1201W        W71801  19.072  11.972   0.863
 1202W        W71802  38.413   4.522   4.630
 1203W        W71803  21.183  13.061   0.891
 1204W        W71804  12.668  26.408  12.080
 1205W        W71805  18.361  30.003  13.063
 1206W        W71806   3.346  31.054  11.396
 1207W        W71807   7.026   3.727   4.391
 1208W        W71808  25.694   4.822   2.751
 1209W        W71809  33.882  17.085  12.151
 1210W        W71810  12.910  22.200   1.444
 1211W        W71811   0.361  17.255  14.405
 1212W        W71812  21.250  11.599  14.455
 1213W        W71813   9.837  42.545  12.890
 1214W        W71814   8.870  31.905   2.385
 1215W        W71815  18.852  39.491   1.989
 1216W        W71816  19.181  21.738   1.955
 1217W        W71817  26.985  30.388  12.534
 1218W        W71818  33.107   6.830   1.261
 1219W        W71819  21.045  10.008   1.329
 1220W        W71820  19.755  33.803  13.098
 1221W        W71821  14.346  25.544   1.416
 1222W        W71822  44.707  43.768   4.687
 1223W        W71823  16.570  41.898   0.514
 1224W        W71824  41.474   2.376  11.755
 1225W        W71825  14.119  43.799   0.831
 1226W        W71826  29.387  17.055  13.070
 1227W        W71827   4.072  32.859  12.475
 1228W        W71828  21.970  18.255   0.503
 1229W        W71829  17.057  36.838  13.446
 1230W        W71830  23.216  17.257   0.258
 1231W        W71831  25.904  27.655  14.236
 1232W        W71832  21.475   0.804  11.358
 1233W        W71833  44.143  36.837   1.231
 1234W        W71834  23.521  19.358   1.961
 1235W        W71835  29.093  19.134  11.810
 1236W        W71836  31.932   3.959  12.658
 1237W        W71837   1.839  25.675   0.794
 1238W        W71838  43.730  28.455   4.098
 1239W        W71839  28.280  28.019  11.033
 1240W        W71840   6.822  15.172  12.942
 1241W        W71841   6.192  10.144   0.883
 1242W        W71842  14.795   6.363  12.407
 1243W        W71843  12.283  27.214  13.809
 1244W        W71844   0.951   6.444  12.781
 1245W        W71845   3.841  19.307   3.747
 1246W        W71846  28.963  23.096   3.118
 1247W        W71847  11.758  20.493   3.866
 1248W        W71848  21.675  10.022   0.234
 1249W        W71849  39.430   7.218  11.614
 1250W        W71850  28.443   1.915   4.204
 1251W        W71851  34.615   2.783   2.008
 1252W        W71852   4.901  22.855   4.282
 1253W        W71853  31.675  16.114  11.025
 1254W        W71854   9.307  12.177   4.951
 1255W        W71855   0.887  29.932  14.640
 1256W        W71856  40.350  22.946  10.778
 1257W        W71857  19.212  35.274   1.594
 1258W        W71858  40.994  12.175  13.759
 1259W        W71859  18.552  16.246  12.145
 1260W        W71860  40.445  37.024  13.983
 1261W        W71861  26.724  38.973  11.358
 1262W        W71862  12.161  38.745   0.763
 1263W        W71863  42.492  27.476   2.641
 1264W        W71864   4.383   0.232   0.199
 1265W        W71865  40.871  23.221   1.871
 1266W        W71866  16.143   2.240   3.699
 1267W        W71867  44.283   2.369   1.228
 1268W        W71868  24.707  28.803   1.808
 1269W        W71869  44.634   3.192  11.634
 1270W        W71870  43.517  34.600  14.574
 1271W        W71871  18.517  11.022  12.189
 1272W        W71872   7.412  43.585  11.225
 1273W        W71873  10.244  27.164   0.998
 1274W        W71874  23.963  35.171  14.316
 1275W        W71875  34.058  32.750  11.130
 1276W        W71876  30.058   2.087   2.250
 1277W        W71877  44.223  20.699   4.586
 1278W        W71878  11.974  13.608  12.466
 1279W        W71879   1.896  43.281   0.030
 1280W        W71880  24.001  36.161   4.496
 1281W        W71881   5.603  43.437  13.011
 1282W        W71882  28.754   4.102  13.865
 1283W        W71883   2.390  19.644  14.058
 1284W        W71884   3.718  20.768  14.251
 1285W        W71885  18.286   2.400   2.229
 1286W        W71886   3.661  34.403   0.581
 1287W        W71887  44.463   7.774  12.167
 1288W        W71888  28.527  41.297  11.648
 1289W        W71889  20.563  34.376   1.681
 1290W        W71890  14.111  12.281  12.936
 1291W        W71891  22.810  28.620  14.202
 1292W        W71892  13.137  16.870  10.816
 1293W        W71893   2.407   6.341   4.560
 1294W        W71894  44.620  24.694  13.317
 1295W        W71895  42.716  10.368  12.091
 1296W        W71896  25.634  37.436  13.302
 1297W        W71897   0.961  27.757  12.130
 1298W        W71898   5.479  43.490   1.269
 1299W        W71899  42.311   5.046   3.602
 1300W        W71900   4.206  39.992  11.077
 1301W        W71901   9.313   7.173   2.303
 1302W        W71902  44.814  35.419  12.284
 1303W        W71903  30.902   6.617  11.034
 1304W        W71904  18.147   7.565   0.951
 1305W        W71905  20.054  28.423   0.194
 1306W        W71906   0.272   5.113  12.664
 1307W        W71907  30.951  25.113   1.266
 1308W        W71908  17.101  35.541  11.661
 1309W        W71909  36.159  30.886   2.845
 1310W        W71910  22.172  40.037  13.389
 1311W        W71911  28.549  39.024   3.871
 1312W        W71912  41.947  26.551  11.603
 1313W        W71913  34.299  43.993   0.902
 1314W        W71914  27.941  41.574   4.545
 1315W        W71915  26.228  35.871  13.781
 1316W        W71916  43.085  16.379  12.610
 1317W        W71917  27.437  16.113   4.378
 1318W        W71918  17.539  44.345   1.923
 1319W        W71919  40.579  11.233   3.866
 1320W        W71920  22.321  44.593   2.762
 1321W        W71921   4.771  19.592  14.896
 1322W        W71922   2.423   0.230  12.935
 1323W        W71923   6.013  32.683  11.157
 1324W        W71924  36.258  42.973   2.252
 1325W        W71925   2.410   6.165  10.941
 1326W        W71926   4.449   0.718   0.353
 1327W        W71927   8.386  42.144   0.351
 1328W        W71928   7.797   7.283   5.078
 1329W        W71929  43.280  22.616  10.752
 1330W        W71930  21.660  12.419  12.915
 1331W        W71931   5.204  23.073   1.155
 1332W        W71932   2.795  13.700   3.591
 1333W        W71933  24.023  11.627   9.926
 1334W        W71934  30.845  16.053   1.706
 1335W        W71935  13.333  17.248   3.020
 1336W        W71936  21.939  37.234   0.358
 1337W        W71937  37.928   9.709  10.969
 1338W        W71938  37.907  23.111  13.052
 1339W        W71939  37.733  42.818   2.708
 1340W        W71940   0.784  18.177  13.337
 1341W        W71941  34.412  32.657  12.955
 1342W        W71942  24.210  21.983   0.067
 1343W        W71943   2.469  44.399   4.738
 1344W        W71944  14.824   3.472  13.921
 1345W        W71945  12.060   4.905   0.805
 1346W        W71946   7.295  41.490  10.645
 1347W        W71947   3.358   8.427  13.759
 1348W        W71948  32.847  20.628   4.199
 1349W        W71949  32.953  10.811  13.324
 1350W        W71950  42.628  20.191   4.830
 1351W        W71951  25.525  12.228  14.836
 1352W        W71952  12.451  12.666   4.152
 1353W        W71953  38.058  16.742  14.937
 1354W        W71954  30.853  29.636  10.808
 1355W        W71955  18.779  29.166   5.049
 1356W        W71956  42.857  30.583   3.300
 1357W        W71957  21.654  23.521   2.406
 1358W        W71958  21.501  38.071  10.672
 1359W        W71959  16.532  15.704   0.440
 1360W        W71960  37.017  10.209  10.652
 1361W        W71961  27.049  35.727   3.819
 1362W        W71962   5.362  38.919   4.454
 1363W        W71963  39.358   9.374   4.918
 1364W        W71964  35.047  37.490  12.485
 1365W        W71965  19.177  17.681  13.498
 1366W        W71966   5.779  19.852   2.392
 1367W        W71967  20.595  25.926  14.917
 1368W        W71968  36.775  44.859  12.138
 1369W        W71969   4.572   1.194   4.572
 1370W        W71970  42.688  18.118   0.917
 1371W        W71971  25.731  32.700  14.374
 1372W        W71972   0.386  30.240  11.550
 1373W        W71973   6.702   7.851  11.033
 1374W        W71974  35.893   8.109  13.699
 1375W        W71975  25.557  12.728   2.747
 1376W        W71976  17.611   3.692  14.811
 1377W        W71977  25.570   2.319   4.622
 1378W        W71978   4.965  38.547  12.085
 1379W        W71979  13.094  23.220  13.087
 1380W        W71980   1.523  14.947  12.099
 1381W        W71981  22.953  27.984  12.795
 1382W        W71982  26.044  15.945  11.910
 1383W        W71983  39.770  27.072   2.300
 1384W        W71984   8.754  19.642  14.544
 1385W        W71985  12.411  14.411   0.933
 1386W        W71986  22.879  33.420   4.043
 1387W        W71987  29.072  19.699  12.462
 1388W        W71988   1.005  23.120  10.452
 1389W        W71989   4.227  43.246  14.555
 1390W        W71990   7.323  28.400  11.903
 1391W        W71991  38.109  17.147   1.286
 1392W        W71992  27.430  40.748   2.715
 1393W        W71993  41.073  31.874   2.221
 1394W        W71994  37.791  37.893  14.602
 1395W        W71995  40.018   0.692   0.345
 1396W        W71996   6.098  35.960   2.892
 1397W        W71997  31.977  16.019   1.367
 1398W        W71998  21.780  33.595   0.483
 1399W        W71999  12.927  32.403  12.426
 1400W        W72000  40.101  33.715   4.078
 1401W        W72001  28.960   0.056  11.089
 1402W        W72002  43.738  23.775   4.602
 1403W        W72003  30.981  41.268  11.353
 1404W        W72004   8.002  17.176  10.655
 1405W        W72005   3.763  18.133   4.654
 1406W        W72006  20.047   1.564  12.418
 1407W        W72007   0.899   7.270  12.624
 1408W        W72008   2.775  15.288   4.200
 1409W        W72009  12.312  31.909  13.016
 1410W        W72010  30.213  35.018  13.835
 1411W        W72011   6.711  42.265  13.258
 1412W        W72012  19.580  24.007   0.797
 1413W        W72013  24.603  35.004  11.588
 1414W        W72014  44.069  16.379   1.079
 1415W        W72015  16.408  34.451   2.554
 1416W        W72016  37.213  16.584  12.948
 1417W        W72017  27.918   7.478  10.704
 1418W        W72018  38.390  24.834   1.953
 1419W        W72019  11.706   3.987  10.849
 1420W        W72020  31.991  37.437  13.995
 1421W        W72021  43.032  43.279   2.360
 1422W        W72022  42.381   6.520   2.438
 1423W        W72023  21.145  33.273  11.195
 1424W        W72024  29.589   3.358   4.609
 1425W        W72025  30.185  17.668   2.642
 1426W        W72026  32.057   0.277  10.684
 1427W        W72027  25.136   1.288   3.280
 1428W        W72028  33.167  35.986   2.607
 1429W        W72029   1.982  16.639   1.266
 1430W        W72030  12.338   8.413  11.571
 1431W        W72031  11.016  31.611   4.094
 1432W        W72032  40.513  29.701   2.658
 1433W        W72033  10.234   0.527   9.917
 1434W        W72034  14.896   8.847   0.357
 1435W        W72035  18.240  41.960   4.677
 1436W        W72036  24.720  15.568  12.059
 1437W        W72037  42.483  16.115  11.657
 1438W        W72038  17.087  13.770  13.403
 1439W        W72039  15.682  39.920  13.581
 1440W        W72040  35.609  31.561   0.956
 1441W        W72041  12.804  22.483   0.697
 1442W        W72042  13.348  21.468   4.172
 1443W        W72043  42.020  11.357  12.507
 1444W        W72044  21.599  16.116  13.349
 1445W        W72045  25.722  17.358   3.826
 1446W        W72046   9.720  29.144   0.776
 1447W        W72047  16.172   1.447  14.956
 1448W        W72048  26.806   0.275   0.967
 1449W        W72049  26.990   5.612  12.145
 1450W        W72050  11.119  24.345   1.709
 1451W        W72051  43.079  12.628  12.015
 1452W        W72052  15.876   5.511   2.238
 1453W        W72053  26.825   5.392   4.295
 1454W        W72054  12.365  38.503  11.294
 1455W        W72055   2.759   9.235   0.767
 1456W        W72056  30.476   1.392  13.268
 1457W        W72057  33.679   4.720  14.687
 1458W        W72058  31.403  26.050   4.384
 1459W        W72059  15.082  17.612   0.876
 1460W        W72060   9.773  28.899   0.293
 1461W        W72061  16.706  13.730  12.953
 1462W        W72062   1.037  42.741  12.551
 1463W        W72063  12.801   9.366  12.690
 1464W        W72064   9.056   4.373   2.800
 1465W        W72065   0.225   4.026   0.338
 1466W        W72066  32.923   5.898  11.966
 1467W        W72067   1.842  32.889  10.570
 1468W        W72068  33.131   9.117  14.958
 1469W        W72069  19.960  33.007   0.394
 1470W        W72070  43.964   0.720  11.945
 1471W        W72071   0.241  15.984  14.669
 1472W        W72072  25.938  41.477  14.815
 1473W        W72073  32.763  33.857  13.374
 1474W        W72074  19.159  31.225   1.315
 1475W        W72075  14.782   3.945  13.363
 1476W        W72076  30.347  29.619  10.977
 1477W        W72077  16.400   8.670   3.539
 1478W        W72078  24.586  31.788  12.090
 1479W        W72079  37.836  32.210  13.043
 1480W        W72080   0.475  33.295   4.982
 1481W        W72081  21.080  15.223   2.958
 1482W        W72082  22.485  25.804   1.745
 1483W        W72083   1.455  12.578  13.743
 1484W        W72084  41.890  12.591   2.287
 1485W        W72085  16.625   0.676   0.065
 1486W        W72086  15.405   2.465  14.003
 1487W        W72087  18.835  19.162  13.651
 1488W        W72088   8.802  13.774   2.460
 1489W        W72089  35.101  20.857   3.060
 1490W        W72090  40.880   9.585   3.636
 1491W        W72091  15.993  15.322   1.199
 1492W        W72092   6.330  18.779  11.629
 1493W        W72093  13.871  36.872  10.304
 1494W        W72094  38.350  38.911   4.667
 1495W        W72095  29.869  43.943  13.531
 1496W        W72096  27.501   2.252  13.597
 1497W        W72097  14.703  18.825  13.531
 1498W        W72098  11.674  21.326  14.002
 1499W        W72099  34.498  26.139  11.464
 1500W        W72100  39.854   3.651   3.906
 1501W        W72101  11.741   1.214   1.271
 1502W        W72102  17.291  29.217  10.714
 1503W        W72103  39.378  18.149  13.803
 1504W        W72104  34.986  41.812   2.857
 1505W        W72105   1.299  23.978  11.562
 1506W        W72106  14.603  11.308   3.739
 1507W        W72107  30.287  35.353   3.244
 1508W        W72108  27.533  22.646  12.656
 1509W        W72109  14.747  41.109  13.622
 1510W        W72110  44.123  19.986  11.187
 1511W        W72111  10.019  27.846   9.937
 1512W        W72112   9.206  39.149   4.698
 1513W        W72113  28.667  15.033  12.371
 1514W        W72114  38.412  35.856  10.675
 1515W        W72115  10.389  40.057   3.186
 1516W        W72116  21.655  19.672  10.922
 1517W        W72117  36.944  23.226   1.859
 1518W        W72118  27.505  21.163   0.008
 1519W        W72119  34.420  42.129   0.787
 1520W        W72120  38.114  33.868   3.731
 1521W        W72121  25.235  15.160  10.192
 1522W        W72122  13.307  18.006  14.143
 1523W        W72123  22.215  29.981   4.018
 1524W        W72124  24.774  15.128   4.749
 1525W        W72125   7.175   0.279  12.900
 1526W        W72126  38.316  21.035  11.177
 1527W        W72127  35.563  39.771  14.347
 1528W        W72128   5.985  37.453   1.893
 1529W        W72129  42.423  21.814  10.752
 1530W        W72130   6.649  15.694  14.267
 1531W        W72131  24.118  35.221   4.730
 1532W        W72132  23.701  29.096   2.107
 1533W        W72133  16.343  43.413  12.627
 1534W        W72134   8.855  20.333  13.922
 1535W        W72135   7.028  39.877   2.744
 1536W        W72136  34.533  22.266   1.235
 1537W        W72137  15.228  21.103   1.877
 1538W        W72138  25.606  14.080  12.841
 1539W        W72139  11.397  18.628   0.362
 1540W        W72140  30.471  18.069  14.154
 1541W        W72141   6.383  44.999   1.194
 1542W        W72142  14.797  23.222   4.472
 1543W        W72143  12.286  26.806   3.221
 1544W        W72144  14.588  18.796   3.224
 1545W        W72145  11.950  25.517   1.973
 1546W        W72146  20.938   7.818  12.026
 1547W        W72147   6.717   5.978  10.017
 1548W        W72148  26.042  36.071   2.385
 1549W        W72149   2.526  18.297   3.229
 1550W        W72150  15.784  10.619  13.296
 1551W        W72151  25.908   4.591   4.608
 1552W        W72152  41.568  37.945   3.281
 1553W        W72153  19.018  42.609   4.504
 1554W        W72154  31.370  31.372   2.200
 1555W        W72155  10.286   2.846  10.577
 1556W        W72156  33.854  12.670   0.396
 1557W        W72157  29.159  21.719   3.268
 1558W        W72158  35.566  15.523   0.891
 1559W        W72159  27.592   6.304  11.973
 1560W        W72160  34.820  31.137  12.952
 1561W        W72161  30.150  42.776   1.199
 1562W        W72162  33.577  20.751  12.437
 1563W        W72163   7.743  19.469   2.826
 1564W        W72164  17.904   2.397   2.644
 1565W        W72165  14.369  24.728   1.397
 1566W        W72166  24.169   6.667  14.012
 1567W        W72167   8.746  28.585  12.499
 1568W        W72168  19.668  10.378   0.322
 1569W        W72169   5.450  14.764   2.411
 1570W        W72170  17.277  13.575   3.953
 1571W        W72171   3.288  31.655   2.733
 1572W        W72172  38.032  24.021   1.695
 1573W        W72173   3.414  14.216   4.304
 1574W        W72174   1.995  30.589  14.191
 1575W        W72175   0.165   0.923   4.864
 1576W        W72176  15.272  29.179  14.818
 1577W        W72177  41.890  16.204  11.981
 1578W        W72178  26.642   9.219   5.225
 1579W        W72179  27.980  35.947   3.246
 1580W        W72180   9.735   8.730   0.393
 1581W        W72181   2.799  19.810   4.518
 1582W        W72182   8.450  10.336   2.017
 1583W        W72183   5.448   6.491  13.787
 1584W        W72184  42.437  16.561   2.437
 1585W        W72185  19.427  41.756   2.772
 1586W        W72186  26.562  29.899  13.808
 1587W        W72187   9.624  27.583  13.790
 1588W        W72188  42.266  31.412  11.141
 1589W        W72189  13.122  31.578  10.353
 1590W        W72190   8.123  44.388  11.048
 1591W        W72191  25.467  18.188  14.327
 1592W        W72192   8.712  36.996  14.964
 1593W        W72193  13.583  27.536   0.029
 1594W        W72194  36.692  28.546   3.269
 1595W        W72195  10.595  30.843   2.834
 1596W        W72196  42.851  34.905   0.130
 1597W        W72197  40.370  37.923   4.306
 1598W        W72198  28.022  30.927   4.652
 1599W        W72199  28.816  20.836  12.606
 1600W        W72200   0.061   0.854   3.652
 1601W        W72201  33.950  14.634   1.223
 1602W        W72202  23.604  12.975   2.561
 1603W        W72203  33.039   2.231   0.979
 1604W        W72204  39.957  19.137   1.698
 1605W        W72205  29.205  22.467  11.888
 1606W        W72206  13.650  10.232  12.423
 1607W        W72207  21.436   7.234   3.619
 1608W        W72208   9.455  14.096   0.393
 1609W        W72209  13.079  31.648   2.344
 1610W        W72210   2.953  11.903  11.174
 1611W        W72211  18.669  43.469   1.758
 1612W        W72212   5.015  13.573   3.311
 1613W        W72213  38.895   9.341   4.211
 1614W        W72214  42.892  37.844   0.792
 1615W        W72215  29.877   8.338  10.719
 1616W        W72216   7.795  30.303  12.377
 1617W        W72217   8.876   1.791  12.870
 1618W        W72218  14.697  37.250   3.576
 1619W        W72219  24.627  19.796  12.008
 1620W        W72220  11.342  44.948   0.387
 1621W        W72221  35.502  25.064   3.891
 1622W        W72222   5.264   9.631   1.169
 1623W        W72223  29.635  42.808   0.091
 1624W        W72224  16.663   9.351   3.625
 1625W        W72225  43.730  43.579  13.256
 1626W        W72226  29.331  24.174   4.996
 1627W        W72227   3.123   3.133   1.986
 1628W        W72228  22.558  20.126  12.694
 1629W        W72229  32.084  10.865   0.842
 1630W        W72230   2.195  10.719   0.413
 1631W        W72231   5.328  30.269   1.081
 1632W        W72232  17.396  10.049   0.792
 1633W        W72233   2.176  28.939  11.938
 1634W        W72234  34.246   4.700  13.073
 1635W        W72235   6.121  12.672   1.357
 1636W        W72236  44.858  13.336  12.493
 1637W        W72237  38.919   0.399  11.145
 1638W        W72238  23.551   3.678  12.112
 1639W        W72239  23.266  39.226  14.591
 1640W        W72240  27.475  41.321  14.772
 1641W        W72241   9.714  12.215   1.925
 1642W        W72242  38.578   9.647  14.228
 1643W        W72243  26.675  10.894   1.132
 1644W        W72244  32.429   5.943  12.956
 1645W        W72245  17.873  14.259  11.776
 1646W        W72246  27.425  27.591   3.257
 1647W        W72247  28.509  11.714   3.120
 1648W        W72248   3.587  35.381   0.228
 1649W        W72249  32.896   0.550  11.590
 1650W        W72250   2.825  38.716   0.367
 1651W        W72251  26.680  25.901   0.845
 1652W        W72252  43.210   5.014  12.017
 1653W        W72253  37.428   3.252  13.411
 1654W        W72254  27.201  16.264  12.816
 1655W        W72255  42.392   8.976   2.669
 1656W        W72256  33.370  12.604   3.805
 1657W        W72257  33.722  11.079   2.214
 1658W        W72258  42.395  34.195   4.604
 1659W        W72259   3.079  35.132  11.516
 1660W        W72260   7.273  13.016   1.942
 1661W        W72261  16.715  15.784  13.985
 1662W        W72262  15.314  31.201   3.218
 1663W        W72263  29.728  42.722   1.520
 1664W        W72264  39.754  43.704   0.657
 1665W        W72265   4.498   8.830  12.447
 1666W        W72266  23.201  22.584   1.942
 1667W        W72267  32.004  30.938   0.045
 1668W        W72268  22.678  43.530   4.941
 1669W        W72269  10.425  42.020   3.625
 1670W        W72270  32.484   4.237  14.064
 1671W        W72271  30.369  10.654  10.948
 1672W        W72272   6.882  44.671  14.421
 1673W        W72273   0.566   9.224  13.844
 1674W        W72274  19.575  20.786  10.734
 1675W        W72275  36.908  16.213  12.752
 1676W        W72276   2.841  33.502  11.962
 1677W        W72277  23.316  39.995   4.474
 1678W        W72278  28.013  38.573  11.984
 1679W        W72279  14.329   5.216   2.693
 1680W        W72280  24.960  31.129  13.408
 1681W        W72281  22.534   1.754  14.358
 1682W        W72282  36.964  32.870   4.716
 1683W        W72283  16.856   8.506   0.725
 1684W        W72284  28.379   9.637  11.141
 1685W        W72285  14.055  39.362  11.660
 1686W        W72286   1.168   1.731  14.088
 1687W        W72287  31.859  11.108  12.582
 1688W        W72288  40.384  22.581   0.167
 1689W        W72289  11.126   0.883   2.282
 1690W        W72290   4.833  24.227   4.185
 1691W        W72291  14.066  38.964  11.958
 1692W        W72292  20.669  29.694   2.798
 1693W        W72293  23.665   1.884   2.285
 1694W        W72294  41.918   7.412   1.749
 1695W        W72295  34.949  44.992   3.801
 1696W        W72296  26.445  44.801   0.509
 1697W        W72297  13.378   2.172  12.505
 1698W        W72298  33.631  33.239   4.362
 1699W        W72299  18.837   6.912   0.426
 1700W        W72300  32.351  32.570   0.365
 1701W        W72301   3.853  22.891  10.559
 1702W        W72302  27.814  40.321  10.266
 1703W        W72303  27.199  22.923   1.345
 1704W        W72304   9.224  21.590  12.499
 1705W        W72305  41.569  26.224  11.426
 1706W        W72306  12.264  40.443  12.033
 1707W        W72307   7.519  24.246  12.414
 1708W        W72308   9.995   6.645  12.486
 1709W        W72309   8.644  23.234  13.263
 1710W        W72310   8.131  14.897   3.523
 1711W        W72311  42.742  14.723  11.403
 1712W        W72312  32.499  15.933   2.639
 1713W        W72313  41.361   6.462   4.005
 1714W        W72314  40.964   1.794   3.539
 1715W        W72315  24.313  36.075   0.928
 1716W        W72316  29.441  19.669  10.788
 1717W        W72317   4.381  12.644  14.906
 1718W        W72318  27.115  13.885  11.181
 1719W        W72319  32.149  15.753   2.288
 1720W        W72320  12.144   6.118  13.972
 1721W        W72321  32.480  14.576  11.908
 1722W        W72322   3.884  23.310   3.891
 1723W        W72323  42.794  12.715  11.605
 1724W        W72324  28.918   2.253  14.299
 1725W        W72325  20.067   2.855  13.900
 1726W        W72326  39.859   4.362  13.960
 1727W        W72327  15.689  43.581   2.167
 1728W        W72328  29.030  32.396  13.250
 1729W        W72329   4.859  40.874  13.079
 1730W        W72330  11.874  39.068   2.920
 1731W        W72331  19.539  38.439   1.036
 1732W        W72332  26.090  40.836  11.032
 1733W        W72333   2.327   0.407  12.246
 1734W        W72334   1.479  30.524   3.383
 1735W        W72335  19.298  36.448  11.607
 1736W        W72336  29.993  35.269  14.940
 1737W        W72337  29.450  12.750   4.659
 1738W        W72338  10.437  43.494  14.974
 1739W        W72339  25.629  12.511   0.390
 1740W        W72340  12.918  29.928  11.077
 1741W        W72341  11.334   6.627   0.016
 1742W        W72342  43.683  11.684   4.791
 1743W        W72343   9.222  44.371  14.928
 1744W        W72344  42.563  29.246  14.449
 1745W        W72345  20.717   6.102   3.767
 1746W        W72346  21.564  28.053  12.952
 1747W        W72347  34.125  26.177   0.172
 1748W        W72348  32.010  23.731   1.879
 1749W        W72349  34.131  23.528  12.580
 1750W        W72350   6.294  40.958  13.570
 1751W        W72351  18.231  32.953  10.852
 1752W        W72352   6.407  36.732  14.404
 1753W        W72353  36.347  20.182  14.929
 1754W        W72354  14.635   5.684  14.423
 1755W        W72355  29.645  18.311   2.261
 1756W        W72356   8.613   1.783   1.785
 1757W        W72357  42.012  16.865   1.473
 1758W        W72358   9.185  28.038  11.367
 1759W        W72359  41.748  16.788  10.793
 1760W        W72360   0.380  28.951  13.301
 1761W        W72361  13.016  23.129   2.190
 1762W        W72362  18.546   8.293   1.668
 1763W        W72363  26.737   1.477  12.981
 1764W        W72364   6.773  13.885   2.837
 1765W        W72365  24.781  15.612  13.912
 1766W        W72366   1.552  20.214   0.846
 1767W        W72367  34.056  13.912   3.573
 1768W        W72368  44.500   3.730   2.265
 1769W        W72369  34.042   4.705   0.398
 1770W        W72370   3.397  44.048  13.370
 1771W        W72371  19.102  17.592   2.761
 1772W        W72372  14.091  44.565   2.847
 1773W        W72373  33.314  44.478  12.960
 1774W        W72374  16.565   5.159   1.574
 1775W        W72375  17.024  11.857   4.604
 1776W        W72376   4.426  16.241  11.799
 1777W        W72377  11.806  40.447  10.501
 1778W        W72378  37.148  41.401  10.779
 1779W        W72379  29.574  29.689   0.042
 1780W        W72380  33.371  30.340   4.526
 1781W        W72381  33.785  26.758   2.250
 1782W        W72382  11.414  30.911   1.361
 1783W        W72383   8.557   6.297  14.934
 1784W        W72384  12.187  20.619   2.114
 1785W        W72385  41.298   0.884  14.095
 1786W        W72386  14.792  20.052   1.288
 1787W        W72387  21.128  44.459  13.262
 1788W        W72388   2.887  38.868  14.511
 1789W        W72389  44.404  41.742  10.582
 1790W        W72390  18.870  42.559   1.007
 1791W        W72391  31.632   4.383  14.735
 1792W        W72392  20.294  16.755   4.384
 1793W        W72393  33.522  40.831  10.962
 1794W        W72394  25.705  43.833   2.538
 1795W        W72395  29.503  29.951   4.571
 1796W        W72396  14.674  20.548  14.342
 1797W        W72397   4.267  22.967  13.843
 1798W        W72398  39.581  30.820  11.728
 1799W        W72399  14.150  14.963  12.033
 1800W        W72400  34.141  15.697   1.394
 1801W        W72401  14.203  42.021   1.569
 1802W        W72402  24.228   3.965   3.343
 1803W        W72403  22.148  32.384  14.348
 1804W        W72404   2.189  21.266   2.877
 1805W        W72405  20.301  34.913  12.391
 1806W        W72406  10.909  18.841  11.153
 1807W        W72407  23.551  12.058  11.920
 1808W        W72408  33.012  23.636   1.657
 1809W        W72409   7.638  13.584  12.535
 1810W        W72410  34.502  32.320   4.439
 1811W        W72411  29.619  27.420  13.133
 1812W        W72412  41.701   0.265  14.987
 1813W        W72413  30.092  25.557   1.268
 1814W        W72414  19.567  32.492  11.480
 1815W        W72415   7.284   3.995  13.390
 1816W        W72416  24.657  18.216  11.118
 1817W        W72417  37.137   9.401  10.747
 1818W        W72418  28.419   4.483  14.006
 1819W        W72419   9.797  12.334   2.985
 1820W        W72420  13.271  39.862   4.882
 1821W        W72421  16.363  35.989   4.254
 1822W        W72422  20.724  44.584   2.857
 1823W        W72423  33.955  11.390  10.819
 1824W        W72424  30.437   9.256  11.604
 1825W        W72425   9.129  15.542  12.449
 1826W        W72426   0.375  20.155   1.184
 1827W        W72427   4.306  25.876  12.243
 1828W        W72428  14.725  24.825  13.398
 1829W        W72429   8.228  20.947   0.526
 1830W        W72430  17.725  31.577  14.409
 1831W        W72431   2.430  16.655  14.900
 1832W        W72432   7.845  18.190   4.932
 1833W        W72433  41.303  31.734  13.090
 1834W        W72434   2.550  12.427   3.674
 1835W        W72435  34.184   5.395   0.946
 1836W        W72436   7.422  34.071  13.037
 1837W        W72437  36.123   7.267  14.541
 1838W        W72438  19.924  35.020  14.500
 1839W        W72439  24.519  34.014   4.709
 1840W        W72440  34.194  10.834   2.412
 1841W        W72441  36.246   3.325  10.648
 1842W        W72442   4.002  41.256   2.210
 1843W        W72443  20.114  19.601   3.847
 1844W        W72444  10.830   0.052  11.421
 1845W        W72445  40.583   8.880   3.240
 1846W        W72446  30.914  21.352   0.505
 1847W        W72447  38.911  10.335  14.084
 1848W        W72448   2.029  35.525   1.431
 1849W        W72449  31.413   4.709  12.565
 1850W        W72450  26.012  35.435   0.450
 1851W        W72451  14.691  10.600  10.427
 1852W        W72452  31.139  42.286  11.598
 1853W        W72453  40.824  22.243  11.618
 1854W        W72454  41.236  33.909  10.722
 1855W        W72455  25.277  26.958  14.443
 1856W        W72456  28.991   1.238  12.363
 1857W        W72457  21.585  28.009   4.585
 1858W        W72458  29.477  20.119  10.515
 1859W        W72459  22.667   3.499   2.817
 1860W        W72460  24.630   6.573   3.721
 1861W        W72461  43.422  16.157  11.535
 1862W        W72462  24.288   5.747   3.338
 1863W        W72463  26.475  44.015  10.417
 1864W        W72464   3.493  41.877   1.670
 1865W        W72465  24.178  41.550   1.851
 1866W        W72466  18.784  24.725   4.484
 1867W        W72467  32.960   7.948   2.642
 1868W        W72468   2.360  18.529   1.450
 1869W        W72469  13.629   5.688   3.749
 1870W        W72470  29.051  35.118  13.287
 1871W        W72471  44.741  14.091  12.158
 1872W        W72472  16.700  13.592  12.395
 1873W        W72473  11.913  20.755  12.410
 1874W        W72474  12.095  16.597  14.926
 1875W        W72475  32.134  35.007   4.007
 1876W        W72476   8.424  39.078  13.037
 1877W        W72477  42.909   4.647  13.081
 1878W        W72478  35.810   2.488  11.559
 1879W        W72479  10.669  11.053  12.935
 1880W        W72480   3.446   2.214  12.905
 1881W        W72481  39.143  41.767   5.010
 1882W        W72482  31.892   9.664   4.141
 1883W        W72483  39.463  16.435  13.963
 1884W        W72484  27.345  16.335  14.020
 1885W        W72485  31.149  27.921  12.020
 1886W        W72486  37.396   7.927   3.742
 1887W        W72487  12.626   7.427  13.758
 1888W        W72488  43.956  37.949  14.427
 1889W        W72489  25.713  25.538  12.981
 1890W        W72490   8.394  19.846  10.617
 1891W        W72491  11.310  24.385  13.377
 1892W        W72492   3.492  19.498   0.897
 1893W        W72493  28.713  11.324  10.547
 1894W        W72494  19.117  25.731  14.919
 1895W        W72495  29.423  21.837  11.076
 1896W        W72496  30.062  25.359  13.872
 1897W        W72497  19.562  42.952   4.157
 1898W        W72498  17.432   1.336   4.461
 1899W        W72499   0.979  32.610  11.569
 1900W        W72500   5.261  28.497  10.681
 1901W        W72501  42.923  14.831   2.734
 1902W        W72502   7.003  19.614   4.847
 1903W        W72503  12.415   5.128  11.051
 1904W        W72504  19.699  28.446  13.332
 1905W        W72505  33.119  30.842  11.545
 1906W        W72506  28.885   6.317   1.410
 1907W        W72507  22.219  38.047   4.186
 1908W        W72508  33.008  36.025   2.133
 1909W        W72509  12.601   7.933  13.754
 1910W        W72510  18.798  21.088  13.342
 1911W        W72511  16.507  37.752  12.460
 1912W        W72512   3.886  15.680  10.770
 1913W        W72513  26.659  29.624   1.322
 1914W        W72514  22.179  16.088   2.841
 1915W        W72515  30.942   2.652   4.261
 1916W        W72516  24.493  13.079   0.364
 1917W        W72517   5.644  27.516  13.039
 1918W        W72518  39.232  36.358  10.817
 1919W        W72519  18.812  11.773  14.933
 1920W        W72520  13.189  15.622   3.656
 1921W        W72521   9.769  30.165   0.962
 1922W        W72522   3.501  43.354  10.808
 1923W        W72523  37.832  38.447   3.652
 1924W        W72524  30.540  28.617  13.944
 1925W        W72525   4.353  14.155   2.727
 1926W        W72526  43.323   1.915  11.083
 1927W        W72527  40.389  43.274   3.256
 1928W        W72528  12.574  16.210   1.286
 1929W        W72529  43.422  38.814   3.170
 1930W        W72530  36.039  19.937  12.036
 1931W        W72531  41.907  43.550   1.724
 1932W        W72532  32.942   3.408   4.101
 1933W        W72533  29.221   9.291   4.360
 1934W        W72534  27.756  28.071  14.542
 1935W        W72535  10.439  11.728   0.042
 1936W        W72536  44.678  11.265  13.871
 1937W        W72537  35.973  38.787   3.823
 1938W        W72538   3.427  11.931   0.225
 1939W        W72539  42.370  15.546  14.487
 1940W        W72540  41.818   6.911  13.324
 1941W        W72541  18.762  14.385  12.257
 1942W        W72542  28.882  21.610  10.355
 1943W        W72543   3.386  14.149   1.778
 1944W        W72544   3.804   8.480  13.428
 1945W        W72545  20.247  26.735   1.766
 1946W        W72546  17.730  34.733   0.999
 1947W        W72547  30.441  26.220   4.089
 1948W        W72548   5.815  13.631  10.661
 1949W        W72549  32.034  14.616   4.674
 1950W        W72550   8.946  10.231   2.244
 1951W        W72551  16.749   4.292  11.557
 1952W        W72552  26.552  13.688  12.918
 1953W        W72553   0.049  29.657  12.612
 1954W        W72554  15.583  24.693   1.803
 1955W        W72555  30.638  31.547   1.539
 1956W        W72556   5.691  30.467   1.727
 1957W        W72557   7.943  23.568  11.110
 1958W        W72558  36.262  10.266   3.247
 1959W        W72559   6.829  33.189  12.177
 1960W        W72560  29.218  30.212  12.416
 1961W        W72561  25.888  34.841   1.958
 1962W        W72562  41.101  30.859   2.270
 1963W        W72563  43.970  43.188  11.113
 1964W        W72564   1.702  34.593   1.397
 1965W        W72565   6.776  34.950   1.975
 1966W        W72566  27.452  11.209   3.711
 1967W        W72567  26.997   7.352   0.791
 1968W        W72568  10.688  27.529   1.807
 1969W        W72569  35.845  20.433   1.249
 1970W        W72570  34.086  44.361  10.675
 1971W        W72571   7.534  12.715  10.062
 1972W        W72572   3.188   2.646  13.017
 1973W        W72573   7.639  21.786   4.193
 1974W        W72574  27.255  11.309  13.924
 1975W        W72575   3.360  36.624  12.888
 1976W        W72576   3.400  26.649   3.584
 1977W        W72577  11.521  36.931   4.443
 1978W        W72578  22.201  29.125   4.590
 1979W        W72579  16.346  25.711  11.955
 1980W        W72580  42.927  26.497   5.029
 1981W        W72581  20.974  13.150   4.917
 1982W        W72582  13.469  24.503  11.887
 1983W        W72583  17.221  39.312   4.696
 1984W        W72584  31.087  40.815   0.218
 1985W        W72585  44.462   8.349   2.250
 1986W        W72586   0.439  26.482   3.203
 1987W        W72587   8.647   3.812   2.437
 1988W        W72588  33.594  44.421  14.040
 1989W        W72589  34.868  17.152  12.119
 1990W        W72590  23.428  39.782  13.418
 1991W        W72591  17.291   6.832   3.209
 1992W        W72592   0.521   6.595   2.236
 1993W        W72593  21.150  12.545   0.926
 1994W        W72594  31.408  43.311   0.200
 1995W        W72595  35.307  43.013  14.865
 1996W        W72596   1.269  28.186  11.186
 1997W        W72597  13.818  22.174   1.122
 1998W        W72598  39.554  17.021   1.510
 1999W        W72599   7.013  17.619  13.871
 2000W        W72600  22.221  22.016  12.840
 2001W        W72601   4.669  39.830   2.464
 2002W        W72602   1.314  36.426   2.844
 2003W        W72603  10.824  11.942  10.545
 2004W        W72604   0.515  13.588  14.363
 2005W        W72605   6.955   1.028   1.150
 2006W        W72606  23.479  33.237  14.333
 2007W        W72607  29.996  31.047   3.585
 2008W        W72608  37.830  14.811   2.415
 2009W        W72609  30.878  33.609   3.391
 2010W        W72610   1.843  26.176   2.855
 2011W        W72611   3.858  27.486  13.370
 2012W        W72612   7.357  34.416   1.392
 2013W        W72613  31.455  39.806   0.104
 2014W        W72614   0.417  23.463  14.367
 2015W        W72615  11.175  36.313  12.493
 2016W        W72616   4.758  42.474   1.314
 2017W        W72617  17.894  44.147   0.911
 2018W        W72618  29.030   8.747   1.834
 2019W        W72619   8.402  28.473  11.017
 2020W        W72620  13.695  26.222  12.197
 2021W        W72621  13.818  16.623  11.154
 2022W        W72622  19.955  19.835   0.483
 2023W        W72623  12.799  42.509  11.516
 2024W        W72624   6.716   3.876  11.006
 2025W        W72625   5.125   8.223   0.009
 2026W        W72626  29.382   4.637   1.783
 2027W        W72627  35.906   0.886  12.172
 2028W        W72628  43.814  42.387   2.015
 2029W        W72629  28.298  40.266  14.487
 2030W        W72630  12.706  24.976   1.413
 2031W        W72631   8.121   1.010   0.339
 2032W        W72632  27.570   1.017   4.548
 2033W        W72633  11.740  34.381   2.121
 2034W        W72634  30.913  43.038   5.068
 2035W        W72635  40.895  33.064   3.394
 2036W        W72636  12.707  41.434  14.502
 2037W        W72637  11.434  28.787  13.325
 2038W        W72638  17.363   7.074  13.126
 2039W        W72639  37.390  41.941   0.552
 2040W        W72640  32.944   9.345   4.694
 2041W        W72641  32.545  29.614  11.604
 2042W        W72642  10.742  42.617   1.823
 2043W        W72643  19.014  13.133  11.636
 2044W        W72644   3.969  33.485  11.684
 2045W        W72645  36.886  37.993   2.665
 2046W        W72646  11.097  32.345   1.945
 2047W        W72647  23.968  22.585  12.109
 2048W        W72648   6.010  37.335  12.525
 2049W        W72649  37.585   7.372  13.448
 2050W        W72650  33.584   7.157   1.405
 2051W        W72651  23.132   6.736  10.586
 2052W        W72652  27.122   1.753   2.760
 2053W        W72653  35.583   1.114   0.808
 2054W        W72654  15.625  37.056   4.654
 2055W        W72655  29.466  19.395  12.613
 2056W        W72656  29.959   6.416  10.403
 2057W        W72657  23.807  42.764   2.863
 2058W        W72658   8.348  35.097  14.332
 2059W        W72659   1.846  27.450   2.334
 2060W        W72660   8.823   8.976  13.228
 2061W        W72661  23.259  35.899  12.465
 2062W        W72662  14.605  32.326  11.626
 2063W        W72663  17.623  25.239  12.357
 2064W        W72664  12.327   5.638  11.099
 2065W        W72665  44.564   9.088   0.168
 2066W        W72666  39.476  31.866  11.317
 2067W        W72667   9.849   4.976  14.970
 2068W        W72668  12.556  35.780   1.614
 2069W        W72669   2.975   0.037   2.438
 2070W        W72670  23.044  32.871   3.261
 2071W        W72671   8.742  12.345   0.894
 2072W        W72672   5.259  29.645  11.978
 2073W        W72673  27.792  41.937  13.065
 2074W        W72674  19.518  19.272   4.786
 2075W        W72675  25.642   5.868   2.165
 2076W        W72676   1.480  44.985   3.317
 2077W        W72677   9.449  29.974   1.311
 2078W        W72678  40.392  35.771  12.793
 2079W        W72679  15.743  22.555  13.030
 2080W        W72680   3.514  40.589   1.368
 2081W        W72681  15.306  30.484  13.382
 2082W        W72682  26.182  26.724  14.502
 2083W        W72683   7.279  25.675   3.861
 2084W        W72684  17.647  29.047  13.636
 2085W        W72685   1.764   6.815   4.084
 2086W        W72686  25.892  29.663   4.702
 2087W        W72687  26.243  34.724   0.776
 2088W        W72688   7.218  41.327   1.446
 2089W        W72689   4.662  38.964   2.148
 2090W        W72690  23.304  17.407   2.695
 2091W        W72691  26.643   9.815  14.332
 2092W        W72692  18.138  10.309  11.243
 2093W        W72693   7.877  35.942  12.518
 2094W        W72694  37.373  23.017   2.409
 2095W        W72695  35.456  31.470   2.664
 2096W        W72696  15.518  42.825   2.862
 2097W        W72697  10.191  42.093   1.492
 2098W        W72698  30.203  38.723   5.441
 2099W        W72699  28.177  16.197   1.701
 2100W        W72700  30.023  40.151  14.317
 2101W        W72701   1.591  30.370  11.859
 2102W        W72702   3.242   2.809   0.426
 2103W        W72703  42.298  28.087  12.152
 2104W        W72704  26.355  28.121   1.484
 2105W        W72705   2.429   3.887  14.108
 2106W        W72706  18.120  42.007  12.621
 2107W        W72707  42.478   7.233  12.131
 2108W        W72708  22.082  17.405  13.361
 2109W        W72709   3.926   7.349  12.405
 2110W        W72710  30.442   8.381  12.982
 2111W        W72711  41.544   8.926   0.152
 2112W        W72712  15.387   9.428  11.090
 2113W        W72713  19.556  12.638   4.856
 2114W        W72714  27.459  33.342  10.672
 2115W        W72715  31.564  20.979  12.950
 2116W        W72716  24.244  39.379  13.575
 2117W        W72717   2.025  32.832   0.706
 2118W        W72718  26.702  33.034  13.356
 2119W        W72719  25.523  20.632  11.980
 2120W        W72720  11.104   7.206   4.143
 2121W        W72721  21.694  21.123   3.255
 2122W        W72722  22.568  43.962   1.909
 2123W        W72723  11.655  44.597   3.593
 2124W        W72724  30.893   2.464   1.545
 2125W        W72725  16.255  20.324  10.743
 2126W        W72726   2.436  40.540   1.797
 2127W        W72727  15.785  39.619   0.035
 2128W        W72728  21.398  13.732   1.354
 2129W        W72729  43.349  42.709   4.061
 2130W        W72730  22.593  14.697   1.177
 2131W        W72731   8.064   1.561  11.552
 2132W        W72732  26.640   6.337   4.049
 2133W        W72733  16.018  19.546   1.032
 2134W        W72734   3.783  14.509  11.475
 2135W        W72735   7.182  10.209  12.083
 2136W        W72736  43.122  34.430   4.093
 2137W        W72737  27.503   6.670  13.135
 2138W        W72738  37.032  11.383  14.312
 2139W        W72739  35.562  22.651   3.235
 2140W        W72740  14.271   5.143  11.206
 2141W        W72741  33.923  43.547   1.877
 2142W        W72742  25.767  14.473   4.099
 2143W        W72743  12.188   6.980  11.945
 2144W        W72744  30.547  44.401   0.107
 2145W        W72745  29.556  21.606  13.818
 2146W        W72746  34.499   9.711  12.257
 2147W        W72747  20.346  31.292   0.423
 2148W        W72748  19.262   5.734  13.833
 2149W        W72749   1.862  25.712  13.177
 2150W        W72750   1.004   8.229  14.475
 2151W        W72751   3.397  35.292  14.267
 2152W        W72752   1.647  34.496   0.570
 2153W        W72753  13.593  39.339  12.613
 2154W        W72754   3.266   9.833   1.419
 2155W        W72755  13.715  27.704   4.169
 2156W        W72756  22.064   6.689  10.733
 2157W        W72757  25.186  12.638   4.484
 2158W        W72758  27.224  19.281  12.442
 2159W        W72759   9.292   0.189   3.203
 2160W        W72760  12.642  30.134  11.481
 2161W        W72761  10.681   2.785  14.056
 2162W        W72762  42.061  40.603  11.301
 2163W        W72763  23.927  18.814   4.197
 2164W        W72764  20.671  20.151   1.886
 2165W        W72765  25.948  21.563  14.887
 2166W        W72766  37.339  42.751  10.808
 2167W        W72767   3.345  17.293   2.194
 2168W        W72768   5.427   4.694   2.274
 2169W        W72769  42.876   3.889  10.789
 2170W        W72770   4.852  12.237  10.259
 2171W        W72771  30.558  29.377   0.901
 2172W        W72772  27.990  27.705   0.707
 2173W        W72773  18.908   0.734   3.595
 2174W        W72774  10.834  43.948  14.478
 2175W        W72775   2.621  38.890  14.937
 2176W        W72776  13.018  10.360  14.846
 2177W        W72777  36.480   9.195   2.671
 2178W        W72778   2.016  22.080   2.165
 2179W        W72779  27.147  12.254  11.615
 2180W        W72780   7.307  19.626   3.090
 2181W        W72781  41.457  22.184   2.734
 2182W        W72782  27.838  16.246  11.134
 2183W        W72783  10.182  21.066   4.671
 2184W        W72784  27.089  42.864   3.366
 2185W        W72785  13.832   9.445   3.284
 2186W        W72786  23.125  30.585   4.687
 2187W        W72787  10.065  27.862  13.403
 2188W        W72788  20.802  41.728  11.465
 2189W        W72789   4.939  43.615   1.345
 2190W        W72790   5.769  33.495  11.148
 2191W        W72791   6.746  20.317   2.498
 2192W        W72792  14.082  27.501  10.833
 2193W        W72793   3.509  37.659  11.528
 2194W        W72794  25.231   0.393   2.956
 2195W        W72795  11.052  38.564   0.301
 2196W        W72796  14.142  31.694   0.265
 2197W        W72797  44.719  16.572  14.335
 2198W        W72798   2.368  35.351  11.607
 2199W        W72799  14.821  39.315   2.789
 2200W        W72800   1.454   0.449   3.614
 2201W        W72801  14.834   0.319   5.353
 2202W        W72802  38.832  13.649   0.391
 2203W        W72803  34.316  33.510   3.494
 2204W        W72804  14.225  19.088  13.461
 2205W        W72805   0.226  43.526   1.495
 2206W        W72806  40.764  15.187   1.215
 2207W        W72807  23.480  28.007   4.059
 2208W        W72808  40.777  12.170   3.079
 2209W        W72809   6.473  10.422   2.746
 2210W        W72810  20.164  11.285   3.757
 2211W        W72811   4.582  27.938   3.708
 2212W        W72812  32.992  24.704   3.622
 2213W        W72813  33.645  25.581   4.156
 2214W        W72814   6.875  40.783  11.103
 2215W        W72815  40.430  22.928  13.958
 2216W        W72816  17.866   7.587  13.916
 2217W        W72817  10.699  19.636   1.377
 2218W        W72818  44.566   8.442   3.685
 2219W        W72819  41.174  18.222  13.041
 2220W        W72820  31.831  10.118   2.581
 2221W        W72821  19.114  21.134  12.532
 2222W        W72822  32.005  19.840  12.981
 2223W        W72823  24.466  41.672   3.183
 2224W        W72824  43.498  37.301  12.471
 2225W        W72825   3.894  15.787   0.938
 2226W        W72826  23.581   8.327  12.439
 2227W        W72827  33.857   1.252   4.476
 2228W        W72828   8.779  28.474  11.999
 2229W        W72829  13.642  28.275  12.885
 2230W        W72830  36.241   9.542  12.908
 2231W        W72831  16.990   9.219  14.952
 2232W        W72832  33.118  42.901  10.499
 2233W        W72833  31.317  25.123  11.312
 2234W        W72834  26.869  34.764   0.510
 2235W        W72835  36.268  40.548   1.802
 2236W        W72836  44.748  21.069  13.269
 2237W        W72837   4.170   1.238  11.976
 2238W        W72838  38.365  11.213  10.720
 2239W        W72839  20.833  27.491   0.089
 2240W        W72840  12.548  20.496  10.712
 2241W        W72841  42.652  28.177  13.560
 2242W        W72842  27.118   1.598   3.264
 2243W        W72843   2.345  24.938  14.351
 2244W        W72844  32.494   0.821   3.359
 2245W        W72845  17.190  37.418  13.503
 2246W        W72846  36.327  12.247  12.661
 2247W        W72847   9.737  40.397  12.062
 2248W        W72848  18.749  23.855   2.753
 2249W        W72849  33.513  32.543  13.985
 2250W        W72850  19.858  15.306  10.717
 2251W        W72851   3.566  42.117  14.451
 2252W        W72852  22.476  19.035  13.509
 2253W        W72853  23.805   0.834  12.578
 2254W        W72854  37.313   2.356  14.525
 2255W        W72855  12.286  17.915   3.142
 2256W        W72856  10.571   4.943  13.813
 2257W        W72857  13.551  35.392  13.576
 2258W        W72858   3.345  37.706  13.593
 2259W        W72859  11.249  11.725   2.094
 2260W        W72860  41.837  23.025   0.277
 2261W        W72861  20.334  36.814  13.748
 2262W        W72862   9.392  18.964   0.028
 2263W        W72863  10.279  40.334   0.190
 2264W        W72864  40.687  30.376   3.056
 2265W        W72865  32.667  21.965  14.708
 2266W        W72866  15.235  14.546  11.430
 2267W        W72867  21.277  36.352   1.963
 2268W        W72868  42.886  34.006   4.510
 2269W        W72869  19.924  36.312   2.171
 2270W        W72870  27.904  13.329  10.652
 2271W        W72871  11.238  33.101   0.177
 2272W        W72872  42.708  26.709  14.514
 2273W        W72873  39.500  19.194  14.042
 2274W        W72874  11.956   5.299  11.184
 2275W        W72875  38.473  12.313  13.020
 2276W        W72876  18.529  36.435  14.099
 2277W        W72877  22.049  21.675   0.093
 2278W        W72878  13.612  39.321   3.341
 2279W        W72879  20.203   1.868   2.730
 2280W        W72880  35.377  36.388   0.887
 2281W        W72881  21.054  28.932   1.461
 2282W        W72882  19.982  18.528  10.838
 2283W        W72883  35.865  28.305  12.476
 2284W        W72884   6.177  22.985   1.336
 2285W        W72885  23.974  15.027  11.578
 2286W        W72886  30.049  14.404   5.118
 2287W        W72887  25.622  26.530  10.804
 2288W        W72888  23.041  37.210  11.667
 2289W        W72889  17.509  44.753   3.614
 2290W        W72890   0.531  21.717  12.504
 2291W        W72891  13.529   9.688   3.636
 2292W        W72892  34.353   9.179  13.930
 2293W        W72893  33.093  44.867   3.629
 2294W        W72894  42.074  30.498   1.889
 2295W        W72895  23.199  18.137  10.840
 2296W        W72896   5.848  35.278  10.616
 2297W        W72897   3.727  18.472  11.080
 2298W        W72898  41.476  24.099  14.972
 2299W        W72899  19.557   7.114  12.664
 2300W        W72900  23.504  13.711  11.627
 2301W        W72901  33.915  19.817  14.693
 2302W        W72902  23.023  11.912   3.630
 2303W        W72903  21.632  30.505   3.604
 2304W        W72904  28.597  15.221  10.796
 2305W        W72905  38.161  21.584  13.358
 2306W        W72906  44.621  32.340   2.298
 2307W        W72907  19.615  44.702   0.396
 2308W        W72908   4.910  18.799   2.281
 2309W        W72909  32.264  40.844  13.407
 2310W        W72910  18.864   4.065  12.187
 2311W        W72911  35.797  35.449   0.014
 2312W        W72912  24.843   5.065  11.200
 2313W        W72913  19.062   3.536  14.301
 2314W        W72914   1.873  28.830  11.530
 2315W        W72915  30.669   6.205   4.091
 2316W        W72916  41.890   0.042  13.046
 2317W        W72917  20.657  38.290   1.839
 2318W        W72918  28.560  40.366  12.158
 2319W        W72919   9.324  40.823  11.557
 2320W        W72920  42.785  21.093   0.684
 2321W        W72921   6.785  17.099   4.512
 2322W        W72922  13.424  35.460  12.099
 2323W        W72923   0.933  11.015   4.084
 2324W        W72924  37.462   0.781   3.744
 2325W        W72925  43.780   9.460   0.326
 2326W        W72926  12.818  28.624   1.236
 2327W        W72927  16.674   8.076  12.461
 2328W        W72928  24.689  23.135   3.164
 2329W        W72929   3.692  20.293  10.952
 2330W        W72930  16.593  44.372  13.678
 2331W        W72931  20.140  35.105   4.733
 2332W        W72932  26.092  30.996   2.152
 2333W        W72933  12.324  37.168  12.567
 2334W        W72934  44.029  29.468   3.259
 2335W        W72935  26.253   6.886  11.111
 2336W        W72936  29.351   8.964   2.715
 2337W        W72937  23.187  35.717   3.235
 2338W        W72938   9.619  30.162  13.536
 2339W        W72939  29.841  38.901   2.338
 2340W        W72940  22.475  42.958   0.865
 2341W        W72941  32.302  21.617   2.659
 2342W        W72942  16.235  39.924   2.285
 2343W        W72943  11.369  29.539   3.029
 2344W        W72944  29.549  24.944   4.540
 2345W        W72945  42.350  28.571  13.359
 2346W        W72946  18.826  33.182  14.732
 2347W        W72947  14.295   9.943  12.042
 2348W        W72948   7.881  16.650   1.416
 2349W        W72949   0.545   5.460  10.862
 2350W        W72950  14.409  17.711   0.248
 2351W        W72951  30.638  18.548  13.950
 2352W        W72952  20.238   0.474  10.963
 2353W        W72953  20.675   5.678   3.468
 2354W        W72954   8.325  22.920  11.531
 2355W        W72955  23.217   4.654  13.200
 2356W        W72956  33.636  42.023  10.529
 2357W        W72957  40.384   0.242   2.454
 2358W        W72958  26.883  27.739   5.013
 2359W        W72959  17.526  32.582   1.375
 2360W        W72960  35.467  21.756  12.928
 2361W        W72961   8.443  19.402  12.072
 2362W        W72962   8.596  22.555   2.853
 2363W        W72963  10.117  11.597  13.395
 2364W        W72964  21.857  17.848   0.794
 2365W        W72965   2.961  38.824  13.049
 2366W        W72966  43.069  14.066   4.145
 2367W        W72967  31.838  32.465   0.350
 2368W        W72968  44.987  33.556   0.217
 2369W        W72969  40.089  34.398  13.805
 2370W        W72970   3.901   5.186  14.984
 2371W        W72971   1.950  14.669  13.090
 2372W        W72972  20.063   5.381  11.774
 2373W        W72973  19.754   0.451   2.690
 2374W        W72974  16.320  22.709   3.730
 2375W        W72975   8.484  42.043  10.497
 2376W        W72976  41.912  32.104   2.716
 2377W        W72977  41.277  29.974  12.021
 2378W        W72978  27.350   0.896   1.490
 2379W        W72979  19.540  17.627   0.483
 2380W        W72980  24.743  42.275   2.018
 2381W        W72981  22.571  33.092   3.340
 2382W        W72982  42.402   0.134  11.961
 2383W        W72983  34.880  39.470  13.861
 2384W        W72984  27.658   9.872  14.423
 2385W        W72985  33.886   6.221  12.884
 2386W        W72986  41.800  34.875  10.812
 2387W        W72987  31.123  36.206   2.708
 2388W        W72988  17.252   8.596   3.835
 2389W        W72989   9.337  26.261  12.209
 2390W        W72990  44.860  32.907  12.024
 2391W        W72991  13.858   2.820  13.509
 2392W        W72992  34.026  11.442  12.514
 2393W        W72993  23.268  16.952  11.146
 2394W        W72994   1.342  34.156   9.870
 2395W        W72995  34.607   8.962   9.917
 2396W        W72996  38.544   3.367   1.758
 2397W        W72997   3.985   6.994  13.443
 2398W        W72998  38.074  30.746  14.535
 2399W        W72999  18.768  15.582   1.977
 2400W        W73000  24.477  38.586   2.340
 2401W        W73001  31.556  28.474   2.359
 2402W        W73002  30.165   0.372   1.007
 2403W        W73003   1.918   4.769   0.471
 2404W        W73004  41.736   7.270   2.727
 2405W        W73005  34.114   1.061  12.260
 2406W        W73006  28.866  34.321   3.199
 2407W        W73007  20.571  28.141  11.061
 2408W        W73008   9.402  16.537  11.560
 2409W        W73009  10.777   7.493  12.578
 2410W        W73010  24.162  35.571  10.680
 2411W        W73011  21.262  30.362  14.450
 2412W        W73012  12.746  12.400   3.310
 2413W        W73013  28.045  11.548  13.447
 2414W        W73014  37.304   8.761   2.432
 2415W        W73015  30.363   3.970   3.310
 2416W        W73016  39.022  22.965  13.853
 2417W        W73017  27.813  20.797   2.684
 2418W        W73018  21.109  17.387  13.489
 2419W        W73019  17.144  19.162  14.853
 2420W        W73020   1.620  13.900  14.882
 2421W        W73021  20.199   9.340   0.948
 2422W        W73022  10.240   6.390   0.398
 2423W        W73023   9.437  27.504  11.714
 2424W        W73024  31.735   3.781   0.487
 2425W        W73025  10.597  14.590   2.310
 2426W        W73026  43.367   7.920  11.291
 2427W        W73027  32.256  30.452   1.805
 2428W        W73028  34.175   1.887   1.819
 2429W        W73029  44.499   0.851  14.341
 2430W        W73030  29.981  29.808   1.464
 2431W        W73031  13.487  11.728   4.717
 2432W        W73032  34.947  43.951  14.527
 2433W        W73033  27.135   1.530  13.335
 2434W        W73034   2.932  28.986   1.978
 2435W        W73035  42.254  38.962  12.815
 2436W        W73036  22.997  11.561  13.445
 2437W        W73037  15.113  41.031   0.514
 2438W        W73038   0.255  31.091   4.629
 2439W        W73039  27.467  25.624  12.382
 2440W        W73040  16.671  40.772  14.781
 2441W        W73041  16.293  32.890   2.687
 2442W        W73042  13.534  42.142   2.715
 2443W        W73043  35.523  26.903   0.376
 2444W        W73044   8.183  17.046   1.591
 2445W        W73045   3.989  12.155   0.478
 2446W        W73046   1.859  40.741  10.687
 2447W        W73047  16.662  22.526   3.386
 2448W        W73048  32.576  33.574  14.984
 2449W        W73049  17.061  25.187  10.566
 2450W        W73050  11.019  29.001  11.124
 2451W        W73051   2.281  33.367   2.790
 2452W        W73052  37.580  36.316  11.961
 2453W        W73053   4.739   8.568  14.961
 2454W        W73054  38.462  15.846  11.999
 2455W        W73055   4.243  38.133   1.288
 2456W        W73056   7.655   5.845  11.694
 2457W        W73057  42.738  36.580  11.676
 2458W        W73058   6.101   6.341   4.731
 2459W        W73059  31.443  24.809  10.483
 2460W        W73060  25.122  12.719   0.164
 2461W        W73061  44.064  42.365  11.209
 2462W        W73062  19.451  27.592   2.775
 2463W        W73063  24.968   2.391  10.648
 2464W        W73064  44.284  35.818  11.021
 2465W        W73065   0.713  32.938  11.882
 2466W        W73066  39.769  26.005   2.745
 2467W        W73067  40.542   6.316   3.053
 2468W        W73068  36.910  26.200  13.530
 2469W        W73069  17.081  18.110  12.925
 2470W        W73070  26.129   6.285   4.877
 2471W        W73071  17.861   3.488  12.528
 2472W        W73072  10.781   3.165   0.333
 2473W        W73073  15.542  17.134  12.792
 2474W        W73074  11.219  22.780  10.908
 2475W        W73075  12.128  23.435  12.884
 2476W        W73076  21.681  34.926  10.540
 2477W        W73077  39.515  35.394   1.417
 2478W        W73078  17.898  20.556   4.380
 2479W        W73079  19.444  22.485   3.690
 2480W        W73080  41.089  41.557  11.985
 2481W        W73081  23.508  25.471   1.867
 2482W        W73082   8.119  41.522   1.740
 2483W        W73083  16.129  10.086  14.591
 2484W        W73084  26.472  12.859  10.675
 2485W        W73085  31.069  26.954   0.875
 2486W        W73086  12.295  20.603  11.564
 2487W        W73087  20.994   7.257   4.049
 2488W        W73088  15.091  17.303  11.529
 2489W        W73089  23.762   4.842   4.922
 2490W        W73090  16.256  39.035  12.895
 2491W        W73091  33.109  29.760   3.671
 2492W        W73092   4.278  28.393  14.596
 2493W        W73093  31.610  15.257   4.208
 2494W        W73094  21.185  18.673   5.061
 2495W        W73095   1.938  27.430  13.904
 2496W        W73096  20.019  42.030  14.011
 2497W        W73097  35.610   0.274   0.932
 2498W        W73098  35.928  10.059  13.974
 2499W        W73099  37.504  25.531  11.440
 2500W        W73100  25.573  36.980  12.443
 2501W        W73101  28.490   4.630   1.547
 2502W        W73102   2.201  13.422  11.061
 2503W        W73103  25.203  26.167  12.528
 2504W        W73104  38.038   3.093  13.124
 2505W        W73105   3.936   9.323   1.469
 2506W        W73106  38.043  36.954  11.820
 2507W        W73107  42.458  36.942   4.194
 2508W        W73108  26.830  15.556   3.373
 2509W        W73109  39.547  33.198   3.124
 2510W        W73110  24.006  38.166   3.154
 2511W        W73111  37.889  13.566   2.813
 2512W        W73112  22.790  29.932  11.139
 2513W        W73113  19.460  23.322  12.114
 2514W        W73114  20.287  42.756   0.842
 2515W        W73115  27.373   8.137   3.695
 2516W        W73116   3.448  22.016   2.430
 2517W        W73117  44.043  32.635   3.146
 2518W        W73118  30.731  35.591   0.327
 2519W        W73119  17.246  42.304  13.511
 2520W        W73120  28.170  19.583  11.533
 2521W        W73121   9.882  10.176   4.922
 2522W        W73122  24.635  19.064  12.554
 2523W        W73123  23.779  18.741  13.315
 2524W        W73124  42.430  26.355  11.701
 2525W        W73125  30.400  30.892   0.918
 2526W        W73126  12.930  40.355  14.463
 2527W        W73127  30.118  14.610   2.754
 2528W        W73128  31.211  11.749  14.436
 2529W        W73129  10.812  15.765   2.727
 2530W        W73130  33.616  33.646  12.565
 2531W        W73131  28.911  26.968  14.290
 2532W        W73132  28.463  19.606  12.012
 2533W        W73133  32.141  26.133  12.540
 2534W        W73134  24.643  22.353  10.468
 2535W        W73135  30.032  26.127   1.240
 2536W        W73136  19.997   0.426  12.955
 2537W        W73137  27.131   3.863   0.361
 2538W        W73138  31.995  35.901   4.321
 2539W        W73139   2.424  14.116  12.759
 2540W        W73140  29.495   8.423  14.846
 2541W        W73141   5.228   1.543  11.647
 2542W        W73142  34.136  39.556   1.701
 2543W        W73143  14.769  22.020   3.057
 2544W        W73144   2.352  13.392   3.354
 2545W        W73145  36.948   0.296  14.587
 2546W        W73146   0.321   0.477   0.897
 2547W        W73147  22.101  39.871   3.818
 2548W        W73148  36.629  29.667  13.902
 2549W        W73149  16.584  42.071  10.443
 2550W        W73150  42.336  25.467   3.902
 2551W        W73151   3.020  28.225  13.951
 2552W        W73152  13.616  38.989   0.966
 2553W        W73153   9.610  12.688   0.184
 2554W        W73154   3.005  44.999   1.470
 2555W        W73155  29.781  24.171  12.945
 2556W        W73156  40.701  10.498   3.796
 2557W        W73157   0.410  17.201   0.825
 2558W        W73158  13.689  10.711   3.597
 2559W        W73159  31.585  11.418  10.511
 2560W        W73160  22.687  38.852   1.447
 2561W        W73161   2.687  19.035   1.851
 2562W        W73162  40.751  36.891   1.755
 2563W        W73163   4.260   6.549   3.723
 2564W        W73164  11.368  17.918  11.606
 2565W        W73165  26.111  12.728   3.326
 2566W        W73166  27.040  44.834   1.350
 2567W        W73167  34.992   3.665   4.756
 2568W        W73168  13.312  12.775   4.223
 2569W        W73169  18.767  28.104   1.801
 2570W        W73170  14.044   9.296   2.580
 2571W        W73171  43.596  23.516  11.544
 2572W        W73172  26.487  19.907  14.409
 2573W        W73173  25.614  21.544  10.833
 2574W        W73174  41.336   9.737   3.402
 2575W        W73175  38.584  43.293  10.654
 2576W        W73176  15.254  24.919  12.867
 2577W        W73177  12.911   1.434   1.691
 2578W        W73178  23.567   8.614  13.023
 2579W        W73179  16.872   1.328   1.754
 2580W        W73180  18.868   9.158  13.292
 2581W        W73181   9.405  14.781  13.954
 2582W        W73182  22.296  26.067   4.957
 2583W        W73183   8.654  37.609   0.991
 2584W        W73184   7.740   8.170   1.980
 2585W        W73185   1.677   6.848   2.715
 2586W        W73186  21.582  14.122   0.503
 2587W        W73187  16.658  24.006   1.470
 2588W        W73188  12.841   3.467  13.044
 2589W        W73189  11.178  33.630   3.313
 2590W        W73190  39.051  25.161  10.800
 2591W        W73191  25.315   3.889   5.060
 2592W        W73192  31.481  28.208   1.910
 2593W        W73193  21.671   2.643   1.498
 2594W        W73194  20.042  10.369   4.225
 2595W        W73195  17.839   8.742  11.972
 2596W        W73196  44.359  32.474  12.107
 2597W        W73197  27.635  37.214   1.595
 2598W        W73198   0.472  29.889   1.776
 2599W        W73199  36.443  26.457  11.669
 2600W        W73200  11.995  25.222   1.388
 2601W        W73201  30.058  35.908  12.267
 2602W        W73202  41.315  11.219  11.954
 2603W        W73203  19.747   3.869  13.246
 2604W        W73204  17.638   1.195   2.337
 2605W        W73205  33.131  12.874   3.408
 2606W        W73206   3.559  13.562  11.129
 2607W        W73207   4.961  22.374   9.716
 2608W        W73208  32.095  34.381   1.359
 2609W        W73209  27.026  13.720   1.761
 2610W        W73210  44.563   1.507  11.061
 2611W        W73211  43.030  13.143  13.732
 2612W        W73212   5.244   0.510   0.098
 2613W        W73213  39.414  11.811   3.627
 2614W        W73214  40.812   9.142  13.643
 2615W        W73215  11.093  14.975  12.484
 2616W        W73216  36.568   6.192   0.731
 2617W        W73217   6.856  19.443  12.675
 2618W        W73218  23.889  33.462  14.112
 2619W        W73219  33.508  33.121  13.249
 2620W        W73220  15.654   9.069  13.240
 2621W        W73221  20.429  36.501   2.283
 2622W        W73222  41.834  28.473  11.160
 2623W        W73223  31.563  40.344   2.448
 2624W        W73224   4.418   0.986   3.245
 2625W        W73225   2.878  24.381  11.195
 2626W        W73226  16.816   5.903  13.975
 2627W        W73227  15.097  13.066   2.348
 2628W        W73228   6.362   1.943  14.172
 2629W        W73229  43.574  16.910  11.160
 2630W        W73230  25.098  35.146   0.302
 2631W        W73231  30.981  35.634  12.529
 2632W        W73232  41.508  40.427   3.635
 2633W        W73233  26.514  40.084  12.052
 2634W        W73234  23.618  17.767  13.030
 2635W        W73235  28.719   5.061   3.372
 2636W        W73236  13.809  42.382   2.344
 2637W        W73237  43.074  11.752  11.295
 2638W        W73238  32.805  26.841  10.968
 2639W        W73239  14.373  25.405   4.560
 2640W        W73240  16.578  37.496   1.419
 2641W        W73241   9.014   5.238  12.632
 2642W        W73242  12.744  10.598  12.878
 2643W        W73243  10.204  31.395   3.920
 2644W        W73244  33.351   5.848  14.059
 2645W        W73245   0.214  33.334   2.685
 2646W        W73246  40.844  22.508  14.906
 2647W        W73247  35.004  25.607   0.314
 2648W        W73248  35.859  11.763   2.639
 2649W        W73249  40.855  44.299  11.512
 2650W        W73250  35.633  17.886  12.631
 2651W        W73251  25.785  23.709   3.556
 2652W        W73252  43.013  42.242  12.504
 2653W        W73253  35.057  22.122  10.547
 2654W        W73254  19.178  27.667   0.702
 2655W        W73255  22.519   9.457   0.353
 2656W        W73256  14.132  35.622   3.762
 2657W        W73257  38.489   5.640  13.382
 2658W        W73258  42.882  15.039   3.738
 2659W        W73259  28.253  22.969   3.822
 2660W        W73260  22.032  16.546  12.989
 2661W        W73261  16.100  10.108   1.375
 2662W        W73262  39.795  38.881  13.076
 2663W        W73263   6.252  31.170  11.579
 2664W        W73264  29.876  27.064   0.439
 2665W        W73265  42.617  33.620  10.774
 2666W        W73266  28.837  37.388  13.298
 2667W        W73267  10.682  26.100  11.442
 2668W        W73268  17.603  17.495  14.592
 2669W        W73269  25.097  42.016  13.545
 2670W        W73270  13.102  41.313   0.967
 2671W        W73271  38.153  13.365   4.593
 2672W        W73272  35.339  26.437   2.133
 2673W        W73273  16.045  40.791   4.115
 2674W        W73274  38.802   3.329   2.263
 2675W        W73275   7.424  36.862   0.560
 2676W        W73276   1.387  36.912  12.868
 2677W        W73277  27.158  36.924  11.125
 2678W        W73278   7.795   0.367  12.015
 2679W        W73279  36.073  13.517   1.007
 2680W        W73280  27.133  20.265   2.877
 2681W        W73281  34.376  17.224   2.163
 2682W        W73282  10.450  37.523  13.325
 2683W        W73283   3.190  40.841  12.093
 2684W        W73284  17.671  34.225   1.079
 2685W        W73285  20.482  19.796   2.216
 2686W        W73286   0.968  12.918   1.483
 2687W        W73287  20.074  35.521  14.399
 2688W        W73288  40.373  37.827   4.813
 2689W        W73289  20.521   5.342  13.937
 2690W        W73290  41.572  21.186  14.526
 2691W        W73291  25.923  16.366   2.508
 2692W        W73292  26.392  28.585  14.067
 2693W        W73293  33.164   4.433   0.403
 2694W        W73294  20.222  38.734  14.210
 2695W        W73295  34.308   7.716   3.166
 2696W        W73296  39.090  14.851  11.383
 2697W        W73297  17.887  27.887   0.828
 2698W        W73298  43.373  13.221   1.845
 2699W        W73299  44.756   0.865   0.488
 2700W        W73300   5.342  19.544  12.104
 2701W        W73301  34.519  43.637  11.079
 2702W        W73302   5.391  14.665   4.238
 2703W        W73303  42.461  30.653   3.669
 2704W        W73304  44.144  17.754  11.242
 2705W        W73305  33.078  10.144   2.241
 2706W        W73306  25.173  31.657  14.350
 2707W        W73307   6.644   5.909   2.642
 2708W        W73308   0.277   9.896  12.520
 2709W        W73309  40.422  21.230  12.596
 2710W        W73310   9.795  13.806   0.963
 2711W        W73311  42.330  11.360  12.992
 2712W        W73312  33.018  18.068  11.928
 2713W        W73313  36.201   6.223   3.574
 2714W        W73314  25.141   5.806   3.648
 2715W        W73315  38.145  22.048  14.048
 2716W        W73316  15.182  32.967  11.055
 2717W        W73317  31.041  36.114   2.209
 2718W        W73318  11.136  23.484   1.953
 2719W        W73319   5.630  38.988  14.009
 2720W        W73320  13.892  17.723  14.724
 2721W        W73321  44.769   1.941   2.580
 2722W        W73322  44.838   6.011   0.028
 2723W        W73323  30.547  31.959   2.439
 2724W        W73324   4.274  32.422   0.899
 2725W        W73325  17.417   9.963  13.342
 2726W        W73326  37.105   4.308  11.565
 2727W        W73327  26.367   8.713   2.646
 2728W        W73328  32.659  10.717   3.081
 2729W        W73329  43.827   0.999   1.250
 2730W        W73330  11.552  23.351   1.366
 2731W        W73331  31.133   9.093  12.178
 2732W        W73332   5.649  16.633   0.017
 2733W        W73333   9.188  22.294  11.453
 2734W        W73334  36.086  18.252   1.025
 2735W        W73335  23.594  40.508   4.098
 2736W        W73336  41.102  43.028   4.190
 2737W        W73337  13.074  12.873   3.254
 2738W        W73338   8.877  12.951  12.928
 2739W        W73339  25.781   7.766  13.970
 2740W        W73340  43.537  26.463   2.707
 2741W        W73341  20.510  11.231  13.588
 2742W        W73342  12.338  29.745  14.528
 2743W        W73343  37.888  17.832   2.052
 2744W        W73344  34.526  31.387   2.060
 2745W        W73345  30.437  17.393   3.287
 2746W        W73346   0.447   4.830  10.955
 2747W        W73347  20.302  12.855   0.080
 2748W        W73348  31.585   5.425  14.442
 2749W        W73349  44.855   8.312   4.258
 2750W        W73350   2.735  20.471   0.352
 2751W        W73351  20.336  26.958  14.517
 2752W        W73352  31.893   9.741  10.188
 2753W        W73353  42.548  16.195   4.090
 2754W        W73354  33.392  19.214   3.762
 2755W        W73355   3.610  33.870   1.440
 2756W        W73356  22.389   7.154   5.093
 2757W        W73357  39.050  14.852  11.886
 2758W        W73358  21.649  31.109  11.893
 2759W        W73359  20.155  40.859   4.482
 2760W        W73360  14.643  19.116   4.514
 2761W        W73361  43.520  15.138  11.612
 2762W        W73362  13.792  26.232  13.497
 2763W        W73363  10.352  18.574   4.607
 2764W        W73364  44.277  11.732  12.644
 2765W        W73365   1.387   4.346   1.884
 2766W        W73366  39.601  20.052   0.187
 2767W        W73367   0.453   3.313  12.217
 2768W        W73368  41.025   0.922   3.019
 2769W        W73369  29.747  40.252  13.874
 2770W        W73370  37.296  21.574  14.885
 2771W        W73371  40.452  36.938  13.463
 2772W        W73372  33.806  23.747   2.857
 2773W        W73373  26.918  27.369   2.647
 2774W        W73374  13.790  41.322   9.830
 2775W        W73375  34.517  41.540  10.665
 2776W        W73376  21.567  44.529   1.246
 2777W        W73377  20.065  26.592   1.289
 2778W        W73378  11.128  40.140   1.260
 2779W        W73379  40.998  17.783   2.151
 2780W        W73380  35.623  40.031  13.912
 2781W        W73381   5.389  22.517  10.610
 2782W        W73382   0.877   4.030  11.942
 2783W        W73383   9.781  13.251  14.477
 2784W        W73384  19.411   4.847  12.762
 2785W        W73385  35.928  29.042  14.809
 2786W        W73386   8.828  42.958   3.631
 2787W        W73387  41.081  15.403  14.319
 2788W        W73388  21.343  39.551  12.952
 2789W        W73389  33.678  29.468  11.689
 2790W        W73390  28.514  41.327   2.363
 2791W        W73391  16.253   6.504   1.760
 2792W        W73392  11.232   8.439   3.391
 2793W        W73393   3.807  21.626   2.346
 2794W        W73394  29.168  34.042   1.789
 2795W        W73395  26.172  12.106   1.784
 2796W        W73396  13.811  31.343   2.766
 2797W        W73397  15.590  12.844   5.132
 2798W        W73398  23.044   0.027   0.460
 2799W        W73399  31.037  30.411  11.084
 2800W        W73400   7.935  19.791  12.864
 2801W        W73401  17.043  22.899   3.389
 2802W        W73402  28.997  20.758  10.879
 2803W        W73403  31.732  25.006  14.763
 2804W        W73404  43.869  32.948  11.100
 2805W        W73405  20.806   4.243  11.124
 2806W        W73406   9.420  43.955  12.024
 2807W        W73407  31.332   6.910  14.223
 2808W        W73408   3.776   3.095   5.061
 2809W        W73409  27.093   4.211   1.270
 2810W        W73410  32.937  22.399  10.685
 2811W        W73411  34.884  41.216   3.075
 2812W        W73412  33.979  29.757   3.351
 2813W        W73413  44.590   9.717   3.157
 2814W        W73414  21.758  34.501   4.161
 2815W        W73415  11.044  19.272   4.181
 2816W        W73416  35.872  21.240  14.972
 2817W        W73417  21.030  21.423   5.311
 2818W        W73418   4.745  43.951   3.735
 2819W        W73419  15.576  10.242   0.370
 2820W        W73420   0.807  17.147  14.677
 2821W        W73421  18.948  20.538   1.516
 2822W        W73422  23.182  14.689  13.826
 2823W        W73423   5.446  42.292   3.621
 2824W        W73424  17.737  34.994   3.112
 2825W        W73425  39.163  42.106  11.891
 2826W        W73426  14.055   7.262   0.330
 2827W        W73427  24.624  35.149   1.439
 2828W        W73428  23.078  28.491   2.599
 2829W        W73429  11.907  22.645   3.705
 2830W        W73430  38.053  29.583  14.768
 2831W        W73431  19.785  23.227   3.573
 2832W        W73432  16.350   1.410  12.913
 2833W        W73433   9.195  17.670  12.408
 2834W        W73434  27.658  36.871   0.766
 2835W        W73435  29.119  26.535   2.896
 2836W        W73436   7.257  22.981  10.995
 2837W        W73437  39.278  40.784   4.638
 2838W        W73438  26.929  23.069   4.136
 2839W        W73439  42.227  35.310   2.905
 2840W        W73440  15.855  37.476   0.176
 2841W        W73441  21.304   6.803  13.880
 2842W        W73442  35.136   3.846   2.840
 2843W        W73443   4.001   4.315   3.925
 2844W        W73444  43.686  31.018  13.396
 2845W        W73445   5.512  25.619   2.245
 2846W        W73446   0.452   5.532   3.109
 2847W        W73447  20.695  39.943   3.582
 2848W        W73448   9.237   4.533   0.966
 2849W        W73449  10.668  44.193  11.850
 2850W        W73450  22.422  17.225   3.815
 2851W        W73451  15.699   8.099   4.416
 2852W        W73452  13.132  41.004  13.040
 2853W        W73453  34.723  14.105  13.978
 2854W        W73454  38.402  43.969  11.010
 2855W        W73455  34.571  14.065   3.630
 2856W        W73456  29.552  10.177  11.690
 2857W        W73457  41.787  23.419  14.298
 2858W        W73458  14.562  33.788   4.463
 2859W        W73459  14.780  36.139   0.485
 2860W        W73460  16.616  33.097  12.604
 2861W        W73461  15.435  18.494   0.313
 2862W        W73462  16.163   8.247   1.404
 2863W        W73463   1.785  12.876  14.429
 2864W        W73464  39.559  39.804   4.152
 2865W        W73465  27.738  15.719  11.197
 2866W        W73466  15.140   7.218  11.123
 2867W        W73467  12.934  40.040  14.017
 2868W        W73468  27.715  21.118   0.982
 2869W        W73469  18.891  38.744   0.180
 2870W        W73470  20.288   4.453  14.818
 2871W        W73471  44.435   0.482   4.382
 2872W        W73472  21.086  14.573  13.991
 2873W        W73473  33.120  41.362   3.601
 2874W        W73474  34.373  15.661   4.675
 2875W        W73475  27.633  32.514   2.234
 2876W        W73476  39.283  37.528  14.375
 2877W        W73477  22.565  18.755   2.188
 2878W        W73478  12.608  12.845   3.078
 2879W        W73479  12.139   3.331   5.076
 2880W        W73480  43.616  41.623   4.764
 2881W        W73481  28.120  23.563   2.029
 2882W        W73482  29.061  10.354   0.279
 2883W        W73483   0.555  40.310   0.415
 2884W        W73484  34.019  31.052  13.914
 2885W        W73485   3.008  34.463   3.194
 2886W        W73486  18.217   8.135  11.485
 2887W        W73487  43.543  17.936  11.912
 2888W        W73488  27.399  11.155   1.657
 2889W        W73489  36.407  39.422   4.302
 2890W        W73490  22.044  17.813  12.388
 2891W        W73491   3.362  31.527  10.221
 2892W        W73492   8.572  25.410  11.075
 2893W        W73493  22.987  15.593   4.623
 2894W        W73494  41.090   6.815   2.851
 2895W        W73495  40.482  28.889   1.289
 2896W        W73496  17.848  15.742   3.673
 2897W        W73497  15.550  13.277  11.069
 2898W        W73498   2.834  36.490   2.407
 2899W        W73499  17.654  38.090  13.997
 2900W        W73500  14.592  22.206  12.587
 2901W        W73501   4.730  43.836  11.896
 2902W        W73502  22.152  24.211   2.083
 2903W        W73503   3.391   6.170  11.302
 2904W        W73504  13.793  24.156   2.680
 2905W        W73505   0.361  39.999  10.714
 2906W        W73506  26.157  23.677   0.379
 2907W        W73507   2.202  44.825   1.790
 2908W        W73508  35.042   7.908   0.954
 2909W        W73509  28.782  10.266  13.769
 2910W        W73510  32.980   0.941  10.761
 2911W        W73511  17.770  35.971  12.179
 2912W        W73512   8.786  24.128  13.747
 2913W        W73513  39.885  42.090  14.909
 2914W        W73514  38.988   1.203   2.712
 2915W        W73515  37.616  40.958   4.291
 2916W        W73516  37.489   0.752  13.046
 2917W        W73517  13.978  19.779   4.234
 2918W        W73518  35.850  37.440   3.793
 2919W        W73519  16.942  17.286   3.733
 2920W        W73520   6.923  16.606   4.617
 2921W        W73521   5.198   1.903  10.796
 2922W        W73522  16.735   1.249  12.033
 2923W        W73523  37.436   2.874   3.144
 2924W        W73524  29.187  34.479   2.278
 2925W        W73525  17.656   4.587  13.795
 2926W        W73526  22.341  34.973  13.242
 2927W        W73527  26.254  21.228  13.404
 2928W        W73528  37.048  26.158  13.016
 2929W        W73529  21.749  25.589   1.353
 2930W        W73530  18.132  21.968   4.585
 2931W        W73531  22.027  17.527  12.855
 2932W        W73532   0.026  31.029   3.764
 2933W        W73533  35.693  12.577   1.417
 2934W        W73534  25.336   3.985   4.164
 2935W        W73535  13.633  27.806  14.488
 2936W        W73536  27.872  20.012  14.646
 2937W        W73537  42.551  25.594   2.328
 2938W        W73538   2.945  11.767   4.350
 2939W        W73539   5.130  40.742  12.666
 2940W        W73540  37.328   4.055  11.154
 2941W        W73541  30.956  36.639  13.529
 2942W        W73542  38.734   2.934   3.682
 2943W        W73543  29.007  27.705  12.941
 2944W        W73544  42.349  29.996  13.844
 2945W        W73545   3.593  31.028  12.873
 2946W        W73546  34.900   4.733  11.123
 2947W        W73547  20.136  12.380   4.684
 2948W        W73548  42.971   3.021   3.741
 2949W        W73549  21.010  14.036  11.093
 2950W        W73550  24.066   2.112  11.618
 2951W        W73551  16.636  33.673  14.841
 2952W        W73552  10.808  37.427   3.662
 2953W        W73553  42.486  33.913   1.723
 2954W        W73554  27.172  19.286  12.961
 2955W        W73555  19.735  30.030   3.229
 2956W        W73556   4.241  44.784   0.917
 2957W        W73557  43.983  19.514   4.093
 2958W        W73558   8.745  16.253  14.988
 2959W        W73559  11.650  27.768  11.286
 2960W        W73560  38.436  26.609  13.402
 2961W        W73561  27.494  19.141  11.140
 2962W        W73562  13.805   3.294   3.835
 2963W        W73563  32.105  25.133   0.490
 2964W        W73564  22.233   5.157  12.401
 2965W        W73565  12.003  17.131   1.367
 2966W        W73566   9.767   8.214   0.408
 2967W        W73567  21.687  29.548   3.577
 2968W        W73568  33.246  18.210   2.427
 2969W        W73569  35.122  19.677   0.872
 2970W        W73570  17.189  10.162   1.252
 2971W        W73571  34.021   2.369  13.564
 2972W        W73572  30.075  13.233  13.648
 2973W        W73573  19.216  17.234   4.576
 2974W        W73574   1.849   4.481  12.605
 2975W        W73575  41.471  29.517   2.454
 2976W        W73576  40.044   5.716   3.569
 2977W        W73577   4.722   9.729  10.697
 2978W        W73578   9.740  16.243   0.692
 2979W        W73579   1.791  43.488  14.069
 2980W        W73580   8.340  37.442  10.912
 2981W        W73581  39.028  28.964  13.098
 2982W        W73582  19.569  17.700   1.002
 2983W        W73583   4.485  27.958   4.229
 2984W        W73584  34.704   9.819  11.646
 2985W        W73585  33.254  26.726   3.712
 2986W        W73586  30.953   6.572  12.802
 2987W        W73587  14.801  40.936  11.488
 2988W        W73588  29.187  25.397  13.578
 2989W        W73589   3.351  41.581   4.923
 2990W        W73590   4.894  24.968  14.500
 2991W        W73591  42.094  38.454   1.133
 2992W        W73592  30.329   1.496  11.981
 2993W        W73593   9.232   9.375  10.762
 2994W        W73594  26.517   2.763  11.097
 2995W        W73595  26.625  35.418  12.567
 2996W        W73596  14.206   2.263   3.146
 2997W        W73597  33.362  10.152  14.862
 2998W        W73598  24.355  12.869   3.417
 2999W        W73599  42.753   8.874   2.295
 3000W        W73600  44.353  37.299   3.230
 3001W        W73601  39.020   9.292  10.897
 3002W        W73602  12.207  44.872  11.103
 3003W        W73603   2.882  15.335   1.230
 3004W        W73604   0.416  15.273   1.227
 3005W        W73605  44.259  35.136  11.501
 3006W        W73606  22.995   1.474   4.126
 3007W        W73607  20.294   1.907  13.860
 3008W        W73608  12.392  38.348   1.688
 3009W        W73609   6.368  32.359   2.273
 3010W        W73610  22.024   8.313   1.149
 3011W        W73611  19.498  19.090  12.506
 3012W        W73612  36.553  11.259  14.595
 3013W        W73613  44.019  20.283   3.666
 3014W        W73614  42.993  15.682  14.543
 3015W        W73615  26.194  37.436  14.461
 3016W        W73616   6.628   4.776   2.800
 3017W        W73617  43.105   8.440   1.384
 3018W        W73618  28.128  18.113   0.744
 3019W        W73619  39.929  21.838   0.507
 3020W        W73620   8.116  36.822   0.931
 3021W        W73621   2.443  17.651   2.109
 3022W        W73622  31.155  30.194  12.371
 3023W        W73623  42.410  35.873  13.754
 3024W        W73624  13.139  36.544   0.715
 3025W        W73625  11.996  24.494   3.668
 3026W        W73626   0.254  29.560  13.951
 3027W        W73627  33.381   8.654   4.685
 3028W        W73628  25.742   7.357   0.575
 3029W        W73629  23.478  43.957   3.190
 3030W        W73630  33.099   6.575  10.725
 3031W        W73631  31.443  11.301   1.855
 3032W        W73632  39.405  26.123  12.144
 3033W        W73633  10.239   7.806  12.436
 3034W        W73634  18.022  10.363   2.265
 3035W        W73635  25.048  28.620  10.734
 3036W        W73636  39.257   0.225  14.866
 3037W        W73637  21.366   7.363  14.745
 3038W        W73638  36.559  23.602   1.694
 3039W        W73639   5.681  17.103  14.320
 3040W        W73640  34.028  23.339   0.966
 3041W        W73641  37.446  34.902   1.995
 3042W        W73642   9.770   1.335  10.445
 3043W        W73643   2.211   5.931  14.926
 3044W        W73644  16.781  42.999  12.017
 3045W        W73645   3.222  18.111   4.624
 3046W        W73646  23.709  25.190   0.478
 3047W        W73647  34.997  35.395   0.496
 3048W        W73648  30.649  38.342   3.328
 3049W        W73649  33.304  38.266  12.834
 3050W        W73650  39.645  10.260   0.908
 3051W        W73651  17.497  38.000   2.164
 3052W        W73652  34.545  18.486  14.837
 3053W        W73653   3.372  27.185  12.865
 3054W        W73654  26.696  31.393   1.474
 3055W        W73655  13.171  28.047  14.456
 3056W        W73656  19.696  32.981  12.835
 3057W        W73657  12.860  14.051  12.803
 3058W        W73658  11.339  44.940  11.502
 3059W        W73659  10.669  21.058   4.464
 3060W        W73660   0.393  20.824   3.177
 3061W        W73661  22.177  29.154  14.264
 3062W        W73662  35.128  20.583  12.767
 3063W        W73663  26.997   9.838   4.077
 3064W        W73664  38.853  40.461   2.208
 3065W        W73665  14.579  44.841   2.117
 3066W        W73666  35.107  43.789   0.567
 3067W        W73667   0.667  27.321   2.240
 3068W        W73668  38.303  25.676   2.312
 3069W        W73669  15.418  36.416   2.217
 3070W        W73670  41.055   6.465  14.250
 3071W        W73671  19.548  37.676   2.237
 3072W        W73672   5.656  39.368   0.948
 3073W        W73673  37.678   4.864   4.782
 3074W        W73674  40.415  41.971  14.135
 3075W        W73675  26.249  43.866  13.009
 3076W        W73676  21.791  12.113   3.907
 3077W        W73677  17.129  29.456  14.873
 3078W        W73678  12.057  37.725  13.918
 3079W        W73679  31.795  18.175  12.012
 3080W        W73680  24.178  24.124  13.395
 3081W        W73681  33.334  22.500  12.176
 3082W        W73682   8.488  15.858  14.687
 3083W        W73683   9.705   6.690  10.625
 3084W        W73684  38.870  18.848   1.406
 3085W        W73685   0.753  23.494   2.870
 3086W        W73686  18.563   6.183  12.283
 3087W        W73687  32.898  31.838  14.925
 3088W        W73688  30.612  34.289  12.436
 3089W        W73689   8.293  15.546  13.710
 3090W        W73690  13.798  30.080   0.599
 3091W        W73691  22.585  28.577   0.743
 3092W        W73692  43.051  16.796  12.314
 3093W        W73693  24.419  10.314   0.915
 3094W        W73694  39.837  40.443   0.780
 3095W        W73695  19.588   1.588   0.705
 3096W        W73696   4.701  41.355  11.189
 3097W        W73697   4.980  21.866  12.493
 3098W        W73698  15.780  25.686   1.770
 3099W        W73699  29.775  31.540  11.676
 3100W        W73700  15.097  43.826  13.445
 3101W        W73701  39.841  35.863   0.198
 3102W        W73702   0.218  39.748  11.135
 3103W        W73703  27.424  39.740   2.736
 3104W        W73704  12.253  25.133  11.821
 3105W        W73705   6.686  30.932   1.120
 3106W        W73706  28.859   2.833  10.622
 3107W        W73707  31.190   7.339   2.750
 3108W        W73708  30.556  30.380  14.430
 3109W        W73709  22.566  32.357  11.266
 3110W        W73710  26.165  22.284   0.302
 3111W        W73711   6.785  40.285   3.284
 3112W        W73712  31.924  27.958   1.748
 3113W        W73713  14.531  23.626   2.808
 3114W        W73714  13.893   8.701  11.190
 3115W        W73715  35.298  22.993   4.595
 3116W        W73716  22.467  38.300   2.228
 3117W        W73717   2.954  12.731   3.821
 3118W        W73718  42.006  35.588  13.404
 3119W        W73719  43.760  14.198   2.445
 3120W        W73720   1.785   8.747  13.476
 3121W        W73721  23.713  35.398  13.334
 3122W        W73722   8.450  16.291  10.595
 3123W        W73723   2.012  41.462  10.781
 3124W        W73724  24.024  13.803   3.160
 3125W        W73725  43.679   1.019  10.713
 3126W        W73726  32.257  15.869   3.169
 3127W        W73727   3.194   2.395  14.835
 3128W        W73728  35.417  42.397  10.415
 3129W        W73729  16.758  32.716   4.092
 3130W        W73730   8.637  38.473  12.063
 3131W        W73731  11.692  28.081   2.309
 3132W        W73732  18.517  17.554  10.270
 3133W        W73733   7.426  17.699   4.633
 3134W        W73734  26.962  31.073   2.647
 3135W        W73735  36.827  29.108   0.867
 3136W        W73736  21.457  31.531   2.229
 3137W        W73737  33.396  28.633  12.510
 3138W        W73738  22.084  36.173  13.712
 3139W        W73739  30.608  21.002  10.545
 3140W        W73740   6.397  16.176   2.673
 3141W        W73741  24.488  23.989   0.863
 3142W        W73742   5.133  14.059  11.634
 3143W        W73743   1.978  35.954   3.250
 3144W        W73744  37.436   9.228   5.046
 3145W        W73745  21.009   9.319  10.269
 3146W        W73746  43.976  14.239   4.366
 3147W        W73747  16.354  30.383  13.749
 3148W        W73748  29.865   2.787   0.952
 3149W        W73749  24.942  19.725   0.915
 3150W        W73750  11.955  41.833  12.531
 3151W        W73751  32.043  38.418  14.410
 3152W        W73752  40.423  42.776   4.052
 3153W        W73753  30.263  18.510  12.718
 3154W        W73754   9.043  28.061   3.580
 3155W        W73755  26.567   3.476   2.277
 3156W        W73756  32.917  25.459  14.979
 3157W        W73757  36.018  18.377   4.250
 3158W        W73758  38.635   4.338   2.591
 3159W        W73759  13.752  39.656   2.367
 3160W        W73760  15.321  10.728  12.488
 3161W        W73761  11.329   2.698  13.433
 3162W        W73762  23.735  20.628   4.093
 3163W        W73763  11.315  27.195  10.741
 3164W        W73764  19.394  16.776   4.713
 3165W        W73765   0.142  33.644   3.642
 3166W        W73766   9.009  13.342   4.638
 3167W        W73767  28.851  27.123   2.215
 3168W        W73768  26.216  41.772   1.270
 3169W        W73769  29.011  43.390   1.088
 3170W        W73770   8.119  22.664  12.902
 3171W        W73771   2.746  22.087   2.551
 3172W        W73772   1.350  23.112  12.559
 3173W        W73773  10.802   9.214   4.685
 3174W        W73774  24.222   2.676   4.170
 3175W        W73775  10.832  10.036  14.782
 3176W        W73776  27.511  21.803   4.214
 3177W        W73777   6.972  33.562  13.555
 3178W        W73778  13.933  23.263  13.356
 3179W        W73779  15.694  33.872   3.766
 3180W        W73780  19.108  29.650   1.228
 3181W        W73781   7.544   2.208  14.810
 3182W        W73782  39.963  38.037   3.617
 3183W        W73783  35.084  24.847   3.634
 3184W        W73784   6.653  25.520   0.867
 3185W        W73785  40.721  17.983  13.066
 3186W        W73786  32.477  13.440  11.141
 3187W        W73787  35.608  30.415  11.103
 3188W        W73788  26.211  32.974   2.743
 3189W        W73789  13.709  41.492  10.319
 3190W        W73790   8.731  21.994  13.289
 3191W        W73791  33.546  22.798   0.450
 3192W        W73792  10.137   5.729  10.672
 3193W        W73793  36.583  40.956  12.034
 3194W        W73794   3.944  21.203  13.827
 3195W        W73795  18.514  29.388   3.991
 3196W        W73796  12.315   3.649   1.551
 3197W        W73797  17.254  23.675   4.606
 3198W        W73798  41.303  25.980   2.625
 3199W        W73799  26.715  38.010  13.246
 3200W        W73800   1.834  35.143   2.747
 3201W        W73801   0.492  21.480   2.732
 3202W        W73802  15.123  37.041   3.346
 3203W        W73803  39.963   0.381   4.314
 3204W        W73804  16.853  11.231   0.950
 3205W        W73805  41.647  20.792  12.849
 3206W        W73806  29.456  22.763  10.009
 3207W        W73807  15.088  21.503  14.334
 3208W        W73808  21.833  22.732  13.432
 3209W        W73809  22.099  23.721   2.235
 3210W        W73810  29.697   8.921  11.240
 3211W        W73811   9.051  10.342   4.505
 3212W        W73812  43.384  18.627   1.250
 3213W        W73813  34.141   4.873  13.566
 3214W        W73814  41.846  17.587   3.779
 3215W        W73815   2.933  26.378   0.258
 3216W        W73816   3.362  39.532   2.296
 3217W        W73817  13.719   8.348   1.994
 3218W        W73818   0.378  29.200  11.445
 3219W        W73819  37.570   3.416  14.431
 3220W        W73820  11.227  14.068  10.522
 3221W        W73821  26.697  22.985   2.281
 3222W        W73822  25.395  10.292   1.563
 3223W        W73823  33.919   2.381   4.386
 3224W        W73824  19.582  35.936  13.472
 3225W        W73825  23.752  10.612  14.114
 3226W        W73826   3.384  41.789  13.181
 3227W        W73827  40.395  23.081   1.989
 3228W        W73828  27.098   9.877  14.081
 3229W        W73829  28.176   2.828  14.360
 3230W        W73830  43.411   6.836   3.786
 3231W        W73831  34.946  32.295  11.251
 3232W        W73832  39.642   0.509   1.792
 3233W        W73833  37.507  15.825   5.012
 3234W        W73834  40.858  36.528  14.776
 3235W        W73835  36.452  30.361  10.346
 3236W        W73836  39.917  14.728   4.657
 3237W        W73837  39.279  30.418  11.049
 3238W        W73838  12.913   0.324  12.382
 3239W        W73839  14.674  43.395  13.894
 3240W        W73840  20.010  40.777   1.697
 3241W        W73841  17.365   1.771   4.128
 3242W        W73842  16.419  33.353   0.260
 3243W        W73843  40.515  44.370  12.359
 3244W        W73844  27.197  15.704  11.210
 3245W        W73845   0.512  27.019   0.765
 3246W        W73846  12.570  35.577  12.853
 3247W        W73847  22.923  19.617   2.162
 3248W        W73848   4.753  15.731   4.251
 3249W        W73849  10.188  34.558   3.630
 3250W        W73850  23.907   7.923  12.498
 3251W        W73851  30.471   1.590  12.467
 3252W        W73852  18.256  41.660  12.994
 3253W        W73853  11.912  37.347  11.259
 3254W        W73854  29.325  21.543  10.662
 3255W        W73855  15.352   7.948  12.305
 3256W        W73856   7.224   1.970  14.480
 3257W        W73857  41.782  16.997  11.619
 3258W        W73858   2.167  33.023  14.795
 3259W        W73859  18.826  24.124   1.306
 3260W        W73860  42.348  15.613  11.672
 3261W        W73861  22.618  35.213   1.153
 3262W        W73862  25.619  42.248   1.837
 3263W        W73863  28.481  14.331   3.550
 3264W        W73864  31.505  24.267   2.803
 3265W        W73865  27.020  21.706  11.962
 3266W        W73866   9.746  23.576  14.128
 3267W        W73867  34.099  17.158  13.507
 3268W        W73868  27.962  42.081   4.663
 3269W        W73869  33.491  42.913  10.131
 3270W        W73870  22.069  19.533   0.904
 3271W        W73871  44.884  43.127   3.183
 3272W        W73872   2.757  10.548  13.766
 3273W        W73873   5.452  23.057   4.429
 3274W        W73874  34.858  43.885  11.464
 3275W        W73875  35.962  14.854  13.793
 3276W        W73876   6.172  31.465   2.129
 3277W        W73877  12.548   4.864  12.482
 3278W        W73878   4.892   1.303   1.953
 3279W        W73879  42.449  37.527   4.820
 3280W        W73880  33.779   5.629  13.871
 3281W        W73881   0.694  42.377   1.047
 3282W        W73882  43.793  20.765  14.480
 3283W        W73883  17.095  30.634  10.959
 3284W        W73884  38.585  15.788  10.544
 3285W        W73885  31.332   8.106   1.849
 3286W        W73886  34.956  39.403  10.719
 3287W        W73887  42.398  31.370  10.583
 3288W        W73888   6.049  30.941   1.887
 3289W        W73889   5.568  34.417   0.737
 3290W        W73890  36.164  27.755  14.392
 3291W        W73891  35.965  35.940  14.912
 3292W        W73892  40.063   1.666  14.505
 3293W        W73893  19.697   9.110   0.790
 3294W        W73894  25.917  38.050   1.126
 3295W        W73895  44.438  40.067   4.846
 3296W        W73896  32.864  11.239  11.216
 3297W        W73897  14.200  39.998  12.881
 3298W        W73898   4.161   1.285   1.692
 3299W        W73899  43.796   5.888  11.999
 3300W        W73900  17.625  25.668   1.788
 3301W        W73901  36.363  26.226   1.873
 3302W        W73902  18.740  15.250   0.785
 3303W        W73903   5.284  35.246  11.671
 3304W        W73904   2.008   0.325  14.815
 3305W        W73905  26.732  40.907  10.542
 3306W        W73906  21.679  14.222  13.343
 3307W        W73907  23.412  19.257   0.246
 3308W        W73908  16.012   9.303   2.813
 3309W        W73909  21.051   1.441  12.883
 3310W        W73910  25.702  37.226   3.767
 3311W        W73911  14.113  28.539  14.955
 3312W        W73912   0.748   1.971  10.199
 3313W        W73913  29.648  44.440   0.347
 3314W        W73914   7.915  29.391   2.950
 3315W        W73915  31.047  14.524  13.509
 3316W        W73916  44.537  10.051   0.820
 3317W        W73917  24.487  25.848  13.170
 3318W        W73918  20.475  34.860  11.093
 3319W        W73919  14.989  18.804   4.186
 3320W        W73920  39.361  44.002   0.514
 3321W        W73921   4.381  20.628   2.489
 3322W        W73922  15.402  38.920  13.987
 3323W        W73923  14.313   2.874  14.408
 3324W        W73924   8.305  28.449   3.802
 3325W        W73925  10.722  44.180   4.263
 3326W        W73926  27.642   1.397  11.589
 3327W        W73927  34.195  20.840  12.982
 3328W        W73928  32.689  25.868   0.194
 3329W        W73929  17.695  37.085   0.736
 3330W        W73930  31.564  25.783   1.352
 3331W        W73931  20.899  38.352   2.337
 3332W        W73932  10.901  31.156   1.923
 3333W        W73933   6.702  44.391  13.996
 3334W        W73934  25.067  37.631   2.241
 3335W        W73935  44.813  40.793  13.153
 3336W        W73936  42.898  27.130   2.480
 3337W        W73937  33.198  16.750   1.597
 3338W        W73938  29.079  29.910  14.274
 3339W        W73939  35.987  40.546  12.796
 3340W        W73940  22.996   0.933   2.856
 3341W        W73941  25.038  31.482   0.986
 3342W        W73942   0.278  38.489  13.092
 3343W        W73943  10.779   1.655   1.265
 3344W        W73944  12.730  17.548  11.103
 3345W        W73945   4.037  15.141  12.484
 3346W        W73946  23.093  13.199   1.325
 3347W        W73947  41.339   8.031  10.250
 3348W        W73948  39.162   0.719   1.914
 3349W        W73949  43.714  33.597  13.608
 3350W        W73950  38.974   6.748   4.604
 3351W        W73951  37.450  21.932  12.648
 3352W        W73952  32.559  28.280  11.753
 3353W        W73953  10.836  40.302   3.318
 3354W        W73954   5.328  36.480  14.780
 3355W        W73955  37.318  14.324   0.781
 3356W        W73956  15.326  10.659  14.264
 3357W        W73957  21.199  22.295  13.125
 3358W        W73958  23.153  14.679   2.547
 3359W        W73959  31.865  36.012   4.819
 3360W        W73960   5.677   9.974  11.640
 3361W        W73961  32.559  19.594  10.672
 3362W        W73962   1.813  28.378   0.475
 3363W        W73963  44.198   6.080   2.162
 3364W        W73964   1.295  10.783  12.738
 3365W        W73965  42.298  29.062  14.982
 3366W        W73966  31.922  23.925  10.699
 3367W        W73967  21.600  13.547   1.811
 3368W        W73968   8.239   5.535  11.597
 3369W        W73969  18.572  38.354  14.730
 3370W        W73970  44.639  27.106  14.906
 3371W        W73971  26.593   9.728   5.002
 3372W        W73972  24.160   0.737   1.934
 3373W        W73973  44.934  13.883  11.177
 3374W        W73974  18.178   6.185  14.870
 3375W        W73975   6.103  36.573  12.609
 3376W        W73976   1.604  35.092  13.052
 3377W        W73977   1.005  13.705  12.511
 3378W        W73978  25.135  15.220   0.502
 3379W        W73979  36.286  13.578  11.292
 3380W        W73980   0.499  42.461   1.545
 3381W        W73981  42.343  41.792   0.733
 3382W        W73982  27.027   8.003  11.173
 3383W        W73983  12.295  36.934  14.502
 3384W        W73984   1.988  35.194  14.355
 3385W        W73985  27.039   1.243  12.483
 3386W        W73986   2.458  24.582  12.015
 3387W        W73987  29.590   7.450  13.116
 3388W        W73988  19.929  30.052   1.450
 3389W        W73989  31.591  38.706   5.063
 3390W        W73990  30.206  35.913  10.903
 3391W        W73991  21.630  17.706  10.995
 3392W        W73992   6.608  35.400   3.067
 3393W        W73993   9.300   6.812   4.040
 3394W        W73994  26.281   7.414   1.967
 3395W        W73995  10.555  34.944   3.303
 3396W        W73996  22.781  35.058  14.927
 3397W        W73997   5.115   1.153   4.717
 3398W        W73998  14.691  24.975   3.662
 3399W        W73999  40.552  35.290   3.291
 3400W        W74000   9.306   1.937   2.391
 3401W        W74001  39.241  39.927  13.122
 3402W        W74002  19.657   6.282   3.503
 3403W        W74003   0.620  38.340   0.460
 3404W        W74004  18.349   2.818   0.906
 3405W        W74005  29.203  16.102  10.512
 3406W        W74006  10.110  39.082   3.739
 3407W        W74007   5.983  10.012   4.910
 3408W        W74008   0.929  35.640   1.869
 3409W        W74009  17.534  43.359  11.887
 3410W        W74010  41.421   1.308  10.691
 3411W        W74011  37.998   9.671   1.034
 3412W        W74012  27.501  37.026  14.844
 3413W        W74013  14.199  40.546  12.946
 3414W        W74014  40.825   0.884   3.483
 3415W        W74015  36.223  16.271   2.765
 3416W        W74016  41.767  19.475   2.728
 3417W        W74017  21.390   0.852   3.790
 3418W        W74018  31.085   9.868  11.600
 3419W        W74019  12.966   7.852   3.820
 3420W        W74020  18.844  10.389  11.941
 3421W        W74021  37.840  24.535  11.357
 3422W        W74022  20.644  16.590   2.309
 3423W        W74023  12.574   3.678   3.707
 3424W        W74024  30.700  41.451   0.795
 3425W        W74025  23.158  22.490   1.423
 3426W        W74026  25.473  18.779   1.773
 3427W        W74027   3.752  42.648  13.567
 3428W        W74028   5.830  11.056  12.931
 3429W        W74029  12.633  32.930  13.598
 3430W        W74030  39.864   1.420   4.063
 3431W        W74031  43.291  30.017  11.850
 3432W        W74032  14.593  27.396  12.049
 3433W        W74033  29.101  14.789  10.676
 3434W        W74034  19.508   6.313   0.731
 3435W        W74035   0.656   2.959  14.161
 3436W        W74036   8.771  32.912   3.809
 3437W        W74037   1.353  30.537   4.371
 3438W        W74038   2.356  11.548   0.721
 3439W        W74039  38.026   7.391  10.991
 3440W        W74040  43.712  41.129  13.884
 3441W        W74041  28.577  36.064   1.892
 3442W        W74042   1.816  13.174   0.266
 3443W        W74043  20.690  17.228  14.951
 3444W        W74044  17.308  41.735   0.442
 3445W        W74045   3.615  17.088  12.394
 3446W        W74046  37.023   4.202   3.212
 3447W        W74047  42.054  20.302  13.958
 3448W        W74048   1.897  24.623   1.830
 3449W        W74049  17.750  10.906  12.530
 3450W        W74050   2.988   2.266   3.161
 3451W        W74051  36.001   4.867   0.770
 3452W        W74052  28.092  10.155  10.285
 3453W        W74053  15.026  28.560  13.639
 3454W        W74054  13.813  39.474   3.846
 3455W        W74055  40.123  21.706   3.578
 3456W        W74056  23.952   7.143   3.147
 3457W        W74057  33.101  30.056  11.999
 3458W        W74058  10.376  25.206   0.719
 3459W        W74059  33.119  22.116  13.794
 3460W        W74060  14.224  31.020   2.817
 3461W        W74061  31.145  18.642   2.734
 3462W        W74062  22.793  10.679   3.324
 3463W        W74063  17.511  21.649   1.853
 3464W        W74064  19.094  42.913  13.691
 3465W        W74065  34.377  19.773   0.431
 3466W        W74066  13.544  26.505   3.272
 3467W        W74067  38.075  43.758  13.723
 3468W        W74068   8.112  41.750   1.260
 3469W        W74069  28.216  17.580   4.459
 3470W        W74070  17.753  13.225  13.367
 3471W        W74071  32.328   6.425  11.035
 3472W        W74072  31.715  35.079   1.640
 3473W        W74073  40.372  21.469  11.541
 3474W        W74074   3.839  27.556  10.941
 3475W        W74075   5.799  30.968  14.292
 3476W        W74076  21.077  19.548   3.402
 3477W        W74077  41.315  13.418   0.635
 3478W        W74078  42.532  18.039   4.904
 3479W        W74079  43.381  14.240   0.645
 3480W        W74080  30.971  42.677  13.692
 3481W        W74081  30.628  21.590   2.409
 3482W        W74082  16.777  42.275  14.943
 3483W        W74083   6.204  21.680   4.009
 3484W        W74084  15.476  12.382   0.414
 3485W        W74085   3.931  43.025   0.700
 3486W        W74086  22.598  40.767  14.761
 3487W        W74087   3.275  11.695   0.826
 3488W        W74088   1.769  37.961   1.136
 3489W        W74089  26.128  29.940  14.590
 3490W        W74090  16.064   9.649   3.214
 3491W        W74091  12.278  34.143  14.023
 3492W        W74092  10.414  30.083   1.371
 3493W        W74093  18.179   1.177   4.222
 3494W        W74094   3.904  18.727   1.860
 3495W        W74095  13.191   9.206   1.261
 3496W        W74096  37.508  11.515  14.509
 3497W        W74097   6.908  29.163  12.906
 3498W        W74098  40.969  17.267  11.256
 3499W        W74099  12.917  19.205  14.901
 3500W        W74100  19.267  35.557  10.457
 3501W        W74101  40.905   2.353   1.804
 3502W        W74102  39.213   8.434   3.753
 3503W        W74103  36.963  13.533  10.825
 3504W        W74104  39.787  25.521   2.489
 3505W        W74105  14.391  25.731   0.544
 3506W        W74106  10.296   5.181  14.816
 3507W        W74107   1.345  10.137  12.514
 3508W        W74108  42.265   8.204  14.397
 3509W        W74109  35.993  14.261   3.629
 3510W        W74110  37.890  37.526  10.580
 3511W        W74111   2.280   6.744   0.562
 3512W        W74112  36.343  17.102   4.589
 3513W        W74113   5.328   2.044  11.571
 3514W        W74114  38.468  12.050   3.368
 3515W        W74115  18.331  16.581  13.245
 3516W        W74116  44.608  35.942   4.851
 3517W        W74117  28.851  17.842  10.602
 3518W        W74118  33.241  25.546   3.836
 3519W        W74119  34.322  21.648   4.579
 3520W        W74120  38.475   7.820  11.639
 3521W        W74121  28.430   2.028  14.078
 3522W        W74122  23.158  20.282   0.962
 3523W        W74123   4.082   4.580  12.122
 3524W        W74124   0.914  28.292  12.131
 3525W        W74125  22.946  43.128   9.810
 3526W        W74126  37.004  43.727   3.229
 3527W        W74127   3.706  30.362   0.405
 3528W        W74128  11.281  32.319   4.568
 3529W        W74129  36.394  33.836   3.343
 3530W        W74130  13.070  29.491   1.384
 3531W        W74131  42.550   1.489   2.264
 3532W        W74132  41.844  25.329   4.668
 3533W        W74133  27.592  29.639  14.392
 3534W        W74134  21.050  41.406   0.060
 3535W        W74135   0.525  28.387  12.515
 3536W        W74136  24.219  33.498   2.002
 3537W        W74137  24.797  34.489  11.671
 3538W        W74138  26.099  42.796   1.343
 3539W        W74139   1.416  38.058  11.929
 3540W        W74140  41.287  40.897  11.242
 3541W        W74141  23.006   1.858  13.433
 3542W        W74142   9.352   2.866  13.414
 3543W        W74143  25.130  27.269   3.306
 3544W        W74144  38.959  39.571  13.373
 3545W        W74145  32.601  35.671   0.990
 3546W        W74146  35.405  31.839   1.464
 3547W        W74147   6.900  13.098   3.244
 3548W        W74148  16.358   6.781   0.289
 3549W        W74149  39.762  24.581   1.852
 3550W        W74150  16.783  32.477  12.224
 3551W        W74151  17.160  44.544  12.883
 3552W        W74152  20.720  21.914   2.316
 3553W        W74153   1.728  20.333   1.325
 3554W        W74154  25.241   5.848  12.622
 3555W        W74155  35.085  39.029  11.151
 3556W        W74156  32.994  36.970  10.987
 3557W        W74157  29.267  38.775  13.200
 3558W        W74158   3.002  39.277  14.819
 3559W        W74159  42.996  17.335   0.484
 3560W        W74160  16.805  28.300   4.196
 3561W        W74161  24.186  29.002   1.866
 3562W        W74162   5.758  42.875  10.452
 3563W        W74163   9.216  37.701   4.180
 3564W        W74164  20.575  40.095  11.180
 3565W        W74165  38.063   8.219   0.775
 3566W        W74166  24.475  19.479  11.626
 3567W        W74167   1.701  36.357  12.112
 3568W        W74168  42.421   9.253   1.524
 3569W        W74169  23.425  23.975   1.468
 3570W        W74170  39.999  25.246   0.852
 3571W        W74171  29.139  42.885   2.805
 3572W        W74172  37.398   1.208  11.033
 3573W        W74173  29.109  14.309  11.394
 3574W        W74174  17.275   1.720   0.434
 3575W        W74175  37.432  44.924   4.730
 3576W        W74176  21.627  30.500  10.642
 3577W        W74177  26.094  15.943   2.739
 3578W        W74178   3.380  29.659   2.901
 3579W        W74179  25.790  32.969  13.918
 3580W        W74180   4.219  42.508   2.358
 3581W        W74181  28.976  14.411   4.259
 3582W        W74182  41.255  27.777   3.173
 3583W        W74183  18.588  17.666  14.361
 3584W        W74184  27.656  11.049  12.492
 3585W        W74185   3.739  17.667   4.425
 3586W        W74186  35.080  11.886   4.162
 3587W        W74187  26.340  21.054  14.411
 3588W        W74188  34.024  13.398   3.281
 3589W        W74189  16.469  40.084   4.658
 3590W        W74190   3.376  25.519  12.913
 3591W        W74191  21.242   5.430   4.434
 3592W        W74192   3.230   7.902   5.025
 3593W        W74193   4.786  40.623  12.164
 3594W        W74194   2.716  32.082   2.572
 3595W        W74195  31.821   9.670   1.310
 3596W        W74196   9.819  20.222  14.776
 3597W        W74197   0.917  12.092   2.223
 3598W        W74198   3.975  19.804   3.775
 3599W        W74199  31.347   4.242  11.970
 3600W        W74200  44.086  24.702  11.978
 3601W        W74201  18.557  25.934  11.746
 3602W        W74202  28.022  34.561   3.653
 3603W        W74203  34.207   2.051  11.134
 3604W        W74204  40.822  24.569   0.951
 3605W        W74205  19.150   2.707   2.685
 3606W        W74206  32.480   3.017  14.563
 3607W        W74207  43.041  32.095  11.442
 3608W        W74208  41.613   9.709   2.886
 3609W        W74209  22.736  36.995   3.598
 3610W        W74210  37.038   0.419  11.024
 3611W        W74211   3.893  41.966  13.033
 3612W        W74212  43.072   4.015   4.953
 3613W        W74213  16.272   5.174   2.159
 3614W        W74214  22.650  44.538   4.048
 3615W        W74215  38.264  44.406  14.104
 3616W        W74216   1.870  19.661   0.828
 3617W        W74217  21.879   5.456  13.950
 3618W        W74218  44.457  24.732  11.531
 3619W        W74219  22.226  22.207   3.233
 3620W        W74220  30.485  20.819  11.004
 3621W        W74221   7.893  20.108  14.980
 3622W        W74222   7.608  29.162  11.610
 3623W        W74223  42.534   2.864  14.729
 3624W        W74224   8.418  11.389  12.481
 3625W        W74225  20.546  35.829   1.960
 3626W        W74226  30.114  17.209   1.242
 3627W        W74227  31.082   7.640   1.673
 3628W        W74228   8.852  34.991   4.547
 3629W        W74229   1.659  39.879  11.916
 3630W        W74230  37.483  22.517   2.253
 3631W        W74231  28.461  23.192   1.489
 3632W        W74232  41.410  31.920  14.955
 3633W        W74233  36.413  38.139   1.926
 3634W        W74234  12.250   0.832   3.715
 3635W        W74235  30.545  19.480   2.822
 3636W        W74236  32.159  33.098  12.089
 3637W        W74237  32.633  43.057  10.658
 3638W        W74238   6.658  41.627  11.699
 3639W        W74239  10.904  31.983  14.498
 3640W        W74240  32.976  37.562   0.382
 3641W        W74241  40.916  22.526   3.361
 3642W        W74242  29.561  39.200  13.234
 3643W        W74243  14.848  23.656   4.147
 3644W        W74244  21.668  22.701   0.902
 3645W        W74245  32.543  42.880  12.920
 3646W        W74246   6.413  43.934  13.839
 3647W        W74247  33.023  40.543  11.848
 3648W        W74248  31.028  40.287   1.027
 3649W        W74249  30.293   0.861   1.767
 3650W        W74250  42.589  34.140  10.749
 3651W        W74251  33.398   8.125  14.503
 3652W        W74252  40.062  10.774  11.393
 3653W        W74253   5.174  38.387  12.547
 3654W        W74254  15.983  34.522  12.627
 3655W        W74255  31.627  37.424   0.373
 3656W        W74256   2.209   8.584   2.729
 3657W        W74257  25.206  27.544  12.633
 3658W        W74258  28.922  21.631   4.688
 3659W        W74259  13.028  31.047  14.912
 3660W        W74260  19.290  16.011  12.457
 3661W        W74261  26.498  19.195  13.450
 3662W        W74262   7.223  34.890  12.807
 3663W        W74263  40.308  15.568   3.092
 3664W        W74264   3.051  12.404  14.345
 3665W        W74265  41.047  39.853  12.526
 3666W        W74266  29.235  44.468   0.044
 3667W        W74267  40.056  27.457  14.049
 3668W        W74268  23.452   2.427   2.314
 3669W        W74269  44.005  35.149  11.985
 3670W        W74270  16.222   2.293   4.232
 3671W        W74271  23.966  39.998  12.157
 3672W        W74272   7.918  14.820   0.462
 3673W        W74273  13.810  29.047   1.708
 3674W        W74274  23.027   4.925  11.164
 3675W        W74275  44.719   0.467   3.612
 3676W        W74276  32.619  18.996  14.895
 3677W        W74277  10.861  27.476   4.522
 3678W        W74278  16.336   0.237  10.736
 3679W        W74279  34.692  12.353  13.300
 3680W        W74280  20.946   9.419   0.262
 3681W        W74281  35.043  37.749  14.309
 3682W        W74282  36.450  20.915   1.619
 3683W        W74283   6.344  42.773  12.881
 3684W        W74284   6.741  13.134  12.500
 3685W        W74285  14.310  21.740  14.037
 3686W        W74286  25.487  38.002   4.413
 3687W        W74287  31.899  18.323   4.123
 3688W        W74288  36.293   7.900  13.388
 3689W        W74289   0.352  38.559  14.526
 3690W        W74290  19.312   9.909   1.869
 3691W        W74291  20.340  38.585  12.879
 3692W        W74292   8.424  13.855  11.967
 3693W        W74293  17.121  10.683   1.199
 3694W        W74294   8.328   5.304  13.064
 3695W        W74295  43.805  29.165   4.691
 3696W        W74296  43.487  11.207   1.923
 3697W        W74297  19.097   9.627   2.314
 3698W        W74298   1.770  22.300   1.774
 3699W        W74299  27.853   3.843   4.152
 3700W        W74300   1.410   6.777   3.141
 3701W        W74301  43.420  33.400  14.445
 3702W        W74302  23.008   6.183  13.987
 3703W        W74303  42.425  16.989  14.477
 3704W        W74304  15.547  20.847  13.969
 3705W        W74305  40.644   3.322   5.478
 3706W        W74306  33.154  37.548   2.267
 3707W        W74307  16.160   1.459  14.071
 3708W        W74308   3.181  14.876  13.522
 3709W        W74309  21.088  34.628  10.636
 3710W        W74310  31.289   4.285  12.872
 3711W        W74311   5.924   3.308  13.331
 3712W        W74312  41.350  25.505   1.810
 3713W        W74313  38.082   6.478   0.308
 3714W        W74314  32.753  11.109  14.020
 3715W        W74315  34.648  23.630  12.424
 3716W        W74316  27.026   9.422   4.937
 3717W        W74317  17.326  15.713  11.606
 3718W        W74318  37.802  31.363  11.637
 3719W        W74319  11.315   9.776   2.006
 3720W        W74320  15.747  24.410  11.067
 3721W        W74321  10.226   3.242  11.107
 3722W        W74322  23.456   9.079   1.845
 3723W        W74323  36.891  25.730   3.768
 3724W        W74324   3.800  17.527  12.092
 3725W        W74325   4.745   1.920   9.931
 3726W        W74326  25.463  25.503   0.915
 3727W        W74327   9.182   1.842   1.853
 3728W        W74328  37.738  42.564   2.225
 3729W        W74329  20.643  35.303   2.757
 3730W        W74330  43.947  10.157  14.739
 3731W        W74331  31.130  11.848   5.032
 3732W        W74332  26.745  33.123  11.009
 3733W        W74333   3.363  14.107   2.650
 3734W        W74334  30.355   2.964  12.113
 3735W        W74335   6.940  10.096   3.647
 3736W        W74336   8.921  14.706  12.774
 3737W        W74337   9.979  24.584   3.297
 3738W        W74338  10.461  26.755   3.401
 3739W        W74339   5.183  28.635  13.027
 3740W        W74340  22.167   8.352   0.647
 3741W        W74341  14.350  30.549   4.021
 3742W        W74342  39.951  22.743   1.454
 3743W        W74343  35.168  28.200  11.242
 3744W        W74344  44.493   0.501  11.484
 3745W        W74345  20.662  40.650  12.534
 3746W        W74346  25.722  30.934   0.711
 3747W        W74347  26.095  12.290   0.384
 3748W        W74348  21.072  44.081   0.883
 3749W        W74349   2.771  12.462   3.207
 3750W        W74350  34.474   6.198  14.743
 3751W        W74351  37.446  22.514   1.281
 3752W        W74352  10.179  29.057   1.957
 3753W        W74353  13.271  39.456  10.645
 3754W        W74354  12.705  18.905   2.388
 3755W        W74355   4.709  30.574  11.153
 3756W        W74356   8.703  40.488   2.234
 3757W        W74357   7.377  18.466  12.999
 3758W        W74358  23.123  19.815  11.556
 3759W        W74359  28.089  29.502  12.539
 3760W        W74360  33.548  14.366  12.955
 3761W        W74361  33.846  43.884  10.726
 3762W        W74362  31.136  15.996   5.082
 3763W        W74363  31.145  43.050   1.390
 3764W        W74364  41.815  29.702  11.168
 3765W        W74365  17.805   1.622   3.687
 3766W        W74366  32.579   7.965  14.849
 3767W        W74367  19.666  13.805   2.885
 3768W        W74368  39.464  22.836  14.813
 3769W        W74369  17.805  18.579  13.953
 3770W        W74370  41.492   3.069   9.812
 3771W        W74371  25.613  17.194  14.391
 3772W        W74372   0.453  34.927   0.885
 3773W        W74373  11.568  23.213  14.929
 3774W        W74374  33.031   7.807  14.309
 3775W        W74375  15.672   3.213  14.376
 3776W        W74376   5.834  11.750   1.218
 3777W        W74377  29.683  12.124  10.967
 3778W        W74378  23.968  23.972   0.811
 3779W        W74379  15.743   8.318   1.100
 3780W        W74380  11.185   7.393  11.401
 3781W        W74381  28.432  22.578  12.380
 3782W        W74382  33.958  21.232  14.759
 3783W        W74383  14.169  14.873  10.132
 3784W        W74384  19.881  26.691  13.888
 3785W        W74385  44.004  29.355   0.892
 3786W        W74386  10.867  25.767   0.745
 3787W        W74387   0.512  21.265   4.564
 3788W        W74388  23.578   4.931  12.952
 3789W        W74389  31.970  28.715  12.590
 3790W        W74390   6.185  44.398  14.104
 3791W        W74391  39.739  43.942  13.496
 3792W        W74392  29.973  14.683  11.754
 3793W        W74393  31.589  37.441  14.359
 3794W        W74394  18.256  10.677   4.454
 3795W        W74395  20.259  28.141   1.968
 3796W        W74396  27.699  13.906   3.263
 3797W        W74397  44.886   4.002  11.527
 3798W        W74398   4.358  34.241  13.377
 3799W        W74399  36.261  17.977   4.071
 3800W        W74400  14.487  27.955  13.429
 3801W        W74401  34.573  15.343   3.207
 3802W        W74402   3.843  42.531   1.762
 3803W        W74403  42.782  26.980  12.378
 3804W        W74404  15.103  39.902  14.911
 3805W        W74405  26.412  28.117  10.467
 3806W        W74406  29.669  13.613  13.004
 3807W        W74407  26.888   6.140   1.257
 3808W        W74408   6.607  15.813   1.692
 3809W        W74409   1.878  37.463  12.575
 3810W        W74410  36.466  14.408   5.109
 3811W        W74411   1.422  24.659   2.035
 3812W        W74412   3.993  12.269   3.852
 3813W        W74413  18.161  34.850  14.427
 3814W        W74414  22.809  39.682   0.805
 3815W        W74415  37.818  31.150  10.712
 3816W        W74416   2.937  16.291   4.569
 3817W        W74417  17.511   6.787  13.694
 3818W        W74418  12.755   6.650   3.789
 3819W        W74419  23.134  17.765  11.195
 3820W        W74420  37.520  35.644   3.388
 3821W        W74421  44.584  29.619   2.627
 3822W        W74422  26.166   2.566  13.353
 3823W        W74423  30.918  15.713  14.088
 3824W        W74424   3.864  21.974  13.461
 3825W        W74425  37.622   5.754   2.871
 3826W        W74426  39.947   3.969  10.686
 3827W        W74427  44.623  19.961   1.272
 3828W        W74428  35.966  35.549  10.811
 3829W        W74429  13.206  10.274   1.910
 3830W        W74430   1.610  28.943  13.091
 3831W        W74431  42.955   7.786  12.868
 3832W        W74432  31.000  22.761   2.343
 3833W        W74433   0.344  14.735   4.324
 3834W        W74434  41.429  25.175   2.646
 3835W        W74435  22.792  21.384  14.836
 3836W        W74436  13.801  20.807   3.271
 3837W        W74437  15.932  17.090  10.601
 3838W        W74438   1.428  37.150   2.507
 3839W        W74439  15.477  37.028  14.311
 3840W        W74440   2.582   8.217   2.846
 3841W        W74441   1.422  17.063  10.573
 3842W        W74442  41.539  18.790   2.769
 3843W        W74443   2.005   2.650  14.340
 3844W        W74444   5.617  12.632   1.281
 3845W        W74445  38.909  36.337   3.976
 3846W        W74446  26.531  34.421  10.449
 3847W        W74447  27.436  23.946  12.047
 3848W        W74448  31.611  34.939   4.159
 3849W        W74449  13.587   7.412   1.837
 3850W        W74450   9.825  22.581   4.466
 3851W        W74451   5.596  41.403  14.262
 3852W        W74452   0.525  19.322   0.191
 3853W        W74453  35.715   4.850   1.273
 3854W        W74454   7.902   1.846   1.395
 3855W        W74455  30.687   3.701  11.130
 3856W        W74456  43.375  28.527   3.617
 3857W        W74457   6.262  44.825   2.052
 3858W        W74458  16.837  18.734  12.388
 3859W        W74459  14.685  13.769   0.861
 3860W        W74460  29.895  15.219   0.396
 3861W        W74461  18.302  25.538   4.565
 3862W        W74462  21.691  41.557   4.594
 3863W        W74463  30.654  36.269   3.436
 3864W        W74464  10.649   6.069  14.473
 3865W        W74465  16.111  44.603   0.910
 3866W        W74466  25.732  14.164   2.330
 3867W        W74467  10.597  23.037  13.380
 3868W        W74468   3.463   7.484  14.148
 3869W        W74469  32.098  22.092  12.055
 3870W        W74470  37.747   3.889  13.056
 3871W        W74471  10.116  27.412   0.566
 3872W        W74472  18.619  34.904   3.550
 3873W        W74473  24.211  30.196   3.538
 3874W        W74474  31.063   2.396  13.622
 3875W        W74475  14.344   7.919   4.554
 3876W        W74476   1.490  20.552  14.742
 3877W        W74477  27.917  13.134   2.956
 3878W        W74478   4.894  31.215   2.207
 3879W        W74479  18.886  41.280   1.388
 3880W        W74480  17.733  42.741  14.928
 3881W        W74481  17.581  41.562   4.819
 3882W        W74482  43.253  10.275  11.936
 3883W        W74483  30.080  35.424  13.042
 3884W        W74484  36.150  25.064  14.467
 3885W        W74485   8.145  21.953   2.559
 3886W        W74486  40.347  44.859   0.805
 3887W        W74487  16.456  12.231  13.812
 3888W        W74488  31.096   1.589   1.538
 3889W        W74489  34.086  21.965   2.275
 3890W        W74490  16.856   8.734  10.851
 3891W        W74491  39.093   3.040  12.412
 3892W        W74492   2.346  42.774  11.056
 3893W        W74493   6.659   4.994  12.043
 3894W        W74494  32.173  10.682  11.896
 3895W        W74495  20.270   6.179   4.197
 3896W        W74496  13.242   8.392   1.728
 3897W        W74497  20.365  19.017   4.643
 3898W        W74498   7.198  18.042   2.337
 3899W        W74499  38.401   8.295  11.453
 3900W        W74500  30.380  40.955   1.795
 3901W        W74501  42.894  42.545   3.792
 3902W        W74502   1.863  40.957   1.044
 3903W        W74503  40.309   9.274   3.419
 3904W        W74504  25.964  19.149   1.350
 3905W        W74505  27.913  25.622   3.410
 3906W        W74506  28.656  28.149   2.809
 3907W        W74507  25.440   2.441  10.454
 3908W        W74508  23.213  41.600  14.271
 3909W        W74509  23.059  19.935  12.986
 3910W        W74510  25.496   7.479   3.869
 3911W        W74511   0.242  12.115   3.118
 3912W        W74512  27.159  10.743   2.093
 3913W        W74513  32.985  41.273   5.081
 3914W        W74514  10.348  36.954  11.585
 3915W        W74515  44.152   7.042   2.237
 3916W        W74516  35.619  40.505   2.793
 3917W        W74517  18.163   4.389  10.550
 3918W        W74518  10.736  11.932   3.281
 3919W        W74519  27.980   2.563  13.551
 3920W        W74520  24.119  16.314   2.734
 3921W        W74521  30.696  15.514   2.412
 3922W        W74522  34.345  26.789   3.203
 3923W        W74523  32.635   6.288  10.629
 3924W        W74524   3.535  35.379  11.596
 3925W        W74525  34.225  39.919   2.652
 3926W        W74526   8.664  13.467  13.989
 3927W        W74527  33.060  21.646   1.238
 3928W        W74528  40.293  35.099  11.527
 3929W        W74529  12.210   5.118   4.524
 3930W        W74530   3.178  34.873  12.929
 3931W        W74531  24.241  36.702   1.344
 3932W        W74532  28.960   4.607  12.915
 3933W        W74533   6.683  43.970  11.543
 3934W        W74534  11.712  14.875  14.703
 3935W        W74535  39.793  27.048   3.731
 3936W        W74536  21.276  35.366   0.452
 3937W        W74537   6.213  17.656   4.134
 3938W        W74538  29.672  34.854   0.042
 3939W        W74539  21.684  33.932  12.924
 3940W        W74540  15.353  35.873   2.208
 3941W        W74541  30.210  21.272   2.309
 3942W        W74542  39.746  33.034   3.592
 3943W        W74543   4.706   4.781   1.837
 3944W        W74544  14.519  34.010   3.068
 3945W        W74545  39.218  43.758   4.597
 3946W        W74546   0.305  32.873   0.919
 3947W        W74547  19.868  38.766   3.292
 3948W        W74548  10.794   0.099   3.199
 3949W        W74549  28.983   9.378   1.415
 3950W        W74550  12.085  26.081   0.127
 3951W        W74551  13.154   3.460  12.536
 3952W        W74552  32.334  20.006   3.688
 3953W        W74553  15.421  20.137  12.022
 3954W        W74554  16.037  12.034  11.200
 3955W        W74555  34.521  37.006  14.868
 3956W        W74556  13.698  43.228   1.842
 3957W        W74557  12.281   7.447   0.433
 3958W        W74558  28.666  31.203  12.384
 3959W        W74559  20.634  39.069  14.778
 3960W        W74560  33.876  26.896   9.904
 3961W        W74561  10.207  14.892  10.617
 3962W        W74562   3.513  24.487   4.527
 3963W        W74563  32.971  41.029  11.645
 3964W        W74564  16.191   5.336  14.940
 3965W        W74565  12.174   5.384  10.668
 3966W        W74566  17.150  11.797  11.642
 3967W        W74567  34.524  12.622   3.276
 3968W        W74568  25.400  24.029   3.378
 3969W        W74569   5.931  20.672  14.297
 3970W        W74570   3.741   4.905   1.717
 3971W        W74571   9.655  17.757  12.642
 3972W        W74572   0.742  27.603   0.458
 3973W        W74573  22.209  16.304  12.578
 3974W        W74574  40.488  26.480  12.504
 3975W        W74575  29.188  33.970   0.329
 3976W        W74576  27.563   2.765  10.891
 3977W        W74577  20.794  26.470   9.997
 3978W        W74578   8.064  26.115   2.791
 3979W        W74579  35.428   4.750   3.628
 3980W        W74580  36.711   0.820   9.772
 3981W        W74581  31.008   1.403   0.538
 3982W        W74582  22.455  18.026  11.606
 3983W        W74583   0.661  38.855  11.112
 3984W        W74584  17.323  21.633   2.358
 3985W        W74585  20.614  41.386   0.804
 3986W        W74586  22.264  33.931  14.792
 3987W        W74587  17.270   0.524  13.577
 3988W        W74588  31.684  35.353  11.602
 3989W        W74589  29.577  13.911  13.861
 3990W        W74590  43.443  41.689  11.260
 3991W        W74591  30.390  12.753  13.413
 3992W        W74592  42.400   2.874   0.645
 3993W        W74593  23.037   0.028   1.369
 3994W        W74594   6.423  14.129  11.188
 3995W        W74595  41.101  28.129   0.819
 3996W        W74596  28.359  41.529   0.999
 3997W        W74597  30.906  34.385   1.842
 3998W        W74598  14.822  40.351   4.571
 3999W        W74599  41.840  40.405  14.501
 4000W        W74600  15.804  15.069   3.156
 4001W        W74601   7.138  27.083   2.232
 4002W        W74602  40.053  31.591   0.484
 4003W        W74603  14.422  13.697  14.225
 4004W        W74604  38.030   4.600  13.393
 4005W        W74605  36.274  13.359   0.029
 4006W        W74606  40.214   2.931   3.720
 4007W        W74607  15.046  22.577   1.998
 4008W        W74608  13.359   2.274   2.906
 4009W        W74609  41.821  34.314  13.905
 4010W        W74610  20.263  24.604   0.824
 4011W        W74611  13.940  41.335   2.023
 4012W        W74612  44.349   8.707  14.870
 4013W        W74613  38.407  22.431  13.269
 4014W        W74614  35.959   8.394   1.793
 4015W        W74615  18.525   8.711   0.414
 4016W        W74616  12.754  34.329   4.923
 4017W        W74617  38.832  44.107   4.114
 4018W        W74618  42.682  11.344   0.327
 4019W        W74619  12.752  17.590   1.879
 4020W        W74620  30.026  11.308   0.001
 4021W        W74621  29.055  30.392   0.757
 4022W        W74622  29.895  13.733  13.475
 4023W        W74623  33.397  30.615  12.874
 4024W        W74624  32.503  42.375  13.073
 4025W        W74625  13.019  25.798   2.702
 4026W        W74626  23.850  21.433   0.455
 4027W        W74627  19.814  14.012   4.213
 4028W        W74628  11.860  32.455   2.435
 4029W        W74629  18.537  36.928   2.490
 4030W        W74630  36.200  23.606  10.195
 4031W        W74631  27.769  10.773  14.405
 4032W        W74632   0.906   9.592   4.887
 4033W        W74633  41.769  35.679   3.699
 4034W        W74634  41.401  27.695  10.640
 4035W        W74635  15.361  23.028   1.933
 4036W        W74636  20.233  37.885  14.646
 4037W        W74637  15.312  12.414  13.465
 4038W        W74638  14.527   8.060   4.067
 4039W        W74639   9.407  26.559   0.713
 4040W        W74640  41.983  10.557   1.812
 4041W        W74641  37.755  22.363   2.859
 4042W        W74642   6.711  29.147   3.291
 4043W        W74643   9.941  29.511  14.706
 4044W        W74644  29.951  12.569  11.123
 4045W        W74645   1.453   2.949   4.200
 4046W        W74646  14.521  12.359   1.805
 4047W        W74647  44.066  23.939   0.429
 4048W        W74648  31.677  24.070  12.041
 4049W        W74649  20.338   7.009   2.130
 4050W        W74650   5.158   6.008   2.907
 4051W        W74651  36.617  44.904  12.851
 4052W        W74652  15.113  31.828  11.149
 4053W        W74653  25.132  31.599   4.885
 4054W        W74654  37.391  43.311   1.861
 4055W        W74655  13.320  14.153  12.984
 4056W        W74656  37.855  26.054  10.905
 4057W        W74657  11.154  19.831  14.874
 4058W        W74658  26.132  36.607  10.472
 4059W        W74659  31.521  34.387  11.286
 4060W        W74660   8.895  43.423  13.411
 4061W        W74661   4.793  33.630  14.053
 4062W        W74662   9.692  19.579  10.929
 4063W        W74663  43.689  23.158  14.770
 4064W        W74664  23.025   0.626  12.946
 4065W        W74665   8.856  25.559   2.173
 4066W        W74666  25.244  42.817   1.199
 4067W        W74667  11.838   8.270  10.642
 4068W        W74668  25.970   9.757  12.112
 4069W        W74669  36.687  18.787  14.366
 4070W        W74670   5.332  31.686   2.845
 4071W        W74671   1.532  39.074   3.698
 4072W        W74672  16.832  31.535  10.536
 4073W        W74673  27.206   6.819  14.034
 4074W        W74674  31.484   5.531   2.310
 4075W        W74675   1.930  13.733  10.760
 4076W        W74676  26.121   2.604   3.298
 4077W        W74677  14.051  26.224  13.976
 4078W        W74678  26.758  43.884  13.006
 4079W        W74679  43.464  17.039   3.662
 4080W        W74680  18.437  38.399   3.686
 4081W        W74681  35.114  32.930   3.710
 4082W        W74682  40.528  25.721   0.395
 4083W        W74683  13.024  40.837  14.225
 4084W        W74684  33.983  14.326   3.251
 4085W        W74685  41.446  10.429   1.173
 4086W        W74686  21.975  17.839   0.121
 4087W        W74687  44.960  37.377  11.772
 4088W        W74688  10.186  42.548  14.560
 4089W        W74689  36.511   6.114   3.997
 4090W        W74690  20.500  10.980  10.966
 4091W        W74691  17.806  24.165   4.185
 4092W        W74692  23.953  30.355   2.294
 4093W        W74693  29.743  43.666  14.979
 4094W        W74694  27.392  21.032   3.615
 4095W        W74695   1.368  28.863   1.927
 4096W        W74696  30.897  10.133   1.296
 4097W        W74697  14.418  44.806  11.709
 4098W        W74698  19.795  38.104  12.356
 4099W        W74699  29.942  30.556   3.687
 4100W        W74700  37.508  42.831  14.516
 4101W        W74701  22.560  17.661  13.113
 4102W        W74702  24.141  34.556   0.639
 4103W        W74703  43.896  10.113   3.391
 4104W        W74704  20.083  14.390   2.446
 4105W        W74705  19.969  12.385   1.925
 4106W        W74706  28.456  34.109  13.956
 4107W        W74707  17.048  25.845   2.751
 4108W        W74708  12.615  17.898   1.384
 4109W        W74709   4.738  14.780  11.026
 4110W        W74710   3.211  33.185  13.344
 4111W        W74711  22.530  17.770   3.636
 4112W        W74712  36.411  21.861  13.088
 4113W        W74713  34.293  14.865   2.332
 4114W        W74714  22.239  10.681  12.128
 4115W        W74715  23.165  35.594   2.303
 4116W        W74716  40.977  35.797   1.776
 4117W        W74717  44.525  17.333  13.880
 4118W        W74718  18.609   0.784  12.452
 4119W        W74719  11.597  24.139   2.407
 4120W        W74720   9.737  42.436   2.277
 4121W        W74721  33.068  10.404  11.979
 4122W        W74722   6.947   9.834   2.861
 4123W        W74723  14.372  31.159   4.719
 4124W        W74724   0.765  24.215  14.432
 4125W        W74725  31.080  23.994   2.721
 4126W        W74726  41.420  17.657  13.441
 4127W        W74727  11.679   1.866   1.024
 4128W        W74728  22.970  15.183  11.559
 4129W        W74729  33.582   6.637   1.431
 4130W        W74730  43.193  42.110  12.990
 4131W        W74731  21.070   9.914  13.410
 4132W        W74732  10.938   3.836   3.164
 4133W        W74733  44.218   3.878   3.780
 4134W        W74734  13.536  41.218   4.569
 4135W        W74735  33.847  10.746  14.409
 4136W        W74736  28.869  14.363  10.475
 4137W        W74737   8.796  40.483  14.636
 4138W        W74738  17.651   7.815  12.084
 4139W        W74739  26.178  40.507   1.776
 4140W        W74740  22.386  29.492  11.944
 4141W        W74741   0.026  26.729  14.430
 4142W        W74742  15.131  20.442   0.647
 4143W        W74743  12.160  38.132  11.573
 4144W        W74744  36.519  43.818   2.151
 4145W        W74745  37.151  30.042  12.694
 4146W        W74746  32.717  13.741  13.902
 4147W        W74747  14.761  33.048   3.794
 4148W        W74748  22.030  27.414   0.325
 4149W        W74749  26.671   6.894   3.696
 4150W        W74750  37.554  20.451   3.865
 4151W        W74751  29.116  30.033   1.685
 4152W        W74752  21.315  11.884  14.965
 4153W        W74753  31.883  30.846  13.950
 4154W        W74754   5.229  26.944   0.148
 4155W        W74755  40.055  32.424   4.753
 4156W        W74756  10.304  32.968   3.681
 4157W        W74757  23.890   3.183   3.529
 4158W        W74758  14.903  31.609   1.769
 4159W        W74759   1.855  11.370  12.001
 4160W        W74760  41.325  28.024   4.601
 4161W        W74761  33.560  10.624   0.675
 4162W        W74762  18.689  29.697  12.422
 4163W        W74763  36.056  33.405   0.193
 4164W        W74764   9.847  44.960  10.546
 4165W        W74765  29.391  21.716  12.562
 4166W        W74766   1.548   6.985  12.011
 4167W        W74767  19.157  44.368   3.083
 4168W        W74768   8.272  17.502   2.339
 4169W        W74769  31.402  26.611   3.642
 4170W        W74770  32.191   4.768   0.493
 4171W        W74771  22.112  32.179   0.769
 4172W        W74772   1.759  25.240  12.944
 4173W        W74773  11.727  11.120   4.839
 4174W        W74774  19.625  43.739   1.423
 4175W        W74775   4.773  27.053  11.456
 4176W        W74776   5.461  32.466   2.444
 4177W        W74777   3.650  31.409  13.957
 4178W        W74778  30.955  16.527  10.218
 4179W        W74779  21.020  14.081   3.378
 4180W        W74780  11.682  27.794   0.491
 4181W        W74781   4.878   3.341   1.310
 4182W        W74782  21.322   0.552  14.953
 4183W        W74783   4.535  35.686  11.408
 4184W        W74784  22.239  35.300  11.113
 4185W        W74785   9.849   5.490  14.031
 4186W        W74786  44.649  39.307  13.996
 4187W        W74787  13.617   8.738  12.156
 4188W        W74788  38.529  21.779  14.299
 4189W        W74789  16.739   0.776  12.256
 4190W        W74790  27.638  13.152  11.065
 4191W        W74791  19.672  23.124  13.653
 4192W        W74792   0.440   9.150   0.655
 4193W        W74793   8.833  22.517   2.385
 4194W        W74794  22.523   5.523  12.573
 4195W        W74795  19.069  43.449  14.398
 4196W        W74796  32.935  11.693   0.346
 4197W        W74797  36.162   9.058   3.698
 4198W        W74798  26.029  38.868  12.147
 4199W        W74799  21.574  15.697   2.733
 4200W        W74800   2.164   4.681  13.427
 4201W        W74801   2.964  29.905  14.265
 4202W        W74802  21.476   0.028   2.301
 4203W        W74803  38.804  39.964   3.383
 4204W        W74804  31.156  27.957   2.853
 4205W        W74805  32.891  11.182  14.521
 4206W        W74806  43.773  26.978   1.292
 4207W        W74807  27.659  30.356   2.394
 4208W        W74808  39.954  44.157  13.932
 4209W        W74809  18.171   3.289   1.179
 4210W        W74810  11.807   0.604  13.340
 4211W        W74811  23.065  43.973  11.965
 4212W        W74812  13.803   9.144  11.899
 4213W        W74813   8.006  34.544  12.499
 4214W        W74814  40.317  14.352   2.219
 4215W        W74815   6.186  12.853  10.708
 4216W        W74816  34.985  35.913   3.369
 4217W        W74817  24.563  16.063  12.973
 4218W        W74818  32.917   3.890  14.259
 4219W        W74819  26.984   3.035   3.085
 4220W        W74820   4.219  14.093   4.978
 4221W        W74821   9.596   4.629   3.644
 4222W        W74822  31.259  33.388  12.855
 4223W        W74823  26.467  37.071   3.917
 4224W        W74824  31.582  17.029  14.401
 4225W        W74825  39.117  34.091   2.014
 4226W        W74826  29.403  33.289   9.914
 4227W        W74827   1.326  11.810  10.999
 4228W        W74828  17.661  29.844   1.928
 4229W        W74829   0.862  39.995   2.821
 4230W        W74830   2.513  26.066  12.637
 4231W        W74831  20.689  37.575  10.707
 4232W        W74832  43.707  21.626  12.568
 4233W        W74833  18.603  30.509  12.899
 4234W        W74834  39.387   3.355  13.392
 4235W        W74835  14.847  25.672  13.981
 4236W        W74836  27.122  17.729   0.906
 4237W        W74837  38.851  13.819  11.023
 4238W        W74838  40.701  11.413  14.331
 4239W        W74839  27.209   4.485  11.425
 4240W        W74840  15.152   3.198   3.596
 4241W        W74841  22.682   6.896   2.436
 4242W        W74842  32.585  35.995   3.641
 4243W        W74843  17.567  30.995  10.644
 4244W        W74844  14.083   4.489  10.346
 4245W        W74845  26.248   7.385  11.345
 4246W        W74846  24.029  22.774   1.393
 4247W        W74847  25.342  28.152   1.382
 4248W        W74848  10.070   1.900   3.386
 4249W        W74849  15.349   9.909   2.801
 4250W        W74850  32.368   4.571   1.827
 4251W        W74851  12.379  15.356   4.938
 4252W        W74852  31.055  10.309  13.878
 4253W        W74853   5.647   6.888  12.469
 4254W        W74854  41.065   2.877   4.159
 4255W        W74855   1.805  17.066   0.392
 4256W        W74856  28.522  41.745  10.468
 4257W        W74857  26.144  33.187   0.795
 4258W        W74858   9.208  41.574  10.444
 4259W        W74859  12.025  18.374   1.290
 4260W        W74860  23.182  22.280   4.248
 4261W        W74861  12.807   3.416   1.850
 4262W        W74862   8.936  15.596   1.712
 4263W        W74863  42.796  31.859  12.187
 4264W        W74864  20.840  34.149   2.290
 4265W        W74865  15.551  42.963   1.529
 4266W        W74866  29.827   2.419  12.624
 4267W        W74867  29.440   3.890  14.954
 4268W        W74868  35.433  16.726  14.398
 4269W        W74869  41.332  38.446  10.588
 4270W        W74870  25.058   5.686  13.538
 4271W        W74871  37.618   4.907  14.314
 4272W        W74872   0.810  39.117  12.443
 4273W        W74873  13.935  23.573   3.288
 4274W        W74874  23.536   3.176   0.262
 4275W        W74875   7.332   1.742  12.020
 4276W        W74876  40.877  23.713  11.232
 4277W        W74877   1.492   2.820  12.407
 4278W        W74878  11.700   6.369  13.988
 4279W        W74879  39.610  28.932  12.675
 4280W        W74880  13.092   5.164  12.101
 4281W        W74881  30.809  43.509  13.724
 4282W        W74882  26.022   7.824   1.741
 4283W        W74883  34.320  42.183  12.065
 4284W        W74884   3.021   6.815  14.528
 4285W        W74885  22.167  40.592   4.249
 4286W        W74886  30.457  38.287   0.910
 4287W        W74887   6.929  16.719   3.739
 4288W        W74888  14.646   0.712  10.776
 4289W        W74889  34.545  44.555   4.070
 4290W        W74890  44.541  42.474  10.487
 4291W        W74891  27.063  37.996   2.599
 4292W        W74892  30.249  25.804  12.643
 4293W        W74893   3.372  28.982   1.678
 4294W        W74894  32.845  27.134   4.398
 4295W        W74895   8.665   9.419  10.794
 4296W        W74896  11.579  12.038  11.076
 4297W        W74897  20.888  21.284   0.086
 4298W        W74898  15.192  32.797  10.568
 4299W        W74899   6.327  37.343   0.201
 4300W        W74900  20.931  32.409  13.037
 4301W        W74901  37.816  19.547  14.140
 4302W        W74902  19.951  31.055  11.863
 4303W        W74903  34.340   2.255   0.874
 4304W        W74904  33.617   3.192   3.363
 4305W        W74905   5.260  35.938   2.835
 4306W        W74906   8.253  17.246  12.633
 4307W        W74907  29.165  32.570  12.781
 4308W        W74908  31.215  27.695   0.421
 4309W        W74909  17.021  29.205   1.421
 4310W        W74910  36.122  23.029  14.969
 4311W        W74911   0.803  38.909   3.198
 4312W        W74912  19.958  31.134   1.737
 4313W        W74913  40.750  39.366  14.681
 4314W        W74914  17.317  29.905   2.323
 4315W        W74915  15.439  16.544   1.568
 4316W        W74916  25.953  43.724  11.588
 4317W        W74917  40.342  34.644  14.628
 4318W        W74918   3.368  14.039  11.070
 4319W        W74919  14.158  28.698   1.046
 4320W        W74920  18.093  20.223  10.857
 4321W        W74921  21.536  39.545   4.447
 4322W        W74922  18.602  42.898  13.430
 4323W        W74923  25.539  23.891   2.285
 4324W        W74924  44.079   9.673   3.232
 4325W        W74925  42.527  39.838  14.146
 4326W        W74926  28.674  22.325  11.877
 4327W        W74927  31.319   9.798  12.502
 4328W        W74928   1.041  13.181   0.911
 4329W        W74929  12.227  34.197  11.746
 4330W        W74930   5.253  44.421  11.658
 4331W        W74931  24.042  21.681  13.617
 4332W        W74932  19.812  10.336   2.686
 4333W        W74933  14.524   5.268   0.275
 4334W        W74934   7.835  17.142   2.314
 4335W        W74935  43.955  40.318   0.632
 4336W        W74936   8.549  30.365   4.818
 4337W        W74937  22.918  18.847   4.473
 4338W        W74938  36.980  24.488  10.890
 4339W        W74939  19.131  42.228  14.630
 4340W        W74940  12.097   7.659   0.948
 4341W        W74941  29.123  16.309  13.458
 4342W        W74942  42.868  21.512  11.499
 4343W        W74943  29.100  33.592   2.007
 4344W        W74944  30.138  26.628   1.127
 4345W        W74945  11.556  33.835  13.645
 4346W        W74946  38.824  33.154   4.318
 4347W        W74947   2.690  39.834  13.790
 4348W        W74948  27.563  31.429  13.979
 4349W        W74949  31.280  24.340  10.308
 4350W        W74950  20.600   5.925  10.617
 4351W        W74951  10.163  11.354  14.805
 4352W        W74952   3.251  16.683   2.706
 4353W        W74953  11.344   0.019  12.907
 4354W        W74954  19.963   3.494  12.558
 4355W        W74955   7.825  35.476  11.791
 4356W        W74956  44.855  12.638   4.618
 4357W        W74957  13.044  27.956   2.637
 4358W        W74958   5.819  22.169  11.316
 4359W        W74959   3.942   5.923   3.739
 4360W        W74960  23.612  38.076  11.309
 4361W        W74961   2.431  37.313  13.988
 4362W        W74962   8.867  21.171  10.968
 4363W        W74963  10.510   5.218  13.358
 4364W        W74964  21.273  35.773   4.103
 4365W        W74965  14.971   9.687  12.197
 4366W        W74966   2.330  19.552  12.880
 4367W        W74967   7.489   1.936   4.491
 4368W        W74968  42.100  21.714   1.256
 4369W        W74969  24.555  40.349   3.075
 4370W        W74970  35.674   2.685   3.002
 4371W        W74971  20.157  15.387   4.949
 4372W        W74972   8.903   8.414  13.960
 4373W        W74973  13.280  33.483  13.868
 4374W        W74974  18.552   4.464  12.880
 4375W        W74975   7.074   2.909   1.899
 4376W        W74976   5.379  11.142   2.225
 4377W        W74977   0.456   7.258  11.086
 4378W        W74978  11.988  28.912   0.005
 4379W        W74979  40.488  32.810   0.921
 4380W        W74980  14.882  21.527   9.915
 4381W        W74981   2.505   6.649  13.874
 4382W        W74982  44.495  43.160   0.860
 4383W        W74983  40.983  14.798  13.306
 4384W        W74984   6.614  14.791  14.749
 4385W        W74985   0.399  11.784  10.982
 4386W        W74986  13.640   1.427  14.601
 4387W        W74987  35.180  39.818  12.085
 4388W        W74988  21.130  28.747  14.984
 4389W        W74989   5.648  16.759   3.092
 4390W        W74990  23.283  38.789  12.710
 4391W        W74991  40.859   0.212   1.737
 4392W        W74992  42.399  25.172   3.080
 4393W        W74993  15.597   5.688  13.125
 4394W        W74994  38.984   8.821  11.159
 4395W        W74995  31.924  12.751  10.560
 4396W        W74996   5.957  39.330  11.133
 4397W        W74997   0.986  13.675   3.271
 4398W        W74998  31.122  16.694   4.861
 4399W        W74999  30.892  15.708   0.535
 4400W        W75000  18.154   2.983  11.990
 4401W        W75001  43.021  23.502   1.830
 4402W        W75002  14.678   7.391  10.322
 4403W        W75003  44.542  33.053  14.895
 4404W        W75004  20.668  24.934   1.717
 4405W        W75005  44.017  33.993   4.021
 4406W        W75006  14.259  14.328  13.274
 4407W        W75007  36.433  22.052  11.903
 4408W        W75008  16.332  15.159   2.820
 4409W        W75009   0.315  21.071   3.629
 4410W        W75010   2.902  12.813  11.289
 4411W        W75011  22.989  15.426   2.718
 4412W        W75012   0.962  41.570  14.598
 4413W        W75013  34.459  35.995   1.241
 4414W        W75014  40.939  26.250  12.457
 4415W        W75015  36.516  10.278   2.785
 4416W        W75016  40.467  39.549   0.911
 4417W        W75017  30.636  39.535   3.619
 4418W        W75018  42.973  14.529   2.319
 4419W        W75019  12.602  39.578  11.863
 4420W        W75020  40.527  35.839  11.939
 4421W        W75021  34.875  19.621   0.400
 4422W        W75022   1.769  23.609   1.839
 4423W        W75023   6.426  25.189   0.021
 4424W        W75024   3.038  40.563   1.695
 4425W        W75025  38.550  25.530   1.891
 4426W        W75026  14.658   7.655   3.236
 4427W        W75027  37.592  16.923   4.760
 4428W        W75028  26.170  38.106   0.205
 4429W        W75029   7.458  37.586  12.065
 4430W        W75030   5.704  10.255   2.141
 4431W        W75031  16.482  23.042  12.499
 4432W        W75032  18.796  16.079  10.736
 4433W        W75033  29.516  22.893   1.646
 4434W        W75034  43.779  37.345   4.467
 4435W        W75035  38.002  16.387   1.779
 4436W        W75036  34.978  20.496   0.428
 4437W        W75037  19.100  13.266  10.613
 4438W        W75038  41.949  14.760   1.536
 4439W        W75039  15.552  41.206   0.870
 4440W        W75040  28.599  36.285  12.077
 4441W        W75041  10.263   2.198  12.694
 4442W        W75042   5.443  13.748   3.082
 4443W        W75043  28.625  24.564   2.544
 4444W        W75044  41.565  41.064  12.930
 4445W        W75045  18.525   9.986  11.023
 4446W        W75046   9.518  20.219  12.900
 4447W        W75047  27.961  23.305   2.690
 4448W        W75048  20.676   7.208  11.493
 4449W        W75049  36.280  38.110  14.997
 4450W        W75050  40.888  28.980   2.392
 4451W        W75051  44.040  31.935   0.423
 4452W        W75052  34.959  12.276   4.532
 4453W        W75053   7.785  18.164  10.479
 4454W        W75054   9.201  28.453   1.203
 4455W        W75055   0.261  23.070  13.614
 4456W        W75056  40.752   9.371   2.642
 4457W        W75057  22.115  22.102   1.437
 4458W        W75058  37.977  44.733   2.894
 4459W        W75059  35.192  44.161  10.892
 4460W        W75060  13.628  40.439   0.873
 4461W        W75061   4.450  19.174  12.898
 4462W        W75062  23.211  17.210  14.753
 4463W        W75063  29.604  28.507   4.470
 4464W        W75064   1.424  41.993   0.738
 4465W        W75065  25.619  31.676  10.395
 4466W        W75066   2.853  17.852  12.081
 4467W        W75067  36.310  19.483  13.944
 4468W        W75068  34.181  25.805   0.558
 4469W        W75069   9.689  13.797  12.415
 4470W        W75070  13.157  23.298  11.717
 4471W        W75071  26.527  42.066   2.110
 4472W        W75072  41.554  29.621   1.086
 4473W        W75073  20.965  31.072   1.494
 4474W        W75074  18.850  43.899  12.065
 4475W        W75075  37.759   8.592  14.848
 4476W        W75076  10.611  30.935   2.313
 4477W        W75077   0.464  36.196   2.199
 4478W        W75078  28.644   7.860  14.790
 4479W        W75079  20.752  25.102   2.761
 4480W        W75080  43.422  33.189   2.376
 4481W        W75081  20.201   0.903   3.245
 4482W        W75082  29.350  27.519   3.726
 4483W        W75083   8.115  18.599   3.217
 4484W        W75084  10.140  26.692   0.334
 4485W        W75085  34.471  13.699   3.277
 4486W        W75086  16.109  14.104  14.062
 4487W        W75087  22.790  17.151  12.505
 4488W        W75088  25.577   9.224  11.675
 4489W        W75089  15.777  16.338  11.441
 4490W        W75090  21.147  38.650  14.360
 4491W        W75091   8.951  24.343  12.469
 4492W        W75092  33.503  26.617   1.787
 4493W        W75093  42.281  36.902   3.705
 4494W        W75094  17.846   3.270   2.738
 4495W        W75095  22.751   1.294   2.453
 4496W        W75096  34.258   5.870   1.186
 4497W        W75097  30.895  14.579  12.553
 4498W        W75098  15.774  16.720   3.740
 4499W        W75099  25.632   4.328  13.392
 4500W        W75100   5.650  17.844  13.516
 4501W        W75101  26.589  30.710  12.546
 4502W        W75102  44.136  11.275   4.086
 4503W        W75103  13.390  28.919  12.515
 4504W        W75104  25.710  28.392   2.784
 4505W        W75105   5.002  14.158  10.328
 4506W        W75106  36.009  35.896   2.767
 4507W        W75107  10.140  32.572   0.904
 4508W        W75108  34.064  44.790  11.575
 4509W        W75109  38.975  34.148  12.476
 4510W        W75110   8.289   8.144  10.849
 4511W        W75111   0.088   2.726   1.942
 4512W        W75112  33.894  36.766   4.526
 4513W        W75113  30.867  21.739   3.844
 4514W        W75114  24.446  37.460   4.705
 4515W        W75115  12.249  39.147   1.448
 4516W        W75116  13.692  34.928  11.577
 4517W        W75117   0.373  38.068   4.334
 4518W        W75118  44.916  27.471   4.677
 4519W        W75119  43.251  34.987  14.786
 4520W        W75120  20.589   7.339   1.829
 4521W        W75121   7.675  11.755  13.331
 4522W        W75122  25.492  21.257  14.958
 4523W        W75123  36.417   9.383  11.432
 4524W        W75124  43.710   7.368  13.431
 4525W        W75125  15.275  38.550  12.590
 4526W        W75126  16.112  40.888  11.153
 4527W        W75127  43.721  44.528   2.315
 4528W        W75128  29.503  23.487  13.247
 4529W        W75129  22.052  42.274  12.198
 4530W        W75130   9.860  34.831  13.433
 4531W        W75131  35.689   9.031  12.052
 4532W        W75132   6.393  24.926  10.764
 4533W        W75133   8.867  13.827  13.008
 4534W        W75134  19.931   0.497  14.776
 4535W        W75135  18.782   3.185   3.690
 4536W        W75136   3.923  14.117  10.067
 4537W        W75137  27.200  43.951   4.131
 4538W        W75138  24.256   1.174  11.426
 4539W        W75139  42.851  11.433  12.806
 4540W        W75140  37.342  16.851   0.389
 4541W        W75141  14.723  26.210  10.477
 4542W        W75142  31.677  11.586  14.315
 4543W        W75143  29.997   5.663   0.842
 4544W        W75144  25.291  13.911   2.457
 4545W        W75145  14.143  30.145  14.228
 4546W        W75146  44.739  37.767   0.791
 4547W        W75147  28.340   2.576  12.548
 4548W        W75148  16.409  44.339   0.411
 4549W        W75149  35.395  22.511   3.723
 4550W        W75150   1.792  30.543   2.073
 4551W        W75151  29.903  33.450   4.855
 4552W        W75152  24.288  34.933   4.190
 4553W        W75153  41.398  33.909  11.624
 4554W        W75154  22.595  34.619   4.387
 4555W        W75155  43.303  42.985   2.734
 4556W        W75156  13.260   0.506  14.004
 4557W        W75157  20.347  28.434  12.786
 4558W        W75158  11.684   8.494   3.638
 4559W        W75159  38.867  30.126   4.776
 4560W        W75160  22.505  34.614  14.909
 4561W        W75161   6.901  10.808   4.309
 4562W        W75162  44.235  33.482   1.760
 4563W        W75163  41.392  20.542   4.152
 4564W        W75164  30.676  28.299   3.966
 4565W        W75165  23.572  12.723  11.580
 4566W        W75166  38.931  42.557   3.123
 4567W        W75167  15.516  42.330  13.627
 4568W        W75168  10.471   9.394   0.689
 4569W        W75169   4.195  33.335   1.736
 4570W        W75170  30.160   1.245   2.746
 4571W        W75171   4.683  39.702   0.291
 4572W        W75172  35.070   1.576  11.515
 4573W        W75173  24.569  19.893   5.123
 4574W        W75174  21.599  22.950  10.948
 4575W        W75175  42.070  16.390   4.209
 4576W        W75176  27.268  19.051  10.686
 4577W        W75177  43.959  42.044  12.560
 4578W        W75178  44.358  22.552  10.953
 4579W        W75179   5.989  34.643   1.664
 4580W        W75180  36.552   1.984   1.799
 4581W        W75181  10.297   5.110   5.119
 4582W        W75182  30.027  42.379  13.580
 4583W        W75183   5.870   4.481   1.273
 4584W        W75184   6.600  40.140  11.776
 4585W        W75185   1.312  15.620  10.295
 4586W        W75186   8.773  30.480   3.402
 4587W        W75187  10.695  29.649  11.200
 4588W        W75188  14.680  31.090   4.294
 4589W        W75189  10.395  23.010   1.624
 4590W        W75190  39.425  40.539   1.463
 4591W        W75191   2.111   8.829   1.826
 4592W        W75192  21.289  34.471  13.548
 4593W        W75193  38.953   8.548  13.564
 4594W        W75194   4.924  14.775   2.380
 4595W        W75195   2.989  19.301  13.327
 4596W        W75196  42.899  44.213   4.057
 4597W        W75197  23.231  19.614  14.504
 4598W        W75198   1.747  17.409  14.131
 4599W        W75199  37.595  33.298  10.849
 4600W        W75200  20.062  43.234   0.795
 4601W        W75201   9.309  41.708  13.046
 4602W        W75202  39.046  29.095   0.369
 4603W        W75203  10.425  12.755  11.077
 4604W        W75204  14.518  16.938   0.466
 4605W        W75205  43.604  22.165  12.461
 4606W        W75206  11.863  26.081   1.333
 4607W        W75207   1.056  19.821  10.376
 4608W        W75208   2.465  12.611  11.128
 4609W        W75209  31.130  14.398   2.882
 4610W        W75210  20.053  37.007  10.488
 4611W        W75211  34.578  16.324   1.715
 4612W        W75212  27.669  11.864   4.801
 4613W        W75213  37.973   4.638   0.992
 4614W        W75214  39.811  28.095   0.381
 4615W        W75215  29.049  25.130  12.528
 4616W        W75216   1.538  44.412   0.048
 4617W        W75217  20.091  24.343  12.500
 4618W        W75218  36.412   7.854   1.244
 4619W        W75219  41.462  39.463   3.197
 4620W        W75220  24.029   3.131   4.018
 4621W        W75221   9.423  27.677   3.569
 4622W        W75222  34.246  39.086   1.556
 4623W        W75223   1.854  14.340  14.407
 4624W        W75224  30.503  29.343  13.388
 4625W        W75225   3.282  39.615   3.176
 4626W        W75226  37.556  22.455   3.806
 4627W        W75227  40.409  11.205  12.920
 4628W        W75228  41.313  44.721  13.015
 4629W        W75229  38.270  41.329   0.746
 4630W        W75230  31.239  27.519   1.420
 4631W        W75231  22.942  29.487   2.291
 4632W        W75232   9.705  17.069  14.410
 4633W        W75233  32.197  40.482   1.714
 4634W        W75234   7.152  32.209   3.668
 4635W        W75235  34.827  17.267  14.881
 4636W        W75236  16.211  41.000  14.716
 4637W        W75237  30.573  43.750  10.653
 4638W        W75238  37.333   7.692  13.039
 4639W        W75239  15.238   4.851   2.771
 4640W        W75240  16.485  31.154   1.056
 4641W        W75241  22.549   4.009  14.740
 4642W        W75242  20.569   2.030   0.923
 4643W        W75243   2.854  38.206   0.278
 4644W        W75244  29.491  37.570   2.195
 4645W        W75245  29.698  14.222  13.455
 4646W        W75246   4.121  16.243  10.374
 4647W        W75247  39.007  27.157   2.298
 4648W        W75248  36.136  42.839  12.886
 4649W        W75249  19.812  34.015  10.965
 4650W        W75250   0.787  15.656  10.319
 4651W        W75251  35.291  40.835  11.076
 4652W        W75252  43.222  37.739  14.658
 4653W        W75253  10.173  14.584  11.147
 4654W        W75254  44.753   7.344  12.905
 4655W        W75255  27.567  22.467   2.143
 4656W        W75256  30.061  31.953   4.642
 4657W        W75257  16.686  28.597  11.304
 4658W        W75258  30.792  38.449   5.196
 4659W        W75259   1.522  30.902  11.209
 4660W        W75260   6.176  27.182  14.151
 4661W        W75261  25.491  11.589   4.569
 4662W        W75262  14.898   8.242  13.469
 4663W        W75263  26.668  23.965   5.162
 4664W        W75264  23.782  27.004   3.664
 4665W        W75265   7.325  27.158  10.726
 4666W        W75266  29.407  44.188  10.266
 4667W        W75267  42.313  17.996   5.394
 4668W        W75268  11.332   7.776   4.065
 4669W        W75269  34.673  19.702   2.870
 4670W        W75270  23.999  43.728  13.553
 4671W        W75271  12.759   0.447  13.300
 4672W        W75272  36.436   0.368  14.751
 4673W        W75273  20.234  28.267  12.005
 4674W        W75274  30.014  18.791  13.110
 4675W        W75275  18.204  15.849   3.313
 4676W        W75276  22.633  33.627   3.374
 4677W        W75277  42.219   2.412  12.976
 4678W        W75278  37.912  34.487   0.865
 4679W        W75279   0.433  35.014   3.171
 4680W        W75280   0.904  27.236  11.162
 4681W        W75281   7.387   6.221  14.219
 4682W        W75282  34.724  28.728   4.509
 4683W        W75283  18.571  18.536   2.367
 4684W        W75284  37.941  28.983   3.191
 4685W        W75285   0.474  37.536  10.933
 4686W        W75286   9.263  13.569   1.247
 4687W        W75287  27.394   7.439  10.736
 4688W        W75288  44.585  13.254  14.084
 4689W        W75289  28.675   6.226   2.777
 4690W        W75290   1.636  23.686  14.244
 4691W        W75291   4.452   9.898  12.542
 4692W        W75292  26.426   0.425  12.177
 4693W        W75293   9.947  27.697   0.988
 4694W        W75294  36.861  33.186  14.548
 4695W        W75295  35.387  24.676  12.430
 4696W        W75296   6.493  19.081  14.771
 4697W        W75297  21.117  21.845  12.874
 4698W        W75298  43.922  17.542   2.985
 4699W        W75299  30.611   7.767  14.348
 4700W        W75300  10.351  22.068   3.182
 4701W        W75301  14.268  10.298   5.005
 4702W        W75302  13.634  20.194   1.621
 4703W        W75303  37.952   0.679   4.495
 4704W        W75304  41.513  30.678  13.842
 4705W        W75305   4.752  15.770   4.762
 4706W        W75306  20.461  25.628  12.566
 4707W        W75307  33.507  17.648   4.633
 4708W        W75308  12.274  28.543  14.322
 4709W        W75309  39.337  22.189  12.034
 4710W        W75310  33.858  12.759   0.940
 4711W        W75311  14.102  31.957   4.036
 4712W        W75312  33.915   3.229  13.189
 4713W        W75313  14.706  40.514   1.434
 4714W        W75314  32.607  34.285  10.814
 4715W        W75315  19.722  24.799   0.001
 4716W        W75316  44.443  39.583  13.012
 4717W        W75317  40.301  11.201  12.112
 4718W        W75318  10.880  33.415  10.283
 4719W        W75319  18.133  14.655  10.667
 4720W        W75320  36.537   5.322   1.747
 4721W        W75321  11.902  26.335   0.880
 4722W        W75322  43.889  31.882   4.169
 4723W        W75323   1.048  15.298  10.616
 4724W        W75324  36.774  43.318   1.101
 4725W        W75325  21.038   0.859   3.438
 4726W        W75326  37.902  14.998  11.268
 4727W        W75327   7.293  29.481  11.386
 4728W        W75328  41.460   0.364  12.392
 4729W        W75329   6.284   2.593  11.644
 4730W        W75330   1.574  32.136  14.028
 4731W        W75331  28.708  14.214  12.408
 4732W        W75332  19.421  20.741   1.410
 4733W        W75333   7.907   0.089   4.238
 4734W        W75334   6.216  15.854  13.455
 4735W        W75335  16.529  24.983  13.344
 4736W        W75336   2.058  17.525   0.276
 4737W        W75337  19.992  43.433  11.604
 4738W        W75338  43.933   4.823   4.012
 4739W        W75339  26.763  32.035  12.710
 4740W        W75340  33.084   1.215  14.808
 4741W        W75341  29.580  19.436   3.439
 4742W        W75342  16.019  17.998  11.504
 4743W        W75343  38.370  22.728  11.599
 4744W        W75344   3.749  29.072   3.434
 4745W        W75345  41.949  10.799  14.504
 4746W        W75346  44.007  20.762   0.312
 4747W        W75347   4.988  27.856   2.241
 4748W        W75348   2.079   7.435   1.402
 4749W        W75349  14.372   2.816  13.514
 4750W        W75350  27.646  38.118  13.908
 4751W        W75351  19.286   8.750  11.548
 4752W        W75352  25.499  34.828   4.479
 4753W        W75353  18.135   3.271   1.687
 4754W        W75354  16.313  32.333  12.096
 4755W        W75355   5.683  44.192  11.867
 4756W        W75356   3.979  16.316   3.146
 4757W        W75357  30.384  38.410   2.847
 4758W        W75358  28.952  22.251  13.586
 4759W        W75359  20.408   8.519  14.335
 4760W        W75360  38.847  35.460   1.739
 4761W        W75361   0.820  38.892   1.755
 4762W        W75362  22.857  39.044   4.504
 4763W        W75363  11.023   8.853   4.970
 4764W        W75364  36.461   7.050   3.920
 4765W        W75365  22.199  26.526   2.668
 4766W        W75366  12.767  12.093   1.527
 4767W        W75367  14.205   6.092  10.639
 4768W        W75368   9.703  19.629  12.939
 4769W        W75369  28.517   0.452   0.972
 4770W        W75370  39.745  23.988   4.392
 4771W        W75371  34.745  43.466  10.641
 4772W        W75372  25.162   4.742   0.276
 4773W        W75373  38.564  30.102   1.571
 4774W        W75374  38.683   0.905  10.223
 4775W        W75375   0.060   6.931  12.133
 4776W        W75376  44.523  40.203  10.760
 4777W        W75377  30.541  11.185   1.833
 4778W        W75378   7.204  39.341  10.955
 4779W        W75379  22.676   4.948   4.077
 4780W        W75380  11.055   6.185  12.961
 4781W        W75381  29.444  18.187  11.680
 4782W        W75382  26.318  10.810   2.491
 4783W        W75383  41.612  11.874   1.449
 4784W        W75384  34.518  40.882   1.596
 4785W        W75385   3.275  19.558   3.185
 4786W        W75386   4.261  23.939  13.734
 4787W        W75387  36.909  37.121   2.346
 4788W        W75388  20.285   4.842  14.081
 4789W        W75389   9.021  22.989   0.133
 4790W        W75390  32.972  17.514   4.711
 4791W        W75391   8.604   6.178   4.056
 4792W        W75392  18.023  16.214   1.997
 4793W        W75393  11.720  33.519   4.813
 4794W        W75394  39.906  14.223   4.421
 4795W        W75395  44.228  35.944  13.096
 4796W        W75396   7.701  41.791   4.134
 4797W        W75397   8.414  26.141   2.353
 4798W        W75398  23.969   3.836  12.465
 4799W        W75399  26.387  14.475   2.770
 4800W        W75400  13.704  23.583   1.421
 4801W        W75401  23.946  26.436   2.704
 4802W        W75402   2.819  40.298   3.980
 4803W        W75403  29.434  37.611   4.306
 4804W        W75404   2.961  10.803   2.507
 4805W        W75405  23.042  35.585   4.567
 4806W        W75406  27.961   0.763  11.620
 4807W        W75407  19.788  26.124   2.801
 4808W        W75408  44.935  27.923  12.974
 4809W        W75409  19.994  38.606  13.281
 4810W        W75410  26.903  30.101  12.970
 4811W        W75411  26.178  23.736  12.909
 4812W        W75412  44.266  10.908   1.972
 4813W        W75413  16.326  26.568  11.050
 4814W        W75414  13.135  20.266  13.650
 4815W        W75415  38.354  10.245   3.056
 4816W        W75416   9.098   2.156  12.556
 4817W        W75417  14.645  43.777   0.819
 4818W        W75418  36.137  39.244  13.432
 4819W        W75419  17.066   6.381   4.098
 4820W        W75420  12.244  23.744  11.539
 4821W        W75421   5.412  44.939   4.566
 4822W        W75422   9.240  13.620   4.102
 4823W        W75423  26.057  19.207   2.885
 4824W        W75424  27.963  33.657   2.434
 4825W        W75425  30.716  24.007   0.876
 4826W        W75426  22.194  28.977   2.278
 4827W        W75427   2.139   9.098  14.532
 4828W        W75428   1.331  31.946  13.183
 4829W        W75429   1.048   2.009  12.054
 4830W        W75430  24.965  34.181   0.805
 4831W        W75431  20.961  20.029   3.720
 4832W        W75432  16.264  38.152  14.835
 4833W        W75433   6.999  41.031   0.315
 4834W        W75434  38.979   6.998  11.639
 4835W        W75435  25.310  42.197   0.293
 4836W        W75436   7.835   9.165   4.844
 4837W        W75437   8.290  38.918   4.231
 4838W        W75438   3.924  30.218  12.875
 4839W        W75439   9.672  21.645   0.321
 4840W        W75440  35.169  22.033   3.784
 4841W        W75441  17.030  33.403   1.858
 4842W        W75442  19.134  44.967   3.872
 4843W        W75443  24.649  20.824  13.374
 4844W        W75444  31.835  20.810   3.992
 4845W        W75445  31.636  16.566   3.230
 4846W        W75446   1.781   7.795  12.790
 4847W        W75447   7.865  13.834  12.941
 4848W        W75448   2.084  11.392  11.153
 4849W        W75449  37.048   1.304   2.273
 4850W        W75450   7.896  11.344  13.933
 4851W        W75451  38.435  30.244  10.961
 4852W        W75452  43.257   4.597   0.149
 4853W        W75453   9.830  23.815   2.965
 4854W        W75454  38.640   4.176  11.605
 4855W        W75455  31.513  27.127   1.199
 4856W        W75456  37.560  13.103  12.099
 4857W        W75457  34.046  31.430   2.770
 4858W        W75458   5.393   9.851   1.917
 4859W        W75459  13.351  16.735   1.382
 4860W        W75460  23.936   7.318  14.262
 4861W        W75461  21.932  30.837   1.302
 4862W        W75462  34.711  40.052  13.069
 4863W        W75463  16.857  14.529   1.812
 4864W        W75464  28.065  12.266   1.888
 4865W        W75465  10.185  29.764  11.916
 4866W        W75466   6.465  35.332  13.137
 4867W        W75467   4.472  11.338   3.550
 4868W        W75468  25.505  11.087  11.032
 4869W        W75469  40.517  20.170  10.791
 4870W        W75470  16.119  41.853  12.968
 4871W        W75471  10.690   2.808  14.647
 4872W        W75472  33.305  11.370  11.475
 4873W        W75473  38.376  11.112   3.409
 4874W        W75474  44.866  26.551   1.850
 4875W        W75475  14.660  31.482   2.218
 4876W        W75476  24.116   3.452   4.624
 4877W        W75477  11.468  11.378   0.239
 4878W        W75478  37.013  40.249  13.050
 4879W        W75479  11.660  30.534  14.589
 4880W        W75480  25.703   4.303   2.909
 4881W        W75481   0.890   7.206   3.888
 4882W        W75482  21.533   3.877  10.706
 4883W        W75483  38.608  16.113   3.248
 4884W        W75484  27.772   5.293  10.890
 4885W        W75485  16.775  30.142  10.776
 4886W        W75486  10.139   0.380  13.057
 4887W        W75487  43.869   6.226  12.872
 4888W        W75488  14.159  16.916   1.715
 4889W        W75489  13.676   3.492  12.950
 4890W        W75490  24.496   6.396   2.401
 4891W        W75491   9.634  38.927   4.859
 4892W        W75492  27.084  41.509   4.574
 4893W        W75493   5.186  31.227   0.790
 4894W        W75494   8.350  44.331   1.507
 4895W        W75495  31.079   9.606  12.069
 4896W        W75496  10.816  13.117  14.413
 4897W        W75497  17.191   7.763   0.772
 4898W        W75498  34.826   9.710   2.437
 4899W        W75499   0.285  36.406  14.109
 4900W        W75500  26.613   1.293  10.647
 4901W        W75501  21.876  28.495  10.712
 4902W        W75502  20.808  38.891  11.649
 4903W        W75503  26.522  19.150   3.111
 4904W        W75504  25.428  25.671  10.693
 4905W        W75505  21.396  27.131   4.223
 4906W        W75506  39.091  13.063  14.767
 4907W        W75507  40.452  30.427  12.979
 4908W        W75508   3.389  30.169  14.234
 4909W        W75509  31.580   6.825  13.781
 4910W        W75510  30.641  29.410   3.209
 4911W        W75511   6.592  32.602  14.895
 4912W        W75512  43.586  21.174   0.363
 4913W        W75513  18.074  23.742  10.710
 4914W        W75514   1.703  15.762   0.973
 4915W        W75515  41.486  38.837   4.973
 4916W        W75516  38.030  15.749  14.128
 4917W        W75517   9.835   8.132  12.416
 4918W        W75518  16.516  38.174   2.663
 4919W        W75519   9.731  39.109  13.505
 4920W        W75520   9.774  16.401   4.739
 4921W        W75521   4.338   9.702  14.658
 4922W        W75522   4.432   4.934   2.277
 4923W        W75523  37.598  33.110  10.345
 4924W        W75524  26.126   8.729  11.507
 4925W        W75525  11.318  38.897   1.613
 4926W        W75526  31.840   0.031  11.998
 4927W        W75527  10.477  20.115   1.810
 4928W        W75528  30.224  27.159  11.208
 4929W        W75529  22.052   9.418  14.485
 4930W        W75530  22.724  21.486   3.252
 4931W        W75531  37.545  28.412   0.681
 4932W        W75532  14.628  24.409   3.665
 4933W        W75533  17.710   2.250  12.049
 4934W        W75534  21.536  14.747  13.235
 4935W        W75535  38.566   7.285   2.738
 4936W        W75536  38.020  38.568   1.137
 4937W        W75537  43.033  18.555  11.591
 4938W        W75538  44.912  32.436  12.962
 4939W        W75539  30.134   0.716  11.104
 4940W        W75540  32.958   1.055  11.598
 4941W        W75541  35.968  20.313  11.675
 4942W        W75542  10.085  27.959   4.411
 4943W        W75543  11.132  14.672   3.215
 4944W        W75544  11.813  29.444  10.466
 4945W        W75545  44.078  44.497  11.557
 4946W        W75546   7.453  30.007  13.773
 4947W        W75547   3.901  27.928   2.892
 4948W        W75548   4.300  14.270   3.627
 4949W        W75549  33.586  22.298  13.810
 4950W        W75550  36.789  41.549  12.556
 4951W        W75551  39.977  38.595   3.630
 4952W        W75552  12.659  24.543  12.355
 4953W        W75553   7.629  32.981   3.239
 4954W        W75554  35.274  32.506  11.604
 4955W        W75555  20.102  29.298   2.785
 4956W        W75556  34.677   5.644  10.476
 4957W        W75557  23.568  43.696   1.057
 4958W        W75558  18.662  18.547   3.328
 4959W        W75559  31.618  36.821   2.189
 4960W        W75560   1.497  29.662   0.840
 4961W        W75561  11.086  38.373  14.440
 4962W        W75562  37.086   2.458   2.858
 4963W        W75563  27.563  12.766  12.969
 4964W        W75564  13.888   6.223  11.631
 4965W        W75565  14.249  15.327   2.292
 4966W        W75566  20.712  10.224   3.159
 4967W        W75567  43.385  25.596  10.593
 4968W        W75568  40.407  32.801  14.014
 4969W        W75569  20.750   1.511  14.926
 4970W        W75570  28.292   7.717   2.145
 4971W        W75571   1.257  31.496   3.737
 4972W        W75572  32.706   6.537   3.648
 4973W        W75573  12.350  21.151   1.378
 4974W        W75574  34.811  12.591  11.181
 4975W        W75575  27.117  37.447   1.321
 4976W        W75576  21.136  21.164   1.088
 4977W        W75577  30.996  44.238   2.738
 4978W        W75578   1.872  11.893   4.249
 4979W        W75579  41.091  27.050   1.194
 4980W        W75580  13.857   7.434  10.764
 4981W        W75581  11.092  26.518  13.579
 4982W        W75582  39.059  23.802   0.263
 4983W        W75583  37.843  24.198  12.006
 4984W        W75584   1.890  40.046   4.801
 4985W        W75585  22.061  19.717   1.374
 4986W        W75586   4.715  18.389   1.274
 4987W        W75587  12.157  27.005   1.272
 4988W        W75588  16.678  27.172  13.994
 4989W        W75589  27.257  34.899   3.226
 4990W        W75590  21.550  41.522  13.925
 4991W        W75591  19.187  25.221   1.674
 4992W        W75592   9.254  17.716  13.257
 4993W        W75593  26.698  25.063   5.002
 4994W        W75594  30.077  23.682   2.119
 4995W        W75595   2.320  35.625  14.324
 4996W        W75596  29.076  15.471   1.385
 4997W        W75597  23.765  30.432   3.586
 4998W        W75598   9.594  32.632  12.134
 4999W        W75599  12.188  12.894  13.549
 5000W        W75600  13.651  29.433  11.120
 5001W        W75601  16.277  36.495  10.221
 5002W        W75602  10.236  18.516  12.309
 5003W        W75603   4.744  22.515   2.839
 5004W        W75604   0.507  27.187   3.687
 5005W        W75605  20.320  40.357   0.017
 5006W        W75606  14.760  12.416   3.189
 5007W        W75607  34.916  42.034  11.574
 5008W        W75608  26.077  17.399  12.285
 5009W        W75609   8.716  23.304  11.555
 5010W        W75610  22.687  22.030   2.327
 5011W        W75611  24.266  19.937   4.259
 5012W        W75612  27.575  14.371   4.555
 5013W        W75613  26.178  40.725   4.159
 5014W        W75614  18.443  23.100  14.599
 5015W        W75615  32.561  10.181  14.379
 5016W        W75616  42.382  27.510   4.138
 5017W        W75617  33.677  24.401  11.093
 5018W        W75618   2.348  25.128   0.347
 5019W        W75619  41.760   0.187   4.683
 5020W        W75620   0.127  35.623  14.469
 5021W        W75621  29.943  20.175  13.091
 5022W        W75622   5.978  37.052   4.170
 5023W        W75623  19.073  33.695  11.963
 5024W        W75624   3.890   4.413   1.518
 5025W        W75625  37.492  32.948  11.646
 5026W        W75626  36.376   8.401  12.485
 5027W        W75627  41.618  27.628  12.642
 5028W        W75628  21.664   6.907  14.489
 5029W        W75629  26.677   9.872  10.593
 5030W        W75630  35.968  39.904  14.680
 5031W        W75631  31.688   9.081   1.675
 5032W        W75632  25.654  16.752  10.902
 5033W        W75633  37.425  39.365   4.429
 5034W        W75634  39.444   3.253  10.530
 5035W        W75635  38.934  34.023  13.839
 5036W        W75636  22.623  14.769  12.312
 5037W        W75637  18.622   3.250  13.945
 5038W        W75638  34.869  21.573   4.541
 5039W        W75639  32.982  23.850  11.242
 5040W        W75640   1.487  39.517  12.202
 5041W        W75641  24.882  22.826   2.710
 5042W        W75642  32.515  14.982  11.564
 5043W        W75643  21.780  42.105   2.795
 5044W        W75644  26.105  27.358  10.602
 5045W        W75645  24.134  30.869  13.520
 5046W        W75646  33.734  27.190  11.484
 5047W        W75647  26.509   3.845   3.221
 5048W        W75648  25.548  44.628  11.591
 5049W        W75649   7.830  32.202  13.486
 5050W        W75650  17.108  44.728   2.764
 5051W        W75651  12.167   4.099  12.867
 5052W        W75652  18.879  17.895  11.658
 5053W        W75653   2.872   2.808   1.392
 5054W        W75654  15.559  18.582  13.733
 5055W        W75655  35.231   4.656   5.186
 5056W        W75656  10.154  27.455  13.891
 5057W        W75657  41.359  40.731  13.405
 5058W        W75658  37.922  33.312   2.788
 5059W        W75659  26.142  35.892   0.256
 5060W        W75660  22.180  26.414   0.444
 5061W        W75661  10.263  20.434  14.893
 5062W        W75662   2.741  20.438  11.950
 5063W        W75663  18.532  27.434  14.551
 5064W        W75664  18.891  15.795  10.316
 5065W        W75665  21.491  30.652  14.096
 5066W        W75666  36.289  34.604  14.854
 5067W        W75667  11.318  39.871   2.219
 5068W        W75668  35.438  26.055   4.632
 5069W        W75669   9.349   5.689   4.150
 5070W        W75670  41.619   4.216   0.928
 5071W        W75671  40.547  25.214   0.424
 5072W        W75672  33.888  16.183   0.054
 5073W        W75673  41.967  21.794  11.603
 5074W        W75674  21.685  12.887  13.137
 5075W        W75675  20.823  12.333  11.663
 5076W        W75676   9.116   0.409   0.476
 5077W        W75677  36.060  29.443   4.196
 5078W        W75678   0.421   8.149   3.250
 5079W        W75679  37.637   7.801   3.252
 5080W        W75680   3.323  14.285  11.512
 5081W        W75681  44.927   4.313   4.339
 5082W        W75682   4.489   2.638   4.162
 5083W        W75683  29.399  41.589   4.490
 5084W        W75684   0.306  41.440  10.362
 5085W        W75685  42.488  20.100   3.738
 5086W        W75686  21.110  42.604   0.907
 5087W        W75687  14.539  20.507   1.268
 5088W        W75688  24.188  41.354  11.308
 5089W        W75689  40.854  10.177  11.521
 5090W        W75690  23.490  41.079   0.428
 5091W        W75691  21.109  28.996   3.284
 5092W        W75692  22.702  22.519   0.575
 5093W        W75693  35.944  44.844   0.782
 5094W        W75694  39.993   3.170   0.372
 5095W        W75695  23.316  15.878  14.273
 5096W        W75696  24.058   9.887  11.225
 5097W        W75697   5.199   4.450  11.613
 5098W        W75698  22.652   6.975  12.368
 5099W        W75699  13.211  10.400  10.357
 5100W        W75700  29.567  36.863  10.661
 5101W        W75701  43.042   8.237  10.614
 5102W        W75702  29.970  44.059   4.498
 5103W        W75703  26.985  18.557   4.181
 5104W        W75704   1.052  13.342   4.580
 5105W        W75705  44.680  40.640   2.754
 5106W        W75706  21.758  43.998   2.616
 5107W        W75707  12.268  22.122  12.043
 5108W        W75708  18.644   2.423  13.557
 5109W        W75709   4.520  36.460   4.626
 5110W        W75710  28.575  35.315   1.222
 5111W        W75711  36.048  27.973   3.752
 5112W        W75712  23.077  37.113  13.428
 5113W        W75713   7.106   0.872  11.165
 5114W        W75714   1.161  16.595  10.771
 5115W        W75715  37.911  13.614  10.772
 5116W        W75716   9.731   5.107   2.714
 5117W        W75717  41.824   7.406  13.511
 5118W        W75718   4.961   1.917  13.856
 5119W        W75719  30.073  42.598  12.084
 5120W        W75720  14.858  10.353   3.146
 5121W        W75721  43.268  24.063   1.149
 5122W        W75722  17.291   3.131   4.950
 5123W        W75723  27.035  24.054   0.137
 5124W        W75724  10.836  35.675  13.874
 5125W        W75725  18.624  10.714  14.306
 5126W        W75726  24.209  10.588   3.087
 5127W        W75727  26.844  44.276  14.065
 5128W        W75728  35.115   0.520   4.594
 5129W        W75729  10.464  24.569  12.657
 5130W        W75730  18.237  35.109   1.877
 5131W        W75731  12.198  28.683   4.152
 5132W        W75732  33.585  33.395  10.665
 5133W        W75733   2.827  26.894   0.377
 5134W        W75734  21.578  20.495   4.141
 5135W        W75735   3.841   8.183  11.452
 5136W        W75736  16.274  12.237  10.688
 5137W        W75737  13.286  12.790   4.725
 5138W        W75738  11.643  12.184   4.409
 5139W        W75739  26.244   0.251   2.594
 5140W        W75740  24.672   0.530  12.394
 5141W        W75741  14.452  25.658   4.097
 5142W        W75742  41.075  38.031   3.128
 5143W        W75743   8.909  20.247  12.925
 5144W        W75744   9.659  14.235  12.715
 5145W        W75745  22.451  15.783   3.706
 5146W        W75746  24.453  33.038   2.164
 5147W        W75747  40.536  34.489   2.260
 5148W        W75748  42.731  21.633   1.937
 5149W        W75749  18.611  39.599  13.031
 5150W        W75750  11.378  26.490  11.586
 5151W        W75751  15.809   9.192   3.257
 5152W        W75752  26.190  14.731   4.592
 5153W        W75753  43.296  43.015  10.971
 5154W        W75754   1.019  29.028   1.484
 5155W        W75755  32.287  27.346   2.255
 5156W        W75756   6.636  26.146  14.838
 5157W        W75757   7.756  30.072  11.380
 5158W        W75758   9.599  16.276  13.929
 5159W        W75759  13.077  35.877   1.696
 5160W        W75760  38.492   5.558  11.597
 5161W        W75761  27.583   2.501  14.059
 5162W        W75762   6.756  37.611  12.840
 5163W        W75763   6.717   7.778  13.771
 5164W        W75764   1.807  26.191  14.378
 5165W        W75765   2.780   8.741   0.875
 5166W        W75766  37.389  13.083   4.241
 5167W        W75767  29.459  33.547   3.379
 5168W        W75768  15.851  28.595   2.410
 5169W        W75769  40.428   2.254   3.208
 5170W        W75770  30.949  29.915   2.748
 5171W        W75771  44.637   1.929   1.918
 5172W        W75772   9.326  43.896   0.084
 5173W        W75773  31.955   9.635  11.524
 5174W        W75774  27.552  37.146   2.112
 5175W        W75775  18.295  35.325   2.731
 5176W        W75776  41.889  11.778  10.604
 5177W        W75777  26.711  19.536  13.101
 5178W        W75778  41.766  35.670  12.965
 5179W        W75779  11.619   6.770   2.860
 5180W        W75780  11.890  21.505  11.899
 5181W        W75781  32.575  36.610  13.841
 5182W        W75782   5.962  33.384   1.677
 5183W        W75783   3.241  17.580   0.780
 5184W        W75784   6.886  37.091  12.728
 5185W        W75785  27.920   4.954  14.011
 5186W        W75786  34.448   3.521   2.777
 5187W        W75787   5.104  20.509  12.003
 5188W        W75788  44.763  41.760  12.000
 5189W        W75789  36.054  22.588   4.625
 5190W        W75790  35.781  37.905  11.009
 5191W        W75791   9.964  42.038  14.319
 5192W        W75792  21.804  29.210   0.296
 5193W        W75793  40.500  16.952  11.159
 5194W        W75794  22.627  13.300  13.810
 5195W        W75795  41.851   5.982  12.352
 5196W        W75796   8.389  17.120   3.529
 5197W        W75797  23.102  18.951  12.932
 5198W        W75798  13.744  30.094  13.271
 5199W        W75799  36.042  17.065  11.172
 5200W        W75800  10.349  25.401   3.094
 5201W        W75801   4.833  41.179  10.201
 5202W        W75802  35.979  41.728  10.538
 5203W        W75803  14.095  38.851  13.332
 5204W        W75804  28.577  32.166   2.611
 5205W        W75805  39.105  19.355   3.981
 5206W        W75806  29.192  31.815  14.841
 5207W        W75807  38.555  32.421   3.799
 5208W        W75808  14.115  26.636  13.599
 5209W        W75809  42.671   8.397   4.904
 5210W        W75810  25.026   0.969  13.907
 5211W        W75811  39.564  37.764  10.995
 5212W        W75812  27.091  43.532  12.128
 5213W        W75813  39.838  21.580   0.076
 5214W        W75814  12.433   7.788  14.706
 5215W        W75815  13.981  12.513   3.296
 5216W        W75816  38.151  27.041   3.437
 5217W        W75817  39.560   7.342  14.389
 5218W        W75818   7.699  23.349  10.339
 5219W        W75819  20.556  24.632  12.494
 5220W        W75820  38.326  35.211   1.844
 5221W        W75821  30.059  29.397   2.784
 5222W        W75822  25.255  25.995   1.666
 5223W        W75823   2.667  33.092   1.250
 5224W        W75824  30.972  21.557   1.770
 5225W        W75825  41.376  22.326  12.928
 5226W        W75826  17.239  43.747   0.243
 5227W        W75827  32.576  10.967   2.108
 5228W        W75828   0.765  38.872  11.999
 5229W        W75829   0.438  29.149   3.256
 5230W        W75830   6.737   5.899  12.532
 5231W        W75831   5.955  34.547   0.261
 5232W        W75832  20.761  17.153   1.855
 5233W        W75833  33.421  24.470  10.648
 5234W        W75834  20.108  36.495  13.049
 5235W        W75835  20.133   5.867  12.982
 5236W        W75836  28.690  41.952   4.212
 5237W        W75837  38.408  29.860  10.601
 5238W        W75838   9.441  25.100   4.056
 5239W        W75839  29.844  30.949   4.146
 5240W        W75840   1.329  23.015   1.441
 5241W        W75841   6.247  10.276   3.198
 5242W        W75842  35.522   2.920   0.969
 5243W        W75843   8.161  21.689   3.300
 5244W        W75844  35.926  39.398   2.202
 5245W        W75845  18.596  33.910   0.749
 5246W        W75846  14.528  10.911   2.268
 5247W        W75847  12.628  14.138  11.646
 5248W        W75848  41.825  24.742  11.114
 5249W        W75849  21.642  12.125   2.926
 5250W        W75850  43.197  31.923   0.826
 5251W        W75851  20.054  36.424   3.295
 5252W        W75852  14.100  42.736  14.718
 5253W        W75853  20.317   1.223   2.247
 5254W        W75854  11.724  31.762   1.768
 5255W        W75855   9.399  27.022   0.448
 5256W        W75856  28.325  21.141   5.156
 5257W        W75857  30.357   5.238  12.733
 5258W        W75858  18.705   9.165   4.592
 5259W        W75859  21.210  16.415  13.524
 5260W        W75860  44.632   5.263   2.680
 5261W        W75861  11.336   2.434   3.249
 5262W        W75862  39.493   3.327   0.441
 5263W        W75863  14.262  30.394  10.699
 5264W        W75864   1.247  20.138  10.755
 5265W        W75865  18.668  30.656   2.480
 5266W        W75866  24.910  30.497  13.921
 5267W        W75867  24.540  22.873   0.223
 5268W        W75868   4.341  16.546  11.376
 5269W        W75869  13.929   9.140   1.448
 5270W        W75870  32.897  24.503  10.655
 5271W        W75871   6.789   9.129   0.391
 5272W        W75872  35.937  40.002   3.854
 5273W        W75873  20.568  18.795  10.815
 5274W        W75874  18.599  23.192  11.296
 5275W        W75875  30.463  42.870  12.878
 5276W        W75876  25.942  19.247  11.173
 5277W        W75877  33.546  15.366  13.863
 5278W        W75878  28.624  44.271  13.909
 5279W        W75879   2.885  40.327  13.880
 5280W        W75880  26.977  13.798   0.019
 5281W        W75881  38.775  32.842   0.278
 5282W        W75882  16.848  19.180   4.128
 5283W        W75883  43.549  23.450   2.240
 5284W        W75884  44.475   7.238   3.053
 5285W        W75885  43.906  21.669   1.503
 5286W        W75886  10.326  43.891   3.247
 5287W        W75887  25.013  22.707  10.378
 5288W        W75888  44.763   9.761  12.580
 5289W        W75889  10.309  11.864   4.049
 5290W        W75890   7.893  29.205   1.361
 5291W        W75891  16.107  23.918  13.924
 5292W        W75892  22.222  11.051   2.223
 5293W        W75893  16.122  28.056   2.863
 5294W        W75894  14.248  42.531   1.680
 5295W        W75895  44.509   5.223   1.265
 5296W        W75896  16.136  30.176   1.587
 5297W        W75897  34.964   2.528  10.466
 5298W        W75898   8.411   5.021  12.635
 5299W        W75899  36.820  23.656   4.311
 5300W        W75900  13.717  21.605   2.435
 5301W        W75901   8.425  17.462  11.185
 5302W        W75902  39.412  14.879   4.595
 5303W        W75903  12.985  44.350   4.646
 5304W        W75904  10.374  12.799   0.854
 5305W        W75905  12.095  35.460   0.349
 5306W        W75906   0.582  30.374  12.108
 5307W        W75907  40.000  28.095  13.212
 5308W        W75908  17.229   5.672   2.263
 5309W        W75909  25.024  17.310   2.055
 5310W        W75910  40.939  41.401   1.664
 5311W        W75911  29.827  41.831   0.759
 5312W        W75912  35.067  30.114  13.039
 5313W        W75913  37.885  42.923   1.392
 5314W        W75914  20.177   9.590   1.461
 5315W        W75915  43.316  31.086  14.878
 5316W        W75916  31.439   3.766  10.604
 5317W        W75917   2.387  39.103  14.512
 5318W        W75918  13.175   0.804  11.567
 5319W        W75919  25.532  37.787  12.925
 5320W        W75920   1.176   9.245  13.227
 5321W        W75921  13.719  27.416   1.036
 5322W        W75922  43.953  12.101   4.603
 5323W        W75923  14.261  28.678  11.998
 5324W        W75924   5.533  29.123   1.958
 5325W        W75925  10.848  39.349  14.519
 5326W        W75926  12.839   0.302  13.773
 5327W        W75927  25.424  37.432   2.778
 5328W        W75928  26.005   7.383  11.819
 5329W        W75929  44.437   8.178  11.111
 5330W        W75930  35.021  16.630   1.712
 5331W        W75931  21.083  23.256   2.210
 5332W        W75932  41.798  41.838   4.697
 5333W        W75933  22.544   2.685  10.270
 5334W        W75934  28.746   2.259  11.602
 5335W        W75935  35.509  32.027  13.374
 5336W        W75936  26.600  18.656   3.857
 5337W        W75937  10.631  34.969  11.911
 5338W        W75938  43.290  26.317  12.562
 5339W        W75939  38.377  19.537  11.133
 5340W        W75940  42.437  44.888   2.544
 5341W        W75941   5.419  17.091  12.018
 5342W        W75942  31.430  37.130   1.646
 5343W        W75943  21.996   1.392  13.911
 5344W        W75944  21.142   3.457   1.858
 5345W        W75945  31.244   7.710  14.931
 5346W        W75946  14.226  42.492  13.897
 5347W        W75947  41.842  21.651  12.390
 5348W        W75948   3.632  12.928   0.374
 5349W        W75949  30.081  22.232   1.965
 5350W        W75950  14.854   0.407   2.317
 5351W        W75951  35.548  22.164  12.129
 5352W        W75952  14.698  38.155   3.779
 5353W        W75953   1.888  43.538   2.448
 5354W        W75954  18.558  29.220   3.059
 5355W        W75955  14.724  23.305   0.725
 5356W        W75956  40.303  26.253   0.869
 5357W        W75957  28.257  27.482  13.435
 5358W        W75958  28.282  26.422  12.121
 5359W        W75959  39.555  22.971   0.453
 5360W        W75960  22.002  37.994  14.212
 5361W        W75961   6.500  16.340  11.144
 5362W        W75962  28.272   2.823   3.546
 5363W        W75963   6.136  33.917   4.161
 5364W        W75964  11.333  35.241   4.654
 5365W        W75965  13.060  18.218   3.750
 5366W        W75966  24.001  44.920  11.791
 5367W        W75967  38.795  36.929   2.839
 5368W        W75968  42.397  38.583  12.179
 5369W        W75969  33.847  33.259   3.002
 5370W        W75970  27.611  28.363   3.805
 5371W        W75971  26.188   0.306   3.099
 5372W        W75972  37.773  18.332  12.949
 5373W        W75973  37.403  41.514  14.757
 5374W        W75974  40.954  17.241   3.317
 5375W        W75975  23.063  24.709   1.279
 5376W        W75976  26.560  30.259   4.142
 5377W        W75977   8.923   8.462   4.578
 5378W        W75978  34.015  18.352  12.441
 5379W        W75979  32.076  38.941  14.027
 5380W        W75980  15.958   2.154  12.511
 5381W        W75981  18.541   7.804  14.792
 5382W        W75982  17.542   1.468  12.467
 5383W        W75983  24.478  43.458  14.485
 5384W        W75984  33.550  17.351  10.593
 5385W        W75985  39.543  32.354  11.139
 5386W        W75986  26.286  14.781  14.457
 5387W        W75987  36.694  26.242  12.050
 5388W        W75988  16.264   9.867  12.283
 5389W        W75989  39.120  30.642   0.503
 5390W        W75990  32.988   0.490   0.304
 5391W        W75991  13.851   1.146  14.169
 5392W        W75992  41.237  36.967  14.924
 5393W        W75993  33.907  33.746   3.205
 5394W        W75994  20.029  39.112   2.934
 5395W        W75995   8.594  32.993   3.274
 5396W        W75996  29.755  36.478   2.721
 5397W        W75997  21.112  32.927  10.775
 5398W        W75998  35.925   1.667   1.405
 5399W        W75999  25.902  10.132  11.759
 5400W        W76000  10.588   3.220  14.356
 5401W        W76001  20.886  14.521  11.160
 5402W        W76002   8.514  35.537  14.784
 5403W        W76003  11.075  41.863  14.999
 5404W        W76004  16.520  42.927  12.480
 5405W        W76005  42.497  36.421   1.864
 5406W        W76006  37.490  21.745   4.405
 5407W        W76007  15.252  11.246  11.627
 5408W        W76008  39.936  15.282  13.798
 5409W        W76009  41.027  17.809   0.887
 5410W        W76010  28.112  29.503  10.794
 5411W        W76011  33.943  13.274  12.187
 5412W        W76012  26.365  21.265  11.128
 5413W        W76013  30.976   6.056  12.851
 5414W        W76014  31.498  36.404   1.358
 5415W        W76015   5.801   3.785   2.802
 5416W        W76016  44.943  27.896   0.742
 5417W        W76017  16.240   7.211  12.193
 5418W        W76018   1.237  21.643  11.048
 5419W        W76019   8.436  31.894   3.130
 5420W        W76020  30.134   9.717  11.671
 5421W        W76021  24.269  33.794  13.986
 5422W        W76022  20.271  20.256   4.274
 5423W        W76023  23.607  10.160  14.786
 5424W        W76024  24.086  33.706   4.673
 5425W        W76025   4.877  37.908   3.147
 5426W        W76026  40.236  12.826   4.957
 5427W        W76027  35.326  16.561  10.976
 5428W        W76028   0.759  10.669   1.998
 5429W        W76029  13.805  42.524   3.980
 5430W        W76030  32.324   5.124   0.991
 5431W        W76031   4.916  27.190  14.772
 5432W        W76032   7.913  36.882   4.344
 5433W        W76033  18.727  11.311  11.092
 5434W        W76034   8.349  26.453  12.279
 5435W        W76035  20.069   1.534   4.094
 5436W        W76036  18.203  17.673  12.541
 5437W        W76037   0.734  33.011  12.375
 5438W        W76038  20.995  20.658  11.651
 5439W        W76039  33.282  44.964   0.879
 5440W        W76040  25.629  29.942  14.448
 5441W        W76041   9.894  41.407   0.004
 5442W        W76042  31.614  23.010   4.258
 5443W        W76043  42.764  34.968  14.616
 5444W        W76044  14.710  27.968   4.109
 5445W        W76045   6.806  34.393   1.329
 5446W        W76046  27.551  31.083  10.500
 5447W        W76047  33.727  18.450  11.959
 5448W        W76048  35.003  22.513   4.685
 5449W        W76049  34.467  41.513   3.418
 5450W        W76050   0.587  31.686   3.190
 5451W        W76051  42.751  32.782   4.871
 5452W        W76052  11.634  34.968   3.695
 5453W        W76053   9.357  38.542  14.708
 5454W        W76054  38.983  40.472  14.407
 5455W        W76055  10.270  32.903   1.346
 5456W        W76056  13.670  26.515  11.252
 5457W        W76057  31.017   8.401  13.497
 5458W        W76058  28.616  15.361   1.704
 5459W        W76059  21.063  41.577   2.365
 5460W        W76060  18.032  27.252  12.923
 5461W        W76061  29.120  10.168  11.135
 5462W        W76062  31.122  12.114   3.626
 5463W        W76063  13.096   6.425  11.184
 5464W        W76064  33.020  33.082  10.690
 5465W        W76065  31.578   5.884  10.710
 5466W        W76066   8.061  20.743   3.590
 5467W        W76067  11.413  44.961   1.009
 5468W        W76068  19.808  18.222  14.735
 5469W        W76069  17.604  30.876   2.184
 5470W        W76070  33.151   5.182   4.509
 5471W        W76071  25.619  29.973  13.899
 5472W        W76072  13.184   1.888  12.135
 5473W        W76073  41.903  38.631   4.150
 5474W        W76074  23.699  20.432  13.486
 5475W        W76075  44.081  43.356  13.938
 5476W        W76076  32.067   0.897   1.754
 5477W        W76077  33.543  38.804  11.962
 5478W        W76078  34.827  18.463  12.897
 5479W        W76079  31.362  44.988   0.795
 5480W        W76080  30.138   2.446  11.498
 5481W        W76081  19.751  22.156  11.955
 5482W        W76082  31.103  31.948  13.951
 5483W        W76083  29.340   9.136  13.535
 5484W        W76084  18.370  29.320   0.279
 5485W        W76085  35.432   3.636  11.905
 5486W        W76086  22.627  29.018  14.532
 5487W        W76087  22.349  25.296  12.164
 5488W        W76088  10.451  40.513  13.434
 5489W        W76089  32.815  11.234   3.762
 5490W        W76090  27.988  13.641  12.517
 5491W        W76091   0.907  23.859   0.413
 5492W        W76092  14.661  35.243  12.419
 5493W        W76093  37.513  14.817   2.927
 5494W        W76094  25.419  40.944   0.396
 5495W        W76095  22.325  34.067   0.708
 5496W        W76096  12.053   5.693  13.688
 5497W        W76097   2.238  11.416  14.351
 5498W        W76098  36.953  13.922   3.946
 5499W        W76099   7.096  37.477   2.900
 5500W        W76100  20.698  43.661   1.239
 5501W        W76101  27.102  25.514  14.076
 5502W        W76102  42.523  28.538  12.005
 5503W        W76103  14.696  40.232   0.966
 5504W        W76104  16.492  10.102   4.056
 5505W        W76105   2.872  21.990  13.794
 5506W        W76106  10.585  19.703  11.333
 5507W        W76107  34.941  10.676  12.939
 5508W        W76108  16.234  38.785   3.749
 5509W        W76109  30.976   5.872   2.567
 5510W        W76110   3.458  17.285   3.190
 5511W        W76111  29.024  27.593  11.481
 5512W        W76112  23.694  29.029  11.955
 5513W        W76113  33.151  13.713  13.517
 5514W        W76114  16.727   3.951   0.800
 5515W        W76115  25.780   4.793   3.758
 5516W        W76116  32.740   2.365  13.879
 5517W        W76117  38.220  19.197   0.918
 5518W        W76118  17.363  33.921   1.867
 5519W        W76119   1.312  43.257  14.241
 5520W        W76120   5.650   2.432  13.604
 5521W        W76121  36.114  18.458   0.059
 5522W        W76122   0.882  42.905  11.225
 5523W        W76123   4.477  15.277   1.302
 5524W        W76124  13.073  20.642   1.077
 5525W        W76125  28.515   4.192  13.012
 5526W        W76126   0.408  22.203   1.355
 5527W        W76127  35.646   3.022  14.468
 5528W        W76128   2.495  44.872  14.295
 5529W        W76129   8.253  12.698   4.489
 5530W        W76130  27.504  29.016  12.674
 5531W        W76131  20.819   3.029   1.909
 5532W        W76132   0.835  43.663  12.588
 5533W        W76133   2.183  30.466   0.802
 5534W        W76134  24.912   9.229  11.119
 5535W        W76135  31.047  12.773   4.647
 5536W        W76136  10.737  20.592  13.366
 5537W        W76137   5.351   4.667  10.103
 5538W        W76138  29.548   0.696  13.404
 5539W        W76139  34.909  26.791   3.744
 5540W        W76140  43.372  44.456   4.090
 5541W        W76141  23.992  13.142   0.258
 5542W        W76142  18.553  20.134  11.646
 5543W        W76143  21.472  39.616  14.664
 5544W        W76144  10.081  17.095  12.483
 5545W        W76145  24.322  14.640   0.456
 5546W        W76146  16.107   1.915  10.690
 5547W        W76147   3.920  33.774  14.532
 5548W        W76148  24.270   1.067  12.631
 5549W        W76149  38.374  19.634  14.206
 5550W        W76150   1.741  18.817   4.175
 5551W        W76151  13.344  11.132  12.846
 5552W        W76152  41.432  29.498   4.386
 5553W        W76153  37.642  30.073  10.348
 5554W        W76154  32.565  39.088   2.837
 5555W        W76155  14.402  34.406  11.095
 5556W        W76156   6.385  34.327  12.583
 5557W        W76157  32.959  14.873   4.530
 5558W        W76158   2.439  23.118   3.783
 5559W        W76159  25.154  16.876  11.256
 5560W        W76160  42.099  36.844  14.568
 5561W        W76161  26.727  36.263   4.500
 5562W        W76162  19.673  43.181   4.992
 5563W        W76163  41.827  18.091   4.487
 5564W        W76164   3.927  16.082   3.619
 5565W        W76165   6.236   3.834  13.991
 5566W        W76166  18.476  37.839   2.922
 5567W        W76167  42.612   7.732   2.271
 5568W        W76168  25.244  13.977   3.247
 5569W        W76169  21.688  15.946   0.890
 5570W        W76170  41.402  17.083   2.262
 5571W        W76171  37.727  23.789   2.347
 5572W        W76172  25.565  32.221   2.273
 5573W        W76173  15.104   9.113  11.525
 5574W        W76174   8.094  41.829   2.597
 5575W        W76175  26.924  15.054   1.335
 5576W        W76176  16.102  27.666  14.456
 5577W        W76177  23.742  16.356  14.862
 5578W        W76178  43.913  39.808   0.511
 5579W        W76179   2.239  27.535  14.990
 5580W        W76180  34.311  13.397   2.852
 5581W        W76181  19.487  32.402   1.842
 5582W        W76182  19.670  34.151  12.316
 5583W        W76183   8.935  26.056   2.353
 5584W        W76184  37.053  21.157  13.973
 5585W        W76185  35.992   3.185   4.520
 5586W        W76186   1.495  22.016   0.506
 5587W        W76187  33.626  19.056  11.245
 5588W        W76188  12.427  21.202  14.949
 5589W        W76189  35.574  35.422   3.147
 5590W        W76190   6.720   4.457  11.106
 5591W        W76191  34.481  15.765   2.891
 5592W        W76192  18.589  22.945  12.913
 5593W        W76193   5.220  30.060   2.338
 5594W        W76194  25.841   3.742   0.981
 5595W        W76195  18.046  37.751  14.069
 5596W        W76196  30.849  19.499  14.057
 5597W        W76197  16.239  40.470   1.448
 5598W        W76198  16.007  17.454  13.447
 5599W        W76199  10.217  24.984   2.240
 5600W        W76200  21.508  25.669   0.889
 5601W        W76201  39.576  13.733   1.000
 5602W        W76202   4.231  19.464  10.947
 5603W        W76203  37.174  42.831  12.972
 5604W        W76204  11.320  40.000  14.762
 5605W        W76205   6.253  20.012  10.723
 5606W        W76206  19.559  16.423  14.001
 5607W        W76207   9.854   0.393  10.830
 5608W        W76208  39.000  31.854  12.010
 5609W        W76209   4.862   6.647   4.057
 5610W        W76210  12.704  16.327  14.114
 5611W        W76211   4.279  17.577  10.779
 5612W        W76212  22.579   6.932  14.573
 5613W        W76213   7.842  15.311  10.264
 5614W        W76214  10.881  18.100  11.526
 5615W        W76215  33.898  25.104  12.908
 5616W        W76216   7.924   3.424  13.909
 5617W        W76217  36.397  24.438   0.344
 5618W        W76218  29.370  14.650   3.415
 5619W        W76219  24.595  35.591   2.884
 5620W        W76220  29.860  42.071   2.587
 5621W        W76221  29.770  21.097   2.505
 5622W        W76222  26.967  15.147  14.885
 5623W        W76223  33.952  19.454   1.387
 5624W        W76224  30.280  37.204   1.250
 5625W        W76225   6.269  11.660   4.776
 5626W        W76226  22.118  17.515   2.906
 5627W        W76227  16.087  44.084   0.937
 5628W        W76228  11.754  34.045   0.917
 5629W        W76229  36.087   8.147  12.888
 5630W        W76230  25.500  27.056  10.698
 5631W        W76231  12.513   7.567   1.886
 5632W        W76232  21.903   5.368  12.839
 5633W        W76233  43.932  17.714  12.157
 5634W        W76234  34.856   3.897   3.877
 5635W        W76235  13.174  20.367   1.925
 5636W        W76236  35.094  18.666  11.286
 5637W        W76237  38.457  27.733  13.564
 5638W        W76238  36.969   6.355   4.034
 5639W        W76239  15.238  37.953   1.662
 5640W        W76240  19.463  24.751  11.130
 5641W        W76241  13.843  40.798   3.564
 5642W        W76242  41.238  41.771   0.868
 5643W        W76243  29.447  32.052   2.698
 5644W        W76244  34.772   7.441   0.940
 5645W        W76245  31.408  19.732   3.181
 5646W        W76246  17.073   2.566  13.420
 5647W        W76247  21.637  30.966   3.101
 5648W        W76248   5.222  26.523  11.011
 5649W        W76249  35.091   3.095   1.234
 5650W        W76250   3.014  15.326  14.802
 5651W        W76251  33.861  11.052   3.870
 5652W        W76252  17.244  24.970  11.505
 5653W        W76253  10.856   1.445  14.408
 5654W        W76254   6.603  39.478   4.466
 5655W        W76255  10.952  30.689  13.778
 5656W        W76256  14.250   0.954  10.550
 5657W        W76257  38.044  40.394  11.960
 5658W        W76258  19.154  36.409   2.909
 5659W        W76259   2.844  20.104   4.951
 5660W        W76260  23.517  16.852  14.997
 5661W        W76261  39.460   4.673   1.717
 5662W        W76262  27.099  33.370  13.765
 5663W        W76263   7.435  43.834  14.342
 5664W        W76264   6.684  18.580  14.774
 5665W        W76265   1.941  18.350   1.961
 5666W        W76266  33.244  16.685   4.748
 5667W        W76267  24.993  11.774  12.032
 5668W        W76268   5.450  22.026   1.889
 5669W        W76269  24.175  20.094   0.287
 5670W        W76270  40.359  41.003  12.352
 5671W        W76271  10.343   2.215   3.086
 5672W        W76272  22.590  27.604  13.568
 5673W        W76273  34.432  15.713   2.373
 5674W        W76274   9.331   0.310   4.340
 5675W        W76275  37.725   3.332  11.903
 5676W        W76276   0.082  35.937  14.058
 5677W        W76277  19.187  26.377  11.531
 5678W        W76278  27.162  34.389  14.022
 5679W        W76279   6.350   9.289  14.113
 5680W        W76280  38.021  17.659   0.478
 5681W        W76281  20.820  28.442   4.660
 5682W        W76282   3.820  25.584  12.632
 5683W        W76283  33.975   3.544   5.228
 5684W        W76284  24.530  13.411  10.532
 5685W        W76285  37.770  19.669  13.372
 5686W        W76286  25.676  30.556  11.184
 5687W        W76287   5.732  29.931  10.625
 5688W        W76288  35.135  24.005  14.689
 5689W        W76289   8.330  33.552   2.636
 5690W        W76290   9.948   3.114   3.374
 5691W        W76291  21.643  36.014   0.994
 5692W        W76292   3.005  41.991  14.461
 5693W        W76293  34.186   6.485  12.542
 5694W        W76294   3.911  31.091   3.152
 5695W        W76295   1.688  41.378   0.265
 5696W        W76296  11.431   1.908  11.890
 5697W        W76297  14.765   1.203   3.927
 5698W        W76298  32.085   0.524   3.571
 5699W        W76299  28.164  12.868   0.697
 5700W        W76300  39.208  13.752  13.509
 5701W        W76301  43.766  31.862   3.225
 5702W        W76302  13.887   8.229  11.446
 5703W        W76303  31.204   1.244   2.873
 5704W        W76304  14.611  16.295  12.060
 5705W        W76305   4.410  26.102   1.845
 5706W        W76306  12.767  34.028   1.879
 5707W        W76307  27.347  10.788  14.088
 5708W        W76308   0.054  20.997  11.970
 5709W        W76309  42.282  31.322   4.087
 5710W        W76310  22.633   0.466  12.635
 5711W        W76311  31.547   4.911  13.560
 5712W        W76312  13.389  38.343  12.446
 5713W        W76313  34.062   0.508  11.205
 5714W        W76314  25.916  28.735   2.388
 5715W        W76315  12.490   1.160  10.905
 5716W        W76316   5.735  44.838   1.913
 5717W        W76317  37.110  28.452   3.546
 5718W        W76318  36.005  44.420  14.517
 5719W        W76319  14.238  38.770   3.888
 5720W        W76320  27.224  22.211  10.618
 5721W        W76321   6.790  27.213  14.843
 5722W        W76322   7.691  39.422  14.119
 5723W        W76323  15.794  10.866  14.345
 5724W        W76324  12.444  29.947   0.946
 5725W        W76325  36.988  25.246   3.700
 5726W        W76326   4.972  35.940   1.422
 5727W        W76327   1.773  26.423   2.364
 5728W        W76328  44.798  18.055   3.240
 5729W        W76329  39.435  39.880   2.145
 5730W        W76330  43.705  44.267   1.840
 5731W        W76331   7.296  41.909   1.487
 5732W        W76332   6.299  11.438  13.358
 5733W        W76333   2.498   8.675  11.666
 5734W        W76334  26.915  34.994  10.681
 5735W        W76335  36.072  16.754   0.956
 5736W        W76336  27.925   5.193   0.913
 5737W        W76337  43.459  16.195  14.052
 5738W        W76338  25.411  40.408  12.284
 5739W        W76339   2.107  23.416  11.141
 5740W        W76340  26.242  25.988  10.448
 5741W        W76341  30.554  19.618   4.614
 5742W        W76342  30.061  34.322  11.812
 5743W        W76343  29.026   3.621   0.119
 5744W        W76344  33.691   9.829   2.727
 5745W        W76345  38.659   4.987  13.001
 5746W        W76346  12.154  14.321   4.614
 5747W        W76347   8.244  20.760  14.733
 5748W        W76348  28.503   8.371  11.428
 5749W        W76349  19.293   9.149   1.420
 5750W        W76350  38.351  41.537  14.820
 5751W        W76351  37.539  18.252   0.722
 5752W        W76352  40.873  18.225   2.895
 5753W        W76353  17.831  23.955  11.166
 5754W        W76354  14.809  27.689  14.852
 5755W        W76355  33.380  32.512  11.952
 5756W        W76356  18.114   6.033  12.069
 5757W        W76357  38.986   3.743   2.921
 5758W        W76358  24.200  32.197   2.442
 5759W        W76359   4.369   5.715  13.633
 5760W        W76360  10.937   7.183  13.382
 5761W        W76361  15.311  41.414  14.727
 5762W        W76362  35.838  24.298  11.530
 5763W        W76363   7.603  38.624  11.994
 5764W        W76364  13.626   3.880   0.815
 5765W        W76365  14.229   2.785  13.002
 5766W        W76366  11.887  13.927  12.882
 5767W        W76367   3.744  14.885   0.948
 5768W        W76368  12.076   3.167  11.396
 5769W        W76369  20.794   9.746  11.714
 5770W        W76370  27.097  29.189  11.982
 5771W        W76371  25.556  36.890   4.719
 5772W        W76372  29.862  41.549   2.574
 5773W        W76373  25.144   2.890   3.678
 5774W        W76374  40.837   8.390   3.216
 5775W        W76375  27.497   9.157   4.509
 5776W        W76376   4.024   4.839   3.336
 5777W        W76377  42.749   1.518   0.923
 5778W        W76378   3.286  31.396  12.598
 5779W        W76379  15.290  25.700  11.206
 5780W        W76380  31.940  41.834  11.518
 5781W        W76381  43.707  28.243   0.297
 5782W        W76382  24.509  42.511  11.752
 5783W        W76383  21.779  12.128  10.434
 5784W        W76384  36.724  39.998  10.823
 5785W        W76385  43.166   2.260   0.966
 5786W        W76386  39.833  19.641   1.840
 5787W        W76387  40.535  37.812  14.302
 5788W        W76388  34.723  31.154   3.749
 5789W        W76389   2.144  17.081  14.024
 5790W        W76390   2.397  34.619   3.220
 5791W        W76391  35.461  25.044   0.807
 5792W        W76392  25.790  26.062   2.756
 5793W        W76393  19.165  19.520  13.874
 5794W        W76394  19.673  36.523   1.264
 5795W        W76395  34.032  35.080   2.756
 5796W        W76396  38.696  27.125   3.787
 5797W        W76397  30.566  26.417  10.403
 5798W        W76398  39.959  21.692  10.779
 5799W        W76399   8.619   1.812  10.058
 5800W        W76400   1.202  28.708  11.415
 5801W        W76401   0.988   7.325   2.454
 5802W        W76402  15.010  38.536   1.405
 5803W        W76403  28.777  17.336   0.320
 5804W        W76404  16.814   1.984   9.759
 5805W        W76405  33.458  25.042  10.587
 5806W        W76406  18.514  16.324  14.918
 5807W        W76407  39.850   5.947   1.666
 5808W        W76408  16.072  30.490  14.174
 5809W        W76409  34.411  15.390  13.447
 5810W        W76410  16.792  20.101  12.318
 5811W        W76411  13.652   9.647  11.677
 5812W        W76412   3.756  40.083   4.220
 5813W        W76413   3.502  10.288   4.761
 5814W        W76414  13.296  33.204   2.780
 5815W        W76415  21.532  16.779  12.933
 5816W        W76416  27.979  10.017  12.063
 5817W        W76417   9.959   0.205   0.687
 5818W        W76418   2.774  33.303   3.587
 5819W        W76419  26.035  32.440   0.044
 5820W        W76420  29.094   5.744   3.346
 5821W        W76421  14.276  25.173  14.304
 5822W        W76422   3.281  43.076   3.200
 5823W        W76423  36.046  22.662   3.055
 5824W        W76424  27.565   8.819   1.579
 5825W        W76425  41.315   1.918  13.496
 5826W        W76426  44.045  41.515  11.527
 5827W        W76427   3.931  19.024   4.681
 5828W        W76428  21.647  32.577  14.400
 5829W        W76429  39.860   7.423   0.862
 5830W        W76430  18.647  30.580  11.872
 5831W        W76431  34.489  23.817   3.131
 5832W        W76432  41.240  39.803  10.672
 5833W        W76433   3.167  32.148   2.852
 5834W        W76434  24.725   4.943   3.764
 5835W        W76435   8.249   9.151  14.922
 5836W        W76436   9.761  42.287  14.733
 5837W        W76437  25.626  23.626  11.725
 5838W        W76438  37.616   4.370   3.712
 5839W        W76439  12.311   1.321   3.957
 5840W        W76440  43.257  34.921   2.986
 5841W        W76441  22.669  11.800   0.762
 5842W        W76442   8.819  17.282  13.881
 5843W        W76443  36.162  29.051  13.425
 5844W        W76444  22.117  23.015   3.674
 5845W        W76445  28.177  17.354   2.786
 5846W        W76446  13.101  44.705  14.562
 5847W        W76447  43.785  22.323   4.508
 5848W        W76448  10.642  33.953  12.821
 5849W        W76449  40.153  43.668   3.914
 5850W        W76450  41.926  14.523  13.858
 5851W        W76451  15.684   8.222  10.430
 5852W        W76452  42.321  34.192   0.792
 5853W        W76453   2.834  38.305   3.866
 5854W        W76454  42.198  12.373   3.338
 5855W        W76455   2.310  27.126   3.679
 5856W        W76456   3.474   6.324  10.291
 5857W        W76457   2.452  19.210   4.879
 5858W        W76458   9.311  24.550  10.821
 5859W        W76459  33.378   0.342   2.256
 5860W        W76460  11.391   3.235   4.288
 5861W        W76461  30.749   7.953   4.132
 5862W        W76462   8.870  44.218  12.102
 5863W        W76463  31.094  17.587  13.719
 5864W        W76464   6.984  21.250   4.437
 5865W        W76465   3.896  26.063  12.521
 5866W        W76466   3.573  33.694  10.153
 5867W        W76467  26.692  23.478   2.156
 5868W        W76468  39.584  35.466  12.068
 5869W        W76469  14.343   8.175  10.726
 5870W        W76470  35.113  40.992  11.529
 5871W        W76471  34.832  40.747  13.441
 5872W        W76472  35.932  11.797  13.545
 5873W        W76473  35.623  29.496  11.380
 5874W        W76474   8.973  44.431  10.523
 5875W        W76475   6.452  36.582   1.382
 5876W        W76476  40.356  17.771   1.711
 5877W        W76477  23.184  42.817   3.733
 5878W        W76478  14.147  28.430  12.980
 5879W        W76479   5.597  20.787  13.028
 5880W        W76480   1.407  12.334   2.262
 5881W        W76481   6.364  20.577   2.154
 5882W        W76482   2.854  28.146  13.020
 5883W        W76483   6.199   8.704  10.726
 5884W        W76484  35.439   5.190   0.828
 5885W        W76485  39.921  29.860  12.034
 5886W        W76486   1.046  39.530   2.747
 5887W        W76487  38.915  15.780  11.377
 5888W        W76488   7.377  20.482   4.537
 5889W        W76489   5.626  22.757   3.247
 5890W        W76490  44.254  25.156   4.774
 5891W        W76491  36.080  14.731  11.889
 5892W        W76492  37.566   6.005   0.258
 5893W        W76493  44.378  17.831  13.046
 5894W        W76494   4.271  25.401  13.350
 5895W        W76495   4.761  10.035   1.242
 5896W        W76496   3.250   9.385   1.660
 5897W        W76497  37.782  41.405   4.032
 5898W        W76498  37.017   4.723   4.150
 5899W        W76499   5.514  25.031  11.698
 5900W        W76500  33.463   0.834   0.796
 5901W        W76501   8.718  33.607   0.775
 5902W        W76502  42.522  43.369   2.403
 5903W        W76503  12.371   3.160   0.225
 5904W        W76504  34.007   8.836   0.220
 5905W        W76505   9.275  37.115   3.140
 5906W        W76506  17.381  37.051  10.537
 5907W        W76507   1.639   2.291   0.685
 5908W        W76508  10.660  14.311   1.851
 5909W        W76509   8.101  27.126   2.391
 5910W        W76510   3.592  27.060  13.314
 5911W        W76511  18.648  22.674   4.972
 5912W        W76512  26.048  10.284  11.024
 5913W        W76513  31.569  29.962   0.515
 5914W        W76514  23.527  15.188   0.751
 5915W        W76515  16.763  14.577  12.410
 5916W        W76516  31.471  17.549   4.620
 5917W        W76517  12.637  31.982  12.604
 5918W        W76518   7.293  44.550  13.451
 5919W        W76519  26.237  39.017  12.975
 5920W        W76520  14.667  24.943   1.773
 5921W        W76521  14.658   4.378   0.885
 5922W        W76522  23.289  30.560  13.543
 5923W        W76523  36.364   2.448  13.572
 5924W        W76524  29.962  31.900  11.177
 5925W        W76525   1.196  17.358  14.968
 5926W        W76526  15.528  27.426   3.949
 5927W        W76527   5.263   0.379   1.188
 5928W        W76528  24.674  27.333   2.191
 5929W        W76529  13.744  19.797  14.789
 5930W        W76530  44.837  40.071   4.030
 5931W        W76531  15.065  14.250  14.318
 5932W        W76532  40.795   0.768   4.061
 5933W        W76533  36.539  10.047  13.526
 5934W        W76534  25.731  38.460  13.940
 5935W        W76535  13.920  35.511  11.953
 5936W        W76536   6.626  41.038  10.734
 5937W        W76537  10.161   8.677   2.120
 5938W        W76538  19.840  17.326  13.873
 5939W        W76539  26.012   5.628  14.859
 5940W        W76540  10.735  42.302   4.395
 5941W        W76541  41.100  30.194  14.449
 5942W        W76542   8.767  44.769   4.092
 5943W        W76543  36.051  21.970   0.538
 5944W        W76544  43.512  33.593  10.674
 5945W        W76545  24.973  39.220   3.171
 5946W        W76546  33.368  11.405   0.196
 5947W        W76547  33.842  10.733  12.918
 5948W        W76548   4.874   4.261   3.896
 5949W        W76549  21.439  26.223  12.884
 5950W        W76550  44.324  13.247   1.786
 5951W        W76551   2.046  13.335  14.362
 5952W        W76552  44.526  16.817   3.157
 5953W        W76553  35.061  26.173  12.517
 5954W        W76554  35.838  29.450  14.490
 5955W        W76555  12.940  11.052   1.384
 5956W        W76556   8.945   9.226  11.168
 5957W        W76557   8.227   4.913  13.398
 5958W        W76558  30.183   9.133  11.176
 5959W        W76559  39.637  34.354  14.063
 5960W        W76560   3.419  23.972   2.428
 5961W        W76561  33.536   8.725  12.900
 5962W        W76562   2.873   0.183   1.944
 5963W        W76563  26.980  19.175   4.610
 5964W        W76564  43.800   1.300  11.575
 5965W        W76565   0.870   2.193   1.809
 5966W        W76566   2.211  41.240  11.197
 5967W        W76567  28.440  26.757   1.259
 5968W        W76568  10.159   8.952   0.636
 5969W        W76569   3.788   6.837   4.319
 5970W        W76570  29.501   1.852   3.146
 5971W        W76571  28.251   0.050   3.965
 5972W        W76572  22.107   0.876  13.902
 5973W        W76573   7.926  19.080  14.982
 5974W        W76574  34.902  29.509  10.845
 5975W        W76575  13.243   7.443   0.884
 5976W        W76576  22.676  44.436  13.464
 5977W        W76577  36.497  26.742   4.086
 5978W        W76578  12.069  28.671  12.442
 5979W        W76579   5.325  21.117   1.930
 5980W        W76580  28.884  41.536   1.142
 5981W        W76581  30.906  17.008   3.898
 5982W        W76582  22.372   8.152   1.500
 5983W        W76583  38.310  17.788   3.739
 5984W        W76584  31.268  30.976   0.914
 5985W        W76585  20.976  16.211   3.108
 5986W        W76586  10.968  33.019  12.814
 5987W        W76587   0.027  38.831   3.689
 5988W        W76588   9.112   7.259  12.550
 5989W        W76589  18.245  30.454  14.281
 5990W        W76590   9.887  10.302   2.432
 5991W        W76591   6.111  40.598   2.204
 5992W        W76592  22.763   4.013   3.820
 5993W        W76593  16.334  23.691  11.470
 5994W        W76594  30.279   3.944   1.479
 5995W        W76595  33.562  13.619   3.166
 5996W        W76596   0.364  30.163   4.100
 5997W        W76597   3.733   7.856   3.829
 5998W        W76598  36.565  39.517  10.733
 5999W        W76599  21.530  22.018   1.717
 6000W        W76600  15.219   1.839  12.049
 6001W        W76601  17.728  38.317  13.540
 6002W        W76602  20.696   5.611   3.972
 6003W        W76603   6.138  36.548   4.208
 6004W        W76604   4.375  26.167  10.849
 6005W        W76605  19.692  14.347  13.155
 6006W        W76606  44.290  30.436   2.308
 6007W        W76607  14.272  35.299   4.584
 6008W        W76608   6.883  21.648   2.809
 6009W        W76609   4.343  25.413   1.783
 6010W        W76610  19.143  22.515  13.773
 6011W        W76611   2.317   1.693   0.031
 6012W        W76612  23.264   4.008   3.680
 6013W        W76613  30.950   3.239  11.148
 6014W        W76614  38.920  33.342  10.115
 6015W        W76615  21.340  28.499  10.938
 6016W        W76616  41.885  33.946   0.786
 6017W        W76617   8.216  12.870   3.661
 6018W        W76618  14.380  35.642  12.129
 6019W        W76619  37.201  39.764  12.057
 6020W        W76620  12.780  13.897  11.144
 6021W        W76621  30.347  36.035  14.660
 6022W        W76622  22.781  30.603  13.513
 6023W        W76623  39.415   6.814   2.377
 6024W        W76624   9.026  15.818   3.250
 6025W        W76625  44.150  33.900   1.424
 6026W        W76626  13.886  18.079   0.964
 6027W        W76627  40.540  17.580  13.362
 6028W        W76628  23.247  42.746  11.000
 6029W        W76629   7.797   5.370  13.823
 6030W        W76630   8.631  29.583   1.127
 6031W        W76631  16.494  39.944  12.492
 6032W        W76632  14.697  30.869   0.404
 6033W        W76633   5.547   3.384  11.079
 6034W        W76634  12.407  11.383  13.460
 6035W        W76635  44.170  22.111   3.571
 6036W        W76636  12.561  31.683   2.371
 6037W        W76637   1.996  22.033  14.473
 6038W        W76638  38.435  42.589   1.124
 6039W        W76639   6.583  29.960   0.898
 6040W        W76640  13.420  24.646   4.253
 6041W        W76641   1.539   8.904  13.049
 6042W        W76642   1.772   1.578  12.806
 6043W        W76643  32.128  42.257   0.417
 6044W        W76644  10.581   1.136   4.062
 6045W        W76645  11.831   7.309   0.194
 6046W        W76646  29.455  16.034   1.419
 6047W        W76647  32.778  32.705  14.411
 6048W        W76648  22.215  10.367   5.486
 6049W        W76649   3.650   9.334  14.509
 6050W        W76650  29.005  14.959  11.991
 6051W        W76651  39.948  32.377  12.882
 6052W        W76652  30.387  10.314   2.755
 6053W        W76653  38.433  25.903   0.607
 6054W        W76654  42.347  36.643   0.015
 6055W        W76655   4.170  20.069   3.362
 6056W        W76656  21.575  34.476  12.179
 6057W        W76657  12.126   8.058  12.397
 6058W        W76658  29.915  33.409  12.491
 6059W        W76659  22.610  38.172  12.401
 6060W        W76660  35.022  24.194  12.234
 6061W        W76661  16.631  12.591   1.642
 6062W        W76662  15.914  36.538   2.149
 6063W        W76663   3.695   2.716  13.002
 6064W        W76664  27.467  38.275  11.166
 6065W        W76665   6.194  30.107  13.438
 6066W        W76666  19.906   5.627   3.047
 6067W        W76667   7.725  21.170  10.845
 6068W        W76668  42.057   7.446  12.371
 6069W        W76669  44.966  26.781   3.225
 6070W        W76670  17.956  13.860   2.385
 6071W        W76671  20.696   8.137   1.414
 6072W        W76672  20.412  41.518  11.199
 6073W        W76673   6.224  32.177  10.767
 6074W        W76674  10.383  17.769   2.007
 6075W        W76675  10.386  20.063  13.062
 6076W        W76676  38.963  28.556   4.667
 6077W        W76677   1.851  11.498  13.415
 6078W        W76678  23.316  33.281   4.286
 6079W        W76679  34.382  33.932   1.164
 6080W        W76680  11.358  31.645  13.458
 6081W        W76681  26.897  19.958   4.194
 6082W        W76682   2.505  10.458  12.903
 6083W        W76683  17.988  15.595  12.707
 6084W        W76684   8.165   1.647  14.897
 6085W        W76685  35.442   0.217   2.376
 6086W        W76686   7.198  40.515  14.373
 6087W        W76687  27.970  33.452   0.475
 6088W        W76688  36.058  17.604  14.837
 6089W        W76689  20.956  35.338   4.076
 6090W        W76690  11.107  43.872  10.718
 6091W        W76691  44.644  31.624  11.124
 6092W        W76692   6.620  41.529  14.352
 6093W        W76693  16.632  29.727   4.648
 6094W        W76694   2.732  28.335  11.644
 6095W        W76695  35.759  40.407  11.807
 6096W        W76696  20.667  37.514  10.182
 6097W        W76697  22.011  30.220  12.546
 6098W        W76698  24.707   8.613   2.329
 6099W        W76699  30.936  28.774  11.957
 6100W        W76700  12.056   5.395   3.179
 6101W        W76701  16.093  38.062  12.549
 6102W        W76702  32.131   0.851  13.929
 6103W        W76703   3.896   3.630  13.948
 6104W        W76704   0.333  44.260  13.054
 6105W        W76705  30.919  25.134   4.134
 6106W        W76706   5.074  24.958   2.390
 6107W        W76707  23.810  24.148   4.390
 6108W        W76708  33.079  34.877   4.441
 6109W        W76709  32.665  27.552  12.308
 6110W        W76710  38.558   4.013   4.611
 6111W        W76711  44.119  23.119   3.981
 6112W        W76712  24.630   6.766  13.010
 6113W        W76713  25.829  29.468  13.929
 6114W        W76714  30.950  12.380  14.944
 6115W        W76715  22.211  30.699  12.607
 6116W        W76716  20.060  40.707  10.616
 6117W        W76717  26.359  42.802   3.480
 6118W        W76718  34.031  43.996  12.024
 6119W        W76719  24.447  36.435  13.941
 6120W        W76720  12.862  41.426   0.015
 6121W        W76721  17.321  19.803  14.274
 6122W        W76722   2.345  10.283   5.410
 6123W        W76723  15.516  16.620  14.447
 6124W        W76724  39.302  19.814   1.218
 6125W        W76725  16.572   6.938  14.855
 6126W        W76726  39.982   8.677   1.537
 6127W        W76727  17.380  25.614   1.194
 6128W        W76728  26.981  33.210  14.264
 6129W        W76729  41.606  13.648   3.853
 6130W        W76730  10.899   4.356  11.062
 6131W        W76731  32.279  18.107  12.624
 6132W        W76732  13.131   9.130  13.953
 6133W        W76733  42.064  35.579  10.350
 6134W        W76734   7.117   3.678   3.074
 6135W        W76735  30.653  43.103   3.799
 6136W        W76736  19.565  31.011   4.738
 6137W        W76737  15.732   5.728   1.275
 6138W        W76738  42.073  29.678   1.133
 6139W        W76739  24.606  37.435   3.138
 6140W        W76740  30.982   5.785   4.251
 6141W        W76741  21.807  17.972   1.843
 6142W        W76742   7.594   2.060   5.041
 6143W        W76743   7.341  24.864  12.078
 6144W        W76744  25.400  25.080   0.613
 6145W        W76745  32.694  16.832   1.646
 6146W        W76746  10.891  44.502  12.204
 6147W        W76747  25.000  14.260   1.260
 6148W        W76748  25.818  44.915   1.841
 6149W        W76749  24.067  16.096   4.559
 6150W        W76750  29.833   9.679   0.816
 6151W        W76751  27.111  13.848  13.619
 6152W        W76752  16.958   6.417   2.383
 6153W        W76753  14.306   4.374  13.834
 6154W        W76754  40.587  35.392  11.170
 6155W        W76755  44.682   8.468  11.439
 6156W        W76756  20.234  10.912  12.536
 6157W        W76757  37.435   1.823  14.040
 6158W        W76758  16.078  12.670   5.055
 6159W        W76759   0.612   8.790   2.837
 6160W        W76760   3.152   2.694  11.109
 6161W        W76761  41.442  26.739  12.532
 6162W        W76762  26.520  31.542   4.557
 6163W        W76763  37.792  10.183   3.320
 6164W        W76764  36.031  40.559  11.398
 6165W        W76765   3.930  37.759   2.462
 6166W        W76766  38.368  31.090   1.627
 6167W        W76767  22.444   7.683  12.968
 6168W        W76768  33.581  40.518  14.796
 6169W        W76769  22.747  30.604  12.631
 6170W        W76770  24.884   0.825   3.561
 6171W        W76771  30.167   9.945  10.605
 6172W        W76772   0.859   4.687  10.641
 6173W        W76773  16.059  33.402   4.111
 6174W        W76774  38.948  36.629  10.482
 6175W        W76775  23.709  12.448  12.948
 6176W        W76776  24.372  17.998  12.055
 6177W        W76777  43.681  21.080   2.722
 6178W        W76778  16.760  44.721  14.030
 6179W        W76779   7.721  34.591   2.690
 6180W        W76780  38.084  22.083  13.536
 6181W        W76781  10.164  30.223  13.433
 6182W        W76782  32.526   5.762   0.317
 6183W        W76783  40.517  11.022  11.267
 6184W        W76784  33.060  44.515  11.452
 6185W        W76785  20.768  38.432  14.067
 6186W        W76786  18.041  42.080  10.682
 6187W        W76787   4.741  12.411  14.014
 6188W        W76788  26.657  36.675   2.127
 6189W        W76789  32.712  38.726   0.046
 6190W        W76790  14.141   0.692   1.741
 6191W        W76791  12.168  41.016   4.552
 6192W        W76792   4.192  17.552   2.185
 6193W        W76793   0.458   3.191   0.911
 6194W        W76794   0.058  27.275   3.109
 6195W        W76795  22.144  40.915   2.884
 6196W        W76796  23.934  22.967  12.909
 6197W        W76797  20.524  23.026   1.319
 6198W        W76798  34.910  29.618   3.370
 6199W        W76799  41.394  33.075   3.602
 6200W        W76800  42.135  23.599   3.735
 6201W        W76801  27.515  19.797   4.683
 6202W        W76802  19.535  23.610  14.470
 6203W        W76803  30.196  10.640  12.865
 6204W        W76804   9.350   0.178  13.987
 6205W        W76805  37.330  10.277  11.538
 6206W        W76806  41.192  10.076   2.065
 6207W        W76807  17.798  36.102  13.454
 6208W        W76808   5.846   0.938   1.185
 6209W        W76809  30.171  30.992  14.521
 6210W        W76810  42.838  39.017   1.555
 6211W        W76811   7.995   2.687  12.786
 6212W        W76812  28.937   0.175   3.146
 6213W        W76813   2.963  26.489   3.208
 6214W        W76814  35.292  10.062   3.170
 6215W        W76815  39.227  13.660   2.009
 6216W        W76816   5.533   7.979  14.805
 6217W        W76817  22.018  39.478   1.099
 6218W        W76818  29.707   9.773  10.770
 6219W        W76819  42.828  20.751  12.833
 6220W        W76820  38.545  23.733  11.607
 6221W        W76821  32.683  39.357   2.414
 6222W        W76822  37.393   8.250   3.328
 6223W        W76823  22.574  25.026   2.961
 6224W        W76824  13.107   4.910  11.660
 6225W        W76825   9.187  16.355   3.199
 6226W        W76826   7.693   9.673  11.545
 6227W        W76827  44.069  21.720  10.331
 6228W        W76828  25.862  39.282  10.306
 6229W        W76829  23.538  44.172   2.302
 6230W        W76830  31.100  13.545   2.380
 6231W        W76831  31.066  11.450   4.699
 6232W        W76832   3.888  37.989  11.517
 6233W        W76833  32.007   7.320   3.291
 6234W        W76834  36.973   0.711  13.072
 6235W        W76835  21.602  22.283   2.719
 6236W        W76836  43.848  20.600   2.345
 6237W        W76837  42.461   6.153   2.780
 6238W        W76838   0.481  26.500  14.393
 6239W        W76839  24.731   9.116   0.198
 6240W        W76840   5.758  36.062  11.678
 6241W        W76841  11.241   2.763  10.528
 6242W        W76842  15.051  11.851   0.718
 6243W        W76843  34.974   6.164  12.806
 6244W        W76844   8.843   3.918   0.491
 6245W        W76845   4.027  12.872  10.000
 6246W        W76846  20.539   5.703   4.955
 6247W        W76847  12.609  14.710   0.062
 6248W        W76848   1.942  10.355   0.762
 6249W        W76849   3.673   9.295   1.939
 6250W        W76850  24.228  27.765  12.501
 6251W        W76851  12.518  44.986  13.508
 6252W        W76852  28.199  19.701   1.124
 6253W        W76853  36.378  17.812  13.573
 6254W        W76854  28.727  16.690   4.274
 6255W        W76855  14.846   9.236  11.955
 6256W        W76856  12.947  29.137  12.296
 6257W        W76857   1.790  26.969   3.246
 6258W        W76858  35.068  41.366   5.042
 6259W        W76859  40.179  35.521   3.606
 6260W        W76860   1.052   4.200   3.630
 6261W        W76861  14.601  18.122   3.643
 6262W        W76862   2.622  21.314   4.394
 6263W        W76863   9.203  13.115   0.333
 6264W        W76864  16.046   0.877  10.732
 6265W        W76865  26.684  36.417   1.309
 6266W        W76866  43.278  10.617   2.829
 6267W        W76867   6.899  38.333   4.426
 6268W        W76868  25.936  39.263  13.742
 6269W        W76869  13.256   1.332  10.672
 6270W        W76870  34.878  32.983   3.252
 6271W        W76871  30.420  26.161  11.838
 6272W        W76872   8.102  19.523   0.728
 6273W        W76873  42.248  10.698  10.693
 6274W        W76874   1.917  25.205   4.707
 6275W        W76875   8.150  33.921  12.545
 6276W        W76876   0.919  42.435  14.594
 6277W        W76877   1.491  40.814   0.265
 6278W        W76878  34.358  16.757  11.074
 6279W        W76879  10.292  11.737   3.547
 6280W        W76880  14.527  11.386   2.102
 6281W        W76881  20.550   2.402  14.117
 6282W        W76882  10.587  41.295  12.975
 6283W        W76883  20.321   6.896   1.642
 6284W        W76884  36.166  16.300  13.410
 6285W        W76885  40.404  43.307  13.339
 6286W        W76886  35.486  38.284  12.809
 6287W        W76887   0.912  37.074  11.490
 6288W        W76888  20.117  38.517  13.761
 6289W        W76889   8.648  24.113   1.392
 6290W        W76890   7.283  27.730   3.177
 6291W        W76891   4.940  32.308   2.368
 6292W        W76892  30.356  15.206   1.129
 6293W        W76893   9.837  23.571  13.619
 6294W        W76894  30.361   7.675  12.265
 6295W        W76895  18.089  42.365  14.962
 6296W        W76896  39.999  22.532   3.152
 6297W        W76897   5.873  26.626   3.694
 6298W        W76898   8.474  16.216   3.891
 6299W        W76899  22.503  29.564   0.769
 6300W        W76900  43.968   4.858  11.141
 6301W        W76901   3.893  33.580   2.682
 6302W        W76902  26.440  38.872  12.520
 6303W        W76903  15.560   8.295  13.772
 6304W        W76904  33.456  13.219   0.820
 6305W        W76905  43.389   9.394  11.438
 6306W        W76906  44.415  31.206  12.907
 6307W        W76907  31.986  40.309   1.260
 6308W        W76908   3.972  18.013  10.892
 6309W        W76909  37.003  19.789   3.236
 6310W        W76910   5.422  19.667   0.505
 6311W        W76911  17.163  22.077  12.201
 6312W        W76912  24.296  15.675   3.336
 6313W        W76913  37.264  26.882  10.775
 6314W        W76914   1.329  28.436  10.589
 6315W        W76915   2.836  29.197   1.010
 6316W        W76916  35.991   9.227   4.818
 6317W        W76917  43.971  22.250   3.109
 6318W        W76918   1.392  39.897   1.238
 6319W        W76919  40.545  24.821   4.745
 6320W        W76920   2.674  39.873  11.978
 6321W        W76921   3.657  30.916   2.359
 6322W        W76922  28.047  27.016  11.119
 6323W        W76923  39.408  34.175  13.340
 6324W        W76924  16.506  19.856  14.014
 6325W        W76925  37.695   4.261  14.931
 6326W        W76926  42.557  32.535   3.292
 6327W        W76927  29.359  37.211   4.006
 6328W        W76928  37.348  19.232  10.464
 6329W        W76929  32.585  30.992  11.604
 6330W        W76930  19.748   9.650  13.426
 6331W        W76931  32.430   9.307   4.905
 6332W        W76932  37.540  23.911   2.826
 6333W        W76933  30.411   8.405  10.687
 6334W        W76934  37.149   3.210  12.960
 6335W        W76935  39.479  18.820  13.446
 6336W        W76936   9.563  33.647   4.833
 6337W        W76937  41.836  40.899   4.567
 6338W        W76938   6.813  21.340   2.365
 6339W        W76939  11.584  18.122   0.263
 6340W        W76940   5.771  23.740   2.063
 6341W        W76941   3.124  28.195  12.554
 6342W        W76942  42.849  10.150  13.537
 6343W        W76943  10.532  35.302  12.551
 6344W        W76944   2.640  33.934  12.173
 6345W        W76945  35.978  40.367   1.413
 6346W        W76946  31.473   8.838   3.230
 6347W        W76947   6.670  35.829   3.788
 6348W        W76948   6.137  37.647  14.724
 6349W        W76949  25.290  19.101  11.703
 6350W        W76950  26.675   1.023  11.540
 6351W        W76951  25.654  10.918  13.188
 6352W        W76952  16.907  34.442   2.666
 6353W        W76953  13.194  36.333  10.589
 6354W        W76954  27.614   4.779  11.641
 6355W        W76955  25.641  44.989   1.154
 6356W        W76956  14.522   4.893   0.942
 6357W        W76957  22.525  44.190   0.957
 6358W        W76958  20.272  28.259   3.660
 6359W        W76959  29.748   5.825  13.354
 6360W        W76960  26.650  40.525   4.145
 6361W        W76961  34.773  17.901  11.551
 6362W        W76962  12.661  28.320  14.815
 6363W        W76963  35.648  18.231   1.931
 6364W        W76964  11.723  27.286  12.521
 6365W        W76965  11.823  15.662  13.454
 6366W        W76966   4.364  35.788  13.922
 6367W        W76967  37.738  39.482  14.863
 6368W        W76968  30.043  40.155   3.706
 6369W        W76969  37.493  18.756  12.198
 6370W        W76970  11.383  44.522   0.738
 6371W        W76971  29.453  37.460   0.237
 6372W        W76972  29.107   5.365  10.635
 6373W        W76973   5.124   9.428  12.470
 6374W        W76974  35.404   3.518  13.734
 6375W        W76975  42.198   1.599   1.878
 6376W        W76976  30.169  31.429  14.771
 6377W        W76977  25.220  11.698   3.158
 6378W        W76978   9.374  34.306  14.051
 6379W        W76979  18.290  28.103   4.823
 6380W        W76980   6.884  30.743   2.025
 6381W        W76981   8.470  44.861  11.714
 6382W        W76982  33.873  41.958  12.209
 6383W        W76983  16.516  21.436  14.836
 6384W        W76984  12.424  22.617   3.746
 6385W        W76985  39.505   0.929  14.222
 6386W        W76986   1.951  38.510   1.196
 6387W        W76987  31.144  26.341   4.730
 6388W        W76988  12.621  32.460   3.774
 6389W        W76989  18.497  10.205   2.073
 6390W        W76990  16.262   5.238  12.666
 6391W        W76991  33.508  40.584   4.559
 6392W        W76992  20.679  30.159   3.086
 6393W        W76993  37.583  18.628   1.859
 6394W        W76994   9.936  16.095  14.297
 6395W        W76995  32.104  10.640   3.898
 6396W        W76996  11.456   4.470  11.155
 6397W        W76997  12.834  44.490  11.352
 6398W        W76998  19.145   2.195   2.750
 6399W        W76999  21.766  24.056  11.676
 6400W        W77000  15.391  17.127  10.727
 6401W        W77001  36.477  14.719  10.489
 6402W        W77002  36.030   8.377   3.088
 6403W        W77003  21.705  37.209  12.058
 6404W        W77004  27.616  27.910  12.125
 6405W        W77005  22.476  26.974  10.774
 6406W        W77006  11.028  22.178   0.353
 6407W        W77007  21.784  36.340  14.421
 6408W        W77008   0.697   2.474   2.761
 6409W        W77009  28.843  33.481  12.509
 6410W        W77010  29.927  12.645   1.330
 6411W        W77011  21.532  22.138  12.505
 6412W        W77012  44.014  29.052   1.364
 6413W        W77013  44.532  20.810   0.374
 6414W        W77014  20.836  36.094   2.311
 6415W        W77015  18.658  14.740   1.372
 6416W        W77016  22.342  21.639   1.531
 6417W        W77017  13.878   2.527   0.932
 6418W        W77018   1.949  33.633   1.824
 6419W        W77019  25.943  30.564   4.591
 6420W        W77020  34.280   6.213   2.262
 6421W        W77021  38.654  15.017  14.745
 6422W        W77022  36.465  27.316   3.223
 6423W        W77023  24.668   7.062   3.550
 6424W        W77024  22.952  17.563  12.163
 6425W        W77025  24.081  32.322  11.001
 6426W        W77026  16.005  43.272   2.426
 6427W        W77027  24.279  42.545   3.388
 6428W        W77028  42.039  27.068   1.670
 6429W        W77029  31.218   3.884  13.568
 6430W        W77030  14.585  15.238   0.936
 6431W        W77031  24.602  11.100   1.389
 6432W        W77032  14.188  40.325  11.498
 6433W        W77033   2.897   2.219  14.373
 6434W        W77034  31.952  19.010  14.435
 6435W        W77035  30.016  14.814  14.574
 6436W        W77036  17.271   2.971  12.043
 6437W        W77037  13.863  30.716  10.681
 6438W        W77038  43.392  26.135  14.224
 6439W        W77039  15.365  20.073   3.764
 6440W        W77040  28.580   3.548   1.280
 6441W        W77041  40.288   5.742   0.801
 6442W        W77042  25.248  24.551   1.747
 6443W        W77043   3.319  22.738   2.823
 6444W        W77044  33.521  21.087  14.974
 6445W        W77045  22.028  17.434  14.226
 6446W        W77046  14.692  24.084  13.083
 6447W        W77047  21.842  30.993  12.356
 6448W        W77048   2.951  26.739  11.122
 6449W        W77049  44.405   8.412  12.578
 6450W        W77050  40.741  17.457   1.144
 6451W        W77051  28.641  27.337  11.240
 6452W        W77052  34.150  44.019   2.405
 6453W        W77053  36.491   7.119  14.912
 6454W        W77054  27.202  15.863  11.986
 6455W        W77055  17.203  27.747   4.821
 6456W        W77056  16.546   4.147   1.446
 6457W        W77057  36.526  22.981  11.851
 6458W        W77058  13.233  24.820   2.868
 6459W        W77059   0.693  30.912   0.570
 6460W        W77060   2.748  16.159  11.917
 6461W        W77061  39.319   6.650   1.413
 6462W        W77062   1.271   5.032   3.794
 6463W        W77063  28.562   1.337  12.045
 6464W        W77064   5.545   3.649  13.234
 6465W        W77065   0.922  13.093   0.061
 6466W        W77066  44.053  25.486   1.339
 6467W        W77067   6.287  20.063   2.161
 6468W        W77068  37.121  17.814  11.197
 6469W        W77069  27.509  28.862   2.350
 6470W        W77070  37.944  43.788  11.151
 6471W        W77071   7.279  19.762  12.557
 6472W        W77072  35.003  36.573  12.703
 6473W        W77073  24.907   0.021  11.723
 6474W        W77074  39.939  27.952  14.897
 6475W        W77075  18.667  17.019   0.457
 6476W        W77076  43.240  34.444  13.203
 6477W        W77077  10.820  24.394   4.956
 6478W        W77078  11.438  39.315   2.765
 6479W        W77079  20.251  18.853  12.955
 6480W        W77080  43.694   0.239  11.113
 6481W        W77081  33.056  43.542  14.091
 6482W        W77082  13.267  29.901   4.411
 6483W        W77083  15.632  21.778  11.596
 6484W        W77084  31.093  33.024   0.824
 6485W        W77085  29.508  16.510  11.638
 6486W        W77086  31.688   2.594   0.416
 6487W        W77087  30.958  38.243   4.706
 6488W        W77088  10.739   1.478   4.943
 6489W        W77089  27.647  10.589  12.717
 6490W        W77090  17.407   7.635  11.679
 6491W        W77091  17.196   0.205  10.996
 6492W        W77092   6.528  21.158  14.844
 6493W        W77093  14.649  35.412   2.726
 6494W        W77094   8.936  20.908  11.980
 6495W        W77095  41.819  27.755   4.083
 6496W        W77096  23.776   9.609   2.344
 6497W        W77097  44.912  38.754  12.590
 6498W        W77098  13.346  30.156   0.861
 6499W        W77099   2.230  44.773  10.742
 6500W        W77100  29.212   9.676  13.535
 6501W        W77101  35.935  39.510  11.662
 6502W        W77102  30.953  42.950  10.594
 6503W        W77103   4.896  19.083  14.882
 6504W        W77104  17.649   0.717  12.043
 6505W        W77105   3.279  24.366   2.102
 6506W        W77106  23.105  39.259  10.656
 6507W        W77107   0.725  22.564  11.519
 6508W        W77108  31.828  21.240  11.556
 6509W        W77109  31.306  22.627  13.834
 6510W        W77110  41.877  28.417   0.242
 6511W        W77111   5.537   6.791   2.446
 6512W        W77112  44.101   9.707  13.826
 6513W        W77113  15.172   1.675   0.274
 6514W        W77114   8.351  16.573  11.179
 6515W        W77115  42.823  17.736  12.795
 6516W        W77116   7.547   6.305   2.868
 6517W        W77117  13.634  17.030   2.655
 6518W        W77118  31.545  10.866  10.506
 6519W        W77119  21.165   3.925   2.954
 6520W        W77120  18.806  26.568   2.133
 6521W        W77121  11.262  11.860  11.951
 6522W        W77122  35.621  44.446   2.806
 6523W        W77123  38.383  21.708  12.912
 6524W        W77124  12.068   1.128   0.787
 6525W        W77125  22.326  18.274  11.129
 6526W        W77126  12.362   3.683  13.126
 6527W        W77127  43.424  36.451  14.507
 6528W        W77128  32.521  38.155  13.806
 6529W        W77129   7.142  15.090  11.464
 6530W        W77130   0.341   6.400  14.081
 6531W        W77131   7.058  21.308   3.755
 6532W        W77132  17.331   7.390  10.189
 6533W        W77133  36.940  17.602   4.218
 6534W        W77134  12.796  20.633  13.830
 6535W        W77135  19.191  35.114  12.946
 6536W        W77136  19.996   0.025   3.113
 6537W        W77137  25.108  14.324  11.222
 6538W        W77138   5.212  15.917  12.858
 6539W        W77139  27.473   7.673   0.085
 6540W        W77140   8.425  38.799  11.633
 6541W        W77141  15.096  21.649  12.000
 6542W        W77142   2.460   3.471   4.563
 6543W        W77143   7.604   2.959  12.955
 6544W        W77144  23.496  43.203   1.771
 6545W        W77145  32.510  35.641   2.418
 6546W        W77146   4.480  39.330   4.779
 6547W        W77147  35.047  44.857  11.315
 6548W        W77148   3.734  36.197   2.665
 6549W        W77149  14.894   3.011  13.598
 6550W        W77150  28.939  23.978   1.884
 6551W        W77151  20.017  21.687   2.791
 6552W        W77152   3.894   3.439   4.114
 6553W        W77153  14.162   7.443   1.356
 6554W        W77154  40.886  13.190   3.332
 6555W        W77155  15.373  38.932   5.090
 6556W        W77156  41.963   7.014   4.109
 6557W        W77157   3.503  40.799  10.852
 6558W        W77158   0.761   0.191  12.586
 6559W        W77159  44.025  21.441   4.895
 6560W        W77160  30.247   6.262   1.867
 6561W        W77161  31.453  20.334   2.771
 6562W        W77162   4.670  25.614  12.530
 6563W        W77163   1.229  41.085  13.044
 6564W        W77164   3.795   5.157  10.735
 6565W        W77165   2.187  22.557   0.345
 6566W        W77166  29.830  18.849  12.619
 6567W        W77167  43.853  36.674   2.280
 6568W        W77168   7.622   6.600   4.801
 6569W        W77169   2.273  12.068   0.768
 6570W        W77170  10.747  26.187  12.503
 6571W        W77171  13.718  39.369   2.802
 6572W        W77172  44.467  22.864   0.162
 6573W        W77173  43.251  20.196  12.521
 6574W        W77174  26.137   7.297  13.379
 6575W        W77175  15.750  24.290   2.761
 6576W        W77176  36.745  39.064  10.514
 6577W        W77177  38.474  12.515   3.605
 6578W        W77178  26.399  10.671   4.301
 6579W        W77179  34.375   2.315  12.979
 6580W        W77180  38.944  37.144  10.419
 6581W        W77181  36.929  14.557   4.913
 6582W        W77182  23.648  41.055   3.344
 6583W        W77183  35.480  25.640  12.594
 6584W        W77184  37.253  25.218  11.105
 6585W        W77185  15.828  42.247  12.823
 6586W        W77186  14.595  12.931   2.534
 6587W        W77187  29.243   7.914  14.430
 6588W        W77188  37.359  28.759   2.287
 6589W        W77189  18.084  33.913   1.074
 6590W        W77190  33.890  31.177   4.210
 6591W        W77191  32.603  20.066  10.462
 6592W        W77192  17.011  41.052   4.125
 6593W        W77193  44.053  26.346  10.847
 6594W        W77194  30.370  11.791  12.432
 6595W        W77195   0.878  34.201   4.083
 6596W        W77196  11.396   6.802  12.714
 6597W        W77197  16.892   8.306   4.031
 6598W        W77198  33.054  22.674   0.428
 6599W        W77199  24.128  13.540  14.453
 6600W        W77200  14.486  26.589   3.648
 6601W        W77201  10.400  42.759  10.651
 6602W        W77202  39.778  25.561   3.824
 6603W        W77203  17.005   4.402   1.437
 6604W        W77204  20.486  22.092  13.598
 6605W        W77205  30.514   5.272  11.535
 6606W        W77206  41.095  32.382   2.241
 6607W        W77207  22.525  37.672  12.219
 6608W        W77208  21.814  35.900  11.587
 6609W        W77209  43.634  23.964   4.034
 6610W        W77210  30.112  38.351   3.311
 6611W        W77211  12.759   9.757   4.213
 6612W        W77212   3.852   4.111  12.154
 6613W        W77213  34.085  39.757   2.188
 6614W        W77214   3.429   4.292   1.328
 6615W        W77215  28.135   3.869   5.010
 6616W        W77216   2.248  43.565  14.778
 6617W        W77217  40.833  26.269   1.790
 6618W        W77218  26.974  15.536   1.143
 6619W        W77219  19.987  44.747  12.931
 6620W        W77220  29.395  22.293   2.728
 6621W        W77221  32.579  31.815  11.983
 6622W        W77222   5.191  16.771   2.877
 6623W        W77223  23.201  34.459   1.400
 6624W        W77224  21.448   5.415   0.812
 6625W        W77225  10.077   8.437  11.146
 6626W        W77226   5.835  18.267  10.557
 6627W        W77227  42.057  30.380   9.876
 6628W        W77228  40.374  12.583  12.991
 6629W        W77229  21.601  10.213  12.596
 6630W        W77230  38.616  40.101   4.294
 6631W        W77231  18.269   0.990  11.344
 6632W        W77232  34.008  36.369   1.855
 6633W        W77233   7.723  26.025  13.263
 6634W        W77234   2.396  11.826   4.839
 6635W        W77235  14.653  12.686   1.430
 6636W        W77236  35.791  13.348   4.030
 6637W        W77237   0.864  36.149   2.781
 6638W        W77238  28.264  44.448   0.012
 6639W        W77239  32.199  19.159  11.184
 6640W        W77240   7.497  12.837  14.618
 6641W        W77241  36.108  19.968   1.742
 6642W        W77242  25.346  11.525  10.755
 6643W        W77243  11.567  32.523  11.405
 6644W        W77244  44.082  26.942   3.348
 6645W        W77245   3.473  19.131   2.418
 6646W        W77246  18.209  30.774  12.603
 6647W        W77247  40.018  12.710   1.948
 6648W        W77248  23.276   1.942   5.222
 6649W        W77249  20.548  21.196  13.519
 6650W        W77250  32.143  32.984  10.407
 6651W        W77251   3.790  23.499  12.562
 6652W        W77252  15.006  24.024   0.004
 6653W        W77253  12.775   1.044   2.018
 6654W        W77254  39.554  18.890  12.918
 6655W        W77255  42.322  21.213   0.478
 6656W        W77256   0.887   0.792  14.607
 6657W        W77257   1.440  30.935  13.721
 6658W        W77258  37.553  40.321  10.515
 6659W        W77259   2.598  32.860   1.763
 6660W        W77260  33.096   8.840   2.793
 6661W        W77261  24.444  39.965   1.168
 6662W        W77262  35.386   2.013  12.611
 6663W        W77263  38.375  13.678   1.324
 6664W        W77264  35.162  36.552  11.202
 6665W        W77265  15.418  13.801  14.536
 6666W        W77266   7.969  39.927  11.095
 6667W        W77267   1.861  19.315   1.271
 6668W        W77268  19.736  33.611   0.556
 6669W        W77269  11.802   9.463  14.492
 6670W        W77270  23.496  12.389   3.221
 6671W        W77271  24.562   0.831   2.233
 6672W        W77272  24.695  25.953   0.840
 6673W        W77273  14.664  38.647   3.638
 6674W        W77274  40.556  35.329  11.898
 6675W        W77275  24.726  16.245   0.900
 6676W        W77276   3.236   7.240  10.419
 6677W        W77277  16.227  25.270  13.037
 6678W        W77278  40.985  31.732   3.116
 6679W        W77279   0.785  24.961  12.631
 6680W        W77280  42.257   1.539   2.838
 6681W        W77281   9.463   9.993   4.676
 6682W        W77282  17.374  30.659   1.777
 6683W        W77283  33.230   8.486  13.799
 6684W        W77284  26.758  24.036  10.717
 6685W        W77285  29.861  32.636   4.249
 6686W        W77286  15.134  23.560   1.212
 6687W        W77287  39.405  18.074   1.330
 6688W        W77288  41.504  13.665   1.597
 6689W        W77289  28.128  35.119   0.857
 6690W        W77290  33.575  14.635   4.878
 6691W        W77291  44.824  34.903  12.456
 6692W        W77292  10.942   2.337   1.831
 6693W        W77293   5.750  18.646  14.661
 6694W        W77294   0.471  15.847  11.949
 6695W        W77295   7.736  42.451   1.630
 6696W        W77296  38.920  43.109   4.142
 6697W        W77297  11.679   6.471  11.250
 6698W        W77298   9.414   5.311   1.302
 6699W        W77299  18.343  25.993   0.829
 6700W        W77300  42.410  22.970  12.571
 6701W        W77301  32.644  23.075  12.291
 6702W        W77302  26.170  16.342   1.329
 6703W        W77303  26.709  35.444  14.811
 6704W        W77304  29.858  22.056   0.492
 6705W        W77305   8.391  32.412  10.772
 6706W        W77306  18.842  26.645   0.834
 6707W        W77307  43.128  19.216  12.060
 6708W        W77308  37.608  12.193  11.990
 6709W        W77309  36.045  42.865  12.357
 6710W        W77310   1.794  14.863   0.785
 6711W        W77311  11.743  32.962   1.483
 6712W        W77312  25.138  37.335  13.419
 6713W        W77313  26.479  14.865   1.109
 6714W        W77314  31.957  34.557   4.226
 6715W        W77315  25.613  35.315   2.115
 6716W        W77316   1.291  29.656   0.363
 6717W        W77317  11.478  26.143  11.984
 6718W        W77318  10.565  27.748  14.683
 6719W        W77319   6.929  29.831   2.113
 6720W        W77320  32.050   8.092   0.478
 6721W        W77321  28.068   4.139   4.589
 6722W        W77322   5.526  18.782   0.965
 6723W        W77323  30.831  19.702  10.415
 6724W        W77324  42.279   7.949   2.596
 6725W        W77325  17.675  17.966   0.816
 6726W        W77326  23.230  32.127  13.849
 6727W        W77327  28.912   0.048  13.503
 6728W        W77328  11.997  13.124   4.973
 6729W        W77329  39.975  16.918   3.265
 6730W        W77330   5.418  11.243  14.474
 6731W        W77331  42.414   4.228  14.299
 6732W        W77332  33.331  17.194   1.956
 6733W        W77333  20.991  31.180   1.984
 6734W        W77334  33.653  20.263  12.547
 6735W        W77335  42.423  31.121  14.745
 6736W        W77336  24.661  43.690  13.999
 6737W        W77337  33.288  31.639  13.538
 6738W        W77338  11.512   4.299  12.031
 6739W        W77339  27.412  26.551   2.306
 6740W        W77340  31.349   5.163   2.624
 6741W        W77341  38.802  35.046  14.785
 6742W        W77342  38.774  40.891   4.701
 6743W        W77343   3.188  44.712   1.951
 6744W        W77344  20.044  21.171   2.897
 6745W        W77345  33.777  36.099  11.237
 6746W        W77346  19.540   5.330   3.694
 6747W        W77347  29.931  25.469  12.863
 6748W        W77348  18.106   6.861  11.289
 6749W        W77349   7.636  27.087  11.141
 6750W        W77350  24.788  11.328  11.554
 6751W        W77351  23.064  11.095   3.212
 6752W        W77352  43.727  25.961  13.403
 6753W        W77353  32.620  32.590   4.180
 6754W        W77354  25.789  26.459   4.400
 6755W        W77355  20.972  28.729  10.637
 6756W        W77356  22.722   5.325  11.159
 6757W        W77357  39.418  26.505   3.713
 6758W        W77358  17.689  27.553   4.738
 6759W        W77359  21.098  22.977  11.089
 6760W        W77360  38.490  19.665   4.504
 6761W        W77361   8.268  19.816  14.759
 6762W        W77362  14.241   2.441   4.185
 6763W        W77363   5.391  29.695   3.181
 6764W        W77364  39.795   1.023   1.301
 6765W        W77365  41.110   3.248   0.598
 6766W        W77366   1.557  30.346   1.647
 6767W        W77367  17.888   0.948   0.280
 6768W        W77368   2.276  36.128  14.859
 6769W        W77369  23.215  20.812   3.335
 6770W        W77370  10.268  36.514  14.324
 6771W        W77371  25.338   3.407   2.877
 6772W        W77372  36.067  34.324   4.540
 6773W        W77373  15.088  13.107  11.922
 6774W        W77374   5.193  26.499   9.905
 6775W        W77375   7.834  26.291  11.508
 6776W        W77376  13.568   8.262   0.980
 6777W        W77377   4.214  36.236  10.779
 6778W        W77378  32.288  29.032  13.498
 6779W        W77379  26.196  34.497   2.199
 6780W        W77380   8.772   8.804   2.681
 6781W        W77381  19.342  41.359  14.347
 6782W        W77382  19.321  25.508   0.342
 6783W        W77383  25.203  10.927   2.160
 6784W        W77384  12.852   2.423   1.158
 6785W        W77385   3.055   0.706   0.790
 6786W        W77386  22.796  27.871   5.137
 6787W        W77387  28.422  39.060  11.794
 6788W        W77388  39.768  41.409  14.024
 6789W        W77389  15.226   0.673  13.404
 6790W        W77390  25.921  43.291  13.642
 6791W        W77391  10.347   9.403  11.997
 6792W        W77392  39.988  15.151   4.335
 6793W        W77393  13.928  21.318   3.238
 6794W        W77394  16.192   0.512   1.256
 6795W        W77395  15.221  31.703   0.420
 6796W        W77396  10.344   3.886   0.163
 6797W        W77397   4.609   5.586  10.756
 6798W        W77398  34.288  21.093   4.179
 6799W        W77399  13.985  14.825   0.449
 6800W        W77400   6.806   4.320  12.545
 6801W        W77401  34.911  16.275  12.023
 6802W        W77402   6.244  15.567  11.612
 6803W        W77403   5.982  15.845   3.396
 6804W        W77404  23.153  43.018  12.046
 6805W        W77405  38.874   6.207  11.092
 6806W        W77406  28.654  13.674   2.871
 6807W        W77407  30.752  29.649   4.173
 6808W        W77408   8.364   4.540   2.275
 6809W        W77409  27.533  34.047   3.383
 6810W        W77410  27.115  34.099  12.530
 6811W        W77411  34.425   5.168  11.716
 6812W        W77412  42.071  40.288  13.553
 6813W        W77413  28.054  25.253  10.670
 6814W        W77414  10.356  44.454  12.158
 6815W        W77415   2.814   8.155  11.702
 6816W        W77416   6.236  25.238  11.163
 6817W        W77417  13.716  37.870   4.292
 6818W        W77418  16.623  40.641   3.809
 6819W        W77419  13.863  26.719  14.030
 6820W        W77420  35.202  41.338  11.142
 6821W        W77421  14.340   8.775  12.680
 6822W        W77422   1.761  41.047  11.086
 6823W        W77423  40.582  13.740   0.730
 6824W        W77424  31.412   1.775  13.591
 6825W        W77425   9.777  16.280  11.225
 6826W        W77426  16.239  42.391   5.207
 6827W        W77427  16.321   0.389   2.175
 6828W        W77428  36.527  25.473  12.566
 6829W        W77429   4.820  24.995   4.663
 6830W        W77430   8.866  35.477  11.657
 6831W        W77431  30.341  12.997  14.990
 6832W        W77432   4.248  11.946  12.859
 6833W        W77433  15.191  43.602  12.100
 6834W        W77434  43.747  11.312  11.066
 6835W        W77435  13.643  22.088   2.612
 6836W        W77436  21.025  14.070   3.924
 6837W        W77437  30.914  16.474   4.104
 6838W        W77438  34.962   6.703   2.281
 6839W        W77439  42.650  39.800   3.923
 6840W        W77440   2.792  33.058   4.089
 6841W        W77441  26.577   6.947   2.263
 6842W        W77442  42.618  14.033   3.110
 6843W        W77443  15.640   2.589   0.246
 6844W        W77444  13.235  31.327   4.817
 6845W        W77445  35.922  28.649  11.257
 6846W        W77446  38.473  28.830  14.582
 6847W        W77447   8.877  18.826  13.930
 6848W        W77448  23.990  13.235   1.812
 6849W        W77449  44.471   9.246   3.318
 6850W        W77450  25.914  26.188  13.445
 6851W        W77451   3.312  26.356  11.110
 6852W        W77452   2.384   1.407   3.579
 6853W        W77453   3.289  23.661  12.804
 6854W        W77454  30.270  22.676  14.025
 6855W        W77455  28.468  27.410  12.918
 6856W        W77456  26.544  31.639   0.488
 6857W        W77457  30.673  18.055  11.081
 6858W        W77458  44.790   0.383  14.803
 6859W        W77459  22.316  34.988   0.810
 6860W        W77460  15.800  30.592  10.569
 6861W        W77461  17.039  42.774  12.429
 6862W        W77462  12.979  35.501  11.125
 6863W        W77463  20.174  17.093   2.714
 6864W        W77464   8.312   4.150  11.659
 6865W        W77465   8.558  44.320  13.821
 6866W        W77466  44.425  43.809  12.953
 6867W        W77467   2.235  31.489   0.655
 6868W        W77468  31.081  38.281  10.174
 6869W        W77469  25.670  44.442   3.728
 6870W        W77470  24.609  43.827  10.589
 6871W        W77471  25.602  27.649  14.965
 6872W        W77472  17.709   4.884  11.183
 6873W        W77473  37.100  34.533   2.876
 6874W        W77474   7.707  39.063  13.253
 6875W        W77475   3.663  43.379   0.394
 6876W        W77476  25.965  17.710  14.010
 6877W        W77477   3.203  44.506   4.195
 6878W        W77478   5.639  31.146   3.725
 6879W        W77479  36.668  24.118   1.700
 6880W        W77480  24.475  24.736  14.569
 6881W        W77481  23.492  33.504  12.790
 6882W        W77482   3.484  16.698   3.920
 6883W        W77483   7.766  27.553   3.251
 6884W        W77484  13.296   6.382   4.647
 6885W        W77485  32.474  11.144   0.476
 6886W        W77486  11.143   2.807   1.836
 6887W        W77487  25.244  29.603   1.163
 6888W        W77488   6.449  17.196   4.085
 6889W        W77489  40.491   4.132   3.676
 6890W        W77490  44.510  10.572   1.275
 6891W        W77491   0.257  17.157   1.338
 6892W        W77492  35.573  10.217  13.308
 6893W        W77493  33.538   5.171   1.847
 6894W        W77494  39.161  30.116   0.227
 6895W        W77495  36.550   8.653   0.869
 6896W        W77496  35.422   3.693  14.972
 6897W        W77497  30.493   2.668  14.831
 6898W        W77498  22.396   5.383  13.034
 6899W        W77499  33.658   6.865   2.353
 6900W        W77500  20.447  31.721  13.408
 6901W        W77501  14.806  13.278  12.516
 6902W        W77502   1.241  32.105  11.661
 6903W        W77503   4.952   2.353   3.871
 6904W        W77504   3.934  19.184  12.898
 6905W        W77505   1.822  13.777  13.329
 6906W        W77506   8.003  39.602   0.530
 6907W        W77507  21.092  24.459   4.963
 6908W        W77508   2.991  19.136   3.394
 6909W        W77509  18.104  20.592   3.892
 6910W        W77510  18.287  40.512   1.185
 6911W        W77511  26.138  44.363  12.764
 6912W        W77512  15.465  26.594  12.884
 6913W        W77513  13.339   5.354   1.800
 6914W        W77514  16.854  19.735   4.786
 6915W        W77515  35.138  39.878   4.232
 6916W        W77516  36.112  11.055   2.813
 6917W        W77517  44.628  22.733  12.553
 6918W        W77518  36.456  32.630   0.499
 6919W        W77519   6.713  37.772   4.302
 6920W        W77520   9.232  21.968   0.237
 6921W        W77521  31.197  33.443   3.802
 6922W        W77522  33.625  19.033   4.190
 6923W        W77523  24.733  21.270  12.066
 6924W        W77524  43.977  26.221   4.562
 6925W        W77525  19.584   8.653  13.316
 6926W        W77526  37.593  15.062   1.927
 6927W        W77527  31.680  31.683  10.580
 6928W        W77528  36.770   2.001  11.923
 6929W        W77529  42.391  31.920   1.418
 6930W        W77530  16.568  26.494   0.224
 6931W        W77531  35.682  32.386   0.849
 6932W        W77532  23.402  13.664  14.852
 6933W        W77533  18.390  26.612  13.803
 6934W        W77534  37.296  21.524  12.098
 6935W        W77535  23.771  42.460   3.285
 6936W        W77536   9.808  12.492  13.195
 6937W        W77537  41.830  23.096   2.232
 6938W        W77538  13.151  29.530   4.762
 6939W        W77539  38.592  30.200  13.565
 6940W        W77540   3.248  15.612   0.922
 6941W        W77541   1.302  36.212  14.893
 6942W        W77542  14.102  24.924  12.588
 6943W        W77543  23.940  35.948   2.669
 6944W        W77544  19.739  29.575   0.545
 6945W        W77545   5.046   0.879  13.641
 6946W        W77546  34.419  26.186  12.907
 6947W        W77547  37.770  15.801   2.203
 6948W        W77548  40.837  29.198   1.926
 6949W        W77549  16.433  22.021   1.749
 6950W        W77550  10.793  37.387   0.490
 6951W        W77551  36.339  35.414  11.166
 6952W        W77552   6.856  23.993   2.779
 6953W        W77553  34.352  10.688  13.060
 6954W        W77554  40.258  24.875   5.172
 6955W        W77555  31.455  15.668  12.045
 6956W        W77556   1.919  43.410  10.573
 6957W        W77557  41.356  28.990  12.625
 6958W        W77558   1.278  17.327  13.931
 6959W        W77559  37.344  33.243  13.495
 6960W        W77560   3.867   7.441   2.900
 6961W        W77561  31.643   8.378   3.075
 6962W        W77562   3.322  32.098   3.818
 6963W        W77563   7.363  38.136  13.012
 6964W        W77564  17.815  43.260  14.067
 6965W        W77565  44.455  36.429  13.101
 6966W        W77566   8.910  10.170   3.181
 6967W        W77567  36.601  23.293  11.442
 6968W        W77568  32.413  12.563   3.701
 6969W        W77569  37.184  35.776  11.549
 6970W        W77570  30.974  34.622  14.185
 6971W        W77571  10.498  35.748   2.816
 6972W        W77572  19.983   9.306  11.610
 6973W        W77573  33.557  10.609   2.059
 6974W        W77574   3.037   2.324   3.686
 6975W        W77575  30.659  20.407   1.386
 6976W        W77576  10.048  26.977   2.770
 6977W        W77577  24.425  11.646  12.831
 6978W        W77578  22.131  28.495   2.486
 6979W        W77579  15.513  30.941   2.805
 6980W        W77580  36.828  43.107   3.701
 6981W        W77581   7.776  36.355   1.855
 6982W        W77582   1.967  17.854  14.893
 6983W        W77583  14.991  16.003  13.949
 6984W        W77584  15.493   7.599  11.207
 6985W        W77585   6.887  13.627  12.653
 6986W        W77586  26.658   8.334  11.161
 6987W        W77587   3.600  14.729   4.251
 6988W        W77588   4.393  11.647   4.502
 6989W        W77589  39.006  30.593   0.001
 6990W        W77590  20.638  23.141  10.967
 6991W        W77591  20.017   6.679  12.088
 6992W        W77592  33.411   9.857   0.292
 6993W        W77593  36.325  26.895   4.876
 6994W        W77594  22.655  34.744  11.302
 6995W        W77595  40.473  17.087  13.490
 6996W        W77596   8.366   7.280  11.909
 6997W        W77597  18.343  14.893   5.027
 6998W        W77598  36.406  20.615   4.754
 6999W        W77599  14.762   6.385  11.081
 7000W        W77600   8.742   2.764   0.951
 7001W        W77601  37.461   5.977   3.345
 7002W        W77602  17.200   4.694   2.755
 7003W        W77603  25.671   7.666   4.642
 7004W        W77604  16.268   0.307  12.878
 7005W        W77605  15.601  44.994   4.138
 7006W        W77606  13.292  38.496  14.368
 7007W        W77607   6.958   3.345  13.956
 7008W        W77608  10.416  30.990   3.655
 7009W        W77609  25.711   6.835  14.890
 7010W        W77610   5.442  24.037  11.706
 7011W        W77611   1.719  15.082  13.917
 7012W        W77612  32.050  29.484  13.594
 7013W        W77613  39.476  18.270  14.458
 7014W        W77614  21.189  18.959  10.501
 7015W        W77615  17.649   8.806   3.569
 7016W        W77616  40.066  13.793   3.247
 7017W        W77617   8.366  29.001   1.357
 7018W        W77618  28.238  29.269   0.190
 7019W        W77619  31.594  19.562   2.695
 7020W        W77620  33.475  36.438   4.333
 7021W        W77621   9.405  23.679  12.079
 7022W        W77622   8.739  33.182  11.920
 7023W        W77623  39.725  28.233  14.457
 7024W        W77624   1.706   6.737   1.860
 7025W        W77625  17.312   6.432  14.023
 7026W        W77626   0.393  38.419  11.004
 7027W        W77627  11.822  12.220   0.873
 7028W        W77628   6.392  29.149   5.093
 7029W        W77629   0.929   1.220  11.175
 7030W        W77630  30.576  27.774   4.021
 7031W        W77631  10.682  44.041  12.350
 7032W        W77632   3.620  35.064  13.855
 7033W        W77633  39.972  31.609   4.085
 7034W        W77634  30.194   9.207  14.019
 7035W        W77635  40.262  31.547  12.010
 7036W        W77636  26.695  34.162  12.175
 7037W        W77637  28.062  29.556  13.456
 7038W        W77638  25.608   2.858   0.234
 7039W        W77639  36.362   0.858  11.935
 7040W        W77640  14.134  37.822   4.591
 7041W        W77641  40.324  37.820   3.262
 7042W        W77642  17.233  18.330   0.845
 7043W        W77643  32.563  26.731  12.906
 7044W        W77644  15.045  39.873  12.047
 7045W        W77645  41.440  16.102  13.362
 7046W        W77646  36.571  42.439  14.780
 7047W        W77647  21.056  37.568  13.396
 7048W        W77648   6.582   8.654   1.663
 7049W        W77649  34.262  12.436   0.101
 7050W        W77650   2.304  40.951   4.338
 7051W        W77651   6.692   8.367   2.672
 7052W        W77652  42.293   1.777   1.385
 7053W        W77653  39.369  32.233   0.882
 7054W        W77654  27.678  21.253  11.434
 7055W        W77655  17.104  20.577  12.995
 7056W        W77656  43.846  24.427   0.464
 7057W        W77657  29.308  27.024   4.062
 7058W        W77658  32.503  34.120   4.190
 7059W        W77659  26.200  36.853  13.495
 7060W        W77660  38.469  18.607  13.434
 7061W        W77661  16.816   8.481  14.965
 7062W        W77662  11.719  42.956   3.022
 7063W        W77663   4.503  30.679   1.429
 7064W        W77664  19.377  11.476   3.353
 7065W        W77665   1.716   2.455   4.168
 7066W        W77666   7.300  24.918   2.805
 7067W        W77667  33.481  36.253  14.352
 7068W        W77668  20.119  25.148   0.893
 7069W        W77669  20.447  16.079   3.228
 7070W        W77670  43.932  29.151  13.844
 7071W        W77671  25.800  31.973   1.883
 7072W        W77672   5.011   5.169  13.912
 7073W        W77673   2.165  13.118  14.828
 7074W        W77674  34.277   7.758  14.212
 7075W        W77675  31.981  30.029   1.633
 7076W        W77676  37.079  41.727  12.127
 7077W        W77677  31.369  11.656   3.568
 7078W        W77678  27.257  43.812   1.845
 7079W        W77679   9.277  21.516  10.747
 7080W        W77680  22.776  11.671   4.897
 7081W        W77681   2.383  33.583  13.548
 7082W        W77682  27.103  42.572  12.521
 7083W        W77683   1.333   9.894  13.185
 7084W        W77684  40.641  19.106   4.097
 7085W        W77685  18.592  21.806   0.713
 7086W        W77686  26.419   3.393   3.603
 7087W        W77687  23.214   8.934  14.700
 7088W        W77688  18.177  23.279   0.400
 7089W        W77689  40.110   8.902  13.962
 7090W        W77690  32.002  15.844   3.614
 7091W        W77691  13.637  15.762   2.212
 7092W        W77692   0.034  25.418   0.277
 7093W        W77693  35.922  32.049  11.214
 7094W        W77694  40.437  33.619  10.254
 7095W        W77695   3.993  18.219   3.598
 7096W        W77696  25.387  32.563   3.001
 7097W        W77697  32.095  43.433  14.150
 7098W        W77698  16.503  10.848  12.821
 7099W        W77699  30.261  36.567   2.730
 7100W        W77700  42.123  18.099   3.250
 7101W        W77701   3.218  18.763  14.384
 7102W        W77702  13.204  12.192  14.879
 7103W        W77703  39.094  30.537  12.921
 7104W        W77704  26.532  39.531   0.945
 7105W        W77705  42.578  16.109   0.860
 7106W        W77706  19.599  28.756   1.427
 7107W        W77707  17.572  25.191  14.973
 7108W        W77708   5.890  43.686   4.610
 7109W        W77709  16.261  15.573   0.853
 7110W        W77710  36.953  42.966  14.984
 7111W        W77711   8.340  41.477  13.005
 7112W        W77712  21.280   5.620  10.354
 7113W        W77713  31.817  24.963  11.431
 7114W        W77714  43.501  13.054   4.332
 7115W        W77715  11.104   1.215  13.503
 7116W        W77716  22.078  37.657   1.197
 7117W        W77717  25.421  19.980  10.772
 7118W        W77718  24.406  20.267   3.712
 7119W        W77719  41.794  39.814  12.879
 7120W        W77720   3.618  39.891  13.762
 7121W        W77721  24.548  37.909   2.908
 7122W        W77722  21.852  38.312  12.612
 7123W        W77723   5.281   1.464  14.879
 7124W        W77724  19.316   9.687  10.664
 7125W        W77725  20.123  35.666  14.909
 7126W        W77726  26.391  24.176   4.052
 7127W        W77727   7.311   9.932  12.496
 7128W        W77728  35.864  18.959  11.656
 7129W        W77729  20.785  21.923   3.791
 7130W        W77730   0.413  21.147  10.204
 7131W        W77731  35.896  17.274   2.155
 7132W        W77732   1.091  40.404   0.500
 7133W        W77733   6.321  18.850   3.306
 7134W        W77734  43.884  12.244   2.536
 7135W        W77735   3.735  28.432   1.671
 7136W        W77736   5.021  23.455   0.612
 7137W        W77737  14.414  33.642   0.962
 7138W        W77738   6.820   0.197  14.320
 7139W        W77739  11.147  19.206   3.684
 7140W        W77740  20.126  30.116   3.920
 7141W        W77741  25.060  36.426   1.416
 7142W        W77742  14.398  28.462  10.696
 7143W        W77743  11.193  14.597  12.032
 7144W        W77744   3.021  11.876   1.764
 7145W        W77745  14.020  37.893  11.214
 7146W        W77746  23.055  19.017   3.565
 7147W        W77747  36.046  22.453  12.559
 7148W        W77748   5.537   0.598   2.619
 7149W        W77749  22.591  14.733  11.794
 7150W        W77750  29.579  18.324  11.208
 7151W        W77751   5.259  26.169   4.603
 7152W        W77752  36.860  10.507  10.223
 7153W        W77753  33.927   5.955   0.259
 7154W        W77754  32.653  14.165   0.377
 7155W        W77755  37.047   4.374  10.688
 7156W        W77756  15.461  11.355   2.427
 7157W        W77757  41.463  30.926   3.133
 7158W        W77758  34.234  19.231  10.446
 7159W        W77759   5.856  34.003  11.484
 7160W        W77760   2.788  40.978   4.602
 7161W        W77761  30.950  23.528  13.396
 7162W        W77762  26.013  15.123  14.891
 7163W        W77763  28.595  44.791  11.366
 7164W        W77764  26.500  31.377   2.280
 7165W        W77765  20.210   6.296  10.655
 7166W        W77766  10.614  42.078  10.069
 7167W        W77767  12.622   9.801  11.625
 7168W        W77768   6.945   7.328   4.707
 7169W        W77769  31.099  21.613   4.285
 7170W        W77770  39.836  39.746  10.655
 7171W        W77771  11.334  15.811  13.582
 7172W        W77772  33.297   6.470   2.411
 7173W        W77773  12.574   2.968  10.864
 7174W        W77774   7.803  29.647  10.715
 7175W        W77775   9.968  22.077  14.745
 7176W        W77776  14.714  35.641   4.606
 7177W        W77777  19.614   6.603   1.154
 7178W        W77778  39.995  28.596   1.224
 7179W        W77779  19.788  41.796   2.390
 7180W        W77780  14.797  39.431  12.101
 7181W        W77781  25.404   6.684   2.309
 7182W        W77782  16.475  11.699   0.160
 7183W        W77783  44.927  36.457   0.428
 7184W        W77784   7.905  24.819   2.212
 7185W        W77785  40.997  27.618  14.388
 7186W        W77786   1.339   6.394  14.333
 7187W        W77787  31.839  21.799   1.744
 7188W        W77788  22.570  22.278  14.683
 7189W        W77789  26.194  25.711   1.314
 7190W        W77790   2.674  15.383  13.998
 7191W        W77791  22.073  13.977   3.864
 7192W        W77792  38.252  25.565  13.446
 7193W        W77793  39.787  39.819   3.132
 7194W        W77794  30.507  38.878   9.831
 7195W        W77795  27.587   3.847   3.119
 7196W        W77796  42.966  35.457  14.913
 7197W        W77797  14.956  22.541  11.635
 7198W        W77798  37.910   5.717   3.320
 7199W        W77799  12.144  38.165  14.875
 7200W        W77800  42.376  17.677   2.059
 7201W        W77801  31.134  43.594   0.813
 7202W        W77802   9.344  10.286   2.850
 7203W        W77803   4.700  37.749  12.484
 7204W        W77804  18.020  17.982   3.862
 7205W        W77805  23.538   2.515  13.525
 7206W        W77806  24.973  33.111  14.534
 7207W        W77807  16.500  43.984   2.785
 7208W        W77808  16.543  16.253  13.913
 7209W        W77809   2.075  11.737   3.331
 7210W        W77810  12.613   6.749   4.285
 7211W        W77811   9.847  21.706  10.788
 7212W        W77812  43.055  10.914   1.849
 7213W        W77813  38.353   5.383   0.870
 7214W        W77814  13.664  42.412   0.368
 7215W        W77815  27.003  34.013   4.131
 7216W        W77816  25.465  31.034   2.697
 7217W        W77817  12.363  37.504  12.977
 7218W        W77818  14.193  38.712   3.362
 7219W        W77819  21.361  37.360  14.682
 7220W        W77820   2.508   8.142  14.255
 7221W        W77821  42.631  21.408  12.020
 7222W        W77822  28.561  31.640  12.101
 7223W        W77823  37.269  30.350   0.323
 7224W        W77824  30.567  28.411   0.884
 7225W        W77825  22.601  22.446  11.502
 7226W        W77826  44.828   2.841   2.345
 7227W        W77827  35.357  35.725   4.461
 7228W        W77828  44.527  14.278   4.590
 7229W        W77829  10.109   4.315   1.807
 7230W        W77830  25.189   3.770  13.845
 7231W        W77831  21.194   1.316   3.191
 7232W        W77832  11.877  43.393   1.043
 7233W        W77833   9.213   9.955  11.501
 7234W        W77834  36.683  40.500   2.823
 7235W        W77835  12.179   0.751  12.155
 7236W        W77836   9.704  34.964  12.477
 7237W        W77837  37.544  10.363   5.046
 7238W        W77838   7.463   6.725  13.153
 7239W        W77839  22.691  34.169  10.444
 7240W        W77840  11.130  21.035   4.197
 7241W        W77841  30.671  35.409  14.411
 7242W        W77842   9.742  10.385   0.797
 7243W        W77843   9.654  40.819  12.430
 7244W        W77844  43.186  12.215   2.005
 7245W        W77845  15.699  43.848  14.298
 7246W        W77846  36.905  21.267  14.481
 7247W        W77847   0.367  16.302  14.260
 7248W        W77848  43.034   6.693  10.767
 7249W        W77849   3.678  10.344  12.666
 7250W        W77850  44.375  13.277   1.246
 7251W        W77851  25.133  20.361   1.829
 7252W        W77852  42.426  35.893   2.197
 7253W        W77853  32.634  42.816   4.038
 7254W        W77854  10.347  23.969   3.777
 7255W        W77855  15.119  37.988   2.705
 7256W        W77856  12.536  30.860  14.845
 7257W        W77857  38.076  10.211   1.943
 7258W        W77858  34.411   4.893   4.579
 7259W        W77859  32.387  35.324  11.976
 7260W        W77860   0.798   3.862   0.958
 7261W        W77861   9.562   2.202  14.968
 7262W        W77862  17.704  37.083  11.533
 7263W        W77863  32.463  37.584   0.366
 7264W        W77864  42.378   6.051   0.513
 7265W        W77865   5.792   7.889  10.635
 7266W        W77866  12.290  11.647   0.249
 7267W        W77867  40.350   5.146  14.614
 7268W        W77868  34.890  11.603   2.640
 7269W        W77869  18.495  35.968  14.966
 7270W        W77870  26.655  38.004   2.936
 7271W        W77871  19.588  33.966   2.995
 7272W        W77872  26.272  32.188  11.087
 7273W        W77873  36.111  31.132  11.822
 7274W        W77874  35.117  24.938   5.132
 7275W        W77875  44.890  22.151   1.363
 7276W        W77876  25.729  41.983   0.004
 7277W        W77877  12.212  23.027  13.181
 7278W        W77878  17.387  25.807   3.580
 7279W        W77879  27.560  10.723   1.435
 7280W        W77880  21.255  13.758  11.476
 7281W        W77881  38.580  20.265   1.354
 7282W        W77882  34.803  14.667  12.532
 7283W        W77883   0.497  16.200  11.539
 7284W        W77884  38.484  28.641  11.820
 7285W        W77885  30.446   4.299   3.746
 7286W        W77886  20.916   8.402  14.449
 7287W        W77887  39.416  12.349  13.538
 7288W        W77888  35.943   0.848   4.137
 7289W        W77889  26.495   9.378  10.654
 7290W        W77890  17.614  29.895  11.475
 7291W        W77891  23.347  20.474  12.142
 7292W        W77892  13.139  38.815  13.402
 7293W        W77893  39.020  32.330  14.295
 7294W        W77894  26.163   1.228   3.359
 7295W        W77895  23.800  27.558   4.193
 7296W        W77896  18.070  28.465   3.572
 7297W        W77897  12.190   2.296  14.924
 7298W        W77898  12.260  17.756  13.037
 7299W        W77899  14.845  14.592  13.916
 7300W        W77900   7.845  17.830  14.886
 7301W        W77901  35.314  39.009  12.347
 7302W        W77902  17.375  11.223   4.141
 7303W        W77903  16.333  42.283   0.236
 7304W        W77904  42.052  40.797   0.267
 7305W        W77905  27.704  32.931  10.932
 7306W        W77906  21.615  42.034  13.863
 7307W        W77907  20.841  29.602  11.147
 7308W        W77908  41.716  10.720  10.677
 7309W        W77909  20.269  19.864  13.071
 7310W        W77910  23.597  41.517   3.101
 7311W        W77911  16.672  27.594  10.754
 7312W        W77912  16.274  20.332  11.421
 7313W        W77913  13.803  24.274  10.923
 7314W        W77914  10.387   9.412   2.854
 7315W        W77915  44.752  30.088  12.538
 7316W        W77916  21.751  26.621  10.290
 7317W        W77917  22.706   7.093   1.219
 7318W        W77918  19.059  15.544   4.285
 7319W        W77919  43.963  41.478  10.639
 7320W        W77920   1.746  34.074  13.964
 7321W        W77921  18.806  31.378   1.856
 7322W        W77922  33.182  22.959  12.041
 7323W        W77923   1.292  21.357  13.380
 7324W        W77924  26.934  33.673  12.791
 7325W        W77925   8.688  33.225   2.806
 7326W        W77926  42.991  40.756   4.242
 7327W        W77927  27.378  19.003  14.748
 7328W        W77928  33.683  16.193  13.467
 7329W        W77929  12.624   2.885  11.894
 7330W        W77930  12.396  34.663  11.678
 7331W        W77931  20.461  44.818   3.255
 7332W        W77932  38.944  36.472   1.965
 7333W        W77933  43.174  23.642  14.496
 7334W        W77934   4.294  16.780  10.917
 7335W        W77935  37.874  39.531  11.156
 7336W        W77936  23.798   3.446  13.056
 7337W        W77937  12.843  28.239   3.965
 7338W        W77938  30.203   9.502  14.476
 7339W        W77939  26.933  22.654  10.650
 7340W        W77940  29.400  17.132   4.561
 7341W        W77941  34.613   7.838  13.832
 7342W        W77942  25.702  19.066   0.911
 7343W        W77943  44.919  15.208   4.963
 7344W        W77944  13.830  30.432   2.371
 7345W        W77945  20.035  28.605  11.491
 7346W        W77946  44.410  38.022   2.866
 7347W        W77947  16.717  17.310   4.235
 7348W        W77948  30.199   4.862   2.069
 7349W        W77949  40.339  39.312   0.000
 7350W        W77950   2.885   5.243   4.493
 7351W        W77951  36.382  35.076  12.488
 7352W        W77952  32.826  36.994   4.482
 7353W        W77953  38.106  21.380   3.136
 7354W        W77954  31.340  40.448   1.993
 7355W        W77955  12.550   2.750   2.371
 7356W        W77956   3.053  43.192  11.596
 7357W        W77957   5.393  42.260   4.134
 7358W        W77958  34.547  31.239  13.905
 7359W        W77959  22.701  33.088   0.390
 7360W        W77960   0.702  21.112  11.462
 7361W        W77961  13.090   3.299   1.196
 7362W        W77962  15.018  36.545  10.838
 7363W        W77963   2.836  30.527   2.859
 7364W        W77964  40.703  17.580   0.540
 7365W        W77965  18.553  29.729   3.001
 7366W        W77966   3.937  14.073  14.371
 7367W        W77967   1.740  44.928   1.159
 7368W        W77968  42.304  12.786  13.934
 7369W        W77969  27.443  14.824  11.059
 7370W        W77970   7.297  41.819   3.795
 7371W        W77971  31.040  31.130  14.344
 7372W        W77972  42.459  26.558   4.115
 7373W        W77973   6.330  15.989   2.165
 7374W        W77974  13.228  34.314  10.120
 7375W        W77975   2.308  42.539  14.790
 7376W        W77976  17.093  24.392   1.916
 7377W        W77977  27.772   4.717   3.525
 7378W        W77978  42.125   4.473  12.095
 7379W        W77979  19.613  18.126   0.707
 7380W        W77980   8.812  43.925   0.282
 7381W        W77981  35.766  44.224   3.287
 7382W        W77982   9.382  35.859  13.803
 7383W        W77983  32.090  35.374   2.236
 7384W        W77984  11.888   8.274  13.347
 7385W        W77985  17.737  24.733   3.227
 7386W        W77986  42.689   1.742  11.164
 7387W        W77987   1.796  27.963   4.659
 7388W        W77988  12.623  35.107  13.097
 7389W        W77989   7.741   3.760  13.546
 7390W        W77990  20.498  31.515  11.145
 7391W        W77991   0.306  11.586  12.618
 7392W        W77992  30.490  41.382   4.070
 7393W        W77993  18.991  42.015   2.618
 7394W        W77994   9.204  38.210   4.252
 7395W        W77995  21.577   4.800  14.944
 7396W        W77996  36.093  12.819  12.634
 7397W        W77997   4.734   0.485  13.553
 7398W        W77998  13.438  29.749  11.481
 7399W        W77999  38.645  13.164  11.141
 7400W        W78000   1.914  23.901   2.255
 7401W        W78001  17.024   2.758   4.671
 7402W        W78002  30.526  37.411  12.634
 7403W        W78003   6.190  28.746   1.316
 7404W        W78004  27.589  31.401   1.414
 7405W        W78005  14.118  15.954   4.124
 7406W        W78006   9.812  41.772  12.877
 7407W        W78007  28.224  31.957  13.356
 7408W        W78008  28.188  20.763   3.275
 7409W        W78009  24.843  18.216  12.084
 7410W        W78010  20.746  23.371   3.612
 7411W        W78011  32.168  32.898  13.287
 7412W        W78012  24.661  33.637   3.363
 7413W        W78013  27.896  43.449  12.374
 7414W        W78014   3.023   2.062  11.128
 7415W        W78015  38.742  25.041   1.522
 7416W        W78016   1.077   8.336   0.551
 7417W        W78017  18.689   3.778  13.019
 7418W        W78018  19.484  40.772  10.734
 7419W        W78019  26.781  19.550   1.383
 7420W        W78020   4.761   5.968  12.040
 7421W        W78021  40.282  16.409   1.333
 7422W        W78022   8.090  27.911   0.731
 7423W        W78023  33.470  42.326  10.938
 7424W        W78024  22.965   2.561  14.808
 7425W        W78025  44.857   3.881   2.597
 7426W        W78026  29.441  12.756   1.470
 7427W        W78027   4.425  40.457  11.034
 7428W        W78028  41.047  23.048   4.045
 7429W        W78029  14.334   7.643  12.500
 7430W        W78030  26.070   1.352  11.471
 7431W        W78031   7.406  36.704  12.908
 7432W        W78032  29.177   0.956   3.624
 7433W        W78033  33.101  16.710  11.913
 7434W        W78034   4.988  30.141   4.347
 7435W        W78035  42.458  16.868  12.121
 7436W        W78036  13.662  43.413   3.352
 7437W        W78037  14.583   1.798  12.961
 7438W        W78038  24.174   5.887   3.846
 7439W        W78039   8.481  40.439  13.815
 7440W        W78040  39.068  43.472  10.453
 7441W        W78041  40.994  11.154  11.114
 7442W        W78042   0.173  15.628   0.940
 7443W        W78043  18.121  35.401  14.344
 7444W        W78044   5.279  40.549   4.374
 7445W        W78045   2.407  43.450   4.669
 7446W        W78046  14.694  17.595  14.351
 7447W        W78047   1.342  38.058   0.870
 7448W        W78048  17.577  25.247   3.215
 7449W        W78049  16.723  29.591   0.164
 7450W        W78050  25.707  13.210  11.046
 7451W        W78051  30.966  14.898   2.717
 7452W        W78052  13.091   9.740  12.925
 7453W        W78053   9.403  35.650   3.781
 7454W        W78054  19.636  13.741  12.462
 7455W        W78055  26.606  36.619   0.190
 7456W        W78056  24.528  11.319   1.864
 7457W        W78057  41.799  42.937   0.831
 7458W        W78058  37.063  32.368   3.798
 7459W        W78059   3.811   9.896   1.310
 7460W        W78060  30.715  32.837  10.680
 7461W        W78061  11.826  13.414  10.764
 7462W        W78062  39.450  12.215  14.495
 7463W        W78063  12.197   8.691  13.414
 7464W        W78064  28.795  39.350   1.947
 7465W        W78065  23.108  41.316   0.204
 7466W        W78066   0.540  33.818   1.836
 7467W        W78067  15.306  22.489   4.667
 7468W        W78068   4.445  39.315  13.411
 7469W        W78069  31.879  25.657  12.478
 7470W        W78070  12.631  18.590  12.979
 7471W        W78071  16.253  22.122   3.427
 7472W        W78072  35.550  28.045   4.588
 7473W        W78073   6.858  12.898  11.121
 7474W        W78074   9.684  12.585   1.360
 7475W        W78075  23.215  37.790   0.201
 7476W        W78076   5.805  42.991   4.109
 7477W        W78077   6.982  24.646   2.104
 7478W        W78078   3.955   2.436   2.985
 7479W        W78079  21.112  28.598   1.038
 7480W        W78080  15.926  15.939   5.328
 7481W        W78081  42.398  38.049   3.101
 7482W        W78082  39.809  11.866  12.474
 7483W        W78083   8.183  11.343   3.277
 7484W        W78084  32.014  20.970   2.144
 7485W        W78085  12.940   9.808  11.123
 7486W        W78086  18.649  12.800  14.466
 7487W        W78087   4.151  37.517  14.499
 7488W        W78088  13.400  19.166  11.941
 7489W        W78089  12.779  32.473   1.864
 7490W        W78090   3.962  28.462  12.144
 7491W        W78091  24.272  11.617  13.947
 7492W        W78092   3.148  14.531  11.107
 7493W        W78093   5.682  39.871   3.634
 7494W        W78094  12.838  26.559   4.329
 7495W        W78095  16.617  11.837  11.521
 7496W        W78096  24.169  27.264  12.629
 7497W        W78097  25.054  34.697  14.995
 7498W        W78098  16.887   6.645  10.738
 7499W        W78099  22.679  43.731   1.437
 7500W        W78100  34.962  44.398  13.970
 7501W        W78101  34.901  35.588  13.574
 7502W        W78102  38.410   1.770  12.998
 7503W        W78103   6.563  37.921  14.954
 7504W        W78104  34.402  10.273  14.832
 7505W        W78105  17.028  22.504   4.198
 7506W        W78106   0.982  21.596   0.911
 7507W        W78107  12.630  10.262   1.794
 7508W        W78108  22.010  34.653  12.998
 7509W        W78109  13.339  28.980  11.989
 7510W        W78110   9.194  35.155   3.779
 7511W        W78111  24.811  42.590   3.444
 7512W        W78112  32.391  39.970  13.416
 7513W        W78113  33.813  43.041   2.366
 7514W        W78114  39.316  36.585   0.501
 7515W        W78115  13.789  19.052  14.117
 7516W        W78116  16.089   3.155  11.227
 7517W        W78117   6.170  17.695   3.261
 7518W        W78118   1.438  19.348   3.240
 7519W        W78119  19.787  25.197   2.811
 7520W        W78120   2.372  35.131  12.072
 7521W        W78121  20.115   8.408   3.224
 7522W        W78122   5.635  33.005  11.179
 7523W        W78123  30.729  22.018  14.896
 7524W        W78124   9.899  25.431  13.831
 7525W        W78125  26.563  43.420   1.118
 7526W        W78126  25.051  25.692  12.406
 7527W        W78127   1.076   4.296   2.304
 7528W        W78128  41.317  24.722   2.373
 7529W        W78129  35.089  34.867   2.818
 7530W        W78130  21.488  35.901  11.962
 7531W        W78131  44.847  41.516   2.277
 7532W        W78132  38.630   6.771  13.705
 7533W        W78133   8.288  24.607   3.619
 7534W        W78134  30.883   0.984  14.857
 7535W        W78135   2.677  26.251   2.313
 7536W        W78136   8.892  37.798  12.464
 7537W        W78137  21.031  12.723   4.642
 7538W        W78138  43.278  44.373  10.674
 7539W        W78139  30.557  13.294   0.365
 7540W        W78140  16.190   3.219   1.915
 7541W        W78141  29.401   6.722  14.376
 7542W        W78142   5.582  36.104  14.502
 7543W        W78143  34.462  29.199   0.819
 7544W        W78144  30.909  39.825   0.817
 7545W        W78145  44.600  13.768  13.398
 7546W        W78146  26.477  35.101  12.139
 7547W        W78147  35.913  42.816   3.475
 7548W        W78148  23.534  18.628   0.788
 7549W        W78149  29.972  20.496   0.267
 7550W        W78150  17.272  10.880   4.716
 7551W        W78151  44.544  15.282  11.666
 7552W        W78152  26.956  35.152  11.935
 7553W        W78153  41.695  42.905  10.746
 7554W        W78154  35.784   6.635  11.972
 7555W        W78155  17.681  11.384  14.730
 7556W        W78156  34.545   8.386  12.197
 7557W        W78157  16.231  18.811  11.650
 7558W        W78158  18.035  11.260   2.907
 7559W        W78159  15.079   3.357   0.716
 7560W        W78160   9.375  12.063   2.625
 7561W        W78161  11.835  24.785  12.454
 7562W        W78162  11.753   5.433   0.451
 7563W        W78163   0.198  19.492   3.480
 7564W        W78164  26.013   1.316   0.877
 7565W        W78165  33.116  29.200   2.627
 7566W        W78166  26.652   2.823   4.960
 7567W        W78167  39.493  27.388  11.596
 7568W        W78168  13.225  27.094   2.111
 7569W        W78169   1.663  44.542  11.951
 7570W        W78170  40.725   0.268   0.730
 7571W        W78171   2.760  37.987  13.477
 7572W        W78172   4.452  35.837  12.437
 7573W        W78173  28.406   0.758  13.341
 7574W        W78174  30.576  14.711  12.127
 7575W        W78175  37.523   9.236  12.134
 7576W        W78176  34.871  16.734  13.300
 7577W        W78177   5.146   2.272  12.559
 7578W        W78178  34.861  28.125  10.437
 7579W        W78179   8.380  18.474  11.072
 7580W        W78180  30.724  18.286  12.896
 7581W        W78181   1.647  11.099  11.119
 7582W        W78182   1.498   7.224   1.809
 7583W        W78183  32.176   1.358   3.199
 7584W        W78184  20.521  17.328   4.198
 7585W        W78185  24.178   4.622   2.681
 7586W        W78186  24.147  44.773   2.275
 7587W        W78187  39.984  43.328   0.916
 7588W        W78188  11.264  41.729   2.290
 7589W        W78189  15.139  28.994   0.298
 7590W        W78190   8.282  22.019  14.048
 7591W        W78191  33.177  29.235   0.300
 7592W        W78192   3.314  21.539   3.732
 7593W        W78193   4.365   0.517  14.293
 7594W        W78194   2.270  24.119   9.923
 7595W        W78195  29.666  12.688  14.458
 7596W        W78196  40.116  14.371  14.048
 7597W        W78197   9.622  36.083  11.365
 7598W        W78198  14.884  32.400  13.462
 7599W        W78199  38.091  43.286  13.929
 7600W        W78200   4.221  17.775   3.130
 7601W        W78201  32.709   1.910  10.239
 7602W        W78202  12.469  31.461   4.313
 7603W        W78203  44.291  11.620  13.610
 7604W        W78204  21.230  23.168   4.126
 7605W        W78205  32.727   0.270  12.386
 7606W        W78206  35.441   4.109   3.776
 7607W        W78207  11.218  26.167   4.577
 7608W        W78208  19.709  16.737  11.081
 7609W        W78209  20.172  23.028   4.797
 7610W        W78210  37.638   3.378  12.941
 7611W        W78211  14.841  41.291  14.950
 7612W        W78212  16.742  37.858   3.799
 7613W        W78213  37.930  17.600  10.927
 7614W        W78214   3.564  27.926  14.132
 7615W        W78215  38.455  31.533   1.350
 7616W        W78216  17.675  16.222   1.186
 7617W        W78217   5.910   4.868   3.646
 7618W        W78218  37.798  12.879  14.776
 7619W        W78219  14.875  22.734  13.422
 7620W        W78220   4.669  25.823   2.263
 7621W        W78221  19.021   0.199  12.932
 7622W        W78222  16.593  11.241   0.477
 7623W        W78223  15.136  13.782  14.107
 7624W        W78224   5.370  18.060  11.908
 7625W        W78225  21.961  31.360   3.221
 7626W        W78226   7.755   4.102   1.708
 7627W        W78227  28.654  34.913   0.882
 7628W        W78228   5.906  35.584   0.291
 7629W        W78229  16.062  41.343   0.914
 7630W        W78230   3.675  19.245   1.898
 7631W        W78231   3.144   3.978   4.112
 7632W        W78232  22.073  44.835  13.337
 7633W        W78233  17.335  26.149   1.767
 7634W        W78234  12.910  22.658   2.559
 7635W        W78235  23.898  25.811   1.771
 7636W        W78236  12.618   7.423  11.127
 7637W        W78237  43.767  29.470   2.305
 7638W        W78238  19.988  28.861   0.470
 7639W        W78239  43.349   4.368  11.460
 7640W        W78240  31.322  11.493  10.966
 7641W        W78241   2.585  43.391  11.667
 7642W        W78242   8.777  26.409   1.355
 7643W        W78243  39.492  17.237   1.068
 7644W        W78244  15.967  36.176   5.144
 7645W        W78245  34.829  16.008   3.811
 7646W        W78246  33.799  14.785   4.092
 7647W        W78247  29.697  10.519   1.847
 7648W        W78248  32.607   5.723  11.573
 7649W        W78249   8.731  16.845   2.837
 7650W        W78250   9.709  13.590   1.967
 7651W        W78251  18.760  39.970   1.257
 7652W        W78252  32.889   2.755   2.551
 7653W        W78253   2.023  20.008  12.999
 7654W        W78254  42.112  34.640  12.104
 7655W        W78255  16.277  29.903   2.441
 7656W        W78256   8.295  16.092  11.059
 7657W        W78257  41.546   3.724   0.281
 7658W        W78258  37.154  36.404   1.272
 7659W        W78259  24.566  33.475   4.719
 7660W        W78260  26.497  28.300  10.953
 7661W        W78261  11.371   5.964   3.265
 7662W        W78262   6.607  36.542  12.453
 7663W        W78263  23.819  25.099  12.128
 7664W        W78264   3.476   3.367   4.670
 7665W        W78265  26.284  13.279   0.091
 7666W        W78266  31.318  35.682  14.994
 7667W        W78267  12.178  44.757   3.676
 7668W        W78268  14.144  24.165  12.105
 7669W        W78269  12.196  14.637   0.384
 7670W        W78270  29.801  31.268   1.413
 7671W        W78271  10.612  16.084  14.757
 7672W        W78272  43.986  10.029  14.238
 7673W        W78273  40.970  13.708  12.031
 7674W        W78274  16.038   7.609  13.415
 7675W        W78275  13.748  42.513  11.260
 7676W        W78276  33.135  19.083   0.436
 7677W        W78277  28.714  33.081   3.164
 7678W        W78278  10.452  17.028  11.134
 7679W        W78279  10.817   1.832   2.626
 7680W        W78280   5.698   0.684   0.290
 7681W        W78281   6.213  15.046  11.584
 7682W        W78282  28.651  36.833  12.596
 7683W        W78283   9.920  26.444   0.742
 7684W        W78284  41.500   8.416   0.372
 7685W        W78285  21.835  43.097   1.638
 7686W        W78286  17.222  15.191   4.113
 7687W        W78287  25.481   2.904   2.766
 7688W        W78288  19.549  32.062   1.217
 7689W        W78289  36.045  33.056   3.094
 7690W        W78290   6.178  31.687  13.087
 7691W        W78291   9.926  42.675  11.565
 7692W        W78292   2.337   9.589  12.063
 7693W        W78293  18.283   6.741   1.731
 7694W        W78294  15.280  38.062  14.257
 7695W        W78295  22.009  27.017   2.413
 7696W        W78296  31.526  43.573   4.544
 7697W        W78297  30.181   9.278   2.644
 7698W        W78298   7.947  16.211  10.707
 7699W        W78299  22.092   4.969  11.945
 7700W        W78300   1.002  27.221  13.616
 7701W        W78301  29.497  37.861  13.244
 7702W        W78302  31.483  15.161  12.952
 7703W        W78303   5.446  15.697   2.856
 7704W        W78304  42.726  39.520   1.690
 7705W        W78305   3.938   7.949   1.296
 7706W        W78306  25.369   3.834   1.895
 7707W        W78307  31.352  23.206  12.115
 7708W        W78308  16.065   2.913  12.959
 7709W        W78309  16.680  35.869   2.146
 7710W        W78310  43.965  29.997  13.601
 7711W        W78311   7.418   6.135  10.925
 7712W        W78312   4.709  25.303  12.086
 7713W        W78313  11.110  18.323  14.156
 7714W        W78314   3.055  17.151  13.679
 7715W        W78315  19.457  18.595  14.618
 7716W        W78316   1.321  43.031   3.900
 7717W        W78317  13.133  17.576   2.689
 7718W        W78318  34.109   2.766   4.675
 7719W        W78319  10.612  16.527  11.063
 7720W        W78320  30.374   3.973   4.158
 7721W        W78321  37.677   0.028  11.539
 7722W        W78322  29.339  12.447   2.210
 7723W        W78323  40.865  30.606  13.546
 7724W        W78324   6.623  27.363  14.342
 7725W        W78325  37.084  13.895   3.180
 7726W        W78326  12.380  12.267  11.595
 7727W        W78327   6.419  34.089  10.752
 7728W        W78328  41.870  31.919  12.061
 7729W        W78329  34.574  30.408   0.250
 7730W        W78330   6.180  10.301  13.531
 7731W        W78331   0.579   6.831  14.452
 7732W        W78332  25.069  14.472   3.972
 7733W        W78333  40.274  24.463   0.856
 7734W        W78334  39.779  16.204   0.809
 7735W        W78335   9.861   1.465   0.284
 7736W        W78336  15.833  24.192  13.009
 7737W        W78337  13.873  30.705   1.910
 7738W        W78338  19.103  28.916  10.475
 7739W        W78339  42.712  41.415  14.908
 7740W        W78340  43.283  16.991  10.709
 7741W        W78341  28.663   5.303  11.408
 7742W        W78342   7.264   2.230  13.776
 7743W        W78343  21.851  44.970   1.958
 7744W        W78344  41.939  21.766   0.772
 7745W        W78345  42.838   2.221   2.640
 7746W        W78346  28.021  38.891   4.636
 7747W        W78347  30.447   3.239  11.245
 7748W        W78348   1.224   3.537   5.024
 7749W        W78349   5.023   7.632   4.051
 7750W        W78350  25.264  13.137   2.890
 7751W        W78351  29.017   5.426   1.489
 7752W        W78352   6.363  32.959  12.054
 7753W        W78353  42.959  14.330   0.280
 7754W        W78354  22.653  31.507  14.388
 7755W        W78355  23.034  25.830   1.688
 7756W        W78356  10.836  28.484  11.132
 7757W        W78357   1.629  35.260  11.148
 7758W        W78358   5.008  26.447  13.395
 7759W        W78359   9.444  24.111   3.797
 7760W        W78360   2.395  19.803  14.991
 7761W        W78361   0.068  42.411  11.562
 7762W        W78362   5.911  37.401  12.030
 7763W        W78363   0.205  31.942   4.168
 7764W        W78364  13.832   0.012  14.804
 7765W        W78365  12.018  22.551   1.731
 7766W        W78366  28.563  23.992   3.216
 7767W        W78367  24.747   5.471   0.831
 7768W        W78368   8.509  24.739   3.170
 7769W        W78369  17.231   9.177  11.126
 7770W        W78370  20.536   6.496   1.912
 7771W        W78371  16.288  33.116   3.145
 7772W        W78372  27.949  40.023   1.295
 7773W        W78373   9.810  30.605   2.753
 7774W        W78374  37.055  25.402  10.674
 7775W        W78375  31.422   9.334   2.175
 7776W        W78376  18.614  32.946   0.734
 7777W        W78377  21.141  37.162  12.093
 7778W        W78378   8.228  19.466   0.174
 7779W        W78379   5.756   9.783   2.329
 7780W        W78380   7.509  43.004   4.735
 7781W        W78381   0.504  40.533  11.648
 7782W        W78382  19.319   9.309  14.397
 7783W        W78383   1.430  20.980  11.047
 7784W        W78384  41.790   8.004   0.264
 7785W        W78385  27.870  16.956   1.117
 7786W        W78386  38.380   4.493  11.930
 7787W        W78387  31.091  18.639  12.968
 7788W        W78388  39.469  10.407   1.776
 7789W        W78389   8.200  30.540   3.634
 7790W        W78390  34.392  39.839  12.554
 7791W        W78391  36.590  12.637  14.192
 7792W        W78392   7.823  28.937  12.440
 7793W        W78393  27.889  25.042  13.132
 7794W        W78394  10.295  44.840  14.903
 7795W        W78395  37.037  18.581   0.729
 7796W        W78396   4.414  25.645   3.686
 7797W        W78397  34.609   7.806   0.277
 7798W        W78398   1.639  42.598  13.010
 7799W        W78399  30.572  32.101  14.843
 7800W        W78400  19.977   6.800   0.833
 7801W        W78401   0.944  28.349  12.820
 7802W        W78402   8.907  34.130  11.996
 7803W        W78403   0.276  26.375   2.444
 7804W        W78404   4.167  29.670  11.954
 7805W        W78405  42.520  13.936  10.933
 7806W        W78406  20.097  22.980  13.900
 7807W        W78407  35.898  28.122   1.661
 7808W        W78408  31.977  16.595  14.362
 7809W        W78409  21.537  17.420   4.864
 7810W        W78410  23.760   9.789  12.628
 7811W        W78411  21.663  30.002  14.828
 7812W        W78412  31.405   1.925  10.534
 7813W        W78413   8.216  25.168   3.310
 7814W        W78414  39.948  33.643   1.771
 7815W        W78415  20.719  37.665   3.283
 7816W        W78416  20.890  35.578  10.709
 7817W        W78417   8.048  18.527   4.569
 7818W        W78418  29.337  16.166   4.597
 7819W        W78419  27.264   8.375   0.851
 7820W        W78420   9.692  35.663  13.071
 7821W        W78421  24.760  12.770   1.855
 7822W        W78422  44.691   2.276  11.464
 7823W        W78423  34.878  27.017  11.101
 7824W        W78424   7.286   1.784  14.980
 7825W        W78425  16.175  32.609   4.632
 7826W        W78426  28.111  34.237   5.050
 7827W        W78427   5.628  35.936   3.797
 7828W        W78428  34.907  14.755  13.892
 7829W        W78429  34.831  20.066   0.640
 7830W        W78430  16.255  38.584  12.128
 7831W        W78431  43.338  39.933   0.445
 7832W        W78432  41.329  23.806   3.375
 7833W        W78433  44.791  19.316   3.753
 7834W        W78434  31.894  28.965   1.659
 7835W        W78435  44.319  39.963  11.167
 7836W        W78436  19.807  11.541   5.306
 7837W        W78437  13.870  17.234  14.035
 7838W        W78438  20.016  20.958  10.926
 7839W        W78439  25.201  21.576   3.820
 7840W        W78440   1.674  43.321   1.542
 7841W        W78441  37.609   1.789  10.107
 7842W        W78442  25.205   1.275   1.237
 7843W        W78443  17.273  34.385   0.794
 7844W        W78444  36.827  18.568   4.889
 7845W        W78445  13.640   1.384  13.362
 7846W        W78446  42.350  18.605   3.731
 7847W        W78447   1.367  42.803  13.407
 7848W        W78448  39.443   1.030  12.887
 7849W        W78449  32.362  22.780   1.296
 7850W        W78450   8.187  40.737   4.910
 7851W        W78451  12.669  23.417  11.602
 7852W        W78452  34.848  15.273  11.148
 7853W        W78453  32.153  25.452   2.352
 7854W        W78454  23.115  35.753  14.059
 7855W        W78455  43.715  16.625  13.319
 7856W        W78456  32.368  20.395   1.807
 7857W        W78457   9.396  19.971   0.587
 7858W        W78458   7.760   3.248  13.392
 7859W        W78459  11.372  28.565   1.417
 7860W        W78460  44.898  35.772  14.902
 7861W        W78461  35.816  31.570  13.376
 7862W        W78462   8.795  36.153  12.110
 7863W        W78463  44.237  34.383   3.086
 7864W        W78464  44.743  27.701  14.497
 7865W        W78465  32.546  14.632   3.078
 7866W        W78466  36.761  27.152   0.919
 7867W        W78467   5.225   0.007   0.269
 7868W        W78468  19.483  14.808  11.248
 7869W        W78469  30.454  29.644   0.030
 7870W        W78470  20.092  10.797   1.905
 7871W        W78471  14.113  43.333  13.084
 7872W        W78472  32.020  32.850   1.319
 7873W        W78473  21.006  43.930  12.505
 7874W        W78474  31.033   7.184   0.405
 7875W        W78475   3.278  17.561   4.661
 7876W        W78476   5.735   3.995   1.091
 7877W        W78477  20.266  23.336   0.907
 7878W        W78478   4.724  11.732  10.059
 7879W        W78479   3.750   8.580  14.086
 7880W        W78480  36.224   3.066  12.826
 7881W        W78481   4.319  22.230   1.393
 7882W        W78482  34.119  37.697  11.983
 7883W        W78483  35.337   8.859  13.198
 7884W        W78484  23.231  12.146   4.035
 7885W        W78485   0.296   7.893  12.425
 7886W        W78486   8.127  19.302  13.434
 7887W        W78487  42.022   3.519   0.429
 7888W        W78488  22.010  29.505   0.665
 7889W        W78489  30.441  28.085  13.977
 7890W        W78490  18.356  28.589  12.993
 7891W        W78491  29.964   6.350  10.900
 7892W        W78492   9.906  22.317  13.007
 7893W        W78493  14.625  34.061   0.346
 7894W        W78494   9.171  13.650  13.810
 7895W        W78495  32.534  18.091   3.271
 7896W        W78496   4.491  31.549   0.377
 7897W        W78497  13.771  43.843   1.248
 7898W        W78498  26.187  38.825   0.944
 7899W        W78499   9.334  36.853   2.648
 7900W        W78500  39.895  33.910  14.072
 7901W        W78501   1.522  16.728   3.490
 7902W        W78502   9.745  24.549   2.345
 7903W        W78503  17.770  31.044   3.633
 7904W        W78504  20.355   9.413  14.540
 7905W        W78505  26.474  33.473  13.522
 7906W        W78506  25.251  33.188   0.775
 7907W        W78507  39.313   2.860   1.875
 7908W        W78508   2.728  20.069  14.305
 7909W        W78509  10.729  20.589  14.993
 7910W        W78510   7.396  37.158  12.617
 7911W        W78511  30.469  34.117  10.407
 7912W        W78512  18.471   6.256   4.189
 7913W        W78513  20.126  38.165   1.867
 7914W        W78514  23.939  11.645   1.289
 7915W        W78515  21.643  26.704   4.053
 7916W        W78516  21.225   4.361  14.571
 7917W        W78517  30.932  20.062  12.844
 7918W        W78518  34.575  11.578   3.348
 7919W        W78519  39.932  10.004   0.023
 7920W        W78520   8.521  26.679  13.278
 7921W        W78521   7.156  15.188   3.643
 7922W        W78522  13.579   5.492  14.304
 7923W        W78523  17.166  35.022  10.630
 7924W        W78524  23.823  10.749   4.891
 7925W        W78525  31.940   7.442  11.169
 7926W        W78526   7.338  15.346   2.246
 7927W        W78527  27.537   2.722   0.393
 7928W        W78528  36.322  19.109  10.547
 7929W        W78529  39.389   9.337   1.412
 7930W        W78530  44.234  30.146   1.869
 7931W        W78531  21.586   5.120  13.667
 7932W        W78532  30.656  34.436   0.521
 7933W        W78533  21.384   4.300   3.718
 7934W        W78534  21.258  13.902  13.517
 7935W        W78535  13.191  39.137  14.875
 7936W        W78536   4.514  29.155  13.578
 7937W        W78537   2.060  24.912  11.212
 7938W        W78538   5.009  17.695   3.715
 7939W        W78539   7.708  41.502   2.291
 7940W        W78540  12.554  18.409   1.309
 7941W        W78541  19.746  13.744  14.929
 7942W        W78542  34.114  18.089  12.007
 7943W        W78543   5.004  18.318   0.843
 7944W        W78544  28.971  35.060   2.642
 7945W        W78545  43.510  36.708   2.702
 7946W        W78546  26.228  11.436   0.768
 7947W        W78547  25.616  40.503  13.290
 7948W        W78548  28.138  34.103   0.348
 7949W        W78549  27.518  20.009   2.541
 7950W        W78550   3.865   1.443  11.009
 7951W        W78551  20.684  28.419   0.803
 7952W        W78552  23.771  21.110   1.328
 7953W        W78553  32.324  16.036  14.884
 7954W        W78554  40.714  37.030  14.944
 7955W        W78555  13.852  43.762  14.007
 7956W        W78556  22.997  19.743   4.643
 7957W        W78557  11.831  31.135  11.356
 7958W        W78558  25.987   9.043   2.595
 7959W        W78559  32.928  21.996   4.038
 7960W        W78560  31.275  42.311   3.625
 7961W        W78561   9.881  16.075  12.643
 7962W        W78562  22.978  13.317  12.544
 7963W        W78563   4.284  41.475  10.900
 7964W        W78564  23.484  24.012   0.974
 7965W        W78565  41.595  10.540  11.138
 7966W        W78566   3.363  13.478  13.728
 7967W        W78567  37.743  18.964  14.346
 7968W        W78568  29.225  34.020  10.383
 7969W        W78569   8.804   7.315   4.133
 7970W        W78570   4.184  14.645   2.668
 7971W        W78571   5.922  29.136  10.606
 7972W        W78572  23.161  16.749   0.370
 7973W        W78573  28.578  13.231  14.313
 7974W        W78574   4.456  28.097   4.733
 7975W        W78575  10.422  18.058   3.792
 7976W        W78576   0.974  13.116   2.457
 7977W        W78577  10.400  39.831   2.705
 7978W        W78578  25.630  11.728   3.593
 7979W        W78579  20.227  28.441   1.201
 7980W        W78580  28.359  19.024   2.799
 7981W        W78581   7.137  12.532   2.840
 7982W        W78582  14.260  37.137   1.429
 7983W        W78583  24.858   3.470   1.302
 7984W        W78584  30.088   2.487   1.363
 7985W        W78585   3.486   3.787   0.309
 7986W        W78586   1.035   6.383  11.287
 7987W        W78587   8.322  29.719   4.195
 7988W        W78588  13.270  41.420   4.125
 7989W        W78589  23.598  25.906  11.122
 7990W        W78590   1.811  16.113  12.977
 7991W        W78591  33.286  23.650  10.520
 7992W        W78592   8.430  32.887  14.319
 7993W        W78593  12.228  41.671   3.758
 7994W        W78594  29.760   7.780   2.232
 7995W        W78595  15.412   3.267  12.035
 7996W        W78596  33.544  33.136  12.734
 7997W        W78597   8.053   4.580  11.520
 7998W        W78598   9.837  23.445  14.942
 7999W        W78599  39.066  17.308   4.082
 8000W        W78600  35.530   5.651   2.610
 8001W        W78601  35.404  29.669   2.751
 8002W        W78602  30.973  22.018   3.022
 8003W        W78603  41.739  30.684   2.730
 8004W        W78604   6.003  16.296  12.829
 8005W        W78605  25.983  16.386   0.392
 8006W        W78606  41.855  15.233   2.832
 8007W        W78607  44.453  28.053  11.572
 8008W        W78608   4.243  25.370  12.347
 8009W        W78609   9.720   9.338  14.263
 8010W        W78610   3.216  14.121  12.478
 8011W        W78611  10.323   8.673   1.105
 8012W        W78612  10.805  40.956   2.762
 8013W        W78613  13.192  30.145   3.954
 8014W        W78614  16.815   0.140   0.285
 8015W        W78615  27.577  23.697  11.224
 8016W        W78616  21.224   0.509   1.848
 8017W        W78617  16.804  24.699   2.225
 8018W        W78618   2.240  31.451  13.311
 8019W        W78619   9.365  12.196   1.224
 8020W        W78620  19.432  39.966  12.790
 8021W        W78621   6.649  40.851   4.113
 8022W        W78622  11.140  42.497   4.167
 8023W        W78623   1.432  37.913  14.433
 8024W        W78624  33.802  18.477  14.449
 8025W        W78625  21.874  19.735  14.787
 8026W        W78626   1.940   3.017   3.258
 8027W        W78627   1.406   8.749  11.306
 8028W        W78628  31.128  22.581   3.350
 8029W        W78629  32.432  36.395   3.333
 8030W        W78630  12.727  29.650  13.643
 8031W        W78631  38.270   2.189   1.005
 8032W        W78632  24.691   4.531   2.803
 8033W        W78633  29.415  14.581   1.263
 8034W        W78634  44.980  43.565   2.274
 8035W        W78635  14.597  44.516  10.276
 8036W        W78636  43.170  42.690  14.440
 8037W        W78637  15.045  32.853   4.734
 8038W        W78638  10.242  42.437  14.062
 8039W        W78639  11.762  26.133   3.352
 8040W        W78640   1.316  40.073  14.815
 8041W        W78641  16.715  13.166  14.399
 8042W        W78642  28.526  21.114   0.375
 8043W        W78643  17.540  14.230  14.148
 8044W        W78644  27.084  21.043   1.897
 8045W        W78645  15.622  19.627   3.840
 8046W        W78646  43.405  27.753  11.529
 8047W        W78647  33.571  31.397   4.577
 8048W        W78648   2.782  25.530  11.675
 8049W        W78649  25.537  26.106   4.123
 8050W        W78650  22.168  15.636  11.697
 8051W        W78651  38.920   2.063  12.321
 8052W        W78652  13.670  26.853   2.294
 8053W        W78653   6.264  19.008  14.246
 8054W        W78654   8.271   3.232   3.336
 8055W        W78655  22.079  36.428   4.042
 8056W        W78656   3.879  34.071  12.973
 8057W        W78657  14.120  29.787  13.456
 8058W        W78658   0.806  29.528   1.449
 8059W        W78659  42.046  43.809  12.011
 8060W        W78660  10.638  18.494  14.977
 8061W        W78661  24.447  20.043   2.204
 8062W        W78662  28.034   6.783  12.376
 8063W        W78663  17.819   0.473   0.495
 8064W        W78664  28.186  12.544  11.077
 8065W        W78665  12.729  41.058  13.822
 8066W        W78666  42.417  28.724  14.463
 8067W        W78667  18.077  39.619  14.203
 8068W        W78668  15.828  36.055   4.266
 8069W        W78669  11.965  23.632   0.789
 8070W        W78670  26.454  38.354   3.672
 8071W        W78671  13.858   2.375  14.855
 8072W        W78672  11.708   6.365   3.175
 8073W        W78673  22.670  10.112   4.625
 8074W        W78674  38.288  33.619  12.613
 8075W        W78675  40.881  43.667  14.198
 8076W        W78676  41.483  24.775  13.027
 8077W        W78677  11.902  28.238   0.312
 8078W        W78678  30.226  35.542   0.436
 8079W        W78679  12.984  43.941   0.554
 8080W        W78680  21.174  18.759  11.385
 8081W        W78681   9.343  25.910  13.163
 8082W        W78682   6.421  24.936   9.922
 8083W        W78683  13.073  28.660   3.772
 8084W        W78684  10.280  44.183  10.051
 8085W        W78685  34.799   5.684   0.302
 8086W        W78686  44.990  10.999  11.182
 8087W        W78687  13.364   7.964   0.586
 8088W        W78688  41.000  19.817  13.449
 8089W        W78689  34.265  21.209  11.936
 8090W        W78690   1.495  34.393  11.593
 8091W        W78691  11.185  31.173  12.549
 8092W        W78692   8.337  35.587  11.604
 8093W        W78693  36.114  28.511   3.978
 8094W        W78694  25.199   8.945  13.949
 8095W        W78695   6.893  38.308  14.774
 8096W        W78696  20.081  40.767  11.896
 8097W        W78697  43.911   3.410   4.795
 8098W        W78698  29.133  24.542   1.209
 8099W        W78699  13.656  17.020   1.695
 8100W        W78700  28.579  40.023  13.362
 8101W        W78701  39.080  12.132   1.693
 8102W        W78702  41.756   4.767   3.817
 8103W        W78703  31.131   0.535   0.031
 8104W        W78704  11.085  19.087  14.472
 8105W        W78705  15.686  19.912  13.759
 8106W        W78706  20.080  23.503  13.863
 8107W        W78707  41.128   6.345  11.920
 8108W        W78708   8.291   8.404   3.241
 8109W        W78709  44.229  39.366   1.394
 8110W        W78710  23.344  41.774   2.658
 8111W        W78711  39.798  16.213   1.337
 8112W        W78712  24.771  11.077  12.838
 8113W        W78713  14.346  33.347  12.982
 8114W        W78714   6.435  33.484   4.884
 8115W        W78715  17.072  19.804   0.749
 8116W        W78716  29.911  34.492   3.425
 8117W        W78717  29.384   7.689   3.066
 8118W        W78718  23.741  38.320   3.580
 8119W        W78719  26.946  24.730   3.721
 8120W        W78720  43.254   2.309  14.450
 8121W        W78721  43.901  42.592   4.654
 8122W        W78722  29.034  16.106   2.800
 8123W        W78723  25.593  27.639  12.321
 8124W        W78724  29.066   3.265   1.331
 8125W        W78725  38.623  10.737  12.685
 8126W        W78726  10.315   2.972   2.281
 8127W        W78727  31.953  16.061  12.996
 8128W        W78728   3.774  25.709   2.417
 8129W        W78729   3.167  31.995  14.336
 8130W        W78730  11.352  12.369  13.365
 8131W        W78731  43.200  32.240  10.730
 8132W        W78732  33.633  31.358   0.935
 8133W        W78733   9.830  42.113   1.877
 8134W        W78734  30.089  31.716  10.205
 8135W        W78735  41.483  37.313   2.764
 8136W        W78736  20.009  44.855   3.756
 8137W        W78737  24.091  11.232  14.723
 8138W        W78738  27.433   3.807  13.620
 8139W        W78739   0.262  22.394  14.412
 8140W        W78740  16.363  20.465  14.032
 8141W        W78741  24.383  24.598  13.374
 8142W        W78742   2.939   6.319  11.064
 8143W        W78743  41.014  13.606  12.552
 8144W        W78744   4.818  11.572   3.187
 8145W        W78745  15.722   4.416   1.107
 8146W        W78746   5.918  37.904  11.936
 8147W        W78747  44.428  10.184  12.491
 8148W        W78748  43.620  24.970   2.204
 8149W        W78749  30.911  32.092  11.598
 8150W        W78750  32.892  27.052  13.741
 8151W        W78751  18.129  40.412   0.301
 8152W        W78752   5.400  22.248   4.962
 8153W        W78753  12.613  30.162  12.497
 8154W        W78754   0.277  13.714   0.879
 8155W        W78755  40.342  30.285   4.008
 8156W        W78756   2.381   9.171  11.754
 8157W        W78757   8.833   4.872  10.455
 8158W        W78758  22.469  33.555  11.057
 8159W        W78759   9.584   3.421   4.825
 8160W        W78760  19.206  27.929  14.227
 8161W        W78761  11.749   7.191  12.096
 8162W        W78762  14.991   9.329   2.808
 8163W        W78763  36.904  33.850   4.506
 8164W        W78764  27.135  32.947  10.695
 8165W        W78765   9.865  41.124  14.027
 8166W        W78766   5.772  14.855   3.236
 8167W        W78767  31.388   1.067   0.048
 8168W        W78768  32.037  29.711  11.556
 8169W        W78769  20.214  36.587  11.682
 8170W        W78770  37.441  43.712   2.785
 8171W        W78771  25.200  28.546  11.630
 8172W        W78772  36.405  21.557   3.717
 8173W        W78773  37.282   6.697  12.206
 8174W        W78774   5.469  10.128   4.826
 8175W        W78775  32.259   3.723   0.395
 8176W        W78776  12.240  40.878  14.821
 8177W        W78777  24.552  24.047  11.159
 8178W        W78778  37.543  40.020  14.853
 8179W        W78779  29.900  12.106  12.965
 8180W        W78780  31.963   2.320  14.416
 8181W        W78781  16.122   3.400   0.411
 8182W        W78782  28.179  12.599   0.260
 8183W        W78783  33.586  16.564  12.746
 8184W        W78784  20.936  32.880   2.225
 8185W        W78785  22.609  31.892  11.064
 8186W        W78786   0.605   6.190  11.502
 8187W        W78787   6.184  25.156  13.407
 8188W        W78788  31.674  28.644   3.726
 8189W        W78789   8.339  31.779   4.988
 8190W        W78790  32.162  41.556  13.037
 8191W        W78791  41.647  22.580  13.288
 8192W        W78792  16.190   1.488   4.471
 8193W        W78793   1.176  30.925  11.657
 8194W        W78794  14.396  42.279  14.887
 8195W        W78795   8.480   9.837  11.030
 8196W        W78796  17.182  24.756   3.656
 8197W        W78797  36.420  26.989   3.622
 8198W        W78798  27.945  25.616  12.561
 8199W        W78799  10.376   6.535  11.946
 8200W        W78800  14.581  10.071   0.514
 8201W        W78801  31.616  15.172   2.835
 8202W        W78802  30.625  37.457   5.077
 8203W        W78803   6.346  25.512  14.244
 8204W        W78804  37.304  23.543  10.600
 8205W        W78805   5.678  23.029   0.241
 8206W        W78806   4.544   4.022   2.323
 8207W        W78807  37.228  30.915   4.594
 8208W        W78808  13.082  20.516   3.725
 8209W        W78809   0.928   6.863   1.288
 8210W        W78810   0.861  42.515   0.154
 8211W        W78811  32.744  41.481   3.918
 8212W        W78812  25.666  37.984  13.388
 8213W        W78813  30.496   8.888  12.927
 8214W        W78814  10.240  21.785   2.465
 8215W        W78815  19.239  21.686   1.433
 8216W        W78816  16.316   5.264  14.065
 8217W        W78817  24.769  37.750  12.004
 8218W        W78818  22.015  17.103   1.310
 8219W        W78819  26.168  15.286  11.197
 8220W        W78820  31.634  42.513  12.540
 8221W        W78821   6.301  33.567   2.730
 8222W        W78822  30.349  24.096   2.244
 8223W        W78823  28.966  20.799  11.388
 8224W        W78824  23.209  32.398  14.283
 8225W        W78825  26.459  26.387   2.327
 8226W        W78826   3.331  25.456   2.572
 8227W        W78827  13.320   8.148  10.596
 8228W        W78828  38.337  28.199   4.141
 8229W        W78829  17.744   3.494   0.351
 8230W        W78830  18.547  26.435   1.205
 8231W        W78831  32.575  34.646  11.201
 8232W        W78832   1.965  39.748  12.337
 8233W        W78833  38.822  29.699   2.394
 8234W        W78834  16.687  10.808   1.544
 8235W        W78835  26.980  26.490  12.556
 8236W        W78836  29.092  29.904   0.201
 8237W        W78837   1.224  14.553  12.210
 8238W        W78838  12.244  34.232   2.152
 8239W        W78839  40.105   4.149  11.724
 8240W        W78840  33.855  21.054   3.287
 8241W        W78841   5.021  29.067  13.572
 8242W        W78842  30.795  26.804   2.352
 8243W        W78843  29.438  36.525   3.612
 8244W        W78844  33.095   5.829   2.775
 8245W        W78845  23.671   1.308   2.962
 8246W        W78846  35.534   5.503  11.551
 8247W        W78847  29.942  38.881  10.656
 8248W        W78848   5.516  43.512  14.874
 8249W        W78849  17.151  44.360  14.468
 8250W        W78850  32.098  36.044  11.857
 8251W        W78851   6.140  14.868  14.529
 8252W        W78852  13.235  33.542   4.620
 8253W        W78853   8.372  19.495  12.890
 8254W        W78854  24.270   2.169  14.728
 8255W        W78855  16.360  36.953   0.970
 8256W        W78856  20.006  40.459   2.141
 8257W        W78857  34.601  11.205   3.724
 8258W        W78858  36.612  44.005  12.681
 8259W        W78859  34.631   9.950  13.562
 8260W        W78860  17.618  14.667   1.379
 8261W        W78861  33.834  38.829   9.910
 8262W        W78862  24.662  13.270  12.979
 8263W        W78863  24.996  31.187   1.818
 8264W        W78864   3.252  26.094  14.881
 8265W        W78865  11.188   8.801   0.974
 8266W        W78866  29.650   9.751   2.058
 8267W        W78867  43.016  43.339   3.236
 8268W        W78868  26.537  44.072   1.372
 8269W        W78869   5.468  23.545  14.396
 8270W        W78870   4.602  12.275  10.707
 8271W        W78871  42.424  40.216   2.704
 8272W        W78872  44.162  28.049  12.420
 8273W        W78873  26.794  33.506   2.836
 8274W        W78874  36.750  25.323  13.010
 8275W        W78875  33.406   3.981  12.037
 8276W        W78876   8.831  40.287  14.150
 8277W        W78877   8.411  29.005  11.803
 8278W        W78878  37.335  40.280  13.449
 8279W        W78879   8.008  16.000   4.194
 8280W        W78880   8.169   9.726  14.907
 8281W        W78881   8.195   1.210   4.039
 8282W        W78882  31.151   4.010   2.828
 8283W        W78883   4.255  38.485  14.458
 8284W        W78884  19.077  24.217   0.824
 8285W        W78885  10.420   2.347   1.739
 8286W        W78886  25.622  10.276   4.070
 8287W        W78887  36.081   2.844   2.646
 8288W        W78888  18.992  40.988   3.787
 8289W        W78889  22.625  40.028  11.664
 8290W        W78890  23.678  38.322   2.659
 8291W        W78891  11.206  39.439  13.014
 8292W        W78892  44.910  44.112  12.015
 8293W        W78893  27.902   9.998   0.838
 8294W        W78894  12.400  24.184  12.633
 8295W        W78895  27.102   4.401  12.361
 8296W        W78896   4.182  32.989   0.303
 8297W        W78897  37.832  41.500  13.472
 8298W        W78898  44.470  25.032   2.496
 8299W        W78899  37.448  43.627  11.171
 8300W        W78900  16.126   8.669   4.883
 8301W        W78901  13.654  19.305   1.386
 8302W        W78902  26.687  42.589   3.848
 8303W        W78903   7.701   1.569   0.613
 8304W        W78904  28.939   8.874   1.348
 8305W        W78905  32.878   0.443  14.367
 8306W        W78906  15.627  37.275   2.468
 8307W        W78907  41.522  28.467  12.866
 8308W        W78908  36.040   5.743   2.383
 8309W        W78909  36.988  26.172   4.007
 8310W        W78910  19.105  11.294   2.947
 8311W        W78911  28.523  28.371  11.943
 8312W        W78912  37.830  43.356   2.715
 8313W        W78913  20.251  22.155   2.865
 8314W        W78914  43.881  33.358   3.661
 8315W        W78915  25.173  29.102  14.457
 8316W        W78916   2.078   5.429   0.652
 8317W        W78917  28.668  38.120  12.731
 8318W        W78918  44.261   1.695  12.211
 8319W        W78919  26.313   9.194   1.681
 8320W        W78920  21.156   6.607   1.207
 8321W        W78921   6.988   5.659   0.576
 8322W        W78922   4.948  12.814  13.227
 8323W        W78923  22.180  40.252  11.503
 8324W        W78924  36.282  43.920   1.696
 8325W        W78925  18.563  41.384   4.391
 8326W        W78926  21.074   2.711   1.316
 8327W        W78927  38.489  15.548  11.559
 8328W        W78928  14.726  33.690  12.088
 8329W        W78929  35.450  37.497  10.736
 8330W        W78930  39.565  25.536   3.367
 8331W        W78931  10.587  14.763  11.435
 8332W        W78932  14.621  42.013  12.612
 8333W        W78933  26.596   1.325   1.407
 8334W        W78934  15.241  37.732   4.062
 8335W        W78935  15.603  15.315   2.749
 8336W        W78936   7.246   2.821   1.424
 8337W        W78937  13.723  34.570  12.402
 8338W        W78938   7.898  40.909  11.223
 8339W        W78939  12.605  12.301  13.835
 8340W        W78940  26.789   0.296   1.873
 8341W        W78941  30.374   4.716  12.839
 8342W        W78942  31.008  15.326   1.755
 8343W        W78943  22.167  12.358   2.720
 8344W        W78944  12.660  25.440  11.739
 8345W        W78945  15.016  37.867  10.984
 8346W        W78946  37.097   6.936   1.890
 8347W        W78947  10.939  34.110  11.924
 8348W        W78948   2.289  44.445   2.903
 8349W        W78949  41.493   4.494  13.103
 8350W        W78950  25.497   5.667  11.341
 8351W        W78951  11.958   2.367  12.433
 8352W        W78952  38.571  10.174   2.118
 8353W        W78953  19.009  29.869  14.820
 8354W        W78954   6.116  15.559  13.875
 8355W        W78955  19.264   3.655  12.289
 8356W        W78956  16.169   5.343   3.805
 8357W        W78957  21.228  17.023  12.582
 8358W        W78958  27.374  25.515  10.658
 8359W        W78959  34.982  41.795  10.619
 8360W        W78960  42.923   6.373   2.916
 8361W        W78961  31.124  26.090   1.374
 8362W        W78962  16.380   2.408  10.771
 8363W        W78963   3.088  35.709  12.134
 8364W        W78964   0.794   8.210  14.003
 8365W        W78965  40.431   8.250   2.694
 8366W        W78966  32.733  18.282   2.412
 8367W        W78967  44.752   3.436   4.597
 8368W        W78968  32.526   7.197   4.199
 8369W        W78969   7.551   3.456  11.569
 8370W        W78970  35.584  20.050   3.724
 8371W        W78971  23.144  23.484   4.602
 8372W        W78972  42.569   8.370  11.721
 8373W        W78973   9.404  41.783  12.544
 8374W        W78974  41.751  41.293   2.207
 8375W        W78975  11.677  22.994  10.752
 8376W        W78976  26.523  16.320  13.371
 8377W        W78977  37.391   6.901   3.636
 8378W        W78978   4.644  33.134  14.299
 8379W        W78979  30.426  31.467   0.467
 8380W        W78980  33.738   7.354  11.367
 8381W        W78981   6.934  41.140   4.482
 8382W        W78982  21.367   0.843   4.438
 8383W        W78983  30.098   9.256  14.932
 8384W        W78984  10.325  43.817  11.900
 8385W        W78985  24.460  19.069  10.757
 8386W        W78986  18.161  42.423   2.467
 8387W        W78987   4.251   7.416  10.736
 8388W        W78988  11.935   3.509  12.922
 8389W        W78989   9.694  39.095  11.861
 8390W        W78990  35.027  32.110   2.207
 8391W        W78991  26.837  39.140  10.260
 8392W        W78992  21.140  17.756   4.447
 8393W        W78993  34.186   0.689   2.697
 8394W        W78994   7.882  40.148  14.849
 8395W        W78995  32.143  20.732  11.904
 8396W        W78996  31.005  30.102   4.200
 8397W        W78997   7.595  13.807  14.724
 8398W        W78998  21.800   3.994  11.130
 8399W        W78999  24.456   5.736  10.695
 8400W        W79000   5.211   3.805  11.968
 8401W        W79001  31.848  36.585  11.093
 8402W        W79002  37.456  23.419   2.716
 8403W        W79003  33.052   2.853   3.533
 8404W        W79004   1.737   8.678   4.199
 8405W        W79005   8.040  27.823  14.860
 8406W        W79006  19.209  44.477   3.585
 8407W        W79007   0.800   7.709   2.161
 8408W        W79008   6.552  36.147   2.739
 8409W        W79009   4.370  32.529  11.650
 8410W        W79010   3.398  37.317  12.362
 8411W        W79011  20.187  26.828   3.335
 8412W        W79012  23.685  13.348   4.622
 8413W        W79013  16.799  12.311   2.926
 8414W        W79014  39.059  12.898  12.039
 8415W        W79015  16.625  36.185   3.308
 8416W        W79016  29.531   3.676  10.749
 8417W        W79017  14.117  13.291  13.316
 8418W        W79018  12.720  35.589  10.679
 8419W        W79019  15.562  41.111  14.363
 8420W        W79020   0.405  15.514   3.712
 8421W        W79021  42.854   3.386  13.576
 8422W        W79022  15.601  19.361  12.482
 8423W        W79023  21.340  35.493  14.313
 8424W        W79024   0.986  23.972  13.515
 8425W        W79025  20.892  39.529   3.801
 8426W        W79026  13.201  43.806  13.309
 8427W        W79027  40.306  42.142  14.613
 8428W        W79028  29.980  35.664  14.582
 8429W        W79029  23.496  42.478  13.374
 8430W        W79030   9.685  28.056   1.305
 8431W        W79031  26.186  27.373   4.125
 8432W        W79032  10.810  35.243   4.577
 8433W        W79033   5.187  16.800   1.682
 8434W        W79034  32.602  32.108   1.266
 8435W        W79035  10.839  29.572   2.919
 8436W        W79036  23.098  22.565  11.599
 8437W        W79037  23.091   5.820   0.620
 8438W        W79038  28.616  20.402  12.413
 8439W        W79039  21.589  20.105   4.600
 8440W        W79040   2.728   2.768   1.886
 8441W        W79041  29.549  43.770  13.910
 8442W        W79042   0.386  38.692   2.701
 8443W        W79043  32.704  11.656   9.807
 8444W        W79044  44.124  28.204   3.865
 8445W        W79045   9.115   6.643   3.258
 8446W        W79046  16.543  16.663  11.627
 8447W        W79047  16.747  30.154  11.302
 8448W        W79048   9.878  35.845   0.423
 8449W        W79049  28.455  11.750  10.710
 8450W        W79050  17.594  13.668  14.941
 8451W        W79051  12.894   3.237  12.153
 8452W        W79052   1.589   8.842   1.956
 8453W        W79053  15.092  31.849   4.946
 8454W        W79054   9.869  41.916   4.722
 8455W        W79055   6.601  23.271  12.501
 8456W        W79056  23.931  20.192   3.894
 8457W        W79057  39.657  39.015   3.550
 8458W        W79058   5.640  17.006   3.566
 8459W        W79059  37.795  24.439   0.513
 8460W        W79060  27.676  13.726   3.750
 8461W        W79061  34.188   2.384  12.457
 8462W        W79062  36.011   2.871   4.075
 8463W        W79063  38.847  24.678  11.393
 8464W        W79064  12.691  13.641   4.127
 8465W        W79065  25.248  43.183  12.081
 8466W        W79066  12.268  39.915   2.876
 8467W        W79067  18.158   5.708   3.756
 8468W        W79068  33.942   8.432  12.840
 8469W        W79069   2.429   1.240  14.460
 8470W        W79070  23.026   4.984  14.126
 8471W        W79071  29.874   7.196  11.487
 8472W        W79072  27.112  41.810   4.155
 8473W        W79073  22.777   0.856  11.645
 8474W        W79074  14.033   4.193  14.693
 8475W        W79075  28.065  37.460   0.366
 8476W        W79076  10.263   8.646  10.369
 8477W        W79077  21.787   5.698   4.560
 8478W        W79078  24.531  42.688   4.245
 8479W        W79079  16.611  24.777  12.884
 8480W        W79080  36.100  44.897  12.858
 8481W        W79081  23.958  20.289  14.836
 8482W        W79082   9.376  40.528   4.383
 8483W        W79083   0.607  11.185  12.783
 8484W        W79084  43.505  16.855  12.021
 8485W        W79085  10.169   1.192  12.498
 8486W        W79086  23.904  30.974   1.213
 8487W        W79087  23.057  22.101   3.597
 8488W        W79088  40.067  32.531   1.368
 8489W        W79089  39.481  27.766   4.168
 8490W        W79090  30.978   5.438   1.690
 8491W        W79091   8.411  35.192  11.915
 8492W        W79092  41.454   5.765   1.404
 8493W        W79093  28.419  42.296   2.693
 8494W        W79094  18.855   0.643   0.028
 8495W        W79095   7.602  40.713  11.579
 8496W        W79096   3.352  33.455   1.824
 8497W        W79097  21.009  30.762  13.392
 8498W        W79098  42.692  25.969  13.924
 8499W        W79099   2.165  43.572  12.582
 8500W        W79100  30.860  20.435  11.110
 8501W        W79101  20.593  19.696   0.995
 8502W        W79102   1.547  26.642   5.019
 8503W        W79103  32.180   5.420  11.765
 8504W        W79104  42.083  28.882  10.947
 8505W        W79105   5.776  19.266  14.350
 8506W        W79106  38.767  22.624   2.763
 8507W        W79107  40.009  37.468   1.860
 8508W        W79108  12.997  16.187  10.722
 8509W        W79109  34.405  36.447   3.805
 8510W        W79110  41.535   2.220   3.127
 8511W        W79111  29.002  31.026  14.129
 8512W        W79112  35.394  42.872  11.729
 8513W        W79113  15.645  42.067  14.191
 8514W        W79114  39.199   0.591  12.678
 8515W        W79115  40.927  18.252   2.366
 8516W        W79116  16.245  39.515  14.783
 8517W        W79117  36.315  34.340  10.278
 8518W        W79118  10.479   5.622  11.031
 8519W        W79119  16.332  34.132   0.962
 8520W        W79120  30.034  13.586   1.761
 8521W        W79121  18.806  32.854   3.061
 8522W        W79122  24.542  24.699  11.701
 8523W        W79123  26.918  32.513  12.127
 8524W        W79124  36.518  39.940  13.907
 8525W        W79125  44.297  10.313  11.529
 8526W        W79126  34.090  39.417  12.473
 8527W        W79127  16.563  19.516  11.445
 8528W        W79128  33.810   3.831  14.413
 8529W        W79129  28.164   3.822  13.044
 8530W        W79130  26.629   9.257   4.205
 8531W        W79131  31.886  27.932  12.982
 8532W        W79132   5.447  37.163  10.839
 8533W        W79133  42.297  17.616  10.681
 8534W        W79134  35.179  43.396   0.219
 8535W        W79135   6.807  39.767   3.249
 8536W        W79136  19.909  20.731  12.508
 8537W        W79137   4.322   3.967  11.460
 8538W        W79138  43.225   0.251   2.318
 8539W        W79139  43.410  33.091  10.475
 8540W        W79140  28.500  10.363   4.180
 8541W        W79141  24.431  29.064  14.788
 8542W        W79142  17.780   1.433  13.308
 8543W        W79143   7.975  27.439  13.498
 8544W        W79144   7.197  23.269   0.984
 8545W        W79145  30.472  40.087   0.957
 8546W        W79146   6.278   0.351  11.858
 8547W        W79147  22.050  23.758   4.400
 8548W        W79148  31.541   8.350  12.972
 8549W        W79149  31.499  27.182   2.800
 8550W        W79150  37.900  30.047  12.100
 8551W        W79151  13.227  18.121   2.224
 8552W        W79152   8.236  43.566   1.760
 8553W        W79153  17.280  32.131   0.306
 8554W        W79154  44.667   8.958  12.094
 8555W        W79155  20.193  25.481   3.077
 8556W        W79156  16.226  18.110   2.381
 8557W        W79157  10.293  34.116   2.211
 8558W        W79158  39.565   4.110   1.752
 8559W        W79159  31.167   5.118  12.785
 8560W        W79160  35.329  22.130  11.671
 8561W        W79161  22.449   2.914  11.172
 8562W        W79162   2.066  11.531   5.107
 8563W        W79163   4.738   3.592  10.830
 8564W        W79164  15.760  39.514   0.547
 8565W        W79165   9.150   8.720  12.863
 8566W        W79166   7.392  15.143  14.973
 8567W        W79167  33.015   6.695   3.230
 8568W        W79168  18.477   7.205  13.113
 8569W        W79169  34.471  42.835  13.344
 8570W        W79170   2.694  36.083   2.696
 8571W        W79171  27.090  18.484  11.547
 8572W        W79172   4.977   9.724   1.603
 8573W        W79173  19.673   4.607   1.450
 8574W        W79174  43.788  21.219  12.932
 8575W        W79175  37.004  26.371   1.505
 8576W        W79176   2.491  36.405   1.425
 8577W        W79177  29.896   1.063   4.116
 8578W        W79178   5.653  18.234  12.300
 8579W        W79179   9.108  24.355   4.936
 8580W        W79180  28.614  39.653  14.216
 8581W        W79181  11.318  32.711   1.663
 8582W        W79182  16.290  18.298  11.855
 8583W        W79183  18.217  30.441  12.169
 8584W        W79184  22.791  26.020  13.568
 8585W        W79185  30.057   3.348   1.001
 8586W        W79186  23.920  43.451   1.920
 8587W        W79187  22.720  37.342  12.582
 8588W        W79188  43.223  41.314   4.290
 8589W        W79189  24.148  27.287  13.152
 8590W        W79190  11.899  32.346  13.765
 8591W        W79191   8.352  41.546  10.864
 8592W        W79192   1.746   6.334   0.261
 8593W        W79193  41.140  12.910  13.467
 8594W        W79194  21.498  31.682  13.534
 8595W        W79195  31.339   2.519   0.017
 8596W        W79196  28.558  35.174  13.873
 8597W        W79197  25.150  20.708  14.294
 8598W        W79198  18.971  30.971  14.028
 8599W        W79199  20.150  16.579  12.967
 8600W        W79200  38.883   8.923  13.199
 8601W        W79201  24.915  24.103   1.752
 8602W        W79202  38.113   0.519  12.101
 8603W        W79203  40.001  38.559  11.026
 8604W        W79204  12.518  37.799   2.931
 8605W        W79205  26.629  38.944   0.125
 8606W        W79206  24.209  17.785  11.568
 8607W        W79207  13.442  34.162  14.700
 8608W        W79208   9.888  18.300  13.383
 8609W        W79209   2.980  39.307  12.023
 8610W        W79210  43.064  31.385  12.178
 8611W        W79211   0.680  37.514   0.849
 8612W        W79212  15.156  34.550   0.852
 8613W        W79213  31.416  12.397  13.447
 8614W        W79214  21.072  23.215   0.006
 8615W        W79215  25.304  25.611  14.504
 8616W        W79216  11.084  17.729  11.995
 8617W        W79217  20.618  25.896   4.848
 8618W        W79218  31.631   3.379  11.907
 8619W        W79219   7.188  34.513  13.165
 8620W        W79220  20.603   2.359  11.166
 8621W        W79221   8.997  19.332  12.957
 8622W        W79222   1.458  22.776   2.868
 8623W        W79223   8.410  34.912   2.437
 8624W        W79224  31.310   6.239   3.231
 8625W        W79225  15.226   4.298  11.854
 8626W        W79226  19.683  33.786   0.075
 8627W        W79227  35.230  38.874   1.313
 8628W        W79228   0.766   2.177  11.544
 8629W        W79229  23.529  32.729   3.111
 8630W        W79230  27.074  11.666   2.140
 8631W        W79231   5.701   6.312  11.163
 8632W        W79232  39.144  22.887   3.085
 8633W        W79233   5.418   2.168   4.021
 8634W        W79234  11.137   1.444  13.050
 8635W        W79235  19.654  29.566   4.856
 8636W        W79236  26.258  43.319   3.455
 8637W        W79237  17.240   7.425  10.716
 8638W        W79238  20.919  30.675   4.940
 8639W        W79239  31.389   6.660   4.459
 8640W        W79240  31.399  43.263   4.949
 8641W        W79241  17.653   1.961  12.460
 8642W        W79242  38.908  34.941   2.814
 8643W        W79243   6.093  20.604   4.803
 8644W        W79244  33.440  22.933   4.789
 8645W        W79245  17.190  22.065   4.398
 8646W        W79246   7.831   7.188   4.552
 8647W        W79247  24.762  40.302  11.684
 8648W        W79248  11.192  14.367  11.366
 8649W        W79249  14.656  21.016   1.241
 8650W        W79250  25.202   4.687  11.150
 8651W        W79251   9.237  32.258   0.838
 8652W        W79252  27.089  32.954   1.658
 8653W        W79253  30.275  24.595  14.681
 8654W        W79254   4.957  21.304   0.925
 8655W        W79255  36.319  16.634   4.148
 8656W        W79256  26.907  42.087   3.679
 8657W        W79257  27.257  17.640   4.515
 8658W        W79258  39.034  18.260  11.234
 8659W        W79259  30.365   1.696   2.896
 8660W        W79260  18.698  38.348   1.235
 8661W        W79261   2.902  23.031  11.672
 8662W        W79262  26.893  43.214  13.461
 8663W        W79263  11.211   7.019   3.246
 8664W        W79264   5.633  14.637  12.913
 8665W        W79265  39.077  39.710  14.724
 8666W        W79266   7.250  34.376   3.862
 8667W        W79267   5.667  35.779  13.866
 8668W        W79268  16.032  28.667   1.199
 8669W        W79269  43.893  32.820   3.660
 8670W        W79270   8.349  26.652   3.757
 8671W        W79271  41.820   2.485   0.330
 8672W        W79272   8.633  32.717   2.678
 8673W        W79273   0.924  37.032   1.096
 8674W        W79274  15.993  10.707  12.812
 8675W        W79275  15.780  23.032   3.640
 8676W        W79276  35.897   0.473   3.276
 8677W        W79277  21.758  25.928  14.361
 8678W        W79278  33.317  26.692   1.298
 8679W        W79279   3.689   2.281  13.347
 8680W        W79280  34.375  39.105  12.991
 8681W        W79281  20.424  29.326  12.601
 8682W        W79282   0.764  41.297   2.733
 8683W        W79283  31.379  21.897   2.687
 8684W        W79284  20.315  38.525  12.167
 8685W        W79285  30.788  36.672   4.920
 8686W        W79286  24.898  10.327   0.696
 8687W        W79287  34.145  18.264   2.157
 8688W        W79288   6.424  22.659  13.446
 8689W        W79289  43.483  34.903   1.574
 8690W        W79290   1.624  26.450  12.446
 8691W        W79291   9.815  41.989  10.544
 8692W        W79292  21.506  17.566   1.720
 8693W        W79293   5.014  18.816   4.150
 8694W        W79294  22.883  38.368  13.054
 8695W        W79295  18.588  20.040   3.114
 8696W        W79296   1.749  22.622   4.941
 8697W        W79297  18.631  37.353   2.903
 8698W        W79298   0.535  24.372   3.805
 8699W        W79299   1.292  29.636   4.293
 8700W        W79300  12.776  13.680   0.526
 8701W        W79301  25.029  30.386   3.876
 8702W        W79302  42.029   5.314  14.968
 8703W        W79303   8.753  32.534  13.222
 8704W        W79304  21.221  12.801   2.722
 8705W        W79305  35.621   1.862   2.688
 8706W        W79306  40.775  25.732  10.647
 8707W        W79307  22.404   6.402   4.819
 8708W        W79308  22.554  21.567  13.946
 8709W        W79309  12.237  36.860   3.315
 8710W        W79310  22.333  38.033   4.696
 8711W        W79311   9.366  23.161  12.012
 8712W        W79312  39.491  11.178   1.348
 8713W        W79313  28.650  41.911   2.925
 8714W        W79314  13.377  14.637   2.812
 8715W        W79315  32.227  24.468   3.359
 8716W        W79316  26.468  41.525  13.905
 8717W        W79317  29.092  40.259  11.584
 8718W        W79318  16.190  43.404   1.948
 8719W        W79319   9.345  23.984  14.208
 8720W        W79320  19.637   2.321   2.708
 8721W        W79321  36.482   3.458  13.618
 8722W        W79322  28.795  22.964  13.067
 8723W        W79323  13.847  41.572   0.324
 8724W        W79324  32.811  21.111  11.874
 8725W        W79325  32.110   4.463  13.776
 8726W        W79326  23.053   7.068   2.826
 8727W        W79327  23.005  13.564  11.637
 8728W        W79328  23.154   8.444   1.819
 8729W        W79329  18.987  17.181  11.152
 8730W        W79330  32.445  14.316   1.750
 8731W        W79331  40.733  34.432  13.111
 8732W        W79332  34.393  22.072  13.353
 8733W        W79333   9.670  33.998  12.406
 8734W        W79334   9.730  42.181  12.534
 8735W        W79335  31.577  38.583   0.517
 8736W        W79336  38.363  11.837  11.085
 8737W        W79337  32.302   9.886  10.932
 8738W        W79338  21.475  43.739  12.327
 8739W        W79339  35.834   0.028   4.617
 8740W        W79340  20.385  41.825   1.009
 8741W        W79341  38.851  13.041   2.750
 8742W        W79342  26.504  12.940  13.427
 8743W        W79343  21.489   4.395   4.644
 8744W        W79344  22.843  34.971   0.769
 8745W        W79345  19.498  39.958   0.474
 8746W        W79346  32.990  12.180  14.771
 8747W        W79347  37.861  21.054  12.518
 8748W        W79348  40.810  11.275   3.297
 8749W        W79349  20.184   4.412  11.040
 8750W        W79350   2.876   7.225   2.990
 8751W        W79351  31.440  21.158  12.080
 8752W        W79352   4.745   2.880  14.133
 8753W        W79353  41.965  37.986   0.838
 8754W        W79354   5.154   2.351  13.512
 8755W        W79355   2.465   0.386  14.170
 8756W        W79356   8.102  29.294  11.503
 8757W        W79357  28.615   3.950  14.676
 8758W        W79358  41.874  16.027   1.827
 8759W        W79359  34.774  35.143  13.852
 8760W        W79360  10.372  28.373   4.506
 8761W        W79361  17.621  12.759   0.067
 8762W        W79362  26.777   1.991  12.955
 8763W        W79363  25.614  37.666   0.952
 8764W        W79364  25.677   0.904  11.479
 8765W        W79365  26.141   0.408  11.456
 8766W        W79366   5.840   1.373  11.196
 8767W        W79367  11.325  31.473   1.913
 8768W        W79368  26.244  23.624  14.860
 8769W        W79369  22.979  36.349   4.565
 8770W        W79370  18.340  39.452   2.032
 8771W        W79371   2.748  19.863   4.005
 8772W        W79372   9.885  36.983  11.169
 8773W        W79373  17.967   4.454   3.749
 8774W        W79374  27.888   7.376   1.960
 8775W        W79375  11.233   5.716  11.572
 8776W        W79376  23.818  15.176   1.212
 8777W        W79377   4.071  43.278   3.807
 8778W        W79378  34.097  26.110  11.140
 8779W        W79379  37.991  37.562   4.201
 8780W        W79380  14.075  15.226   0.933
 8781W        W79381  36.726  12.795   1.478
 8782W        W79382  25.574   5.267   2.471
 8783W        W79383  13.102  43.815   2.720
 8784W        W79384  24.192  18.744   1.468
 8785W        W79385   9.306  39.853  14.530
 8786W        W79386  16.283   2.889  12.141
 8787W        W79387  22.503  20.399   2.318
 8788W        W79388  29.040  12.809   0.767
 8789W        W79389  32.111   9.280  12.118
 8790W        W79390  27.036  31.576  14.848
 8791W        W79391  29.131  33.982   1.238
 8792W        W79392   9.749  40.295   1.276
 8793W        W79393  21.271  34.025   0.712
 8794W        W79394  23.751  19.823   4.219
 8795W        W79395  43.308   1.219  11.628
 8796W        W79396  11.069  26.673  14.127
 8797W        W79397   2.433   7.218   2.737
 8798W        W79398  35.561  26.205   1.177
 8799W        W79399   0.777  39.414   2.320
 8800W        W79400  11.656  44.508   2.099
 8801W        W79401  30.571  23.214  11.472
 8802W        W79402  27.826  41.897  12.139
 8803W        W79403  16.193  32.493  10.675
 8804W        W79404  26.831  16.044  11.042
 8805W        W79405   4.172  18.681   0.952
 8806W        W79406  10.151  38.447  12.787
 8807W        W79407  40.421  32.090   2.264
 8808W        W79408  22.866  12.215   4.788
 8809W        W79409   5.737   5.314   2.810
 8810W        W79410  16.196  21.795   4.252
 8811W        W79411  24.467   7.319  14.209
 8812W        W79412   0.220  22.761  14.031
 8813W        W79413  27.094  32.986  12.127
 8814W        W79414  27.776  23.009   3.626
 8815W        W79415  27.929   3.716   2.727
 8816W        W79416  21.617  36.249   2.392
 8817W        W79417  20.236  38.940   2.229
 8818W        W79418  36.611  43.886   4.967
 8819W        W79419  37.457  21.589   1.440
 8820W        W79420  38.544  25.275   3.226
 8821W        W79421   0.323  11.428   1.296
 8822W        W79422  29.931  32.585   1.270
 8823W        W79423  37.720  43.874   4.382
 8824W        W79424  10.807   8.605   4.048
 8825W        W79425  37.356  38.702   1.979
 8826W        W79426  36.389  24.718   0.799
 8827W        W79427  43.647  26.190   4.146
 8828W        W79428  21.767  35.717   1.402
 8829W        W79429  22.525  10.440  11.673
 8830W        W79430  41.474  42.355  13.076
 8831W        W79431  10.263   9.338   0.224
 8832W        W79432  26.754  43.305  10.629
 8833W        W79433  38.950  23.760   4.973
 8834W        W79434  30.162  17.661  12.113
 8835W        W79435  40.975  22.980   2.357
 8836W        W79436   4.654   8.925   0.326
 8837W        W79437  13.892  28.547   3.300
 8838W        W79438  22.252  38.572  12.447
 8839W        W79439  23.222   2.373  10.637
 8840W        W79440  14.206  15.970  12.011
 8841W        W79441  22.038  10.243  12.335
 8842W        W79442  23.708  30.663   2.753
 8843W        W79443  42.130  14.268   3.042
 8844W        W79444  12.773  43.017  14.638
 8845W        W79445  34.491  23.717  13.384
 8846W        W79446  42.799  22.784  14.852
 8847W        W79447  15.446  25.693  10.714
 8848W        W79448  35.081  20.093   4.614
 8849W        W79449  23.224  26.592   1.536
 8850W        W79450  22.093  44.278  14.310
 8851W        W79451  22.533  24.593   0.377
 8852W        W79452   2.826  31.399  10.277
 8853W        W79453   8.602  37.079  10.598
 8854W        W79454  40.927  28.119  11.635
 8855W        W79455  30.713   3.459   0.833
 8856W        W79456   5.677  42.005  12.829
 8857W        W79457   7.061   8.710   1.842
 8858W        W79458  13.700  33.805   0.445
 8859W        W79459  23.525  23.517  13.427
 8860W        W79460  38.937  10.405   0.352
 8861W        W79461  41.861  38.690   3.217
 8862W        W79462  14.347   1.026  14.282
 8863W        W79463  21.422  35.052   3.460
 8864W        W79464  13.237  32.207  13.408
 8865W        W79465   9.669  25.632  12.834
 8866W        W79466   3.622  23.013  12.439
 8867W        W79467  41.516  31.416  14.549
 8868W        W79468   7.154  21.640   4.143
 8869W        W79469   8.293   9.189   4.564
 8870W        W79470   6.183  31.569   4.676
 8871W        W79471  16.124  20.390   1.327
 8872W        W79472  10.692  15.936   4.607
 8873W        W79473  42.871  24.067   2.610
 8874W        W79474  33.982  27.894  12.947
 8875W        W79475  36.317  11.186   0.552
 8876W        W79476  17.948  15.092  14.379
 8877W        W79477  19.772   6.222  14.519
 8878W        W79478  33.053  36.434   1.391
 8879W        W79479  18.769  37.372   1.296
 8880W        W79480   4.305   2.874   4.738
 8881W        W79481   0.458  11.765   0.778
 8882W        W79482  44.271  19.579   1.122
 8883W        W79483  15.320  14.306  12.796
 8884W        W79484   5.784  24.617   2.015
 8885W        W79485  43.749  33.589  14.886
 8886W        W79486  23.078  30.430  13.100
 8887W        W79487  28.073   0.211  12.538
 8888W        W79488  22.209  42.814   1.891
 8889W        W79489  23.255  25.976  13.796
 8890W        W79490  24.131  21.718  14.569
 8891W        W79491  11.179   6.508  13.500
 8892W        W79492  22.003  22.570   1.256
 8893W        W79493   4.335   7.226   4.537
 8894W        W79494  38.300  10.079   1.188
 8895W        W79495  29.920  15.810   2.608
 8896W        W79496  15.656   6.475   0.880
 8897W        W79497  34.525  37.510  14.960
 8898W        W79498  26.744  31.435  10.571
 8899W        W79499   8.837   5.974  13.262
 8900W        W79500  20.254  19.479   1.397
 8901W        W79501  17.426  12.627   4.412
 8902W        W79502  16.827  26.726   2.618
 8903W        W79503  18.850  44.301  11.137
 8904W        W79504   1.477  30.883   1.801
 8905W        W79505  37.809  20.576  11.939
 8906W        W79506  37.214   3.732  11.972
 8907W        W79507  33.868  38.738   2.777
 8908W        W79508   3.168  20.174   0.304
 8909W        W79509  28.119  30.101   2.480
 8910W        W79510  34.633  26.748   0.375
 8911W        W79511  35.866   8.558   5.070
 8912W        W79512  29.417  44.333  11.700
 8913W        W79513  28.717  40.847   2.298
 8914W        W79514  13.794  12.972  11.988
 8915W        W79515  38.748  44.336  14.268
 8916W        W79516  44.962  11.694   4.752
 8917W        W79517  33.635  44.394   3.850
 8918W        W79518  42.687  11.708  14.457
 8919W        W79519  26.933   8.193   0.441
 8920W        W79520  27.502  39.514   4.024
 8921W        W79521  18.136  12.757  12.485
 8922W        W79522  31.532  19.495   0.465
 8923W        W79523   2.893  17.693  12.582
 8924W        W79524  37.336  21.115   1.688
 8925W        W79525   6.780  19.121  11.418
 8926W        W79526  10.494  44.866   2.775
 8927W        W79527  31.442  31.107  13.990
 8928W        W79528   7.858   1.297  13.266
 8929W        W79529  15.324  12.246   0.913
 8930W        W79530  39.541  20.135  10.647
 8931W        W79531  30.460   5.757   2.649
 8932W        W79532  24.152  27.095   0.490
 8933W        W79533  29.358  21.753  14.752
 8934W        W79534  27.594  28.045  13.569
 8935W        W79535   6.818  15.390   2.648
 8936W        W79536  28.865  16.623   0.804
 8937W        W79537   2.968  29.402  10.903
 8938W        W79538  30.211  33.814  13.617
 8939W        W79539  13.641   9.423  10.443
 8940W        W79540   9.463  22.772   4.139
 8941W        W79541   5.548  22.984  13.388
 8942W        W79542  11.281  24.181  12.032
 8943W        W79543  17.468  34.903  14.812
 8944W        W79544  19.264  16.766  11.938
 8945W        W79545  33.307  35.862   0.841
 8946W        W79546  16.773  39.059  13.944
 8947W        W79547  44.198  14.844  14.283
 8948W        W79548   2.673  20.654  13.034
 8949W        W79549   7.333  26.453   1.040
 8950W        W79550  39.261  44.668  10.047
 8951W        W79551  22.064  10.581  11.479
 8952W        W79552  41.680   0.821   0.687
 8953W        W79553  36.267  30.720  11.572
 8954W        W79554  15.559  28.082  11.943
 8955W        W79555  42.719  12.509  14.827
 8956W        W79556   8.921  37.619   4.584
 8957W        W79557  28.059  26.130  13.107
 8958W        W79558  22.211  14.695  10.704
 8959W        W79559   1.282  13.089  13.270
 8960W        W79560  26.642   6.703  13.025
 8961W        W79561  44.932  24.740  11.330
 8962W        W79562  12.594   0.810  13.813
 8963W        W79563  13.213  24.028  12.029
 8964W        W79564  44.936   3.376   2.481
 8965W        W79565  35.697  29.192   1.056
 8966W        W79566  40.379  11.711  13.035
 8967W        W79567  29.622  16.947   0.488
 8968W        W79568  25.295  43.735  10.978
 8969W        W79569   7.161  28.063  14.511
 8970W        W79570   1.949   1.401   0.259
 8971W        W79571  23.480  18.767   1.995
 8972W        W79572  27.766  13.460   0.316
 8973W        W79573  21.982  27.597   3.068
 8974W        W79574   8.800  11.953   0.293
 8975W        W79575  36.491  43.540  12.480
 8976W        W79576   7.719  33.376   0.456
 8977W        W79577   6.156  11.487  11.624
 8978W        W79578  12.429  29.067   0.895
 8979W        W79579  43.928  38.056   3.335
 8980W        W79580  38.640  35.233  11.995
 8981W        W79581  13.185  10.565   1.370
 8982W        W79582  15.407   8.891   0.524
 8983W        W79583  14.700  18.398   0.726
 8984W        W79584  36.967  42.227   4.536
 8985W        W79585   7.880  21.368   4.356
 8986W        W79586  23.368   4.877   2.169
 8987W        W79587  30.439  10.393   1.354
 8988W        W79588  25.044  41.102  12.487
 8989W        W79589  31.081  19.503   2.739
 8990W        W79590   2.676  25.022   2.193
 8991W        W79591  31.450  15.703   3.771
 8992W        W79592  13.364  10.124  11.648
 8993W        W79593  41.862  41.010   2.805
 8994W        W79594   2.526  43.196  12.546
 8995W        W79595  15.716  38.832  14.420
 8996W        W79596  30.561  27.691   1.886
 8997W        W79597  19.036  23.574  14.379
 8998W        W79598  25.095  22.723   4.573
 8999W        W79599  35.639   3.448   3.352
 9000W        W79600   9.870  18.991  14.846
 9001W        W79601   3.537  14.077  14.708
 9002W        W79602  15.607  38.149   2.766
 9003W        W79603  31.209  11.732  12.556
 9004W        W79604  25.188  15.054   1.889
 9005W        W79605  31.520  35.378   1.993
 9006W        W79606  17.572  19.313   3.575
 9007W        W79607  31.569  41.287   3.284
 9008W        W79608  13.009  43.942   3.231
 9009W        W79609  18.987  27.593   5.378
 9010W        W79610  15.593   0.005  12.346
 9011W        W79611  36.290  22.347  12.984
 9012W        W79612  26.449   3.355  12.042
 9013W        W79613  11.114  40.987  11.937
 9014W        W79614   9.404   5.759  14.938
 9015W        W79615  40.049  43.270   1.423
 9016W        W79616   6.783   1.427   0.790
 9017W        W79617   5.009  16.158   4.449
 9018W        W79618  40.948  44.359  13.091
 9019W        W79619   8.440   7.492  12.384
 9020W        W79620  19.323  40.027  10.653
 9021W        W79621  25.677  12.985   3.197
 9022W        W79622  40.968  14.719   2.387
 9023W        W79623   8.037  30.907   1.163
 9024W        W79624  35.039  21.033   1.325
 9025W        W79625  38.912  16.455   1.805
 9026W        W79626  34.597   7.889  12.319
 9027W        W79627  19.677  30.484  12.895
 9028W        W79628  21.740  26.239   2.892
 9029W        W79629  19.152   5.552   0.281
 9030W        W79630  12.231   6.690  14.787
 9031W        W79631  42.889  19.252  13.963
 9032W        W79632  38.360  13.254   2.839
 9033W        W79633  22.524  24.003   1.494
 9034W        W79634  33.959  15.078  13.996
 9035W        W79635  27.542  40.018   4.248
 9036W        W79636  36.832  13.507   2.274
 9037W        W79637   9.703  32.599   1.780
 9038W        W79638  34.957  31.551   2.842
 9039W        W79639  17.110   0.037  12.756
 9040W        W79640   8.434   9.376  11.256
 9041W        W79641  36.590  40.990  12.882
 9042W        W79642  28.173  42.354  12.085
 9043W        W79643  40.855  19.617   0.748
 9044W        W79644   8.895  40.837   1.445
 9045W        W79645  22.175   8.233   0.151
 9046W        W79646  21.275   9.759  14.997
 9047W        W79647   3.372   2.993  14.409
 9048W        W79648  15.286  19.490   2.046
 9049W        W79649  18.031  43.839  11.006
 9050W        W79650  41.781  39.126  12.639
 9051W        W79651  12.124  39.193   3.361
 9052W        W79652  23.016   6.614   3.071
 9053W        W79653  35.309  30.918  11.936
 9054W        W79654  34.813   0.714   1.967
 9055W        W79655  40.383  26.662   1.164
 9056W        W79656  32.694  42.385  11.614
 9057W        W79657  13.630  43.864   2.625
 9058W        W79658   3.207  36.460   5.147
 9059W        W79659  19.757   7.180  13.165
 9060W        W79660  10.955  20.050   2.191
 9061W        W79661  27.070  17.061  10.744
 9062W        W79662  34.040  44.318  12.425
 9063W        W79663   7.984  33.067  12.865
 9064W        W79664  25.429   2.438   3.668
 9065W        W79665  13.037   0.777   1.177
 9066W        W79666  44.373  39.657  14.875
 9067W        W79667  13.502  41.390   2.323
 9068W        W79668  10.661   0.575   3.151
 9069W        W79669   0.899  40.820   0.772
 9070W        W79670  31.845  21.171   3.084
 9071W        W79671   7.698  32.515   2.083
 9072W        W79672   4.762  40.796  10.562
 9073W        W79673  40.200  12.836   4.027
 9074W        W79674  23.632  40.983   3.855
 9075W        W79675   6.699  29.467   1.061
 9076W        W79676  39.207   3.330   4.151
 9077W        W79677  25.406  11.282   3.547
 9078W        W79678  12.735  18.950   0.311
 9079W        W79679  38.511  37.120  12.638
 9080W        W79680  25.921  39.994   4.556
 9081W        W79681   1.753  40.265   2.885
 9082W        W79682  36.855   4.001  12.399
 9083W        W79683   0.728   7.921   1.161
 9084W        W79684  41.502  44.315   3.741
 9085W        W79685  28.364  41.801  12.772
 9086W        W79686  22.405  30.973   1.198
 9087W        W79687  16.069  36.583  13.826
 9088W        W79688  10.691  39.798   4.609
 9089W        W79689   0.470  23.577   1.433
 9090W        W79690  13.625  22.015   3.986
 9091W        W79691   9.752   9.884   0.955
 9092W        W79692  31.621   3.292  10.685
 9093W        W79693  42.596   4.214  12.103
 9094W        W79694  18.905  10.728   3.776
 9095W        W79695  41.447  26.364   4.781
 9096W        W79696  34.993  24.576   0.387
 9097W        W79697  14.622  40.718  12.482
 9098W        W79698  10.723   6.379  13.294
 9099W        W79699   6.885  28.933  10.549
 9100W        W79700  18.787  15.111   4.552
 9101W        W79701   1.476   5.348   4.555
 9102W        W79702   1.543   0.927   3.793
 9103W        W79703  19.417  19.143   0.653
 9104W        W79704  34.799  31.911   0.850
 9105W        W79705  10.201   7.975  13.684
 9106W        W79706  11.698  22.710  11.179
 9107W        W79707   2.786  30.993   1.337
 9108W        W79708  44.746  11.306  12.593
 9109W        W79709  24.699  28.032  12.612
 9110W        W79710   0.492  18.166  12.916
 9111W        W79711  35.967  39.875  12.428
 9112W        W79712  38.594  44.309   1.037
 9113W        W79713  36.981  33.789  12.457
 9114W        W79714   2.038   4.010  13.311
 9115W        W79715   4.965  44.211  10.859
 9116W        W79716  28.734  34.353  12.574
 9117W        W79717  19.145  32.384   0.191
 9118W        W79718  34.641  28.940   1.280
 9119W        W79719  43.904  25.151   2.622
 9120W        W79720  33.970  38.014  13.516
 9121W        W79721   6.955   4.549  12.119
 9122W        W79722  11.970   8.784   4.508
 9123W        W79723  29.358  22.253   0.369
 9124W        W79724  26.531  26.206   4.191
 9125W        W79725  13.845  32.673  12.353
 9126W        W79726  31.235  38.866  11.005
 9127W        W79727  18.909  26.559  13.833
 9128W        W79728  18.627  44.355  12.123
 9129W        W79729  37.577  19.681  10.675
 9130W        W79730   7.959  12.208  13.411
 9131W        W79731  19.491   8.437   3.741
 9132W        W79732  42.666   3.656   4.989
 9133W        W79733  20.633   1.454  11.625
 9134W        W79734  23.465  30.413  14.006
 9135W        W79735  34.939  28.408  14.661
 9136W        W79736   5.723   6.087   0.439
 9137W        W79737  10.169  22.745   4.835
 9138W        W79738  23.736  16.347  13.823
 9139W        W79739  24.076  22.503   0.951
 9140W        W79740  14.597  37.333  12.648
 9141W        W79741  17.774  35.044  11.854
 9142W        W79742  33.549  15.818   2.710
 9143W        W79743  40.419  17.281   1.544
 9144W        W79744  34.508   4.130  12.133
 9145W        W79745  19.284  34.638   4.722
 9146W        W79746  41.787  15.082   4.564
 9147W        W79747  20.555   8.977   1.801
 9148W        W79748  32.955  22.984  13.878
 9149W        W79749  18.842   7.321  11.649
 9150W        W79750  16.675  43.391  10.697
 9151W        W79751  26.150  35.399  11.892
 9152W        W79752   4.862  24.652  12.721
 9153W        W79753  25.152  10.633  12.044
 9154W        W79754   6.199  15.782  12.072
 9155W        W79755  28.816  25.019   4.051
 9156W        W79756   6.848  36.886   1.833
 9157W        W79757  34.125  29.059   4.071
 9158W        W79758  37.311  23.392  13.412
 9159W        W79759   6.874  16.515  14.382
 9160W        W79760  44.509   2.532   2.631
 9161W        W79761  32.824   5.170  13.597
 9162W        W79762  32.055  34.158   1.804
 9163W        W79763  40.585   7.738  14.901
 9164W        W79764   2.953  27.271  13.878
 9165W        W79765   6.739  10.714  10.261
 9166W        W79766  29.526  35.617   3.787
 9167W        W79767   4.058   7.477   3.683
 9168W        W79768  28.958  37.984   3.615
 9169W        W79769   7.277  37.017   4.544
 9170W        W79770  36.840  31.548  11.526
 9171W        W79771  19.301   0.321   3.531
 9172W        W79772   2.280  24.507  13.380
 9173W        W79773   2.710  12.667   4.266
 9174W        W79774  19.043   9.934   2.749
 9175W        W79775  34.336   3.183   3.892
 9176W        W79776  31.678  14.829  14.806
 9177W        W79777  13.888   5.709   4.508
 9178W        W79778  27.243  39.112  12.933
 9179W        W79779  18.448  30.953  14.102
 9180W        W79780   0.909  26.614   1.755
 9181W        W79781  43.780  44.243  14.427
 9182W        W79782  13.826  30.543  14.113
 9183W        W79783  15.107  37.539   2.427
 9184W        W79784  19.055   8.204   3.621
 9185W        W79785  36.500  42.321   3.794
 9186W        W79786  25.240   9.774   1.576
 9187W        W79787  37.854   1.111  12.402
 9188W        W79788  14.377  25.945   4.674
 9189W        W79789  31.430   8.436  13.801
 9190W        W79790  14.942  16.553   1.771
 9191W        W79791  18.381  20.751  12.558
 9192W        W79792  19.211  24.468   1.260
 9193W        W79793  17.195   8.466  14.558
 9194W        W79794   8.300  36.756   1.718
 9195W        W79795  17.963  26.924  13.744
 9196W        W79796  44.019  39.822   2.261
 9197W        W79797  10.079  21.637   3.356
 9198W        W79798  22.179  35.105  11.605
 9199W        W79799   2.031  38.444  11.975
 9200W        W79800   3.904  32.025  14.888
 9201W        W79801  20.776  38.679   3.184
 9202W        W79802  25.940   7.409  14.367
 9203W        W79803  37.987  28.100  13.082
 9204W        W79804  39.410  33.404   3.569
 9205W        W79805  23.586  15.416  14.278
 9206W        W79806  35.112  44.433  10.456
 9207W        W79807  22.963  22.983  13.008
 9208W        W79808  34.575  13.530  11.983
 9209W        W79809   6.183  43.733  12.438
 9210W        W79810  28.494  43.371   0.965
 9211W        W79811  33.182  11.607  11.056
 9212W        W79812  21.226   4.800  13.852
 9213W        W79813  19.717  39.675  10.701
 9214W        W79814  42.866  18.720  10.081
 9215W        W79815  36.823  23.696  10.479
 9216W        W79816  27.414  20.702   0.765
 9217W        W79817   3.811  14.820  12.153
 9218W        W79818   6.479  43.404  14.419
 9219W        W79819   9.513  24.599   3.572
 9220W        W79820  10.895   9.537  14.935
 9221W        W79821  36.478  34.609   4.685
 9222W        W79822  36.463  21.624  12.649
 9223W        W79823  33.175  20.450   4.673
 9224W        W79824  10.115   5.255  10.430
 9225W        W79825  15.059  12.579  14.864
 9226W        W79826  21.187  37.251   1.283
 9227W        W79827   9.290  16.481  12.918
 9228W        W79828  44.296  41.974  13.303
 9229W        W79829  37.608  35.846   0.826
 9230W        W79830  13.165  23.715  10.750
 9231W        W79831  41.315   9.202  12.385
 9232W        W79832  24.248  25.204   0.429
 9233W        W79833  32.587   9.662  13.104
 9234W        W79834   0.597  18.982   1.643
 9235W        W79835  30.353  38.888   2.247
 9236W        W79836   3.506  44.461   4.629
 9237W        W79837  28.215  22.141   2.387
 9238W        W79838  35.661  29.193   4.443
 9239W        W79839   0.018   5.566  12.485
 9240W        W79840   3.744  34.641  14.154
 9241W        W79841  24.245  16.005   0.913
 9242W        W79842  33.503  34.645  11.864
 9243W        W79843   3.222  21.268   4.992
 9244W        W79844  15.808  31.039  11.145
 9245W        W79845  11.977  35.901   4.631
 9246W        W79846   4.363  17.586  14.444
 9247W        W79847  25.015  10.828  11.024
 9248W        W79848   6.798  23.697  14.712
 9249W        W79849  41.773  11.289   4.530
 9250W        W79850  14.181  25.496   3.670
 9251W        W79851   2.156  26.115   0.370
 9252W        W79852  30.707   2.036  12.548
 9253W        W79853   2.618   6.701  12.106
 9254W        W79854  19.855  18.870   4.641
 9255W        W79855   9.677  28.560   1.951
 9256W        W79856  40.908  11.103  11.611
 9257W        W79857  10.837  40.553   4.173
 9258W        W79858   5.296  25.155  12.160
 9259W        W79859  26.245   7.564   2.898
 9260W        W79860  42.256  34.114   2.172
 9261W        W79861  38.733   6.215   3.376
 9262W        W79862   1.973  28.651  14.466
 9263W        W79863   8.415  10.551  13.927
 9264W        W79864   3.863  33.355  14.872
 9265W        W79865  41.015  20.392   5.731
 9266W        W79866  34.882  36.336   3.669
 9267W        W79867  30.367  20.222  12.149
 9268W        W79868   9.859  23.238  12.837
 9269W        W79869  20.892  39.743  13.808
 9270W        W79870  42.073  44.545   4.562
 9271W        W79871   3.760   2.753   0.401
 9272W        W79872  39.400  20.416   2.486
 9273W        W79873  43.852  13.806  13.895
 9274W        W79874   2.612  28.288   0.666
 9275W        W79875  10.695  13.871  11.415
 9276W        W79876   8.149  14.343  14.480
 9277W        W79877   3.641  37.306  14.381
 9278W        W79878  35.158  12.219  11.293
 9279W        W79879  44.680  30.415  14.861
 9280W        W79880  15.746   0.715   0.328
 9281W        W79881  34.280  43.019  13.783
 9282W        W79882  29.738   4.220   1.701
 9283W        W79883  20.751  40.276  11.700
 9284W        W79884   9.044  22.675  12.673
 9285W        W79885  36.799  32.758  14.246
 9286W        W79886   1.067  30.462  11.913
 9287W        W79887  17.072  36.844   5.026
 9288W        W79888  43.215  14.620   3.133
 9289W        W79889  17.887  25.704   1.335
 9290W        W79890   6.886  36.491  12.008
 9291W        W79891  25.370  21.882  12.400
 9292W        W79892  25.424  23.204   1.890
 9293W        W79893  15.688  10.701   4.507
 9294W        W79894  37.838  11.251  10.714
 9295W        W79895  34.886  21.799   2.814
 9296W        W79896  35.175  43.455  11.456
 9297W        W79897   9.407   8.451   0.727
 9298W        W79898   2.765  23.155  12.987
 9299W        W79899   8.244  16.866   0.737
 9300W        W79900  38.993  30.366  13.874
 9301W        W79901  40.877  17.068   1.459
 9302W        W79902   5.731  32.009  14.948
 9303W        W79903  14.858  33.195  12.994
 9304W        W79904  17.186  33.426  12.339
 9305W        W79905  29.448  38.014   3.982
 9306W        W79906  43.988  17.588   3.506
 9307W        W79907  17.653  37.244   3.866
 9308W        W79908  23.112  32.528  13.337
 9309W        W79909   4.629   1.813   0.699
 9310W        W79910  24.215   1.780  14.205
 9311W        W79911   7.987   6.491  13.683
 9312W        W79912  19.985  35.038   1.245
 9313W        W79913  39.590  19.681  11.654
 9314W        W79914  21.416  29.504   2.103
 9315W        W79915   3.779   1.270  13.850
 9316W        W79916   1.022   3.964   1.897
 9317W        W79917  42.009  23.023  10.019
 9318W        W79918  23.565   9.770   1.366
 9319W        W79919  25.210  34.491  14.229
 9320W        W79920  26.608  30.207   0.291
 9321W        W79921  25.922   9.729   3.219
 9322W        W79922  13.104   2.674   4.162
 9323W        W79923  12.387  44.398  11.083
 9324W        W79924  36.769  12.661   2.785
 9325W        W79925  34.374  37.258   1.873
 9326W        W79926  11.800  17.201  11.223
 9327W        W79927  17.043  25.446   0.784
 9328W        W79928  27.196  35.732   0.457
 9329W        W79929  25.682  44.030   1.965
 9330W        W79930  32.649   5.226  11.612
 9331W        W79931   6.732  22.163   2.844
 9332W        W79932  37.475  42.430   3.748
 9333W        W79933  14.195  37.671  12.385
 9334W        W79934  27.448   3.537   4.257
 9335W        W79935  30.922  20.666   4.181
 9336W        W79936   2.251  37.493   0.771
 9337W        W79937  38.814   2.407   2.420
 9338W        W79938  23.097  22.416  10.793
 9339W        W79939  25.217   9.848  12.531
 9340W        W79940   4.740   1.831  13.308
 9341W        W79941  26.504  14.815   5.020
 9342W        W79942  39.564  28.969  13.175
 9343W        W79943  28.705  32.073  13.736
 9344W        W79944  19.073  30.885  11.547
 9345W        W79945  22.172  15.548  14.800
 9346W        W79946  31.751  30.936   1.243
 9347W        W79947  31.432  12.062  11.618
 9348W        W79948  34.382  35.458  12.357
 9349W        W79949  20.491  14.619   4.510
 9350W        W79950  16.887  25.666   3.606
 9351W        W79951  33.902  15.558   3.693
 9352W        W79952  26.130  32.165   0.920
 9353W        W79953  13.651  17.652  14.277
 9354W        W79954   3.526  18.165  11.594
 9355W        W79955  10.182   6.205   1.358
 9356W        W79956  12.990  21.457   0.438
 9357W        W79957  15.224  17.758  12.925
 9358W        W79958  19.544  22.130  11.449
 9359W        W79959  24.195   7.725   0.425
 9360W        W79960  37.102  35.070  13.801
 9361W        W79961  14.731  35.602   0.507
 9362W        W79962  42.232   2.410   1.450
 9363W        W79963   3.878  19.134   0.917
 9364W        W79964  14.389  33.935  13.390
 9365W        W79965  34.509   6.414   3.523
 9366W        W79966   0.894  25.628  12.982
 9367W        W79967  20.564   1.942  14.354
 9368W        W79968  38.851   0.642  11.609
 9369W        W79969   5.882  31.424  14.503
 9370W        W79970  18.678   1.063  12.874
 9371W        W79971  34.954  27.031   1.458
 9372W        W79972  41.925  26.537   1.208
 9373W        W79973  43.319  12.847  10.716
 9374W        W79974  10.944  27.201  11.988
 9375W        W79975   3.010  37.377   2.751
 9376W        W79976   6.519  17.641  13.772
 9377W        W79977   4.169   4.288  13.873
 9378W        W79978   2.497  29.140   4.875
 9379W        W79979  35.341  28.277   4.988
 9380W        W79980  40.227  39.413  12.479
 9381W        W79981  33.088  37.452  11.149
 9382W        W79982  10.648  33.969  13.341
 9383W        W79983  20.346   4.403  12.931
 9384W        W79984   6.380  21.714  11.723
 9385W        W79985  28.201  25.913  12.244
 9386W        W79986  43.743  22.645   2.842
 9387W        W79987   8.667  29.615   0.273
 9388W        W79988  19.777  20.241   4.049
 9389W        W79989  36.431  30.664  10.773
 9390W        W79990  12.049  41.842   1.646
 9391W        W79991  13.648  20.986  13.570
 9392W        W79992   7.043  32.308   1.444
 9393W        W79993   0.330   4.581   3.293
 9394W        W79994  24.308  13.148   2.889
 9395W        W79995   8.158  14.841  10.728
 9396W        W79996   0.805  22.506   1.199
 9397W        W79997  34.357  17.587  13.353
 9398W        W79998  13.131   6.017   1.905
 9399W        W79999   3.522  27.497   0.027
 9400W        W80000  12.614   9.721   1.813
 9401W        W80001  43.754  24.467  13.355
 9402W        W80002  34.911   3.700  13.745
 9403W        W80003   9.356  42.705   4.237
 9404W        W80004  23.910  38.517  13.083
 9405W        W80005  42.063  36.046  14.987
 9406W        W80006  34.106   7.844   4.464
 9407W        W80007  29.511  41.480  13.440
 9408W        W80008   7.192  41.639   2.401
 9409W        W80009  29.682  22.694   2.882
 9410W        W80010  39.063  26.477   0.355
 9411W        W80011  36.340  33.455  13.452
 9412W        W80012  41.231   4.701   4.013
 9413W        W80013  38.240  20.079  11.052
 9414W        W80014  33.056  26.843  10.485
 9415W        W80015  18.931  27.629   2.784
 9416W        W80016  16.571  18.063  13.053
 9417W        W80017  35.588  37.246   2.499
 9418W        W80018  34.597  16.136   0.797
 9419W        W80019  34.561  25.764   3.269
 9420W        W80020  14.132   6.340   2.020
 9421W        W80021  14.806  30.364  13.577
 9422W        W80022   7.853  29.767   4.454
 9423W        W80023  38.572  29.439  12.148
 9424W        W80024   2.139  14.398   2.440
 9425W        W80025  37.686  17.384   4.959
 9426W        W80026   8.538  25.056  12.761
 9427W        W80027  44.414  25.198  12.419
 9428W        W80028   7.377  26.461  12.249
 9429W        W80029  36.939  22.419   1.262
 9430W        W80030  19.443  24.217  14.974
 9431W        W80031  31.699  41.023  12.621
 9432W        W80032  28.602  35.831  14.941
 9433W        W80033  40.025  24.412   0.349
 9434W        W80034   4.313  17.047   2.445
 9435W        W80035  40.488  17.191   5.102
 9436W        W80036  14.890  28.376  10.501
 9437W        W80037  31.688  25.406  11.133
 9438W        W80038   9.129  31.972   1.644
 9439W        W80039  16.118  22.902  13.824
 9440W        W80040  27.207  43.322  13.006
 9441W        W80041   1.447  11.144   1.297
 9442W        W80042  41.968  12.275  13.579
 9443W        W80043   1.227  43.514  14.717
 9444W        W80044   1.299  21.716   1.311
 9445W        W80045  13.571  40.606   9.825
 9446W        W80046  12.784  33.395  13.758
 9447W        W80047   6.488   3.785   4.474
 9448W        W80048  28.104  20.812  10.826
 9449W        W80049  36.436   8.632  14.892
 9450W        W80050  37.355  30.171  13.206
 9451W        W80051  44.404  42.943   1.360
 9452W        W80052  40.617  44.038  14.466
 9453W        W80053  44.081  38.243   1.323
 9454W        W80054   3.065  41.455   2.559
 9455W        W80055  33.020  15.970   1.491
 9456W        W80056  36.586  33.130  13.870
 9457W        W80057  15.631  34.849  14.884
 9458W        W80058  20.737   0.273  13.473
 9459W        W80059  14.499   0.417   1.448
 9460W        W80060  35.900  20.698   4.874
 9461W        W80061   2.189  19.057   1.722
 9462W        W80062  25.254  10.996  11.470
 9463W        W80063  13.502   8.772   2.827
 9464W        W80064  42.803  31.114   3.111
 9465W        W80065  10.817  40.630  11.113
 9466W        W80066   4.713   7.686  10.817
 9467W        W80067  32.719  17.683   0.299
 9468W        W80068  26.654   9.642  11.489
 9469W        W80069  44.944   8.323   3.325
 9470W        W80070  42.342   8.624   9.916
 9471W        W80071   7.775  10.512   3.111
 9472W        W80072  11.341  23.962   1.994
 9473W        W80073  14.768   4.064   1.825
 9474W        W80074  23.274  41.756   0.977
 9475W        W80075  39.863  18.573  11.358
 9476W        W80076  41.816  17.626   4.709
 9477W        W80077  21.815  30.796  13.365
 9478W        W80078  32.730  27.058  14.812
 9479W        W80079  38.964  38.568   1.203
 9480W        W80080  23.154  32.028   2.199
 9481W        W80081   8.457   8.194  13.090
 9482W        W80082  41.932   2.188   2.703
 9483W        W80083  12.856  20.523   2.337
 9484W        W80084  35.074  19.708  11.778
 9485W        W80085   6.312   1.776   2.690
 9486W        W80086  31.028  18.957  13.370
 9487W        W80087  31.145  24.766   5.059
 9488W        W80088  11.173  11.822   3.534
 9489W        W80089  44.213  33.965  13.805
 9490W        W80090  43.709  20.744   0.749
 9491W        W80091  34.514  29.129  14.730
 9492W        W80092  10.371  11.589   3.067
 9493W        W80093  32.490  33.978  10.404
 9494W        W80094  21.028  43.575   0.858
 9495W        W80095  41.365  44.034  11.577
 9496W        W80096  36.555  18.396  12.453
 9497W        W80097   3.520  41.305  10.529
 9498W        W80098   1.173  22.526   1.576
 9499W        W80099  15.529  41.002  12.950
 9500W        W80100  40.690  44.982  13.651
 9501W        W80101  28.935   9.911   0.903
 9502W        W80102  30.897  34.004  14.821
 9503W        W80103   7.726  15.430  13.144
 9504W        W80104  20.082   4.418   3.613
 9505W        W80105   2.709  44.185  14.320
 9506W        W80106  20.069  22.604  12.044
 9507W        W80107  15.999  10.179  12.015
 9508W        W80108   9.597  16.543   2.915
 9509W        W80109   0.463  33.950  10.287
 9510W        W80110   4.691  10.263   3.583
 9511W        W80111  36.092  26.648   1.700
 9512W        W80112  11.768  33.094   4.544
 9513W        W80113  32.527  23.628   1.880
 9514W        W80114  31.112  20.752  13.345
 9515W        W80115  19.686  10.935  13.843
 9516W        W80116  27.105   7.000   2.338
 9517W        W80117   1.039  41.327  13.502
 9518W        W80118   1.638  23.745  14.761
 9519W        W80119  25.054  21.480  14.767
 9520W        W80120  19.744  17.488   3.273
 9521W        W80121   4.229  24.398   3.305
 9522W        W80122  22.170  42.920  10.294
 9523W        W80123  26.984   4.679   2.280
 9524W        W80124  15.720  38.544   0.576
 9525W        W80125  40.298  23.557   0.377
 9526W        W80126  16.589  32.133   3.260
 9527W        W80127  19.878  27.706  14.854
 9528W        W80128  24.727  38.275   2.000
 9529W        W80129  15.025  28.747  13.130
 9530W        W80130  44.298  17.338  11.583
 9531W        W80131  39.086  18.005   5.429
 9532W        W80132  20.285  23.541  13.393
 9533W        W80133  27.692   0.314  11.054
 9534W        W80134  30.913  20.249  13.302
 9535W        W80135  32.488  10.288  11.756
 9536W        W80136  26.276  18.768  13.256
 9537W        W80137   9.289  40.529  11.122
 9538W        W80138  30.554  30.494  12.967
 9539W        W80139  13.768  10.149   3.695
 9540W        W80140  39.533  17.579   1.444
 9541W        W80141  43.039  13.744   1.786
 9542W        W80142  30.651   9.250  14.740
 9543W        W80143  15.677  23.478  12.135
 9544W        W80144   6.175   5.299   3.548
 9545W        W80145  13.657  11.825   1.400
 9546W        W80146  25.609  12.690   3.638
 9547W        W80147  41.030  40.422  11.204
 9548W        W80148  33.221  29.750   2.680
 9549W        W80149   4.859  11.260  10.645
 9550W        W80150  18.584  33.274   3.314
 9551W        W80151  44.903  39.541   0.357
 9552W        W80152  27.633  39.840  10.211
 9553W        W80153  15.843  23.963  10.851
 9554W        W80154  18.790  28.631  12.058
 9555W        W80155  20.308  12.864  13.111
 9556W        W80156  20.955  10.169  12.059
 9557W        W80157  27.856  24.222  11.933
 9558W        W80158  17.562  24.520   2.800
 9559W        W80159  25.542  42.023   3.792
 9560W        W80160   9.319  11.043   2.357
 9561W        W80161  36.601  39.343   0.836
 9562W        W80162  17.062  20.800   0.152
 9563W        W80163  37.903  18.832  12.942
 9564W        W80164  42.879  42.731  13.569
 9565W        W80165   0.424  36.133  12.434
 9566W        W80166  40.328  28.059  12.187
 9567W        W80167  15.919  37.997  10.663
 9568W        W80168  42.818  21.950  14.402
 9569W        W80169  38.448  40.023   3.013
 9570W        W80170  18.005  44.401   1.708
 9571W        W80171  32.708  38.441   2.281
 9572W        W80172   3.391  28.316   2.329
 9573W        W80173   4.942  19.810   2.365
 9574W        W80174  20.117  18.410   2.569
 9575W        W80175  10.144  21.767  13.377
 9576W        W80176  22.449  30.332  12.314
 9577W        W80177  36.027  44.448   2.485
 9578W        W80178  23.135  44.522   0.474
 9579W        W80179  33.569  27.009  11.979
 9580W        W80180  19.966  34.344  13.984
 9581W        W80181   2.384  14.796   3.332
 9582W        W80182   1.277  39.874   4.139
 9583W        W80183   5.085  15.152  10.986
 9584W        W80184  15.096  31.927   4.381
 9585W        W80185  10.292  35.516   3.232
 9586W        W80186  20.663  35.015  11.560
 9587W        W80187  38.073  42.238  14.734
 9588W        W80188  17.032  12.712   4.070
 9589W        W80189  29.162  16.662   4.608
 9590W        W80190  33.946   5.963   0.785
 9591W        W80191  27.757  43.737   1.667
 9592W        W80192  37.829  44.313   3.215
 9593W        W80193  10.930  43.689  14.921
 9594W        W80194  27.517  11.071  11.964
 9595W        W80195  38.755   2.745  10.616
 9596W        W80196  15.846  12.155   0.834
 9597W        W80197   1.735   6.710  11.132
 9598W        W80198  14.233  30.713  12.047
 9599W        W80199   0.233  14.646  14.464
 9600W        W80200   9.122  30.942   4.157
 9601W        W80201   7.312  11.203   0.972
 9602W        W80202   6.797   2.446  13.909
 9603W        W80203  16.243  28.121  13.111
 9604W        W80204   5.443  27.033  13.082
 9605W        W80205  16.555   5.251   3.457
 9606W        W80206   3.446  22.057   0.480
 9607W        W80207   3.170  42.807  11.268
 9608W        W80208  23.043  24.455   2.238
 9609W        W80209  16.981  35.355   0.636
 9610W        W80210  21.218  15.015  12.818
 9611W        W80211   1.382  35.121  13.539
 9612W        W80212  41.546  28.798  13.634
 9613W        W80213  36.598   8.637   1.867
 9614W        W80214  40.378  24.496  14.082
 9615W        W80215   6.233  30.049  10.726
 9616W        W80216  35.015   6.957  13.525
 9617W        W80217  32.166  25.643  13.896
 9618W        W80218  11.943  35.004   0.520
 9619W        W80219  41.291  22.099   3.271
 9620W        W80220  14.043  20.937   2.423
 9621W        W80221  25.010  20.720   2.178
 9622W        W80222  30.403   8.513  13.860
 9623W        W80223   1.900  40.774   2.892
 9624W        W80224  30.978  32.528  12.840
 9625W        W80225  19.968  36.942  14.683
 9626W        W80226  26.484  26.609  12.612
 9627W        W80227  13.093  11.165  11.745
 9628W        W80228   3.963  11.665  10.275
 9629W        W80229  35.422  10.302   1.445
 9630W        W80230  10.873  37.417  10.654
 9631W        W80231  19.107  20.187  14.463
 9632W        W80232  31.135  20.035   4.495
 9633W        W80233  43.193  10.275  10.010
 9634W        W80234  33.820  27.742   2.357
 9635W        W80235  24.120  20.296  12.439
 9636W        W80236   4.267  32.011   3.647
 9637W        W80237   2.407   4.899  14.984
 9638W        W80238   6.025   4.903  11.370
 9639W        W80239  17.593   2.767  10.733
 9640W        W80240   4.455  32.004  14.703
 9641W        W80241  22.955  32.121   0.436
 9642W        W80242  36.400  23.489  13.315
 9643W        W80243  26.036  24.461   0.291
 9644W        W80244  40.058  38.768  13.485
 9645W        W80245  36.369   0.262   4.186
 9646W        W80246  11.131  17.001   4.548
 9647W        W80247  19.190   5.286  10.611
 9648W        W80248   9.330  10.925   0.864
 9649W        W80249   2.393  31.761  12.398
 9650W        W80250  19.635  24.509  13.453
 9651W        W80251  44.858   9.633   2.230
 9652W        W80252   0.922  10.902   2.470
 9653W        W80253  28.065  25.360  13.554
 9654W        W80254  11.636  20.581   0.969
 9655W        W80255  29.480   6.648  10.448
 9656W        W80256  22.741  10.638   1.930
 9657W        W80257  30.672   9.221   0.779
 9658W        W80258  29.716  26.187   1.776
 9659W        W80259  12.082  43.564   2.189
 9660W        W80260   4.505  21.379  14.740
 9661W        W80261  13.558  42.922  11.563
 9662W        W80262   7.834   7.358  14.766
 9663W        W80263  44.214  36.893  13.950
 9664W        W80264  37.343  13.325   1.855
 9665W        W80265  29.688  28.079   0.821
 9666W        W80266  36.462   5.467  14.350
 9667W        W80267  20.091  20.666   4.052
 9668W        W80268  14.158   6.647  11.668
 9669W        W80269   2.138  37.016  13.328
 9670W        W80270  37.929  30.026  14.513
 9671W        W80271  19.732  14.432   0.739
 9672W        W80272  38.883  19.525   0.007
 9673W        W80273  37.550  16.845  12.652
 9674W        W80274  23.168  41.624  12.302
 9675W        W80275  17.235  31.454  14.484
 9676W        W80276  32.053  29.777   3.219
 9677W        W80277  31.172  33.954   1.677
 9678W        W80278  13.927  38.360  11.458
 9679W        W80279  44.978  12.131   3.963
 9680W        W80280  21.252  40.636   0.892
 9681W        W80281  18.248  26.774   4.147
 9682W        W80282   5.387  19.228  14.741
 9683W        W80283   3.822   7.838  14.220
 9684W        W80284  28.385  26.603   0.329
 9685W        W80285  14.196   6.613  10.666
 9686W        W80286   1.504  27.737   2.606
 9687W        W80287  32.796  10.685  14.364
 9688W        W80288  39.124  37.348   2.716
 9689W        W80289  25.763  21.731   1.742
 9690W        W80290   3.161   1.545  11.959
 9691W        W80291  25.858   6.388   2.212
 9692W        W80292  27.065   6.354  13.854
 9693W        W80293  23.212  14.923  14.799
 9694W        W80294  35.450   2.202   1.729
 9695W        W80295  27.963  10.052  13.986
 9696W        W80296  20.097  25.987  12.707
 9697W        W80297  20.294  11.683   1.745
 9698W        W80298  31.541  29.421  12.364
 9699W        W80299  15.263  29.706  14.575
 9700W        W80300  15.744  42.073  14.712
 9701W        W80301  37.757   8.940  13.865
 9702W        W80302  43.459   0.858   4.185
 9703W        W80303  44.221  27.398   3.582
 9704W        W80304  23.085  27.544   4.715
 9705W        W80305  16.383   6.447  14.601
 9706W        W80306   8.830  39.579   1.006
 9707W        W80307  41.300  27.768  11.484
 9708W        W80308  25.575   7.806   0.885
 9709W        W80309  22.535  38.750  13.101
 9710W        W80310  15.693   9.499   2.272
 9711W        W80311  31.414   0.925  12.862
 9712W        W80312  29.627  17.683   3.787
 9713W        W80313  30.681  23.779   0.321
 9714W        W80314  27.698  25.943   1.731
 9715W        W80315  39.036   6.169   4.823
 9716W        W80316  36.163  19.279  11.390
 9717W        W80317  32.479  19.220   2.796
 9718W        W80318  38.765   7.638   3.652
 9719W        W80319  36.986  25.436  12.036
 9720W        W80320  28.061  22.798  12.709
 9721W        W80321  30.055  17.859  14.408
 9722W        W80322  21.219  35.075   4.929
 9723W        W80323  25.211  22.072   3.065
 9724W        W80324   4.432   6.368   0.186
 9725W        W80325  36.159  41.010   1.186
 9726W        W80326  27.229  32.334   2.881
 9727W        W80327  32.987  19.556   0.242
 9728W        W80328  37.373  30.389   1.902
 9729W        W80329  34.937  31.705   1.332
 9730W        W80330  28.952   1.362   2.609
 9731W        W80331  12.646  35.164  14.903
 9732W        W80332   2.414  27.438   2.696
 9733W        W80333   5.761  34.537   1.198
 9734W        W80334  10.358   7.788  10.679
 9735W        W80335   0.013  29.155   4.183
 9736W        W80336  22.263   3.273   0.888
 9737W        W80337  20.047  36.570  11.208
 9738W        W80338  20.476  19.618   4.652
 9739W        W80339  43.888  44.881   2.719
 9740W        W80340  22.825  18.230   1.903
 9741W        W80341  13.716  15.113  14.902
 9742W        W80342  27.083  23.918   4.506
 9743W        W80343   6.020  41.300  11.026
 9744W        W80344   8.680   8.192  12.625
 9745W        W80345   8.678  29.322   4.103
 9746W        W80346  39.825  43.318  12.668
 9747W        W80347  30.997  28.053  13.386
 9748W        W80348  38.859  28.625   3.416
 9749W        W80349  44.826  12.792   1.774
 9750W        W80350  25.612  17.081   4.805
 9751W        W80351  19.258   4.916   3.760
 9752W        W80352  18.465   2.185  11.567
 9753W        W80353  16.863   5.883   4.101
 9754W        W80354  35.881  37.957  14.379
 9755W        W80355   1.403  39.473  11.698
 9756W        W80356  28.065  38.261   3.206
 9757W        W80357  18.761  41.479   0.448
 9758W        W80358  43.167  25.667  12.073
 9759W        W80359   6.835  26.319  11.528
 9760W        W80360  15.586  32.119   4.222
 9761W        W80361  35.039  32.170   0.402
 9762W        W80362  16.627  38.864  14.424
 9763W        W80363  40.441  33.839   1.801
 9764W        W80364   0.690   4.319   2.659
 9765W        W80365  40.006   4.034   2.095
 9766W        W80366   5.132  15.908   1.615
 9767W        W80367  21.748  36.623   1.977
 9768W        W80368  43.610  28.417   0.792
 9769W        W80369  28.154  17.817  11.996
 9770W        W80370  38.239  24.899   0.132
 9771W        W80371  11.833  15.838   3.626
 9772W        W80372  41.336  34.413  11.635
 9773W        W80373   6.865  28.930  14.319
 9774W        W80374  37.548  43.829  10.718
 9775W        W80375   8.242   8.843   3.592
 9776W        W80376  23.769  18.984  14.848
 9777W        W80377  14.165  24.339  11.304
 9778W        W80378  41.936  44.597   0.792
 9779W        W80379  11.088  17.336   1.666
 9780W        W80380  30.516  33.152   4.514
 9781W        W80381  31.478  19.015   4.289
 9782W        W80382  26.500  18.219  14.373
 9783W        W80383  17.692   5.947   4.521
 9784W        W80384  31.407   1.499  14.710
 9785W        W80385  36.479   9.908   1.074
 9786W        W80386  18.332  19.867  12.636
 9787W        W80387  33.904  25.273  14.512
 9788W        W80388  14.625  42.543  12.931
 9789W        W80389   2.297  23.231  11.894
 9790W        W80390  15.731  15.453  11.258
 9791W        W80391   9.181  21.476   0.403
 9792W        W80392  41.110  38.829   0.090
 9793W        W80393  17.586   8.182   0.448
 9794W        W80394  40.929  23.745   4.621
 9795W        W80395  41.005  10.564  14.412
 9796W        W80396   1.210  31.917  13.733
 9797W        W80397  33.408  33.027  10.323
 9798W        W80398  30.856  32.068   1.952
 9799W        W80399  41.262   9.286   3.158
 9800W        W80400  34.967   9.253   4.949
 9801W        W80401  12.265  41.039  14.068
 9802W        W80402  35.922  16.782  12.443
 9803W        W80403  38.214  21.816   3.662
 9804W        W80404  33.397   1.365  12.060
 9805W        W80405  40.253  32.917   3.603
 9806W        W80406   6.880  22.070   0.216
 9807W        W80407  34.871  42.343  11.148
 9808W        W80408  28.171  33.946   2.833
 9809W        W80409  16.736  17.572   3.355
 9810W        W80410  16.484  30.622   4.196
 9811W        W80411   4.249  31.116   1.515
 9812W        W80412  15.656  31.604   3.312
 9813W        W80413  32.383  19.094  10.704
 9814W        W80414   2.654  14.277  14.819
 9815W        W80415  37.551  39.809   4.146
 9816W        W80416  30.071   1.132  13.941
 9817W        W80417  30.213  38.980  11.082
 9818W        W80418   7.687   0.549   4.162
 9819W        W80419  42.356   8.180   3.971
 9820W        W80420  21.694  11.813  11.263
 9821W        W80421   6.959   4.295   2.179
 9822W        W80422  33.404   1.275   4.191
 9823W        W80423   1.335   3.473  13.524
 9824W        W80424   0.144   8.361  14.982
 9825W        W80425  31.441   9.388   4.130
 9826W        W80426  34.039  26.578   1.840
 9827W        W80427   5.787  15.367  12.457
 9828W        W80428   2.916  28.184   3.541
 9829W        W80429  22.996  31.835  13.016
 9830W        W80430   8.088   1.674   1.841
 9831W        W80431  29.884  16.713   0.901
 9832W        W80432  21.075  11.876   4.519
 9833W        W80433  35.374   9.849   0.553
 9834W        W80434   9.249   6.191  10.653
 9835W        W80435   7.559  20.833   3.673
 9836W        W80436  27.536  39.378  14.579
 9837W        W80437  39.236  18.196  12.452
 9838W        W80438  24.497  44.785  13.065
 9839W        W80439  43.525  25.159   3.638
 9840W        W80440   3.367  36.088  13.988
 9841W        W80441  40.632  18.198   4.122
 9842W        W80442  40.528  44.470  12.845
 9843W        W80443   6.825  12.102   3.225
 9844W        W80444  22.162  15.220   0.204
 9845W        W80445  34.667  26.505   4.526
 9846W        W80446   7.992  24.508   1.234
 9847W        W80447   2.843  34.593  14.331
 9848W        W80448  13.203  24.753  11.436
 9849W        W80449  16.139  29.476   3.642
 9850W        W80450   3.758  30.583  11.200
 9851W        W80451  35.613  44.687  11.675
 9852W        W80452  37.418  18.317  10.752
 9853W        W80453  12.683  11.824   2.416
 9854W        W80454  27.688  23.596  13.578
 9855W        W80455   3.909  22.155   1.700
 9856W        W80456  30.632  13.745   2.284
 9857W        W80457   6.119  43.402  12.868
 9858W        W80458  13.820  40.890   0.710
 9859W        W80459  35.438  12.353   2.829
 9860W        W80460  30.983  38.279  12.496
 9861W        W80461  41.805  25.737   1.876
 9862W        W80462  39.274  44.301  11.023
 9863W        W80463  23.982  42.211  11.945
 9864W        W80464  11.394  38.462  11.400
 9865W        W80465  11.319  10.303   1.983
 9866W        W80466  32.424  39.206  12.188
 9867W        W80467  42.879  15.212   1.279
 9868W        W80468  26.741  42.153  11.119
 9869W        W80469  37.467  19.710   2.972
 9870W        W80470  26.104  23.248  14.512
 9871W        W80471  38.420   6.820   4.495
 9872W        W80472  44.229  23.455   3.281
 9873W        W80473  23.228  29.539   3.734
 9874W        W80474  26.167   7.453  12.314
 9875W        W80475  36.005  29.035  10.336
 9876W        W80476  35.159  28.696  14.296
 9877W        W80477  20.934   6.757  11.153
 9878W        W80478  31.621   9.978  12.883
 9879W        W80479  30.571   3.790  14.251
 9880W        W80480   6.760  13.255  11.971
 9881W        W80481   7.264   2.342   1.735
 9882W        W80482  42.010  41.856  12.198
 9883W        W80483  41.900  41.496   2.648
 9884W        W80484  26.406   7.686  13.146
 9885W        W80485  23.601   9.177  12.964
 9886W        W80486   6.396  15.166  13.711
 9887W        W80487   9.376  19.801   1.137
 9888W        W80488  32.566  10.885  14.845
 9889W        W80489  29.502  13.460  10.896
 9890W        W80490  22.503   5.125  13.452
 9891W        W80491  31.234   7.438  14.257
 9892W        W80492  32.074  11.817   5.052
 9893W        W80493  36.576  20.367  12.471
 9894W        W80494  25.908   0.712  10.641
 9895W        W80495  37.832  20.490   2.270
 9896W        W80496  25.590  31.642   0.178
 9897W        W80497  18.860   3.023   1.728
 9898W        W80498  27.152  19.953   0.259
 9899W        W80499  19.673   5.673  11.555
 9900W        W80500  12.771  24.690   0.826
 9901W        W80501  44.537  43.267   4.703
 9902W        W80502   8.254  26.549  12.781
 9903W        W80503  40.394  40.324   2.169
 9904W        W80504   0.392  22.742   4.739
 9905W        W80505  29.927   6.808   4.291
 9906W        W80506   1.259  19.085  13.517
 9907W        W80507  44.861   8.733   0.698
 9908W        W80508  44.821   8.505  13.885
 9909W        W80509  23.646  20.757   1.734
 9910W        W80510  13.418  26.929  11.041
 9911W        W80511   6.286  18.019   1.374
 9912W        W80512  42.859   7.195  14.878
 9913W        W80513  22.183  25.894   0.455
 9914W        W80514  40.995   3.270   2.834
 9915W        W80515  44.041   1.177  13.439
 9916W        W80516  43.462  12.227   0.762
 9917W        W80517   3.559  40.912   3.678
 9918W        W80518  10.398  15.649   1.899
 9919W        W80519   8.326  24.069  10.646
 9920W        W80520   1.340  42.873   0.934
 9921W        W80521  16.595  25.199   2.304
 9922W        W80522  21.705  23.165   3.914
 9923W        W80523  23.236   4.048  11.053
 9924W        W80524  39.974  15.394  11.984
 9925W        W80525  14.876  29.616  13.151
 9926W        W80526  28.640   8.421  14.782
 9927W        W80527  11.858  39.603   2.778
 9928W        W80528   8.001  29.791  12.573
 9929W        W80529  37.922  15.292  13.560
 9930W        W80530   2.742  42.899   2.477
 9931W        W80531  20.399   8.021  14.202
 9932W        W80532  27.848  21.483  12.922
 9933W        W80533  35.491  24.238  11.136
 9934W        W80534   3.097  22.743   5.042
 9935W        W80535  26.521  24.677  12.453
 9936W        W80536  25.171   8.366  14.994
 9937W        W80537   0.771  35.953   4.633
 9938W        W80538  29.425  16.034   5.114
 9939W        W80539  43.939  13.911   2.040
 9940W        W80540  31.097  18.738  10.749
 9941W        W80541  31.349  13.905   2.660
 9942W        W80542   5.915  26.692   0.847
 9943W        W80543  14.191  24.203   4.903
 9944W        W80544  14.230  20.494   2.637
 9945W        W80545  38.566  18.814   0.955
 9946W        W80546   2.478  41.653   1.352
 9947W        W80547   9.055  12.210   3.326
 9948W        W80548  29.024  21.992  13.132
 9949W        W80549  36.085  32.475  13.353
 9950W        W80550  10.229  29.498   2.205
 9951W        W80551   0.315  20.009   3.556
 9952W        W80552  37.428  15.583   0.858
 9953W        W80553  31.109  25.053   4.602
 9954W        W80554  15.813  41.487   2.407
 9955W        W80555  41.841  30.059   1.740
 9956W        W80556  25.150  39.087   1.827
 9957W        W80557  34.546   0.934   2.340
 9958W        W80558  33.937  23.159  14.310
 9959W        W80559  13.085   6.986   0.255
 9960W        W80560  36.529  15.692  14.023
 9961W        W80561  37.178  44.240   0.823
 9962W        W80562  31.362  30.052  14.685
 9963W        W80563  19.149   5.754   2.783
 9964W        W80564  30.597   5.359   2.389
 9965W        W80565  41.236   7.904  11.523
 9966W        W80566   3.464  19.708   1.708
 9967W        W80567  40.317  20.570  10.499
 9968W        W80568  26.565  13.071   3.257
 9969W        W80569   4.917   7.149   4.051
 9970W        W80570  32.460  44.082  10.526
 9971W        W80571  43.279  36.346   1.742
 9972W        W80572  29.532  20.736   3.394
 9973W        W80573  38.344  31.826  10.839
 9974W        W80574  35.847   0.240   4.132
 9975W        W80575  36.439  41.206   4.446
 9976W        W80576  14.320  29.708   0.491
 9977W        W80577  21.574  44.044   3.104
 9978W        W80578  42.229   6.312  14.039
 9979W        W80579  44.815  20.340   0.484
 9980W        W80580   9.693  42.288   1.392
 9981W        W80581  15.714  31.845  12.037
 9982W        W80582   3.709  20.302  14.571
 9983W        W80583  26.697  10.135  12.108
 9984W        W80584  39.993  16.815  12.010
 9985W        W80585  29.210  23.977  14.519
 9986W        W80586   9.235  20.283  10.729
 9987W        W80587  14.164  16.215  11.501
 9988W        W80588  42.808  28.097  13.066
 9989W        W80589  31.288  25.450   0.941
 9990W        W80590  26.447  13.372  10.833
 9991W        W80591   0.348  33.144   1.361
 9992W        W80592  26.716   0.802  13.819
 9993W        W80593  22.256  15.660  12.196
 9994W        W80594   4.667  19.312   0.321
 9995W        W80595  11.406  43.673  14.091
 9996W        W80596  11.701  37.571  10.406
 9997W        W80597  27.236  17.592   3.995
 9998W        W80598  38.329   4.063  14.865
 9999W        W80599  10.017  19.175  11.118
10000W        W80600   5.889   1.722   1.398
10001W        W80601  19.284  34.086   4.555
10002W        W80602  29.921  42.468   2.260
10003W        W80603  33.517  23.620   4.954
10004W        W80604  17.000   2.229  13.021
10005W        W80605  29.958  19.324  12.446
10006W        W80606  14.351  32.545  13.533
10007W        W80607  11.686  38.152   2.449
10008W        W80608  40.824  18.857   3.246
10009W        W80609  28.848  31.608  11.665
10010W        W80610  42.446  21.401   0.966
10011W        W80611  27.700  12.320  10.674
10012W        W80612  27.150  32.687   3.785
10013W        W80613  36.531  27.757  11.553
10014W        W80614  39.477  24.052   4.832
10015W        W80615  10.356   6.218   2.407
10016W        W80616  13.132  18.724  14.876
10017W        W80617  21.306  33.584  14.524
10018W        W80618  44.791  42.348   0.984
10019W        W80619  17.080  25.512   4.060
10020W        W80620  16.061  10.201  12.934
10021W        W80621  14.189  37.126  12.413
10022W        W80622  37.343   7.630  10.810
10023W        W80623  23.957  32.972  14.353
10024W        W80624  18.103  44.776  12.943
10025W        W80625  43.096  44.243  13.381
10026W        W80626  27.711  28.859   3.710
10027W        W80627   0.327   6.222   2.696
10028W        W80628   1.404  30.677   4.861
10029W        W80629  20.723   7.946  12.488
10030W        W80630  18.235  11.202  11.037
10031W        W80631  10.281  40.599   4.642
10032W        W80632  33.974  27.552  14.475
10033W        W80633   4.956  14.213  14.343
10034W        W80634  19.241  20.934   0.671
10035W        W80635  22.660   4.997  10.751
10036W        W80636   3.733   7.808   4.341
10037W        W80637  44.502  19.729   2.125
10038W        W80638  19.972  39.322  11.651
10039W        W80639  38.895  25.619  12.084
10040W        W80640   1.836  31.299  13.600
10041W        W80641  31.410  33.447   1.730
10042W        W80642  41.872  43.343  10.535
10043W        W80643   7.705  29.287   4.313
10044W        W80644  33.069  30.368  13.810
10045W        W80645  28.897   6.845   0.296
10046W        W80646  35.850  32.307  14.395
10047W        W80647   9.189  27.433  12.993
10048W        W80648  20.045   1.539   0.430
10049W        W80649  14.755  27.603  11.586
10050W        W80650  43.375  39.985  12.095
10051W        W80651  23.997  36.171  12.893
10052W        W80652  40.392  13.289  14.072
10053W        W80653  41.527  33.959  14.118
10054W        W80654  12.119  34.717   1.971
10055W        W80655  26.779  41.736   4.908
10056W        W80656  18.660  11.159   4.787
10057W        W80657   2.828  26.758   1.698
10058W        W80658  10.860  22.837  12.930
10059W        W80659   1.401  23.639   3.104
10060W        W80660  28.432   5.362   4.136
10061W        W80661  12.168  16.238   2.319
10062W        W80662  23.540   1.747  13.036
10063W        W80663   2.485   5.351   1.005
10064W        W80664  11.844  11.447   1.572
10065W        W80665  10.293  24.036   1.268
10066W        W80666  25.402   0.036  12.896
10067W        W80667  16.034  36.973   3.752
10068W        W80668  14.112  22.156  10.745
10069W        W80669  27.616   3.843   4.641
10070W        W80670   6.711  42.735   0.362
10071W        W80671  26.852  12.763  12.425
10072W        W80672  28.954  19.274  10.439
10073W        W80673  42.907  16.184  14.736
10074W        W80674  21.003  30.126  12.568
10075W        W80675  23.275   7.911   0.642
10076W        W80676   5.705   5.391   3.845
10077W        W80677  22.600  13.434   3.308
10078W        W80678  33.403  43.162  14.212
10079W        W80679   8.170   4.153  12.668
10080W        W80680  30.158  44.522   0.428
10081W        W80681  33.639  34.131   2.891
10082W        W80682   8.234  13.673   1.318
10083W        W80683  23.743   4.214  11.111
10084W        W80684   6.731  10.435   3.966
10085W        W80685  11.562  23.925  12.477
10086W        W80686  29.805  40.960  12.551
10087W        W80687  43.357  20.616  14.225
10088W        W80688  20.051  20.793   2.542
10089W        W80689  22.775   0.946  12.629
10090W        W80690  14.360  29.512  14.460
10091W        W80691   6.537  25.589   4.268
10092W        W80692  24.059  38.008  14.925
10093W        W80693  21.163  12.172  13.907
10094W        W80694  25.622  28.624  12.874
10095W        W80695  25.566  22.589  11.202
10096W        W80696  10.250  15.048   2.296
10097W        W80697  41.354  44.421  10.758
10098W        W80698  34.162   6.892  12.883
10099W        W80699  20.246  21.722  12.987
10100W        W80700   8.116   0.484  13.909
10101W        W80701  29.701  20.133  14.450
10102W        W80702  21.496  13.241   4.917
10103W        W80703   8.267   6.409  13.238
10104W        W80704   3.389   9.219  13.066
10105W        W80705   5.381  18.603   4.499
10106W        W80706  27.180  15.721   0.071
10107W        W80707  41.109  38.397   0.369
10108W        W80708  34.398  40.916  12.171
10109W        W80709  21.354  39.986  13.910
10110W        W80710   8.538  27.666   3.226
10111W        W80711  12.726  33.660   3.507
10112W        W80712   7.062  36.789   0.951
10113W        W80713  20.803  29.675  12.701
10114W        W80714   7.513  36.290  12.411
10115W        W80715   7.276   9.266   0.152
10116W        W80716  13.893  37.808   0.117
10117W        W80717  31.869  14.262  11.085
10118W        W80718  37.314  35.117  12.484
10119W        W80719  10.319  10.138   4.621
10120W        W80720  21.305  20.314  13.421
10121W        W80721  23.759  33.336   1.789
10122W        W80722  18.791  24.894   1.659
10123W        W80723  33.966   7.754   2.284
10124W        W80724  13.136  14.563   2.379
10125W        W80725   2.322  19.066   3.748
10126W        W80726  33.082  10.243  14.424
10127W        W80727  40.785  30.139  11.942
10128W        W80728  17.842  27.758  11.301
10129W        W80729  30.564  43.539  11.130
10130W        W80730  43.783   3.999   1.325
10131W        W80731  37.474  11.894  14.892
10132W        W80732  18.776  41.708   2.188
10133W        W80733  42.908   2.251   4.093
10134W        W80734  28.087  18.770  11.156
10135W        W80735  19.546  34.603  12.108
10136W        W80736   2.951  14.797   1.256
10137W        W80737  15.261  29.706  14.034
10138W        W80738   5.399  39.995  14.343
10139W        W80739  44.422  18.674  14.348
10140W        W80740  25.967  26.893   1.782
10141W        W80741   3.400  41.614  13.848
10142W        W80742   2.870  15.583   3.798
10143W        W80743  41.069  20.696   0.839
10144W        W80744  35.355  38.556  14.966
10145W        W80745  40.866  11.887  10.524
10146W        W80746  12.271  28.084  14.021
10147W        W80747  27.961  39.102   1.615
10148W        W80748  30.978   2.500   1.047
10149W        W80749  33.913  34.925  13.039
10150W        W80750   7.953   8.818   4.041
10151W        W80751  35.253   3.756  11.432
10152W        W80752  37.596   5.751   3.796
10153W        W80753   0.303  16.743  12.517
10154W        W80754  23.252  22.318  13.878
10155W        W80755  27.048  26.076   4.934
10156W        W80756  29.244  27.472   0.131
10157W        W80757  25.178  14.506   3.147
10158W        W80758  13.157  20.460  14.160
10159W        W80759   3.697  23.380   0.745
10160W        W80760   2.293  33.041  13.563
10161W        W80761  31.189  32.899  13.614
10162W        W80762   7.791  41.579  14.796
10163W        W80763  10.662   7.945   1.036
10164W        W80764  38.526  19.134   0.001
10165W        W80765  27.767  20.479  11.578
10166W        W80766   3.557  33.560   3.863
10167W        W80767  16.550  24.500  11.281
10168W        W80768  32.437   4.065   3.980
10169W        W80769  30.102  12.144   3.651
10170W        W80770   0.473  30.925   3.503
10171W        W80771  25.680  25.025   0.166
10172W        W80772  12.554   3.311  13.445
10173W        W80773  40.099  37.123  12.034
10174W        W80774  44.698  22.302  10.606
10175W        W80775  17.873  20.247   1.057
10176W        W80776   4.351  24.101  14.215
10177W        W80777  13.271  32.231  14.313
10178W        W80778  38.443  23.997  12.496
10179W        W80779   9.928  12.750   2.695
10180W        W80780  21.542  11.338   1.282
10181W        W80781  10.861  34.341  13.891
10182W        W80782  38.300  19.326   3.717
10183W        W80783  13.192   2.738   0.249
10184W        W80784   3.680  40.038   2.365
10185W        W80785  41.985  24.171   0.866
10186W        W80786  22.906  41.930  12.648
10187W        W80787  31.623  35.284   2.480
10188W        W80788  18.183  16.381   1.082
10189W        W80789  16.238  33.176   2.251
10190W        W80790   2.445  42.039   4.146
10191W        W80791  40.012  23.966   0.595
10192W        W80792   6.150   1.265   1.503
10193W        W80793  40.454  30.858  13.828
10194W        W80794  21.299  22.732  13.423
10195W        W80795   9.975  30.933  10.645
10196W        W80796  40.843  14.142  13.092
10197W        W80797  11.770  23.148   0.906
10198W        W80798   3.758  30.371   1.435
10199W        W80799  41.229   6.725   1.328
10200W        W80800  19.519  17.864   2.974
10201W        W80801  10.150  29.427   1.175
10202W        W80802  30.999  28.405  13.795
10203W        W80803  27.071  26.288   1.987
10204W        W80804  12.332  22.983   1.761
10205W        W80805  40.048  42.503  12.490
10206W        W80806  27.604   5.261   1.688
10207W        W80807  44.862  44.602  14.011
10208W        W80808   3.853  13.343  13.838
10209W        W80809  42.796  33.448   3.815
10210W        W80810  37.380  29.404   2.733
10211W        W80811  25.504  26.958   1.169
10212W        W80812  37.883  18.865   4.440
10213W        W80813  23.121   5.285   4.448
10214W        W80814  38.195  38.402  11.559
10215W        W80815  39.304  12.878  12.532
10216W        W80816   9.103  28.660   4.013
10217W        W80817   2.488  11.847  14.120
10218W        W80818  39.826   8.741  13.060
10219W        W80819  12.380  27.017  11.202
10220W        W80820  26.920  27.427  14.939
10221W        W80821   3.920  27.180  12.926
10222W        W80822   3.374   0.121  11.627
10223W        W80823   3.760   7.769   2.130
10224W        W80824  32.017   5.566  10.559
10225W        W80825  33.793  14.992   0.857
10226W        W80826  33.351  29.131   3.308
10227W        W80827  38.411   0.429  10.408
10228W        W80828  16.616  20.091   0.815
10229W        W80829  12.579  41.031   4.233
10230W        W80830  19.312  19.195  12.038
10231W        W80831  14.647  30.595   0.860
10232W        W80832   2.247  30.295  10.187
10233W        W80833  41.674  18.135  14.366
10234W        W80834   2.357  29.579  14.745
10235W        W80835   4.107  22.654   1.693
10236W        W80836   7.474  28.473   2.780
10237W        W80837  23.201  10.927  12.080
10238W        W80838  42.979  20.732   3.230
10239W        W80839  13.888  43.032  11.155
10240W        W80840   8.925   4.026   1.467
10241W        W80841  24.581   1.487  11.644
10242W        W80842   1.762  22.695   1.435
10243W        W80843  23.549  43.287  10.404
10244W        W80844  17.316   8.634  12.029
10245W        W80845  14.341  27.619  13.883
10246W        W80846  28.137  40.403   0.974
10247W        W80847   3.765   3.882   2.245
10248W        W80848  25.026  29.021   3.403
10249W        W80849  13.133   2.416   3.720
10250W        W80850  28.641  44.397   2.416
10251W        W80851   0.391  14.121  14.399
10252W        W80852  42.488  16.231   0.330
10253W        W80853  35.603  38.203  10.614
10254W        W80854  42.195   9.390  12.018
10255W        W80855   4.648  15.806  12.019
10256W        W80856  18.775  22.588   4.462
10257W        W80857   6.784   5.764  13.421
10258W        W80858  17.716  13.440  11.486
10259W        W80859  40.121  36.205  12.838
10260W        W80860  14.172   3.797  12.072
10261W        W80861   2.496  43.098   1.131
10262W        W80862  28.728  24.468   1.504
10263W        W80863   2.495   4.289  13.380
10264W        W80864   8.230  15.277  11.979
10265W        W80865  26.110  41.248   2.268
10266W        W80866   7.832  16.537  11.091
10267W        W80867  24.488   5.819  14.253
10268W        W80868  27.087  42.508  14.370
10269W        W80869  28.433  39.311   1.588
10270W        W80870  30.092   8.145   4.025
10271W        W80871  27.187  21.174  12.836
10272W        W80872  20.249  35.011  11.872
10273W        W80873  14.841  13.780  14.520
10274W        W80874  29.188   4.104   1.774
10275W        W80875  36.355   8.314  13.788
10276W        W80876  34.428  39.622  13.014
10277W        W80877  31.963  44.838  12.470
10278W        W80878   7.434   2.738   3.165
10279W        W80879  19.683   4.003   0.921
10280W        W80880  25.756  11.769   1.900
10281W        W80881  40.837   6.471  12.886
10282W        W80882  10.248  18.848   3.218
10283W        W80883  42.219  15.578  12.537
10284W        W80884  15.213  28.513  10.106
10285W        W80885  32.829  39.830  10.562
10286W        W80886  10.497  24.591   0.312
10287W        W80887  32.840  33.477  13.740
10288W        W80888  15.861  18.458  11.621
10289W        W80889   0.526  22.116  14.784
10290W        W80890  40.476  42.267   4.049
10291W        W80891  25.077  31.192   3.158
10292W        W80892  10.831  15.106  13.963
10293W        W80893  33.852  32.390   2.729
10294W        W80894  28.439   4.122  10.860
10295W        W80895  35.321  31.552  13.446
10296W        W80896  31.826  10.375   0.186
10297W        W80897  31.593  28.443   3.263
10298W        W80898  20.601  35.478  14.707
10299W        W80899   5.556   2.330   2.729
10300W        W80900   2.423  11.409   3.094
10301W        W80901  38.320  24.111   3.286
10302W        W80902  21.935  43.038  12.608
10303W        W80903  15.540   5.183   3.164
10304W        W80904  32.368  16.541  13.523
10305W        W80905   3.775  34.900   1.479
10306W        W80906  30.006   4.577   4.646
10307W        W80907  19.491  34.400  10.865
10308W        W80908  34.332  12.668   4.850
10309W        W80909  20.903  16.625   1.844
10310W        W80910   3.317  11.633   4.018
10311W        W80911  21.031  36.643  12.192
10312W        W80912   9.497  31.580  11.739
10313W        W80913  33.362  12.245   2.642
10314W        W80914  10.799  43.426   3.018
10315W        W80915  43.689  12.298   2.055
10316W        W80916   0.459  12.341   3.785
10317W        W80917   2.751  31.601   2.774
10318W        W80918  11.757  29.627   2.146
10319W        W80919   1.902  12.335   2.783
10320W        W80920   9.202  36.412   4.529
10321W        W80921  20.670  21.989   1.426
10322W        W80922  37.835   5.495   1.928
10323W        W80923   3.224  37.561   3.958
10324W        W80924  31.929  40.939   1.837
10325W        W80925  32.572  12.419  14.968
10326W        W80926  37.353  31.629  12.583
10327W        W80927   0.837  21.094   4.176
10328W        W80928  37.505  30.546   4.839
10329W        W80929  15.499  44.379   4.935
10330W        W80930  26.899  28.937  10.146
10331W        W80931   6.959   2.826  11.296
10332W        W80932  31.333  20.520  10.764
10333W        W80933  10.618  26.968  12.818
10334W        W80934  29.247   5.321   1.972
10335W        W80935  41.563   2.352   2.226
10336W        W80936   5.674  15.924   1.657
10337W        W80937  14.020  13.446  14.963
10338W        W80938  22.578   6.762  13.381
10339W        W80939  34.413   5.682  11.910
10340W        W80940  17.090  40.490  14.868
10341W        W80941  24.640  19.171   2.087
10342W        W80942  22.911  32.942   4.309
10343W        W80943   3.310  25.626  11.477
10344W        W80944   3.610  42.445   3.842
10345W        W80945   1.348   9.300   4.873
10346W        W80946  19.945  14.218  14.023
10347W        W80947   1.445  41.073   3.738
10348W        W80948  12.220   6.449  10.754
10349W        W80949  17.159  11.424   2.288
10350W        W80950   0.842  28.881   0.456
10351W        W80951   1.886  24.637   2.752
10352W        W80952  14.114  27.648  14.380
10353W        W80953  43.878  21.796  11.630
10354W        W80954  37.510  26.606  12.206
10355W        W80955  42.332  11.928   3.534
10356W        W80956  23.880  44.845   0.752
10357W        W80957  37.487   9.806   3.104
10358W        W80958  39.864  13.804  11.017
10359W        W80959  23.258  20.525   2.009
10360W        W80960   0.843   2.355  13.285
10361W        W80961  15.515  35.578   0.530
10362W        W80962  37.385  41.478  13.807
10363W        W80963  30.851  37.937  12.885
10364W        W80964  22.637   8.917  11.657
10365W        W80965  13.065  18.611   2.160
10366W        W80966   6.294   1.569   0.095
10367W        W80967  27.178  36.341  14.884
10368W        W80968  10.409  10.740  13.550
10369W        W80969  26.450  25.089   3.585
10370W        W80970  32.749  16.089   3.328
10371W        W80971   8.477  30.681   0.946
10372W        W80972  10.837  27.757  12.714
10373W        W80973   9.765  26.268   4.840
10374W        W80974   0.183  38.505   2.220
10375W        W80975   8.928   2.812  13.125
10376W        W80976   4.933  18.233   3.611
10377W        W80977  18.343  20.717   3.171
10378W        W80978  24.215  23.666   2.338
10379W        W80979  36.024  10.626  11.642
10380W        W80980  26.725  22.166  10.793
10381W        W80981  43.498  10.778  14.200
10382W        W80982  13.366   4.835   2.280
10383W        W80983  23.258  16.249   3.951
10384W        W80984  17.970  34.622  11.425
10385W        W80985  28.661  35.081  12.963
10386W        W80986  43.955  44.833   0.383
10387W        W80987  31.202  17.657  11.213
10388W        W80988  41.061   4.710   3.062
10389W        W80989   5.757  37.587  14.359
10390W        W80990  37.283  40.375   2.064
10391W        W80991  31.321  28.959  12.230
10392W        W80992  11.117  44.443  13.934
10393W        W80993  39.596  34.149   3.253
10394W        W80994  24.918  29.993   2.518
10395W        W80995   0.544  10.185  11.467
10396W        W80996  20.768   7.633   2.821
10397W        W80997  41.069   8.879   4.049
10398W        W80998  42.375  34.020  13.452
10399W        W80999  29.391  35.987   0.572
10400W        W81000  19.299  15.973   3.831
10401W        W81001   8.833   7.930   2.389
10402W        W81002  32.457   1.190   0.435
10403W        W81003  22.624  34.529  10.818
10404W        W81004  11.118  14.419   2.632
10405W        W81005   0.693  13.347  11.219
10406W        W81006  39.838  21.764  14.071
10407W        W81007  40.519  31.412   3.855
10408W        W81008  29.827  24.540  13.301
10409W        W81009   2.689  37.054  14.385
10410W        W81010  12.664  18.024  12.062
10411W        W81011  16.516  13.270  12.870
10412W        W81012  24.426   3.205   3.626
10413W        W81013  41.874  38.582   2.136
10414W        W81014  31.574  13.286  12.504
10415W        W81015  40.463  40.334   4.300
10416W        W81016  29.587  38.977   1.899
10417W        W81017  29.200   9.961   2.328
10418W        W81018  17.326  22.700   3.778
10419W        W81019  30.545  22.489   1.858
10420W        W81020  30.117  43.738  11.306
10421W        W81021  33.419  11.059   3.588
10422W        W81022  13.295  10.722  13.949
10423W        W81023  36.153  18.097  11.110
10424W        W81024  14.461  41.864   4.462
10425W        W81025  13.251  44.472   1.583
10426W        W81026   1.418   3.653  12.624
10427W        W81027  14.122   4.754   2.731
10428W        W81028  44.742  34.021   0.285
10429W        W81029  38.281   1.151  11.420
10430W        W81030   4.832  22.045   2.634
10431W        W81031  31.554  17.379   1.775
10432W        W81032  42.164   4.871  14.274
10433W        W81033  27.435  36.119   2.594
10434W        W81034   1.769  12.165   3.260
10435W        W81035  30.997   9.446  13.421
10436W        W81036  33.409  36.430   2.791
10437W        W81037  39.865  29.121   4.845
10438W        W81038  37.970  20.548  13.862
10439W        W81039  12.390   4.502   0.756
10440W        W81040  36.998  40.801   1.241
10441W        W81041  27.615   4.844  12.165
10442W        W81042  44.475  13.775  10.916
10443W        W81043  36.579  13.399   0.902
10444W        W81044  20.382   4.285  13.786
10445W        W81045  19.268  25.887   1.255
10446W        W81046  25.914  40.520  14.702
10447W        W81047  41.359  36.742   3.582
10448W        W81048  22.265  11.856   1.812
10449W        W81049  21.171  41.456   1.521
10450W        W81050  37.538  41.675  11.237
10451W        W81051   4.772  38.466  12.960
10452W        W81052  43.848  31.404   1.000
10453W        W81053   9.312  25.071  10.096
10454W        W81054  26.191  11.795  13.425
10455W        W81055  41.959  13.119  10.403
10456W        W81056   7.903  37.900   1.202
10457W        W81057  21.211   7.686  14.328
10458W        W81058  33.674   0.910  12.079
10459W        W81059  41.498  25.677   3.369
10460W        W81060  34.345  11.530  12.971
10461W        W81061  29.859  36.897   1.357
10462W        W81062  16.118   9.856  11.135
10463W        W81063  25.185  27.626   2.652
10464W        W81064  36.343   4.432   1.650
10465W        W81065   1.887  43.335   1.051
10466W        W81066  23.955  33.123   1.251
10467W        W81067   8.127   9.297  14.442
10468W        W81068  25.691  18.616   0.390
10469W        W81069   1.348  38.369  12.396
10470W        W81070  15.146  20.507   3.067
10471W        W81071   5.414  17.805   1.723
10472W        W81072  21.499  16.181   3.022
10473W        W81073  17.846  19.001   1.019
10474W        W81074  18.121   1.555  10.600
10475W        W81075  32.467  34.635   4.186
10476W        W81076  24.060  39.198   1.298
10477W        W81077  36.500  19.918   1.379
10478W        W81078  40.073  20.624  13.863
10479W        W81079  19.166  24.000   3.598
10480W        W81080  44.484  28.738  14.473
10481W        W81081  25.035   6.115   1.697
10482W        W81082  22.425  37.538  12.992
10483W        W81083  23.982   7.151   2.389
10484W        W81084  22.751  29.739   5.048
10485W        W81085  33.030  26.651  11.523
10486W        W81086  42.800  28.478  14.696
10487W        W81087  28.912   3.745   3.161
10488W        W81088   2.255  38.379  11.511
10489W        W81089  14.052   0.059   0.277
10490W        W81090  24.951  44.765   0.714
10491W        W81091  11.742  25.768   2.397
10492W        W81092  32.026  10.277  14.215
10493W        W81093  13.901   7.348  11.592
10494W        W81094  12.787  40.905  12.354
10495W        W81095  16.034  24.036   3.488
10496W        W81096  36.131  25.749   1.747
10497W        W81097  10.328  38.728  10.688
10498W        W81098   0.908  41.602   3.115
10499W        W81099  17.431  35.822   3.015
10500W        W81100  33.937  24.731   0.446
10501W        W81101  11.438  19.543  13.588
10502W        W81102  17.739   6.716   2.697
10503W        W81103  16.084   8.326  11.664
10504W        W81104  38.565  27.289  11.676
10505W        W81105  11.309  26.509   2.147
10506W        W81106  19.694  17.793   2.499
10507W        W81107  14.914  23.643   0.374
10508W        W81108  36.247  40.469   0.412
10509W        W81109  39.765  34.521   1.899
10510W        W81110  26.048  37.193  12.559
10511W        W81111  42.883  11.548  14.899
10512W        W81112   0.534  23.139   0.665
10513W        W81113  23.344  29.606   0.353
10514W        W81114   1.840  11.218   0.541
10515W        W81115  34.599  17.080  14.395
10516W        W81116  19.276  29.851  10.588
10517W        W81117  42.671  19.706   2.638
10518W        W81118  28.356   3.042   3.056
10519W        W81119   2.950  28.992   4.182
10520W        W81120  34.084   1.729  10.718
10521W        W81121  35.126  14.764  13.419
10522W        W81122  17.840  25.351  13.856
10523W        W81123   1.340   7.850  13.566
10524W        W81124   1.285  28.694   4.675
10525W        W81125  36.876  24.161  11.774
10526W        W81126  27.343  34.879   4.798
10527W        W81127   8.122  20.159   1.518
10528W        W81128  13.121   5.742  12.919
10529W        W81129  24.494  44.456   0.238
10530W        W81130  14.717   3.095   4.559
10531W        W81131  11.822  17.293  14.857
10532W        W81132  10.328  29.998   2.326
10533W        W81133  29.012   0.369   3.613
10534W        W81134  31.066  29.716   3.222
10535W        W81135  16.393  17.809  13.493
10536W        W81136  29.813   4.548  11.660
10537W        W81137  14.609  33.428  13.424
10538W        W81138  14.773  12.748   9.986
10539W        W81139   4.351  15.815  10.589
10540W        W81140  23.980  38.289  14.456
10541W        W81141   0.623  11.654   2.228
10542W        W81142  39.304  35.266  12.440
10543W        W81143  18.734   5.313  11.753
10544W        W81144   3.352  23.298  14.054
10545W        W81145  17.007  41.099  14.468
10546W        W81146  24.056  16.647   3.140
10547W        W81147   5.571  40.253   1.045
10548W        W81148  44.052   7.280   2.716
10549W        W81149  41.618   1.041  11.544
10550W        W81150  11.151  32.586   3.210
10551W        W81151  12.828   8.233  10.749
10552W        W81152  28.377  34.268  14.856
10553W        W81153   6.471  36.581  13.430
10554W        W81154  38.601  11.387  11.133
10555W        W81155  21.049  21.574   2.751
10556W        W81156  36.868  21.298  12.653
10557W        W81157  21.770  34.097  10.574
10558W        W81158  24.911  24.640  13.400
10559W        W81159  12.133  23.557  11.077
10560W        W81160  31.888  38.311  14.905
10561W        W81161  37.208  19.693  13.503
10562W        W81162   3.701   7.171   0.914
10563W        W81163  20.616   5.252  12.954
10564W        W81164  32.016  22.649  13.351
10565W        W81165   2.057  11.789   2.004
10566W        W81166   0.549  25.018   4.285
10567W        W81167   8.338  36.111  12.890
10568W        W81168  21.547  18.385  11.585
10569W        W81169   2.708  15.304   2.440
10570W        W81170   4.666  26.978   4.622
10571W        W81171  13.074   2.363  11.617
10572W        W81172  38.007  17.577   2.900
10573W        W81173   0.338  10.809   2.922
10574W        W81174  42.529  16.801  11.189
10575W        W81175  39.273  37.867   1.784
10576W        W81176   7.392   9.415  12.387
10577W        W81177  26.434  28.446   2.349
10578W        W81178   1.160  15.851  13.479
10579W        W81179  25.274   1.796   2.122
10580W        W81180  16.071  38.096  14.365
10581W        W81181  11.195   3.916  13.965
10582W        W81182   8.278  18.999  12.967
10583W        W81183   4.666  36.705  12.379
10584W        W81184  39.417   8.546  10.289
10585W        W81185  24.248   3.272  14.698
10586W        W81186   9.500  42.285   0.913
10587W        W81187  38.970   0.750   3.010
10588W        W81188  11.802  20.001   3.681
10589W        W81189  11.326  13.958  14.531
10590W        W81190  26.070   4.627  14.718
10591W        W81191  33.328  32.210  13.219
10592W        W81192  15.683  18.049  12.926
10593W        W81193   7.290  17.391   3.119
10594W        W81194   2.920  21.666  11.532
10595W        W81195  25.471   3.859  10.961
10596W        W81196   9.267  17.866  11.932
10597W        W81197  30.436  26.800  13.415
10598W        W81198  38.363   6.342   0.869
10599W        W81199  17.854  41.592   3.107
10600W        W81200   7.224  23.761  13.625
10601W        W81201  26.088  32.074   4.889
10602W        W81202  22.739  28.030  14.807
10603W        W81203   4.424  33.505   1.263
10604W        W81204  32.478  14.733  14.441
10605W        W81205  35.639  16.801   2.288
10606W        W81206  11.792  37.011  12.108
10607W        W81207   7.777  31.361   1.227
10608W        W81208  27.722  16.814   4.191
10609W        W81209   5.766  24.614   1.502
10610W        W81210   1.854  23.603  13.372
10611W        W81211  14.158  33.037  11.311
10612W        W81212  13.781  11.121   1.898
10613W        W81213  25.566  26.374   1.522
10614W        W81214  38.191  15.060   3.332
10615W        W81215   3.882  22.309  11.952
10616W        W81216  32.028   8.943  11.265
10617W        W81217   8.614   7.745  11.058
10618W        W81218  29.720  28.550   3.568
10619W        W81219  11.295  12.622  12.927
10620W        W81220  15.252  11.030  10.233
10621W        W81221  42.353  20.585  10.754
10622W        W81222  14.823   8.299  12.950
10623W        W81223  18.988  15.161   1.269
10624W        W81224  14.054  15.451   4.006
10625W        W81225  23.947   9.175   4.642
10626W        W81226  27.698  34.841  13.395
10627W        W81227   5.863  38.556  13.833
10628W        W81228  11.575   3.781  14.273
10629W        W81229  40.613  41.321   2.045
10630W        W81230  40.704  12.224   2.160
10631W        W81231  20.883  32.073   2.490
10632W        W81232  20.653  33.088   3.704
10633W        W81233   4.262  16.564   2.731
10634W        W81234  21.114  43.986  13.517
10635W        W81235  29.525  18.225  13.306
10636W        W81236  20.206  26.443   2.862
10637W        W81237  19.183   3.991   1.738
10638W        W81238  31.019  41.617   5.442
10639W        W81239   1.721  37.696   1.601
10640W        W81240  35.906  18.553  11.974
10641W        W81241  42.306  44.912   1.643
10642W        W81242  30.101   3.834  12.696
10643W        W81243  32.384   9.900  14.772
10644W        W81244  17.213  12.220  14.530
10645W        W81245  13.571  30.836   1.502
10646W        W81246  20.499  18.790  14.510
10647W        W81247  13.104  19.059   3.186
10648W        W81248  17.674   7.842  11.294
10649W        W81249  29.425  42.539   3.318
10650W        W81250   0.967  39.549   1.389
10651W        W81251  29.672  15.341  12.489
10652W        W81252  12.915  20.977  10.892
10653W        W81253  17.493  42.948  10.717
10654W        W81254  42.709  32.027   4.558
10655W        W81255  41.916   1.393   1.460
10656W        W81256  26.746   5.341  11.763
10657W        W81257  16.066  42.986  13.939
10658W        W81258   4.957   0.845   1.184
10659W        W81259  14.605  18.680  10.799
10660W        W81260  33.573  20.615   3.284
10661W        W81261  19.909   8.490  14.383
10662W        W81262  26.540  17.984   4.646
10663W        W81263  11.507   6.780  11.652
10664W        W81264  27.086  21.328  13.390
10665W        W81265  19.251   1.264   0.406
10666W        W81266  44.798   7.389  14.718
10667W        W81267   3.774  22.114  14.792
10668W        W81268  35.790  40.236   0.569
10669W        W81269  20.412  25.100  14.574
10670W        W81270  27.094  18.246   3.316
10671W        W81271   7.019  41.848   3.314
10672W        W81272  20.644  38.572   4.123
10673W        W81273  33.435  33.645   4.144
10674W        W81274  31.099  29.885   5.056
10675W        W81275   9.996  21.794  12.084
10676W        W81276  36.339  32.170   4.983
10677W        W81277  12.652  18.579  13.889
10678W        W81278  41.844  32.366  12.940
10679W        W81279  40.869  43.003  12.071
10680W        W81280   7.261   2.057  13.294
10681W        W81281   7.181  18.893  13.448
10682W        W81282  21.013  33.592   0.923
10683W        W81283  27.099  31.942   2.556
10684W        W81284   3.803  11.899  10.712
10685W        W81285  27.594  41.950  14.533
10686W        W81286  38.871  21.605   4.267
10687W        W81287  22.942  31.012  12.124
10688W        W81288   6.676  39.101  12.979
10689W        W81289  16.039   8.292   3.287
10690W        W81290  17.701  15.356   2.730
10691W        W81291  29.540   1.307   1.784
10692W        W81292  32.862   3.404  14.029
10693W        W81293  33.383  12.725   0.688
10694W        W81294  43.144  39.919   2.220
10695W        W81295   1.384   2.269   1.881
10696W        W81296   1.256  41.845   4.538
10697W        W81297  19.249  31.447   2.733
10698W        W81298  25.485   4.687  12.062
10699W        W81299  30.950  23.726  13.872
10700W        W81300  40.975   9.666   1.294
10701W        W81301  19.609  18.286  10.375
10702W        W81302  37.861  32.222  10.776
10703W        W81303   1.434  37.364   0.374
10704W        W81304  17.697  44.650   0.769
10705W        W81305  16.834  20.419  14.859
10706W        W81306   6.994  44.417   9.964
10707W        W81307  19.736   2.696   3.043
10708W        W81308   3.150  14.597   4.022
10709W        W81309   5.947  40.403  12.896
10710W        W81310  13.632  33.115   1.783
10711W        W81311  26.559  29.683   0.343
10712W        W81312   5.133  28.795   3.637
10713W        W81313  44.023  23.526  12.325
10714W        W81314  17.620  16.604  12.685
10715W        W81315  27.672  12.687   0.776
10716W        W81316  31.632   2.884   3.608
10717W        W81317  15.190  34.617  14.659
10718W        W81318  28.190  35.815  10.763
10719W        W81319   7.190   1.710   1.785
10720W        W81320  21.494  39.099   4.202
10721W        W81321   4.200   4.947  12.519
10722W        W81322  39.382  40.422   2.955
10723W        W81323  43.380  23.032  12.823
10724W        W81324   9.661  12.683  10.567
10725W        W81325   7.317  29.886  14.321
10726W        W81326  33.572  40.362   3.603
10727W        W81327  19.085  23.730  10.953
10728W        W81328  20.248  37.439   4.980
10729W        W81329   4.371   0.075  11.386
10730W        W81330   5.913  21.438  13.027
10731W        W81331   2.687  19.283   4.399
10732W        W81332  24.188  18.808  12.373
10733W        W81333  17.002   7.059   0.804
10734W        W81334   7.943   5.025  12.839
10735W        W81335  27.887  31.420   4.548
10736W        W81336  29.519  35.366  13.316
10737W        W81337  22.111  28.542  13.523
10738W        W81338   1.902  42.339   0.413
10739W        W81339  22.657  11.389   4.193
10740W        W81340  19.571  43.855   4.437
10741W        W81341  39.115   2.130   3.456
10742W        W81342  26.488  22.778   4.084
10743W        W81343  26.522   7.982   1.004
10744W        W81344  29.615  38.412   1.243
10745W        W81345  35.483  31.141   3.087
10746W        W81346  30.479  30.257   1.887
10747W        W81347  36.495  34.599   3.765
10748W        W81348  17.055  40.710  10.783
10749W        W81349  23.208   4.541  14.342
10750W        W81350   7.272  44.751   2.318
10751W        W81351  12.147  23.772   4.107
10752W        W81352  11.621  25.253   2.288
10753W        W81353   3.953  32.031  11.079
10754W        W81354   7.739  17.278  14.132
10755W        W81355   5.804   2.823  12.424
10756W        W81356  41.517  37.114   0.400
10757W        W81357  44.222  43.289  14.774
10758W        W81358  43.482  26.545   2.171
10759W        W81359  14.103  12.426   0.206
10760W        W81360   5.419  25.624  13.829
10761W        W81361  26.134  12.577   2.716
10762W        W81362  20.305  16.212  10.489
10763W        W81363  26.647  25.242   1.261
10764W        W81364  32.464  42.040   3.116
10765W        W81365  23.612  10.076   1.932
10766W        W81366   6.841  31.863   1.212
10767W        W81367  38.309   3.972   2.806
10768W        W81368   2.306  15.401  13.448
10769W        W81369   2.545  29.119  10.684
10770W        W81370   2.560   6.322  11.407
10771W        W81371  20.553  25.546  12.054
10772W        W81372  16.876   8.857  12.052
10773W        W81373  33.022   2.818  12.922
10774W        W81374  14.096  35.461   2.744
10775W        W81375  21.770   9.594   2.234
10776W        W81376  13.541  22.207   0.249
10777W        W81377  14.748  26.057   2.993
10778W        W81378  15.147   9.465  14.053
10779W        W81379  39.813  44.880  12.268
10780W        W81380  16.329  36.497   3.619
10781W        W81381   2.310   8.183   2.398
10782W        W81382  35.263  17.359   1.292
10783W        W81383   3.584  14.805   0.464
10784W        W81384  26.760   7.655  14.075
10785W        W81385  10.229   4.132  12.172
10786W        W81386  28.719  10.928  12.123
10787W        W81387  35.104  41.483   0.316
10788W        W81388  11.337  33.855   4.647
10789W        W81389   0.074  43.405  10.637
10790W        W81390  20.569  14.363   2.234
10791W        W81391  36.293  43.507  10.790
10792W        W81392  40.349  18.860  13.009
10793W        W81393  33.511   6.318  10.554
10794W        W81394   3.980  21.972   4.144
10795W        W81395  10.575   0.841  11.989
10796W        W81396  32.961  32.151   3.263
10797W        W81397  36.953   1.288  12.494
10798W        W81398  33.349  29.835  11.584
10799W        W81399  15.026   2.995  11.636
10800W        W81400   7.295  15.789  13.564
10801W        W81401  28.576  16.367   1.378
10802W        W81402  16.648  30.977   0.595
10803W        W81403  40.093  39.352   2.483
10804W        W81404  22.192  41.968   0.003
10805W        W81405  39.904  13.544  14.446
10806W        W81406  40.196  39.837  12.055
10807W        W81407  21.102   8.131   0.664
10808W        W81408  15.606  11.401  10.413
10809W        W81409  18.517  24.692  14.295
10810W        W81410  22.512  23.659  10.708
10811W        W81411  24.713  16.880  11.574
10812W        W81412  11.298  23.054   1.696
10813W        W81413  24.476  32.668   3.377
10814W        W81414  43.353  33.927  13.434
10815W        W81415   2.446  43.081  14.769
10816W        W81416  29.576  18.634   3.573
10817W        W81417  30.366   6.632  10.695
10818W        W81418  32.237  33.921   2.606
10819W        W81419  29.494  20.886  12.625
10820W        W81420  22.051  13.056   0.711
10821W        W81421   5.458  22.635   4.115
10822W        W81422  15.050   0.384   1.363
10823W        W81423  24.953  32.520   2.069
10824W        W81424   7.365  22.975  10.494
10825W        W81425  23.283   9.224   1.308
10826W        W81426  14.139  26.470  12.142
10827W        W81427  19.224  35.082   4.420
10828W        W81428  17.006  23.096  14.970
10829W        W81429  28.063  21.713   1.346
10830W        W81430  20.101  36.145   0.728
10831W        W81431  36.404  21.835   2.817
10832W        W81432  12.675  41.873   0.269
10833W        W81433  19.481  11.674  14.327
10834W        W81434  19.339  44.477  11.167
10835W        W81435   9.726  34.441   4.382
10836W        W81436  28.173  36.865  11.075
10837W        W81437  27.978   3.961  12.134
10838W        W81438   9.889  25.948   2.350
10839W        W81439  22.188  24.497  12.497
10840W        W81440  19.132  16.986  13.268
10841W        W81441  16.698  19.546  10.549
10842W        W81442  29.971  38.029   0.713
10843W        W81443  33.917  42.250   4.146
10844W        W81444  14.141   3.762  14.451
10845W        W81445  34.454  39.188  11.548
10846W        W81446  21.032  31.432   2.851
10847W        W81447  39.834  13.743   3.693
10848W        W81448  44.353  12.265  14.407
10849W        W81449  18.491  33.449   4.832
10850W        W81450  42.038   8.842   1.567
10851W        W81451  12.585   2.924  12.429
10852W        W81452  28.608  41.462   3.820
10853W        W81453  35.092  20.688   4.063
10854W        W81454  35.055  32.970  14.595
10855W        W81455  29.568  35.423   1.359
10856W        W81456  29.202  37.924   1.763
10857W        W81457  27.576  14.548   1.291
10858W        W81458   3.615  20.265   4.768
10859W        W81459  41.953  28.895  13.258
10860W        W81460  18.077  41.328   4.598
10861W        W81461  28.590  43.006   2.234
10862W        W81462  38.291  38.559  13.499
10863W        W81463  30.595  37.619   3.474
10864W        W81464  10.291  43.024   2.738
10865W        W81465  11.661  14.281   2.621
10866W        W81466  42.870   4.114   1.291
10867W        W81467  41.466  26.148  14.713
10868W        W81468  30.491   5.475   0.950
10869W        W81469  37.516  18.649   0.387
10870W        W81470  20.076  20.641   3.031
10871W        W81471   3.967  27.147  12.078
10872W        W81472   4.246  25.236  13.848
10873W        W81473   3.483   6.679  13.832
10874W        W81474  31.433  31.050   1.811
10875W        W81475  41.502  38.786  12.380
10876W        W81476   7.882  31.320   0.230
10877W        W81477  35.093  12.784   4.546
10878W        W81478  17.335  14.287  12.270
10879W        W81479   0.825   0.919  13.551
10880W        W81480  22.133   8.656  14.882
10881W        W81481  22.018  41.471   0.090
10882W        W81482  22.942   2.359   2.422
10883W        W81483  40.306  33.495   2.158
10884W        W81484  11.406   6.302  10.468
10885W        W81485  11.348  20.152  10.382
10886W        W81486  17.206  40.934   3.215
10887W        W81487  33.086   3.358  13.013
10888W        W81488  32.793  25.558   0.666
10889W        W81489  14.680  23.548  13.076
10890W        W81490  38.479  38.323   1.264
10891W        W81491  33.706  21.954   5.033
10892W        W81492   7.220  23.219  14.505
10893W        W81493  34.147  27.115   2.337
10894W        W81494  39.853  15.478   0.051
10895W        W81495  20.650  37.665  11.209
10896W        W81496  33.161  11.582  12.590
10897W        W81497  28.351  27.700   3.679
10898W        W81498  25.198  11.804  14.869
10899W        W81499  27.542   7.606  13.510
10900W        W81500  22.083  36.284  13.215
10901W        W81501  38.592  25.035  11.665
10902W        W81502  23.120  38.306   0.252
10903W        W81503  28.830  42.081  12.959
10904W        W81504  34.019  23.518   2.296
10905W        W81505  16.347   9.683   2.753
10906W        W81506  30.037  38.655  14.361
10907W        W81507  19.378  18.182  12.882
10908W        W81508   3.464  24.028   3.682
10909W        W81509  14.838  19.434   4.107
10910W        W81510   9.707   3.908  12.871
10911W        W81511  29.027  40.034   3.732
10912W        W81512   0.022   7.381  11.448
10913W        W81513  25.136  25.678   1.287
10914W        W81514  35.059   0.553   2.432
10915W        W81515  26.956  25.961   4.355
10916W        W81516  36.452   1.857   4.599
10917W        W81517  38.780  19.674   2.756
10918W        W81518  38.676  24.055   4.178
10919W        W81519  38.534  31.451  14.523
10920W        W81520  14.241   0.434  10.592
10921W        W81521  26.592   7.120   4.485
10922W        W81522  23.460  21.338   2.749
10923W        W81523   8.155  36.124   3.775
10924W        W81524  30.496  40.273   3.101
10925W        W81525  40.281  34.696  13.262
10926W        W81526  17.560  26.127   1.279
10927W        W81527   3.576   4.093   1.800
10928W        W81528  12.850  25.187   0.938
10929W        W81529  43.159   1.885  12.379
10930W        W81530  26.099  26.144   3.179
10931W        W81531  37.596   4.743  12.008
10932W        W81532  12.375  16.070  12.883
10933W        W81533  15.012  44.485  12.046
10934W        W81534  32.147  18.488   1.606
10935W        W81535  40.907  28.039   1.310
10936W        W81536  39.031  28.787   0.780
10937W        W81537  39.499   7.641  11.336
10938W        W81538   5.726  27.315   2.266
10939W        W81539  32.114  14.687   1.991
10940W        W81540  20.092  12.652  11.524
10941W        W81541  11.813  27.450   4.472
10942W        W81542  20.754  25.208   0.420
10943W        W81543   7.336  28.963  14.538
10944W        W81544   0.343   9.523  11.158
10945W        W81545  25.635  10.664  14.212
10946W        W81546  29.359  19.784   3.134
10947W        W81547  27.126  33.825   0.360
10948W        W81548  18.456  13.181  14.774
10949W        W81549  15.141   6.918   2.827
10950W        W81550  16.768  21.808  11.997
10951W        W81551  34.890   2.287  13.111
10952W        W81552  35.517   8.932   2.612
10953W        W81553  38.977  43.932  13.491
10954W        W81554   4.914  27.985  13.964
10955W        W81555  37.604  15.576   1.764
10956W        W81556  36.493  33.868  10.338
10957W        W81557  33.433  39.944   4.903
10958W        W81558  13.595  37.474   0.964
10959W        W81559   8.601  21.478   4.197
10960W        W81560  11.869  22.036  14.663
10961W        W81561  11.186   9.778  14.509
10962W        W81562   5.423  41.823   3.886
10963W        W81563  40.326   5.043  14.112
10964W        W81564   3.910  23.977  14.465
10965W        W81565  27.969   9.340  11.913
10966W        W81566  42.251  43.361  13.074
10967W        W81567  36.662  11.039  12.173
10968W        W81568  15.351   7.915   1.992
10969W        W81569  11.481  29.729   0.419
10970W        W81570  11.978   8.400   0.377
10971W        W81571   8.156  20.672   3.087
10972W        W81572  28.603  42.072  14.357
10973W        W81573  22.948  17.154   4.710
10974W        W81574  38.408  23.923   2.773
10975W        W81575  34.581   0.302   0.834
10976W        W81576  37.641   9.335  10.756
10977W        W81577  19.260  42.522   3.236
10978W        W81578  21.221   8.834  14.522
10979W        W81579  13.615  31.120  13.089
10980W        W81580  33.948  19.259   4.795
10981W        W81581  13.363  19.411  14.054
10982W        W81582  26.489  37.110   1.864
10983W        W81583  20.666  22.700  14.742
10984W        W81584  14.552  19.107   2.658
10985W        W81585  29.643  42.516  14.652
10986W        W81586  36.142   1.951   2.790
10987W        W81587  33.902  41.972   3.351
10988W        W81588   5.151   8.671  13.042
10989W        W81589  12.091  18.137   0.418
10990W        W81590  10.753  34.945  14.993
10991W        W81591   6.750  42.947   2.279
10992W        W81592  44.722   3.006   2.800
10993W        W81593   0.366   4.108  12.885
10994W        W81594  15.054  37.532  12.815
10995W        W81595  13.578   3.880  13.822
10996W        W81596  15.308  14.174   2.645
10997W        W81597  34.926  38.085  12.858
10998W        W81598  18.838   7.387   4.615
10999W        W81599  17.397   9.790  11.137
11000W        W81600   2.861  32.571  13.850
11001W        W81601  34.653  22.620  12.507
11002W        W81602  11.313   1.422   0.353
11003W        W81603   9.316  22.667  12.247
11004W        W81604  21.027  15.765   3.627
11005W        W81605  14.274  18.575  13.408
11006W        W81606  35.512  11.015   2.290
11007W        W81607  25.485  31.430  13.977
11008W        W81608  40.990  42.160   0.388
11009W        W81609  39.601  12.001  11.537
11010W        W81610  17.728  28.844   3.479
11011W        W81611  41.877   4.494  11.628
11012W        W81612  43.347  25.681   0.885
11013W        W81613  39.121  30.667   3.219
11014W        W81614  33.557  21.121   0.934
11015W        W81615  13.033  19.503  12.149
11016W        W81616  24.312  22.120  13.083
11017W        W81617  30.968  13.905   3.109
11018W        W81618  44.499  26.073   0.417
11019W        W81619  19.453   0.715   3.135
11020W        W81620  35.541   6.908   0.075
11021W        W81621  44.852  33.285   1.264
11022W        W81622   4.827  10.850  12.280
11023W        W81623   8.358  37.251   2.926
11024W        W81624  24.917   2.712   1.376
11025W        W81625  21.169  13.311   0.398
11026W        W81626  29.391  18.532  10.760
11027W        W81627  18.768  23.984  11.668
11028W        W81628  41.355  43.165  12.102
11029W        W81629  28.426  18.134  11.700
11030W        W81630  31.485  29.010  10.743
11031W        W81631   3.756  31.071  11.048
11032W        W81632   2.760  44.606  11.149
11033W        W81633   3.370  19.697   0.417
11034W        W81634  20.155  34.334   3.665
11035W        W81635   8.229  22.672   3.747
11036W        W81636   7.788  43.426   4.816
11037W        W81637  28.472  38.425   1.233
11038W        W81638  20.967   2.159  12.614
11039W        W81639  38.934  40.378   2.717
11040W        W81640   7.709  12.568   3.142
11041W        W81641  16.176  16.017  10.214
11042W        W81642  28.260  22.121  12.195
11043W        W81643  25.211  32.661   1.661
11044W        W81644  34.208  13.726  14.461
11045W        W81645  26.073  38.053   1.616
11046W        W81646  40.828  20.761   1.668
11047W        W81647  24.525   4.341   4.604
11048W        W81648  25.819  27.286  13.214
11049W        W81649  43.979   5.674   2.866
11050W        W81650  15.498  39.885   3.882
11051W        W81651   8.837  27.014  13.049
11052W        W81652  25.551  27.841   0.969
11053W        W81653  29.171  22.959   4.754
11054W        W81654  12.073  33.817   2.436
11055W        W81655  29.225   6.090  14.070
11056W        W81656  16.565   1.547   2.098
11057W        W81657  40.659   2.050   0.067
11058W        W81658  43.617   6.291   0.733
11059W        W81659  30.069  31.383  13.022
11060W        W81660  31.072   9.850   1.895
11061W        W81661   6.316  37.985  13.730
11062W        W81662  36.553   5.052   3.938
11063W        W81663   3.526  17.346  13.573
11064W        W81664  42.436   2.973   2.711
11065W        W81665  10.382  11.308   1.825
11066W        W81666  31.139  26.424   2.195
11067W        W81667   9.227  31.477  13.830
11068W        W81668   9.866  15.464   1.393
11069W        W81669   4.414  19.961  11.102
11070W        W81670  31.227  21.572   0.889
11071W        W81671  14.759  18.884  11.259
11072W        W81672  22.428  33.402   3.782
11073W        W81673  39.957  20.998   3.126
11074W        W81674  29.360  36.905   2.660
11075W        W81675   3.894   1.369  13.343
11076W        W81676  19.229  13.896   4.835
11077W        W81677   4.260  37.336   2.546
11078W        W81678  16.976  10.409  14.012
11079W        W81679   6.758  34.458  12.889
11080W        W81680  12.127   7.374  11.023
11081W        W81681  39.109  34.065  14.730
11082W        W81682  27.161   9.938   3.188
11083W        W81683  31.917  11.270  12.064
11084W        W81684  13.878   1.829  13.553
11085W        W81685  44.525  13.723  12.482
11086W        W81686  29.690   8.188  14.426
11087W        W81687  17.543   6.822  11.974
11088W        W81688   1.635  25.451  14.057
11089W        W81689  10.334  34.955  13.294
11090W        W81690   4.286  24.982  11.965
11091W        W81691  16.910  33.804   4.048
11092W        W81692  29.438  21.550   4.643
11093W        W81693  28.719  35.668  13.965
11094W        W81694  16.485  31.099  13.411
11095W        W81695  39.502  41.140   4.347
11096W        W81696  29.988   6.173  14.809
11097W        W81697  40.006  22.261  13.445
11098W        W81698  15.091  25.189  12.434
11099W        W81699   6.783  20.719   2.850
11100W        W81700  14.718  35.874  12.455
11101W        W81701  41.384   1.832   1.365
11102W        W81702  22.941  30.390   3.238
11103W        W81703  23.302   9.439   2.697
11104W        W81704  23.376  19.817   1.785
11105W        W81705  12.644  13.956  13.563
11106W        W81706  17.511  36.086   0.916
11107W        W81707   7.168  17.155   2.678
11108W        W81708  25.924  16.746  14.992
11109W        W81709   2.769  20.784   2.348
11110W        W81710  20.515  31.364  14.258
11111W        W81711  10.528  25.769   2.669
11112W        W81712  24.158   4.693  11.569
11113W        W81713   9.053  14.773  11.010
11114W        W81714  10.081  28.265  12.239
11115W        W81715  30.173   4.475   2.427
11116W        W81716   7.921  21.068   0.950
11117W        W81717   9.465  16.684   1.925
11118W        W81718  30.789  20.298   0.533
11119W        W81719  17.235  15.945  12.067
11120W        W81720   9.918   6.802  12.000
11121W        W81721  21.961   6.160  12.318
11122W        W81722  39.485  29.521  13.789
11123W        W81723  37.511  29.444   4.145
11124W        W81724  37.034  44.780   0.896
11125W        W81725  22.495  18.231  12.481
11126W        W81726  23.563  37.931   1.854
11127W        W81727  34.825  38.926  13.210
11128W        W81728   2.251  12.371   3.190
11129W        W81729   7.154  16.097  11.595
11130W        W81730  41.824  10.332  13.423
11131W        W81731  31.662  29.916   2.430
11132W        W81732  41.741  39.142   4.133
11133W        W81733   8.511  30.195   4.231
11134W        W81734  11.662  25.164   3.201
11135W        W81735  21.177  15.898  13.572
11136W        W81736  41.638  11.122  13.758
11137W        W81737  20.831  25.651   4.027
11138W        W81738   9.633  25.956  14.558
11139W        W81739  16.677  20.623   0.849
11140W        W81740  32.617  26.165  14.758
11141W        W81741   2.137  24.458  14.271
11142W        W81742  21.151  22.089  11.502
11143W        W81743  15.198  29.849  11.091
11144W        W81744  22.836  37.113  10.746
11145W        W81745   1.223  28.069  12.483
11146W        W81746  12.882  35.732   0.804
11147W        W81747  20.266  24.635   1.725
11148W        W81748  12.340   5.801   3.325
11149W        W81749  33.892   7.323   1.957
11150W        W81750  21.572  20.008  13.063
11151W        W81751  32.456  22.142   4.245
11152W        W81752   9.333   0.717  12.414
11153W        W81753  37.577  11.757   3.180
11154W        W81754  18.520  26.150  14.534
11155W        W81755  35.166  36.462  13.578
11156W        W81756  37.663   7.616  12.609
11157W        W81757  13.895   9.583  13.468
11158W        W81758  34.987  19.375  13.988
11159W        W81759  18.506  32.375  10.799
11160W        W81760  26.249  11.251  10.564
11161W        W81761  17.762  37.418   1.970
11162W        W81762  16.639  36.417  14.974
11163W        W81763  15.315  17.384   3.238
11164W        W81764  12.052  38.644  13.531
11165W        W81765  32.618  41.937   2.579
11166W        W81766  17.099   8.078  12.867
11167W        W81767  30.165  34.884  12.463
11168W        W81768   3.862   6.877  11.050
11169W        W81769   6.940  16.255  14.921
11170W        W81770  36.776  18.843  13.029
11171W        W81771   9.313  14.235  10.129
11172W        W81772   7.669  33.648  10.757
11173W        W81773  18.726  30.785   0.957
11174W        W81774  43.232  25.427  11.101
11175W        W81775  26.165  29.221   4.836
11176W        W81776   9.724  33.955   1.503
11177W        W81777  37.570  38.866   1.163
11178W        W81778  27.096  44.957  12.893
11179W        W81779  13.826  24.763   2.256
11180W        W81780  44.039  44.380   4.649
11181W        W81781  25.158  37.436  10.831
11182W        W81782  29.556   5.389  11.175
11183W        W81783  42.768  33.104   0.344
11184W        W81784  17.253  19.200  13.671
11185W        W81785  10.268  16.379   1.407
11186W        W81786  13.317  43.985   1.469
11187W        W81787  41.978  24.562   0.509
11188W        W81788  35.771  24.268   3.264
11189W        W81789  38.528  26.951  13.028
11190W        W81790   7.204  16.529   4.159
11191W        W81791  26.452  31.183   0.219
11192W        W81792   7.328  12.247   1.553
11193W        W81793  20.780  13.463   2.392
11194W        W81794   0.492  29.439  13.476
11195W        W81795  28.462  25.408   1.842
11196W        W81796   7.334   6.656   1.243
11197W        W81797   7.081  32.920  14.954
11198W        W81798  35.608  12.566  10.656
11199W        W81799   3.298   0.987   1.407
11200W        W81800  10.723  31.666   0.700
11201W        W81801   1.987  16.641  11.083
11202W        W81802  22.594   5.829  14.284
11203W        W81803  37.446  32.133  12.477
11204W        W81804  29.499   7.716  12.691
11205W        W81805   6.019  15.580   3.861
11206W        W81806  42.993  40.536   1.698
11207W        W81807   6.129  23.114  14.947
11208W        W81808   0.442  24.156   1.846
11209W        W81809  23.193   2.327  11.626
11210W        W81810  41.478  16.102  14.991
11211W        W81811   6.014  14.564   0.409
11212W        W81812  31.112  29.119   0.395
11213W        W81813  18.494   4.928  12.659
11214W        W81814  13.338  13.763  11.995
11215W        W81815  38.340  33.644  11.181
11216W        W81816  28.055  39.261   4.086
11217W        W81817  18.536  21.141   2.424
11218W        W81818  23.100   6.707   3.567
11219W        W81819   9.689  24.592   1.841
11220W        W81820  36.358  18.503   1.399
11221W        W81821   9.616  25.059  13.566
11222W        W81822  22.040  20.358   1.964
11223W        W81823  12.297  44.677  13.098
11224W        W81824  38.610  43.407   2.402
11225W        W81825  26.529  10.119  13.082
11226W        W81826   6.838  29.485  11.606
11227W        W81827  42.892   8.417   3.206
11228W        W81828   6.926  34.610  11.494
11229W        W81829   5.675  27.738  12.489
11230W        W81830  24.157  11.093   2.186
11231W        W81831  44.235  33.485   2.706
11232W        W81832  27.952  23.099   4.220
11233W        W81833  25.580   4.699   4.209
11234W        W81834  22.616   8.922   3.231
11235W        W81835  38.910  42.585   4.142
11236W        W81836  39.315  18.701  12.476
11237W        W81837   8.303  39.923  12.091
11238W        W81838  41.007  14.740   1.253
11239W        W81839  17.774   3.442  13.505
11240W        W81840  14.305   3.763  13.470
11241W        W81841  14.076   0.191  13.918
11242W        W81842  37.658  35.186   3.151
11243W        W81843  16.462   6.213  12.020
11244W        W81844   9.790  33.173  14.129
11245W        W81845  13.829  35.020   2.682
11246W        W81846   9.739  20.514   1.962
11247W        W81847   3.190  44.984  12.500
11248W        W81848  22.316  30.104  11.230
11249W        W81849  43.644   5.365   2.601
11250W        W81850  17.739  44.888   4.091
11251W        W81851  24.720   6.673   0.896
11252W        W81852  15.333  14.839  11.843
11253W        W81853  15.992  28.281  11.693
11254W        W81854  40.418  44.236   2.511
11255W        W81855   1.218  23.934  14.425
11256W        W81856  31.921  33.345  13.341
11257W        W81857  11.310  22.573   1.439
11258W        W81858   6.856  12.090  12.665
11259W        W81859  25.316  38.104  14.377
11260W        W81860  11.267  21.063  11.334
11261W        W81861  31.382   1.724   0.753
11262W        W81862  20.347  22.988   2.686
11263W        W81863  43.058  13.135   0.970
11264W        W81864  40.355   5.301   0.515
11265W        W81865  37.884  11.178  14.713
11266W        W81866  13.338  42.338  11.564
11267W        W81867  36.229  39.228   3.844
11268W        W81868  16.704  32.483   4.548
11269W        W81869  42.046  21.720  13.799
11270W        W81870  26.434   7.345   3.688
11271W        W81871  28.458  22.622   0.042
11272W        W81872  40.388  14.581  11.976
11273W        W81873   4.734  35.404   3.204
11274W        W81874  25.580  34.292  12.165
11275W        W81875  10.272  17.260  14.668
11276W        W81876  18.977  34.432   1.729
11277W        W81877  44.356   4.368  12.924
11278W        W81878  14.459   6.092   3.911
11279W        W81879   2.346  31.965  13.351
11280W        W81880  29.647  40.155  12.959
11281W        W81881   9.391   7.377   1.843
11282W        W81882  42.569  33.197   0.826
11283W        W81883  17.243  43.361   1.920
11284W        W81884  24.477  43.971  14.387
11285W        W81885   6.367  22.117   0.254
11286W        W81886  30.479   1.949  11.591
11287W        W81887   9.315  37.191   4.186
11288W        W81888  22.500  24.623  12.902
11289W        W81889  17.288   1.968  12.054
11290W        W81890  10.198  41.465   0.942
11291W        W81891  19.003  18.707  13.439
11292W        W81892   4.767   8.255  11.621
11293W        W81893  15.178   0.233  11.504
11294W        W81894  42.781  23.223  12.108
11295W        W81895  22.439  24.248  13.644
11296W        W81896  15.265  26.682   0.319
11297W        W81897  44.838  35.383   0.310
11298W        W81898  30.652  32.414   4.161
11299W        W81899  11.803  24.033   3.798
11300W        W81900  31.110  31.730   1.318
11301W        W81901   4.382   2.297   2.712
11302W        W81902  35.596  30.123  12.390
11303W        W81903  37.964   0.021   3.754
11304W        W81904  15.307   9.348   1.931
11305W        W81905  13.669  35.888  11.695
11306W        W81906  28.181  17.145   1.928
11307W        W81907  35.328  35.063   1.816
11308W        W81908  23.656  34.617   2.374
11309W        W81909  14.569  42.553   3.261
11310W        W81910  32.908  42.644   4.498
11311W        W81911  14.625  41.386   4.564
11312W        W81912  24.091  11.110   3.119
11313W        W81913   3.317  24.195  13.303
11314W        W81914  14.292  20.073   1.471
11315W        W81915  24.641  25.580  11.127
11316W        W81916  24.721  22.063   2.332
11317W        W81917  19.491  40.922  14.588
11318W        W81918  12.433  38.351   2.935
11319W        W81919  34.412  19.535   3.891
11320W        W81920  23.200  10.205   4.020
11321W        W81921  37.797   9.755  12.952
11322W        W81922   5.277  18.550   2.580
11323W        W81923  11.583   3.643   4.542
11324W        W81924  30.661   8.406   3.316
11325W        W81925  41.963  23.257  13.807
11326W        W81926  19.240  33.635  13.016
11327W        W81927   4.731   3.610  11.835
11328W        W81928  27.975  43.925  11.703
11329W        W81929   3.446   2.349   2.878
11330W        W81930  22.736  14.533   4.357
11331W        W81931  36.171  15.615  11.167
11332W        W81932  11.357  27.923   3.293
11333W        W81933  15.891  21.728   3.268
11334W        W81934  30.540  14.249  12.368
11335W        W81935  28.957  42.510  11.699
11336W        W81936  18.751   8.751   0.932
11337W        W81937  33.140   2.886   1.685
11338W        W81938  41.065  16.791  14.944
11339W        W81939  38.522  26.935   2.304
11340W        W81940  33.516  28.256  10.666
11341W        W81941  18.550   8.820  13.523
11342W        W81942  16.230  37.593  10.520
11343W        W81943  44.707  10.752   1.741
11344W        W81944  15.355  28.967  11.675
11345W        W81945  15.282  27.988   0.859
11346W        W81946  24.986  35.890  13.456
11347W        W81947  38.570  36.807   4.134
11348W        W81948  23.519  23.718  11.704
11349W        W81949  43.374   1.688   2.216
11350W        W81950   6.793   1.721   0.319
11351W        W81951  31.847  26.817  14.924
11352W        W81952  34.397  43.745   2.797
11353W        W81953  17.180  29.747   2.797
11354W        W81954  30.589   1.234   0.252
11355W        W81955   5.304  16.109  13.744
11356W        W81956  31.827  42.391   1.350
11357W        W81957  23.446  24.178   2.429
11358W        W81958  15.006  19.549  11.869
11359W        W81959   6.835  28.025   4.239
11360W        W81960   6.344  22.451  14.321
11361W        W81961  38.493   8.307   2.864
11362W        W81962  26.981   2.374   3.776
11363W        W81963  42.459  33.906  14.787
11364W        W81964  19.595  14.476   5.081
11365W        W81965  39.758   1.856  10.785
11366W        W81966  41.019  27.188   3.719
11367W        W81967   0.731  41.340  11.165
11368W        W81968  12.065  26.061  11.217
11369W        W81969   5.870   7.209   2.560
11370W        W81970  17.635  19.635   3.151
11371W        W81971  34.628  11.170   4.782
11372W        W81972   5.436   7.599   1.649
11373W        W81973  18.341  39.400  11.111
11374W        W81974  24.733  27.963  12.096
11375W        W81975  24.567  30.992   3.835
11376W        W81976  36.022  24.074  14.445
11377W        W81977   2.137  14.259   1.140
11378W        W81978  38.837   8.728   4.980
11379W        W81979  26.184  24.624   4.229
11380W        W81980   0.878  40.422  11.133
11381W        W81981  21.198  33.814   2.100
11382W        W81982   3.013  25.310  12.593
11383W        W81983  42.853   0.221   4.264
11384W        W81984   4.442  29.503  14.723
11385W        W81985   4.157  42.570   0.827
11386W        W81986  42.216  10.648  12.497
11387W        W81987   6.820  32.929   3.374
11388W        W81988  42.208  18.070  13.104
11389W        W81989  34.454  34.806   2.187
11390W        W81990   7.395  35.557   3.672
11391W        W81991  13.172   5.005   4.579
11392W        W81992  13.540  26.369  11.724
11393W        W81993  43.808  29.418  12.953
11394W        W81994  28.303   9.445   0.883
11395W        W81995  40.236  28.113  14.503
11396W        W81996  12.124  15.718   3.210
11397W        W81997  12.233  13.407   2.409
11398W        W81998  25.077  39.956  14.406
11399W        W81999  20.564  35.917   0.580
11400W        W82000  18.129  39.156   0.200
11401W        W82001   9.313  12.370   2.210
11402W        W82002  12.832  13.535  12.690
11403W        W82003   8.103  40.727  13.590
11404W        W82004  27.096  18.146  12.461
11405W        W82005   5.967  35.816  11.279
11406W        W82006  30.521  25.181  12.591
11407W        W82007   3.830   7.559   0.214
11408W        W82008  37.364  16.304   0.290
11409W        W82009   2.882  18.717  12.632
11410W        W82010   5.809   1.203   1.977
11411W        W82011  21.820  12.910  11.450
11412W        W82012   8.719  12.400  13.869
11413W        W82013  29.944   6.913  10.634
11414W        W82014  29.905  38.804   3.213
11415W        W82015  18.362   0.285  12.179
11416W        W82016   7.049  36.476   2.773
11417W        W82017  28.083  17.808  13.794
11418W        W82018   0.782   6.462   2.769
11419W        W82019  43.846  26.025   2.644
11420W        W82020  30.408  10.904   1.392
11421W        W82021   1.327   9.620  12.443
11422W        W82022  37.798  14.127  14.430
11423W        W82023  40.853  17.572   1.681
11424W        W82024  37.441  35.142   3.625
11425W        W82025   1.347   0.638  11.896
11426W        W82026  43.298   3.010   2.664
11427W        W82027  28.788  21.069  14.842
11428W        W82028  30.697  11.319  10.451
11429W        W82029  13.142  26.650  10.724
11430W        W82030  12.199  13.535   1.400
11431W        W82031  27.819   8.171   4.082
11432W        W82032  20.266  20.032   1.289
11433W        W82033  21.234  18.814   0.198
11434W        W82034  35.954   5.973  10.977
11435W        W82035  25.910  43.474   2.866
11436W        W82036  35.646  24.717   3.008
11437W        W82037   8.438  19.116  13.841
11438W        W82038   0.737  43.281   1.938
11439W        W82039  43.780  26.202  14.865
11440W        W82040  11.799  21.761   1.273
11441W        W82041  29.955   1.948  10.867
11442W        W82042  16.615   2.868   2.416
11443W        W82043  24.327  37.583   9.841
11444W        W82044  42.015  30.883  13.922
11445W        W82045   3.841  10.792  14.143
11446W        W82046  43.670  27.898  11.111
11447W        W82047  26.477  20.272   3.270
11448W        W82048  30.826  16.213  11.498
11449W        W82049  42.443  36.374   2.378
11450W        W82050   2.714   8.751   1.381
11451W        W82051  33.430   4.207  12.527
11452W        W82052  33.505  28.204  14.418
11453W        W82053  18.531  27.057   0.892
11454W        W82054  24.695  40.363   1.872
11455W        W82055  11.197  41.073  13.429
11456W        W82056  28.256  37.718   3.105
11457W        W82057   0.704  17.918  12.514
11458W        W82058   6.407  13.183  13.688
11459W        W82059  31.946  40.925  14.996
11460W        W82060  20.748  29.091  11.046
11461W        W82061   3.277  11.749   2.996
11462W        W82062  20.203   8.625   0.027
11463W        W82063  42.972   9.447  11.104
11464W        W82064  26.761  30.406  14.413
11465W        W82065   7.310  36.636  14.687
11466W        W82066  12.897  17.606  12.957
11467W        W82067  40.416   2.486   4.838
11468W        W82068  21.362   6.770   1.653
11469W        W82069  26.228  23.473   0.874
11470W        W82070  21.799  28.989   0.760
11471W        W82071   4.518   0.032  14.451
11472W        W82072   0.486  25.117   0.483
11473W        W82073   5.456  38.523   3.178
11474W        W82074  32.953  14.331   1.938
11475W        W82075  44.873  30.897  13.941
11476W        W82076  42.471  33.502   0.213
11477W        W82077  10.829   4.788   2.182
11478W        W82078  18.799  40.934   4.248
11479W        W82079  38.629  38.365   2.108
11480W        W82080  34.178  12.326  12.976
11481W        W82081  13.344  25.892  14.368
11482W        W82082  25.724  14.553   0.250
11483W        W82083  41.727  27.616   4.569
11484W        W82084  43.780  21.544  13.562
11485W        W82085   9.633   2.477   0.430
11486W        W82086  42.666   4.360   3.658
11487W        W82087  15.305  10.944   1.128
11488W        W82088  40.408  15.844  13.042
11489W        W82089  33.004   7.156  13.464
11490W        W82090  40.980   6.383   0.840
11491W        W82091  24.044  18.767  10.613
11492W        W82092  12.761  23.300   4.945
11493W        W82093   6.465  37.462  13.773
11494W        W82094  37.387  21.927   4.966
11495W        W82095  19.701  20.934   3.234
11496W        W82096  41.287  10.143  14.586
11497W        W82097  13.183  24.606  14.160
11498W        W82098  43.084  21.593   4.532
11499W        W82099  41.935  31.697   1.668
11500W        W82100  34.554   6.294   1.265
11501W        W82101  13.708  25.173  10.735
11502W        W82102  15.324  28.601  10.717
11503W        W82103  27.948  17.129   2.384
11504W        W82104  41.835  14.863   2.426
11505W        W82105  16.757  24.030  10.457
11506W        W82106   7.337  27.370  13.019
11507W        W82107  11.116  30.064   0.816
11508W        W82108  40.528  16.579  13.552
11509W        W82109   0.285   8.234   4.648
11510W        W82110   7.651   7.515   2.570
11511W        W82111  33.445  12.959  14.786
11512W        W82112  18.188   4.185   0.888
11513W        W82113  36.523  34.362  13.421
11514W        W82114   3.148  39.150   4.946
11515W        W82115  39.119  35.030   2.338
11516W        W82116  35.367   1.427  13.314
11517W        W82117  17.318   5.015   5.076
11518W        W82118  18.490   8.807   1.392
11519W        W82119  10.253  44.836   0.419
11520W        W82120  43.825  27.385   2.223
11521W        W82121   9.452  29.098   2.819
11522W        W82122  43.342  10.103   2.768
11523W        W82123   2.339  43.368   0.265
11524W        W82124   4.932   2.777  11.255
11525W        W82125   9.453   2.295  11.306
11526W        W82126  11.260  40.964   1.706
11527W        W82127  14.983  17.647   1.412
11528W        W82128   7.205  14.100  13.277
11529W        W82129  17.216  32.355  12.881
11530W        W82130   5.719  39.937   0.214
11531W        W82131  41.236  22.202  13.861
11532W        W82132   4.473   2.258   3.658
11533W        W82133  22.035  42.896   4.280
11534W        W82134  20.175  29.699  12.330
11535W        W82135  22.577   9.535   0.897
11536W        W82136  33.993  29.131  13.501
11537W        W82137  23.147  28.707  13.432
11538W        W82138  36.328  43.232  12.081
11539W        W82139   0.902  35.137   2.772
11540W        W82140  22.760  19.750  12.383
11541W        W82141  28.502   0.822  11.524
11542W        W82142  10.534  39.409  14.113
11543W        W82143  29.844  15.712   4.068
11544W        W82144  17.394  31.360  13.047
11545W        W82145  28.158   8.242  14.025
11546W        W82146  32.332  28.353   4.158
11547W        W82147  35.010  28.066   1.026
11548W        W82148  23.233  42.758   1.811
11549W        W82149  43.499  32.926   4.305
11550W        W82150   0.200  25.194  11.377
11551W        W82151  39.845  32.975  14.570
11552W        W82152   8.988   6.754   1.471
11553W        W82153  44.488   3.116   0.756
11554W        W82154  35.873  23.645   0.292
11555W        W82155   0.873  11.781   0.267
11556W        W82156   5.685  17.696   4.155
11557W        W82157  43.919  31.703   2.668
11558W        W82158  33.513  44.822   5.322
11559W        W82159   1.350  14.666   3.402
11560W        W82160  24.191  17.397   1.230
11561W        W82161  19.296   5.826   3.648
11562W        W82162  18.240  14.186  11.451
11563W        W82163  16.299  11.231   0.020
11564W        W82164  27.544  25.922   0.782
11565W        W82165  28.989   0.566   0.701
11566W        W82166  14.160  39.542  14.934
11567W        W82167  40.120  20.843   4.583
11568W        W82168  29.647  32.016  10.262
11569W        W82169  24.235  28.951   1.344
11570W        W82170  24.997  19.082  10.746
11571W        W82171  38.533   3.656  14.380
11572W        W82172  15.249  42.290   3.824
11573W        W82173  18.381  37.831   0.489
11574W        W82174  15.154  32.605  14.313
11575W        W82175   6.159   8.749  14.040
11576W        W82176  28.676   9.818  10.692
11577W        W82177  38.109  14.841  10.784
11578W        W82178  23.232  22.790   4.154
11579W        W82179  25.157  38.140   2.284
11580W        W82180  30.335  38.237   5.317
11581W        W82181  21.982  31.715   0.975
11582W        W82182  43.689  16.137   2.325
11583W        W82183  36.634  32.455   4.625
11584W        W82184  37.829  31.566  13.472
11585W        W82185  32.605  17.430  10.444
11586W        W82186  24.391  16.337  10.583
11587W        W82187  15.229   9.184  14.484
11588W        W82188   0.498  37.643  10.435
11589W        W82189   7.307  23.951   4.030
11590W        W82190  30.074  23.237   4.180
11591W        W82191  41.344  25.981  11.013
11592W        W82192  27.162   0.873  12.143
11593W        W82193  39.706  10.632   2.320
11594W        W82194   8.705  38.256  11.206
11595W        W82195  30.985  30.443  11.967
11596W        W82196   7.661  25.221   4.160
11597W        W82197  14.064  20.028   1.932
11598W        W82198  28.465  20.768   1.710
11599W        W82199   0.207   6.474  14.561
11600W        W82200  36.038  31.171  14.057
11601W        W82201  26.823  21.340  10.305
11602W        W82202  22.573  26.204  14.506
11603W        W82203  29.562  11.134  12.852
11604W        W82204  30.458  20.095  13.110
11605W        W82205  36.492  38.049   0.456
11606W        W82206  21.004  11.448  13.530
11607W        W82207  28.162  10.257   2.356
11608W        W82208  43.368  19.462  11.673
11609W        W82209   2.218  29.103  14.030
11610W        W82210  32.395  21.882  13.204
11611W        W82211  18.719   8.980   3.304
11612W        W82212  39.949   3.436  10.579
11613W        W82213  18.802  23.922   4.132
11614W        W82214  35.617  13.908   2.725
11615W        W82215  10.724  27.873   2.188
11616W        W82216   1.493  44.333  11.118
11617W        W82217   3.385  38.358   1.479
11618W        W82218  36.449  19.129  12.608
11619W        W82219  39.405  33.179  14.982
11620W        W82220  38.666  21.460  13.395
11621W        W82221  25.883  11.057   2.767
11622W        W82222  18.759  43.360   0.417
11623W        W82223   3.669  23.907   0.825
11624W        W82224  27.384  25.184  11.076
11625W        W82225  38.616  15.274  14.280
11626W        W82226  31.526  26.689   9.885
11627W        W82227   0.945  35.121   1.869
11628W        W82228   5.880   8.835   4.100
11629W        W82229  35.135  25.244  13.393
11630W        W82230   5.614  25.951  12.073
11631W        W82231   6.958  38.028   3.540
11632W        W82232  32.538  21.693   1.086
11633W        W82233  26.594   4.280   2.960
11634W        W82234  15.048  15.202  12.099
11635W        W82235  36.538  40.957   1.541
11636W        W82236  32.001  24.129   2.662
11637W        W82237   2.364  27.522  10.746
11638W        W82238  11.852  36.654  14.511
11639W        W82239  38.760  31.873   3.141
11640W        W82240   2.279   9.112   2.679
11641W        W82241  22.958   7.432  14.316
11642W        W82242  12.204   4.488   1.252
11643W        W82243  21.827  29.739  11.126
11644W        W82244  13.462   5.294  11.105
11645W        W82245   1.479  19.582   5.004
11646W        W82246  37.336  25.571   0.258
11647W        W82247  11.020  43.796   4.490
11648W        W82248  11.678   7.269  12.938
11649W        W82249  35.754   4.017   4.160
11650W        W82250   6.966  30.288   1.828
11651W        W82251   7.218  37.849   2.563
11652W        W82252  26.305   4.904  14.333
11653W        W82253  42.100  14.370   4.133
11654W        W82254  40.203  41.029  13.145
11655W        W82255   1.756   3.215   1.856
11656W        W82256  36.988   1.805  13.741
11657W        W82257  11.360   0.442   1.863
11658W        W82258   0.527   8.249  10.789
11659W        W82259  20.757  44.465   0.486
11660W        W82260  44.955   6.251   5.107
11661W        W82261  33.382  36.046  12.073
11662W        W82262  23.739  12.699   0.375
11663W        W82263  37.516  18.717   0.967
11664W        W82264  12.076  24.118  14.976
11665W        W82265  40.959  17.370  13.584
11666W        W82266   2.924   5.190  11.195
11667W        W82267  29.200  35.662  12.590
11668W        W82268  41.061  16.827   2.682
11669W        W82269  41.789  30.235  11.177
11670W        W82270   6.945   7.837  14.879
11671W        W82271  29.613   4.477   3.138
11672W        W82272  15.123  18.762  11.951
11673W        W82273   8.396  44.024   1.927
11674W        W82274  29.085  36.523   1.303
11675W        W82275  35.831  31.421  10.630
11676W        W82276   5.177  38.942   2.221
11677W        W82277  15.075  19.463   0.266
11678W        W82278  28.321   7.706   3.551
11679W        W82279  16.201   8.690   1.140
11680W        W82280  10.712  32.351   3.455
11681W        W82281  19.498   3.260  12.541
11682W        W82282  22.686  36.400  12.401
11683W        W82283  40.886  29.252   3.430
11684W        W82284  14.714  41.207  12.359
11685W        W82285  17.721   6.286   4.918
11686W        W82286  16.565  39.550  11.629
11687W        W82287   9.797  33.587   3.845
11688W        W82288  42.341  16.686  13.307
11689W        W82289  43.554   6.672   1.738
11690W        W82290  34.652  33.055  11.685
11691W        W82291  41.799   0.625   3.537
11692W        W82292   3.351  12.059   2.148
11693W        W82293  30.500   8.668   3.750
11694W        W82294  41.556  28.040  14.963
11695W        W82295  12.289   0.703  13.036
11696W        W82296  15.259  38.132   1.169
11697W        W82297  44.029  17.048   1.965
11698W        W82298   5.939  25.514   3.155
11699W        W82299   3.387  34.183  14.858
11700W        W82300  40.588  28.619  13.779
11701W        W82301  41.506  36.962  11.456
11702W        W82302  11.876   9.221  10.657
11703W        W82303  42.705   9.928  11.186
11704W        W82304  30.837   8.376  11.672
11705W        W82305  29.083  12.813   0.243
11706W        W82306   4.781  39.353   2.944
11707W        W82307   3.426  34.955   4.194
11708W        W82308  36.589  34.586   1.430
11709W        W82309  23.931  36.454  11.164
11710W        W82310  11.833   1.768  11.494
11711W        W82311  16.536  25.734   2.789
11712W        W82312  15.158  20.987   0.978
11713W        W82313  38.888  37.547   3.673
11714W        W82314  39.204  12.644  11.614
11715W        W82315   2.394  19.030   2.310
11716W        W82316  41.280   5.999   3.765
11717W        W82317   0.315  24.122   4.748
11718W        W82318   1.854  27.493   3.285
11719W        W82319  37.581   8.336   2.380
11720W        W82320  27.922   9.677   4.120
11721W        W82321  44.443  44.922  10.879
11722W        W82322  42.410  18.246  12.673
11723W        W82323   5.496  17.511   3.542
11724W        W82324  13.313   1.430   0.568
11725W        W82325   6.316  42.872  10.995
11726W        W82326   4.386  11.000  10.627
11727W        W82327  10.963  16.627   4.200
11728W        W82328  31.024  26.985  11.449
11729W        W82329   3.655  39.398  13.026
11730W        W82330  43.037  18.470   3.067
11731W        W82331  23.956  18.011  14.236
11732W        W82332  39.555  20.648  13.787
11733W        W82333  38.227  16.328  12.854
11734W        W82334  26.363  13.717   5.178
11735W        W82335   2.808  24.214  12.953
11736W        W82336  20.053   1.766  13.376
11737W        W82337  24.558   9.226  11.977
11738W        W82338  42.950  24.122  14.950
11739W        W82339  39.041   4.615   1.381
11740W        W82340   8.662  15.634   4.675
11741W        W82341  36.011  41.969   0.289
11742W        W82342   4.404  43.259   4.235
11743W        W82343  14.289  35.536  14.688
11744W        W82344  36.827  38.731  13.547
11745W        W82345  27.577   8.338  11.873
11746W        W82346  21.086   6.853  13.045
11747W        W82347  14.889  19.567  13.016
11748W        W82348  36.630  12.985   2.300
11749W        W82349  28.170   2.015  11.186
11750W        W82350  29.990   5.861  10.720
11751W        W82351  35.980  34.053   4.087
11752W        W82352  30.493  32.409  14.452
11753W        W82353  38.700  18.852  12.998
11754W        W82354  42.425   5.719  12.538
11755W        W82355  41.758   1.055  12.917
11756W        W82356  25.952  37.644   3.214
11757W        W82357  23.164  13.533   0.331
11758W        W82358  28.518   4.611   4.653
11759W        W82359   6.276  11.071   3.670
11760W        W82360   7.305  12.014  14.024
11761W        W82361   6.515   3.942   3.749
11762W        W82362  44.978  16.278   0.910
11763W        W82363  11.057  28.135  12.027
11764W        W82364   0.207  12.403  13.150
11765W        W82365  10.006  23.325   1.658
11766W        W82366  42.385  36.164   1.188
11767W        W82367  30.742  33.541  12.804
11768W        W82368  23.626   8.406   2.709
11769W        W82369  41.450  24.660  13.566
11770W        W82370  26.053   0.709   2.497
11771W        W82371  39.942  19.499  12.391
11772W        W82372  12.289   1.946   3.118
11773W        W82373  27.001  12.303   4.300
11774W        W82374  32.921  23.099  11.288
11775W        W82375  25.056   3.850   3.176
11776W        W82376   1.004  18.505   0.393
11777W        W82377   4.756  39.039   4.424
11778W        W82378  38.978  37.539  13.950
11779W        W82379  37.050  39.776   0.374
11780W        W82380  18.166  21.857   1.502
11781W        W82381  26.645   3.639  13.879
11782W        W82382  39.987  25.575   4.641
11783W        W82383  16.718   4.766   4.807
11784W        W82384  26.854  17.136   0.204
11785W        W82385  44.083  41.902  14.990
11786W        W82386  22.309   1.204  13.422
11787W        W82387   8.938   6.908  12.909
11788W        W82388  29.514  37.012   4.489
11789W        W82389  17.740   2.654  13.933
11790W        W82390  14.293   0.233   1.916
11791W        W82391  19.291  35.944   2.735
11792W        W82392  26.208  40.472  11.740
11793W        W82393  14.754  24.935  14.311
11794W        W82394  35.305   6.299  13.190
11795W        W82395  13.655   2.807  12.143
11796W        W82396  17.145  35.879   0.494
11797W        W82397  17.058  27.465  14.348
11798W        W82398   4.477  21.667   2.729
11799W        W82399  11.762  30.661   1.692
11800W        W82400  24.853   7.303  11.157
11801W        W82401   4.441  29.224  11.896
11802W        W82402   8.498  33.130  12.829
11803W        W82403  38.690   0.748  10.721
11804W        W82404  18.773  41.890  13.344
11805W        W82405  38.368   9.312   4.438
11806W        W82406  38.862   7.154   0.753
11807W        W82407  29.511  26.043  13.916
11808W        W82408  38.426  13.098  10.671
11809W        W82409   7.180  27.548  14.701
11810W        W82410  25.785  43.836  14.559
11811W        W82411  24.008  19.069  11.029
11812W        W82412  36.548  28.727  12.070
11813W        W82413  17.857   0.237  12.234
11814W        W82414  40.353  28.806   2.952
11815W        W82415  42.286  38.456  13.523
11816W        W82416   2.239  38.063  13.485
11817W        W82417   7.162  15.070  12.522
11818W        W82418   1.732  39.512  13.897
11819W        W82419   7.575  22.967  12.251
11820W        W82420  44.816  37.314  12.286
11821W        W82421  33.452  31.675  10.621
11822W        W82422  20.733  35.173  12.464
11823W        W82423  24.662   4.737   3.276
11824W        W82424  15.053  39.040   0.855
11825W        W82425  44.216  43.518  13.450
11826W        W82426   8.180  10.765   1.852
11827W        W82427  25.889  17.852  12.058
11828W        W82428  37.321  26.352  14.856
11829W        W82429  30.660  16.519   0.359
11830W        W82430  17.193  22.595   2.418
11831W        W82431  19.611   3.004  13.399
11832W        W82432  36.332  12.637   3.156
11833W        W82433   3.221  40.528   3.680
11834W        W82434  11.805  32.415  14.257
11835W        W82435  36.495   7.446  12.466
11836W        W82436  20.740   7.223  10.980
11837W        W82437  40.086  44.224   0.209
11838W        W82438  19.983  17.176  11.122
11839W        W82439  30.702  38.899  14.882
11840W        W82440  43.835  12.277  14.481
11841W        W82441  32.005  13.197  14.261
11842W        W82442   0.790  23.578   3.936
11843W        W82443  19.604  38.104   1.761
11844W        W82444  21.537  43.402  10.431
11845W        W82445  30.410  32.072   0.394
11846W        W82446   6.969  10.212  11.618
11847W        W82447  44.675  21.307   4.089
11848W        W82448  17.235  18.543  11.637
11849W        W82449  10.428  41.944   4.156
11850W        W82450  30.614  36.844   1.049
11851W        W82451  37.827  41.302   1.148
11852W        W82452  26.248   6.396  13.237
11853W        W82453   5.913  24.713   2.977
11854W        W82454  22.298  31.971  11.459
11855W        W82455   0.417   4.168  11.527
11856W        W82456  38.857   8.355   4.590
11857W        W82457  42.925  43.433   4.499
11858W        W82458   8.598  24.064   4.228
11859W        W82459  28.708  33.847  13.576
11860W        W82460   5.844  18.428  13.744
11861W        W82461  23.987   3.600  11.543
11862W        W82462  42.934  25.156  12.889
11863W        W82463  25.297  35.065   0.775
11864W        W82464  27.928  22.181  13.922
11865W        W82465  29.934  32.518  13.786
11866W        W82466  44.917  20.872   3.913
11867W        W82467  15.267  40.039  13.914
11868W        W82468  27.071  20.525  13.941
11869W        W82469  19.179  20.832  10.089
11870W        W82470   9.269  16.755   3.575
11871W        W82471   7.588  37.265  11.263
11872W        W82472  30.609  33.692  10.661
11873W        W82473  43.248  39.840  14.110
11874W        W82474   5.955  20.340   3.792
11875W        W82475  35.392  41.526   0.817
11876W        W82476  38.693  12.054  10.287
11877W        W82477  35.303  22.222   3.274
11878W        W82478  35.298   4.244  11.268
11879W        W82479  23.772  17.034  12.624
11880W        W82480  23.243   4.859   4.704
11881W        W82481  31.020  20.586   0.934
11882W        W82482  25.159  15.542   0.925
11883W        W82483  10.573   3.894   4.660
11884W        W82484  29.421  16.123  13.039
11885W        W82485  18.175   2.686   4.567
11886W        W82486  32.181  19.802  14.794
11887W        W82487  17.055  21.130  10.932
11888W        W82488  24.924  39.332  12.835
11889W        W82489  40.037  31.087   0.690
11890W        W82490  21.658  15.630  13.493
11891W        W82491   8.693   6.390  10.648
11892W        W82492  12.714  12.323  14.805
11893W        W82493   1.287  25.950  14.280
11894W        W82494  27.659  41.133  13.852
11895W        W82495  43.016   2.707  12.016
11896W        W82496  43.924  31.895  13.746
11897W        W82497  42.277  14.311  13.063
11898W        W82498   8.825  31.543   1.685
11899W        W82499   4.838  12.952  11.118
11900W        W82500  16.768  22.232  14.744
11901W        W82501  24.720  42.057  10.906
11902W        W82502   4.046  19.494  12.477
11903W        W82503  15.750   7.629   4.619
11904W        W82504  18.024  34.597  11.939
11905W        W82505   2.132  38.962  12.011
11906W        W82506  11.208  42.076   4.435
11907W        W82507  25.928  14.400  14.388
11908W        W82508  31.457  40.908   0.782
11909W        W82509   2.905   2.344  13.821
11910W        W82510   1.982  13.832   1.825
11911W        W82511  32.001  20.872   4.478
11912W        W82512  29.129  38.459  14.855
11913W        W82513  17.641  20.171  14.441
11914W        W82514  16.975  20.122  12.827
11915W        W82515  29.483  23.074  14.895
11916W        W82516   7.921  35.649  10.335
11917W        W82517  10.911  19.718   3.979
11918W        W82518  44.434  12.410  11.107
11919W        W82519   8.024   6.088   2.732
11920W        W82520  22.957  32.986   2.397
11921W        W82521  10.259   7.424   1.755
11922W        W82522  15.923  12.245   2.103
11923W        W82523   8.593  35.670  13.056
11924W        W82524  12.336  18.057  14.968
11925W        W82525  36.170  20.247   3.053
11926W        W82526   1.683  23.791  10.821
11927W        W82527  24.410  21.707  12.784
11928W        W82528   1.431  13.181  11.935
11929W        W82529  24.034  38.831   0.345
11930W        W82530   4.910  12.554   4.640
11931W        W82531  12.790  25.194  10.595
11932W        W82532   0.034   5.274   1.235
11933W        W82533  40.506  43.650  11.979
11934W        W82534  27.453   5.107   3.680
11935W        W82535   4.228  39.757  12.037
11936W        W82536   9.773  17.270   0.426
11937W        W82537  29.441  39.803  13.881
11938W        W82538  21.600  26.441   2.408
11939W        W82539  26.564   4.397   2.471
11940W        W82540  25.096   0.125  14.436
11941W        W82541  19.769  16.999  11.554
11942W        W82542  28.226  16.748   4.216
11943W        W82543   4.746   2.835  13.625
11944W        W82544  36.037  13.178  12.050
11945W        W82545   6.308  35.098   1.710
11946W        W82546   1.988   1.850  11.988
11947W        W82547  12.641   5.720  14.184
11948W        W82548  18.471   5.342   4.263
11949W        W82549  32.502  33.090  10.757
11950W        W82550  11.639  10.087  14.669
11951W        W82551  35.494  19.763  14.915
11952W        W82552  35.854  15.853  11.621
11953W        W82553  22.945  17.515  13.490
11954W        W82554   8.119  15.176   0.784
11955W        W82555  12.733  19.733   4.079
11956W        W82556  30.405   3.737  10.694
11957W        W82557  13.594  22.732   4.182
11958W        W82558  23.329   2.710  11.291
11959W        W82559   9.163  23.062  14.067
11960W        W82560  14.175  17.569  14.305
11961W        W82561  34.003  15.151  14.991
11962W        W82562  42.401   4.668  12.489
11963W        W82563  18.100  26.179   1.244
11964W        W82564   9.302  37.067   2.147
11965W        W82565  32.192  36.940   2.860
11966W        W82566  13.114  20.639  11.241
11967W        W82567  14.653   7.295   1.324
11968W        W82568  12.417  31.778   0.294
11969W        W82569  17.747  38.766  13.833
11970W        W82570  25.973  33.236  11.764
11971W        W82571  31.475  30.634   3.735
11972W        W82572   1.737   0.671   2.385
11973W        W82573   6.253  43.976   1.376
11974W        W82574  36.528  18.411   4.054
11975W        W82575  35.399   7.304   4.386
11976W        W82576  21.622  38.517  11.059
11977W        W82577   0.336  34.849   3.638
11978W        W82578  42.897  25.202  11.902
11979W        W82579  15.094  32.039   1.304
11980W        W82580  20.121   0.008   4.925
11981W        W82581  16.300  14.120  13.085
11982W        W82582  39.051  43.325  12.056
11983W        W82583  16.695  10.965   2.851
11984W        W82584  29.673  28.514   2.005
11985W        W82585  44.561  24.338  13.922
11986W        W82586   1.236  20.720   4.109
11987W        W82587  16.693  37.375  10.485
11988W        W82588   1.218  26.692   1.293
11989W        W82589   3.252  31.987  10.405
11990W        W82590  35.356  42.334   0.219
11991W        W82591   1.339  14.735  13.909
11992W        W82592   4.703  34.888   1.251
11993W        W82593  32.617  13.828   1.727
11994W        W82594   2.768  21.182  11.690
11995W        W82595  34.524   2.716  10.627
11996W        W82596  18.942  35.965  10.810
11997W        W82597  15.713   1.942  13.295
11998W        W82598  44.914  35.274  14.797
11999W        W82599  41.241  14.627   4.066
12000W        W82600  13.117   5.812  11.670
12001W        W82601   2.406   7.832  11.686
12002W        W82602  30.147  34.767  14.825
12003W        W82603   5.809  12.143  14.802
12004W        W82604  33.966  42.731   4.201
12005W        W82605  27.906  14.749  13.533
12006W        W82606  19.598  41.891   0.493
12007W        W82607   0.231  35.515   3.124
12008W        W82608  11.377  10.269   3.351
12009W        W82609  21.536   8.784  13.006
12010W        W82610  25.562  35.492   0.767
12011W        W82611   2.093  13.321  13.360
12012W        W82612   9.953  36.584   3.758
12013W        W82613   3.660  36.936   1.598
12014W        W82614  44.959  30.331  10.776
12015W        W82615  21.304  32.159  13.428
12016W        W82616   5.180  11.586  12.370
12017W        W82617  35.758  34.750   4.497
12018W        W82618  43.777  38.584  12.083
12019W        W82619  37.406   8.587  13.991
12020W        W82620  44.253   0.828   2.418
12021W        W82621  44.740  31.030   4.762
12022W        W82622  36.092  40.516   3.673
12023W        W82623  33.420  16.195   0.266
12024W        W82624  44.303  15.168   1.300
12025W        W82625  14.232  23.262   2.605
12026W        W82626  27.700   9.628  12.318
12027W        W82627  23.500  32.038  10.862
12028W        W82628  34.788  42.906   4.650
12029W        W82629   3.680  11.180  14.446
12030W        W82630  29.530  39.439  14.234
12031W        W82631  44.289  21.500   1.168
12032W        W82632  23.416  33.799   1.901
12033W        W82633  11.855  37.691  10.882
12034W        W82634  37.121  36.295   4.137
12035W        W82635  38.814  12.707   4.384
12036W        W82636   1.366  14.114  11.940
12037W        W82637  29.920  18.963  12.045
12038W        W82638  34.004  26.911  12.315
12039W        W82639  42.010  41.619  10.481
12040W        W82640  27.006   9.022  12.322
12041W        W82641  11.610   3.806  12.012
12042W        W82642  44.553  40.485  14.330
12043W        W82643  12.222  25.189  12.812
12044W        W82644   7.917   0.074   2.244
12045W        W82645   1.976  29.516  12.420
12046W        W82646  21.082  17.588  12.612
12047W        W82647  34.617  12.132   1.857
12048W        W82648  19.056   4.403  13.637
12049W        W82649  14.164  17.626  11.034
12050W        W82650  29.955  23.752  12.008
12051W        W82651   9.383  19.495  13.793
12052W        W82652   1.808  38.300   0.713
12053W        W82653   8.430  42.083   3.243
12054W        W82654  36.483  32.835   3.224
12055W        W82655   7.776  36.053  14.751
12056W        W82656  15.128  36.119   4.984
12057W        W82657  23.548  16.737  10.751
12058W        W82658  10.854  43.737  13.274
12059W        W82659  36.158   8.315   1.189
12060W        W82660   2.349   3.292  12.042
12061W        W82661  13.438  23.398  13.428
12062W        W82662  16.527   8.881  13.831
12063W        W82663  10.851  38.451   3.995
12064W        W82664   6.104   6.928   1.597
12065W        W82665  36.900  19.729   4.716
12066W        W82666   7.350  34.325   0.170
12067W        W82667  30.871  42.302   2.713
12068W        W82668  16.087  24.543   4.543
12069W        W82669  22.877  21.946  13.882
12070W        W82670  31.182  30.119   0.187
12071W        W82671  26.572  39.416   2.461
12072W        W82672  35.723  44.787   3.184
12073W        W82673   3.702  19.666  13.038
12074W        W82674  42.463  23.586  13.883
12075W        W82675  40.600  16.335  11.810
12076W        W82676  24.999  26.118   4.113
12077W        W82677  34.205  35.909   1.684
12078W        W82678  30.878  40.155  14.076
12079W        W82679  38.015  39.280   2.290
12080W        W82680  37.376  22.923   4.688
12081W        W82681  17.743  20.469  13.948
12082W        W82682  35.602  20.229  13.090
12083W        W82683  19.860   1.852  11.924
12084W        W82684  12.526  38.384   2.236
12085W        W82685  27.606   6.137   0.620
12086W        W82686   6.157  33.208  10.191
12087W        W82687  32.866  25.886  10.545
12088W        W82688  24.937  32.555  13.375
12089W        W82689  25.531  40.897  12.480
12090W        W82690  31.826  44.508  13.055
12091W        W82691  10.207   0.554   2.007
12092W        W82692   1.201  22.757   3.747
12093W        W82693   7.729  36.380   4.561
12094W        W82694   5.049  33.409   4.225
12095W        W82695  13.712   6.266   2.329
12096W        W82696  24.265   2.894  13.509
12097W        W82697  11.617  43.082   2.532
12098W        W82698  11.691  21.224  11.050
12099W        W82699   7.357  11.683   0.704
12100W        W82700  16.856  28.089  12.005
12101W        W82701  10.536  32.522  12.049
12102W        W82702  21.016  15.784   2.078
12103W        W82703  32.823  19.771  11.376
12104W        W82704  17.021  26.453  14.634
12105W        W82705   9.024  34.851   1.606
12106W        W82706  16.127  37.231   5.082
12107W        W82707  21.030   6.344   1.686
12108W        W82708  41.714  10.885   4.227
12109W        W82709  39.967  26.449   2.019
12110W        W82710  20.233  31.584   0.842
12111W        W82711  16.108  29.214   3.188
12112W        W82712  13.842   4.588   3.122
12113W        W82713  22.134  17.141   0.591
12114W        W82714   6.517  10.480   9.835
12115W        W82715   4.975  31.338  10.502
12116W        W82716   6.422  19.139   3.741
12117W        W82717   3.161  12.188   0.669
12118W        W82718  43.530  38.408  11.664
12119W        W82719   0.388  19.037  14.769
12120W        W82720  40.811  20.713   3.588
12121W        W82721   1.148  38.647  13.261
12122W        W82722  38.487  12.265   1.014
12123W        W82723  33.651  26.948   0.352
12124W        W82724   9.872  33.094  13.605
12125W        W82725  17.290  34.861  12.465
12126W        W82726   3.374   6.165   3.782
12127W        W82727  41.598   2.173  14.914
12128W        W82728   0.282  26.112   2.880
12129W        W82729  19.761  29.472  10.530
12130W        W82730  43.660  17.538  14.854
12131W        W82731  29.244  12.922  13.012
12132W        W82732  43.580  43.321   0.958
12133W        W82733   6.753  38.787   3.134
12134W        W82734  32.035   2.421  13.529
12135W        W82735   8.639   0.929   4.193
12136W        W82736   1.252   0.778  13.235
12137W        W82737  18.498  18.498  14.952
12138W        W82738  15.699   8.458   0.585
12139W        W82739  33.484  43.479  13.808
12140W        W82740  11.828  43.098   3.908
12141W        W82741  36.118  17.576  11.208
12142W        W82742  36.542  43.254   2.813
12143W        W82743  20.125  42.395  14.388
12144W        W82744  40.882  42.595   3.994
12145W        W82745   0.256  14.132   3.596
12146W        W82746  40.337  42.916  11.003
12147W        W82747  44.698  44.390  10.612
12148W        W82748  44.903  20.164  13.487
12149W        W82749  25.561  35.686  14.109
12150W        W82750   7.748  39.051  10.715
12151W        W82751  31.656  31.334   0.891
12152W        W82752  39.308   2.159  14.774
12153W        W82753  19.548   5.441  11.113
12154W        W82754  40.083  40.085  11.605
12155W        W82755  16.184  41.907  11.089
12156W        W82756  28.477  23.433   3.823
12157W        W82757  22.718  38.988  10.237
12158W        W82758  20.855  42.982   3.701
12159W        W82759  19.557  22.640  14.606
12160W        W82760   8.285   6.212   1.379
12161W        W82761   3.218  12.803   1.416
12162W        W82762  35.055  38.588  14.054
12163W        W82763  10.256   3.866   3.780
12164W        W82764  24.567  12.272   0.979
12165W        W82765  34.815  43.969   0.970
12166W        W82766   9.595  12.482  14.127
12167W        W82767  39.525  44.915   0.477
12168W        W82768   3.483  33.614   2.351
12169W        W82769  43.881  27.998   2.969
12170W        W82770  26.658  24.987  10.373
12171W        W82771  11.874   4.920   2.199
12172W        W82772   1.393  15.283   4.756
12173W        W82773  12.513  33.271   3.148
12174W        W82774  37.925  37.885  12.405
12175W        W82775  31.704   0.442  11.631
12176W        W82776  15.156   7.690   3.320
12177W        W82777  29.854  11.269   0.880
12178W        W82778  44.998  17.777  11.118
12179W        W82779   0.672  35.572  11.073
12180W        W82780  39.818  11.615   1.424
12181W        W82781  10.746   9.608   4.182
12182W        W82782   2.955  38.788   2.107
12183W        W82783   6.712   1.734   3.823
12184W        W82784  33.743   1.785  11.126
12185W        W82785   5.648   5.734  10.925
12186W        W82786  40.643  32.654   2.721
12187W        W82787  11.741   2.686   0.694
12188W        W82788  13.263  42.455  12.602
12189W        W82789  15.053   8.777   3.374
12190W        W82790  20.806  24.249   2.880
12191W        W82791  20.392  11.828  11.071
12192W        W82792  26.818  28.136   0.274
12193W        W82793  34.010  11.995  14.786
12194W        W82794  13.547   6.406  12.136
12195W        W82795   0.333  38.530  11.513
12196W        W82796  17.611  16.301  13.986
12197W        W82797  24.176  39.540  12.113
12198W        W82798  29.414  38.878   3.322
12199W        W82799  38.893  23.729   1.601
12200W        W82800  21.870  37.331  14.550
12201W        W82801  15.906   7.835   2.027
12202W        W82802  18.132  34.609  13.940
12203W        W82803   5.243  18.741  12.910
12204W        W82804   6.736  42.337  13.800
12205W        W82805  10.562  39.817  11.390
12206W        W82806   2.808  31.449   3.709
12207W        W82807   9.290  26.670   3.766
12208W        W82808  28.031  10.694  10.394
12209W        W82809  14.638   1.825  12.421
12210W        W82810  21.665  21.652   0.435
12211W        W82811  33.775  18.051  11.637
12212W        W82812  25.856  18.362  12.105
12213W        W82813  26.980   2.173  10.484
12214W        W82814   1.042  19.141  14.949
12215W        W82815  35.092   1.493   3.202
12216W        W82816  19.629  20.247   0.503
12217W        W82817  38.608   9.852  11.593
12218W        W82818  35.065   2.091   2.366
12219W        W82819  29.858  21.153   3.319
12220W        W82820   9.795  37.511  10.933
12221W        W82821  25.692  22.372  13.529
12222W        W82822  39.750  42.341   4.705
12223W        W82823   2.792  27.693  14.992
12224W        W82824  38.944  25.735   2.850
12225W        W82825   7.747  37.320   1.231
12226W        W82826  15.652  12.373   2.960
12227W        W82827  24.023  43.668  14.371
12228W        W82828   6.892  10.688   2.988
12229W        W82829  25.161  19.230   2.228
12230W        W82830   8.446   3.727  11.404
12231W        W82831  11.613  20.258   0.005
12232W        W82832  27.639  15.588   1.277
12233W        W82833  31.536  22.090   2.205
12234W        W82834  17.149   8.802   2.354
12235W        W82835  11.612  31.972  11.292
12236W        W82836   3.479  17.548   1.220
12237W        W82837  20.128  25.064  10.689
12238W        W82838   4.761  35.076  11.526
12239W        W82839   4.549  11.030   4.034
12240W        W82840  43.241  41.332  14.004
12241W        W82841  14.774   7.797  13.061
12242W        W82842  16.044  28.529   4.513
12243W        W82843  29.264   0.411  14.800
12244W        W82844  23.493  21.061   0.414
12245W        W82845  37.891  17.293   0.838
12246W        W82846  13.858  17.422  13.291
12247W        W82847  44.242   6.319   4.055
12248W        W82848  30.749  21.019  10.058
12249W        W82849   2.702   9.655   2.937
12250W        W82850   1.863  34.641  14.272
12251W        W82851  22.283  18.123   3.339
12252W        W82852   2.623  40.306  12.567
12253W        W82853  41.916  18.440  13.516
12254W        W82854  39.931  24.116   1.086
12255W        W82855  43.899   5.917  10.303
12256W        W82856  11.235   1.419  11.685
12257W        W82857  15.274  30.493   2.088
12258W        W82858   6.956  11.193  11.119
12259W        W82859  42.350   8.469   2.652
12260W        W82860   7.434   4.895   0.732
12261W        W82861  25.798   3.224   0.887
12262W        W82862  22.623  43.810  12.164
12263W        W82863  33.071  14.599  13.839
12264W        W82864  44.933  27.877  11.603
12265W        W82865  35.336   9.385  13.886
12266W        W82866  18.751  24.010  14.421
12267W        W82867  30.845  41.978   0.779
12268W        W82868  15.945  32.930   3.463
12269W        W82869  44.528  44.232   0.809
12270W        W82870  17.151  24.265  10.705
12271W        W82871  28.671  24.327  11.927
12272W        W82872  35.184  40.471   0.126
12273W        W82873  34.852   1.871  12.801
12274W        W82874  15.832  37.056  12.938
12275W        W82875  16.352  13.566  14.543
12276W        W82876  42.631  20.610   0.600
12277W        W82877  26.395  42.855  13.036
12278W        W82878  30.956   6.274   2.212
12279W        W82879  15.591  29.201  10.740
12280W        W82880   6.454  35.920   2.163
12281W        W82881   6.872   6.246  11.670
12282W        W82882  42.055  19.236   0.400
12283W        W82883  17.615  31.542  11.068
12284W        W82884  23.596   0.266  12.303
12285W        W82885  34.036  39.432   4.662
12286W        W82886  37.891  33.104   0.694
12287W        W82887  32.525  22.573  11.588
12288W        W82888  22.199  26.748  12.719
12289W        W82889  24.224  37.503   0.848
12290W        W82890  15.024  22.547  14.299
12291W        W82891  29.472  12.491  11.281
12292W        W82892  18.493  12.609   0.404
12293W        W82893   8.471  38.179  11.678
12294W        W82894  12.636   6.929  13.624
12295W        W82895  30.471  20.720   2.918
12296W        W82896  12.188  33.492   1.318
12297W        W82897  25.993  42.455  14.504
12298W        W82898  24.861  23.820  11.491
12299W        W82899  21.069  42.474   1.437
12300W        W82900   7.560  22.358   4.932
12301W        W82901  43.054  36.378   4.401
12302W        W82902  20.982  21.354   3.542
12303W        W82903  41.318  43.907   1.746
12304W        W82904  17.525   3.164  13.053
12305W        W82905  26.519   5.753   2.754
12306W        W82906  27.413  39.986  13.134
12307W        W82907  13.824  11.199   0.560
12308W        W82908   8.299   3.140   2.784
12309W        W82909  26.188  33.931  13.530
12310W        W82910  17.721  38.879   2.672
12311W        W82911  36.335  20.670   1.154
12312W        W82912  28.433  41.847   2.419
12313W        W82913  35.946  26.106   4.312
12314W        W82914  18.079  22.590   0.780
12315W        W82915  41.341  39.073  11.963
12316W        W82916  32.418  18.171   0.457
12317W        W82917  38.134  14.100   1.144
12318W        W82918   3.752   0.524  14.987
12319W        W82919   7.122  11.425  11.578
12320W        W82920  14.413  35.903  11.074
12321W        W82921  21.301  43.671  12.819
12322W        W82922  14.843  24.024   2.756
12323W        W82923  36.194  30.479   0.292
12324W        W82924   7.339  33.165  12.082
12325W        W82925   3.361  29.225   3.854
12326W        W82926  18.926  12.530   4.209
12327W        W82927  44.974  41.000   0.286
12328W        W82928  17.199   4.364  12.250
12329W        W82929   1.247  25.597   1.979
12330W        W82930  37.413  36.065   2.642
12331W        W82931  42.986  15.051   4.244
12332W        W82932  18.182  38.951   3.235
12333W        W82933   7.248  13.234  12.669
12334W        W82934  27.946  29.814   2.924
12335W        W82935   9.396   7.180  11.254
12336W        W82936  26.403   3.732  13.417
12337W        W82937  37.950  35.308   2.731
12338W        W82938  13.837  21.857  13.378
12339W        W82939  43.791  36.132   2.348
12340W        W82940   2.013  17.282  11.567
12341W        W82941   4.794  32.642   5.538
12342W        W82942  34.961  13.131   2.657
12343W        W82943   1.840  22.302  13.387
12344W        W82944   4.119  21.197   1.311
12345W        W82945  12.870  19.592  10.829
12346W        W82946  35.729  17.167  12.140
12347W        W82947  12.224  40.527  13.955
12348W        W82948  42.848  25.567   4.646
12349W        W82949  13.385  29.797   0.447
12350W        W82950  20.006   3.075   2.278
12351W        W82951  19.919  15.583  14.858
12352W        W82952  10.145   0.641  11.806
12353W        W82953  15.074  27.363   3.084
12354W        W82954  25.138  11.989  12.516
12355W        W82955  33.166  17.991  13.488
12356W        W82956  23.185   0.065  10.259
12357W        W82957  38.834  36.478  14.573
12358W        W82958  26.059  28.070  12.953
12359W        W82959   7.914  30.068   1.243
12360W        W82960  32.412  24.915   4.269
12361W        W82961  28.433  36.377   4.571
12362W        W82962  22.026   3.809   3.333
12363W        W82963  38.391  25.418  11.941
12364W        W82964  21.125  36.949  14.919
12365W        W82965  11.104   3.249  14.922
12366W        W82966  11.575  33.966   2.369
12367W        W82967   5.816   6.116   1.724
12368W        W82968  34.416  35.198   1.814
12369W        W82969  21.784   4.283   1.387
12370W        W82970  15.077  10.526  12.879
12371W        W82971  37.149  31.683   4.177
12372W        W82972  34.516  37.329   3.331
12373W        W82973  42.811  38.418   0.134
12374W        W82974  21.077  28.204   0.183
12375W        W82975  20.169   8.478   2.309
12376W        W82976   1.860  30.625   2.578
12377W        W82977  12.137  34.939  11.995
12378W        W82978  27.404  34.379  12.093
12379W        W82979  17.637  29.503  10.454
12380W        W82980  16.990  17.828   1.930
12381W        W82981  14.235   4.297   3.758
12382W        W82982  41.000   5.397   3.684
12383W        W82983  24.553   4.565   1.909
12384W        W82984  17.165  24.992   4.113
12385W        W82985  33.649  21.111   4.993
12386W        W82986  19.664  18.222  13.308
12387W        W82987  30.552  39.261   3.187
12388W        W82988  25.936  24.726  13.310
12389W        W82989  37.297  15.730  14.464
12390W        W82990   2.752   1.893  13.563
12391W        W82991  41.527  35.979  14.278
12392W        W82992  39.313  26.926  14.436
12393W        W82993  14.543  20.461  12.041
12394W        W82994   2.296   5.201   1.510
12395W        W82995  10.123  44.806  11.866
12396W        W82996  10.153   6.191   3.287
12397W        W82997   1.820   4.658   2.684
12398W        W82998  16.665   3.449  11.205
12399W        W82999   8.378   5.054   0.760
12400W        W83000  36.126  41.372   0.373
12401W        W83001  43.787  39.374   0.252
12402W        W83002  31.699  12.606  13.872
12403W        W83003  23.178  36.352   1.770
12404W        W83004   4.881   8.430   0.429
12405W        W83005  15.025  38.989  14.936
12406W        W83006  16.164  22.015  13.578
12407W        W83007  28.654  19.468   2.745
12408W        W83008  35.280  35.295  13.765
12409W        W83009  24.027  25.361  11.500
12410W        W83010  44.940  24.302  14.299
12411W        W83011   0.463  36.671   2.424
12412W        W83012  41.263  33.530   1.674
12413W        W83013  30.065  41.655  10.327
12414W        W83014  13.456  42.753   2.515
12415W        W83015  17.011  38.552  11.683
12416W        W83016  32.059   4.716  14.644
12417W        W83017  18.220  37.304   0.608
12418W        W83018  30.890  43.508   0.351
12419W        W83019  23.933  23.046  11.876
12420W        W83020  23.217  16.723  14.518
12421W        W83021  24.715  38.505   1.489
12422W        W83022  20.998   1.002   4.116
12423W        W83023  16.139  21.952   2.873
12424W        W83024  43.495  21.974  11.974
12425W        W83025  43.999  17.656   4.560
12426W        W83026   6.699  12.932   0.237
12427W        W83027  30.460  37.770   4.172
12428W        W83028  18.808  41.028   0.928
12429W        W83029  17.758   3.442   3.691
12430W        W83030  23.754  32.292  14.598
12431W        W83031  39.982  40.285   4.481
12432W        W83032   6.350  27.631   4.365
12433W        W83033  41.874  17.911  13.499
12434W        W83034  27.778  20.280  13.514
12435W        W83035   0.361  35.467  14.042
12436W        W83036  34.951  12.621   2.686
12437W        W83037  16.145  17.401   4.180
12438W        W83038  42.663  14.812   0.999
12439W        W83039   8.632  37.979   4.807
12440W        W83040  43.327   8.672   3.078
12441W        W83041  13.831  17.253   3.111
12442W        W83042  24.694  39.298  14.899
12443W        W83043   6.395  29.258  13.000
12444W        W83044  26.172   2.052   4.589
12445W        W83045  11.615  35.240   5.084
12446W        W83046  20.294  21.142  10.528
12447W        W83047  15.136   0.343  10.535
12448W        W83048  24.362  33.625  13.230
12449W        W83049   6.758   6.953  13.821
12450W        W83050  38.337  42.455  14.314
12451W        W83051  29.113   3.013   1.804
12452W        W83052  17.352  29.070   3.816
12453W        W83053  24.479   4.731  10.726
12454W        W83054  10.138  30.688   4.544
12455W        W83055  20.257  33.628  13.040
12456W        W83056   0.017  16.464   0.402
12457W        W83057  28.482  25.515  12.389
12458W        W83058  43.029  38.839   0.570
12459W        W83059  10.416  13.156  14.833
12460W        W83060  27.993   5.423   1.391
12461W        W83061  14.885  24.663   1.383
12462W        W83062   4.956  13.856   4.187
12463W        W83063  36.767  36.864  12.319
12464W        W83064  33.498  42.570   3.825
12465W        W83065   7.829  26.449  14.197
12466W        W83066   4.486  43.770  13.835
12467W        W83067  14.860  44.781  13.874
12468W        W83068  20.207  42.409  10.939
12469W        W83069   1.352   4.827  10.592
12470W        W83070  10.735   1.140   1.272
12471W        W83071  40.553  33.327   0.915
12472W        W83072   8.130  30.698   0.028
12473W        W83073  12.847   5.750   2.697
12474W        W83074  14.109  26.768  11.083
12475W        W83075  36.546   4.198  10.707
12476W        W83076  13.584  23.195   3.860
12477W        W83077  23.962  31.785  10.921
12478W        W83078   1.176   3.530  13.054
12479W        W83079  39.875   5.473   1.825
12480W        W83080   4.814   0.405   0.916
12481W        W83081   5.103  21.179  11.540
12482W        W83082  35.015  37.152  12.094
12483W        W83083  23.348  12.765   0.708
12484W        W83084  43.899   5.414  14.412
12485W        W83085  18.469  26.037  13.568
12486W        W83086   1.032  20.141   0.767
12487W        W83087  21.214   0.359  11.235
12488W        W83088  15.279  25.645   0.354
12489W        W83089   5.639  41.628  10.933
12490W        W83090   6.360  28.562  11.090
12491W        W83091  27.142  34.597   0.917
12492W        W83092  13.880  41.522   0.848
12493W        W83093  24.231   5.401  14.422
12494W        W83094   6.373  19.090   1.370
12495W        W83095   2.309  16.531   2.842
12496W        W83096  24.692  17.334  10.621
12497W        W83097   7.143  14.150   3.919
12498W        W83098  34.898   9.939  14.516
12499W        W83099   2.976  39.021  11.587
12500W        W83100  36.222  34.934   0.654
12501W        W83101  10.628  33.459   4.160
12502W        W83102  30.621  26.854  11.177
12503W        W83103   9.203   7.553  14.706
12504W        W83104  17.383   5.952   4.104
12505W        W83105  15.701  36.612   3.081
12506W        W83106   9.964  15.800   4.152
12507W        W83107  44.315  37.112  12.399
12508W        W83108  39.297  14.338  11.405
12509W        W83109  20.624   8.310   0.936
12510W        W83110   3.454  30.920  13.383
12511W        W83111   4.407   8.245   4.644
12512W        W83112  36.908  28.428   1.266
12513W        W83113  22.979  42.627  10.539
12514W        W83114  15.124  28.741   1.260
12515W        W83115  40.056  25.431   0.371
12516W        W83116  15.604   5.833  11.207
12517W        W83117   8.571   2.793   1.745
12518W        W83118  14.612   3.488  14.926
12519W        W83119  24.973  12.171   3.205
12520W        W83120  14.632   6.258   2.232
12521W        W83121  23.071  27.793   0.788
12522W        W83122  31.643   9.267   0.759
12523W        W83123  34.881  11.322  12.129
12524W        W83124  44.798  20.679  11.606
12525W        W83125  40.197  12.091   0.320
12526W        W83126   5.628  33.830   1.817
12527W        W83127  32.891  31.708  12.399
12528W        W83128  21.025  13.188   1.794
12529W        W83129   9.035  39.503  13.155
12530W        W83130  40.050  25.733  12.432
12531W        W83131  44.249   4.306  13.757
12532W        W83132   8.428  40.763   1.256
12533W        W83133  33.996   4.967   1.857
12534W        W83134   2.537  41.973   2.627
12535W        W83135   9.127   7.852  13.837
12536W        W83136  13.622   5.789  11.583
12537W        W83137  16.888  41.816  11.628
12538W        W83138  37.915  20.470   1.222
12539W        W83139  37.319  36.751  14.916
12540W        W83140   1.124  39.143   0.084
12541W        W83141  10.314  22.959   3.329
12542W        W83142   3.149  13.877   0.484
12543W        W83143  20.633   0.152   4.924
12544W        W83144  20.542   2.434   0.547
12545W        W83145  39.778  34.528   2.922
12546W        W83146  34.283  36.359   0.918
12547W        W83147  35.773  40.114   0.094
12548W        W83148  19.783  37.288  14.247
12549W        W83149  33.187   4.400   4.270
12550W        W83150  38.684   0.897   3.996
12551W        W83151  30.102  19.313   1.357
12552W        W83152  43.394  44.900  12.482
12553W        W83153   8.195  43.498  13.884
12554W        W83154  10.390  35.848   1.251
12555W        W83155  36.916  15.035  10.365
12556W        W83156  16.172   8.861   2.622
12557W        W83157   8.397  43.760  14.326
12558W        W83158  14.280  44.711   5.023
12559W        W83159  22.852   7.330  13.819
12560W        W83160  37.914  22.040   0.488
12561W        W83161  18.732  19.764  10.329
12562W        W83162  16.176  24.066   2.975
12563W        W83163   3.496  20.738   3.306
12564W        W83164  41.680  44.221  14.497
12565W        W83165  20.288  16.486  13.447
12566W        W83166   4.037  18.095  13.342
12567W        W83167   5.051   0.781   2.704
12568W        W83168   1.287  34.359  14.750
12569W        W83169  31.687  25.571  12.954
12570W        W83170   4.176  19.488   4.131
12571W        W83171  38.797   8.676   0.431
12572W        W83172  30.231   8.097   3.173
12573W        W83173  43.945   0.677   4.256
12574W        W83174   1.452  32.912   0.580
12575W        W83175  26.780   3.016   4.497
12576W        W83176  34.665  24.115  12.586
12577W        W83177  36.496  29.370  11.229
12578W        W83178  14.912  26.983  13.306
12579W        W83179  35.992  22.103   0.044
12580W        W83180  43.730  31.905   0.866
12581W        W83181  37.336  34.568   2.404
12582W        W83182   5.326  31.460   2.380
12583W        W83183   5.936  42.864   0.956
12584W        W83184  18.712  23.277   1.092
12585W        W83185  11.143  44.944   1.443
12586W        W83186  43.235  22.653   3.066
12587W        W83187  43.455  20.952  13.843
12588W        W83188  37.595  17.236  10.781
12589W        W83189  32.413  43.227  14.515
12590W        W83190  29.738  28.433   2.523
12591W        W83191  28.385  11.695   2.257
12592W        W83192   0.489  25.135  10.570
12593W        W83193  29.998  26.365  14.880
12594W        W83194  27.928   7.369  14.539
12595W        W83195  33.947  21.971   0.475
12596W        W83196  11.698  15.532   0.505
12597W        W83197  28.008  17.059  14.263
12598W        W83198  35.253  27.704  11.208
12599W        W83199  31.815  33.159  10.764
12600W        W83200  33.431  40.856  11.931
12601W        W83201  23.591   0.746  12.102
12602W        W83202  28.078   6.503  11.938
12603W        W83203   2.387  32.652   4.056
12604W        W83204   5.859  38.060  14.065
12605W        W83205  18.167   5.265   2.391
12606W        W83206  37.818   2.971   0.279
12607W        W83207  21.797  14.380  11.496
12608W        W83208   0.232  30.089  12.381
12609W        W83209   1.194  43.469   1.767
12610W        W83210  24.935   9.229   0.677
12611W        W83211   9.536   6.704  13.591
12612W        W83212   5.473  22.539  12.381
12613W        W83213  16.927  25.937  13.505
12614W        W83214  31.907   3.357   0.220
12615W        W83215   1.233   2.376  12.358
12616W        W83216  27.334  39.862  13.632
12617W        W83217   5.994   6.398   1.321
12618W        W83218  13.604  27.935  12.405
12619W        W83219  32.420  38.302   0.005
12620W        W83220  23.533  15.631  11.437
12621W        W83221  20.889  24.163  13.198
12622W        W83222  32.196  29.432  10.612
12623W        W83223  22.248   5.472  11.120
12624W        W83224   4.263  25.511   4.172
12625W        W83225   0.527  16.857   2.524
12626W        W83226  13.749   9.813   4.101
12627W        W83227   2.348  28.468   2.744
12628W        W83228  21.168  34.969  12.317
12629W        W83229  20.713  41.727   1.402
12630W        W83230  25.217  42.509   2.019
12631W        W83231   5.669  42.838   3.213
12632W        W83232   2.970   1.040   0.380
12633W        W83233  21.186   3.543  13.977
12634W        W83234   3.537  33.141  13.737
12635W        W83235  12.336  29.088   3.714
12636W        W83236  13.970  44.923   3.610
12637W        W83237  18.139  33.913   2.500
12638W        W83238  37.880  36.730   1.645
12639W        W83239  35.915   6.120   4.600
12640W        W83240  10.597  41.832   3.162
12641W        W83241  18.542  43.861  11.108
12642W        W83242   6.800   7.464   1.441
12643W        W83243  39.351  23.574   4.631
12644W        W83244  28.205  12.243  11.493
12645W        W83245  44.494  29.665   0.835
12646W        W83246   5.931  13.296   3.321
12647W        W83247  31.943  43.170  11.520
12648W        W83248  34.430  10.619  11.909
12649W        W83249  36.571  37.287   5.123
12650W        W83250  37.364  44.651  11.629
12651W        W83251   7.594  43.456  12.031
12652W        W83252   2.905  32.897  11.113
12653W        W83253  43.198  34.417   2.812
12654W        W83254  29.153  12.808  11.028
12655W        W83255   9.314   1.196   3.186
12656W        W83256  29.620  25.291   1.277
12657W        W83257  10.870  13.197   4.208
12658W        W83258  11.584  15.561   1.321
12659W        W83259  30.169  42.493   1.806
12660W        W83260  21.968   1.680  13.480
12661W        W83261  16.586  18.689   3.013
12662W        W83262  16.332  38.918   1.277
12663W        W83263  12.025  18.757   4.100
12664W        W83264  11.405   5.453  11.088
12665W        W83265  19.773  37.911   3.155
12666W        W83266  26.021  28.529  13.197
12667W        W83267  26.740   8.829  11.895
12668W        W83268  11.117   2.958  13.820
12669W        W83269  40.412  17.205  11.593
12670W        W83270  28.558   4.875   4.204
12671W        W83271  36.393   0.202   2.825
12672W        W83272  37.535  37.118   1.706
12673W        W83273  42.710  28.441   2.248
12674W        W83274   6.167  12.128  11.937
12675W        W83275  12.589   5.565  13.604
12676W        W83276  19.214   6.906   4.612
12677W        W83277   5.465  15.745  11.665
12678W        W83278  35.527   1.752   3.605
12679W        W83279  31.354  12.482  10.018
12680W        W83280  44.810   8.709   2.127
12681W        W83281  12.857  34.588  11.894
12682W        W83282   4.165  34.368   0.760
12683W        W83283   8.300  33.535  13.847
12684W        W83284   1.268  13.640  11.216
12685W        W83285  27.215  23.591   0.022
12686W        W83286  34.679  21.061   5.076
12687W        W83287  38.096  32.820  12.438
12688W        W83288  13.846  29.230  12.531
12689W        W83289   4.967  35.443  13.963
12690W        W83290  29.463  22.730   5.121
12691W        W83291  30.194  14.820  10.738
12692W        W83292  40.955  29.678  12.984
12693W        W83293  10.138  38.930  12.577
12694W        W83294  33.386   4.902   0.998
12695W        W83295  21.308  38.798   1.248
12696W        W83296  42.834  44.448   2.195
12697W        W83297  32.177   2.525  11.452
12698W        W83298  35.635  24.035  14.910
12699W        W83299   6.825  19.503   3.198
12700W        W83300  15.814  15.894   4.554
12701W        W83301  39.980   4.055  13.550
12702W        W83302  17.060   3.718  12.884
12703W        W83303  28.705   3.501  11.460
12704W        W83304  21.987  14.686   3.251
12705W        W83305  25.079  27.580  12.124
12706W        W83306   0.819   3.026   1.471
12707W        W83307   3.861   2.911   1.189
12708W        W83308  15.854  17.604   1.251
12709W        W83309  24.744  25.452   3.176
12710W        W83310  44.445  24.397   1.049
12711W        W83311  10.421   5.686  14.767
12712W        W83312  21.775  27.962  14.837
12713W        W83313  28.945  21.107  13.031
12714W        W83314  26.092   1.806  14.717
12715W        W83315  14.249  30.822   2.281
12716W        W83316  21.806  32.591   0.961
12717W        W83317  19.135  44.019   1.269
12718W        W83318  24.916  25.037  14.682
12719W        W83319  23.726  29.506  10.946
12720W        W83320   2.792  35.587  11.468
12721W        W83321  20.267  44.463   0.724
12722W        W83322  34.831  17.131   4.538
12723W        W83323  39.994  41.265  13.576
12724W        W83324  37.838  16.285  11.534
12725W        W83325  18.572   7.507   2.289
12726W        W83326  35.435  24.033   0.982
12727W        W83327  16.734   0.853  14.568
12728W        W83328   2.740   9.310   2.560
12729W        W83329   4.211  31.078  14.927
12730W        W83330  33.805  27.000  10.968
12731W        W83331  19.263  10.950   0.926
12732W        W83332   7.653  21.625   3.286
12733W        W83333  25.110  20.560   0.213
12734W        W83334  39.572  19.134  12.431
12735W        W83335  19.555  29.599   2.032
12736W        W83336  33.075  28.927   1.248
12737W        W83337  44.914  31.387   2.747
12738W        W83338   1.170  19.218   1.809
12739W        W83339  11.707  43.223   1.509
12740W        W83340  26.075  31.713  11.087
12741W        W83341   9.373  17.820  14.715
12742W        W83342  17.216   0.951  14.342
12743W        W83343   4.968  37.984  12.070
12744W        W83344  16.824  29.039  11.578
12745W        W83345   9.816  33.661  12.030
12746W        W83346   8.195   0.967  14.311
12747W        W83347  15.774  24.963   3.168
12748W        W83348  44.239  42.660   2.874
12749W        W83349  17.240  14.514   3.545
12750W        W83350  14.794  39.989   1.433
12751W        W83351   1.591  44.867  12.856
12752W        W83352  18.620  20.016  13.081
12753W        W83353   0.196  39.954   0.304
12754W        W83354  22.497  44.844  14.247
12755W        W83355  11.581   3.164  13.486
12756W        W83356   3.738  11.847  14.759
12757W        W83357  18.753  38.052   3.296
12758W        W83358  28.228   9.847  13.158
12759W        W83359  25.000   2.310  12.176
12760W        W83360  31.922  19.077   0.423
12761W        W83361  36.447  10.177  14.000
12762W        W83362  23.498   1.100  13.817
12763W        W83363   2.325  24.121   0.511
12764W        W83364   9.837  15.314   0.401
12765W        W83365  35.920  39.895  13.435
12766W        W83366  41.872   9.596  12.865
12767W        W83367  28.300  25.891   4.300
12768W        W83368  43.721   1.272   4.051
12769W        W83369  23.000   6.890  12.000
12770W        W83370  19.603   4.513   0.944
12771W        W83371  43.404   8.798   1.606
12772W        W83372  18.318  28.081  11.919
12773W        W83373   1.450  25.867  10.703
12774W        W83374   9.930  35.507  13.921
12775W        W83375  38.561   2.460   2.911
12776W        W83376  15.381  20.716  13.512
12777W        W83377   8.807  28.345   3.189
12778W        W83378  12.287  11.778   3.855
12779W        W83379   8.930  27.499   2.099
12780W        W83380  24.059  43.698  11.478
12781W        W83381   0.260  14.941  12.057
12782W        W83382  26.917  33.351   0.380
12783W        W83383   3.903   9.214   2.393
12784W        W83384  18.708  24.467   4.912
12785W        W83385  16.042  22.708   4.201
12786W        W83386  33.008  43.062  13.891
12787W        W83387  28.019  14.855   1.398
12788W        W83388   3.685   9.131  12.465
12789W        W83389  25.696   7.125   2.321
12790W        W83390  41.897  21.278  13.560
12791W        W83391   9.792  34.561   2.871
12792W        W83392  41.972  11.195   2.640
12793W        W83393  23.702  15.631   4.262
12794W        W83394  33.189  39.964  13.939
12795W        W83395   4.952   5.258  11.218
12796W        W83396  31.728  29.906  11.153
12797W        W83397  37.720  14.710  13.976
12798W        W83398  19.314  34.224   5.077
12799W        W83399  15.469  42.448   3.252
12800W        W83400   9.299  18.646  10.592
12801W        W83401  41.802  23.999   3.632
12802W        W83402  17.851   4.845   0.882
12803W        W83403  36.251  28.242  11.315
12804W        W83404  38.271   0.223   1.907
12805W        W83405  19.404  15.969   0.955
12806W        W83406  14.530  11.110   0.498
12807W        W83407  29.786  22.543   0.295
12808W        W83408  29.884  18.071   2.749
12809W        W83409  22.565  29.042  11.642
12810W        W83410  18.150  25.536   3.200
12811W        W83411  12.031   0.938   4.172
12812W        W83412  40.291  18.303  12.986
12813W        W83413   0.888  15.413  13.500
12814W        W83414  40.268  39.465  10.561
12815W        W83415   7.493   1.305  10.725
12816W        W83416  14.364   9.822  13.456
12817W        W83417  37.369  42.343   1.811
12818W        W83418  41.511  20.800  14.053
12819W        W83419  20.159  25.774  13.496
12820W        W83420  17.692  18.071   2.688
12821W        W83421   5.010  37.116  14.572
12822W        W83422   3.115  25.673   0.177
12823W        W83423  33.507   5.831   3.980
12824W        W83424  13.860  25.303   2.257
12825W        W83425   9.113  18.854  14.399
12826W        W83426   2.210  40.719   1.342
12827W        W83427  28.565  33.990  10.923
12828W        W83428  26.486   2.396   3.606
12829W        W83429  43.805  23.961  14.983
12830W        W83430  27.732   7.934   2.787
12831W        W83431   6.108  37.009   2.137
12832W        W83432   8.030  42.019  10.726
12833W        W83433  24.933  14.793   1.300
12834W        W83434  40.074  31.027   3.326
12835W        W83435  19.736  16.022  14.611
12836W        W83436  17.858  13.045   2.144
12837W        W83437  14.613  35.071  13.909
12838W        W83438  34.334  14.539   0.872
12839W        W83439  23.229  25.262   1.372
12840W        W83440  33.917  27.084   1.856
12841W        W83441  10.859  21.986   2.409
12842W        W83442  21.089  10.950  13.544
12843W        W83443  34.985  40.449  12.429
12844W        W83444  28.675  30.064   1.392
12845W        W83445  10.032  27.911   0.489
12846W        W83446  28.947   8.852  13.333
12847W        W83447  40.053  23.818  13.886
12848W        W83448  28.865  11.620  14.419
12849W        W83449  15.349  11.766   1.656
12850W        W83450  18.298  30.893  14.588
12851W        W83451  34.038  14.039  10.663
12852W        W83452  11.456  12.964   2.758
12853W        W83453  35.026   1.300   4.151
12854W        W83454  32.071  37.877  10.664
12855W        W83455  24.880  14.215   4.621
12856W        W83456  27.783   9.806   2.702
12857W        W83457   9.232   6.913   2.745
12858W        W83458   1.819   4.914   4.515
12859W        W83459  20.985  44.956  14.481
12860W        W83460  11.862  23.709  12.113
12861W        W83461  13.005   9.908  11.949
12862W        W83462  29.597  10.705   2.315
12863W        W83463  16.845  19.063   3.231
12864W        W83464   0.392  22.937  14.503
12865W        W83465  40.980   1.866   4.563
12866W        W83466  35.440  41.274  13.424
12867W        W83467   8.246  24.315   1.663
12868W        W83468   7.380  30.827   4.980
12869W        W83469  20.576  16.852  12.932
12870W        W83470  19.894   6.715  11.166
12871W        W83471   9.337  44.993   0.263
12872W        W83472  14.007  14.393   1.092
12873W        W83473  38.900  30.043   1.990
12874W        W83474  18.517  41.291   2.344
12875W        W83475  39.972  42.853  13.426
12876W        W83476   6.235  10.250   4.527
12877W        W83477   0.302  13.129   4.077
12878W        W83478  29.189  36.164  12.815
12879W        W83479  37.617  32.450  13.897
12880W        W83480   3.485  16.425   3.089
12881W        W83481   3.747  30.912  13.988
12882W        W83482  28.375   9.703  11.984
12883W        W83483  31.370  23.415  14.770
12884W        W83484   7.141   1.494  12.458
12885W        W83485  33.857  42.311   2.716
12886W        W83486   3.170  40.863  11.248
12887W        W83487  14.025  40.845   9.847
12888W        W83488   9.809  19.289   4.713
12889W        W83489  20.712   7.721  11.556
12890W        W83490  35.936  20.209  13.518
12891W        W83491   3.178  34.507   2.260
12892W        W83492  24.379  30.590   4.611
12893W        W83493  10.263  12.095   3.152
12894W        W83494  36.666   2.780   2.833
12895W        W83495  21.664  20.229  10.737
12896W        W83496  41.289  33.423  14.720
12897W        W83497  22.357  43.504  13.740
12898W        W83498   6.291  37.815  11.547
12899W        W83499  39.670   6.204  13.431
12900W        W83500  18.249  41.143   3.179
12901W        W83501   2.686  32.989  14.893
12902W        W83502   8.240  23.974   0.391
12903W        W83503   5.739  14.243   4.530
12904W        W83504  40.533  12.809  11.629
12905W        W83505   0.442  25.654  11.490
12906W        W83506  14.576   3.414   0.956
12907W        W83507  42.804  27.934  10.646
12908W        W83508  25.283   0.808  13.487
12909W        W83509  11.330  37.570   2.662
12910W        W83510   0.715  31.147   2.283
12911W        W83511  37.516  43.286   5.009
12912W        W83512  37.911  16.888   1.692
12913W        W83513  10.305  44.766  10.753
12914W        W83514  42.323  17.869   0.642
12915W        W83515  15.569  30.120  10.423
12916W        W83516  31.802  15.852  14.165
12917W        W83517   6.655  16.698  12.083
12918W        W83518   9.095  17.158  12.464
12919W        W83519   5.880   1.675   3.250
12920W        W83520  13.158  33.427  12.957
12921W        W83521  11.174  31.625  12.279
12922W        W83522  41.403  39.232  10.895
12923W        W83523   7.975  44.349   1.875
12924W        W83524  20.101   5.631  13.995
12925W        W83525   8.224  34.021  13.471
12926W        W83526  23.057  35.444   0.856
12927W        W83527  32.020  16.288  13.928
12928W        W83528   2.642   3.178  14.700
12929W        W83529  42.209  25.961   0.667
12930W        W83530  36.894  11.596  11.856
12931W        W83531   5.181  34.983   3.185
12932W        W83532  20.360   7.152   4.671
12933W        W83533  37.959   2.457   0.253
12934W        W83534  19.569  10.180  13.493
12935W        W83535  30.855   2.055   0.781
12936W        W83536  28.232   7.756  14.233
12937W        W83537   6.354   2.683   3.886
12938W        W83538  30.997  33.565   0.850
12939W        W83539  34.469  33.813  14.417
12940W        W83540  42.854  35.672  14.043
12941W        W83541  28.943   8.926  13.952
12942W        W83542  30.180  41.019   3.491
12943W        W83543   7.853  44.685   4.561
12944W        W83544  25.598  13.215   3.690
12945W        W83545   9.760   8.879  14.604
12946W        W83546  20.174  20.560  13.834
12947W        W83547  37.045  43.766  10.620
12948W        W83548  25.112  30.050  11.889
12949W        W83549  11.918  44.878   3.260
12950W        W83550  41.533   3.308  10.708
12951W        W83551   8.663  35.119  10.892
12952W        W83552  29.728  28.949   2.251
12953W        W83553  13.281  38.517   2.734
12954W        W83554  34.071  28.472  12.033
12955W        W83555  36.594  39.960   2.089
12956W        W83556   0.611  15.318  12.033
12957W        W83557  29.667  15.051  11.478
12958W        W83558  22.512  18.276   3.817
12959W        W83559  15.664  26.682   4.640
12960W        W83560  38.624  16.816  12.021
12961W        W83561  19.569  32.935  13.420
12962W        W83562  20.978  30.619  14.918
12963W        W83563  31.472  37.326   3.400
12964W        W83564  28.984  22.041  11.197
12965W        W83565  33.885  25.480   1.383
12966W        W83566  41.912  26.687   2.215
12967W        W83567  38.576   7.796   0.509
12968W        W83568  19.253  39.243  14.341
12969W        W83569  39.999  26.948   1.818
12970W        W83570  38.948  18.133  14.383
12971W        W83571   3.457  44.969   0.575
12972W        W83572   8.608  18.646   0.441
12973W        W83573  16.289  15.328   1.623
12974W        W83574  25.589  27.861  11.009
12975W        W83575  14.430  26.452   2.739
12976W        W83576  29.236  29.106   3.104
12977W        W83577  22.541  33.672  10.550
12978W        W83578   2.370  36.015  12.498
12979W        W83579  42.036   8.224   2.186
12980W        W83580  16.849  41.214   1.236
12981W        W83581   7.182  22.784  12.550
12982W        W83582  25.749  11.144  11.487
12983W        W83583  37.449  17.021   3.208
12984W        W83584  32.476  18.376   2.844
12985W        W83585   1.149  30.689   0.760
12986W        W83586  15.755  16.355   1.927
12987W        W83587  30.631  17.902   4.115
12988W        W83588  21.360  10.179  10.857
12989W        W83589   7.862   7.618   0.251
12990W        W83590  44.661  30.759   3.536
12991W        W83591   0.466  17.518   1.653
12992W        W83592  37.160   6.430   5.015
12993W        W83593  44.844  18.375  14.313
12994W        W83594  20.259  11.785  10.257
12995W        W83595   1.394  17.787   2.628
12996W        W83596  43.751  10.331   4.830
12997W        W83597  39.865  31.167  11.456
12998W        W83598   1.006  16.847   2.707
12999W        W83599  14.356  25.699  14.139
13000W        W83600  40.413  13.003  10.289
13001W        W83601  17.294  41.217   0.422
13002W        W83602  28.047  41.849   2.793
13003W        W83603   0.282  26.721   3.639
13004W        W83604  37.346  44.156  10.356
13005W        W83605  23.993  38.830   4.511
13006W        W83606  11.695  14.625  14.246
13007W        W83607  14.882  29.674  11.811
13008W        W83608   6.497   4.665   2.294
13009W        W83609  26.520  22.767   1.405
13010W        W83610   7.378  16.948  14.365
13011W        W83611  29.200  15.708  14.543
13012W        W83612  10.249  24.148   0.352
13013W        W83613  22.633  18.357   4.705
13014W        W83614   0.344   9.740  11.653
13015W        W83615  28.440  39.505   5.063
13016W        W83616  11.650  38.802  12.610
13017W        W83617  13.792  33.599  13.854
13018W        W83618  34.692  44.121  11.041
13019W        W83619  31.124   5.705  13.562
13020W        W83620  28.373   2.515   3.143
13021W        W83621  26.179  12.654  13.755
13022W        W83622  41.803  41.880   0.830
13023W        W83623  23.669   1.283   4.526
13024W        W83624  42.228   0.820  12.833
13025W        W83625  31.847  44.693   3.185
13026W        W83626  24.960  42.774  12.940
13027W        W83627  40.969  43.956  11.896
13028W        W83628  11.849  33.907   1.426
13029W        W83629  43.712  18.330   2.372
13030W        W83630  20.149  40.284  14.538
13031W        W83631   1.918   8.887   4.666
13032W        W83632  12.974   2.479  12.604
13033W        W83633  22.259  12.190   4.145
13034W        W83634   4.225  34.328  10.026
13035W        W83635   3.398  28.290   3.681
13036W        W83636  37.953  38.550  10.708
13037W        W83637  16.273  31.002   0.255
13038W        W83638  15.822   1.615   4.845
13039W        W83639   1.898  14.611  14.846
13040W        W83640  24.515  41.280   2.665
13041W        W83641  35.133   7.364  10.737
13042W        W83642  30.154  26.925  12.038
13043W        W83643  12.693  31.062  11.848
13044W        W83644  14.943   8.739  10.766
13045W        W83645  42.408  22.892   3.021
13046W        W83646  40.751   7.275   3.690
13047W        W83647  16.725   9.861   3.654
13048W        W83648  19.267  22.037   3.864
13049W        W83649   2.419  24.350   0.993
13050W        W83650  43.772  27.765   4.999
13051W        W83651   4.987  40.992  11.009
13052W        W83652  17.074  32.963   0.794
13053W        W83653  10.674   9.374  10.705
13054W        W83654   8.301  19.305  14.662
13055W        W83655  13.695   9.212   3.759
13056W        W83656  35.932   1.644   1.935
13057W        W83657  33.082  39.047  10.763
13058W        W83658  39.051  21.113   0.838
13059W        W83659  11.700  44.565   0.301
13060W        W83660  15.987   6.774   3.769
13061W        W83661  44.882  26.986  10.704
13062W        W83662  10.799  31.035  14.815
13063W        W83663  33.245  36.400  14.821
13064W        W83664  13.220  20.436  12.029
13065W        W83665  25.777  42.419  13.508
13066W        W83666   5.830  15.332  14.277
13067W        W83667  23.082  35.119  10.625
13068W        W83668  34.624  34.552  12.465
13069W        W83669  33.897   9.181  11.605
13070W        W83670  34.908  31.700  14.223
13071W        W83671   4.621   5.980   4.580
13072W        W83672  14.234  16.845   0.013
13073W        W83673  18.039   6.929  14.502
13074W        W83674  37.102  24.496  12.118
13075W        W83675  18.159   8.426   1.334
13076W        W83676  36.540   3.993   3.118
13077W        W83677  21.738  36.422  12.637
13078W        W83678  36.145   6.258  14.451
13079W        W83679  12.087   5.442  11.949
13080W        W83680  11.896   5.348   3.700
13081W        W83681  40.831  27.546   4.050
13082W        W83682  38.831  24.112   3.675
13083W        W83683   9.390  30.692  14.538
13084W        W83684  44.560   8.162   1.267
13085W        W83685  32.861  30.997   4.186
13086W        W83686  38.237  36.100   4.683
13087W        W83687  43.802  25.637  14.914
13088W        W83688  38.775  33.148   3.786
13089W        W83689  19.641  39.552  14.537
13090W        W83690   2.407  13.053  11.360
13091W        W83691  20.757  12.759  14.063
13092W        W83692  27.541  44.153   5.083
13093W        W83693   2.712  44.858   4.922
13094W        W83694  30.776  12.107  12.456
13095W        W83695  35.848  42.102  11.444
13096W        W83696   3.855  28.422   2.675
13097W        W83697  35.922  38.405   4.820
13098W        W83698  20.834  24.653  12.058
13099W        W83699  23.614  27.403  13.111
13100W        W83700  13.091  26.653   1.418
13101W        W83701  16.793   6.436  13.891
13102W        W83702  20.673  36.327  11.664
13103W        W83703  13.279  25.529   0.501
13104W        W83704  40.854  30.787  13.056
13105W        W83705  29.969  31.581  12.557
13106W        W83706  26.170  20.157  13.480
13107W        W83707   2.000   2.336   3.755
13108W        W83708  31.210   5.761   1.057
13109W        W83709  14.176   6.086  14.927
13110W        W83710   3.479   3.196  13.897
13111W        W83711  34.152  11.356   2.284
13112W        W83712  35.082   2.453   3.273
13113W        W83713  40.493  13.815   1.255
13114W        W83714  18.327  30.468   0.808
13115W        W83715  40.070  40.041  14.865
13116W        W83716  27.907  32.742   4.102
13117W        W83717  37.771  42.017   3.671
13118W        W83718  29.993   3.243   3.002
13119W        W83719  32.176   7.631   1.961
13120W        W83720   6.389  36.848   3.280
13121W        W83721  22.800  40.962   4.592
13122W        W83722  34.328  34.494   4.833
13123W        W83723  22.951  15.366  14.691
13124W        W83724  22.559  38.639  14.393
13125W        W83725  16.595  27.574   3.704
13126W        W83726   1.904   1.547   2.742
13127W        W83727   6.706  43.838  14.562
13128W        W83728  22.504  22.742   2.866
13129W        W83729   3.617  23.692   1.742
13130W        W83730  30.175  13.062   3.667
13131W        W83731  14.430   0.920   2.659
13132W        W83732  12.109  30.153   2.759
13133W        W83733  27.701  20.141  11.190
13134W        W83734  33.546  10.155  11.143
13135W        W83735  22.014  34.904   0.398
13136W        W83736  35.555  19.926  14.411
13137W        W83737  31.514  42.837  14.321
13138W        W83738  36.097  36.392  13.364
13139W        W83739  29.097  13.654   3.143
13140W        W83740  31.319  44.549   3.961
13141W        W83741  40.629   2.500  13.867
13142W        W83742  35.084  21.589   4.073
13143W        W83743  33.655  28.972   0.324
13144W        W83744  34.382  10.270  11.524
13145W        W83745  42.388  42.268   0.904
13146W        W83746  32.426   4.410  13.379
13147W        W83747  12.695  13.922   3.044
13148W        W83748  14.638  44.526   5.531
13149W        W83749  13.845  32.135  10.611
13150W        W83750  15.158   9.642  12.682
13151W        W83751   9.211  20.457   0.538
13152W        W83752  16.445  20.801   1.358
13153W        W83753   3.495  35.814   1.012
13154W        W83754  30.397  20.299   1.835
13155W        W83755  28.940   7.401   4.726
13156W        W83756   5.577   3.393  12.021
13157W        W83757   0.424  10.725  14.854
13158W        W83758  24.134  31.281   4.541
13159W        W83759   1.991   4.486   3.170
13160W        W83760  22.483  21.269   3.679
13161W        W83761  14.242  34.265   4.203
13162W        W83762  12.811  23.899  11.647
13163W        W83763  43.144  28.193  12.678
13164W        W83764   4.892   2.824   1.931
13165W        W83765  44.518  40.562  11.768
13166W        W83766  40.995  39.778   1.647
13167W        W83767  21.388   5.585   1.321
13168W        W83768  13.499  44.188   1.950
13169W        W83769  38.817   1.327   4.230
13170W        W83770  44.199  18.124   2.274
13171W        W83771   3.322  12.775  12.530
13172W        W83772  39.810  38.089   2.704
13173W        W83773   7.237  29.251  13.515
13174W        W83774  32.345  16.323   2.992
13175W        W83775  18.445  40.295   0.720
13176W        W83776  23.897   5.196   0.440
13177W        W83777  11.564  14.906  10.707
13178W        W83778  33.201  26.749  14.121
13179W        W83779  14.378  22.285   2.857
13180W        W83780  44.849  31.845   1.470
13181W        W83781  19.508   0.197   3.086
13182W        W83782  34.898   3.501  14.962
13183W        W83783   8.097  38.494   2.932
13184W        W83784   8.604  12.806  11.368
13185W        W83785  44.453   4.918  12.423
13186W        W83786   1.322   0.926  14.375
13187W        W83787   4.353  42.009   2.380
13188W        W83788   8.389  36.875  11.614
13189W        W83789  19.215  22.202   1.356
13190W        W83790  30.260   5.806   1.288
13191W        W83791   0.865   7.273   4.403
13192W        W83792   5.893  43.696  10.984
13193W        W83793   1.910  20.988  10.143
13194W        W83794  18.194  44.542   3.090
13195W        W83795  22.121  33.160   1.026
13196W        W83796  27.242  25.684  13.134
13197W        W83797  29.612  38.078   4.481
13198W        W83798  33.849  37.070   2.219
13199W        W83799   1.236  30.962   2.683
13200W        W83800   0.687  20.549  14.076
13201W        W83801  31.211   6.247   4.165
13202W        W83802   6.183  24.829  12.581
13203W        W83803  29.667  34.567  11.551
13204W        W83804  28.883  27.565   1.287
13205W        W83805  35.644  23.521   0.782
13206W        W83806  26.141  20.205   0.085
13207W        W83807  21.738  40.000  11.611
13208W        W83808  14.504  24.375  12.682
13209W        W83809  24.049  27.409  12.151
13210W        W83810   9.683   7.302   4.753
13211W        W83811  35.171  31.069   2.704
13212W        W83812  25.679  22.640   0.816
13213W        W83813  26.144  24.479   2.781
13214W        W83814  14.122   8.978  12.268
13215W        W83815  29.964  31.381   0.900
13216W        W83816  10.554  12.927   3.147
13217W        W83817  42.108  27.624  12.949
13218W        W83818  38.575   0.367   2.354
13219W        W83819  28.981  38.262   4.057
13220W        W83820  21.246  35.768   1.245
13221W        W83821  42.592  20.963   0.094
13222W        W83822   1.779  15.321   1.737
13223W        W83823  38.320  43.061   0.996
13224W        W83824  26.174   2.859  11.535
13225W        W83825  42.749  35.570   2.871
13226W        W83826  15.391   2.981  13.925
13227W        W83827   2.845  11.543   4.807
13228W        W83828  35.995  33.919   0.288
13229W        W83829   1.229  26.780  13.820
13230W        W83830  39.081  34.039   3.456
13231W        W83831  38.055  39.896  11.845
13232W        W83832  35.651  25.169  14.511
13233W        W83833  11.391  29.732  14.490
13234W        W83834  29.971   3.420   0.153
13235W        W83835   0.140  36.961  13.096
13236W        W83836  14.752  38.983   1.287
13237W        W83837  15.832  11.595   0.836
13238W        W83838  13.135  17.563  12.493
13239W        W83839  31.141  15.897   2.508
13240W        W83840  42.815  23.211   2.426
13241W        W83841  36.418  44.512  14.175
13242W        W83842   6.962  44.461   1.446
13243W        W83843  10.551  28.349  10.716
13244W        W83844  32.471  44.297  12.467
13245W        W83845  12.701  36.071   3.688
13246W        W83846  31.117  14.621   1.355
13247W        W83847  13.613   9.351  13.867
13248W        W83848   5.370  38.623   2.673
13249W        W83849  32.843   5.639  13.393
13250W        W83850   7.799  15.574  14.986
13251W        W83851  37.697   7.146  14.887
13252W        W83852  39.638   6.807   2.856
13253W        W83853  29.671  43.009  13.367
13254W        W83854   6.707  33.129  13.469
13255W        W83855  15.322  26.204  12.603
13256W        W83856  29.057   9.398  12.659
13257W        W83857  10.423   0.453  13.822
13258W        W83858  38.542  40.988  12.324
13259W        W83859  16.635   9.092  11.658
13260W        W83860  31.164  27.446  13.850
13261W        W83861  20.770  12.938  12.870
13262W        W83862  27.219   1.703  12.315
13263W        W83863  28.321   2.511  11.235
13264W        W83864  33.859   4.268   2.647
13265W        W83865  36.003  27.311  14.087
13266W        W83866  25.020  43.205  11.092
13267W        W83867  26.175  33.051  12.588
13268W        W83868  31.599  23.215  11.212
13269W        W83869   7.577  43.295   2.297
13270W        W83870  27.136  28.234   0.758
13271W        W83871  44.755   5.696  14.041
13272W        W83872  16.337  17.073   4.542
13273W        W83873  39.371  25.918   3.086
13274W        W83874  32.405   8.985  10.909
13275W        W83875  10.133   4.976   0.684
13276W        W83876  20.825  43.943   0.435
13277W        W83877  20.706  21.209  10.818
13278W        W83878  21.975  16.053  12.039
13279W        W83879  43.042  14.352   1.819
13280W        W83880  20.858  14.647  14.464
13281W        W83881  36.454   3.308   0.404
13282W        W83882  28.929   3.327   2.185
13283W        W83883   4.728  10.999   0.492
13284W        W83884  34.784  26.203   3.636
13285W        W83885   5.133   4.796  10.988
13286W        W83886  38.840  14.297  10.645
13287W        W83887  42.758  21.075   3.543
13288W        W83888  21.604  23.286   1.797
13289W        W83889  32.804  23.669  13.015
13290W        W83890  33.395  16.705   4.230
13291W        W83891  18.034  20.016   4.961
13292W        W83892   2.657  12.431  11.558
13293W        W83893  17.358  44.953   1.284
13294W        W83894  13.279  43.985  12.364
13295W        W83895  17.105  16.130  13.917
13296W        W83896  24.407   9.357  10.275
13297W        W83897   9.159   9.291  13.535
13298W        W83898  17.727  39.898   3.699
13299W        W83899   5.372   1.509   1.877
13300W        W83900  32.787  22.392   2.802
13301W        W83901  14.116  20.848  13.817
13302W        W83902  30.218  34.726  10.997
13303W        W83903   0.211   4.765  11.950
13304W        W83904  22.520  43.187   4.598
13305W        W83905  38.972  21.906   1.125
13306W        W83906   4.001  38.978  12.969
13307W        W83907  39.609  30.410  11.429
13308W        W83908  18.709   0.525   4.043
13309W        W83909   2.507   6.727  14.566
13310W        W83910  26.001  17.779   0.973
13311W        W83911   2.252  12.237  13.881
13312W        W83912  17.258  13.601   3.443
13313W        W83913  24.877  40.975   0.390
13314W        W83914   7.940   7.587  14.307
13315W        W83915  20.997  26.619   1.242
13316W        W83916   1.751  29.170  12.086
13317W        W83917  31.990  36.019  11.011
13318W        W83918  44.998  23.119   1.354
13319W        W83919   9.652  43.142  11.545
13320W        W83920  41.934  40.099  14.063
13321W        W83921  10.821  40.076   2.862
13322W        W83922  16.723  30.493   0.465
13323W        W83923  29.375   8.884  12.034
13324W        W83924  32.923  16.731   2.644
13325W        W83925  20.446  19.736  11.246
13326W        W83926   0.011  36.787  10.718
13327W        W83927  36.985  36.995  11.287
13328W        W83928   0.354  15.637  12.452
13329W        W83929  14.942  12.701  10.835
13330W        W83930   9.775  40.608  13.937
13331W        W83931  42.733  33.383  12.185
13332W        W83932  13.688  16.428   0.356
13333W        W83933  34.675   9.363  11.943
13334W        W83934  33.025  20.948   4.597
13335W        W83935  28.812  16.276   4.609
13336W        W83936  19.653  18.631   2.301
13337W        W83937   9.931  30.956  13.999
13338W        W83938  20.315  27.068  11.636
13339W        W83939  29.875  42.057  14.749
13340W        W83940  16.786  29.892   2.284
13341W        W83941  24.438  34.019   0.824
13342W        W83942  14.757  42.830  13.544
13343W        W83943  16.833  25.568   1.228
13344W        W83944  29.933  22.614  13.593
13345W        W83945  39.618  12.795  13.384
13346W        W83946  24.594  11.943   4.885
13347W        W83947  13.366  24.519  11.012
13348W        W83948  27.043  22.036   4.192
13349W        W83949   8.427   7.127   2.336
13350W        W83950  32.468  29.867  10.664
13351W        W83951  41.436  36.013   0.689
13352W        W83952  28.916  38.005  10.631
13353W        W83953  29.563   3.341  11.614
13354W        W83954  19.205  11.883   3.637
13355W        W83955   3.910  28.756  12.936
13356W        W83956  26.236  18.659  10.544
13357W        W83957  40.006  23.176   1.202
13358W        W83958  36.912   1.401  13.372
13359W        W83959   1.381  35.515  10.763
13360W        W83960  23.587   5.442  12.907
13361W        W83961   5.221  31.483   4.579
13362W        W83962  36.202  31.929   3.519
13363W        W83963  18.560  18.337  14.220
13364W        W83964  11.368  37.173   3.511
13365W        W83965  26.709   3.794  11.974
13366W        W83966  35.756   5.199  11.169
13367W        W83967  23.701  15.386   1.729
13368W        W83968  30.315  10.132  14.449
13369W        W83969  26.977  18.070  10.737
13370W        W83970  42.096  32.873   4.703
13371W        W83971  24.030  26.457  13.885
13372W        W83972  33.895   9.635   1.400
13373W        W83973  28.764  20.174   4.832
13374W        W83974   9.689  22.081   0.647
13375W        W83975  25.950  30.441   3.310
13376W        W83976   5.718   4.288   2.105
13377W        W83977   8.450  27.993   2.588
13378W        W83978  43.941   1.743  11.831
13379W        W83979  30.552  23.094   3.334
13380W        W83980  36.803  21.001  14.929
13381W        W83981  39.730  35.906   3.676
13382W        W83982   9.748  28.223   2.343
13383W        W83983  13.184  31.631  11.852
13384W        W83984   2.006  18.259  12.682
13385W        W83985  10.544  40.277   2.458
13386W        W83986  19.551  16.025   1.453
13387W        W83987   6.404  40.522  10.996
13388W        W83988  13.173  17.133   2.381
13389W        W83989  42.009  35.210  12.967
13390W        W83990   2.853  20.751   0.793
13391W        W83991   6.344   6.749   0.452
13392W        W83992  22.939  37.409   4.718
13393W        W83993  13.209  16.311  11.944
13394W        W83994  23.245  21.632  11.724
13395W        W83995  39.398  14.786  14.363
13396W        W83996  21.182  29.397  12.920
13397W        W83997  32.432  15.691   4.073
13398W        W83998  28.426  32.026   5.013
13399W        W83999  42.988  12.362  12.855
13400W        W84000  17.354  39.081   4.171
13401W        W84001  36.376  17.696  10.785
13402W        W84002  13.692  13.079   4.434
13403W        W84003   9.229  39.413  10.352
13404W        W84004  41.560  21.820  13.868
13405W        W84005   4.767  10.539   3.149
13406W        W84006  40.121  12.754  13.425
13407W        W84007  26.901  16.728   1.963
13408W        W84008  34.728   6.561  14.506
13409W        W84009  34.432   2.312  14.492
13410W        W84010  17.660  13.364   1.704
13411W        W84011  34.476  34.901   0.340
13412W        W84012  20.610   3.483   1.153
13413W        W84013  12.075  15.801  11.241
13414W        W84014   2.527  15.864   4.065
13415W        W84015  32.179  37.936  14.702
13416W        W84016  10.621  16.285   3.602
13417W        W84017  43.735  44.752  13.487
13418W        W84018  37.777  23.680  11.965
13419W        W84019   2.498   0.378  10.229
13420W        W84020  25.162   3.761  12.925
13421W        W84021   7.769  19.638   3.308
13422W        W84022  38.792  34.951   1.829
13423W        W84023  23.765   9.615  13.958
13424W        W84024  32.518  41.332  11.576
13425W        W84025  35.866  28.370  11.662
13426W        W84026  37.016  19.751   1.689
13427W        W84027   6.535  38.103   0.795
13428W        W84028  39.539  21.110  10.928
13429W        W84029  10.103  13.718   2.747
13430W        W84030  32.589   1.714   3.832
13431W        W84031  43.178  28.244  12.129
13432W        W84032  22.769   7.814   0.739
13433W        W84033  38.495  34.884  10.676
13434W        W84034   9.797  43.511  13.077
13435W        W84035  41.810  30.478  14.223
13436W        W84036  16.823  36.822  12.998
13437W        W84037  15.842  43.885  14.959
13438W        W84038   0.477  24.226  11.606
13439W        W84039  44.131   5.216   2.695
13440W        W84040  22.284  30.638  13.449
13441W        W84041  16.176  19.024  11.189
13442W        W84042  33.445  25.590   4.646
13443W        W84043  23.573  44.247   3.611
13444W        W84044   9.306   4.841  11.695
13445W        W84045  33.444  19.760  14.460
13446W        W84046   7.237  23.500   2.826
13447W        W84047  36.447  16.104  13.011
13448W        W84048   5.719  26.603   4.207
13449W        W84049  40.911  19.148  13.769
13450W        W84050  26.717  28.979  14.261
13451W        W84051   7.365  33.480  13.910
13452W        W84052  21.127  33.576  11.629
13453W        W84053   7.775   1.862   0.120
13454W        W84054  18.161  41.855   1.397
13455W        W84055   4.421  24.737  11.257
13456W        W84056  19.292  36.816   2.661
13457W        W84057  43.942  18.646  12.084
13458W        W84058  17.396  30.412   2.293
13459W        W84059   5.776   2.641  10.700
13460W        W84060  44.713   8.669  10.973
13461W        W84061  43.454  30.596  14.063
13462W        W84062   5.817   4.583  14.156
13463W        W84063   9.214  13.497   2.647
13464W        W84064  14.801  31.734   2.658
13465W        W84065  10.854  33.823  14.742
13466W        W84066  22.041  12.053  11.612
13467W        W84067   5.869  29.223  12.360
13468W        W84068  16.033   3.365   3.568
13469W        W84069  30.529  42.723   3.469
13470W        W84070  21.001  24.623   2.511
13471W        W84071  34.616  28.624   0.484
13472W        W84072  15.320   0.716  14.880
13473W        W84073  21.571  11.242   0.733
13474W        W84074  29.591  18.308   0.162
13475W        W84075  32.034  27.690  11.234
13476W        W84076  14.926   1.831  14.335
13477W        W84077   0.911  17.905   0.959
13478W        W84078  20.739   6.148  14.421
13479W        W84079  11.234  26.671   2.634
13480W        W84080  23.959  44.356   3.237
13481W        W84081   4.945   1.889   0.260
13482W        W84082  38.853   4.421   1.810
13483W        W84083  17.636  17.557   2.526
13484W        W84084   8.772  39.307   4.932
13485W        W84085  39.506   1.535   0.901
13486W        W84086  22.449  41.536   0.376
13487W        W84087  16.239  33.415  10.013
13488W        W84088  10.918  31.230  13.839
13489W        W84089  34.877   7.461   1.914
13490W        W84090   1.376  42.313  12.617
13491W        W84091  13.772  18.043  13.936
13492W        W84092  33.071   7.009   0.242
13493W        W84093  19.940  24.175  10.627
13494W        W84094  12.655   2.827   1.468
13495W        W84095  44.772  10.334   3.284
13496W        W84096  31.512  10.714   1.785
13497W        W84097  24.615  43.398   1.522
13498W        W84098   5.115  32.909   4.402
13499W        W84099   7.359  40.702  13.389
13500W        W84100  24.303  19.129   4.350
13501W        W84101  20.903  13.858   1.282
13502W        W84102  26.527  44.776  10.945
13503W        W84103  27.694  13.234  14.822
13504W        W84104  12.091  20.204   1.351
13505W        W84105  19.539  32.094  12.918
13506W        W84106  38.021   2.095  12.880
13507W        W84107  14.149  26.398  14.969
13508W        W84108  27.466  31.936  10.750
13509W        W84109  44.359  14.189   3.123
13510W        W84110  19.719   4.936  11.029
13511W        W84111  26.215  30.064  10.673
13512W        W84112   2.335  40.904   0.783
13513W        W84113  32.847  30.802  14.721
13514W        W84114   4.847  28.439  14.193
13515W        W84115   2.501   0.273  14.646
13516W        W84116  28.969  39.522   9.773
13517W        W84117   5.437  19.187   0.690
13518W        W84118  29.498  27.901  12.993
13519W        W84119  40.083   7.708   3.304
13520W        W84120  29.468  31.003  10.523
13521W        W84121  32.217   1.377   4.801
13522W        W84122  15.937   8.919   0.460
13523W        W84123  43.259  15.062   3.375
13524W        W84124  20.261  16.858  12.526
13525W        W84125  13.824  27.927   1.826
13526W        W84126  41.935  17.525   0.463
13527W        W84127  26.422  24.774   0.494
13528W        W84128  14.945  17.373  12.121
13529W        W84129  44.229  29.004   2.815
13530W        W84130  22.954  36.954   0.540
13531W        W84131  21.109  22.244   1.482
13532W        W84132  34.827  24.283   4.135
13533W        W84133  41.269   0.819   0.324
13534W        W84134  15.260  33.961   0.007
13535W        W84135  36.005   2.677  14.293
13536W        W84136   2.193  29.774  10.177
13537W        W84137  38.420  14.554  14.711
13538W        W84138   5.271   6.730   0.360
13539W        W84139  36.143   9.728  13.599
13540W        W84140  42.588  19.180  12.609
13541W        W84141  10.240  22.582  11.327
13542W        W84142  37.322   7.413   3.830
13543W        W84143  11.437  19.027  13.623
13544W        W84144  32.452  26.349   0.236
13545W        W84145  22.999   1.844   2.585
13546W        W84146  39.652  23.449   4.207
13547W        W84147  12.858   7.174   1.170
13548W        W84148  41.317   2.909   1.414
13549W        W84149  16.030  30.973   1.246
13550W        W84150   3.740   2.777   2.141
13551W        W84151  29.742  40.967   3.183
13552W        W84152  34.966  30.294   4.604
13553W        W84153  36.265  23.553  11.140
13554W        W84154   9.274  26.070  12.682
13555W        W84155  21.296  22.322  14.269
13556W        W84156   8.243  14.669   4.029
13557W        W84157   5.858  37.480   2.823
13558W        W84158  22.641   5.201   3.165
13559W        W84159  23.079  24.795  13.573
13560W        W84160   8.194  37.119   2.275
13561W        W84161  32.579  40.946  12.439
13562W        W84162   4.190  14.571   1.819
13563W        W84163  14.797  38.034  14.055
13564W        W84164  33.531  30.610  13.758
13565W        W84165  33.028  43.250   1.097
13566W        W84166  12.871  24.553   0.328
13567W        W84167  20.235  29.675  13.796
13568W        W84168  35.040  37.659  14.901
13569W        W84169  25.180  29.722   3.113
13570W        W84170   3.962  34.978  12.448
13571W        W84171  43.864  19.158  14.058
13572W        W84172  17.603   3.779  10.766
13573W        W84173  44.179  11.140  13.826
13574W        W84174  18.584  32.558   2.673
13575W        W84175  23.121   8.146   0.196
13576W        W84176   4.978  19.682  14.036
13577W        W84177  17.927  37.614  12.395
13578W        W84178  27.673  17.650  13.026
13579W        W84179  31.472  14.111   0.807
13580W        W84180  32.016  44.766  13.976
13581W        W84181  33.554  17.891  10.656
13582W        W84182  17.874  12.756  13.537
13583W        W84183   5.284  11.713   0.325
13584W        W84184  18.058  39.444   4.121
13585W        W84185  10.979  29.574   3.418
13586W        W84186  31.553  26.550   4.445
13587W        W84187  30.507  34.178   4.649
13588W        W84188  30.058  25.681  10.953
13589W        W84189   2.157   5.855  12.132
13590W        W84190  34.566  22.442  11.635
13591W        W84191  36.289   6.632  12.085
13592W        W84192  43.282  43.965   1.860
13593W        W84193  28.960  25.237   0.906
13594W        W84194  43.218   1.733   0.830
13595W        W84195  22.763  12.225   4.292
13596W        W84196  17.390  36.463   5.269
13597W        W84197  15.634   3.752  12.938
13598W        W84198  38.090  37.919   0.456
13599W        W84199  13.582  17.824  12.194
13600W        W84200  39.065  44.657  11.807
13601W        W84201   5.976  17.230   4.807
13602W        W84202   2.462   6.463   4.069
13603W        W84203  33.570  31.948   2.028
13604W        W84204  26.369  23.847  13.440
13605W        W84205  30.175   3.408  11.935
13606W        W84206  39.487  32.464  12.665
13607W        W84207  25.945   1.692   1.657
13608W        W84208  42.039  10.676   2.679
13609W        W84209  27.508  27.240   1.271
13610W        W84210  38.039   8.744  13.475
13611W        W84211  19.132  18.120   2.676
13612W        W84212  34.880   0.949  14.330
13613W        W84213  14.014  16.128   3.662
13614W        W84214   0.313  42.364   0.219
13615W        W84215  16.714  32.869  13.124
13616W        W84216  14.296  32.470  12.528
13617W        W84217  11.190  31.972  14.072
13618W        W84218  11.710  36.499  11.776
13619W        W84219  31.959  35.558   1.770
13620W        W84220  29.223  24.206   0.382
13621W        W84221  15.664  15.837   1.881
13622W        W84222  24.285  15.762  13.908
13623W        W84223  40.729  41.371  14.698
13624W        W84224   6.001  44.529   4.994
13625W        W84225  34.913  37.911   3.332
13626W        W84226  26.088   4.902  13.105
13627W        W84227  21.190  14.173  13.062
13628W        W84228  12.460  24.506   3.889
13629W        W84229  38.840  41.914  10.615
13630W        W84230  29.492  12.691  13.430
13631W        W84231  36.088  35.446   1.334
13632W        W84232  24.063   2.049   3.150
13633W        W84233  11.081  18.272   0.187
13634W        W84234  20.999  33.182   1.365
13635W        W84235  15.641   3.672  14.064
13636W        W84236  31.092  12.111   2.701
13637W        W84237  27.184  23.956  14.629
13638W        W84238  28.410   5.866   0.778
13639W        W84239  26.626  14.429   4.554
13640W        W84240  34.113   2.362  14.973
13641W        W84241  44.576  16.483   3.987
13642W        W84242  19.129  11.525  11.603
13643W        W84243   0.621  35.620  12.085
13644W        W84244  21.873  22.149  12.047
13645W        W84245  15.576  18.554  10.729
13646W        W84246  19.832   4.870   5.013
13647W        W84247   7.884  10.393   0.615
13648W        W84248  34.048  40.406  11.974
13649W        W84249  38.397  32.888  14.913
13650W        W84250   7.937  34.423   3.137
13651W        W84251  28.980  35.062   3.693
13652W        W84252  23.540  21.590   1.323
13653W        W84253  10.283  33.619  12.974
13654W        W84254   5.155  40.108   4.626
13655W        W84255  44.885  14.424   1.467
13656W        W84256  38.850  32.722   3.480
13657W        W84257  40.092   0.204   3.812
13658W        W84258  10.185  39.751  13.042
13659W        W84259  17.731  13.766   3.700
13660W        W84260   1.721  15.247   2.407
13661W        W84261  40.068  17.338  11.172
13662W        W84262  40.050  16.200   3.557
13663W        W84263  38.446  26.049  14.642
13664W        W84264  23.027   1.908  14.396
13665W        W84265  24.240  34.636  11.670
13666W        W84266  14.292   4.828   0.390
13667W        W84267  11.165  40.050   4.599
13668W        W84268  38.948  30.632   0.990
13669W        W84269  37.320   6.829   1.445
13670W        W84270  33.610  30.154  11.936
13671W        W84271  22.001  14.926   0.591
13672W        W84272   0.652  29.485  11.823
13673W        W84273  39.407  37.164  11.589
13674W        W84274   3.895  21.550   3.247
13675W        W84275  21.499  11.737   2.170
13676W        W84276  19.971  12.176   0.922
13677W        W84277   1.307  33.054   5.044
13678W        W84278  16.205  32.976  14.290
13679W        W84279  28.058   5.983   0.423
13680W        W84280   0.802  20.429   3.918
13681W        W84281   1.094   9.080  11.098
13682W        W84282  27.756   5.036   0.337
13683W        W84283  10.624  18.722  10.761
13684W        W84284  10.702  30.548  14.964
13685W        W84285   5.866  25.584  14.101
13686W        W84286   9.637  35.078  10.927
13687W        W84287  17.649  32.499   0.233
13688W        W84288  30.456  29.544   1.374
13689W        W84289  33.985  33.008   0.817
13690W        W84290  39.698  22.153   4.451
13691W        W84291  26.701   9.711   4.494
13692W        W84292  22.465  36.011  12.954
13693W        W84293  34.876  12.146  13.938
13694W        W84294  38.978  23.084   4.641
13695W        W84295   6.373  33.081   4.098
13696W        W84296   7.939  40.200  12.429
13697W        W84297  15.872  22.038  14.685
13698W        W84298  38.896  39.094   1.321
13699W        W84299  42.560   3.915   3.052
13700W        W84300  11.313  13.141   0.189
13701W        W84301  42.859  10.931  12.979
13702W        W84302  33.075   2.797   0.206
13703W        W84303  44.458  23.927  11.215
13704W        W84304  28.108  24.210   3.292
13705W        W84305  16.287  40.828   2.302
13706W        W84306  42.342  25.978   3.753
13707W        W84307  44.556   2.664   3.164
13708W        W84308  20.163  34.559  14.427
13709W        W84309   7.182  33.747  11.330
13710W        W84310  28.587  16.865   0.394
13711W        W84311  37.961  26.424  13.510
13712W        W84312  36.002  30.455   4.114
13713W        W84313  40.468  43.898   0.359
13714W        W84314  39.085  28.725  12.542
13715W        W84315  44.617  29.420  13.312
13716W        W84316   3.273  14.403  13.758
13717W        W84317  23.334  30.288   1.742
13718W        W84318  36.051   4.655   0.285
13719W        W84319  29.531   5.279   2.473
13720W        W84320  33.827  29.172   1.746
13721W        W84321   5.004  38.005  12.966
13722W        W84322  27.896  12.287  11.896
13723W        W84323  25.579  25.175   2.633
13724W        W84324  15.637  13.648  14.083
13725W        W84325  34.873  13.674  12.498
13726W        W84326   9.340  29.946   4.019
13727W        W84327  12.130   8.816  10.436
13728W        W84328  34.857  12.578   1.824
13729W        W84329  43.169  27.946  10.994
13730W        W84330   7.701  11.090   4.511
13731W        W84331  19.232   9.175   3.198
13732W        W84332   8.958   9.253   0.964
13733W        W84333  41.879  23.531   2.688
13734W        W84334  31.876  33.163  11.674
13735W        W84335  38.979  38.670  12.530
13736W        W84336   9.874   5.032   1.366
13737W        W84337  15.819   3.383  14.955
13738W        W84338  22.394  35.057   3.084
13739W        W84339  19.678  34.472   2.748
13740W        W84340  17.734  36.100  14.410
13741W        W84341  37.567  42.831   1.808
13742W        W84342  44.080   0.018   3.171
13743W        W84343  23.839   4.209   2.715
13744W        W84344  35.762  37.124   0.933
13745W        W84345  32.876   3.208   4.962
13746W        W84346  18.192  33.602  13.827
13747W        W84347   2.848  31.910  12.013
13748W        W84348   9.960  26.848   3.265
13749W        W84349   3.760  11.748   3.202
13750W        W84350  39.152  33.521  13.622
13751W        W84351  18.256  31.544  12.944
13752W        W84352  14.054  35.003   3.165
13753W        W84353  20.401   4.279   3.998
13754W        W84354   6.221  22.150   2.662
13755W        W84355   9.718  20.127  10.730
13756W        W84356   7.200  36.488   0.300
13757W        W84357  36.567   9.592  13.297
13758W        W84358  37.305  28.316  12.391
13759W        W84359  18.351  23.149  13.550
13760W        W84360  14.776   5.239   2.436
13761W        W84361  14.740  28.170  10.944
13762W        W84362   0.878  23.145   3.682
13763W        W84363  37.239  15.104   0.912
13764W        W84364  30.864  41.329  10.684
13765W        W84365  37.038  30.656  14.878
13766W        W84366   4.176  11.148   4.372
13767W        W84367  27.576  25.393  12.868
13768W        W84368  12.635  26.576  13.049
13769W        W84369   2.975  29.742   3.293
13770W        W84370  16.755  28.085   1.900
13771W        W84371  28.869  44.494  11.995
13772W        W84372   6.624  20.119   0.523
13773W        W84373  30.537  43.473  10.219
13774W        W84374  42.042   7.910   1.703
13775W        W84375  13.811   0.146   2.118
13776W        W84376  13.918  22.108   3.094
13777W        W84377   1.273   6.921   0.533
13778W        W84378   1.504  18.291  12.840
13779W        W84379  37.449   8.282   4.828
13780W        W84380   3.901  40.198  11.510
13781W        W84381  33.824  41.086  11.296
13782W        W84382  11.118  21.077  12.413
13783W        W84383  33.531  23.081   1.772
13784W        W84384  23.060  27.789  11.960
13785W        W84385   8.688  32.004   1.909
13786W        W84386  17.016  14.336   2.302
13787W        W84387  23.045  32.058   2.759
13788W        W84388  35.628  17.227  14.403
13789W        W84389  30.642   4.514  13.812
13790W        W84390   0.763   5.882  12.100
13791W        W84391  33.541  27.232   1.515
13792W        W84392  32.991  38.634  12.360
13793W        W84393  17.436  33.134  14.455
13794W        W84394  34.809  37.972  12.361
13795W        W84395  23.545  44.842  12.000
13796W        W84396   8.249  34.821   1.925
13797W        W84397  42.391  41.779  13.943
13798W        W84398   4.611  36.590  10.835
13799W        W84399   7.174  39.735   3.661
13800W        W84400  11.681  30.377  10.302
13801W        W84401   1.208  13.923  12.938
13802W        W84402  26.233  23.760  12.396
13803W        W84403  37.897  43.844   2.999
13804W        W84404  15.755  17.567  11.610
13805W        W84405  18.705  41.761   1.378
13806W        W84406  36.650  43.478  10.431
13807W        W84407  40.891  23.239   4.515
13808W        W84408   2.095  16.306  10.633
13809W        W84409  24.784  36.994   3.892
13810W        W84410  37.013   6.839   0.998
13811W        W84411  37.172  10.626  12.974
13812W        W84412   8.826  25.083  14.054
13813W        W84413   1.311   7.320  14.409
13814W        W84414  26.465  41.169  11.516
13815W        W84415   3.322  28.797   3.564
13816W        W84416   5.209  42.272   2.150
13817W        W84417   8.317  28.005  12.893
13818W        W84418   3.297   5.886   0.884
13819W        W84419  30.122  33.556   1.228
13820W        W84420   1.749  33.331  14.848
13821W        W84421  39.466  43.053  13.506
13822W        W84422   5.955   2.147  14.500
13823W        W84423   8.793  23.179   1.155
13824W        W84424   9.108  21.131   2.777
13825W        W84425   7.324  34.413   4.441
13826W        W84426  17.503  23.556  10.436
13827W        W84427  29.481  12.543   0.493
13828W        W84428   8.827  38.884  11.328
13829W        W84429  37.129  27.033   2.280
13830W        W84430  22.391  12.511  14.331
13831W        W84431  18.143  19.174   4.410
13832W        W84432  22.516  28.230   3.737
13833W        W84433  36.948  35.850   5.111
13834W        W84434  42.728  33.119  10.809
13835W        W84435  21.962  38.837  13.969
13836W        W84436  22.196  22.935  11.609
13837W        W84437  26.510  34.099  14.770
13838W        W84438  40.903  34.297   4.055
13839W        W84439   8.652  39.299  11.552
13840W        W84440  23.507  18.198  13.294
13841W        W84441   6.216  42.266  13.072
13842W        W84442   1.984  21.206   2.247
13843W        W84443  34.542  18.390  11.560
13844W        W84444  40.034  23.054   0.686
13845W        W84445   8.326  43.632   3.858
13846W        W84446  21.162  38.287  11.016
13847W        W84447  37.647  21.164  11.660
13848W        W84448  27.007   9.388   3.310
13849W        W84449  42.921  25.706   3.172
13850W        W84450  35.455  13.632   2.279
13851W        W84451  29.447   0.986   1.394
13852W        W84452   7.247  35.657  12.104
13853W        W84453  25.217   5.381  11.673
13854W        W84454  41.256   8.163  11.065
13855W        W84455  42.378  21.150  14.597
13856W        W84456  42.335  13.794  13.073
13857W        W84457   2.559  23.133   4.277
13858W        W84458   3.918  12.362  14.969
13859W        W84459   0.088  10.301  10.258
13860W        W84460  44.373  30.009   4.542
13861W        W84461  35.028  17.747  13.879
13862W        W84462   2.684   7.417   0.248
13863W        W84463  25.694  33.898  11.845
13864W        W84464  44.717  36.810   0.098
13865W        W84465  34.118  37.398  11.146
13866W        W84466   7.765  31.840   4.815
13867W        W84467   7.893  28.690   1.475
13868W        W84468  12.113  18.565  13.945
13869W        W84469   5.596  35.186   0.331
13870W        W84470   7.147  37.020   3.642
13871W        W84471  15.147  43.259  14.828
13872W        W84472  26.563   3.336   3.118
13873W        W84473  38.362  30.101  11.463
13874W        W84474  29.148  19.002  14.757
13875W        W84475  12.686  20.525   1.821
13876W        W84476   3.220   1.794   1.795
13877W        W84477  27.658  15.589  11.975
13878W        W84478   6.408  33.735   0.978
13879W        W84479  44.955  16.779  12.104
13880W        W84480  14.392   1.824  14.351
13881W        W84481  35.484   6.850  13.270
13882W        W84482  34.570  12.652   1.368
13883W        W84483  35.490  43.361   4.061
13884W        W84484  32.899  32.433   3.725
13885W        W84485  25.844  33.482  12.671
13886W        W84486  24.055   6.763  10.048
13887W        W84487   1.359   7.728  11.090
13888W        W84488  10.479  30.180   3.730
13889W        W84489   2.736  32.117   1.265
13890W        W84490  11.291   1.055   4.606
13891W        W84491  39.431  16.708   0.282
13892W        W84492  24.620  22.971   4.656
13893W        W84493  43.360  25.894   3.392
13894W        W84494  23.655  14.095  12.432
13895W        W84495   3.734   4.763  12.458
13896W        W84496   5.363  39.880  12.376
13897W        W84497  32.663  29.171   0.329
13898W        W84498  38.838   0.392  10.117
13899W        W84499  32.175  12.160   0.187
13900W        W84500  29.927  31.085   3.067
13901W        W84501  14.694  28.415  11.853
13902W        W84502  40.452  17.447  14.858
13903W        W84503  33.914  18.431   1.677
13904W        W84504  24.571  20.313  13.485
13905W        W84505   8.240  24.262   3.028
13906W        W84506  32.646  16.882  13.835
13907W        W84507  40.778   4.925  13.886
13908W        W84508  34.933  28.258   1.505
13909W        W84509  25.724   1.755  11.399
13910W        W84510   0.556   3.244  11.226
13911W        W84511  23.113  34.524   2.281
13912W        W84512   3.322   3.544   1.023
13913W        W84513  38.845  15.300  12.680
13914W        W84514   5.806  17.772   2.103
13915W        W84515  40.889  23.774   2.858
13916W        W84516  39.924  12.120   1.555
13917W        W84517  29.559  18.819  13.436
13918W        W84518  24.920  43.347   2.777
13919W        W84519  10.147  21.480   2.874
13920W        W84520  44.307  28.161  12.912
13921W        W84521  43.671  26.940   2.994
13922W        W84522  14.337   8.995  11.820
13923W        W84523   8.237   0.994  12.755
13924W        W84524   7.616   8.835   3.658
13925W        W84525  17.795  42.977  13.070
13926W        W84526  17.144  12.980  12.841
13927W        W84527   8.930  34.018  13.996
13928W        W84528  21.271  29.205  11.622
13929W        W84529  15.054   0.862  12.948
13930W        W84530  26.592  31.559   4.033
13931W        W84531  31.210  34.860  13.523
13932W        W84532  19.128  28.546   5.095
13933W        W84533  43.431   9.717   0.022
13934W        W84534  22.539  19.448   0.193
13935W        W84535  25.008  16.042  13.220
13936W        W84536  36.404  17.125  14.004
13937W        W84537  14.330  39.536   1.836
13938W        W84538  38.598  30.618   3.253
13939W        W84539  25.569  39.393   1.992
13940W        W84540   7.743  41.787  11.536
13941W        W84541  14.927  17.810  14.794
13942W        W84542  32.236  22.236   1.663
13943W        W84543  31.113   6.444  14.289
13944W        W84544  39.049  27.626   3.146
13945W        W84545   6.692  27.440   1.768
13946W        W84546  30.163   5.033   3.333
13947W        W84547  43.422   1.029  14.325
13948W        W84548  37.324  19.725  14.526
13949W        W84549  13.084  17.655   3.216
13950W        W84550   9.834  14.251   3.259
13951W        W84551  25.570  19.022   3.208
13952W        W84552  29.525   3.459   3.771
13953W        W84553  21.140  20.703   1.385
13954W        W84554  18.372  26.510  12.563
13955W        W84555  42.031  32.548  14.698
13956W        W84556  33.899   8.669  11.607
13957W        W84557  30.313  17.086  11.160
13958W        W84558  24.231   3.122  11.468
13959W        W84559  31.466   9.605  14.799
13960W        W84560   7.504  18.964  13.049
13961W        W84561  12.234  13.356  11.625
13962W        W84562  43.214  15.233  13.998
13963W        W84563  32.573  13.286   2.884
13964W        W84564  43.848  42.957  11.589
13965W        W84565  31.090  23.565  10.672
13966W        W84566  37.126  19.131  12.349
13967W        W84567  19.751  42.505  11.918
13968W        W84568   1.836  24.537   3.261
13969W        W84569  25.136  35.186   2.328
13970W        W84570  14.185   2.775   3.234
13971W        W84571  37.494  24.133   2.056
13972W        W84572  17.069  29.231  12.838
13973W        W84573  17.730  39.038  14.864
13974W        W84574  20.726   0.588   1.716
13975W        W84575  34.392  41.490  13.551
13976W        W84576  39.097  20.173   0.212
13977W        W84577  39.210  41.244  13.938
13978W        W84578  35.618   1.813   0.532
13979W        W84579   7.661  21.856  13.424
13980W        W84580  25.627  11.888   2.878
13981W        W84581   5.269  17.486  13.462
13982W        W84582   3.115  44.742  12.952
13983W        W84583  28.712  11.221   2.214
13984W        W84584  13.669  33.615  12.887
13985W        W84585   8.465  30.392  11.492
13986W        W84586  15.664   2.340   0.699
13987W        W84587  16.317  10.755  10.905
13988W        W84588  18.783  35.979  11.935
13989W        W84589  26.441  17.259   0.487
13990W        W84590  17.716  25.554  14.470
13991W        W84591  26.248  18.117  13.915
13992W        W84592  29.499  10.995  11.377
13993W        W84593  17.922  38.242   3.716
13994W        W84594  19.271  30.702   3.891
13995W        W84595  27.229  19.181   0.913
13996W        W84596  29.643  13.393  11.406
13997W        W84597   0.015  34.022   3.983
13998W        W84598  39.194  38.416  13.861
13999W        W84599   0.530  31.130  14.803
14000W        W84600  23.626  25.970  12.649
14001W        W84601  36.245  14.106  14.477
14002W        W84602   1.855  26.173  13.434
14003W        W84603  34.811   4.307  10.872
14004W        W84604  37.689   9.990  14.322
14005W        W84605  28.453  23.168   2.977
14006W        W84606  35.967   8.740   4.592
14007W        W84607  13.255  39.703   0.056
14008W        W84608   1.314   9.402   4.373
14009W        W84609  19.602   4.365  13.486
14010W        W84610  24.036  39.715   1.389
14011W        W84611  15.693  17.741   4.940
14012W        W84612  37.321  16.055  10.682
14013W        W84613  30.089   9.795  11.143
14014W        W84614  24.765   7.020   4.093
14015W        W84615  31.152  38.995   1.770
14016W        W84616  13.383  19.156   3.641
14017W        W84617  35.870  23.596  12.015
14018W        W84618  26.379  44.922  12.303
14019W        W84619  34.579  33.000   3.677
14020W        W84620  28.027  38.856  12.465
14021W        W84621   9.310  20.272  13.392
14022W        W84622  22.016  21.162  11.112
14023W        W84623   8.675  35.694  11.114
14024W        W84624   4.354  23.585   2.128
14025W        W84625  34.540  35.107   4.009
14026W        W84626   6.740  40.676  13.536
14027W        W84627  15.583  23.049  12.450
14028W        W84628   0.870  21.529  11.715
14029W        W84629  30.126  28.162  11.321
14030W        W84630  23.357  38.436   0.946
14031W        W84631   5.768  39.572  11.554
14032W        W84632  26.044   8.420  14.407
14033W        W84633  31.740  26.330  10.198
14034W        W84634   0.463  19.856   1.609
14035W        W84635  44.340  38.962   0.989
14036W        W84636  28.773  21.015   2.640
14037W        W84637   4.333  12.187  13.813
14038W        W84638  36.098   7.428   1.261
14039W        W84639  16.818  15.649  12.043
14040W        W84640  34.528  14.032  11.927
14041W        W84641  23.946  18.022   3.783
14042W        W84642  10.698  17.135   3.417
14043W        W84643  41.262   2.425  13.522
14044W        W84644  21.052  39.901  14.815
14045W        W84645  25.218  16.964  13.426
14046W        W84646   3.775  39.244   2.158
14047W        W84647  39.745  44.888  14.999
14048W        W84648  31.122  38.551  10.627
14049W        W84649  15.283  38.980   1.334
14050W        W84650  31.080  13.085  12.425
14051W        W84651   6.371  21.596   2.360
14052W        W84652  42.032  25.292  13.918
14053W        W84653   3.889   6.105  13.461
14054W        W84654  11.661  43.772   3.320
14055W        W84655  31.639   9.472  13.023
14056W        W84656  21.657  18.902  11.591
14057W        W84657  38.928  44.535  11.333
14058W        W84658  26.161  41.550  12.618
14059W        W84659  18.874  29.166  13.881
14060W        W84660  27.621  39.717  14.206
14061W        W84661  42.257   0.023   4.707
14062W        W84662  28.576  43.956   1.637
14063W        W84663  27.758   9.148  12.528
14064W        W84664  41.315   4.247   3.167
14065W        W84665  41.367  18.278   2.686
14066W        W84666  14.181  35.650  10.683
14067W        W84667  39.446  39.193   0.491
14068W        W84668  21.526  39.522  11.640
14069W        W84669  17.249  38.155   4.486
14070W        W84670  24.136  43.238  13.432
14071W        W84671  40.304  13.069   2.838
14072W        W84672  25.144  16.490  14.494
14073W        W84673  12.587   9.680  13.054
14074W        W84674  29.068  17.275   3.250
14075W        W84675  23.073  19.386   1.714
14076W        W84676  26.674  34.618  14.037
14077W        W84677  20.620  36.546   1.411
14078W        W84678  34.480  35.436   0.456
14079W        W84679  41.876  17.537  12.507
14080W        W84680  17.248   8.687   9.822
14081W        W84681   2.368   8.277  10.405
14082W        W84682  10.068   7.122  14.966
14083W        W84683  18.720  16.777   3.408
14084W        W84684  15.032  16.227  12.927
14085W        W84685  32.850   5.379   1.337
14086W        W84686  12.044   6.319  13.510
14087W        W84687  44.502  36.133  13.513
14088W        W84688  40.342   0.768   2.433
14089W        W84689   5.726   1.732  11.623
14090W        W84690  44.454  39.449   3.250
14091W        W84691  35.301  39.485  11.097
14092W        W84692  13.534  14.639  14.801
14093W        W84693  29.561  25.722  14.433
14094W        W84694  29.000  43.580  10.914
14095W        W84695  29.089  15.239  14.333
14096W        W84696  30.480  11.810  10.666
14097W        W84697  17.397  41.976  14.314
14098W        W84698  26.305  20.023   2.864
14099W        W84699  28.992  15.568   0.015
14100W        W84700   5.402   8.885  13.465
14101W        W84701   9.188   4.829   1.840
14102W        W84702   8.386  11.981   3.820
14103W        W84703   1.437  25.529  11.078
14104W        W84704  24.977  33.037   2.165
14105W        W84705   3.406  37.229  13.755
14106W        W84706  29.841  25.367   0.818
14107W        W84707  28.394  17.242  13.051
14108W        W84708   3.949  26.982   3.748
14109W        W84709   1.544  18.137   1.705
14110W        W84710  12.341   4.552   2.191
14111W        W84711   0.686  13.930   2.840
14112W        W84712  35.894   4.830   4.287
14113W        W84713  30.945  38.515   0.389
14114W        W84714   8.281  27.078   0.083
14115W        W84715   7.427  37.783  11.183
14116W        W84716   4.274  24.048   0.214
14117W        W84717  12.700  28.008  12.845
14118W        W84718  38.321   3.779   1.451
14119W        W84719  28.730  29.198  12.940
14120W        W84720  41.746  10.097  10.273
14121W        W84721  27.365  12.643  12.482
14122W        W84722  34.916  27.286   3.855
14123W        W84723  13.496  19.866   1.223
14124W        W84724  16.163  35.610  13.428
14125W        W84725  35.652  37.584  13.504
14126W        W84726  31.479  41.521   0.437
14127W        W84727  19.189  29.653  12.568
14128W        W84728   4.249  26.461  14.903
14129W        W84729  26.403  22.378  14.827
14130W        W84730  29.449  37.960   3.478
14131W        W84731   9.778  16.643  12.947
14132W        W84732   9.614   7.837   1.903
14133W        W84733  32.395  31.297  13.274
14134W        W84734  18.514  20.264   3.906
14135W        W84735   3.070  16.593  11.215
14136W        W84736  26.291  34.669  11.289
14137W        W84737  34.930  34.523  11.554
14138W        W84738  23.451  14.192   0.821
14139W        W84739  30.474   2.384  14.405
14140W        W84740  34.546  20.181   4.540
14141W        W84741  27.600  21.976  14.883
14142W        W84742   7.692  42.802   4.310
14143W        W84743  17.086  13.401   2.256
14144W        W84744  23.292  33.798   4.159
14145W        W84745  15.537  29.584   2.367
14146W        W84746  11.634  39.133   9.968
14147W        W84747  19.105  29.434  13.025
14148W        W84748   9.811   6.411   4.594
14149W        W84749  17.697  36.619  14.431
14150W        W84750   6.812  16.138   3.342
14151W        W84751  11.275  30.023   3.246
14152W        W84752   4.466  17.362   3.355
14153W        W84753  21.497  17.198   1.355
14154W        W84754  44.926   0.045  13.103
14155W        W84755  42.585  37.998   0.380
14156W        W84756  11.666   0.746   1.030
14157W        W84757   0.839  31.579  13.936
14158W        W84758  26.889   3.450   2.745
14159W        W84759  25.038  26.551  14.157
14160W        W84760  15.519   5.259   1.299
14161W        W84761   8.476   9.846   3.469
14162W        W84762  34.849  42.620  12.881
14163W        W84763  34.448  29.491   4.133
14164W        W84764  14.053  42.954  13.701
14165W        W84765  15.312  37.640  10.593
14166W        W84766   7.832  42.279   0.731
14167W        W84767  36.148  16.770  11.578
14168W        W84768   9.243  11.729   4.029
14169W        W84769  33.824  13.800   2.163
14170W        W84770   0.285   5.278   1.809
14171W        W84771  38.645   6.117  13.552
14172W        W84772   0.328  44.248   0.280
14173W        W84773  41.379   9.421  12.896
14174W        W84774  37.230  43.927  12.048
14175W        W84775  20.597  41.846   4.521
14176W        W84776  32.544  20.805  12.629
14177W        W84777   2.785  36.126  13.391
14178W        W84778   2.459  17.507  14.032
14179W        W84779  26.016  42.561   1.782
14180W        W84780   6.960  44.179  13.342
14181W        W84781  18.563  25.109   1.234
14182W        W84782  10.375  34.376   4.082
14183W        W84783  31.021  25.968   1.888
14184W        W84784   6.547  26.683  10.546
14185W        W84785  10.820  10.929  10.685
14186W        W84786  35.893  35.077   4.111
14187W        W84787  25.513  12.126   3.897
14188W        W84788  32.361  16.527  11.220
14189W        W84789  31.015  20.805   1.407
14190W        W84790  34.389  28.624   4.129
14191W        W84791  13.912  35.863   3.017
14192W        W84792  16.548  20.737   0.358
14193W        W84793   0.400  44.200  11.888
14194W        W84794  14.678   0.202  10.762
14195W        W84795  41.396   6.223  12.344
14196W        W84796  12.916  33.460   0.739
14197W        W84797  34.978  40.958  13.883
14198W        W84798  30.884  18.662   4.847
14199W        W84799  37.303   6.891   3.130
14200W        W84800  14.111  34.177   0.344
14201W        W84801  19.759  30.832  10.914
14202W        W84802  23.194   2.884  13.426
14203W        W84803  38.287  39.048   0.822
14204W        W84804  36.528  13.642  12.757
14205W        W84805  38.218  27.558   3.443
14206W        W84806  22.578  39.028  11.229
14207W        W84807  30.352  41.064  14.336
14208W        W84808   3.557  40.499  12.287
14209W        W84809  34.546  17.564   0.888
14210W        W84810   3.726  42.459   1.250
14211W        W84811  43.653  15.752   3.655
14212W        W84812  28.428  26.873  11.434
14213W        W84813  30.898  34.434  13.277
14214W        W84814  42.821  16.532   0.653
14215W        W84815   6.277  27.589   4.880
14216W        W84816  35.745  29.916   2.374
14217W        W84817  32.263   6.720   0.088
14218W        W84818  32.956  20.524   0.454
14219W        W84819  37.559  38.583   2.796
14220W        W84820   4.425  41.947  13.179
14221W        W84821  35.635  17.329  11.386
14222W        W84822  20.807  28.982   2.334
14223W        W84823   1.836  12.153   0.507
14224W        W84824  26.236  19.592   1.338
14225W        W84825  42.113  21.512  12.001
14226W        W84826  26.102   8.143   3.750
14227W        W84827   1.930  13.917   2.336
14228W        W84828  14.796  10.884   0.105
14229W        W84829  21.484  15.877   2.246
14230W        W84830  39.152  40.256  14.886
14231W        W84831   6.203  16.802   0.867
14232W        W84832  35.238  21.148  12.160
14233W        W84833  41.645  26.548   2.814
14234W        W84834  30.056   8.915   3.593
14235W        W84835  26.983   6.309  11.466
14236W        W84836  36.312  35.872  14.425
14237W        W84837  19.112  43.853  11.143
14238W        W84838  17.719  18.572  11.435
14239W        W84839   4.841  40.576   2.012
14240W        W84840   0.310  21.583   3.597
14241W        W84841  17.349  20.113  13.827
14242W        W84842  12.888  11.122   4.389
14243W        W84843  18.344  11.288   3.410
14244W        W84844   8.779  19.575  10.808
14245W        W84845  32.357  28.746  11.596
14246W        W84846  21.575  14.543  11.943
14247W        W84847   7.088   3.219   4.289
14248W        W84848  38.961   2.397  14.463
14249W        W84849  23.956  18.188   2.878
14250W        W84850  36.466   9.448   0.787
14251W        W84851  15.631   5.378   2.670
14252W        W84852   1.915  34.997  13.486
14253W        W84853  19.505   8.195  11.691
14254W        W84854  37.564  28.955  14.341
14255W        W84855   0.652   7.738   0.661
14256W        W84856  44.757  37.131   0.496
14257W        W84857  30.047  14.743  12.240
14258W        W84858  26.530   6.871  10.652
14259W        W84859  37.486  36.614   2.681
14260W        W84860  19.155  38.735  12.331
14261W        W84861  28.559  29.154  14.257
14262W        W84862  38.876  39.579  10.916
14263W        W84863   3.994  24.775  13.834
14264W        W84864  16.289  41.073  13.909
14265W        W84865  24.081  23.018  12.373
14266W        W84866  34.420  14.697   5.083
14267W        W84867   5.488  44.536   3.642
14268W        W84868  19.152  25.751   0.777
14269W        W84869  40.524  23.564  13.908
14270W        W84870   3.751  16.208   2.254
14271W        W84871   8.223  21.813  12.510
14272W        W84872  43.772  44.982   3.575
14273W        W84873  11.747  30.388   3.077
14274W        W84874  23.089  29.731  11.528
14275W        W84875  30.659  21.130   2.093
14276W        W84876  33.918  13.580  10.447
14277W        W84877  21.746   7.120   1.681
14278W        W84878   2.755  24.023  11.550
14279W        W84879   0.531   6.348   3.243
14280W        W84880   1.016  44.450   2.389
14281W        W84881  41.729  13.078   2.382
14282W        W84882   4.489  19.393  13.366
14283W        W84883  29.363  27.658  14.623
14284W        W84884  16.870  15.138   2.821
14285W        W84885  31.846  24.989   2.358
14286W        W84886   6.156  18.658   3.747
14287W        W84887  44.738  29.178  14.543
14288W        W84888   2.968  26.076   0.928
14289W        W84889   2.702  24.517   1.458
14290W        W84890  31.594   4.806   2.886
14291W        W84891   5.212  27.945  14.374
14292W        W84892  42.908  43.362  10.384
14293W        W84893  18.119  15.632   2.852
14294W        W84894   5.712  10.839   2.546
14295W        W84895  24.359  18.256  12.910
14296W        W84896  34.428  37.020  11.537
14297W        W84897  37.077   8.620   4.548
14298W        W84898  14.554   2.956  12.176
14299W        W84899  14.670  13.081  12.994
14300W        W84900  16.204  27.282   1.366
14301W        W84901  26.054  32.097  11.544
14302W        W84902  32.617  28.654  13.069
14303W        W84903  31.159  38.309  14.351
14304W        W84904  39.188  25.680   0.761
14305W        W84905  13.234  13.843  12.512
14306W        W84906   3.439  31.996  11.366
14307W        W84907  43.071  43.846  12.126
14308W        W84908  35.491  33.153  14.377
14309W        W84909  38.240   2.942  10.388
14310W        W84910   2.991  15.342  12.429
14311W        W84911  33.897  24.681  10.709
14312W        W84912  40.678  22.576  12.376
14313W        W84913  23.184  33.979   2.765
14314W        W84914  16.752  11.753   2.263
14315W        W84915  13.854  11.592  11.534
14316W        W84916  32.047  16.324   2.309
14317W        W84917   3.475  14.525  11.926
14318W        W84918  43.016  38.986   3.765
14319W        W84919   1.864   6.143   3.783
14320W        W84920  19.507  22.062  12.408
14321W        W84921  44.847   9.232  13.327
14322W        W84922  38.406   1.591  11.192
14323W        W84923   0.673   8.643   5.137
14324W        W84924   1.008   3.272   3.593
14325W        W84925   2.722  18.526  13.103
14326W        W84926  22.015  25.204   1.045
14327W        W84927  13.824  16.045  13.379
14328W        W84928  13.305  33.792  10.061
14329W        W84929   8.716  36.535  14.743
14330W        W84930   4.193  10.490  11.145
14331W        W84931  40.433   4.011  13.924
14332W        W84932  12.931  20.138   0.959
14333W        W84933  42.961   6.455  12.068
14334W        W84934  17.768   6.271   1.929
14335W        W84935  28.612  16.420   1.894
14336W        W84936   9.317  38.008  14.913
14337W        W84937  19.976   5.384  10.264
14338W        W84938  23.271  26.999  12.945
14339W        W84939  14.775  13.078   0.279
14340W        W84940  37.337  18.665   2.337
14341W        W84941  30.439   2.210   0.354
14342W        W84942  33.361  42.116  13.949
14343W        W84943   2.917  42.237  13.588
14344W        W84944  21.190  16.335   2.194
14345W        W84945  40.238  21.926  13.788
14346W        W84946  38.505  41.749   3.343
14347W        W84947   9.849  18.648   4.273
14348W        W84948  31.792  43.622  13.341
14349W        W84949  14.026  22.388  14.376
14350W        W84950  21.039  36.760   1.695
14351W        W84951  29.610  36.081  12.060
14352W        W84952  17.046   8.168  14.137
14353W        W84953  37.615  11.386   4.572
14354W        W84954  27.679  37.610   5.321
14355W        W84955   6.908   8.368  14.903
14356W        W84956  28.934  31.910   0.313
14357W        W84957  33.116  19.510   0.740
14358W        W84958   4.087  37.724   5.068
14359W        W84959  23.176  10.851   1.692
14360W        W84960  33.394  38.987   5.031
14361W        W84961  23.005  20.233  11.203
14362W        W84962  37.896  40.091   0.481
14363W        W84963   5.757  24.322   2.440
14364W        W84964  32.807   1.691   3.246
14365W        W84965   7.120  27.495   3.623
14366W        W84966  22.743  15.690  12.076
14367W        W84967  13.692  40.736   1.379
14368W        W84968  40.154  35.707  13.875
14369W        W84969  42.060  16.125   3.262
14370W        W84970  14.739  28.874   4.521
14371W        W84971   0.910  34.107   2.758
14372W        W84972  26.196   1.860  11.587
14373W        W84973   6.829  39.080   1.321
14374W        W84974  36.494  37.733   1.568
14375W        W84975  34.980  27.607  13.319
14376W        W84976  42.515  11.078  13.393
14377W        W84977  36.401  34.162   0.110
14378W        W84978  27.698  29.285   2.918
14379W        W84979   6.164   8.715  12.932
14380W        W84980  35.342  40.473   1.467
14381W        W84981  40.995  15.835  13.404
14382W        W84982  29.087   4.375   4.555
14383W        W84983   4.992  21.125   2.943
14384W        W84984  39.266  11.040   3.344
14385W        W84985  39.539  24.596   0.352
14386W        W84986  30.791   4.790   9.594
14387W        W84987  27.659  20.919  10.050
14388W        W84988  10.148   8.443   2.788
14389W        W84989  15.884  36.544  12.808
14390W        W84990  13.644  34.025   0.963
14391W        W84991  35.649   9.506  14.276
14392W        W84992  44.517  10.830  14.970
14393W        W84993  42.939  17.609   2.776
14394W        W84994  32.845  43.941   0.383
14395W        W84995  41.920  32.091   1.261
14396W        W84996  31.002  24.249  13.965
14397W        W84997  32.432  28.446   1.003
14398W        W84998  43.502   0.252  14.957
14399W        W84999  41.057  32.218  12.501
14400W        W85000   6.007   6.574   3.311
14401W        W85001   3.971  30.678  14.399
14402W        W85002  34.724   2.753  13.008
14403W        W85003  17.397   0.678   0.734
14404W        W85004  11.854  37.176   2.336
14405W        W85005  21.688   8.353   0.329
14406W        W85006  21.124  16.879  11.623
14407W        W85007  16.164  11.158   2.752
14408W        W85008  21.709  21.554  13.882
14409W        W85009  43.891   3.755   2.760
14410W        W85010  34.981  25.707  14.228
14411W        W85011  42.423  32.983  12.416
14412W        W85012   4.827  26.116  12.499
14413W        W85013  24.731  28.930  11.954
14414W        W85014   9.859  28.684  11.275
14415W        W85015  26.176   0.722   3.442
14416W        W85016   7.766  26.479  12.952
14417W        W85017  43.848  10.329   2.886
14418W        W85018  15.341  24.518   2.256
14419W        W85019   4.657   9.444  13.277
14420W        W85020  21.369  36.774  10.733
14421W        W85021  44.504  36.733   4.158
14422W        W85022  13.401  24.879  13.773
14423W        W85023   7.759  21.042  12.407
14424W        W85024  20.798  25.738   0.360
14425W        W85025  16.065  19.204  13.324
14426W        W85026   7.723  23.940  12.933
14427W        W85027  43.305  18.307   2.052
14428W        W85028  40.524  23.109   0.469
14429W        W85029  33.939  42.080  11.199
14430W        W85030  29.025   1.274   1.696
14431W        W85031  40.806  37.380  14.052
14432W        W85032  30.959   3.819  14.583
14433W        W85033   8.302  42.989  11.802
14434W        W85034  40.308  29.482  13.533
14435W        W85035  13.990  33.016   3.081
14436W        W85036   1.917  33.304   0.822
14437W        W85037  15.771   8.205   2.366
14438W        W85038  36.010  34.331   3.643
14439W        W85039  35.546  31.386   4.037
14440W        W85040  30.547   7.013   2.146
14441W        W85041  34.183  43.088   0.384
14442W        W85042  33.164   3.259   3.117
14443W        W85043  15.544  13.611   4.041
14444W        W85044   0.305  32.480   2.800
14445W        W85045  41.494   0.375   0.446
14446W        W85046  25.711  36.969  13.721
14447W        W85047  44.065  21.618   2.389
14448W        W85048   7.448  16.646  13.496
14449W        W85049  17.775   9.683   2.754
14450W        W85050  16.293  16.406   4.025
14451W        W85051   2.318  12.345   1.199
14452W        W85052  12.376  14.148  12.943
14453W        W85053   0.443  31.582   0.920
14454W        W85054  36.476  26.553  13.783
14455W        W85055  25.890  19.879  12.322
14456W        W85056  19.217  23.233   1.843
14457W        W85057  20.517  36.793  13.253
14458W        W85058   4.772  16.825  11.541
14459W        W85059  14.200  18.935   1.732
14460W        W85060  14.558  44.278  13.942
14461W        W85061  18.707   1.957   2.607
14462W        W85062   1.409  37.110  13.758
14463W        W85063  20.999   5.808  14.103
14464W        W85064   2.948  19.549  11.560
14465W        W85065  16.142   9.252  14.473
14466W        W85066  19.397  20.471  11.631
14467W        W85067   3.708  18.497  13.459
14468W        W85068  10.761   3.333  13.898
14469W        W85069  10.230  27.245  14.433
14470W        W85070   8.822  41.757  10.749
14471W        W85071  12.352  18.135  11.670
14472W        W85072   6.179  24.930   1.479
14473W        W85073   4.973  44.007   4.207
14474W        W85074  11.742   4.544   3.836
14475W        W85075  32.961  30.930   1.900
14476W        W85076  42.528  29.905   1.248
14477W        W85077   9.653  43.881  13.406
14478W        W85078  25.349  35.166   4.079
14479W        W85079  21.656  17.936  11.878
14480W        W85080   6.235  20.535  14.889
14481W        W85081   6.354   1.269   0.500
14482W        W85082  35.962  29.037   2.936
14483W        W85083  11.817  18.066  13.935
14484W        W85084  39.836  24.726   4.268
14485W        W85085  26.464   6.732  14.397
14486W        W85086  28.140  15.246  10.569
14487W        W85087  15.202  35.128  14.747
14488W        W85088  12.602  24.071   2.325
14489W        W85089  30.729  28.127  14.438
14490W        W85090  34.673  29.954   4.262
14491W        W85091  29.439  31.399  10.872
14492W        W85092  14.418  29.058   2.700
14493W        W85093  29.211  42.755   0.370
14494W        W85094   2.316  16.879  11.680
14495W        W85095   2.547  21.092   1.752
14496W        W85096  28.003  11.728   1.871
14497W        W85097  38.953  24.087  14.823
14498W        W85098  20.122   8.819   0.974
14499W        W85099  41.685  18.194   1.145
14500W        W85100  18.099  33.223  12.131
14501W        W85101  27.118  33.848  14.033
14502W        W85102  29.141  17.194  11.927
14503W        W85103  17.669  13.598  13.032
14504W        W85104  41.618  24.083  13.565
14505W        W85105  36.106  28.702   3.486
14506W        W85106  43.555  12.776   2.675
14507W        W85107  29.359  29.410   4.068
14508W        W85108  20.125  18.591  12.076
14509W        W85109   8.412   6.769  13.809
14510W        W85110   9.435   4.061   3.369
14511W        W85111  20.232  19.775  12.574
14512W        W85112   8.548  40.573   1.732
14513W        W85113  42.623   6.393  13.557
14514W        W85114  15.200  21.536  11.471
14515W        W85115  40.797  32.559  12.802
14516W        W85116  20.791  27.599  13.853
14517W        W85117  42.259   7.428   2.553
14518W        W85118  37.922  30.015   2.233
14519W        W85119  29.618  26.620  11.100
14520W        W85120  37.582  37.793  12.039
14521W        W85121  20.567  33.318  11.029
14522W        W85122  40.867  16.059  13.874
14523W        W85123  41.229  15.498  12.603
14524W        W85124  22.685  36.348  13.280
14525W        W85125  13.311  10.077   2.374
14526W        W85126   9.365  26.731   2.132
14527W        W85127  16.268  16.688   3.602
14528W        W85128  29.563  17.349  12.670
14529W        W85129  14.163   4.070   1.974
14530W        W85130   7.341   8.436   2.179
14531W        W85131  42.493  33.162   4.568
14532W        W85132   8.625  14.789   3.367
14533W        W85133  14.409   0.195   5.064
14534W        W85134   1.012  19.058   3.617
14535W        W85135   3.513   0.795   0.989
14536W        W85136  35.287  37.103  14.348
14537W        W85137  29.515   5.882   3.630
14538W        W85138  26.783  32.011  12.178
14539W        W85139  35.448   4.774   2.211
14540W        W85140  40.871   8.089  14.282
14541W        W85141  18.272  37.686  13.609
14542W        W85142  22.810  14.150  13.081
14543W        W85143  34.387  43.929  10.664
14544W        W85144  29.164  21.267  12.601
14545W        W85145  38.077   2.438  12.012
14546W        W85146  33.103  43.343  13.456
14547W        W85147  38.230  34.417  14.579
14548W        W85148   0.536   3.840  11.062
14549W        W85149  13.663  14.562   0.746
14550W        W85150  43.344  25.180  14.410
14551W        W85151  35.414  39.013  13.886
14552W        W85152  38.581   4.256  12.613
14553W        W85153  10.654  38.873  14.563
14554W        W85154  44.845  22.272  12.590
14555W        W85155  35.940  35.315  12.630
14556W        W85156  19.656  20.802  11.253
14557W        W85157  16.067  31.055  13.089
14558W        W85158   8.190  27.740  14.356
14559W        W85159  23.711  14.068  13.895
14560W        W85160  18.012  38.550  12.557
14561W        W85161  40.746  29.187   4.767
14562W        W85162  40.767  11.821   1.278
14563W        W85163  13.665  24.414  11.423
14564W        W85164  14.731  15.821   4.639
14565W        W85165  18.156  38.543  13.381
14566W        W85166  10.147  34.107  12.660
14567W        W85167   6.777  25.319   0.377
14568W        W85168   4.929  27.221   4.233
14569W        W85169  28.347   4.431  11.823
14570W        W85170  29.316  18.129  12.848
14571W        W85171  37.961   2.685   3.044
14572W        W85172  29.566   7.713   3.521
14573W        W85173  28.148  13.249   2.480
14574W        W85174  37.485   0.223   0.435
14575W        W85175  23.617  10.388   4.307
14576W        W85176  33.559   4.297  14.426
14577W        W85177  38.422  13.340   1.898
14578W        W85178  29.004   6.174  11.843
14579W        W85179  29.680  30.424  12.534
14580W        W85180   9.403  38.987  11.088
14581W        W85181  18.468  44.956  14.906
14582W        W85182   5.463  42.475   0.338
14583W        W85183  25.816  13.771   0.668
14584W        W85184  23.874  22.188  11.814
14585W        W85185  38.755  29.987  13.110
14586W        W85186  43.752   8.710  14.880
14587W        W85187  31.448  11.976  12.956
14588W        W85188  28.920  16.735   1.644
14589W        W85189   3.695  15.912  11.165
14590W        W85190   7.311  13.063  10.924
14591W        W85191  17.519  35.122  13.451
14592W        W85192  25.733  14.813  11.698
14593W        W85193  14.224  44.154  14.920
14594W        W85194   1.055   0.350  14.837
14595W        W85195  22.738  41.545   3.128
14596W        W85196  20.994  28.552  14.515
14597W        W85197  25.770  16.352  12.923
14598W        W85198  34.055  23.269   1.836
14599W        W85199  19.395   5.820  12.464
14600W        W85200  22.854  43.635  13.704
14601W        W85201  11.642   3.668   1.312
14602W        W85202   5.155   2.835  13.295
14603W        W85203  13.127   4.837   3.546
14604W        W85204  36.996  28.399  10.702
14605W        W85205   0.290  27.693  13.270
14606W        W85206  19.122  32.053   4.204
14607W        W85207  30.564   7.726   1.596
14608W        W85208   0.961  11.050  11.937
14609W        W85209  41.298   7.703   1.396
14610W        W85210  15.345   7.191   3.209
14611W        W85211  32.049   3.844  11.718
14612W        W85212  35.673  42.324   3.197
14613W        W85213   5.239  20.299  11.548
14614W        W85214  33.201  28.715   0.366
14615W        W85215  31.225  33.323   0.424
14616W        W85216  39.248   6.308   2.177
14617W        W85217  26.494  31.663  12.420
14618W        W85218  31.776  14.767  13.133
14619W        W85219  20.777  30.075  12.118
14620W        W85220  16.995  41.987   0.797
14621W        W85221  12.822   9.061   4.927
14622W        W85222  44.501  19.669  14.231
14623W        W85223  14.093  25.614   4.953
14624W        W85224  34.681  27.460   3.423
14625W        W85225  42.326   8.718   4.647
14626W        W85226  32.700   4.941  12.854
14627W        W85227  43.545  38.143   4.096
14628W        W85228  30.700   5.996  11.170
14629W        W85229   8.773  33.947   1.199
14630W        W85230  36.104   5.266  13.137
14631W        W85231  21.149  33.083   3.819
14632W        W85232   2.234   0.880   4.614
14633W        W85233  24.646   2.295   2.460
14634W        W85234  16.895  40.488  13.365
14635W        W85235  33.553  26.489   4.123
14636W        W85236  10.434  35.674   3.694
14637W        W85237   2.008  13.431   0.674
14638W        W85238  42.514  17.505  14.370
14639W        W85239   3.742  44.453   2.601
14640W        W85240  11.128  13.207  12.907
14641W        W85241  12.210  21.168  13.488
14642W        W85242  13.423  36.461  14.007
14643W        W85243   4.408  38.553  14.960
14644W        W85244  16.857   8.198   2.222
14645W        W85245  12.186  33.801   0.280
14646W        W85246   8.998   2.517   1.327
14647W        W85247  41.608  11.528  12.269
14648W        W85248  38.477  38.427   3.952
14649W        W85249  15.060  38.763  11.126
14650W        W85250  16.129  21.689   0.881
14651W        W85251  24.596  22.518  12.976
14652W        W85252   1.067  26.938  14.306
14653W        W85253  10.267  32.374   1.402
14654W        W85254   3.943  42.798  10.143
14655W        W85255   6.823  30.557   3.868
14656W        W85256   6.340  10.389   0.047
14657W        W85257  10.907  20.826  12.912
14658W        W85258  42.352  11.566  13.474
14659W        W85259  20.655  35.865  11.938
14660W        W85260  10.167  39.810  11.024
14661W        W85261  42.840  11.645   4.072
14662W        W85262  16.720  11.070  11.112
14663W        W85263  12.749  16.572  12.013
14664W        W85264  19.243   5.285  14.827
14665W        W85265  30.105  32.799   0.810
14666W        W85266  30.095  38.449   2.387
14667W        W85267  20.504  21.498   3.694
14668W        W85268  10.816  43.657  12.018
14669W        W85269  16.211  39.114  10.385
14670W        W85270  17.281  44.442  13.390
14671W        W85271  20.658  30.167  10.386
14672W        W85272  35.904  40.295   5.033
14673W        W85273   0.743  31.153  11.504
14674W        W85274  20.517  23.581  11.214
14675W        W85275  39.338   5.420   0.479
14676W        W85276  14.572   7.375   0.335
14677W        W85277  20.990   3.459  11.533
14678W        W85278  12.835  32.026  13.092
14679W        W85279  20.780   6.728  12.613
14680W        W85280   4.967   3.903   2.011
14681W        W85281  23.667  34.197   2.821
14682W        W85282  18.079   6.559   4.080
14683W        W85283  12.156  30.189  10.542
14684W        W85284  18.892  36.946  10.908
14685W        W85285   4.733  32.135   0.529
14686W        W85286  35.091  27.374  12.841
14687W        W85287  24.886   3.643   1.812
14688W        W85288  15.352  41.970  11.431
14689W        W85289   0.915  31.596   0.701
14690W        W85290  38.106  38.392   2.088
14691W        W85291   6.415   7.228   3.802
14692W        W85292   8.893  20.590  11.590
14693W        W85293  21.974   4.213  13.575
14694W        W85294   8.302  25.137   2.411
14695W        W85295  26.104  28.544  14.691
14696W        W85296  43.328  20.730  12.424
14697W        W85297  25.789  36.848  12.903
14698W        W85298  11.134  27.948   4.590
14699W        W85299  19.302  34.114   4.035
14700W        W85300  17.840  17.233   2.134
14701W        W85301  42.065  40.697   3.218
14702W        W85302  18.712  17.475  12.480
14703W        W85303  11.174  18.836  14.021
14704W        W85304  24.392  31.925   3.777
14705W        W85305  31.130  20.070  14.211
14706W        W85306  34.325  43.588  12.973
14707W        W85307  26.099   9.263   3.398
14708W        W85308  14.411  18.542  12.544
14709W        W85309  25.029  26.666  11.690
14710W        W85310   7.407  12.828   4.357
14711W        W85311  20.459  42.035   0.299
14712W        W85312  30.067   1.678  14.723
14713W        W85313  15.694  26.456  14.352
14714W        W85314  24.697  18.724   1.450
14715W        W85315  20.167   1.309   3.610
14716W        W85316   6.228  18.689   2.814
14717W        W85317  38.406  36.886   4.623
14718W        W85318  38.630  18.619   1.855
14719W        W85319  28.599  21.064   3.125
14720W        W85320   2.186  23.398   4.544
14721W        W85321  26.141  13.609   2.060
14722W        W85322   7.079  41.744  14.422
14723W        W85323  25.545  41.062  13.934
14724W        W85324   2.336  22.701  11.157
14725W        W85325  12.802  16.866   3.789
14726W        W85326  32.083  30.986  11.796
14727W        W85327   6.589  41.808   0.443
14728W        W85328   7.881   4.400   1.310
14729W        W85329   8.998  33.619  11.177
14730W        W85330   8.297  31.948  14.776
14731W        W85331  18.632  15.156   2.262
14732W        W85332  30.772  18.694  12.559
14733W        W85333   8.778  14.149   1.691
14734W        W85334  18.247  15.216  12.941
14735W        W85335  20.167  41.093   4.016
14736W        W85336  31.893  41.011  14.433
14737W        W85337  26.682  33.571  14.011
14738W        W85338  27.050  18.332   2.807
14739W        W85339  38.081   4.848  12.126
14740W        W85340  23.289  24.300  11.915
14741W        W85341  19.567  19.089  14.554
14742W        W85342  40.018   6.903   1.840
14743W        W85343  42.162  21.175   2.771
14744W        W85344  29.029  13.094  13.458
14745W        W85345  29.080  31.595   2.164
14746W        W85346  22.002  38.882   2.793
14747W        W85347  27.424  24.702  11.233
14748W        W85348  23.956  39.944   2.468
14749W        W85349   0.053  38.421   1.720
14750W        W85350   8.221  33.099   4.657
14751W        W85351  11.833  22.301   2.168
14752W        W85352  14.741  31.669   0.886
14753W        W85353   4.233  26.317  13.104
14754W        W85354  40.986  37.888  12.620
14755W        W85355   1.006  12.314  14.458
14756W        W85356  38.130  27.508   2.938
14757W        W85357  11.711  17.468  14.372
14758W        W85358  20.238  31.551  12.986
14759W        W85359  39.244  27.226  13.565
14760W        W85360  40.585  41.917   3.192
14761W        W85361  29.477   4.841  14.850
14762W        W85362   0.027   3.735   2.123
14763W        W85363  12.826  35.326   4.252
14764W        W85364   2.883  24.246  13.561
14765W        W85365  37.891   5.235  14.037
14766W        W85366  22.832  43.478  11.853
14767W        W85367  30.451   8.887   1.239
14768W        W85368  13.816  28.966   4.879
14769W        W85369   4.741  12.504   3.326
14770W        W85370   6.460   6.145   1.326
14771W        W85371  39.918  25.546   2.984
14772W        W85372  36.347  21.510  13.900
14773W        W85373  19.323  30.618  11.146
14774W        W85374  38.328  12.493   4.115
14775W        W85375  36.018  10.831   0.300
14776W        W85376  23.817  38.635   3.039
14777W        W85377  28.121  21.256   3.123
14778W        W85378  26.711   0.028   4.733
14779W        W85379  43.792  34.894   2.909
14780W        W85380   5.945  31.823   3.208
14781W        W85381  23.603  13.849   4.421
14782W        W85382  42.578  13.630   3.419
14783W        W85383  38.057  22.066  10.980
14784W        W85384  16.002  31.998  12.470
14785W        W85385   8.722  16.327   2.941
14786W        W85386  11.773  27.237  13.990
14787W        W85387   4.623   1.465  12.474
14788W        W85388  44.487   4.778   9.935
14789W        W85389  32.512  41.072   5.190
14790W        W85390  25.685  33.950   0.980
14791W        W85391   6.898  36.553  14.384
14792W        W85392   2.015  10.424  13.028
14793W        W85393  44.604  13.078   2.238
14794W        W85394  22.303   9.232   4.168
14795W        W85395  21.245  13.636   4.144
14796W        W85396  15.829  33.039  14.633
14797W        W85397   4.424  32.703  10.797
14798W        W85398  14.401  11.514  10.325
14799W        W85399   9.268  14.247  11.012
14800W        W85400  41.448  31.389   3.422
14801W        W85401  34.550   1.961  13.347
14802W        W85402   6.104  40.833   2.753
14803W        W85403  34.649   8.636  12.691
14804W        W85404  28.627  40.490  11.663
14805W        W85405   4.557  16.132   2.628
14806W        W85406  41.112   0.660   1.796
14807W        W85407   1.012  26.408   0.884
14808W        W85408  37.982  35.485  11.781
14809W        W85409  28.397  29.581  14.778
14810W        W85410  22.758  44.332   2.830
14811W        W85411   0.153   4.452   0.063
14812W        W85412  40.446  20.375   0.236
14813W        W85413  37.772  38.047   4.247
14814W        W85414   3.891  41.818  14.784
14815W        W85415  23.195  20.747  11.292
14816W        W85416   8.905   9.873  13.754
14817W        W85417  25.195  15.324  11.083
14818W        W85418  23.474  18.006   2.836
14819W        W85419  20.285  42.305   1.798
14820W        W85420  13.735   7.211   0.932
14821W        W85421   6.269  27.615  13.852
14822W        W85422  18.181  11.747  11.709
14823W        W85423  21.647  25.339   2.724
14824W        W85424  20.611  17.170  13.461
14825W        W85425   0.745  41.804   4.330
14826W        W85426  37.876  42.414   1.749
14827W        W85427  35.893  32.828  14.353
14828W        W85428   4.467  44.809   2.348
14829W        W85429  36.622  22.780  13.070
14830W        W85430  31.744   7.953   3.366
14831W        W85431  26.846   2.310  11.135
14832W        W85432  43.906  19.343  13.244
14833W        W85433  27.568  19.569  12.021
14834W        W85434  39.040  34.306  12.973
14835W        W85435  16.221  32.663  13.863
14836W        W85436  38.585   6.451   4.791
14837W        W85437  14.792   7.451   3.719
14838W        W85438   2.275  43.910   3.625
14839W        W85439   7.465  10.208   2.444
14840W        W85440   5.381  18.988  11.224
14841W        W85441  25.120  35.371  12.266
14842W        W85442  28.008  15.570   0.863
14843W        W85443  29.871  14.252   3.675
14844W        W85444  15.271  36.409  11.273
14845W        W85445   2.205   5.189   3.766
14846W        W85446  36.578  39.205  12.403
14847W        W85447  12.135  24.688  10.678
14848W        W85448  23.543  43.352  14.252
14849W        W85449   7.767  26.478  14.702
14850W        W85450  37.118  20.621  13.326
14851W        W85451   0.589  42.386   4.195
14852W        W85452  39.666  21.293   2.254
14853W        W85453  36.448  28.180   4.236
14854W        W85454  27.324  17.067   0.405
14855W        W85455  17.566  44.385  12.386
14856W        W85456  36.282  22.444   0.336
14857W        W85457  26.776  35.386  11.505
14858W        W85458  21.499  38.554   4.498
14859W        W85459  26.134  15.889  13.748
14860W        W85460  16.278  32.908   1.777
14861W        W85461  43.989  20.670   3.347
14862W        W85462   6.938  16.278  10.667
14863W        W85463   7.871  13.680  14.300
14864W        W85464  41.334  34.269   2.796
14865W        W85465   9.903  12.190  14.447
14866W        W85466  44.899  23.584   2.672
14867W        W85467  42.486  41.287  12.991
14868W        W85468  18.287   4.837  13.692
14869W        W85469  27.096  12.281  13.932
14870W        W85470  35.867  12.728   2.859
14871W        W85471  24.913   0.950   4.801
14872W        W85472  39.274  24.765  14.908
14873W        W85473  41.003  26.323  14.903
14874W        W85474  28.624   0.479  10.994
14875W        W85475  14.121  36.060  12.454
14876W        W85476  22.577  16.526  11.393
14877W        W85477  40.567   0.548  12.385
14878W        W85478  12.156  32.435  13.009
14879W        W85479   7.414  11.942   4.523
14880W        W85480  18.757   0.207   2.767
14881W        W85481  37.638   7.283  11.934
14882W        W85482   0.990   3.322   4.579
14883W        W85483  24.330  25.156   3.318
14884W        W85484  30.331   7.237   1.745
14885W        W85485  20.774  31.410  12.063
14886W        W85486   3.522  28.839  10.468
14887W        W85487  20.697   2.992   2.713
14888W        W85488  13.135  28.866   2.277
14889W        W85489   0.987  25.113  10.348
14890W        W85490   5.211  19.513  11.222
14891W        W85491  24.450  12.137   3.172
14892W        W85492  21.098  37.393  11.256
14893W        W85493  37.316  29.091   4.693
14894W        W85494   8.233  37.249   0.034
14895W        W85495  19.633  44.170   5.063
14896W        W85496  12.717  19.816   3.092
14897W        W85497  22.533  13.672  12.952
14898W        W85498   3.291  27.853  12.137
14899W        W85499  29.551   8.382  12.002
14900W        W85500  21.470  13.693   4.613
14901W        W85501  35.357  24.938  12.925
14902W        W85502  10.825   5.284  11.156
14903W        W85503   9.304  17.766  11.042
14904W        W85504  44.982   1.786   0.477
14905W        W85505  29.006  12.646  11.487
14906W        W85506  19.214  44.837  14.395
14907W        W85507  44.154   6.208   1.193
14908W        W85508  30.441  10.759   4.500
14909W        W85509  39.467  38.879  12.574
14910W        W85510   2.289   2.279  10.707
14911W        W85511  43.610  44.696   3.156
14912W        W85512  14.322  20.064   0.449
14913W        W85513   0.440   1.610  12.600
14914W        W85514  10.824  31.949   3.753
14915W        W85515  37.074  36.557   0.399
14916W        W85516  10.371  20.469  14.022
14917W        W85517  38.034  15.763  14.969
14918W        W85518  42.069   0.550   1.945
14919W        W85519   4.953  41.998  13.329
14920W        W85520   9.625  10.194  13.462
14921W        W85521  16.168  13.375   2.328
14922W        W85522  36.134  40.969  11.112
14923W        W85523  17.880  21.216   1.352
14924W        W85524  39.627   8.705   2.437
14925W        W85525   7.873  21.721  13.863
14926W        W85526   1.496  35.595   1.347
14927W        W85527  19.194  40.019   4.105
14928W        W85528   4.993  17.135   4.152
14929W        W85529  10.146  11.156  11.508
14930W        W85530  37.509  38.856  10.984
14931W        W85531  33.681  31.081   2.897
14932W        W85532  30.024  33.974   4.635
14933W        W85533  27.417  27.405  12.147
14934W        W85534  16.166  26.688  12.072
14935W        W85535   4.779  42.399  14.046
14936W        W85536  19.066  18.338  14.356
14937W        W85537   9.063  39.017  10.703
14938W        W85538  26.464   5.172   3.454
14939W        W85539   2.168  34.142  12.212
14940W        W85540  19.111  26.593  13.325
14941W        W85541   6.909   4.025   3.390
14942W        W85542  14.597   1.790   4.589
14943W        W85543  11.149   7.560  13.818
14944W        W85544   9.883  22.222   1.145
14945W        W85545  25.601  35.374   2.625
14946W        W85546  27.233   9.851  12.538
14947W        W85547  43.740  27.140  13.828
14948W        W85548  26.101   5.820  13.943
14949W        W85549  30.750   7.153   4.129
14950W        W85550  28.520  43.870   1.127
14951W        W85551   9.286   7.904  13.259
14952W        W85552   5.879  19.327  10.546
14953W        W85553   9.633  42.696  13.742
14954W        W85554  30.454  12.481   0.098
14955W        W85555  20.510  40.465   2.874
14956W        W85556  24.229  36.987   2.803
14957W        W85557  27.008  31.665   0.776
14958W        W85558  25.662   8.739   4.889
14959W        W85559  17.066   5.422   3.240
14960W        W85560  13.715   3.280  10.503
14961W        W85561   1.894  42.995  11.036
14962W        W85562  33.611  14.094  11.827
14963W        W85563  40.241  36.797  14.949
14964W        W85564  17.176  40.304   2.498
14965W        W85565  39.132  37.421  11.992
14966W        W85566  20.560  30.377  11.676
14967W        W85567  43.781  16.320  12.134
14968W        W85568  15.374  38.400   1.886
14969W        W85569   7.753  41.275   4.074
14970W        W85570  12.755  22.223  12.131
14971W        W85571  39.813   7.225  11.240
14972W        W85572  26.624  34.093   3.083
14973W        W85573   2.474  44.308   1.612
14974W        W85574  18.228  33.190   1.891
14975W        W85575   4.332  39.440  14.361
14976W        W85576  38.200   2.941   3.826
14977W        W85577  42.420  24.157   1.194
14978W        W85578  37.746  19.957  11.126
14979W        W85579  20.167  32.431   4.633
14980W        W85580   7.997  25.586  14.833
14981W        W85581  29.083  13.366  14.497
14982W        W85582  25.165   8.188   3.121
14983W        W85583  15.756   3.712   0.911
14984W        W85584   4.893  13.704  12.692
14985W        W85585  31.056  40.865  13.786
14986W        W85586  37.254  14.646   3.331
14987W        W85587  41.449  10.375  13.048
14988W        W85588  20.847  20.281   0.875
14989W        W85589  33.383  12.627   0.177
14990W        W85590   6.669   9.296  12.228
14991W        W85591  33.922   7.811  11.181
14992W        W85592  37.112   8.727   1.883
14993W        W85593   9.457  21.595  12.969
14994W        W85594  39.894   0.726  13.934
14995W        W85595  14.004   2.933   4.187
14996W        W85596  29.694  26.504   1.363
14997W        W85597  33.602  31.154   1.417
14998W        W85598   3.864  35.122   0.887
14999W        W85599   5.978  25.439   0.011
15000W        W85600  34.387  29.144   4.514
15001W        W85601  12.357  35.853   2.378
15002W        W85602   3.807   6.222   2.948
15003W        W85603   2.003   7.210   1.878
15004W        W85604  42.610  17.674   4.124
15005W        W85605  32.750  22.005   1.445
15006W        W85606  11.344  40.648  12.673
15007W        W85607  44.304  40.293   1.441
15008W        W85608  17.620  22.508   1.842
15009W        W85609  18.289  15.701  13.132
15010W        W85610   6.854  44.755   3.264
15011W        W85611   4.853  36.469   3.527
15012W        W85612  14.084  41.536   5.395
15013W        W85613  41.537  15.984   3.168
15014W        W85614   6.740   2.968  10.853
15015W        W85615  14.441  16.452   1.693
15016W        W85616  44.647  36.953   1.353
15017W        W85617  37.820  43.563  13.307
15018W        W85618  40.310   3.799  14.428
15019W        W85619  34.328  15.368  11.203
15020W        W85620  31.115  28.875  11.089
15021W        W85621  23.749  25.564  12.355
15022W        W85622  12.734  13.392   3.183
15023W        W85623  21.979  15.545   3.649
15024W        W85624  14.041  44.843  14.351
15025W        W85625  30.913  30.237   1.205
15026W        W85626  39.513  19.696  12.145
15027W        W85627  20.243  17.549  14.311
15028W        W85628  16.250  41.702  10.618
15029W        W85629  40.517  28.223  14.088
15030W        W85630  21.849  25.226  11.117
15031W        W85631  42.262  25.882  11.036
15032W        W85632  37.358   5.831  12.572
15033W        W85633  44.702  24.237   2.360
15034W        W85634  35.601  39.082   1.599
15035W        W85635  27.206  36.946   4.255
15036W        W85636  40.472  18.372  10.912
15037W        W85637   5.703  16.610  14.079
15038W        W85638   2.283   9.886  11.034
15039W        W85639  10.766  34.650  14.307
15040W        W85640  16.961   7.348  11.667
15041W        W85641  18.395   0.419   0.745
15042W        W85642  39.064  21.618   0.361
15043W        W85643  15.559   6.461  10.608
15044W        W85644  43.068  19.806  12.880
15045W        W85645  35.524  17.627  14.773
15046W        W85646   9.172  21.073   1.372
15047W        W85647  40.797  29.543  10.629
15048W        W85648  39.020  14.338  12.617
15049W        W85649  23.268  17.291  13.848
15050W        W85650  35.387   6.432   4.813
15051W        W85651   6.430  25.424   2.985
15052W        W85652   1.208   3.811  11.605
15053W        W85653  44.030   8.408   3.694
15054W        W85654   1.938  34.131  12.966
15055W        W85655   7.439  28.384  13.254
15056W        W85656   0.962  35.007   0.221
15057W        W85657   8.415  14.096   2.305
15058W        W85658  27.147   8.459  10.969
15059W        W85659  20.041   1.051   4.201
15060W        W85660   3.063  33.567  11.434
15061W        W85661  15.134  25.836   4.052
15062W        W85662   8.587  43.485  12.976
15063W        W85663  32.601  12.109   3.901
15064W        W85664  10.741   2.406  12.469
15065W        W85665  29.069   8.147  14.008
15066W        W85666  19.652  32.711  13.901
15067W        W85667   5.263   8.367  13.452
15068W        W85668  35.396  23.127  11.306
15069W        W85669  38.928  13.904  12.056
15070W        W85670   2.197  14.114  11.192
15071W        W85671  30.954  34.110  11.982
15072W        W85672  41.436  43.402   1.257
15073W        W85673   7.830  11.114  11.975
15074W        W85674   5.635  19.570  10.950
15075W        W85675  43.302  35.983   2.204
15076W        W85676  44.515  31.137   3.885
15077W        W85677  28.106  31.946  11.046
15078W        W85678   6.826  27.494   3.167
15079W        W85679   8.432  34.892   0.802
15080W        W85680  12.299  42.379  13.623
15081W        W85681  22.334  13.025  11.395
15082W        W85682  41.021  22.041  14.750
15083W        W85683   3.965  42.492  14.485
15084W        W85684  21.515   1.448  13.132
15085W        W85685  24.253  19.015   3.857
15086W        W85686  19.709   1.221   3.839
15087W        W85687  32.695  15.737  14.374
15088W        W85688  23.055  43.357   4.595
15089W        W85689  30.510  11.325  13.050
15090W        W85690  25.104   1.274  13.435
15091W        W85691  43.994   7.800   3.730
15092W        W85692  40.493  31.626   1.266
15093W        W85693  26.998  42.310   4.174
15094W        W85694  19.123  37.635   0.956
15095W        W85695  36.456  20.678  11.619
15096W        W85696  27.404   4.135   3.901
15097W        W85697  21.504   0.248   0.708
15098W        W85698  24.626  18.686   3.953
15099W        W85699  25.261  41.335   3.802
15100W        W85700  41.917  42.700  13.580
15101W        W85701   3.965  22.187   4.625
15102W        W85702  40.398  22.338  14.704
15103W        W85703   2.996   1.067  10.470
15104W        W85704   3.849   0.249  11.489
15105W        W85705   1.493  13.750   3.215
15106W        W85706  28.516  28.190   3.687
15107W        W85707  41.515   0.187  10.552
15108W        W85708  19.140  30.353   2.260
15109W        W85709   1.959  37.509  14.023
15110W        W85710  31.405  22.488   2.491
15111W        W85711  20.815  40.979  14.413
15112W        W85712  31.876  23.647  11.160
15113W        W85713   7.696  10.607   2.206
15114W        W85714  23.232  40.538  13.449
15115W        W85715  30.326   9.522   2.219
15116W        W85716  43.300  25.078  13.854
15117W        W85717  23.083  26.503  12.853
15118W        W85718   8.424  32.937  14.905
15119W        W85719  42.287  17.381  14.801
15120W        W85720   3.734  38.572   4.113
15121W        W85721  12.175  28.095  13.498
15122W        W85722   5.369   0.157   2.063
15123W        W85723  42.887  40.964  13.763
15124W        W85724   6.703  19.688   0.835
15125W        W85725  10.067   3.851  14.464
15126W        W85726   6.842  23.752   0.277
15127W        W85727  28.739  10.613  12.949
15128W        W85728  34.997   2.113  12.298
15129W        W85729  33.963  21.977   3.175
15130W        W85730  11.090   3.162  13.329
15131W        W85731   1.412  28.185   0.753
15132W        W85732  27.191  27.314  10.703
15133W        W85733  37.804  10.794  12.121
15134W        W85734   3.357  23.796   4.293
15135W        W85735  10.159   5.607  13.321
15136W        W85736  14.135  32.656  14.538
15137W        W85737  29.546  17.194   2.974
15138W        W85738   4.704  28.862  13.944
15139W        W85739  41.998  30.508   0.898
15140W        W85740   1.815   8.754  14.904
15141W        W85741  21.758   1.448   3.332
15142W        W85742   6.176  14.795  12.028
15143W        W85743  12.098  10.046  11.130
15144W        W85744  44.473  40.710  10.667
15145W        W85745  14.826  12.742  14.277
15146W        W85746  14.646   9.434   0.672
15147W        W85747  16.749  34.893  10.918
15148W        W85748  32.895  26.705   4.097
15149W        W85749   5.466  23.470   0.880
15150W        W85750  40.866   1.926  11.854
15151W        W85751   2.508  23.993   4.815
15152W        W85752  27.155   6.741   3.680
15153W        W85753   8.007   2.691  13.300
15154W        W85754  21.291  29.008   2.159
15155W        W85755  25.643  20.525  10.641
15156W        W85756  41.318  31.886   4.135
15157W        W85757  43.355  34.932   4.090
15158W        W85758  41.894  11.198   0.228
15159W        W85759  28.549   5.341  12.879
15160W        W85760  25.720  19.588  10.545
15161W        W85761   7.844  36.466   4.049
15162W        W85762  14.279   2.736   0.306
15163W        W85763   5.151  35.561  14.910
15164W        W85764   0.329   1.772  11.741
15165W        W85765  30.963  42.992   4.189
15166W        W85766   6.100  44.117  11.482
15167W        W85767  43.743  19.415   1.263
15168W        W85768  41.965  13.637   4.603
15169W        W85769  37.495  33.620  14.763
15170W        W85770   0.073  38.579   4.163
15171W        W85771  13.131  12.969   1.420
15172W        W85772  31.876   7.685  12.044
15173W        W85773   3.674   1.983  14.486
15174W        W85774  27.910  17.546  12.365
15175W        W85775  41.294  12.917   0.832
15176W        W85776   0.018   2.706  13.858
15177W        W85777  11.336  34.611   3.443
15178W        W85778  26.161  22.522   3.751
15179W        W85779  41.857   6.316   0.940
15180W        W85780   4.811  34.938   4.104
15181W        W85781  12.010  21.105   2.310
15182W        W85782  26.985  28.460  14.880
15183W        W85783  19.083   8.749  12.539
15184W        W85784  14.420   8.357   2.845
15185W        W85785  18.137  20.494   4.847
15186W        W85786   3.356   9.341  10.753
15187W        W85787  12.363  32.935  11.146
15188W        W85788   3.377  41.333   3.431
15189W        W85789  29.532  38.915  10.184
15190W        W85790  34.118   0.420   3.392
15191W        W85791  14.564  12.820  12.471
15192W        W85792  38.259  28.162   1.254
15193W        W85793  42.128   3.670   4.931
15194W        W85794  16.584   3.279   0.834
15195W        W85795   4.001  35.849   4.913
15196W        W85796   0.975  42.064  12.921
15197W        W85797   4.331  44.352  11.433
15198W        W85798  17.429  27.996  11.087
15199W        W85799  25.661  13.861   1.923
15200W        W85800  29.141  34.747   0.708
15201W        W85801  18.760  35.800   4.514
15202W        W85802  23.225   8.023  13.352
15203W        W85803  32.721  23.016   3.494
15204W        W85804  12.841  23.599   2.417
15205W        W85805  12.977  23.707   3.646
15206W        W85806  25.792   3.308   2.620
15207W        W85807   2.893   1.660   2.842
15208W        W85808   3.767  36.357  12.363
15209W        W85809  11.048   4.389  12.251
15210W        W85810  31.050  37.014  13.847
15211W        W85811  12.248  18.323  14.516
15212W        W85812  11.096  32.491   0.831
15213W        W85813  29.074  42.662  11.224
15214W        W85814  29.450  39.982  11.246
15215W        W85815  37.528  10.476   4.533
15216W        W85816   4.945   9.379   3.900
15217W        W85817  44.896  26.978  12.474
15218W        W85818  20.924   9.696  14.287
15219W        W85819  13.810  24.255  13.380
15220W        W85820  22.468  41.921   2.278
15221W        W85821  41.495  44.764  12.060
15222W        W85822   2.731  36.670   4.260
15223W        W85823  28.489   7.054   3.811
15224W        W85824  44.828  10.630   2.859
15225W        W85825  21.098  27.460   2.709
15226W        W85826   5.907  14.640   4.228
15227W        W85827  24.726   7.777   1.307
15228W        W85828  41.422  28.518  14.238
15229W        W85829   7.405  18.211   1.874
15230W        W85830  44.462   3.936  11.220
15231W        W85831   9.736  42.044   3.223
15232W        W85832  36.785  13.740  11.244
15233W        W85833  32.559  43.644   2.249
15234W        W85834  29.344  21.240  14.123
15235W        W85835  12.377  11.407   0.760
15236W        W85836   6.114  44.757   1.561
15237W        W85837   9.751   8.489   4.649
15238W        W85838  21.729  22.835  11.774
15239W        W85839   2.612  20.864   4.102
15240W        W85840  23.858  23.726   1.266
15241W        W85841   6.415  29.954  12.592
15242W        W85842  16.676  32.079  14.914
15243W        W85843  42.897  24.664   0.846
15244W        W85844  19.060  28.759  12.531
15245W        W85845  12.375  12.334  10.781
15246W        W85846  17.211   8.960   5.155
15247W        W85847  23.264  30.232  14.480
15248W        W85848   7.884   8.935   2.794
15249W        W85849  12.656  32.301  10.700
15250W        W85850  28.762  29.945   0.870
15251W        W85851  27.617  27.032   1.726
15252W        W85852   0.444  43.747  13.751
15253W        W85853  10.625  41.992  11.790
15254W        W85854  27.430  34.463  10.770
15255W        W85855  42.395  41.995   2.236
15256W        W85856   1.405  28.640  12.659
15257W        W85857   7.831  43.569  13.422
15258W        W85858  11.263   8.683   1.460
15259W        W85859  20.158  24.159   4.079
15260W        W85860  25.809   2.013   1.276
15261W        W85861   4.951  22.091   0.173
15262W        W85862   0.359  14.187  11.151
15263W        W85863  27.451  44.033   2.304
15264W        W85864  16.908  18.973  14.081
15265W        W85865  19.466  39.968   9.901
15266W        W85866   4.290  24.062   2.350
15267W        W85867  40.393  23.985  14.237
15268W        W85868  27.661  34.943   3.892
15269W        W85869  18.606  42.698  14.355
15270W        W85870  31.097  34.491  11.587
15271W        W85871  25.309  16.617   4.810
15272W        W85872  26.753  10.590  12.468
15273W        W85873   3.985  29.470  14.090
15274W        W85874  11.490   6.403  13.088
15275W        W85875   9.645  20.455  12.459
15276W        W85876  11.848   7.729   0.495
15277W        W85877  42.067  27.681  12.416
15278W        W85878  18.762  41.827   4.617
15279W        W85879  39.834   6.721   1.357
15280W        W85880  29.596  40.466  12.517
15281W        W85881  43.846  43.322  14.424
15282W        W85882  32.641   2.531  14.942
15283W        W85883  28.223  36.639  10.608
15284W        W85884  42.926  11.360   0.794
15285W        W85885  36.946  37.288  12.590
15286W        W85886  35.391  29.626   4.627
15287W        W85887  18.018   7.301   0.490
15288W        W85888   1.050   0.720   3.826
15289W        W85889  40.775  10.204  14.728
15290W        W85890  25.869  20.098   3.119
15291W        W85891   6.205   1.794  10.764
15292W        W85892  15.255  21.192  10.689
15293W        W85893  24.691  22.083   3.096
15294W        W85894   0.967  33.034   2.914
15295W        W85895  12.031  42.310  10.588
15296W        W85896  38.001  17.830  12.385
15297W        W85897  44.629  34.330  10.398
15298W        W85898   9.814  22.967  11.491
15299W        W85899  35.073   1.760   0.692
15300W        W85900  44.318  42.107   0.980
15301W        W85901   7.927  37.469  10.024
15302W        W85902  23.094  43.421   3.636
15303W        W85903  34.255  36.481   4.855
15304W        W85904  20.134  27.978  12.647
15305W        W85905  41.580   8.407   0.879
15306W        W85906  18.738  20.816   4.567
15307W        W85907   1.450  20.759  12.046
15308W        W85908  25.817   1.013   0.474
15309W        W85909  27.498  17.821  12.523
15310W        W85910  11.832  28.175   3.262
15311W        W85911  26.542  33.386  11.707
15312W        W85912   4.355   8.431  10.541
15313W        W85913   4.243   9.149  11.218
15314W        W85914  10.174  39.172  11.658
15315W        W85915  44.193  15.775   2.767
15316W        W85916  34.053  25.837  11.572
15317W        W85917  41.036  18.051  12.537
15318W        W85918   7.725  19.502  12.473
15319W        W85919   1.437  39.406   0.434
15320W        W85920  22.657  15.495   4.114
15321W        W85921  29.759  38.210  14.393
15322W        W85922   8.240  31.024   1.861
15323W        W85923  26.396  35.604  13.042
15324W        W85924  14.285  29.384  10.788
15325W        W85925  36.624  12.137  13.105
15326W        W85926   8.294  19.351  10.746
15327W        W85927  26.582  37.572  14.819
15328W        W85928  26.557  44.398   0.944
15329W        W85929  18.595  10.812  10.747
15330W        W85930  22.118   8.406  10.581
15331W        W85931  36.634  26.760  14.228
15332W        W85932  31.167  42.588   5.025
15333W        W85933  16.037  11.363   3.724
15334W        W85934  12.916  34.158  11.608
15335W        W85935  21.611   4.692  14.398
15336W        W85936   7.189  38.995  13.081
15337W        W85937  24.229  35.491  11.976
15338W        W85938  14.427   0.593  14.541
15339W        W85939  27.965   6.767  13.418
15340W        W85940  38.402  34.437   3.946
15341W        W85941  19.811  41.319   4.684
15342W        W85942  27.555  26.602   4.403
15343W        W85943  18.093  42.148  13.127
15344W        W85944  25.710   9.010  10.175
15345W        W85945  32.468  35.141  11.072
15346W        W85946  22.806  21.039   5.068
15347W        W85947  42.894  28.847  14.311
15348W        W85948  38.790  37.500   2.322
15349W        W85949  43.793   5.211   3.081
15350W        W85950  37.935  19.577   0.149
15351W        W85951   3.332  40.994   0.396
15352W        W85952  13.659  44.214  10.695
15353W        W85953  43.286  36.880  13.940
15354W        W85954  30.064  34.291  13.532
15355W        W85955  21.898   2.366  12.869
15356W        W85956  22.060   3.865   1.288
15357W        W85957  13.738  44.972   4.488
15358W        W85958  36.763  21.129   3.551
15359W        W85959  40.393  32.279  13.999
15360W        W85960  28.625   7.543   3.931
15361W        W85961  26.238  23.986   2.703
15362W        W85962  16.315  34.055  11.314
15363W        W85963  23.451  28.447   1.257
15364W        W85964  15.582   2.745   3.157
15365W        W85965  15.649  28.888   1.438
15366W        W85966  41.081  16.149   2.242
15367W        W85967  17.990   4.321   2.773
15368W        W85968  25.228  41.960   1.636
15369W        W85969  19.551  28.611   0.292
15370W        W85970  25.929   2.456   1.066
15371W        W85971  11.333   1.987   4.625
15372W        W85972   9.193  33.505  11.641
15373W        W85973  22.801  20.303  14.386
15374W        W85974  44.999  37.477   2.316
15375W        W85975   7.364  31.759  14.113
15376W        W85976  24.031  10.842   2.671
15377W        W85977  29.225  32.647  12.262
15378W        W85978  27.015  17.630  12.450
15379W        W85979  39.102  18.619  14.496
15380W        W85980  42.323  20.453   2.283
15381W        W85981  14.247  15.310  12.742
15382W        W85982  11.192  10.524  12.169
15383W        W85983  22.116   2.280   4.501
15384W        W85984  15.631  14.774   2.621
15385W        W85985  15.022  41.064  13.192
15386W        W85986  14.651  28.883   0.396
15387W        W85987   5.824  39.263   1.446
15388W        W85988  29.929  16.607   1.897
15389W        W85989  16.679  38.860  12.326
15390W        W85990  26.393  26.730   1.474
15391W        W85991  13.796  41.992   0.653
15392W        W85992  24.338  36.453   4.898
15393W        W85993  36.776  30.171   1.830
15394W        W85994  38.348  44.671  14.943
15395W        W85995  10.077  35.082   3.121
15396W        W85996  28.188  11.231  10.350
15397W        W85997  26.042  38.854  10.064
15398W        W85998  28.651  41.061   0.992
15399W        W85999  33.433  11.221   2.634
15400W        W86000   7.080  14.689   0.006
15401W        W86001   2.833   9.051  13.923
15402W        W86002  19.299   2.056  11.303
15403W        W86003  32.657  44.969   1.166
15404W        W86004  35.626  43.544   0.463
15405W        W86005  17.821   8.191   4.496
15406W        W86006  38.082  35.852  11.432
15407W        W86007  25.664  34.042   2.942
15408W        W86008  29.200  40.522   0.493
15409W        W86009   9.204  12.173  13.989
15410W        W86010  18.502   4.459   3.789
15411W        W86011  44.931  17.045   4.466
15412W        W86012   8.792  42.311   1.755
15413W        W86013   0.204   0.306   3.657
15414W        W86014  27.451   1.347   2.667
15415W        W86015   1.633   2.712   1.713
15416W        W86016  14.328   5.758   0.313
15417W        W86017  28.492   8.727   0.286
15418W        W86018  11.089  38.560  13.946
15419W        W86019  33.128  43.260  11.381
15420W        W86020  17.747  13.719  14.069
15421W        W86021  26.992  44.356  12.878
15422W        W86022  31.133  30.832  13.417
15423W        W86023  20.591  11.679   4.515
15424W        W86024  31.787  26.758  10.954
15425W        W86025   0.959  33.708  14.078
15426W        W86026  18.646  11.166   3.820
15427W        W86027  36.840   0.521  10.557
15428W        W86028  13.797  19.970   0.751
15429W        W86029   7.938  29.382  13.824
15430W        W86030  41.839  21.753  10.744
15431W        W86031  32.690  34.006   2.820
15432W        W86032  17.581  40.263  12.741
15433W        W86033  39.959  38.442  12.876
15434W        W86034  15.158   4.835  10.366
15435W        W86035  10.223  19.933  14.976
15436W        W86036  25.085  42.072  11.751
15437W        W86037  31.483  27.921   4.145
15438W        W86038  25.377   4.177  14.086
15439W        W86039  29.355  26.335   5.090
15440W        W86040  31.588  31.246  14.936
15441W        W86041  18.076   7.158  14.987
15442W        W86042  19.695  26.965   3.542
15443W        W86043   9.227   9.533   3.266
15444W        W86044  31.150  23.133  13.143
15445W        W86045   5.954   1.926  14.974
15446W        W86046  25.440  18.630  13.745
15447W        W86047  17.840  39.337   1.968
15448W        W86048  40.961   6.950   5.081
15449W        W86049  26.544  38.003   1.885
15450W        W86050   2.742  17.707  10.715
15451W        W86051  25.249  41.746   0.015
15452W        W86052  12.261   5.638   4.528
15453W        W86053  16.886  43.356  13.862
15454W        W86054   3.245  39.699   0.906
15455W        W86055  40.498  24.165   0.448
15456W        W86056  16.545  16.180   3.622
15457W        W86057   0.873  10.835  13.531
15458W        W86058  12.328  22.720  13.583
15459W        W86059  22.130  23.148   0.626
15460W        W86060  30.873  43.754  12.377
15461W        W86061  10.098  20.685  14.403
15462W        W86062  12.159   2.698  11.622
15463W        W86063  18.621  23.442   1.815
15464W        W86064  12.086  40.367   2.727
15465W        W86065  14.194   1.888  12.079
15466W        W86066   7.823  29.119   3.836
15467W        W86067  12.782  16.239  11.624
15468W        W86068  29.451  14.067  13.025
15469W        W86069  18.793  27.924  13.311
15470W        W86070  38.496  14.754   0.195
15471W        W86071  18.389   6.462  11.124
15472W        W86072  24.685   9.161   1.421
15473W        W86073   9.745  11.321   2.231
15474W        W86074  24.457  26.124   0.387
15475W        W86075  28.615   3.212   3.730
15476W        W86076   5.678  33.005  10.277
15477W        W86077  39.262   5.807  11.179
15478W        W86078  37.198   3.219  12.067
15479W        W86079  11.569  34.919   1.275
15480W        W86080  31.123   6.241  11.307
15481W        W86081  44.002  28.513  12.645
15482W        W86082  41.776  16.751   0.476
15483W        W86083  34.584  42.605   0.924
15484W        W86084  34.835  15.403   4.953
15485W        W86085  10.827  21.174   1.653
15486W        W86086  44.154   4.396   3.825
15487W        W86087  27.856  11.713   4.279
15488W        W86088  30.081  22.491   3.504
15489W        W86089  16.320  38.052  13.006
15490W        W86090  34.052  22.550  11.676
15491W        W86091  20.539  40.946  10.696
15492W        W86092  41.559  25.597   2.347
15493W        W86093   7.963  43.919   2.219
15494W        W86094  26.487  23.578   4.855
15495W        W86095  10.319  37.576   4.418
15496W        W86096  14.970   6.012   3.770
15497W        W86097  44.643   9.316  12.873
15498W        W86098  22.546  33.021  12.443
15499W        W86099  16.184  33.087  12.908
15500W        W86100  42.812  14.868   4.697
15501W        W86101  40.932  26.406   3.351
15502W        W86102  24.674  27.419  14.001
15503W        W86103   3.904  21.464   4.140
15504W        W86104   6.150  22.707   3.309
15505W        W86105  23.988  41.646   4.268
15506W        W86106  36.956  16.728   3.611
15507W        W86107  15.889  33.338   0.697
15508W        W86108  40.776  31.822   0.863
15509W        W86109  23.581  29.138   0.150
15510W        W86110  39.452  30.921  12.996
15511W        W86111  37.588  24.617  12.177
15512W        W86112  29.596   8.218  13.556
15513W        W86113  10.646  11.293   0.932
15514W        W86114  35.192   2.495  12.719
15515W        W86115   4.437   4.971  12.050
15516W        W86116  22.075  13.199   3.208
15517W        W86117  19.206   2.935  11.566
15518W        W86118  33.653   1.585   2.808
15519W        W86119  10.517  37.369   1.910
15520W        W86120   4.282  33.468   2.363
15521W        W86121  44.624   6.340   4.414
15522W        W86122  13.134  14.677   3.261
15523W        W86123  14.200  30.589   3.495
15524W        W86124  28.340  16.337  13.873
15525W        W86125  16.536  24.635  14.261
15526W        W86126  12.041  32.182   1.752
15527W        W86127  37.208  31.875   3.685
15528W        W86128  25.208  36.434   0.934
15529W        W86129   3.930  32.805   0.790
15530W        W86130  34.603  43.937   0.477
15531W        W86131  36.601  28.483   3.782
15532W        W86132   9.610  19.464  10.405
15533W        W86133  15.534  38.312   0.143
15534W        W86134  38.945  26.151  10.536
15535W        W86135  35.486  13.238   0.321
15536W        W86136  22.104  30.478   2.230
15537W        W86137  44.071   0.354   2.584
15538W        W86138  40.875  27.703  13.370
15539W        W86139  31.502  30.742   0.007
15540W        W86140  42.912   4.384  11.727
15541W        W86141  43.027  28.938   0.327
15542W        W86142   5.802  15.192   4.572
15543W        W86143  15.594  20.750   3.213
15544W        W86144   4.663  15.351  10.746
15545W        W86145  43.919  28.670   4.533
15546W        W86146  38.272  30.669  11.192
15547W        W86147   6.247   7.238   4.301
15548W        W86148   6.385   4.485  13.386
15549W        W86149  28.542  14.767   2.659
15550W        W86150  10.587  37.424  11.516
15551W        W86151  28.579   9.674  12.786
15552W        W86152  43.778  25.231   1.742
15553W        W86153  11.217   4.328  13.659
15554W        W86154  27.166   1.926   3.655
15555W        W86155  40.276   1.207   1.319
15556W        W86156  38.136   0.099  11.704
15557W        W86157  41.071   3.872  11.534
15558W        W86158  44.072   6.266  14.255
15559W        W86159  43.174  39.454   3.957
15560W        W86160  35.554   5.425  13.443
15561W        W86161  40.084  21.963  11.226
15562W        W86162  37.036  32.360   1.373
15563W        W86163  10.216  43.452  13.980
15564W        W86164  20.768  35.054  10.704
15565W        W86165  43.528   4.717  14.231
15566W        W86166  20.327  33.595   4.335
15567W        W86167  11.759  13.181  11.740
15568W        W86168  22.122  44.401  14.830
15569W        W86169  27.950  11.186  11.217
15570W        W86170   8.747  33.753  11.618
15571W        W86171   3.960  31.254  14.364
15572W        W86172  28.822  14.104   2.648
15573W        W86173   8.351  15.045   4.376
15574W        W86174  29.065  39.356  14.424
15575W        W86175   5.013  35.863  11.329
15576W        W86176   9.622   0.881  13.550
15577W        W86177  21.786  42.375   4.291
15578W        W86178  24.845  30.731   1.635
15579W        W86179  22.304  40.361   0.825
15580W        W86180  34.805  37.287   4.927
15581W        W86181  19.690   5.599   1.302
15582W        W86182  11.729  21.404   0.353
15583W        W86183  44.326  25.509  12.901
15584W        W86184   7.835  20.199   0.506
15585W        W86185  42.050  32.422  13.785
15586W        W86186  20.559  27.061  14.998
15587W        W86187  33.325  35.097  12.259
15588W        W86188   1.214  36.571   1.882
15589W        W86189  44.297  20.337   0.426
15590W        W86190   0.012  35.969   2.055
15591W        W86191   3.603   0.726  11.561
15592W        W86192  10.632  39.396   2.568
15593W        W86193  25.119  32.103   2.883
15594W        W86194  11.369  10.937  12.414
15595W        W86195  18.760  35.826  12.893
15596W        W86196  19.762  17.708  12.062
15597W        W86197  38.531  18.302   2.859
15598W        W86198  14.790  26.966  14.446
15599W        W86199   1.332   9.847  10.934
15600W        W86200  20.987  18.987  12.263
15601W        W86201   4.734  26.339   2.345
15602W        W86202  26.669   6.644   0.798
15603W        W86203  40.010  42.549  13.015
15604W        W86204  41.173   8.536  10.243
15605W        W86205  20.559   4.143   4.830
15606W        W86206  27.805  23.343   0.344
15607W        W86207  35.960   5.221  11.642
15608W        W86208  28.568  34.916  10.936
15609W        W86209  10.963  15.766   4.993
15610W        W86210  13.565  30.327   1.682
15611W        W86211   8.317  33.159  11.168
15612W        W86212  23.930   8.522   3.616
15613W        W86213  11.950  11.350   1.058
15614W        W86214  30.057  36.007  13.800
15615W        W86215  11.710  33.385  11.836
15616W        W86216  19.931  18.733  14.851
15617W        W86217  34.303  14.244   1.354
15618W        W86218  19.374  19.174   1.312
15619W        W86219  25.526  33.811  12.374
15620W        W86220  14.378   0.867   3.834
15621W        W86221   8.849  25.163  10.704
15622W        W86222  13.181  12.825  12.740
15623W        W86223  36.068   0.871  14.238
15624W        W86224  14.901   3.203  12.511
15625W        W86225   6.127  17.754  11.178
15626W        W86226  26.426   1.044   1.018
15627W        W86227  11.614  12.707  14.496
15628W        W86228   8.190  33.967   0.357
15629W        W86229   9.027  27.888   0.374
15630W        W86230  24.150  37.892  12.052
15631W        W86231   0.822  32.361  12.013
15632W        W86232  37.547  13.279   0.609
15633W        W86233   9.389  41.881  13.891
15634W        W86234  23.805   5.240  13.329
15635W        W86235  32.311  44.691  14.409
15636W        W86236   1.705   8.797   1.448
15637W        W86237  35.493  20.259  11.942
15638W        W86238  19.601  24.272   3.673
15639W        W86239  17.151  11.364  11.207
15640W        W86240  13.810  27.186   0.358
15641W        W86241  22.256   5.220   4.117
15642W        W86242  10.785  37.060  11.225
15643W        W86243  42.765  42.767  14.115
15644W        W86244   5.249  25.569  10.887
15645W        W86245  13.730  39.130  11.255
15646W        W86246   5.745  15.245   2.165
15647W        W86247  27.643   3.754   3.644
15648W        W86248  10.273  33.560  14.020
15649W        W86249  10.349   3.918  12.606
15650W        W86250  22.058  42.940   1.203
15651W        W86251  33.642  10.332   0.267
15652W        W86252   1.793  13.424   2.266
15653W        W86253  20.106  24.702   2.235
15654W        W86254   2.768  24.713  14.810
15655W        W86255  29.866  17.676   0.066
15656W        W86256  33.772  19.681   5.090
15657W        W86257   6.322   0.186  12.437
15658W        W86258   6.831  32.659  12.148
15659W        W86259   3.377  25.619   2.090
15660W        W86260  39.568   7.083   1.623
15661W        W86261  15.058  20.519  12.012
15662W        W86262  16.051  31.225  10.745
15663W        W86263  12.124  27.894  11.092
15664W        W86264  28.721  15.036   2.185
15665W        W86265  39.632  25.004   2.356
15666W        W86266   9.668  25.170  11.074
15667W        W86267   2.962  26.311  12.804
15668W        W86268  37.576  37.418   4.568
15669W        W86269   4.767  44.933   2.760
15670W        W86270  11.262  25.087  14.713
15671W        W86271  18.854  11.606   5.072
15672W        W86272  33.960  29.470   4.339
15673W        W86273  17.749  12.107   2.491
15674W        W86274  35.708  16.102   2.755
15675W        W86275  17.725  30.424   4.262
15676W        W86276  36.902  17.361   2.118
15677W        W86277  26.319  37.854   3.788
15678W        W86278  14.571   0.004  11.235
15679W        W86279  37.825  12.341  12.461
15680W        W86280  28.513   0.429   2.967
15681W        W86281  19.774   8.458   0.266
15682W        W86282   2.769   3.445  11.074
15683W        W86283  30.552  30.947   2.387
15684W        W86284  42.017  29.187  11.851
15685W        W86285  17.549  20.391  11.636
15686W        W86286  28.106  33.492   3.718
15687W        W86287  41.449  21.742  10.336
15688W        W86288  34.442  32.995   4.759
15689W        W86289   4.460  37.343   1.031
15690W        W86290  34.422  34.706  13.113
15691W        W86291   8.100  38.034  13.663
15692W        W86292  44.022  31.740  14.782
15693W        W86293   8.768  14.262  11.198
15694W        W86294  36.316  15.172  14.114
15695W        W86295  37.124   7.300   1.222
15696W        W86296  35.712   2.433   0.798
15697W        W86297  37.323  16.229  11.609
15698W        W86298  34.180  27.899   2.737
15699W        W86299  29.958   8.134  12.969
15700W        W86300  34.366   6.913   4.566
15701W        W86301   3.592  15.532   9.890
15702W        W86302   7.189  18.547   2.206
15703W        W86303  39.551  30.034   1.339
15704W        W86304   5.151  36.144   3.769
15705W        W86305  10.164   1.870  11.190
15706W        W86306   4.227   0.281  11.879
15707W        W86307  30.880   2.851  13.418
15708W        W86308   3.807  19.528   2.757
15709W        W86309  34.250   2.712   4.163
15710W        W86310  26.083  19.731  12.820
15711W        W86311  44.502  12.166   4.171
15712W        W86312  17.361  35.987   2.121
15713W        W86313  27.001  29.666  10.627
15714W        W86314  39.094   6.357   0.392
15715W        W86315   1.298  17.241  14.464
15716W        W86316  15.159  12.199   2.856
15717W        W86317  29.572  17.865  12.509
15718W        W86318  37.948  16.035   1.307
15719W        W86319   4.206  17.568  11.667
15720W        W86320   8.666   0.298  13.050
15721W        W86321   8.855  26.262  12.409
15722W        W86322  44.372  11.882  14.041
15723W        W86323  35.945  16.530   1.871
15724W        W86324  38.898  24.877   1.053
15725W        W86325  15.681  33.627  13.466
15726W        W86326  30.615  31.711   3.690
15727W        W86327  17.329  37.518  10.277
15728W        W86328   5.404  10.618   4.116
15729W        W86329  32.027  17.565   2.782
15730W        W86330  41.949  19.090   3.491
15731W        W86331  27.887  39.878  11.559
15732W        W86332   8.643  30.222  13.886
15733W        W86333   7.265  17.261   4.430
15734W        W86334  38.199  30.191   0.333
15735W        W86335  17.522  23.008   1.793
15736W        W86336   9.090  19.119   4.147
15737W        W86337  39.730   2.477  14.863
15738W        W86338   0.725  31.625  14.845
15739W        W86339  16.127  37.388   2.758
15740W        W86340  43.526  16.648  12.505
15741W        W86341   8.604  40.801  13.455
15742W        W86342  29.612  16.256  12.112
15743W        W86343  14.501   5.188  14.342
15744W        W86344  10.829   5.700   4.162
15745W        W86345  22.800   5.971  11.990
15746W        W86346  15.212  32.337  14.773
15747W        W86347  26.489  42.940  11.989
15748W        W86348   1.274   3.701   0.805
15749W        W86349  14.790  10.168  13.063
15750W        W86350   0.679   1.691   3.601
15751W        W86351   2.446  30.164  12.496
15752W        W86352  37.172  38.787   0.360
15753W        W86353  32.708  28.279  13.871
15754W        W86354   3.531  21.815   1.944
15755W        W86355  28.883   5.549  13.433
15756W        W86356   9.793  12.340   0.913
15757W        W86357  33.013   4.196   1.300
15758W        W86358   1.411  12.523   3.175
15759W        W86359  29.208   3.117  12.383
15760W        W86360  16.117  15.118   4.779
15761W        W86361  11.958   2.326   1.831
15762W        W86362  34.607  36.504   1.293
15763W        W86363   9.233  23.390  14.853
15764W        W86364  20.077  33.208  14.565
15765W        W86365  26.486  15.279  14.511
15766W        W86366   6.306  26.087  13.527
15767W        W86367   2.475  42.393  11.683
15768W        W86368   8.884  17.209  10.196
15769W        W86369  22.061  33.983   1.937
15770W        W86370  36.802  27.418   0.357
15771W        W86371  12.650  25.000  11.444
15772W        W86372  22.577   2.900   0.418
15773W        W86373  27.442  12.032   4.367
15774W        W86374  25.758  36.543   4.354
15775W        W86375  36.936  18.998  14.778
15776W        W86376  15.992  25.639  12.747
15777W        W86377  43.279  29.789  10.592
15778W        W86378  35.061   2.529   3.869
15779W        W86379  19.949  12.506  13.440
15780W        W86380  34.426  14.274   2.201
15781W        W86381   4.713  20.108  13.847
15782W        W86382   5.333  38.817  11.559
15783W        W86383  13.632  36.630   0.537
15784W        W86384  27.220  12.329  12.905
15785W        W86385  38.481  23.160   0.405
15786W        W86386  38.080   4.367  10.718
15787W        W86387  22.048  20.549   2.506
15788W        W86388  37.827  22.777   2.549
15789W        W86389  21.630  26.508  11.882
15790W        W86390  35.756  37.852  12.792
15791W        W86391  19.047  27.170   0.822
15792W        W86392   5.864   6.388   0.827
15793W        W86393  32.147  24.218   1.721
15794W        W86394  39.084  40.744  13.989
15795W        W86395   6.435  39.824   4.104
15796W        W86396  32.244  22.882  14.008
15797W        W86397   1.450  14.279   0.983
15798W        W86398   4.891  35.910   3.197
15799W        W86399  17.807   1.195  12.834
15800W        W86400  30.841  17.314  12.575
15801W        W86401  10.468  23.261   4.245
15802W        W86402   8.855  21.103   3.229
15803W        W86403  26.518  36.574   3.672
15804W        W86404  31.918   6.715   4.609
15805W        W86405  39.738  36.425  10.712
15806W        W86406  34.978  21.271   0.860
15807W        W86407  19.444  31.096   1.779
15808W        W86408  16.307  13.909   0.456
15809W        W86409  17.018  31.519  13.960
15810W        W86410  34.311  38.953  12.455
15811W        W86411  41.214  23.156  10.646
15812W        W86412  12.224  34.532   3.044
15813W        W86413  11.375  36.845  12.456
15814W        W86414  14.154  34.590   0.662
15815W        W86415  15.774  32.511   3.210
15816W        W86416  40.308   8.966  10.526
15817W        W86417  31.687  36.087  14.662
15818W        W86418   4.667  19.221   4.120
15819W        W86419  19.728   4.908   3.988
15820W        W86420  16.189  23.590  14.378
15821W        W86421  15.673  37.767  14.432
15822W        W86422  31.051  44.654   1.728
15823W        W86423   9.739   9.335  13.264
15824W        W86424   4.321   5.859  11.593
15825W        W86425  28.546  18.226   2.355
15826W        W86426   5.911  28.742  12.514
15827W        W86427  27.701  34.863  12.024
15828W        W86428  21.540  42.463   0.625
15829W        W86429  17.947  44.867  14.900
15830W        W86430  38.329  35.538   4.661
15831W        W86431  34.236  41.676  11.961
15832W        W86432   9.179  27.143  11.285
15833W        W86433  31.086  39.482   4.006
15834W        W86434   8.273  24.679   2.698
15835W        W86435   5.711  44.149   3.233
15836W        W86436  36.062  38.933   4.812
15837W        W86437  35.225  17.673  12.410
15838W        W86438  39.993  13.733   2.338
15839W        W86439  41.700  14.506   3.293
15840W        W86440  17.395  18.863   0.812
15841W        W86441   6.830   4.469  14.977
15842W        W86442  18.374  18.978  11.050
15843W        W86443   7.663  20.586   3.220
15844W        W86444  37.577  16.102   1.725
15845W        W86445  22.918  26.003  11.620
15846W        W86446  11.318  18.672  12.509
15847W        W86447  40.118   8.436   4.089
15848W        W86448   3.858  44.239  11.618
15849W        W86449  28.252  41.933   3.270
15850W        W86450   4.399   8.271   0.221
15851W        W86451  44.857  20.054   4.247
15852W        W86452  21.089  31.076   1.000
15853W        W86453  22.479  42.797   2.361
15854W        W86454  33.305  44.378   3.441
15855W        W86455  32.637  15.777  12.090
15856W        W86456  12.739   0.327  14.754
15857W        W86457   2.256  12.214   4.046
15858W        W86458  34.088  18.726  14.842
15859W        W86459  19.741  14.694   0.268
15860W        W86460   6.763  17.150  13.923
15861W        W86461  38.714  19.264   1.136
15862W        W86462  23.306  39.805  12.911
15863W        W86463  44.263  23.453   0.421
15864W        W86464  31.096  23.645   1.318
15865W        W86465  28.028  25.660   0.546
15866W        W86466  22.097  37.868  14.736
15867W        W86467  27.586  25.671   1.283
15868W        W86468   3.312  42.312  11.894
15869W        W86469  16.110  36.856   3.274
15870W        W86470  27.369  24.349   0.489
15871W        W86471   5.139  10.977  10.981
15872W        W86472  32.284  43.899  14.252
15873W        W86473   5.597  14.753   0.647
15874W        W86474   3.274  32.399   5.464
15875W        W86475  20.570  17.730  12.668
15876W        W86476  18.011  40.905   0.087
15877W        W86477  30.106  33.702  10.790
15878W        W86478   3.197  40.799  13.938
15879W        W86479   4.831  40.700   9.973
15880W        W86480  21.075  10.727  13.062
15881W        W86481  23.732  14.789  10.741
15882W        W86482  24.726   5.372  11.632
15883W        W86483   3.472  27.636   2.798
15884W        W86484  42.328  41.255   2.790
15885W        W86485   0.324  14.661  12.488
15886W        W86486  15.638  15.018  12.680
15887W        W86487  10.761  17.170  12.980
15888W        W86488  40.645  10.166  11.001
15889W        W86489  28.988  37.389  14.965
15890W        W86490  18.713  36.044   2.415
15891W        W86491   8.384   2.947   1.275
15892W        W86492  43.211  18.256  12.217
15893W        W86493   4.119   7.320  14.822
15894W        W86494  11.630  32.009   0.850
15895W        W86495  11.846  25.487  11.705
15896W        W86496  29.753  43.858   0.865
15897W        W86497   3.017  37.402   1.250
15898W        W86498   0.841   1.683  11.718
15899W        W86499   1.922  42.858   1.799
15900W        W86500  15.424  28.214  12.531
15901W        W86501  15.624  29.194  11.289
15902W        W86502  42.489  35.813  14.806
15903W        W86503   4.045  44.900   1.419
15904W        W86504  12.947  40.746  10.646
15905W        W86505  20.488   8.790   3.574
15906W        W86506   9.681  44.254  14.704
15907W        W86507  22.688  20.221   0.678
15908W        W86508   3.761  42.882  12.084
15909W        W86509  31.000  31.534  12.127
15910W        W86510  17.856  11.251   0.783
15911W        W86511  10.844  41.382   0.051
15912W        W86512   3.325  18.666   3.117
15913W        W86513  30.933   5.408   0.687
15914W        W86514   5.134  25.628  13.362
15915W        W86515  11.308  23.451  11.444
15916W        W86516   2.016  44.574   0.300
15917W        W86517  25.636  29.415  14.422
15918W        W86518  27.538  18.484  11.889
15919W        W86519  13.213  22.765   0.856
15920W        W86520  44.054   6.614   1.930
15921W        W86521  31.130  33.028   1.826
15922W        W86522  26.640   2.013  10.110
15923W        W86523  37.901  14.292   2.240
15924W        W86524   0.781  18.549  14.527
15925W        W86525  12.172  22.876   0.495
15926W        W86526  17.207  27.964   2.845
15927W        W86527  26.737  38.983   4.223
15928W        W86528   3.187  41.501   1.972
15929W        W86529   5.842  15.791   2.119
15930W        W86530  35.147  23.041   2.889
15931W        W86531  43.494   8.966   3.763
15932W        W86532  11.218  34.601  14.895
15933W        W86533  30.845  13.316  11.984
15934W        W86534  41.612   9.161   0.815
15935W        W86535  19.254  21.541   4.522
15936W        W86536   2.022  16.589  13.914
15937W        W86537  22.757  25.747   2.154
15938W        W86538  13.598  28.031   2.725
15939W        W86539  22.279  34.429   0.330
15940W        W86540  34.386  30.483   3.428
15941W        W86541  36.463  30.613   1.613
15942W        W86542  21.985  31.929  11.857
15943W        W86543  24.881   1.831  13.020
15944W        W86544   1.437   3.390   1.286
15945W        W86545  32.550  20.183  14.280
15946W        W86546  42.120  43.051  14.390
15947W        W86547  10.919  32.257  13.742
15948W        W86548  32.561  20.109   0.796
15949W        W86549  34.444  30.545   2.708
15950W        W86550  11.617  38.502  13.188
15951W        W86551  23.209  22.024  12.380
15952W        W86552  26.535  14.358  13.553
15953W        W86553  16.645  23.355   2.914
15954W        W86554   6.362  37.930  12.824
15955W        W86555  24.403  32.126  14.546
15956W        W86556  24.973  31.407  13.889
15957W        W86557  40.049  24.147   2.090
15958W        W86558  25.171  41.401   0.419
15959W        W86559  12.527  41.860  12.301
15960W        W86560  10.603  22.576  14.319
15961W        W86561  29.143   0.045  13.980
15962W        W86562  33.859  37.579  11.570
15963W        W86563  27.036   9.216  14.722
15964W        W86564   9.617  28.583  14.870
15965W        W86565  28.868  21.020  13.926
15966W        W86566   6.260  13.233  12.707
15967W        W86567  23.888  16.576  11.852
15968W        W86568  24.064  35.362  12.458
15969W        W86569  44.723  22.968  10.235
15970W        W86570  15.546  31.000  14.017
15971W        W86571  34.148  21.580  11.319
15972W        W86572  38.050  20.952   2.386
15973W        W86573  10.035  32.365  12.051
15974W        W86574  31.039   1.939  14.459
15975W        W86575   0.547  35.465   0.804
15976W        W86576  25.905  26.744   4.811
15977W        W86577  10.699   1.625   2.178
15978W        W86578  38.980  37.386  14.810
15979W        W86579  18.859  25.701   2.530
15980W        W86580  27.904   9.446  14.560
15981W        W86581  16.968  36.364  13.660
15982W        W86582  36.901  10.102  14.828
15983W        W86583   2.160   9.314  12.698
15984W        W86584  22.429   4.461   2.725
15985W        W86585  33.732   1.967  13.785
15986W        W86586  28.669  23.497   3.335
15987W        W86587  40.391   0.277  11.985
15988W        W86588  24.106   4.676   4.542
15989W        W86589  28.224  22.581  11.912
15990W        W86590  12.632   6.123  12.046
15991W        W86591   2.287   3.338   4.106
15992W        W86592  18.745  10.427  11.062
15993W        W86593  43.908   9.991  11.612
15994W        W86594  41.333  16.497  10.756
15995W        W86595   8.011  40.614  14.697
15996W        W86596   5.857  12.671  12.459
15997W        W86597  26.699  21.183  13.091
15998W        W86598   8.629   6.827   1.858
15999W        W86599  32.386  40.074   0.158
16000W        W86600  17.654  42.021   1.448
16001W        W86601   9.393  21.346   4.019
16002W        W86602  39.775  21.558   3.922
16003W        W86603  20.617  44.756   2.330
16004W        W86604  33.661  28.455   0.256
16005W        W86605  11.750  28.085  13.821
16006W        W86606   5.691  32.989  13.471
16007W        W86607  34.539  20.771  11.733
16008W        W86608  44.285   2.113   4.536
16009W        W86609  28.153  33.033  10.630
16010W        W86610   3.786   7.670  11.498
16011W        W86611   0.417  12.400  11.203
16012W        W86612  33.097  24.492   3.139
16013W        W86613  21.147  17.841   3.203
16014W        W86614  35.906  23.558  14.301
16015W        W86615  15.479  16.270   3.660
16016W        W86616  22.837  22.159   9.738
16017W        W86617  44.707  35.862  10.261
16018W        W86618  27.400  27.922  14.885
16019W        W86619  19.159   0.348  14.287
16020W        W86620   0.975  35.371  14.852
16021W        W86621  15.861  30.480   1.947
16022W        W86622  28.541   8.585  13.897
16023W        W86623  18.091  42.559  11.410
16024W        W86624  17.563   3.463  11.191
16025W        W86625   2.817   4.204  14.325
16026W        W86626  16.850  15.397   4.565
16027W        W86627  38.350   0.817   2.204
16028W        W86628  29.556   7.906  14.845
16029W        W86629  18.053  39.674   3.269
16030W        W86630  41.458  33.256  12.888
16031W        W86631  24.096  31.347   3.144
16032W        W86632  39.395  34.448  14.515
16033W        W86633  25.138  15.939  13.710
16034W        W86634  22.817  19.028  11.879
16035W        W86635  20.377   2.451   0.050
16036W        W86636  43.445  30.955   1.366
16037W        W86637  40.458  11.363  11.653
16038W        W86638  26.183  36.582   2.345
16039W        W86639  32.128  42.808   1.283
16040W        W86640   9.293  44.329   1.405
16041W        W86641   4.961  10.176   4.898
16042W        W86642  12.324  24.566  14.954
16043W        W86643   1.161  25.063   1.773
16044W        W86644  38.435  35.338   0.672
16045W        W86645  17.534  29.988   0.244
16046W        W86646   0.403  34.188   4.826
16047W        W86647   1.348  30.197   0.282
16048W        W86648  34.064  16.330  11.090
16049W        W86649  10.190  34.087  13.158
16050W        W86650  28.006  28.047   3.772
16051W        W86651   0.485  13.608  12.508
16052W        W86652  28.081  37.364   4.360
16053W        W86653  37.163  26.615  13.243
16054W        W86654  15.294  18.705   0.760
16055W        W86655  37.008  21.256  10.975
16056W        W86656   7.817  23.652   1.435
16057W        W86657  43.809  29.559   1.357
16058W        W86658   7.666  38.565  13.063
16059W        W86659  12.769  19.593   1.656
16060W        W86660  18.087  38.803  14.608
16061W        W86661  35.114  16.066  13.327
16062W        W86662   8.385  31.184   0.909
16063W        W86663  15.896  12.550  11.606
16064W        W86664  38.295   2.732  10.849
16065W        W86665  44.758   6.855  13.778
16066W        W86666  37.491  41.703   1.017
16067W        W86667  42.908  27.676  14.736
16068W        W86668  39.453   7.882  12.304
16069W        W86669  25.540  35.846   3.198
16070W        W86670  39.095  33.603   4.255
16071W        W86671  41.245  12.642   4.187
16072W        W86672  44.034  13.819  11.158
16073W        W86673  13.518   6.684   3.727
16074W        W86674  26.528   6.239   2.539
16075W        W86675   9.652  19.236  11.801
16076W        W86676   2.473  34.045  14.846
16077W        W86677  33.535  36.901   0.576
16078W        W86678  31.796  21.690   4.917
16079W        W86679  21.310  41.037   0.328
16080W        W86680  41.936  13.555   2.326
16081W        W86681  13.834  13.975  11.874
16082W        W86682  10.304  14.736  14.879
16083W        W86683  21.789  35.402  11.802
16084W        W86684  43.533  12.033  13.023
16085W        W86685  12.254  40.274  10.661
16086W        W86686  34.211  33.944  13.543
16087W        W86687  23.506  19.701  10.535
16088W        W86688   7.923  19.385   1.994
16089W        W86689  21.427  30.113   0.262
16090W        W86690  34.266   0.953   4.077
16091W        W86691  20.442  18.694  12.494
16092W        W86692   7.122  21.518   3.277
16093W        W86693   4.839  20.994   1.760
16094W        W86694   4.371  12.724  10.409
16095W        W86695   7.181  41.913  10.922
16096W        W86696  44.394  37.825   3.351
16097W        W86697  18.761  44.811  12.337
16098W        W86698   5.079  33.034  14.855
16099W        W86699   9.157  11.712   4.536
16100W        W86700  29.584  26.217  13.425
16101W        W86701  28.536  21.698  14.510
16102W        W86702  10.085  14.010  13.445
16103W        W86703  19.639  19.986  12.924
16104W        W86704  11.888  26.222   2.676
16105W        W86705  20.115  31.944  13.764
16106W        W86706  33.188  19.386  11.288
16107W        W86707  20.630  42.536  13.106
16108W        W86708  42.293  34.407   1.268
16109W        W86709   2.774  34.010  11.264
16110W        W86710   3.564  30.073  13.243
16111W        W86711  44.747  15.590  10.738
16112W        W86712  35.032  43.953   1.435
16113W        W86713  38.808  17.093   1.816
16114W        W86714   6.916  35.555   0.331
16115W        W86715   3.899  44.258  12.579
16116W        W86716  30.604  15.402  11.547
16117W        W86717  12.054  42.890   2.253
16118W        W86718   1.719  12.843   3.934
16119W        W86719  19.460  27.567   1.888
16120W        W86720  32.518  30.234   1.400
16121W        W86721   6.387  27.986   0.018
16122W        W86722   6.759  17.603  12.020
16123W        W86723  41.401   1.783  14.576
16124W        W86724  39.266  39.069   2.565
16125W        W86725  33.660   8.457   4.297
16126W        W86726   1.845  37.498  11.202
16127W        W86727   6.189  25.762  11.141
16128W        W86728  19.986  13.115  11.281
16129W        W86729   0.172   3.414  13.529
16130W        W86730  23.222  28.061   4.911
16131W        W86731  14.208   6.781  13.305
16132W        W86732   4.290   4.859  13.435
16133W        W86733  42.363  14.132   4.669
16134W        W86734  25.115  35.741  10.946
16135W        W86735  40.827  12.790  12.118
16136W        W86736  25.682  19.379   5.047
16137W        W86737  14.117   5.041   3.152
16138W        W86738  37.634  35.005   2.456
16139W        W86739  21.674  30.610  12.677
16140W        W86740  28.550  25.286  13.375
16141W        W86741  41.870  40.475   1.081
16142W        W86742  35.967  24.167   4.707
16143W        W86743  36.836  36.897   0.051
16144W        W86744  40.046   5.705  12.525
16145W        W86745   1.457  16.052   2.723
16146W        W86746  27.421  39.700   5.492
16147W        W86747   8.788  11.949   4.167
16148W        W86748   8.762  28.215   3.998
16149W        W86749  29.449   6.251  12.160
16150W        W86750  19.249  22.848  13.395
16151W        W86751   4.716   6.649  13.871
16152W        W86752  26.039  20.527   3.421
16153W        W86753   2.290  35.903   4.453
16154W        W86754  32.653  40.486  12.224
16155W        W86755   1.300  25.719  11.538
16156W        W86756   1.577  36.360   4.606
16157W        W86757  28.174   9.896  10.752
16158W        W86758  32.941   7.667   3.577
16159W        W86759  16.545  29.431   2.199
16160W        W86760  12.095   1.565   1.079
16161W        W86761   5.376  30.316   3.424
16162W        W86762  10.597  25.608   3.978
16163W        W86763   5.837  34.909   2.957
16164W        W86764  35.704   7.812  14.061
16165W        W86765  24.993  38.621   2.314
16166W        W86766  19.240   0.985  14.960
16167W        W86767  27.529  27.622   4.335
16168W        W86768  44.194  33.727  11.991
16169W        W86769  12.442  12.778  14.710
16170W        W86770  43.071  40.830   1.267
16171W        W86771  20.132  33.598   4.810
16172W        W86772  32.506  19.981  12.908
16173W        W86773  11.803  38.517  11.704
16174W        W86774   0.448   2.306  13.946
16175W        W86775  21.677  42.363   2.363
16176W        W86776  40.777  39.766  14.322
16177W        W86777  29.946  34.761   3.881
16178W        W86778  22.580  24.498   1.339
16179W        W86779  20.983   3.229   1.420
16180W        W86780  34.379  22.827   0.341
16181W        W86781  11.594  28.159   3.710
16182W        W86782  40.346  13.103  13.072
16183W        W86783  13.344  35.426   3.396
16184W        W86784   7.193  19.087   4.765
16185W        W86785  23.883   8.795   1.647
16186W        W86786  29.623   8.694   1.092
16187W        W86787  23.676  15.200  14.746
16188W        W86788  33.099  11.267  13.037
16189W        W86789  32.565   1.215   4.469
16190W        W86790  35.969  30.306  12.019
16191W        W86791   1.736   0.908  11.693
16192W        W86792   3.833  44.512  14.764
16193W        W86793   3.244   8.720   1.409
16194W        W86794  14.133  29.187  11.234
16195W        W86795  20.400  33.170  13.305
16196W        W86796   0.302  44.782   3.698
16197W        W86797   7.784  40.578   4.595
16198W        W86798  26.627  15.050  11.193
16199W        W86799   4.941   7.504   1.404
16200W        W86800  33.604  30.053   1.750
16201W        W86801  10.866  37.663  13.643
16202W        W86802  39.015  28.258   0.063
16203W        W86803   2.991  15.253   2.875
16204W        W86804   7.455  39.860  14.270
16205W        W86805  12.315  41.309  10.657
16206W        W86806  32.439  10.186   4.796
16207W        W86807  11.727  37.278  12.532
16208W        W86808  18.842  37.174  12.128
16209W        W86809  15.776   9.561   1.763
16210W        W86810  28.531  15.040  11.300
16211W        W86811  31.921  43.213   0.999
16212W        W86812  29.629   3.740  11.254
16213W        W86813  25.060  39.741  13.905
16214W        W86814  30.605  41.910  13.008
16215W        W86815  10.559  41.063   0.793
16216W        W86816  31.866   8.647  14.790
16217W        W86817  11.999  29.597   0.354
16218W        W86818   2.919  30.848  13.489
16219W        W86819  11.097  19.669  11.546
16220W        W86820  26.033  29.027   4.317
16221W        W86821  21.113   5.453   2.360
16222W        W86822  29.473  38.897   1.421
16223W        W86823  34.839  33.882  11.197
16224W        W86824  15.495  43.883   1.760
16225W        W86825  36.348   4.810   2.468
16226W        W86826  24.705  39.430  13.294
16227W        W86827  39.564  31.187  13.439
16228W        W86828  31.277  25.226  12.131
16229W        W86829  12.620  38.947  11.170
16230W        W86830  44.995  27.483   1.410
16231W        W86831  16.248  22.071   4.931
16232W        W86832  24.545   9.738  13.049
16233W        W86833   4.390  16.026  13.158
16234W        W86834  13.213  14.916  11.104
16235W        W86835  22.342   8.162   3.522
16236W        W86836   2.952  27.242   0.791
16237W        W86837   4.656  14.809  11.944
16238W        W86838   7.862   8.245  13.900
16239W        W86839  27.035  27.729   0.811
16240W        W86840  40.936   3.315   3.367
16241W        W86841   4.223  32.088   1.737
16242W        W86842  19.958  38.764  10.782
16243W        W86843  26.517  17.237   5.109
16244W        W86844  30.620   2.450  12.825
16245W        W86845  29.072   0.154   2.169
16246W        W86846   2.871  26.232   1.821
16247W        W86847  14.379   2.524  13.944
16248W        W86848  13.545  14.657   3.622
16249W        W86849   7.259  20.220   2.686
16250W        W86850  33.897   4.879  12.743
16251W        W86851  40.111  41.423  10.518
16252W        W86852  26.949  42.349   3.226
16253W        W86853  44.774  24.048   4.794
16254W        W86854  36.660  12.567   3.568
16255W        W86855   7.460  31.344  11.588
16256W        W86856  43.851  16.275  14.446
16257W        W86857  10.639  22.155   3.613
16258W        W86858   3.869   9.912   3.261
16259W        W86859  24.243  43.918  14.835
16260W        W86860   9.428  37.568   2.361
16261W        W86861  28.543  28.737   1.823
16262W        W86862  35.441   6.929  12.263
16263W        W86863  39.136  32.066  10.978
16264W        W86864  11.337  24.964  12.422
16265W        W86865   9.830  33.931   2.027
16266W        W86866  35.841  36.633   2.366
16267W        W86867  26.469   6.939   1.711
16268W        W86868  24.230  44.830   3.526
16269W        W86869  22.917  20.068   2.491
16270W        W86870  42.983  28.600  11.127
16271W        W86871   5.624  25.829   0.037
16272W        W86872   2.296  40.619  10.428
16273W        W86873   0.800  23.755   0.913
16274W        W86874  37.786  43.921  10.230
16275W        W86875  38.327  16.524   3.295
16276W        W86876   7.357  40.240   1.469
16277W        W86877  32.482  38.841   3.288
16278W        W86878  38.977  21.659   3.295
16279W        W86879  24.198   4.328   0.430
16280W        W86880   2.398   0.354  10.776
16281W        W86881   2.036  39.055   3.613
16282W        W86882  35.876   7.211  14.068
16283W        W86883  19.087   4.565  12.085
16284W        W86884  36.086  19.820  11.520
16285W        W86885  20.452   0.379   3.268
16286W        W86886  41.011  28.390  12.062
16287W        W86887   7.629  11.392  11.569
16288W        W86888  38.502  35.430  12.898
16289W        W86889  43.459  11.530  13.177
16290W        W86890   1.740   0.324  13.832
16291W        W86891  16.684  28.196   2.404
16292W        W86892   9.254  43.064  12.529
16293W        W86893  32.616  19.518  14.868
16294W        W86894   9.109  12.773   3.089
16295W        W86895   7.941   0.372   1.815
16296W        W86896  33.816  44.061   1.730
16297W        W86897  29.355  19.653   2.189
16298W        W86898  23.953  39.353  11.617
16299W        W86899  20.516  42.970  11.758
16300W        W86900  23.688  18.797  12.507
16301W        W86901  25.489  19.126  13.546
16302W        W86902  23.134   3.697   2.704
16303W        W86903  36.987   4.995   0.645
16304W        W86904  20.136  16.758   2.312
16305W        W86905   8.735  23.208  13.797
16306W        W86906  15.437  44.861   3.669
16307W        W86907   7.936  10.345   3.860
16308W        W86908  29.586  20.507   1.898
16309W        W86909  39.788  10.089  14.532
16310W        W86910  33.854   2.187  10.763
16311W        W86911  27.040  39.387  10.678
16312W        W86912  29.036   7.676  13.068
16313W        W86913  26.265   1.274   4.368
16314W        W86914  22.983  11.188  11.154
16315W        W86915  31.044   0.089  14.768
16316W        W86916  19.274   5.670  13.330
16317W        W86917  21.797  42.054   3.652
16318W        W86918  43.397  21.883  14.884
16319W        W86919   1.049  33.421   3.263
16320W        W86920  19.012   9.719  14.481
16321W        W86921   7.615  32.106   2.763
16322W        W86922  35.070  22.081   1.968
16323W        W86923  10.463  38.242   0.833
16324W        W86924  10.356   8.812   1.616
16325W        W86925  10.652  42.252   2.876
16326W        W86926  11.097   9.220  12.433
16327W        W86927  42.430  33.682  11.904
16328W        W86928   6.255  21.705   1.748
16329W        W86929  15.753  29.469  11.723
16330W        W86930   8.734  37.561   3.117
16331W        W86931  12.245  10.739  12.868
16332W        W86932  40.236  22.145  12.152
16333W        W86933  37.299  20.561  12.023
16334W        W86934   8.305  35.999  10.871
16335W        W86935  25.472  40.914   3.170
16336W        W86936  21.515  36.373  12.160
16337W        W86937  31.353   2.490  11.108
16338W        W86938  28.660   6.928  14.846
16339W        W86939  21.581  13.889   5.089
16340W        W86940  38.266   6.949   4.015
16341W        W86941  38.807  12.664  12.411
16342W        W86942  16.571   0.228  14.830
16343W        W86943  25.147  14.481  14.842
16344W        W86944   9.083  32.459  11.174
16345W        W86945  28.714  34.474  11.161
16346W        W86946  34.939  43.490   1.661
16347W        W86947  22.537  43.005   3.264
16348W        W86948  28.642  29.039   0.442
16349W        W86949  12.332  43.716  14.973
16350W        W86950  13.109  20.029  10.658
16351W        W86951  28.000  30.337   2.939
16352W        W86952   9.372   1.430  10.793
16353W        W86953  20.174   6.088  14.199
16354W        W86954  35.418   8.244  13.913
16355W        W86955   4.384  17.111   1.436
16356W        W86956  23.967   0.881   2.878
16357W        W86957  20.190  43.229  12.035
16358W        W86958  17.666  34.810   3.587
16359W        W86959  19.939   5.714  14.498
16360W        W86960  42.532  39.907   4.433
16361W        W86961  33.504   3.031  10.762
16362W        W86962  34.165  43.267   2.800
16363W        W86963   6.756  37.540   1.256
16364W        W86964   0.924  18.597   3.329
16365W        W86965  23.558  34.447   4.653
16366W        W86966  35.970  41.146  11.551
16367W        W86967  34.382  18.308   1.477
16368W        W86968  29.004   2.512  12.051
16369W        W86969  34.149   0.450   4.695
16370W        W86970   4.719  21.378  14.255
16371W        W86971  29.639   3.947   3.847
16372W        W86972   4.795  25.551   4.022
16373W        W86973  24.549   4.823   2.366
16374W        W86974  22.842   6.379  12.966
16375W        W86975  12.672   1.065   1.430
16376W        W86976  16.248  42.217   4.300
16377W        W86977  33.654  23.146   2.264
16378W        W86978  10.839  24.200  11.692
16379W        W86979   0.530  40.794   2.417
16380W        W86980  30.484  19.310  11.115
16381W        W86981  18.593   5.249  13.693
16382W        W86982  33.133   2.005   1.918
16383W        W86983  44.740  43.402   1.771
16384W        W86984  11.377  44.362   4.116
16385W        W86985  36.610  33.567   3.756
16386W        W86986  26.484   2.850  11.946
16387W        W86987   6.054   3.461  11.135
16388W        W86988   8.677  31.551  11.991
16389W        W86989  21.612  12.839  12.579
16390W        W86990  26.618   8.519   3.039
16391W        W86991  44.824  13.292   1.635
16392W        W86992  11.110  25.766  12.869
16393W        W86993  32.240   2.393  13.992
16394W        W86994  31.635  33.683  13.085
16395W        W86995  12.904  29.940   0.685
16396W        W86996  35.923  15.064   4.654
16397W        W86997  24.265   6.901   2.753
16398W        W86998  13.830   6.779  14.872
16399W        W86999  12.012   4.773  12.541
16400W        W87000  32.103  29.563   3.671
16401W        W87001  41.852  28.191  12.467
16402W        W87002   6.219  19.575   2.348
16403W        W87003  32.113  23.159   2.688
16404W        W87004  42.302  33.156  11.073
16405W        W87005  27.880  33.027   0.162
16406W        W87006  39.932  40.659   3.560
16407W        W87007   6.769   2.505   1.804
16408W        W87008  44.044  16.993  13.068
16409W        W87009  19.773  28.493  11.939
16410W        W87010   5.239  37.046  13.038
16411W        W87011  15.064   1.074   3.174
16412W        W87012  36.578   5.352  12.377
16413W        W87013  23.490  39.683   3.392
16414W        W87014  11.717  10.462   0.025
16415W        W87015  44.153  11.638  14.905
16416W        W87016  12.640  27.689   2.261
16417W        W87017   5.638  15.578  13.054
16418W        W87018   5.076  27.367  10.730
16419W        W87019  17.196  44.561   5.007
16420W        W87020  21.117  32.425   3.028
16421W        W87021  23.107   2.261  11.128
16422W        W87022  13.164  37.062   2.615
16423W        W87023  34.636  30.159   3.771
16424W        W87024   9.717  22.977  12.374
16425W        W87025  30.337  37.251   4.198
16426W        W87026  13.538  37.078  11.205
16427W        W87027  28.324  11.293   4.781
16428W        W87028  11.614   1.235  12.604
16429W        W87029  19.107  13.604  11.022
16430W        W87030  19.443  27.934   2.379
16431W        W87031   6.442  16.083  13.044
16432W        W87032  23.591  31.550  13.464
16433W        W87033   4.524  28.756   0.469
16434W        W87034   8.681  15.076   2.168
16435W        W87035  35.423   6.227   2.906
16436W        W87036  27.415  24.852   0.301
16437W        W87037  18.599  21.829  12.645
16438W        W87038  31.129  26.585  13.947
16439W        W87039  40.277   1.994  12.669
16440W        W87040  26.544  37.109  14.290
16441W        W87041  28.015  24.410  13.565
16442W        W87042   6.602  34.898   1.290
16443W        W87043   9.828  20.787  10.175
16444W        W87044   3.345  39.419   3.648
16445W        W87045  13.645  18.613  14.885
16446W        W87046  18.724   1.570  12.956
16447W        W87047  25.638   4.626   3.299
16448W        W87048  33.081  18.011   4.575
16449W        W87049  27.038  36.221  13.559
16450W        W87050  26.042   5.920   1.223
16451W        W87051   7.309  19.793  14.351
16452W        W87052  34.063  18.825   4.038
16453W        W87053  38.523   4.681   1.292
16454W        W87054   2.783  42.796   4.194
16455W        W87055   4.462   2.401   4.630
16456W        W87056  36.631  36.935  10.905
16457W        W87057  40.978  18.626   0.527
16458W        W87058  28.585  35.259  14.792
16459W        W87059  14.592   2.562   1.780
16460W        W87060  39.551  25.037  12.609
16461W        W87061   7.306  24.956   0.087
16462W        W87062  33.966  24.884  12.442
16463W        W87063  19.659  39.444   0.955
16464W        W87064  14.774  11.694  13.367
16465W        W87065  15.968  17.211   3.735
16466W        W87066  25.553  37.295   1.330
16467W        W87067  30.791   8.301  12.604
16468W        W87068  27.656  19.123  12.945
16469W        W87069   6.965   5.412  12.209
16470W        W87070  33.484  43.955   4.597
16471W        W87071   4.459  23.804   1.370
16472W        W87072  36.740   0.561  12.124
16473W        W87073  21.641  30.663   2.674
16474W        W87074  22.585  29.033  12.660
16475W        W87075   3.847   0.427   2.795
16476W        W87076  29.921  21.570   2.683
16477W        W87077  38.961  33.140  12.393
16478W        W87078  36.446  32.202  11.992
16479W        W87079  40.863  37.521   3.785
16480W        W87080  25.538  41.580   3.391
16481W        W87081  16.464  24.935   1.893
16482W        W87082   4.579  25.350   3.136
16483W        W87083  26.529  12.197  12.954
16484W        W87084  28.546   6.557  13.534
16485W        W87085  27.139  37.555  12.821
16486W        W87086  37.873  36.082   5.079
16487W        W87087  15.916  44.550   2.187
16488W        W87088  41.467  14.794  13.953
16489W        W87089  35.072  35.350  14.608
16490W        W87090   2.754  27.665   4.722
16491W        W87091  19.782   4.988   9.970
16492W        W87092   0.514  31.648  11.522
16493W        W87093  23.520   2.662  14.509
16494W        W87094  41.491  32.027  11.123
16495W        W87095  23.017   3.768   1.144
16496W        W87096   7.530  35.811   1.368
16497W        W87097  35.543  35.668   2.673
16498W        W87098  36.963  22.914   0.963
16499W        W87099  20.935  31.022   4.514
16500W        W87100  41.837  28.138   4.516
16501W        W87101  14.048  22.876  14.565
16502W        W87102  26.004   5.183   1.678
16503W        W87103  42.685  29.305   3.688
16504W        W87104  16.263   6.499  11.622
16505W        W87105  44.971   2.368  14.244
16506W        W87106  44.671  43.979  11.184
16507W        W87107  37.275  22.101   4.036
16508W        W87108   0.231  30.067  12.904
16509W        W87109  40.930  35.180  12.890
16510W        W87110   4.424  34.970  12.167
16511W        W87111   9.966  25.457   0.434
16512W        W87112  19.955  27.400   2.768
16513W        W87113   8.159  30.100   1.717
16514W        W87114  28.210  26.697   4.968
16515W        W87115  41.768  42.212  13.532
16516W        W87116  41.819  33.574  10.246
16517W        W87117   0.505  29.597  14.484
16518W        W87118  34.943  28.414  11.649
16519W        W87119  40.354  44.932  14.071
16520W        W87120  22.660   4.570  10.410
16521W        W87121   9.185   7.300   4.919
16522W        W87122  23.241   7.753  11.646
16523W        W87123  36.370  34.860  13.456
16524W        W87124   7.488  32.939  12.900
16525W        W87125  37.541   8.104  14.983
16526W        W87126   2.759  16.990  11.892
16527W        W87127  27.955   7.155   4.635
16528W        W87128  20.859   6.883   1.781
16529W        W87129  28.827  42.513  10.784
16530W        W87130   9.400   8.674   3.113
16531W        W87131  29.270   3.884   0.924
16532W        W87132   4.688  13.362   1.222
16533W        W87133  43.349  13.844  10.616
16534W        W87134  32.676  20.513   0.013
16535W        W87135  25.654  13.530  14.462
16536W        W87136  40.249  43.087  14.428
16537W        W87137  44.829   7.716   1.182
16538W        W87138  39.038  37.906   0.551
16539W        W87139  10.233  18.135   0.203
16540W        W87140  35.031  43.691  11.000
16541W        W87141  27.942  39.081  11.976
16542W        W87142  11.857  23.206   4.132
16543W        W87143   6.278  29.049  10.201
16544W        W87144  32.457   8.250   0.744
16545W        W87145  40.961   8.172  12.471
16546W        W87146  23.675  14.674  14.849
16547W        W87147  18.280  32.191  10.378
16548W        W87148  28.242  14.375  14.875
16549W        W87149  12.142  24.633  12.058
16550W        W87150  16.243  44.736  10.428
16551W        W87151  33.667  14.454   0.231
16552W        W87152  35.903  23.039   0.892
16553W        W87153  42.011   0.469   0.918
16554W        W87154  38.038   2.995  12.158
16555W        W87155  26.008  11.556   2.764
16556W        W87156  21.508  38.286  11.568
16557W        W87157  40.266  39.040  11.256
16558W        W87158  17.283   4.935   3.289
16559W        W87159  26.643  15.027  13.025
16560W        W87160   0.134  29.523  13.113
16561W        W87161  43.745  14.156   1.453
16562W        W87162  40.095  24.214   4.059
16563W        W87163  44.272  38.510   4.627
16564W        W87164   4.464  34.888   5.274
16565W        W87165   5.803  19.585   3.313
16566W        W87166  20.180  34.569   2.932
16567W        W87167  17.863  42.862   1.218
16568W        W87168   2.045   1.968  14.036
16569W        W87169  33.528  39.789  14.311
16570W        W87170  38.822  19.872   5.067
16571W        W87171  16.818   5.352   1.996
16572W        W87172  35.992  30.956  14.517
16573W        W87173  21.092  44.386   3.207
16574W        W87174  29.412  10.672  13.521
16575W        W87175  15.593  25.729  14.960
16576W        W87176   7.430  27.973  14.065
16577W        W87177  42.548  32.135   3.680
16578W        W87178  10.290  36.396  13.799
16579W        W87179  15.524  10.287   4.203
16580W        W87180   4.738  35.918  13.082
16581W        W87181  10.567  11.626  12.603
16582W        W87182  25.258  35.418  13.334
16583W        W87183  39.027  15.473  14.011
16584W        W87184   1.033  43.492   0.423
16585W        W87185  26.652  17.200   4.238
16586W        W87186  42.994   8.410  12.694
16587W        W87187  27.053   3.343   2.187
16588W        W87188  23.169  44.837  10.740
16589W        W87189  30.914  14.767   3.202
16590W        W87190   8.271  21.202  14.477
16591W        W87191  41.616  20.777   4.586
16592W        W87192  30.896   0.025  11.050
16593W        W87193  20.423  37.528   2.460
16594W        W87194  24.605  36.109   3.870
16595W        W87195  18.815  20.501   2.960
16596W        W87196  11.134  29.978   1.769
16597W        W87197   1.746  37.691   0.080
16598W        W87198  13.135  15.374   2.828
16599W        W87199  12.800  29.406   0.040
16600W        W87200  27.225  40.706  13.827
16601W        W87201   4.903  17.107  11.133
16602W        W87202   6.212   2.421  14.866
16603W        W87203  31.090  34.966   4.293
16604W        W87204   4.628   1.288   1.512
16605W        W87205   8.769   3.362   3.338
16606W        W87206  23.498  21.241  10.886
16607W        W87207   7.250  12.607  11.849
16608W        W87208  42.373  13.079  11.123
16609W        W87209  41.483  18.416   0.306
16610W        W87210  29.706  17.165   0.020
16611W        W87211  31.465   8.220   3.724
16612W        W87212  44.044   8.861  13.660
16613W        W87213  36.018  31.226   0.940
16614W        W87214  10.736  26.688  11.096
16615W        W87215   4.447   4.301   4.191
16616W        W87216  44.446  25.981  11.162
16617W        W87217  43.482  29.545   3.967
16618W        W87218  29.410  17.042  10.711
16619W        W87219  37.883  31.039  13.078
16620W        W87220   5.715  25.466  11.156
16621W        W87221   6.362  19.663   4.057
16622W        W87222   8.986   5.865   3.773
16623W        W87223  32.488   4.768  10.668
16624W        W87224  36.777  37.875   3.186
16625W        W87225  17.627  12.546  11.068
16626W        W87226   4.470  30.462  10.711
16627W        W87227  32.630  37.755   3.060
16628W        W87228   4.122  24.555  11.640
16629W        W87229  19.559   0.302   4.349
16630W        W87230  34.637  33.572   1.448
16631W        W87231  35.342  31.280  10.746
16632W        W87232   5.308  14.996   3.846
16633W        W87233  14.740  11.210  12.474
16634W        W87234  23.761  24.142  13.071
16635W        W87235  29.862  19.206   1.873
16636W        W87236   3.030  31.468   2.324
16637W        W87237  17.597   3.194   2.289
16638W        W87238  42.705  26.762   3.711
16639W        W87239  24.952  16.081  11.328
16640W        W87240   6.947  20.783  14.391
16641W        W87241  41.319   4.101  13.508
16642W        W87242   3.860  37.447  13.894
16643W        W87243  34.640   7.362  11.562
16644W        W87244  31.087  32.124   0.971
16645W        W87245  22.187  43.602  11.099
16646W        W87246  15.890  34.127  11.678
16647W        W87247  15.261  17.372  14.892
16648W        W87248  12.713  27.561   4.660
16649W        W87249  23.544  37.892  10.837
16650W        W87250  34.414  30.964   0.924
16651W        W87251   0.280   6.800   3.391
16652W        W87252   6.484  15.780   9.995
16653W        W87253   1.603  34.647   5.265
16654W        W87254  32.940   5.230   3.608
16655W        W87255  36.190  18.061   3.225
16656W        W87256   3.560   2.049   2.130
16657W        W87257   7.598  18.691  14.779
16658W        W87258   4.550  42.933  11.496
16659W        W87259  15.195  14.156  11.090
16660W        W87260  17.262  38.883  13.985
16661W        W87261   3.268  29.549   1.438
16662W        W87262   5.271   6.757   1.465
16663W        W87263  18.164  40.043   1.960
16664W        W87264   6.180  33.166  11.130
16665W        W87265  19.961   6.224  12.351
16666W        W87266  41.925  13.625  14.800
16667W        W87267   0.727  12.143  14.018
16668W        W87268   0.405  37.721   1.417
16669W        W87269  15.430  30.195   2.931
16670W        W87270  28.123  19.477   2.735
16671W        W87271  40.042  26.404   0.066
16672W        W87272  30.672  42.567  14.449
16673W        W87273  39.571  18.353  12.819
16674W        W87274  43.902  10.129  10.614
16675W        W87275  17.583  38.551  14.742
16676W        W87276  27.061  25.688   3.677
16677W        W87277  25.726  30.489   1.401
16678W        W87278  19.516   6.098   4.380
16679W        W87279  20.902  39.133   2.965
16680W        W87280  11.835  26.873   3.758
16681W        W87281  12.674  41.533  13.498
16682W        W87282  31.913  28.975   0.750
16683W        W87283  34.805  24.361   1.540
16684W        W87284  12.313  39.397   2.936
16685W        W87285  40.772  38.856   2.743
16686W        W87286  37.673  40.057  12.168
16687W        W87287  15.129  43.087  12.145
16688W        W87288  40.873  22.946   1.337
16689W        W87289  40.799  44.135  13.561
16690W        W87290  30.618  20.022   4.299
16691W        W87291   0.088   1.835   2.169
16692W        W87292  23.203  34.512  11.641
16693W        W87293  41.253  33.843   2.362
16694W        W87294  38.231   2.440   1.452
16695W        W87295   1.869  15.357  14.347
16696W        W87296   6.271  19.464   5.018
16697W        W87297  44.221  25.651   3.247
16698W        W87298  43.947  27.980   0.722
16699W        W87299  44.984   8.183  11.079
16700W        W87300  15.370  12.971  10.149
16701W        W87301  21.598  15.132  13.991
16702W        W87302  26.500  36.716   4.577
16703W        W87303  33.088  33.979   3.605
16704W        W87304  23.679   9.608   4.716
16705W        W87305  26.785  22.741  14.813
16706W        W87306  12.787   5.188   2.628
16707W        W87307   6.835  44.212   3.339
16708W        W87308  39.070  41.389   0.334
16709W        W87309  14.305  10.058   3.751
16710W        W87310  35.077  34.730  13.895
16711W        W87311  29.575  35.993   2.731
16712W        W87312   9.266  16.823  12.092
16713W        W87313  18.355  32.307   3.104
16714W        W87314  21.047  21.187  12.104
16715W        W87315  34.343  31.990   2.725
16716W        W87316  19.605  38.941  12.545
16717W        W87317  32.064  21.375   4.584
16718W        W87318  18.774   5.670  13.924
16719W        W87319  34.356  29.059  11.654
16720W        W87320  31.582  14.439   1.190
16721W        W87321  38.853  14.412  12.139
16722W        W87322  38.824  44.433  14.767
16723W        W87323  28.556  38.854   0.875
16724W        W87324   9.317  34.650  12.634
16725W        W87325  40.280  42.794   9.847
16726W        W87326  19.641  10.712   2.230
16727W        W87327   7.676  41.501   4.557
16728W        W87328   2.524  20.307  14.897
16729W        W87329   2.028  42.506   3.683
16730W        W87330  40.800  30.366  14.840
16731W        W87331  12.393   6.695   1.769
16732W        W87332   7.691  23.312  14.734
16733W        W87333   3.917  44.837  11.971
16734W        W87334  18.154  15.577   1.421
16735W        W87335  21.558  21.744   2.694
16736W        W87336  16.223  28.011  12.083
16737W        W87337   5.919  19.116   3.079
16738W        W87338  24.448  44.372   2.081
16739W        W87339  22.017  42.771   0.720
16740W        W87340  25.409  14.854   4.157
16741W        W87341  30.312  19.004  10.729
16742W        W87342  27.701   0.381  10.533
16743W        W87343  31.334  25.649   0.050
16744W        W87344  13.333  41.463  12.154
16745W        W87345  23.644  13.692  12.108
16746W        W87346   7.656  44.974  10.753
16747W        W87347  39.555  25.537  12.467
16748W        W87348  26.756  23.707  14.779
16749W        W87349  37.768  34.150   4.553
16750W        W87350  23.479  42.891  12.443
16751W        W87351  19.870  41.900   0.970
16752W        W87352  17.339   5.326   4.628
16753W        W87353   3.918   6.208   0.949
16754W        W87354   1.338  33.397   0.351
16755W        W87355  38.817  16.057   4.548
16756W        W87356  30.131   4.426   1.347
16757W        W87357  17.083  12.251   4.281
16758W        W87358  23.981  18.817   1.003
16759W        W87359   7.701  39.481  14.628
16760W        W87360   1.798  42.998  14.221
16761W        W87361  17.507   3.955   4.560
16762W        W87362   4.290  26.362   1.390
16763W        W87363   2.512  12.060  12.510
16764W        W87364  39.542  11.241   2.362
16765W        W87365  35.936  44.466  14.001
16766W        W87366  40.753  40.097   2.593
16767W        W87367  42.920  39.200  12.362
16768W        W87368  33.445  26.704   0.775
16769W        W87369   9.492  44.698   3.034
16770W        W87370   3.307   9.766  13.390
16771W        W87371  14.617  32.541   3.981
16772W        W87372  37.233   8.285  14.377
16773W        W87373  16.679  10.878   3.691
16774W        W87374  16.841  43.060  13.424
16775W        W87375  40.988  16.356  13.464
16776W        W87376  15.732  14.294   3.639
16777W        W87377  22.431  38.570  10.063
16778W        W87378  22.643  35.363  13.970
16779W        W87379  22.761  22.396  14.098
16780W        W87380  27.340   3.729  14.314
16781W        W87381  33.004  11.656  14.822
16782W        W87382   8.944  13.805  11.072
16783W        W87383  22.733  31.395  13.029
16784W        W87384  31.676  40.375   4.046
16785W        W87385  29.420  39.438  11.301
16786W        W87386  25.599   6.698  12.847
16787W        W87387  18.407   2.350   2.738
16788W        W87388  20.259  32.050   1.633
16789W        W87389  38.349  37.995   0.895
16790W        W87390   6.636  37.196   3.621
16791W        W87391  31.593  31.986   3.296
16792W        W87392  35.512   8.745  14.762
16793W        W87393  42.978  28.998   2.423
16794W        W87394  26.983  21.163  11.504
16795W        W87395  44.844  10.110  14.456
16796W        W87396  24.910   9.201  10.188
16797W        W87397  18.491  30.117   1.300
16798W        W87398  44.757  30.262   3.721
16799W        W87399  26.579  20.472  13.010
16800W        W87400  42.862   1.023  14.663
16801W        W87401  26.458  12.613   1.523
16802W        W87402  29.912  43.892  12.146
16803W        W87403  19.193  36.092  12.850
16804W        W87404  34.387  15.232   0.363
16805W        W87405  13.481  30.518  10.345
16806W        W87406  19.372  33.155   4.221
16807W        W87407  26.450  22.309   4.994
16808W        W87408  19.121  11.239   1.325
16809W        W87409  43.383  14.736  11.150
16810W        W87410  37.153   7.379   2.172
16811W        W87411   1.208  35.136   1.430
16812W        W87412  19.731  32.442  13.371
16813W        W87413   2.468  27.764  13.084
16814W        W87414   3.824  42.347  10.427
16815W        W87415  30.993  26.052  13.365
16816W        W87416  19.545  13.601   0.396
16817W        W87417   6.846  12.365   3.689
16818W        W87418  34.105  11.217   0.921
16819W        W87419  18.850  33.116   4.145
16820W        W87420  17.883  33.380  14.482
16821W        W87421  31.257   4.135   4.143
16822W        W87422   4.301   0.803   0.858
16823W        W87423  35.085  44.797   0.914
16824W        W87424  22.745  26.170   4.629
16825W        W87425  41.084  20.325   4.700
16826W        W87426  34.673  22.999  12.088
16827W        W87427  42.702  31.581   1.174
16828W        W87428  22.938  14.777  11.229
16829W        W87429  44.259  22.805  13.870
16830W        W87430  23.687   6.128   1.684
16831W        W87431   7.752   5.401  11.466
16832W        W87432  37.621  33.013  13.063
16833W        W87433  40.080   0.748   1.644
16834W        W87434  39.614   1.009  11.936
16835W        W87435  42.896  25.929  14.925
16836W        W87436  26.764  37.512   0.953
16837W        W87437  38.263  31.014   3.373
16838W        W87438   7.766  25.787  11.576
16839W        W87439  32.463  24.579   4.657
16840W        W87440   7.514   2.452   1.172
16841W        W87441  14.149  17.695   4.085
16842W        W87442  39.115  29.642  11.760
16843W        W87443  31.539  35.193   4.605
16844W        W87444  35.034  21.463  12.969
16845W        W87445  18.061  41.456   0.820
16846W        W87446  38.637  22.171  12.879
16847W        W87447  39.090  19.950  11.497
16848W        W87448   3.937  40.695  11.362
16849W        W87449  27.037  30.203  11.280
16850W        W87450  24.834  17.810   1.780
16851W        W87451   0.349  43.005   3.347
16852W        W87452  20.708  44.447   1.014
16853W        W87453  29.219  12.447  14.398
16854W        W87454  27.657  30.961  13.736
16855W        W87455  34.136  29.866  11.075
16856W        W87456  43.577  38.319   3.627
16857W        W87457  31.498  11.455  12.875
16858W        W87458  44.499  10.337  14.860
16859W        W87459   5.317  43.551   0.360
16860W        W87460   4.826  18.239  12.010
16861W        W87461  33.407  12.891   1.762
16862W        W87462  40.158  28.907  11.866
16863W        W87463  16.047   5.229   3.310
16864W        W87464  19.771  31.204  14.108
16865W        W87465  36.382  32.929  12.479
16866W        W87466  43.593  42.897  14.933
16867W        W87467  41.252  24.146   4.718
16868W        W87468  43.872  14.579  12.048
16869W        W87469  42.029  17.146   4.704
16870W        W87470  13.271   9.443  12.525
16871W        W87471  36.063  13.870  13.434
16872W        W87472  20.714  34.853  12.065
16873W        W87473  37.348   9.190   1.791
16874W        W87474   8.773   8.635   3.183
16875W        W87475   4.710  43.341  12.792
16876W        W87476  21.411  44.824  13.970
16877W        W87477  28.505   8.882  11.521
16878W        W87478   7.870  26.588   1.831
16879W        W87479   5.763  37.940   3.049
16880W        W87480  24.171  33.844  10.695
16881W        W87481  30.850  19.829   0.031
16882W        W87482  16.060   2.152   1.958
16883W        W87483  12.636  14.571   4.599
16884W        W87484  25.569  22.185  13.996
16885W        W87485  20.643  32.319   4.352
16886W        W87486   2.807  32.594   4.334
16887W        W87487   9.435  36.024   1.317
16888W        W87488  21.504   3.998   4.272
16889W        W87489  13.248  17.279   0.724
16890W        W87490   4.519  10.795   3.562
16891W        W87491  44.535  35.490  12.991
16892W        W87492  14.347   4.063   1.501
16893W        W87493  11.852   0.220  13.702
16894W        W87494  39.921  33.760  12.213
16895W        W87495   5.646   1.373  12.525
16896W        W87496   5.389  31.971   2.344
16897W        W87497   8.373   1.365   1.213
16898W        W87498  10.501  31.750   4.169
16899W        W87499  32.653  16.833  12.834
16900W        W87500  17.283   7.271  12.074
16901W        W87501  22.514  13.587   1.761
16902W        W87502  43.362   7.637   3.319
16903W        W87503  34.305  33.126  14.925
16904W        W87504  31.360  10.203   4.507
16905W        W87505   5.667   3.615  12.740
16906W        W87506  39.359  17.840  14.217
16907W        W87507  25.798  40.037  14.929
16908W        W87508  17.985   9.145   2.805
16909W        W87509  17.251  40.989   0.874
16910W        W87510  34.782  34.870   4.713
16911W        W87511   4.137  20.941   2.800
16912W        W87512  37.368  31.229   2.264
16913W        W87513  33.889  35.086  14.449
16914W        W87514   2.811  27.179   2.493
16915W        W87515  30.002  43.065   2.678
16916W        W87516   1.999   5.415   3.088
16917W        W87517  14.634  29.840  12.319
16918W        W87518  44.023  37.137  14.393
16919W        W87519  29.481  27.392  11.661
16920W        W87520  18.739  10.600  12.382
16921W        W87521  13.831   3.311  14.294
16922W        W87522   0.369  29.871   2.716
16923W        W87523  36.334  29.162   1.044
16924W        W87524  30.641  10.144   1.819
16925W        W87525   8.428   4.557  10.695
16926W        W87526   8.675   3.263   2.415
16927W        W87527  20.252  32.237  13.354
16928W        W87528  25.611  36.853   3.405
16929W        W87529  29.561  14.268  11.135
16930W        W87530  31.936  24.398   4.624
16931W        W87531   7.943  22.062   2.026
16932W        W87532  30.886  17.733  14.771
16933W        W87533  15.313  33.631   2.113
16934W        W87534  28.123  35.812   1.884
16935W        W87535  29.564  39.360   2.232
16936W        W87536  15.584  35.321   0.974
16937W        W87537  17.679  10.211  10.979
16938W        W87538  13.149  31.029  12.626
16939W        W87539  43.875   3.616  10.552
16940W        W87540  44.445  42.629  10.952
16941W        W87541  35.271   6.676  14.662
16942W        W87542  29.376  14.373  10.498
16943W        W87543  41.772  35.000  12.493
16944W        W87544  41.829  21.250   4.519
16945W        W87545  17.743  25.161  12.993
16946W        W87546  28.462  33.139  13.806
16947W        W87547   8.708  24.894   0.458
16948W        W87548   6.289  33.175   0.437
16949W        W87549  36.765  29.989   0.969
16950W        W87550   6.749  40.357   0.771
16951W        W87551  29.969   4.639   0.895
16952W        W87552  37.987  30.429  14.915
16953W        W87553  44.199   6.830  11.217
16954W        W87554  21.457   3.237  11.543
16955W        W87555   2.549  24.035   2.832
16956W        W87556   6.215  15.032   4.316
16957W        W87557  37.660  17.045  14.606
16958W        W87558  37.428  44.272   0.033
16959W        W87559  29.256   0.838   1.850
16960W        W87560   5.914  13.940  13.625
16961W        W87561  29.467   0.451   1.415
16962W        W87562  28.184  10.413   4.598
16963W        W87563  20.284  18.031  14.503
16964W        W87564  31.215  37.125   0.229
16965W        W87565  23.509  17.599   1.183
16966W        W87566  21.071   8.901  13.252
16967W        W87567  21.533  12.583  11.137
16968W        W87568  41.353  11.364   1.888
16969W        W87569  39.116   4.200   0.989
16970W        W87570  15.849  39.860   4.897
16971W        W87571  38.354   8.262   4.409
16972W        W87572   2.186  20.891  13.452
16973W        W87573  10.642  28.449  13.526
16974W        W87574  10.657  17.111   1.468
16975W        W87575  43.444  31.588   4.548
16976W        W87576  20.140  38.498   4.069
16977W        W87577   5.715  28.963   0.041
16978W        W87578  18.559  12.153  11.623
16979W        W87579   0.159  36.173  12.894
16980W        W87580   0.795   5.996  13.058
16981W        W87581  27.205  36.650   0.812
16982W        W87582   7.923   8.846  11.938
16983W        W87583  29.174  25.102   5.035
16984W        W87584  30.402   7.174  10.629
16985W        W87585  27.768  12.947   0.294
16986W        W87586  44.542  36.772   2.168
16987W        W87587  38.287  14.592   2.476
16988W        W87588   7.020  26.703  12.546
16989W        W87589  11.667  13.662  11.586
16990W        W87590  12.405  43.043   0.458
16991W        W87591  25.252   0.253   0.919
16992W        W87592  25.956  44.894  10.248
16993W        W87593  36.436  17.539   4.317
16994W        W87594   5.992  38.544  14.744
16995W        W87595  25.385   7.884  12.380
16996W        W87596   5.047   4.835   5.290
16997W        W87597  17.922  36.594  13.579
16998W        W87598  43.989  10.616   3.291
16999W        W87599  26.628  30.143   1.705
17000W        W87600  26.635  21.757   4.059
17001W        W87601  44.944  24.026   1.933
17002W        W87602  24.122  25.261  12.554
17003W        W87603  20.519  11.682   2.225
17004W        W87604   8.891  38.413   4.601
17005W        W87605  11.793  31.065  13.847
17006W        W87606  32.020  30.390  14.152
17007W        W87607  16.594  29.935  12.873
17008W        W87608   1.851   7.940  10.989
17009W        W87609  18.060  37.561   4.085
17010W        W87610  34.840  40.047   1.363
17011W        W87611  14.232  35.811   4.512
17012W        W87612  15.858  19.530   4.808
17013W        W87613  15.736  27.848  10.733
17014W        W87614  33.202  20.203   3.486
17015W        W87615   7.231  38.890   1.927
17016W        W87616  37.825  18.592   1.405
17017W        W87617  29.025  44.673   3.046
17018W        W87618  10.849   6.601   3.694
17019W        W87619  35.940  26.944  14.497
17020W        W87620   9.130  16.542   2.685
17021W        W87621  21.618   6.612   2.427
17022W        W87622   4.684   7.467  11.996
17023W        W87623  42.916   4.628   1.319
17024W        W87624  41.531  26.082  13.239
17025W        W87625  39.363  32.436   4.533
17026W        W87626  36.054  14.988  10.357
17027W        W87627  26.441  31.874  10.707
17028W        W87628  43.032  16.552  10.680
17029W        W87629  39.903  37.303   0.442
17030W        W87630   5.138  38.115   1.807
17031W        W87631   8.452   1.681   4.820
17032W        W87632  36.029  27.879  11.582
17033W        W87633  30.797  23.864  11.945
17034W        W87634   8.216  21.279  12.548
17035W        W87635  18.571  44.567  13.139
17036W        W87636  23.597  11.122   1.854
17037W        W87637  40.027  15.303   3.837
17038W        W87638  43.422   7.573  11.713
17039W        W87639  42.711  42.850   4.139
17040W        W87640  24.420   8.176   0.198
17041W        W87641   0.902  34.127  11.440
17042W        W87642  22.233   2.667  13.466
17043W        W87643   5.976  39.540   0.453
17044W        W87644  25.446  40.050   3.245
17045W        W87645   2.910  38.933   2.591
17046W        W87646  38.635   2.360  12.025
17047W        W87647  39.975  13.078  10.595
17048W        W87648  31.946  36.277   1.050
17049W        W87649  44.502  38.995   0.450
17050W        W87650  25.098  21.734   2.176
17051W        W87651  38.132  42.791  13.050
17052W        W87652  34.094  12.978   4.508
17053W        W87653  30.089  43.765  13.088
17054W        W87654  36.672  38.252   1.513
17055W        W87655  35.910   0.673   1.086
17056W        W87656   1.326  35.990   0.368
17057W        W87657  26.674  29.384  11.791
17058W        W87658  32.784  10.144  12.325
17059W        W87659  38.820  35.857   3.836
17060W        W87660  11.261  32.118  12.125
17061W        W87661  22.666  37.447   1.212
17062W        W87662   7.917   7.346   0.903
17063W        W87663  31.989  20.448   2.732
17064W        W87664  14.268  33.957  12.044
17065W        W87665  13.672  35.948  12.190
17066W        W87666   4.829  16.342   1.657
17067W        W87667  41.118  20.383  12.022
17068W        W87668  29.437  29.485  12.144
17069W        W87669  12.654  17.799  12.521
17070W        W87670  11.593   7.747   1.848
17071W        W87671  27.588  13.069   3.846
17072W        W87672  16.218  36.633  14.749
17073W        W87673  34.403   3.760  10.659
17074W        W87674  35.476  35.927   3.123
17075W        W87675  40.719  23.386   3.816
17076W        W87676  44.221  24.461  14.806
17077W        W87677  21.256  21.935  10.999
17078W        W87678  11.312  44.931   3.316
17079W        W87679  27.134  35.191  13.254
17080W        W87680  20.788  44.004  10.784
17081W        W87681  43.983   7.197   4.402
17082W        W87682  39.498  23.303   0.057
17083W        W87683   7.259   6.237  11.975
17084W        W87684  20.539  25.478   1.670
17085W        W87685  12.277  36.808  12.128
17086W        W87686  39.074  35.669  10.622
17087W        W87687   4.779   8.519  13.506
17088W        W87688  32.387  41.511   4.278
17089W        W87689   0.281  40.903  14.869
17090W        W87690  35.981   5.643  11.343
17091W        W87691  12.918  43.272   3.599
17092W        W87692   6.467  33.084   1.756
17093W        W87693  12.125  41.892   4.888
17094W        W87694   1.850  12.707  14.927
17095W        W87695  41.077  42.024   3.321
17096W        W87696  25.245  37.284  14.712
17097W        W87697  19.038  22.739  11.963
17098W        W87698  42.022  22.251   4.135
17099W        W87699  10.085  40.499   5.110
17100W        W87700  37.431  13.342  10.735
17101W        W87701  31.518   4.373   2.579
17102W        W87702  23.757   1.669  12.038
17103W        W87703  40.862  21.738  12.460
17104W        W87704  40.924  25.687   2.419
17105W        W87705   4.207   4.769   4.206
17106W        W87706  29.069  27.914  14.947
17107W        W87707  19.583  23.761  11.132
17108W        W87708  31.905  13.850   4.161
17109W        W87709  20.128   5.789   0.110
17110W        W87710  33.384  31.096   4.216
17111W        W87711  35.577   0.726   2.300
17112W        W87712   7.251  24.680  12.568
17113W        W87713  30.645  24.394   1.740
17114W        W87714  43.850  44.023  11.525
17115W        W87715  29.126  20.441   0.274
17116W        W87716  15.162   2.878   4.747
17117W        W87717  35.478  11.582   3.249
17118W        W87718  25.758  13.361   2.830
17119W        W87719  19.217  42.815   2.401
17120W        W87720  13.478  27.752  11.374
17121W        W87721   9.367  26.686  14.281
17122W        W87722  10.276  28.344  14.094
17123W        W87723  25.453  34.167   0.550
17124W        W87724  12.230  19.099  12.617
17125W        W87725   7.178  23.584   2.279
17126W        W87726  14.067  41.537   1.456
17127W        W87727  42.147   0.857   3.854
17128W        W87728  44.383  31.541  12.166
17129W        W87729  26.154  34.050   3.340
17130W        W87730  29.539   5.099  10.744
17131W        W87731  35.003  14.220  11.201
17132W        W87732  21.057   9.463   3.694
17133W        W87733  27.386   8.847   2.566
17134W        W87734  23.248  35.479  13.139
17135W        W87735  38.889  43.196   0.706
17136W        W87736   9.891   5.385  11.647
17137W        W87737   6.782  41.245   1.168
17138W        W87738  22.794  17.130   4.194
17139W        W87739   6.790   0.026   4.357
17140W        W87740  40.152  34.871  10.408
17141W        W87741  42.943   7.682  11.466
17142W        W87742  16.753  29.188  12.437
17143W        W87743  32.271  10.607  11.414
17144W        W87744  22.255  33.262  12.001
17145W        W87745  28.678  41.952   1.958
17146W        W87746   4.874  34.142  12.333
17147W        W87747  11.240  27.413   3.257
17148W        W87748  22.951  28.567   2.105
17149W        W87749   5.178  40.892   2.396
17150W        W87750  10.688  36.685   4.667
17151W        W87751  24.037  43.069   2.240
17152W        W87752   7.403  26.845  12.927
17153W        W87753  42.445  35.049   3.569
17154W        W87754  32.148   9.229  14.006
17155W        W87755  21.388  11.786  10.522
17156W        W87756  18.670  13.405  10.326
17157W        W87757  26.468  22.730   0.246
17158W        W87758  36.571  35.982  14.886
17159W        W87759  37.604   0.773  12.078
17160W        W87760  20.585   9.891   1.577
17161W        W87761  35.475  26.276   4.164
17162W        W87762  30.874  36.580  10.748
17163W        W87763  30.848   8.893  11.776
17164W        W87764  31.409  16.641  10.952
17165W        W87765  37.948  16.779  11.464
17166W        W87766   9.788  43.735   4.101
17167W        W87767  17.371   3.393  12.492
17168W        W87768  44.309  20.326   3.190
17169W        W87769  25.177   8.156   0.884
17170W        W87770  29.992  24.308   4.884
17171W        W87771   6.826   5.868  12.019
17172W        W87772  38.792  26.253  13.840
17173W        W87773  30.409  12.801   0.492
17174W        W87774  15.056  31.233  12.023
17175W        W87775  29.942  32.415   2.761
17176W        W87776  20.194  38.120   2.730
17177W        W87777   5.466  10.159  10.834
17178W        W87778  33.879   7.588   2.794
17179W        W87779   7.091  29.982  10.677
17180W        W87780   1.327  17.931  10.907
17181W        W87781  15.250   0.686  14.344
17182W        W87782  27.179  14.114   3.343
17183W        W87783  14.203  37.517  14.790
17184W        W87784   7.844  34.695  14.931
17185W        W87785  37.788  43.830  12.089
17186W        W87786   1.978  20.288   2.907
17187W        W87787  32.400  25.693   3.692
17188W        W87788  22.162  12.811   0.287
17189W        W87789   9.328  28.078   2.614
17190W        W87790  16.513  39.961  11.001
17191W        W87791   9.197  29.257   4.786
17192W        W87792   3.244  26.356   2.723
17193W        W87793  19.410  31.414   0.479
17194W        W87794  42.556  16.494  14.439
17195W        W87795  37.823  14.006  12.909
17196W        W87796   3.954  40.427   2.155
17197W        W87797   3.502   3.909  10.792
17198W        W87798  43.851  33.210  11.544
17199W        W87799  24.298   1.427   1.438
17200W        W87800  25.542  19.515   4.529
17201W        W87801  33.522  19.995  14.956
17202W        W87802  14.317  10.871  13.432
17203W        W87803  27.498   8.638   3.217
17204W        W87804   8.506  42.799   4.931
17205W        W87805  33.051  23.719  14.554
17206W        W87806   2.742  36.067  11.599
17207W        W87807   7.307  26.542   1.556
17208W        W87808   7.679  22.923  12.744
17209W        W87809  44.541  23.185  11.655
17210W        W87810  38.374  31.448   3.909
17211W        W87811  34.270   2.033   4.185
17212W        W87812  38.556  26.527  10.516
17213W        W87813  11.217  23.057  10.482
17214W        W87814  29.861  39.818   1.370
17215W        W87815  40.994  44.042  10.625
17216W        W87816   5.318  35.591  13.510
17217W        W87817  38.821  19.174   2.732
17218W        W87818  29.584  44.964   0.262
17219W        W87819  13.660  28.666   0.316
17220W        W87820  31.868  38.527  12.474
17221W        W87821  17.768  30.370   1.938
17222W        W87822  16.148  29.645  12.970
17223W        W87823  29.936   5.983   3.360
17224W        W87824  43.811  10.437  11.384
17225W        W87825  36.462   6.177  10.791
17226W        W87826  24.184  22.194  13.586
17227W        W87827  25.944  39.448  12.836
17228W        W87828  44.082  13.739  13.436
17229W        W87829  12.137  40.797   4.057
17230W        W87830  44.232  33.462  12.441
17231W        W87831  30.523  12.080  14.780
17232W        W87832  39.367  13.395  12.635
17233W        W87833  11.789   1.592  14.436
17234W        W87834  28.585   5.938  14.788
17235W        W87835   1.488   5.416   3.097
17236W        W87836  31.647  25.703  13.846
17237W        W87837  23.323  30.887   4.177
17238W        W87838  44.594  40.389  13.426
17239W        W87839  33.507  24.716   4.530
17240W        W87840   9.930  13.576  10.974
17241W        W87841  42.400  21.067  13.626
17242W        W87842   9.931   1.775  10.692
17243W        W87843   0.904   9.584  14.056
17244W        W87844   0.182  42.714  11.978
17245W        W87845  30.643  23.263   0.298
17246W        W87846  33.423  25.282   0.319
17247W        W87847  24.128  31.154   4.038
17248W        W87848  18.342  21.846  13.521
17249W        W87849  29.602  26.075   4.009
17250W        W87850   7.615  39.396   3.647
17251W        W87851  21.316  15.282  13.257
17252W        W87852  19.123  33.969   2.258
17253W        W87853  41.986  44.867  12.124
17254W        W87854   4.973   8.201  12.994
17255W        W87855  21.814  38.856  13.408
17256W        W87856  42.359  23.978  12.628
17257W        W87857  36.579   7.759   1.804
17258W        W87858  21.162  42.661  13.005
17259W        W87859  14.741   8.915   2.532
17260W        W87860  37.079  38.837  10.134
17261W        W87861  31.008  27.057   1.406
17262W        W87862  25.305  39.442  14.280
17263W        W87863  30.684  18.884  11.646
17264W        W87864  22.011  26.508   1.318
17265W        W87865  13.744   3.328  14.947
17266W        W87866  16.745   2.309   4.716
17267W        W87867  23.736  39.354  13.397
17268W        W87868  17.110   1.727   2.756
17269W        W87869  27.481  17.177  13.074
17270W        W87870  27.702  44.628  13.945
17271W        W87871  42.003  33.008  14.910
17272W        W87872   8.109  36.472  14.756
17273W        W87873  15.296  32.997   2.878
17274W        W87874  36.961  11.997   1.433
17275W        W87875  35.111  32.112   3.168
17276W        W87876  12.089  19.324  13.076
17277W        W87877  10.271   6.237  13.472
17278W        W87878  21.201  12.731  10.777
17279W        W87879  11.794  35.427   3.945
17280W        W87880  21.663   9.092   2.133
17281W        W87881  17.720  37.972   4.638
17282W        W87882  31.419  10.949  12.886
17283W        W87883   2.800  14.267  13.997
17284W        W87884   6.501  17.751   0.075
17285W        W87885  32.104   8.332  12.986
17286W        W87886  42.771  26.577   0.997
17287W        W87887  16.434   4.399   1.008
17288W        W87888  31.155  25.233   0.323
17289W        W87889   0.342  27.460   1.817
17290W        W87890  25.695  12.390  10.287
17291W        W87891  28.982   4.482   1.479
17292W        W87892  21.717  38.164   3.275
17293W        W87893   6.148   9.798   1.356
17294W        W87894   3.284  23.345   2.749
17295W        W87895  16.493  29.925  14.811
17296W        W87896   2.883  43.100   0.765
17297W        W87897  29.975   0.805   2.910
17298W        W87898   0.833  34.865   2.308
17299W        W87899  13.589  13.076   0.694
17300W        W87900   5.411  17.977   3.813
17301W        W87901  27.866  44.664   1.802
17302W        W87902  17.784   4.466   0.486
17303W        W87903  28.050  10.796  10.895
17304W        W87904  28.612  37.085   0.928
17305W        W87905  19.016   4.537   2.909
17306W        W87906  44.836  19.018  12.643
17307W        W87907  29.979   1.165  14.976
17308W        W87908  18.970  17.693   4.624
17309W        W87909  39.285  20.292   3.177
17310W        W87910  28.036  28.478   1.181
17311W        W87911  42.958  33.580   0.417
17312W        W87912   2.927  10.114  14.019
17313W        W87913  31.669  19.831  12.570
17314W        W87914  38.369   0.838   0.964
17315W        W87915   9.638  15.874   2.363
17316W        W87916  25.573   0.495   1.250
17317W        W87917  15.652  15.649  12.351
17318W        W87918  13.190  12.907  11.408
17319W        W87919   5.336   3.494  10.618
17320W        W87920  23.730  33.093   4.566
17321W        W87921  44.536  22.908  12.080
17322W        W87922  26.775  11.123  12.361
17323W        W87923   4.833  38.574   1.862
17324W        W87924  42.846  13.240   1.857
17325W        W87925  19.737  14.545  13.658
17326W        W87926  41.542  40.530  12.009
17327W        W87927  30.387  23.173  14.023
17328W        W87928  19.054   1.789  12.201
17329W        W87929  32.647  14.380   3.693
17330W        W87930   4.163  27.601  11.984
17331W        W87931  14.761  12.524   4.943
17332W        W87932  42.489  23.942  13.119
17333W        W87933  20.650  28.210   4.061
17334W        W87934   1.186  36.405  12.193
17335W        W87935  25.067  25.769  11.902
17336W        W87936   7.712  23.254   4.707
17337W        W87937  36.980  39.467   4.867
17338W        W87938  41.573  17.166   0.708
17339W        W87939   6.725  26.476   2.741
17340W        W87940  12.727  36.464   1.075
17341W        W87941  17.030  21.717   3.761
17342W        W87942  36.930   0.958   3.796
17343W        W87943   2.977  10.641  14.212
17344W        W87944   8.252  12.317   1.693
17345W        W87945   7.981  13.148  12.616
17346W        W87946  40.427  18.769  14.300
17347W        W87947  35.397   1.007   1.901
17348W        W87948   1.918  32.422  14.358
17349W        W87949   6.828  41.153  11.460
17350W        W87950  17.341  12.099   1.050
17351W        W87951  24.710  37.416   0.702
17352W        W87952  16.865  41.950   4.974
17353W        W87953  15.538  23.730  13.045
17354W        W87954  40.902  16.221   1.754
17355W        W87955  36.797  43.516  14.122
17356W        W87956  17.309  33.957  14.930
17357W        W87957  36.884   9.812   2.365
17358W        W87958  25.491  16.674   3.722
17359W        W87959  34.964   5.637  12.174
17360W        W87960   6.868  16.362   2.866
17361W        W87961  29.861  22.135  10.975
17362W        W87962  41.819  30.193   2.853
17363W        W87963  16.602  14.741  12.913
17364W        W87964   4.800  16.994   0.716
17365W        W87965  15.864  12.885  11.129
17366W        W87966  27.336   0.267   4.152
17367W        W87967  35.041  12.536   4.086
17368W        W87968  26.239   4.913   1.256
17369W        W87969   6.628   2.450  12.509
17370W        W87970   8.109   1.708   0.917
17371W        W87971  18.580  19.512   0.791
17372W        W87972  32.264  36.229   9.905
17373W        W87973  44.460  10.351   2.624
17374W        W87974   2.397  43.957   3.132
17375W        W87975  30.637   6.245  12.517
17376W        W87976  32.985  31.265  10.710
17377W        W87977  22.040  38.848   3.706
17378W        W87978  29.997  15.729   3.504
17379W        W87979  15.840   2.711  13.803
17380W        W87980   0.942  14.094  13.414
17381W        W87981  43.326  16.126   3.398
17382W        W87982  44.774  13.862   0.770
17383W        W87983  17.256   0.816   4.600
17384W        W87984  22.774  13.088   4.925
17385W        W87985  13.940  38.276   2.292
17386W        W87986   8.859   1.066   3.749
17387W        W87987  41.776   4.943   0.239
17388W        W87988  20.541  38.112   3.821
17389W        W87989  26.457   6.196   0.994
17390W        W87990   5.021  38.918  11.130
17391W        W87991  15.276  40.220   4.290
17392W        W87992  32.088   7.724   2.468
17393W        W87993  35.487  13.596  12.058
17394W        W87994  43.296   6.838  14.559
17395W        W87995  33.919   6.942   4.889
17396W        W87996   1.902   2.081   1.095
17397W        W87997   6.401  32.372  11.206
17398W        W87998  32.012  32.612   4.195
17399W        W87999  21.967  17.039  13.041
17400W        W88000   7.071   1.478  11.648
17401W        W88001  29.943   2.109   3.269
17402W        W88002  39.840  12.410  12.494
17403W        W88003  32.579   1.346  14.511
17404W        W88004  17.659  33.845   0.726
17405W        W88005   8.459  25.989   1.322
17406W        W88006   5.748  17.370   1.286
17407W        W88007  20.655  41.875  13.905
17408W        W88008  13.435  27.917   2.248
17409W        W88009   9.375  36.409  10.753
17410W        W88010  30.166  15.119  11.563
17411W        W88011  15.733   8.127  11.984
17412W        W88012  33.777  33.346  14.112
17413W        W88013  27.953  39.572   2.683
17414W        W88014  44.222  18.157   1.208
17415W        W88015  36.511   9.749   2.740
17416W        W88016  15.345  26.987   2.805
17417W        W88017  16.270  33.669  12.212
17418W        W88018  28.911  34.313  14.841
17419W        W88019   2.238  32.020  10.621
17420W        W88020  28.060  18.816  13.010
17421W        W88021  38.450  36.640  11.881
17422W        W88022   8.095  34.446  13.063
17423W        W88023  25.004  25.740   3.548
17424W        W88024  29.730  13.090   3.280
17425W        W88025  18.275  27.058   3.078
17426W        W88026   7.206  26.902   0.793
17427W        W88027  41.449  38.985  13.879
17428W        W88028  29.082  37.918   0.910
17429W        W88029  21.668  44.526   2.208
17430W        W88030  12.788  44.979  13.085
17431W        W88031  13.408   7.674  10.748
17432W        W88032   4.402   6.277   1.236
17433W        W88033  22.683  22.097   4.122
17434W        W88034  32.940   1.310  11.155
17435W        W88035  34.963  36.190  12.343
17436W        W88036  33.432  24.555   2.723
17437W        W88037  41.788  37.480   3.175
17438W        W88038  37.495  19.204   4.402
17439W        W88039  43.017  22.765  13.080
17440W        W88040  35.473   1.849   2.154
17441W        W88041   7.747  25.488  14.380
17442W        W88042  23.978  28.914   4.273
17443W        W88043  12.189  26.600   0.024
17444W        W88044  39.999  20.483  13.347
17445W        W88045  33.687   8.644   2.354
17446W        W88046  35.386   2.265  10.593
17447W        W88047  44.813  30.148   4.776
17448W        W88048   0.468  43.984   0.810
17449W        W88049  25.588  34.942  11.485
17450W        W88050   6.748  26.683  14.892
17451W        W88051  21.203  35.020  10.331
17452W        W88052  18.158  32.818  11.342
17453W        W88053   1.888  17.848   2.842
17454W        W88054  40.786  15.105  10.721
17455W        W88055   4.648  22.472   4.521
17456W        W88056  20.394  41.080  14.102
17457W        W88057  33.292  29.506   2.193
17458W        W88058  40.822  28.173  13.590
17459W        W88059  36.968   1.692   0.009
17460W        W88060  10.866  29.182   1.636
17461W        W88061  26.587  27.422   4.720
17462W        W88062  34.383  37.456  10.724
17463W        W88063  42.465  36.935  12.853
17464W        W88064  11.398  14.141  11.850
17465W        W88065  17.701  13.163  12.782
17466W        W88066  27.686  26.964   2.755
17467W        W88067   3.921   2.901  12.528
17468W        W88068  25.542  31.698   2.227
17469W        W88069  28.975  19.999  14.008
17470W        W88070   8.083   0.493   0.283
17471W        W88071  25.160   8.970  10.567
17472W        W88072   5.178  36.510  13.762
17473W        W88073  39.481  36.546  14.980
17474W        W88074  23.764  39.937  14.819
17475W        W88075  26.095  35.014  14.373
17476W        W88076   3.938  17.298   1.199
17477W        W88077  14.705  32.663  12.149
17478W        W88078  18.597  31.976   2.776
17479W        W88079  12.670  11.859  12.003
17480W        W88080   5.248  30.337  14.428
17481W        W88081  40.610  43.284  11.255
17482W        W88082  28.987  38.639   2.652
17483W        W88083   6.776  36.343   1.025
17484W        W88084  42.348   1.902  12.025
17485W        W88085  21.490   6.593  12.844
17486W        W88086   9.442  25.450  11.424
17487W        W88087  12.311  13.928   2.257
17488W        W88088  29.913  28.094   2.168
17489W        W88089  28.465  10.173   5.069
17490W        W88090  12.865   6.448  12.977
17491W        W88091   4.503  25.876   2.747
17492W        W88092  18.329   0.076  11.541
17493W        W88093  29.696  40.159   2.674
17494W        W88094  17.004  31.609   5.009
17495W        W88095  34.308  16.561   0.975
17496W        W88096  32.851  27.554   3.144
17497W        W88097   6.251  13.770   4.214
17498W        W88098  30.792  41.780   4.238
17499W        W88099   9.544   9.243   2.977
17500W        W88100  26.526  24.230   0.285
17501W        W88101  32.547  27.901  11.375
17502W        W88102  12.819  15.948  14.933
17503W        W88103  36.507  21.454  14.789
17504W        W88104  30.955  15.238  14.424
17505W        W88105   1.626  39.132  14.929
17506W        W88106  17.996   6.670  13.450
17507W        W88107  41.706  37.742   4.153
17508W        W88108  40.194   9.232  11.955
17509W        W88109  28.682   0.772   1.868
17510W        W88110  15.205  32.542   1.239
17511W        W88111   9.619  33.074  10.671
17512W        W88112  33.636  15.875   1.221
17513W        W88113   6.893   0.440  14.800
17514W        W88114  24.008  33.078   0.397
17515W        W88115  27.505  24.745   3.740
17516W        W88116  41.947   7.727  10.851
17517W        W88117  24.589  32.590   0.899
17518W        W88118  39.319  12.546   3.165
17519W        W88119  11.357  28.606  11.150
17520W        W88120  14.477  36.855  11.438
17521W        W88121  33.282  38.370  11.466
17522W        W88122  35.836  12.592  14.740
17523W        W88123  21.245  15.345   3.444
17524W        W88124   9.822  20.089   0.890
17525W        W88125  39.081  17.095  10.749
17526W        W88126  38.496  27.964   0.800
17527W        W88127  34.946  36.090  13.951
17528W        W88128  39.992   3.007   2.908
17529W        W88129   4.915  38.664   0.282
17530W        W88130  34.211   2.675  14.109
17531W        W88131   8.847   7.208   0.443
17532W        W88132  15.584  40.605   2.217
17533W        W88133   4.930  39.071  13.314
17534W        W88134   3.958  35.796   0.226
17535W        W88135  23.081  40.867  12.495
17536W        W88136  42.766  41.821   1.897
17537W        W88137   2.924  26.810  13.007
17538W        W88138  12.282  42.687  12.859
17539W        W88139   6.431  36.147   1.696
17540W        W88140  14.173  17.229  11.681
17541W        W88141  33.169   8.701  12.530
17542W        W88142   7.253  43.747  10.768
17543W        W88143  15.307  27.534  13.381
17544W        W88144  30.189   2.750   0.473
17545W        W88145  30.325  37.903  10.583
17546W        W88146  33.497  28.596  13.025
17547W        W88147  12.985   4.651   0.799
17548W        W88148  43.177  30.638  14.568
17549W        W88149  39.882   4.650   0.433
17550W        W88150  28.080  35.507  13.556
17551W        W88151  41.405  33.151   4.559
17552W        W88152  20.338  15.633   1.210
17553W        W88153   4.009  44.272  10.733
17554W        W88154   8.666  11.632  10.681
17555W        W88155  21.545  16.510   0.262
17556W        W88156   4.969  44.457   2.791
17557W        W88157  43.794  36.884  14.837
17558W        W88158  41.489  12.794   1.295
17559W        W88159   1.913   3.863  10.645
17560W        W88160  41.069  14.017  13.860
17561W        W88161   9.268  42.043  10.665
17562W        W88162  16.680  39.307   3.364
17563W        W88163   8.915   2.035   1.427
17564W        W88164  13.225  41.326   1.847
17565W        W88165  43.468  23.113  13.329
17566W        W88166   3.854   0.305  14.264
17567W        W88167  23.126  38.515  13.508
17568W        W88168  42.931  43.408  11.411
17569W        W88169  14.891   0.368  14.543
17570W        W88170   7.462  16.745  11.899
17571W        W88171  38.828   1.693   3.429
17572W        W88172  36.846  14.798  14.933
17573W        W88173  22.134  40.555  11.974
17574W        W88174  10.027  21.548   4.631
17575W        W88175  15.354   8.637   2.425
17576W        W88176  19.210  38.158   3.728
17577W        W88177  42.292   9.089  12.947
17578W        W88178  12.232   4.197  10.783
17579W        W88179  14.817   5.714  13.588
17580W        W88180  38.469  40.448  14.522
17581W        W88181  10.700  16.104   1.384
17582W        W88182  22.287  16.264   3.875
17583W        W88183  28.029  19.325  11.995
17584W        W88184  39.044  15.863  14.796
17585W        W88185   2.223  44.553  13.935
17586W        W88186  41.269  42.836   3.724
17587W        W88187  28.223  23.541  11.573
17588W        W88188   5.254  37.519  12.144
17589W        W88189  38.222  28.533   4.596
17590W        W88190   7.884  25.620   1.682
17591W        W88191  23.167   3.509   3.692
17592W        W88192  38.597  32.005   1.819
17593W        W88193  43.321  20.977  12.893
17594W        W88194  33.081   2.397   3.873
17595W        W88195  39.335  35.243   2.793
17596W        W88196  24.597  17.572  12.802
17597W        W88197  18.203  39.831  14.658
17598W        W88198  15.094   5.304  13.394
17599W        W88199   5.318  10.821   1.764
17600W        W88200  42.684   9.717  12.468
17601W        W88201  13.674   6.230   1.775
17602W        W88202  41.186   4.358   2.685
17603W        W88203   1.885  28.795   2.007
17604W        W88204   5.976  39.078   4.335
17605W        W88205  39.951  12.486   0.592
17606W        W88206  11.125  19.948  12.884
17607W        W88207  37.277  22.045  12.171
17608W        W88208  21.781  37.075  10.643
17609W        W88209  32.724  23.489  11.557
17610W        W88210   4.023  44.932   4.545
17611W        W88211   5.331  37.650   3.071
17612W        W88212  36.779  23.623  11.017
17613W        W88213  31.656  18.685  12.179
17614W        W88214  30.057  27.882   3.760
17615W        W88215  23.855   9.967   0.932
17616W        W88216  25.087  38.544  13.136
17617W        W88217  24.187  28.369   4.192
17618W        W88218  13.870  18.211  10.767
17619W        W88219  17.507   2.192  12.954
17620W        W88220  31.473   3.164   1.056
17621W        W88221  24.034  15.682  11.576
17622W        W88222  23.962   3.335   2.280
17623W        W88223   3.931  33.458  13.630
17624W        W88224  31.669  25.274   0.221
17625W        W88225  44.866  41.530  10.611
17626W        W88226   9.572  28.016   4.472
17627W        W88227  21.755  11.784  14.278
17628W        W88228  11.351  22.218  12.006
17629W        W88229  16.533  27.168   0.978
17630W        W88230   3.768  18.319   0.349
17631W        W88231  44.736   0.473   1.260
17632W        W88232  37.565  22.016  14.692
17633W        W88233  36.823  14.864   3.490
17634W        W88234   3.837  28.612  13.861
17635W        W88235  44.319  40.533   0.970
17636W        W88236  41.524   8.585  11.073
17637W        W88237  38.483   0.285  12.394
17638W        W88238  11.763   1.300  10.474
17639W        W88239  14.801   3.976   4.217
17640W        W88240  42.901  44.820  12.281
17641W        W88241  35.346  18.643  12.910
17642W        W88242  19.247  35.753   0.709
17643W        W88243   0.206   5.601  14.306
17644W        W88244  26.677  22.227   0.232
17645W        W88245  14.592  33.873   3.956
17646W        W88246  13.633  21.186  11.664
17647W        W88247  35.212  37.359   2.146
17648W        W88248  15.821  40.910   4.582
17649W        W88249  36.496  13.139  13.554
17650W        W88250   9.219  21.278  13.485
17651W        W88251  23.072  21.683  11.245
17652W        W88252  42.299  13.586   1.175
17653W        W88253  29.160  37.914  11.083
17654W        W88254   6.779  20.833   2.349
17655W        W88255  32.522  21.522   0.598
17656W        W88256  28.849   9.332  14.303
17657W        W88257  38.557  41.444   0.291
17658W        W88258  20.290   9.395  12.028
17659W        W88259  13.237  31.787   4.519
17660W        W88260  43.485  30.574   1.042
17661W        W88261  30.443  30.058   1.396
17662W        W88262  18.115  44.661  14.462
17663W        W88263   6.912  38.869   4.507
17664W        W88264   4.515  42.033   1.330
17665W        W88265  32.927   8.049   0.245
17666W        W88266  42.832  37.463   0.460
17667W        W88267   8.786  40.130   1.863
17668W        W88268   9.685  10.879  13.027
17669W        W88269  30.731  38.434   3.833
17670W        W88270  32.563  35.303   0.628
17671W        W88271   1.940   6.797   0.193
17672W        W88272  20.022  30.398  10.629
17673W        W88273  43.458  11.388  10.592
17674W        W88274  28.901  28.057  12.547
17675W        W88275   3.420  44.310   1.279
17676W        W88276  22.164  11.262  10.716
17677W        W88277  39.296  27.082   1.355
17678W        W88278  24.489  34.535  13.096
17679W        W88279   2.251  14.789   3.847
17680W        W88280   0.338  12.786  14.797
17681W        W88281  12.108  38.288   0.459
17682W        W88282  13.336   5.385  12.508
17683W        W88283  16.237  12.994   2.708
17684W        W88284  32.035  34.334   0.497
17685W        W88285  36.103  39.262  10.769
17686W        W88286  40.531  21.003  10.715
17687W        W88287  20.585  10.154   0.871
17688W        W88288  10.925  42.330  11.561
17689W        W88289  33.358   9.861  10.738
17690W        W88290  35.412  20.706  14.004
17691W        W88291   2.487  28.945   2.936
17692W        W88292  23.649   1.878   1.200
17693W        W88293   8.435  14.682   4.747
17694W        W88294  38.018  43.497  11.580
17695W        W88295   1.723   1.270   3.258
17696W        W88296  33.645   9.646  11.971
17697W        W88297  44.044  44.922  12.870
17698W        W88298  25.922  41.427  13.052
17699W        W88299  28.750  32.824  13.463
17700W        W88300   3.107  40.803  12.998
17701W        W88301   7.862  16.754  14.412
17702W        W88302  43.379  27.986  13.085
17703W        W88303   8.962   5.002   4.992
17704W        W88304  22.177   5.390   0.275
17705W        W88305   8.148  44.754   2.657
17706W        W88306  28.725  35.431   0.255
17707W        W88307  41.926  20.081   2.210
17708W        W88308   9.471  23.835   3.357
17709W        W88309  36.890  42.896  11.052
17710W        W88310  40.758  32.987  14.573
17711W        W88311   0.607   2.197  11.051
17712W        W88312   0.364  10.892   1.291
17713W        W88313  43.337   4.636  13.381
17714W        W88314  38.190   8.590  11.822
17715W        W88315  10.737  23.162   0.233
17716W        W88316  24.381   2.436   3.287
17717W        W88317  19.015   0.584  11.650
17718W        W88318   4.262  20.394  13.369
17719W        W88319  11.108   4.908   2.626
17720W        W88320   7.730  39.746   3.296
17721W        W88321  39.432  13.227  12.159
17722W        W88322  31.449  16.537  14.418
17723W        W88323   2.977  18.694  11.729
17724W        W88324   4.279  25.423   0.747
17725W        W88325  37.180  24.153   1.642
17726W        W88326  19.284  19.026   2.232
17727W        W88327  34.859  20.124  11.142
17728W        W88328  39.856  14.189   0.961
17729W        W88329  12.287  19.210   4.551
17730W        W88330  43.902  10.593  10.857
17731W        W88331  14.955  43.968   0.438
17732W        W88332   0.722   7.705  10.972
17733W        W88333  21.785  18.144   3.336
17734W        W88334  22.144   2.472  12.028
17735W        W88335  25.667  41.376  12.609
17736W        W88336  39.467  34.892   3.681
17737W        W88337   6.183  37.461   2.391
17738W        W88338  14.169  15.671  10.683
17739W        W88339  18.569   7.770  11.550
17740W        W88340  17.544  35.438   3.801
17741W        W88341  20.672  40.972   4.173
17742W        W88342  36.409   0.800  13.856
17743W        W88343  15.892  30.936   5.041
17744W        W88344   6.380  24.083  11.385
17745W        W88345  30.217  13.176   4.663
17746W        W88346  30.637  40.886   4.240
17747W        W88347  13.664   4.076   3.139
17748W        W88348   0.032   6.090   4.175
17749W        W88349  25.527   0.646   5.423
17750W        W88350  40.096  29.538   3.463
17751W        W88351  13.359   7.162  10.703
17752W        W88352   3.367   7.344   1.751
17753W        W88353  15.326   8.834   1.429
17754W        W88354  29.586  44.138  14.865
17755W        W88355   2.008  38.453  13.901
17756W        W88356   0.330  28.864  12.405
17757W        W88357  40.489  11.724  13.552
17758W        W88358  42.515   0.577   0.513
17759W        W88359   9.809  33.720   2.492
17760W        W88360  43.816  32.667  14.870
17761W        W88361  15.739  23.493   3.866
17762W        W88362   4.787  11.395   2.339
17763W        W88363  41.781  41.164   4.138
17764W        W88364   4.893  39.164   3.434
17765W        W88365  11.949  19.803  12.937
17766W        W88366  41.431  16.621  13.423
17767W        W88367  43.592  43.500  13.902
17768W        W88368   7.641  15.339  14.554
17769W        W88369  18.513   3.318   0.785
17770W        W88370  12.778  16.912   4.549
17771W        W88371  33.369  16.219  13.065
17772W        W88372   5.762   0.546  13.387
17773W        W88373  44.841  25.370  12.152
17774W        W88374   7.670  15.292   1.349
17775W        W88375  28.853  10.812   0.422
17776W        W88376   4.514  19.040  11.163
17777W        W88377  38.148  21.235  12.925
17778W        W88378  40.621  42.808   3.153
17779W        W88379  12.524  40.714  14.396
17780W        W88380  13.847   1.344   0.498
17781W        W88381  16.462   4.395   4.537
17782W        W88382  10.741  12.844  10.678
17783W        W88383  24.992  33.373   1.186
17784W        W88384  23.038   7.408  14.819
17785W        W88385  17.593   4.369   2.319
17786W        W88386  30.131  22.240   4.405
17787W        W88387  32.165  37.068  11.888
17788W        W88388   1.779  32.568   0.321
17789W        W88389  36.578   5.582   4.032
17790W        W88390  42.929  38.747   4.684
17791W        W88391  26.959  40.049   0.416
17792W        W88392  42.059  10.268   3.453
17793W        W88393  42.587  24.495  11.846
17794W        W88394  24.135  26.722   1.802
17795W        W88395  17.809  39.372  11.132
17796W        W88396  18.605  25.718  14.896
17797W        W88397  11.128  21.141   4.715
17798W        W88398  28.208  23.795  12.600
17799W        W88399   4.378  25.991  12.741
17800W        W88400  38.597   7.625   4.956
17801W        W88401  38.954  30.879  11.927
17802W        W88402  24.563  13.312  14.280
17803W        W88403   6.523  38.360  11.188
17804W        W88404  22.675  23.579  11.209
17805W        W88405  29.396  34.407   3.185
17806W        W88406   5.888  36.397  12.076
17807W        W88407  31.498  38.390   0.987
17808W        W88408  13.038   6.386   3.428
17809W        W88409   4.118  32.729  12.977
17810W        W88410  21.023  19.427  13.492
17811W        W88411   8.148  43.172   3.130
17812W        W88412   5.331  37.754   2.123
17813W        W88413   8.827  32.711  10.663
17814W        W88414   2.518  38.119  11.146
17815W        W88415   3.791  27.912  11.527
17816W        W88416  32.617  13.063  13.026
17817W        W88417  18.583  40.353   2.082
17818W        W88418   7.950  40.850  14.226
17819W        W88419  38.608  10.104  14.460
17820W        W88420  21.635   5.756  12.162
17821W        W88421  25.228  43.490   3.169
17822W        W88422  14.880   6.702   0.504
17823W        W88423  20.566  13.201  13.811
17824W        W88424  30.270  41.836   4.251
17825W        W88425  39.009   2.289  10.706
17826W        W88426  16.442   2.023  12.523
17827W        W88427  28.985  32.354   2.867
17828W        W88428   1.989   3.309  14.085
17829W        W88429  20.617   1.265   3.874
17830W        W88430  15.934  33.058   4.500
17831W        W88431  43.200  30.356   9.962
17832W        W88432   0.016   9.129  11.079
17833W        W88433  38.891  14.624   3.757
17834W        W88434  22.931  14.248   1.767
17835W        W88435  34.570   0.785  14.758
17836W        W88436   1.869  14.801   3.203
17837W        W88437   9.280   9.320   1.977
17838W        W88438   6.420  36.607   1.946
17839W        W88439  16.671   0.029  13.044
17840W        W88440  20.337  25.502   0.349
17841W        W88441   1.333  40.273   3.314
17842W        W88442  22.732  42.364   2.239
17843W        W88443  26.590  13.864  13.425
17844W        W88444  39.406  27.457   0.555
17845W        W88445   0.012  17.618   1.334
17846W        W88446  29.024  15.819   3.818
17847W        W88447  21.586  42.219  12.456
17848W        W88448  25.162  15.574   1.838
17849W        W88449  27.895  43.308   0.911
17850W        W88450  20.708  44.346  12.557
17851W        W88451  42.937  19.550  11.405
17852W        W88452  25.244  28.959   0.560
17853W        W88453  26.095   3.238   2.173
17854W        W88454   5.920  15.187  10.715
17855W        W88455   5.596   4.433   0.821
17856W        W88456  23.652  24.353   0.063
17857W        W88457  22.509  10.960  12.490
17858W        W88458  22.018  37.854  13.121
17859W        W88459  44.877   0.562   1.756
17860W        W88460  42.083  18.061  10.504
17861W        W88461  10.688  11.529   0.473
17862W        W88462  32.849   9.802  14.556
17863W        W88463  19.264   3.313  14.784
17864W        W88464  41.724  35.504   0.759
17865W        W88465  29.999   7.621  12.799
17866W        W88466  10.963  11.291  12.560
17867W        W88467   0.226   2.615   4.581
17868W        W88468  34.650  14.791  14.351
17869W        W88469  11.885  39.186   4.977
17870W        W88470  26.244   4.358  14.217
17871W        W88471  40.886   2.732  11.151
17872W        W88472   6.641  30.056   3.694
17873W        W88473   1.948  29.904  13.395
17874W        W88474   9.920  42.753  14.931
17875W        W88475  21.710  23.571  13.428
17876W        W88476  24.487  44.429   3.102
17877W        W88477  37.855   3.243  14.836
17878W        W88478  37.017  40.769   2.293
17879W        W88479  17.039  36.105   3.641
17880W        W88480  37.028  30.683   4.097
17881W        W88481  19.813  13.604   0.856
17882W        W88482   3.519  44.776   1.504
17883W        W88483  10.646  23.718   4.123
17884W        W88484   1.515  24.563  12.224
17885W        W88485  22.154  30.896   3.161
17886W        W88486  10.271  35.465  11.032
17887W        W88487  44.421  41.933  12.807
17888W        W88488  37.605   3.221   2.681
17889W        W88489   1.899  17.375   1.680
17890W        W88490  16.147  15.079   0.762
17891W        W88491  14.656  19.776   3.181
17892W        W88492  41.756  38.028  14.811
17893W        W88493  37.279  27.873   2.806
17894W        W88494   3.725   5.793   3.297
17895W        W88495  43.806  32.171   0.019
17896W        W88496   8.592  35.845  14.351
17897W        W88497  39.240  27.363  12.478
17898W        W88498  41.855  11.327   0.728
17899W        W88499   6.432  13.635  12.430
17900W        W88500  37.559  44.742   0.231
17901W        W88501  37.987  31.368   4.693
17902W        W88502  40.447  35.809   4.515
17903W        W88503  25.662  12.127  11.303
17904W        W88504   9.799  26.348  12.443
17905W        W88505  38.059  20.559   0.341
17906W        W88506   4.501  23.712  14.894
17907W        W88507  14.045  16.077   0.235
17908W        W88508  29.602  23.526   2.257
17909W        W88509  11.303  13.225   4.725
17910W        W88510  16.131   8.852  11.526
17911W        W88511  14.720  37.990  12.971
17912W        W88512  20.527  28.849  12.368
17913W        W88513  11.883  43.057   0.348
17914W        W88514   9.883  32.238   2.118
17915W        W88515  28.826  21.732   1.864
17916W        W88516  10.896   6.466  14.756
17917W        W88517  27.661  13.752  13.971
17918W        W88518   2.681  41.977  10.426
17919W        W88519  34.824  21.119   4.183
17920W        W88520  43.215  34.989  10.721
17921W        W88521  34.215  27.383  11.546
17922W        W88522  35.191   8.504  12.866
17923W        W88523  35.414  27.420   0.501
17924W        W88524  15.685  23.599  10.288
17925W        W88525  29.652  13.434   2.196
17926W        W88526  20.602  42.882   3.224
17927W        W88527  23.974  31.468  14.871
17928W        W88528  21.071  29.405   2.475
17929W        W88529  40.722  16.104   1.230
17930W        W88530  11.875  21.958   1.751
17931W        W88531  19.115  31.353   4.625
17932W        W88532  11.287  18.938   1.334
17933W        W88533  12.210  20.655   0.644
17934W        W88534  30.437  16.331  14.931
17935W        W88535   4.833  23.706  12.089
17936W        W88536  11.830   5.689  10.894
17937W        W88537  40.776  30.370  11.208
17938W        W88538   8.873  29.342   0.683
17939W        W88539  37.269  10.377   2.283
17940W        W88540  23.636  20.696  13.916
17941W        W88541  12.372  39.035   4.847
17942W        W88542  21.523   2.012  12.563
17943W        W88543   7.949  28.378   4.592
17944W        W88544  20.735  16.181  13.509
17945W        W88545  33.920  24.177  14.457
17946W        W88546  37.594  24.447  14.391
17947W        W88547  14.501  40.374   0.447
17948W        W88548  22.558  31.402   0.412
17949W        W88549  11.191  39.513  14.956
17950W        W88550  33.373  12.024  14.431
17951W        W88551  26.151  42.033   1.742
17952W        W88552  26.671  24.626   3.234
17953W        W88553  36.618   1.296   4.152
17954W        W88554  33.010  11.976   3.638
17955W        W88555  34.365  28.748  12.813
17956W        W88556  31.679   0.795   3.753
17957W        W88557  33.463  39.238  12.216
17958W        W88558  16.295   2.440  13.865
17959W        W88559  30.673  12.571  12.894
17960W        W88560  19.524  36.513   4.269
17961W        W88561   1.325  23.726   0.764
17962W        W88562  15.507  37.373  12.508
17963W        W88563  13.001  22.555  11.145
17964W        W88564  41.115  40.820  12.971
17965W        W88565  25.746  30.187   2.392
17966W        W88566   3.752   8.734  10.748
17967W        W88567  31.068  23.655   2.306
17968W        W88568  11.162  21.353  13.838
17969W        W88569  24.096  43.388   5.460
17970W        W88570  21.659  24.261  10.675
17971W        W88571  18.126  28.025   2.794
17972W        W88572  42.966  26.330   2.843
17973W        W88573   4.710  20.669  13.524
17974W        W88574  25.430  31.061   3.499
17975W        W88575   2.731  16.811   4.539
17976W        W88576  41.412  29.335   0.262
17977W        W88577  43.827  17.152  13.517
17978W        W88578  44.528  34.449   3.503
17979W        W88579  16.042  23.791   1.412
17980W        W88580  32.829   3.417  14.538
17981W        W88581   8.144  44.378  12.830
17982W        W88582  33.031  31.336   2.220
17983W        W88583  36.324  10.630  12.137
17984W        W88584   6.178  14.095  12.431
17985W        W88585  21.502  29.406   4.995
17986W        W88586   3.001  43.378  12.554
17987W        W88587  26.358  31.637  11.494
17988W        W88588  17.035  18.540   3.256
17989W        W88589   2.711  37.092  11.588
17990W        W88590  42.412  22.064  13.829
17991W        W88591   2.685  21.160  14.427
17992W        W88592  40.566   7.267  14.239
17993W        W88593  31.765   9.828  13.403
17994W        W88594  16.266  27.256   4.199
17995W        W88595  37.875  42.701   4.526
17996W        W88596  13.566  13.738  14.885
17997W        W88597  17.546   8.828  10.265
17998W        W88598  36.559  15.015  14.533
17999W        W88599  42.885  33.395  13.987
18000W        W88600  27.626  35.084   2.882
18001W        W88601  40.827  40.304  14.154
18002W        W88602  27.286  20.452  11.129
18003W        W88603  10.901   8.887  10.683
18004W        W88604  37.996   1.887  13.792
18005W        W88605  21.747  28.263  11.184
18006W        W88606  25.947  11.048  14.004
18007W        W88607  41.617  21.942   0.399
18008W        W88608  11.029  44.113   3.802
18009W        W88609  39.282  19.649   4.878
18010W        W88610  28.049   5.699  14.465
18011W        W88611   5.394  10.298  14.510
18012W        W88612  40.840  32.105   3.790
18013W        W88613  15.743  37.815   4.155
18014W        W88614  15.816  30.385  14.951
18015W        W88615  14.114  22.745  13.960
18016W        W88616  44.761  32.732  13.451
18017W        W88617  42.475  12.669   1.652
18018W        W88618   4.517  42.828   1.608
18019W        W88619  19.548   1.730  12.298
18020W        W88620  11.236  24.264   4.632
18021W        W88621  20.882   7.426  14.902
18022W        W88622  19.243  13.583  14.965
18023W        W88623  43.980  23.653  13.883
18024W        W88624  16.665  42.952  11.485
18025W        W88625  12.000  40.514  13.461
18026W        W88626  28.115  44.006   1.938
18027W        W88627  24.194  18.791  13.609
18028W        W88628  28.086  42.223  14.404
18029W        W88629   0.691  41.737  12.451
18030W        W88630  40.810  44.775   4.100
18031W        W88631   7.897  17.702  13.842
18032W        W88632  11.247  35.103   0.021
18033W        W88633  12.962  16.054   3.423
18034W        W88634  14.681   0.465  10.315
18035W        W88635  16.919  36.857   4.087
18036W        W88636  20.759  11.903   4.058
18037W        W88637  37.429  24.187   1.190
18038W        W88638  41.260  43.381   2.303
18039W        W88639  13.401   6.375  14.531
18040W        W88640  11.885  18.474   3.682
18041W        W88641  20.563   9.335   3.613
18042W        W88642  16.131   7.785   3.266
18043W        W88643   8.242  43.048   1.686
18044W        W88644  39.013  34.159   0.765
18045W        W88645  20.135  32.677  14.598
18046W        W88646  16.621  29.102  11.108
18047W        W88647  35.429   2.059  11.080
18048W        W88648   7.546  31.473   1.694
18049W        W88649   9.610  40.707   3.313
18050W        W88650  11.606  17.709  12.065
18051W        W88651  43.913  12.253  11.036
18052W        W88652  14.799  39.778  13.983
18053W        W88653  17.389   6.140  14.428
18054W        W88654  10.090  32.135  13.930
18055W        W88655  40.436   2.303   1.413
18056W        W88656  37.542  25.195  12.630
18057W        W88657   5.583  44.009   2.025
18058W        W88658  38.342  43.375  14.832
18059W        W88659  16.073  30.905   1.757
18060W        W88660  42.871   7.444  11.013
18061W        W88661  30.168  18.243   4.238
18062W        W88662  42.879  25.244  14.152
18063W        W88663  35.039  11.344   2.134
18064W        W88664  32.627  24.279  13.463
18065W        W88665  16.010  13.168  11.981
18066W        W88666  11.176  17.840  11.136
18067W        W88667  10.591  17.290   0.831
18068W        W88668  22.306  12.832   4.754
18069W        W88669  37.422  24.214  11.131
18070W        W88670  44.928   6.352  13.779
18071W        W88671   8.883  42.272  13.814
18072W        W88672  30.600  18.263   3.318
18073W        W88673  44.497  25.249  13.351
18074W        W88674  29.058  22.639   0.752
18075W        W88675   8.408  43.241  14.301
18076W        W88676  29.638  21.739  12.096
18077W        W88677  24.685   8.444  14.248
18078W        W88678  39.268  35.225   0.062
18079W        W88679  41.573   2.825  13.569
18080W        W88680  25.002  13.879  13.941
18081W        W88681  27.138  35.204  12.741
18082W        W88682  43.258  39.433   4.844
18083W        W88683  42.345  36.479  13.077
18084W        W88684  28.026  32.021   3.190
18085W        W88685   7.174   3.639  12.035
18086W        W88686  16.580  43.521  13.438
18087W        W88687  19.206  42.898   0.174
18088W        W88688  23.003  11.102  13.939
18089W        W88689  27.465   1.213  11.148
18090W        W88690  16.734  18.994   0.131
18091W        W88691  10.896   3.352   3.354
18092W        W88692   2.984  10.871   1.978
18093W        W88693  40.363  37.539  13.804
18094W        W88694  23.112  43.230   3.155
18095W        W88695   2.707   5.164   3.982
18096W        W88696   6.976  30.632  12.849
18097W        W88697  27.982   2.149   4.225
18098W        W88698  21.065  26.188   4.053
18099W        W88699  19.666  20.667  13.721
18100W        W88700  28.107  15.246  13.612
18101W        W88701  28.201  10.854   1.680
18102W        W88702  30.149  43.367  14.987
18103W        W88703  33.841  12.756  11.022
18104W        W88704  30.354  19.545  10.679
18105W        W88705  30.597  21.724   0.317
18106W        W88706   6.959  16.530  11.234
18107W        W88707  28.563  37.623   3.685
18108W        W88708   5.752  33.794   4.488
18109W        W88709  21.557  16.846  10.564
18110W        W88710  17.282  34.204   1.418
18111W        W88711  18.544  44.242   2.775
18112W        W88712  14.271   2.506   1.300
18113W        W88713  14.324  14.272   1.467
18114W        W88714  40.273   5.887   2.846
18115W        W88715  43.771  13.341  11.216
18116W        W88716  28.141  34.686  14.646
18117W        W88717  13.656  17.300   0.391
18118W        W88718  18.441  15.808   5.074
18119W        W88719  20.324  36.925   4.113
18120W        W88720  33.494   2.600   3.631
18121W        W88721   6.750  39.243  11.173
18122W        W88722   5.251  15.736  14.843
18123W        W88723   1.131   5.382   2.581
18124W        W88724  37.805   8.867  13.031
18125W        W88725   4.443  15.749  11.538
18126W        W88726  26.581   5.133   4.678
18127W        W88727  43.999  27.639  14.733
18128W        W88728  17.176  26.980   2.235
18129W        W88729  14.992   8.215   3.187
18130W        W88730  33.564   1.576   3.680
18131W        W88731  18.577  26.319   0.411
18132W        W88732   6.357   3.432  11.575
18133W        W88733   9.469   7.288   3.550
18134W        W88734  27.330  32.954   2.119
18135W        W88735  38.485  34.819  14.392
18136W        W88736  28.392  42.211  10.758
18137W        W88737  35.056  25.642  10.922
18138W        W88738  19.225  25.416  10.000
18139W        W88739  35.616   7.231   2.263
18140W        W88740  16.118  21.221   2.134
18141W        W88741  40.360  22.450  11.444
18142W        W88742  27.952  16.529   4.590
18143W        W88743  16.920  44.179   3.065
18144W        W88744   7.876  21.563   0.831
18145W        W88745  34.639  11.108   2.353
18146W        W88746   0.478   1.215   2.758
18147W        W88747  31.209   0.814   4.117
18148W        W88748  40.091  26.269  13.473
18149W        W88749   1.650   5.477   2.622
18150W        W88750  31.922  30.694   2.120
18151W        W88751  14.855  22.222   4.630
18152W        W88752  23.614  35.301  10.720
18153W        W88753  31.827  19.810   0.169
18154W        W88754  15.211   8.139  10.698
18155W        W88755   6.817   0.954  14.803
18156W        W88756  36.150  21.670  13.466
18157W        W88757  10.398  25.721   0.499
18158W        W88758  23.578  30.637  11.229
18159W        W88759  41.853  40.012   1.930
18160W        W88760   2.916  21.510  12.820
18161W        W88761  35.645  18.611  14.347
18162W        W88762   0.344  44.753   2.785
18163W        W88763   0.724  21.122  14.780
18164W        W88764  28.678  41.558  14.394
18165W        W88765  30.597   4.495   0.657
18166W        W88766  29.251  20.307   4.662
18167W        W88767  25.502  10.017   3.203
18168W        W88768  41.013  35.078  11.994
18169W        W88769  32.650  44.187   4.181
18170W        W88770  41.148  38.157  13.923
18171W        W88771  44.454  27.085  13.588
18172W        W88772  43.004  18.604  14.876
18173W        W88773  13.249   9.346   0.712
18174W        W88774   7.775  10.338  13.052
18175W        W88775  43.215   9.437   3.701
18176W        W88776  35.875  26.706   5.031
18177W        W88777   3.975  36.132   3.123
18178W        W88778  37.953  16.664  10.493
18179W        W88779  15.156  23.308  12.999
18180W        W88780  27.532  36.125  12.869
18181W        W88781  23.966  17.841   1.199
18182W        W88782  22.577   2.993  12.946
18183W        W88783  26.689  10.137   3.210
18184W        W88784  30.965  31.521   0.338
18185W        W88785   0.951  11.187   2.041
18186W        W88786  11.668  19.794  11.577
18187W        W88787  27.237  40.311   3.222
18188W        W88788  19.540   2.741  13.846
18189W        W88789  20.013   3.002   3.332
18190W        W88790  35.196   5.166  12.281
18191W        W88791  31.756   0.511  12.157
18192W        W88792  37.605   7.738   4.171
18193W        W88793  19.845  15.076  13.579
18194W        W88794  32.031  27.936   2.688
18195W        W88795  16.335  19.895   1.268
18196W        W88796  36.183  17.602  14.021
18197W        W88797  38.077  37.497  14.833
18198W        W88798  38.041   8.403  13.076
18199W        W88799  41.187  12.287   2.003
18200W        W88800  16.048   3.892  10.735
18201W        W88801  33.055   0.765   2.185
18202W        W88802  36.818   3.147   0.758
18203W        W88803  18.743  25.090  11.160
18204W        W88804  34.582  39.568  14.787
18205W        W88805  23.681  24.966  14.203
18206W        W88806   4.726  18.668   3.257
18207W        W88807   1.750  30.192  12.997
18208W        W88808  34.012  32.415  13.843
18209W        W88809  12.826  39.833  14.468
18210W        W88810  16.381   5.583  14.510
18211W        W88811   9.883  10.131   4.379
18212W        W88812   9.373  10.468  10.571
18213W        W88813  25.990  32.886   0.355
18214W        W88814  28.586  19.559   1.439
18215W        W88815  38.045  37.103   0.783
18216W        W88816  32.400  22.598   0.787
18217W        W88817  10.876  26.695  12.468
18218W        W88818   3.476  13.661   3.259
18219W        W88819  35.011   9.922  11.232
18220W        W88820  23.477   0.528   0.996
18221W        W88821   3.235  23.835  11.571
18222W        W88822  22.977   4.562  10.823
18223W        W88823   0.166  28.939  11.049
18224W        W88824   5.220  40.587  10.459
18225W        W88825  12.016  30.898   0.897
18226W        W88826  21.545   9.249  13.818
18227W        W88827  42.274  16.324  11.226
18228W        W88828  43.841  30.524   3.393
18229W        W88829   9.162  39.074  13.426
18230W        W88830  12.358  23.308   4.158
18231W        W88831  10.870   9.248   0.372
18232W        W88832  21.581   1.022  13.916
18233W        W88833  39.528  30.486   0.207
18234W        W88834  39.397  39.514   2.854
18235W        W88835  24.548  30.184   4.939
18236W        W88836   6.983  36.236  13.340
18237W        W88837  39.380   4.437  12.152
18238W        W88838  19.023  37.424   4.179
18239W        W88839  38.475  43.872  13.391
18240W        W88840  18.846  23.200  13.413
18241W        W88841   3.993   3.934  13.517
18242W        W88842  11.686  44.245   1.659
18243W        W88843   7.109  25.234   1.857
18244W        W88844  11.936  13.784   0.989
18245W        W88845  32.130  36.634  10.658
18246W        W88846  34.036  16.036   4.547
18247W        W88847   1.776  14.376  11.074
18248W        W88848  43.580  20.668  11.144
18249W        W88849  29.308  41.520  12.954
18250W        W88850  37.016  18.213   3.575
18251W        W88851   4.698  38.348   0.937
18252W        W88852  18.352  18.099   2.188
18253W        W88853  44.976  42.567  10.759
18254W        W88854   6.721   3.326  11.218
18255W        W88855  18.238  11.380   1.592
18256W        W88856   8.969  38.859   2.670
18257W        W88857   7.409   9.921  14.390
18258W        W88858   9.387  26.661  11.241
18259W        W88859  37.540   1.462  10.571
18260W        W88860  42.136  44.336  11.308
18261W        W88861  20.684  28.485  14.938
18262W        W88862  33.008  29.461   4.509
18263W        W88863  33.210  23.728  12.686
18264W        W88864  22.917  37.538   2.774
18265W        W88865  38.871  15.279  11.178
18266W        W88866  44.008  43.508   4.560
18267W        W88867  25.202   9.439  10.773
18268W        W88868   9.389   2.954  10.785
18269W        W88869   3.796  39.919   0.778
18270W        W88870  31.870  37.009  14.276
18271W        W88871   6.923  33.194  13.931
18272W        W88872  43.317  21.790  13.384
18273W        W88873  11.160  25.573  10.730
18274W        W88874  27.506  22.658   4.794
18275W        W88875   7.490  33.670  13.450
18276W        W88876  11.336  32.501  13.962
18277W        W88877  40.586   1.763   4.248
18278W        W88878  32.401  10.304  10.640
18279W        W88879   5.300  28.061   1.635
18280W        W88880  39.107  22.723  14.358
18281W        W88881  15.710  44.089   2.239
18282W        W88882  31.641  21.023   3.548
18283W        W88883  34.340   7.371   3.678
18284W        W88884  18.804  39.126  13.705
18285W        W88885  15.605   5.746  11.712
18286W        W88886  27.126  20.149   1.824
18287W        W88887   8.778  43.982   0.798
18288W        W88888   5.891  18.138  14.496
18289W        W88889  41.055  13.657  13.073
18290W        W88890  28.475   6.490  11.532
18291W        W88891  40.865  26.458   4.194
18292W        W88892  12.770   0.463   4.345
18293W        W88893  21.128   4.680  11.044
18294W        W88894  16.124  28.550   0.704
18295W        W88895  14.891  29.700   4.067
18296W        W88896  23.684  21.346  11.945
18297W        W88897   2.409  26.617  11.416
18298W        W88898  35.532   8.573  11.184
18299W        W88899  16.340  41.220  10.147
18300W        W88900  12.847  12.582   1.924
18301W        W88901  13.745  29.723  12.411
18302W        W88902  15.621   4.476  12.492
18303W        W88903  19.440  44.692   2.295
18304W        W88904  42.271  32.991   0.371
18305W        W88905  42.855  24.160   0.862
18306W        W88906  20.676  21.165   4.085
18307W        W88907  41.393  14.676  12.091
18308W        W88908  18.703  13.430   3.956
18309W        W88909  11.374  33.430  13.390
18310W        W88910  39.546  25.022  10.811
18311W        W88911  29.518  10.034   4.967
18312W        W88912  36.693  14.785  14.090
18313W        W88913  11.631   9.340  12.859
18314W        W88914  23.118  29.918   1.441
18315W        W88915  41.372  43.405   1.800
18316W        W88916  25.187   9.528   4.971
18317W        W88917  34.339  20.592   2.862
18318W        W88918  20.015  33.128   2.898
18319W        W88919  14.346  44.586   4.165
18320W        W88920  11.676  20.294  12.489
18321W        W88921  20.051  16.373   1.926
18322W        W88922   0.949  32.460   4.126
18323W        W88923  28.100  33.585   1.030
18324W        W88924   2.359  15.785  13.837
18325W        W88925  28.801  17.786  13.200
18326W        W88926  30.435  43.826   1.504
18327W        W88927  39.535   8.052   0.476
18328W        W88928  31.985  10.616  10.599
18329W        W88929  35.786   1.055   2.624
18330W        W88930  23.522   0.763  13.020
18331W        W88931  22.434   3.018   3.912
18332W        W88932  25.782  39.038   0.682
18333W        W88933  32.601  10.714   4.627
18334W        W88934   7.848  12.109  10.771
18335W        W88935  12.938  29.188   1.791
18336W        W88936  39.037  26.199   1.801
18337W        W88937  11.138   7.501   1.825
18338W        W88938  35.446   0.802   3.848
18339W        W88939  21.506  11.864   1.168
18340W        W88940  31.553  22.472  10.651
18341W        W88941  18.132   1.391   2.311
18342W        W88942  21.736  11.279   2.318
18343W        W88943  33.492  42.529   4.332
18344W        W88944  12.325  39.314   3.914
18345W        W88945  43.377  20.297   4.049
18346W        W88946   0.983   3.598  11.132
18347W        W88947  30.000  44.528  12.946
18348W        W88948  37.051  30.934  13.185
18349W        W88949  12.241  14.664  11.188
18350W        W88950  22.295  27.004   1.978
18351W        W88951  43.865  29.909  13.103
18352W        W88952   6.250   2.966   2.539
18353W        W88953  13.103  24.000   2.193
18354W        W88954  25.379  14.532   1.076
18355W        W88955  39.782  14.408  12.040
18356W        W88956   2.205  30.865   3.640
18357W        W88957   3.566  25.256   4.141
18358W        W88958  27.710  44.834  11.388
18359W        W88959  19.835  29.535  11.930
18360W        W88960   8.299   3.422  14.403
18361W        W88961  25.671   5.684  12.345
18362W        W88962   1.478  29.123   3.177
18363W        W88963   9.859  34.361   0.537
18364W        W88964  41.530  20.516   0.938
18365W        W88965  35.456  11.406  11.251
18366W        W88966  10.206  25.662  12.993
18367W        W88967  36.900  27.891  10.673
18368W        W88968  30.103  11.845   3.207
18369W        W88969  36.567  16.237   3.208
18370W        W88970  25.673  42.094   3.285
18371W        W88971  41.857  25.464   0.363
18372W        W88972  13.831  22.218  12.042
18373W        W88973   7.951  22.574   2.184
18374W        W88974   0.993  33.558  13.586
18375W        W88975   6.408   8.843  12.425
18376W        W88976  36.037  26.958   0.017
18377W        W88977  14.935  34.880  13.326
18378W        W88978  34.380  14.222  14.377
18379W        W88979  30.541   7.296  14.803
18380W        W88980  33.017  33.517   3.842
18381W        W88981  24.728   9.306   4.950
18382W        W88982  41.797  34.708  11.674
18383W        W88983   9.753  14.571   1.673
18384W        W88984  34.720  18.321   4.648
18385W        W88985   9.360  40.962   2.169
18386W        W88986  13.710  17.094  11.497
18387W        W88987  39.352  20.930   2.424
18388W        W88988  32.311   8.322  10.753
18389W        W88989   3.251   1.510   1.362
18390W        W88990  30.457   5.536  11.083
18391W        W88991  35.675   5.382   1.249
18392W        W88992  43.989  20.291   0.929
18393W        W88993  21.121  10.940  12.600
18394W        W88994  40.013  15.481   1.784
18395W        W88995  37.381  43.174   2.814
18396W        W88996  38.983  18.637  13.435
18397W        W88997   6.127  35.991  13.397
18398W        W88998  19.170  28.894  14.378
18399W        W88999  19.086  37.437   2.171
18400W        W89000   5.036  18.135   1.837
18401W        W89001  23.089  37.948  11.094
18402W        W89002  11.648  22.381  12.917
18403W        W89003  28.677  38.093   4.903
18404W        W89004  26.616  36.466  10.672
18405W        W89005   7.086  27.023  13.916
18406W        W89006  22.663  12.660  11.530
18407W        W89007  40.114  42.974  11.501
18408W        W89008  20.866  13.260   3.661
18409W        W89009   5.401  29.368   0.208
18410W        W89010  29.448  15.453   0.241
18411W        W89011  25.604  44.593   1.479
18412W        W89012   1.015  16.656   3.551
18413W        W89013   0.528   3.725  14.648
18414W        W89014  25.072   4.384  11.572
18415W        W89015  40.847  16.247  10.178
18416W        W89016  24.680  12.212   3.624
18417W        W89017  23.474  31.436   0.087
18418W        W89018   6.770  10.072  12.380
18419W        W89019  24.633  22.689  11.656
18420W        W89020  13.574   2.299  14.403
18421W        W89021   7.622  34.561  12.871
18422W        W89022  13.373  12.702  13.736
18423W        W89023  14.113  16.573   0.880
18424W        W89024  21.956  25.421  13.595
18425W        W89025  31.336   9.061  11.703
18426W        W89026  35.680  28.517  12.914
18427W        W89027  25.424  12.866  11.301
18428W        W89028  13.626  27.900  11.873
18429W        W89029  15.348  27.002  13.607
18430W        W89030  27.938  20.771   1.757
18431W        W89031  13.507  31.505  13.920
18432W        W89032   7.668  32.129  11.645
18433W        W89033  23.769   6.890  11.341
18434W        W89034  29.636  39.918  13.424
18435W        W89035   5.177   4.955   1.779
18436W        W89036   8.422  29.374   2.339
18437W        W89037   6.276  10.400  14.532
18438W        W89038  23.295  24.222  12.868
18439W        W89039  34.594  16.309  11.149
18440W        W89040  40.519  41.132  14.266
18441W        W89041  40.706   0.905   1.564
18442W        W89042  44.209  41.308   2.771
18443W        W89043  14.881   4.216  14.497
18444W        W89044  40.671  35.983  14.814
18445W        W89045  13.168   6.759   5.043
18446W        W89046  27.514  10.853   0.383
18447W        W89047  11.626  34.880  11.988
18448W        W89048   8.624  12.159  14.812
18449W        W89049  37.089  22.654  12.897
18450W        W89050   3.740  34.483   3.743
18451W        W89051  34.504  14.623  10.542
18452W        W89052   8.512  25.732   4.769
18453W        W89053  44.854   9.902   4.184
18454W        W89054  35.795  23.451   3.491
18455W        W89055  40.528  17.993   2.131
18456W        W89056   8.230  14.269   4.408
18457W        W89057  12.237  42.131  10.159
18458W        W89058  30.718  40.467  11.282
18459W        W89059  34.565  18.559   0.863
18460W        W89060  36.097  23.018   3.413
18461W        W89061  25.774   2.055   4.224
18462W        W89062  28.740  13.705   2.324
18463W        W89063   7.759   0.749  14.531
18464W        W89064  13.203  37.227   3.375
18465W        W89065  10.594  35.835  11.136
18466W        W89066  25.462  44.551   1.970
18467W        W89067  10.270  37.612  14.525
18468W        W89068  41.797  37.510   0.724
18469W        W89069   6.379   0.795   3.761
18470W        W89070  12.271  37.397   2.102
18471W        W89071  25.428  38.137   0.804
18472W        W89072  29.957  37.301  12.566
18473W        W89073  13.237  34.953   3.549
18474W        W89074  22.247  26.736  13.668
18475W        W89075   3.692  15.195  10.718
18476W        W89076  37.873  16.330   4.107
18477W        W89077   6.108  20.351   0.861
18478W        W89078  21.402  29.710  11.927
18479W        W89079  18.160  33.520  10.740
18480W        W89080  21.204   2.933   2.799
18481W        W89081  14.225   7.151  12.528
18482W        W89082  11.773  18.694  12.216
18483W        W89083  26.916   0.407  12.059
18484W        W89084  32.278   3.403  11.492
18485W        W89085  15.766  29.618  13.910
18486W        W89086  41.217  40.039   4.939
18487W        W89087  16.156   6.925   1.452
18488W        W89088   5.865  38.362   3.897
18489W        W89089  41.478  24.671  12.078
18490W        W89090  36.794  28.762  11.623
18491W        W89091  18.976  13.207  13.870
18492W        W89092  21.266   5.823  11.386
18493W        W89093  37.417  21.616  11.619
18494W        W89094  35.716  39.703   0.394
18495W        W89095  26.482  29.635  10.602
18496W        W89096  28.437  17.826  12.409
18497W        W89097  37.249  38.075   4.094
18498W        W89098  19.098  28.889   0.319
18499W        W89099   9.790  39.881  14.720
18500W        W89100  15.601   9.044  11.511
18501W        W89101  30.901  18.744   2.124
18502W        W89102  13.939  18.619  14.449
18503W        W89103  17.022  44.492   3.548
18504W        W89104  22.665  30.931  11.199
18505W        W89105   8.984   1.470   2.849
18506W        W89106  34.091  25.347   0.850
18507W        W89107  19.311  36.332  14.446
18508W        W89108  24.632  36.474   2.141
18509W        W89109  32.931  33.946   0.042
18510W        W89110  29.423   6.866   4.124
18511W        W89111  14.232  27.421   1.171
18512W        W89112  30.746  26.969  14.800
18513W        W89113   4.409  16.515  14.474
18514W        W89114  40.464   3.086   0.124
18515W        W89115  22.583  33.373   2.363
18516W        W89116  17.656   3.978  11.246
18517W        W89117  31.043  12.241  14.451
18518W        W89118  27.955  23.100   2.192
18519W        W89119  39.317  29.270   0.812
18520W        W89120  10.259  11.831   4.603
18521W        W89121   9.534  27.942   0.356
18522W        W89122   5.002   5.700  13.902
18523W        W89123   2.866  23.516  12.545
18524W        W89124  31.324  19.243  12.065
18525W        W89125  30.161  31.391   1.747
18526W        W89126  43.865  33.446  12.847
18527W        W89127  31.972  28.597  11.287
18528W        W89128   1.493  12.257   1.378
18529W        W89129  24.519  17.817   4.127
18530W        W89130  33.132  15.595  14.653
18531W        W89131   4.104  26.124  11.280
18532W        W89132  27.032   7.337   4.642
18533W        W89133  41.204   3.358   1.098
18534W        W89134  40.560  14.720  13.991
18535W        W89135  24.973   3.588   4.821
18536W        W89136  26.704  12.640   1.984
18537W        W89137   7.041   3.357  11.615
18538W        W89138   4.048  36.614   1.417
18539W        W89139  14.308  29.549  14.987
18540W        W89140  42.188  34.382  11.667
18541W        W89141   0.340  11.906  13.119
18542W        W89142   0.413  15.053   2.718
18543W        W89143  13.300  34.520  11.623
18544W        W89144   6.270  16.481  10.707
18545W        W89145  44.714  30.817  12.168
18546W        W89146  34.447  21.989   0.736
18547W        W89147   9.065  44.266  13.862
18548W        W89148  40.968  41.125  10.533
18549W        W89149   4.927  10.881   0.000
18550W        W89150  18.180  25.044   0.896
18551W        W89151  39.538  21.293  12.413
18552W        W89152  10.128   9.879  11.081
18553W        W89153  25.179  38.398  14.796
18554W        W89154   3.852  16.820   3.106
18555W        W89155  37.469  35.407  13.617
18556W        W89156   7.102  41.561   1.892
18557W        W89157   5.886  24.303  12.997
18558W        W89158  24.994  27.138  10.606
18559W        W89159  28.635   1.727   4.656
18560W        W89160  35.453  10.846   1.396
18561W        W89161  22.560  40.604   2.732
18562W        W89162  23.033  12.634   3.152
18563W        W89163  41.757  34.423   1.368
18564W        W89164  10.834  36.703  12.563
18565W        W89165  38.059  27.435  11.616
18566W        W89166  20.023  29.627  13.342
18567W        W89167  13.379  21.991   1.340
18568W        W89168  41.409  17.801  12.814
18569W        W89169  29.981  17.157   3.281
18570W        W89170  10.199  19.604  13.149
18571W        W89171  22.472  16.149  10.826
18572W        W89172  43.796  40.637  13.816
18573W        W89173   4.688  17.561  13.427
18574W        W89174  20.949  27.442  12.063
18575W        W89175   9.625   6.394  12.758
18576W        W89176  40.356  30.411   1.414
18577W        W89177  28.295   5.830   2.761
18578W        W89178  33.357  17.704   0.718
18579W        W89179  25.823  13.173  14.875
18580W        W89180  44.411  23.436  13.055
18581W        W89181  18.795   4.320   1.954
18582W        W89182  37.455  32.739  13.468
18583W        W89183  32.995  19.217  10.664
18584W        W89184   8.363  13.856  14.215
18585W        W89185   6.009  38.335  12.841
18586W        W89186  34.030  30.325  11.272
18587W        W89187  40.435  43.222  13.863
18588W        W89188  32.564  28.113  12.258
18589W        W89189   1.524  32.300  13.533
18590W        W89190  35.878  40.238  10.486
18591W        W89191  37.861  20.215   4.252
18592W        W89192  34.623  37.340  11.169
18593W        W89193  38.794  17.932   3.683
18594W        W89194  21.749   5.126   2.767
18595W        W89195  11.677  37.903   0.438
18596W        W89196  19.665  19.735  13.757
18597W        W89197  31.924  25.480   3.770
18598W        W89198  42.784  17.559   1.760
18599W        W89199   1.483  24.218   0.918
18600W        W89200  13.371   0.850  12.073
18601W        W89201  38.488   7.267  14.412
18602W        W89202   3.923  37.295  12.419
18603W        W89203   9.347  25.473  13.408
18604W        W89204   8.837  39.798  14.303
18605W        W89205  20.517  37.335   4.527
18606W        W89206  19.131  17.771  12.549
18607W        W89207  10.620  26.381  13.405
18608W        W89208   9.087  21.224  12.981
18609W        W89209  20.384  16.804  14.867
18610W        W89210  14.137  43.247  14.586
18611W        W89211   6.924  19.249   0.029
18612W        W89212   8.470  26.550   2.720
18613W        W89213  37.514  12.261  13.962
18614W        W89214  10.644  42.708   5.126
18615W        W89215  41.883  35.815   4.693
18616W        W89216  24.784  37.381   1.767
18617W        W89217  34.672   5.361   4.134
18618W        W89218  34.849  22.580  10.646
18619W        W89219  19.786   1.228   2.178
18620W        W89220  44.257  10.392   4.971
18621W        W89221  40.575  28.896  12.820
18622W        W89222   2.534  42.010   3.150
18623W        W89223  10.613  14.043  12.545
18624W        W89224  34.057   2.980  14.505
18625W        W89225  36.318  30.735  12.113
18626W        W89226  36.380  17.572   3.797
18627W        W89227  24.080  16.268   1.831
18628W        W89228  21.007   3.974  11.558
18629W        W89229  33.096  40.878   3.812
18630W        W89230  28.404  28.913   3.277
18631W        W89231  13.374   7.651  14.067
18632W        W89232  43.350  10.929   2.383
18633W        W89233  28.953  38.759   4.109
18634W        W89234  42.918   5.815  10.878
18635W        W89235  44.826   0.062   1.883
18636W        W89236  21.437   6.290   2.035
18637W        W89237   3.442  17.906   0.414
18638W        W89238  24.011  23.115   2.881
18639W        W89239   5.812  26.237   1.817
18640W        W89240  36.050  22.151   2.262
18641W        W89241  26.652   3.002  12.954
18642W        W89242  32.592  44.684   0.306
18643W        W89243  28.087   0.361   2.682
18644W        W89244   4.579   8.542  11.074
18645W        W89245  43.812  18.133   4.771
18646W        W89246  21.796  20.610   4.593
18647W        W89247  32.948  32.009   2.749
18648W        W89248  26.127  24.928  10.548
18649W        W89249  35.410   0.242   3.198
18650W        W89250  22.449   1.862   4.764
18651W        W89251  12.566  38.585  12.896
18652W        W89252  14.866  21.467  13.876
18653W        W89253  27.915  42.039   3.769
18654W        W89254  13.151  15.145   0.999
18655W        W89255  37.002   0.817  14.853
18656W        W89256   3.459  18.194  10.731
18657W        W89257  19.143   2.823   2.133
18658W        W89258  32.604  17.035   2.401
18659W        W89259   9.247  26.253   1.996
18660W        W89260  20.126  25.690  14.845
18661W        W89261  14.054  14.545  12.837
18662W        W89262  23.745  28.100   4.873
18663W        W89263  44.782  39.054   3.271
18664W        W89264  35.069  22.592  11.527
18665W        W89265  34.906  26.607  13.433
18666W        W89266  32.027  41.375   5.100
18667W        W89267  22.704  26.550  13.498
18668W        W89268  28.371  19.934   2.755
18669W        W89269  16.952  43.278   9.753
18670W        W89270  20.110  15.870   0.818
18671W        W89271  32.493  25.403   0.285
18672W        W89272  33.411  20.037  12.927
18673W        W89273  26.471  37.494   0.525
18674W        W89274  42.747  44.330   0.182
18675W        W89275  31.924   3.152   2.219
18676W        W89276   5.657  11.641  14.749
18677W        W89277  19.862  23.208  14.632
18678W        W89278  21.571  41.206  12.450
18679W        W89279   8.572   4.348  12.432
18680W        W89280  26.544   5.754   1.253
18681W        W89281  30.027  34.835   0.854
18682W        W89282  14.790  17.068   4.190
18683W        W89283  17.259  32.164   2.188
18684W        W89284  24.808  25.521  14.378
18685W        W89285  17.075  41.002   0.001
18686W        W89286  26.954  39.758   3.743
18687W        W89287  26.449  22.983   3.627
18688W        W89288  19.054  42.948  11.168
18689W        W89289   5.435  28.517  12.548
18690W        W89290  19.730   7.224  10.704
18691W        W89291  32.526  21.413   3.642
18692W        W89292   7.627   8.422  12.056
18693W        W89293  26.600   6.361  10.676
18694W        W89294  16.105   0.972  14.272
18695W        W89295   5.662  11.344   0.402
18696W        W89296   7.567  27.506  11.661
18697W        W89297  20.705  18.514  11.217
18698W        W89298  38.014  16.307   0.825
18699W        W89299  44.754  43.839   1.491
18700W        W89300  25.802  25.721  14.614
18701W        W89301  20.017  43.319   3.593
18702W        W89302  39.329   1.147  14.955
18703W        W89303   1.844  30.086  11.015
18704W        W89304  17.508   6.844   0.728
18705W        W89305  29.900  38.040   3.693
18706W        W89306  33.381   8.903   5.171
18707W        W89307  13.039  36.067  13.371
18708W        W89308  30.760   8.796  10.424
18709W        W89309  24.501   4.369   0.856
18710W        W89310  22.734  29.993   0.630
18711W        W89311  30.140  42.942   3.723
18712W        W89312   3.268  40.372  14.266
18713W        W89313  38.773  26.997  13.566
18714W        W89314  12.062  37.015   2.790
18715W        W89315   4.459  35.641   0.344
18716W        W89316  44.952  14.697   0.546
18717W        W89317  38.470   3.391  10.237
18718W        W89318  22.008  41.649  13.677
18719W        W89319   1.283  27.690   3.566
18720W        W89320  43.220   7.137  13.505
18721W        W89321  19.175  40.046  14.813
18722W        W89322  41.928  12.501  13.110
18723W        W89323  38.834   3.495   3.794
18724W        W89324  30.967  27.860  14.980
18725W        W89325  16.172   8.870  13.087
18726W        W89326  21.692  41.743   1.835
18727W        W89327  19.949  24.087  13.576
18728W        W89328   2.936   5.576   1.117
18729W        W89329  18.000  19.760   2.302
18730W        W89330   8.921  33.434   1.233
18731W        W89331  41.508  44.645   2.938
18732W        W89332  29.998  29.518  12.702
18733W        W89333  21.072  41.431  14.563
18734W        W89334  26.465  20.803   1.867
18735W        W89335  35.622   1.986  13.999
18736W        W89336   3.384  43.888   1.010
18737W        W89337   3.958  39.554  13.483
18738W        W89338  10.229   2.738  11.079
18739W        W89339   9.228  42.493   1.493
18740W        W89340  27.263  40.831   0.976
18741W        W89341   0.441  10.734   2.408
18742W        W89342  14.228   7.579  14.903
18743W        W89343  14.457  12.037   0.243
18744W        W89344  35.105  42.782  11.320
18745W        W89345  38.918   2.439   1.895
18746W        W89346  32.094  32.596   3.111
18747W        W89347  13.074  25.449  14.503
18748W        W89348  28.073  21.672  13.991
18749W        W89349  27.805  33.804  13.473
18750W        W89350  44.598  11.878   0.725
18751W        W89351  31.179  36.116  14.729
18752W        W89352  23.230  17.428   1.730
18753W        W89353  43.050  29.543  13.699
18754W        W89354   4.408  36.588  14.905
18755W        W89355   0.111  20.056  14.872
18756W        W89356   6.335  37.771  14.202
18757W        W89357  26.952  31.903  10.696
18758W        W89358  29.993  33.871   0.013
18759W        W89359  44.641  35.052  10.631
18760W        W89360  28.019  19.708   5.320
18761W        W89361  28.450  32.590  12.073
18762W        W89362   7.642  32.054   1.788
18763W        W89363   0.116  15.459  12.030
18764W        W89364  29.071  17.856   0.796
18765W        W89365  37.564  20.615  10.671
18766W        W89366  31.203  38.304   3.231
18767W        W89367  27.636   5.696   0.261
18768W        W89368  42.594   8.865  11.942
18769W        W89369   7.049  44.183  14.448
18770W        W89370  44.024   8.043  12.044
18771W        W89371  39.231  20.164   4.954
18772W        W89372  26.692  28.174   1.881
18773W        W89373  10.182  19.140   2.785
18774W        W89374  42.379  33.155  11.919
18775W        W89375  19.906  23.352   0.160
18776W        W89376  37.870  35.810   2.711
18777W        W89377   7.390   6.279  12.902
18778W        W89378   7.632   3.029  10.698
18779W        W89379   6.790  18.604  11.532
18780W        W89380   9.836  15.593  14.323
18781W        W89381  25.556  32.416  14.766
18782W        W89382  14.943  35.123  12.862
18783W        W89383  13.711  14.735  11.145
18784W        W89384  29.172  33.311  14.829
18785W        W89385  44.547  43.939   0.378
18786W        W89386  10.625  17.100   3.926
18787W        W89387   6.505  18.051  11.996
18788W        W89388   8.875  32.133   1.224
18789W        W89389   8.878  16.532   1.913
18790W        W89390   4.722  21.611   1.332
18791W        W89391   8.895   7.254   1.855
18792W        W89392  39.872   3.564  13.461
18793W        W89393   7.034  22.941   1.684
18794W        W89394  29.495  41.329  11.841
18795W        W89395   4.838   6.990   1.319
18796W        W89396  40.109  17.832  11.022
18797W        W89397  11.339  44.797   2.418
18798W        W89398  38.364  11.538   2.045
18799W        W89399   5.636  28.931   1.468
18800W        W89400  18.016  44.384  12.603
18801W        W89401  15.307  19.247  14.015
18802W        W89402   9.648   2.364   2.308
18803W        W89403   3.263  28.504  13.310
18804W        W89404   9.791  43.113   1.680
18805W        W89405  10.627  11.799   1.821
18806W        W89406  33.127  30.653  13.391
18807W        W89407  33.442  12.655   4.653
18808W        W89408  12.894  10.219  10.751
18809W        W89409  28.082  25.577   1.050
18810W        W89410  19.005  16.175   3.145
18811W        W89411  10.177  24.532  12.211
18812W        W89412  41.863  17.393  13.436
18813W        W89413   9.955  22.764  13.285
18814W        W89414   4.767  11.380  13.108
18815W        W89415   4.071  15.805   3.126
18816W        W89416  32.418  39.493   3.700
18817W        W89417  12.320  13.132   3.368
18818W        W89418  27.088  10.731  10.476
18819W        W89419   8.769   0.995   0.312
18820W        W89420  18.671  35.374  12.542
18821W        W89421   9.558  30.670  13.444
18822W        W89422   4.812  24.932   2.859
18823W        W89423  17.141  17.273   3.181
18824W        W89424  40.097  13.989   1.882
18825W        W89425  41.917   0.660  10.325
18826W        W89426  31.474  13.589   0.794
18827W        W89427   9.670  42.829  11.128
18828W        W89428  39.391   2.970  11.252
18829W        W89429  15.263  21.312  10.201
18830W        W89430   3.843  39.530   1.128
18831W        W89431  25.912  30.965  13.344
18832W        W89432  33.796  26.641   5.000
18833W        W89433  23.554  24.668   2.305
18834W        W89434  41.878  23.326  11.938
18835W        W89435   8.281  31.447   3.587
18836W        W89436  35.569  21.761   4.065
18837W        W89437  36.374  30.004   0.014
18838W        W89438   6.880   6.387  12.748
18839W        W89439  38.382   5.037  11.692
18840W        W89440  18.607  26.619  14.800
18841W        W89441  15.129  34.550  12.040
18842W        W89442  38.358  24.786   3.285
18843W        W89443  13.521  10.321  14.703
18844W        W89444  11.596   7.336   4.180
18845W        W89445  17.964   7.799  14.386
18846W        W89446   3.297  35.771  14.421
18847W        W89447  30.524   5.791   3.141
18848W        W89448  32.027   6.742   1.033
18849W        W89449  11.815  13.830   0.476
18850W        W89450  43.618  30.973   3.613
18851W        W89451  20.963  14.922   3.359
18852W        W89452   7.419  39.320   2.588
18853W        W89453   6.761  42.091   3.785
18854W        W89454   6.238  21.270  12.564
18855W        W89455  39.309  39.736  12.116
18856W        W89456  35.956  29.926  14.235
18857W        W89457  15.942   8.853   3.619
18858W        W89458  30.188  17.589  11.225
18859W        W89459  43.278  32.655  11.959
18860W        W89460   1.555   8.649  10.827
18861W        W89461  19.548  23.993  13.128
18862W        W89462  39.841  22.283  13.983
18863W        W89463  25.351  34.314   3.248
18864W        W89464  33.502   4.817   4.052
18865W        W89465  23.815   2.703  11.984
18866W        W89466  29.347  34.510  13.868
18867W        W89467   4.361  15.120   4.508
18868W        W89468  19.034  31.817   3.038
18869W        W89469  25.415  13.803  14.840
18870W        W89470  33.340  18.312  11.608
18871W        W89471  39.573   6.368   0.207
18872W        W89472  39.051  12.933   1.400
18873W        W89473  27.146   2.987  13.097
18874W        W89474  24.595   5.187   4.214
18875W        W89475   3.379   0.178   1.804
18876W        W89476  32.383   9.668   1.795
18877W        W89477  21.331  32.609   0.047
18878W        W89478   0.997  30.883   4.110
18879W        W89479  41.393  36.032   4.621
18880W        W89480   8.849  24.868  13.155
18881W        W89481  29.783   0.073   1.180
18882W        W89482  10.810  22.514  11.143
18883W        W89483  37.135  28.485  12.944
18884W        W89484   5.167  28.008  13.501
18885W        W89485  14.602  11.173   2.822
18886W        W89486   2.813  35.452  14.819
18887W        W89487   7.451  30.988  13.853
18888W        W89488  11.553   9.741   0.466
18889W        W89489  11.226  34.505   1.390
18890W        W89490  42.414  32.427  12.550
18891W        W89491  17.660  19.563   1.794
18892W        W89492   4.014  38.862  11.739
18893W        W89493  39.756   9.175  13.471
18894W        W89494  19.358  21.444  11.444
18895W        W89495  40.988  15.614  10.797
18896W        W89496  23.617  35.409   0.806
18897W        W89497  33.111  41.868  14.385
18898W        W89498   0.143   1.847  14.112
18899W        W89499  19.980  27.152  12.116
18900W        W89500  14.371  20.657   2.143
18901W        W89501  13.861  29.655   0.265
18902W        W89502  20.495  31.765   0.364
18903W        W89503  23.922  34.073   0.810
18904W        W89504  39.111  20.138   0.788
18905W        W89505  44.401  21.236  14.115
18906W        W89506  12.968   8.267  13.567
18907W        W89507  21.278  37.611   1.887
18908W        W89508   6.168  32.175   0.527
18909W        W89509  44.399  34.937   3.663
18910W        W89510  19.194  18.765   1.026
18911W        W89511  14.218  21.269   1.377
18912W        W89512   3.853  30.083  11.955
18913W        W89513  10.848  24.352  14.446
18914W        W89514  27.001   8.949   4.658
18915W        W89515  22.130  33.439  14.373
18916W        W89516  23.672  38.617  13.518
18917W        W89517  17.072  19.232  10.717
18918W        W89518  28.063  41.992  11.700
18919W        W89519  41.910  23.727   4.585
18920W        W89520  20.078   8.180   2.761
18921W        W89521   7.822  24.987  14.403
18922W        W89522  44.203  16.008  12.048
18923W        W89523  20.280  27.712   3.697
18924W        W89524  17.195  17.809   0.911
18925W        W89525  27.910  35.371  10.632
18926W        W89526  13.262  30.805   0.356
18927W        W89527   7.475  36.036  13.424
18928W        W89528  28.127  22.534  11.415
18929W        W89529  39.518  17.768   3.513
18930W        W89530  21.094   1.806   0.197
18931W        W89531  15.607  43.318  12.172
18932W        W89532  43.795  20.203   3.208
18933W        W89533   4.403  27.421  14.862
18934W        W89534   0.246  18.536  14.813
18935W        W89535  26.725   3.332  13.376
18936W        W89536  20.881  33.137   0.687
18937W        W89537  17.435  37.728   1.714
18938W        W89538   9.654  41.432  11.220
18939W        W89539  21.512  12.378   4.281
18940W        W89540  29.494  42.019  10.644
18941W        W89541  36.938  30.953  12.684
18942W        W89542  17.130  29.919   4.102
18943W        W89543   6.196  32.950  12.563
18944W        W89544  34.147  10.364   0.284
18945W        W89545  18.100  35.480  11.835
18946W        W89546  10.136  41.920  13.502
18947W        W89547  30.925  31.251   1.210
18948W        W89548  32.172  23.327  10.246
18949W        W89549   5.707   6.599   1.703
18950W        W89550  30.402   4.143  11.063
18951W        W89551  36.023  14.373  13.020
18952W        W89552   3.524  13.747   4.096
18953W        W89553  26.682  12.995   4.555
18954W        W89554  16.684  33.118   1.447
18955W        W89555  40.751  26.987  10.411
18956W        W89556  43.886  31.395  12.075
18957W        W89557  25.506  23.548  10.727
18958W        W89558  23.751  23.486  12.091
18959W        W89559  38.370  39.805  13.069
18960W        W89560  16.767  18.449   0.323
18961W        W89561  43.579  19.253   0.318
18962W        W89562  41.654  37.392  10.934
18963W        W89563  26.636  14.594   0.371
18964W        W89564  24.089  30.853   3.044
18965W        W89565  42.909   7.252  12.891
18966W        W89566  18.708   5.153  11.260
18967W        W89567  32.376  13.635   4.155
18968W        W89568   3.011  24.024  12.464
18969W        W89569  24.904   0.660   2.586
18970W        W89570  39.135  42.295   1.679
18971W        W89571  12.651  10.688  11.410
18972W        W89572  29.842  35.879   2.272
18973W        W89573  12.922   9.803  12.429
18974W        W89574  35.892  17.356   4.557
18975W        W89575  17.944  35.788   4.931
18976W        W89576  32.907  28.487  12.380
18977W        W89577  34.537   5.458  13.988
18978W        W89578   1.816  11.004   3.751
18979W        W89579  33.990  37.298   4.490
18980W        W89580  35.494   8.646   3.092
18981W        W89581  35.171  19.319   3.364
18982W        W89582  41.032   6.138   4.255
18983W        W89583   1.753  15.559   3.942
18984W        W89584  37.119   9.552  11.992
18985W        W89585  22.645  42.160   3.853
18986W        W89586  33.531  21.308  13.427
18987W        W89587  21.022   8.959   1.262
18988W        W89588   1.473  16.584  11.207
18989W        W89589  30.389  43.458   0.463
18990W        W89590  29.947  21.139   0.771
18991W        W89591   4.417   2.770  10.659
18992W        W89592  44.113  37.342  13.646
18993W        W89593  28.174   6.203  13.354
18994W        W89594   3.330   4.999  14.305
18995W        W89595   4.160  15.293   0.900
18996W        W89596  18.442  40.748  12.895
18997W        W89597   8.586  37.622   2.622
18998W        W89598  17.543  11.886   3.702
18999W        W89599  17.803  33.850   3.353
19000W        W89600   1.406  38.577   2.874
19001W        W89601  19.279  35.350  14.930
19002W        W89602  23.359  35.008  11.934
19003W        W89603   3.908   9.602   4.216
19004W        W89604   8.834  16.472  11.335
19005W        W89605  37.104  16.183   3.397
19006W        W89606  26.571  15.690   2.890
19007W        W89607  15.335   7.388   3.692
19008W        W89608  18.202  30.090  10.659
19009W        W89609  12.123  12.104  12.961
19010W        W89610   9.766   6.137   0.351
19011W        W89611  23.890   2.989   5.347
19012W        W89612  38.562   1.102  14.387
19013W        W89613  12.894  42.571   3.241
19014W        W89614  15.180  40.409   1.225
19015W        W89615  28.837  25.639  12.022
19016W        W89616  11.119   5.277   4.180
19017W        W89617  39.590  40.285   3.950
19018W        W89618  24.126  23.971   9.941
19019W        W89619  26.007   9.261  11.970
19020W        W89620  31.485  21.425   1.761
19021W        W89621   0.334  24.591   3.348
19022W        W89622  24.780   5.340  10.774
19023W        W89623  34.583  27.757   0.763
19024W        W89624   5.369   2.746   4.560
19025W        W89625  22.318   1.806   4.275
19026W        W89626  15.002   7.429   2.868
19027W        W89627  30.159   9.454  13.511
19028W        W89628  25.468  42.481  11.229
19029W        W89629  16.169  42.244   1.341
19030W        W89630  10.310  30.545  10.815
19031W        W89631   0.623  26.354  13.704
19032W        W89632  19.582  32.872  11.933
19033W        W89633   6.700  29.155   0.230
19034W        W89634  26.587  35.275   2.761
19035W        W89635  37.632  32.845  11.150
19036W        W89636  28.962  31.150   4.637
19037W        W89637  33.921  24.006   1.335
19038W        W89638  15.377  26.038  13.472
19039W        W89639  11.063  16.214   3.881
19040W        W89640  22.230  34.792  11.047
19041W        W89641  38.913  36.536  12.199
19042W        W89642  23.591  34.945   4.810
19043W        W89643  18.120  28.549   4.076
19044W        W89644  30.523  24.761   1.354
19045W        W89645  26.940  15.587   0.622
19046W        W89646  43.528  36.962  14.396
19047W        W89647  41.369   4.199  11.167
19048W        W89648  15.776   5.613  14.764
19049W        W89649  19.453  30.156   1.286
19050W        W89650  34.879  38.061  11.060
19051W        W89651  15.163  24.930   1.976
19052W        W89652  44.980   5.262  14.800
19053W        W89653  34.537  23.982  10.717
19054W        W89654  10.683  36.430   0.101
19055W        W89655  38.586  26.434   1.698
19056W        W89656  16.702  24.519  10.775
19057W        W89657  16.375  29.204   4.047
19058W        W89658   3.891  24.270  13.939
19059W        W89659  15.040   7.684   2.403
19060W        W89660   3.401  25.069  14.459
19061W        W89661  42.536   3.444  11.655
19062W        W89662  21.024  38.457  11.493
19063W        W89663   0.072  18.542   2.433
19064W        W89664  24.001  21.293  11.550
19065W        W89665  20.530  41.698   2.365
19066W        W89666  39.089  22.175   4.788
19067W        W89667  36.904  22.060   0.847
19068W        W89668  37.919  11.715  11.997
19069W        W89669  41.247  43.315  14.290
19070W        W89670  26.489  43.813  12.561
19071W        W89671  40.416  26.849   2.711
19072W        W89672   1.913  40.307  11.942
19073W        W89673  21.286  35.065  10.847
19074W        W89674  22.544  32.635   4.609
19075W        W89675  28.099  41.571   3.808
19076W        W89676   7.807  29.822  14.093
19077W        W89677  44.133  28.660  10.749
19078W        W89678  27.705  16.399   1.777
19079W        W89679  30.082   3.447  13.858
19080W        W89680   0.917  34.428  12.928
19081W        W89681   7.246  17.229  11.406
19082W        W89682  15.204  27.150   0.575
19083W        W89683  14.355  39.759  14.281
19084W        W89684  28.685   5.827   1.228
19085W        W89685  18.595   9.887   2.965
19086W        W89686  38.813  10.971  14.554
19087W        W89687  22.453  31.099   4.371
19088W        W89688  26.699  31.174   3.189
19089W        W89689   9.545  35.405  13.561
19090W        W89690  38.510   0.695   1.731
19091W        W89691  10.098  35.582   4.517
19092W        W89692  15.710  18.759  11.225
19093W        W89693  27.283  20.532  12.366
19094W        W89694  14.107  40.589   3.164
19095W        W89695  14.889  38.123   3.264
19096W        W89696  39.698  24.716  11.211
19097W        W89697  26.649  35.615  13.919
19098W        W89698  30.087  10.906  14.510
19099W        W89699  37.018  44.025   2.772
19100W        W89700  25.567  17.422  12.049
19101W        W89701  16.861  34.550  13.288
19102W        W89702  37.475  39.370  10.884
19103W        W89703   2.782   0.817   3.156
19104W        W89704  18.770  27.356   0.439
19105W        W89705   5.434  41.214  11.819
19106W        W89706  40.496  34.522  14.149
19107W        W89707  28.652   8.399   1.813
19108W        W89708   0.738  21.014   2.829
19109W        W89709  42.063  20.980  11.048
19110W        W89710  35.954  30.006   0.314
19111W        W89711  28.579  41.231  13.995
19112W        W89712  27.417  39.813   0.504
19113W        W89713  43.586  37.603   2.713
19114W        W89714   4.993  44.384  10.372
19115W        W89715  43.999  24.687  14.370
19116W        W89716  23.700  34.525  13.937
19117W        W89717   1.774   8.844   0.932
19118W        W89718  16.571   5.307   1.061
19119W        W89719   0.036  15.513   4.112
19120W        W89720  44.514  16.126  10.750
19121W        W89721  10.796  11.695  13.065
19122W        W89722  41.191  19.517   1.735
19123W        W89723  37.245  12.271  14.478
19124W        W89724  25.469   4.556   0.901
19125W        W89725  31.972  15.729  11.380
19126W        W89726  30.202  14.572   0.901
19127W        W89727  31.941  11.282   3.215
19128W        W89728  36.979   4.871  10.905
19129W        W89729  27.758  23.301  11.556
19130W        W89730  32.110  36.769  13.008
19131W        W89731  31.305  21.119  10.031
19132W        W89732  42.696  31.781  13.003
19133W        W89733  19.699  31.308   4.321
19134W        W89734  41.296  35.873   3.581
19135W        W89735   4.217  41.071   3.138
19136W        W89736  26.429  24.610   3.733
19137W        W89737  16.491  10.033  11.618
19138W        W89738  37.365  31.987  12.987
19139W        W89739  22.858  33.196  14.779
19140W        W89740  19.001  20.638   0.271
19141W        W89741   5.186   1.499   3.802
19142W        W89742  41.883  22.853  11.673
19143W        W89743   7.701  43.888   1.760
19144W        W89744  39.061   1.779  11.901
19145W        W89745  35.306  34.900  10.658
19146W        W89746  29.561  23.085   4.147
19147W        W89747  18.530   6.949   3.545
19148W        W89748  11.096  20.498   0.362
19149W        W89749  37.977  44.522   3.844
19150W        W89750   9.624  15.607  12.606
19151W        W89751  23.022  35.297   2.731
19152W        W89752   5.753  19.190   2.592
19153W        W89753   4.428   7.738  13.407
19154W        W89754  16.679  18.251   0.812
19155W        W89755  18.940  43.956   0.785
19156W        W89756   0.963   2.560  11.038
19157W        W89757  25.654   5.156  12.980
19158W        W89758   3.226  42.294  11.022
19159W        W89759  27.998   9.137  13.410
19160W        W89760  36.269  42.508  11.615
19161W        W89761   2.407   4.439   0.951
19162W        W89762  25.582  32.194  13.550
19163W        W89763   0.890  31.598   1.223
19164W        W89764  35.796  34.126  10.909
19165W        W89765  29.700   6.851   3.669
19166W        W89766  10.261  25.862  11.226
19167W        W89767  40.218  38.031  13.034
19168W        W89768  22.068  22.487  13.041
19169W        W89769  26.608  29.903  14.328
19170W        W89770  35.532  11.813   0.970
19171W        W89771  13.798  37.441  12.614
19172W        W89772  19.206  19.612   3.846
19173W        W89773  13.225  21.743   1.765
19174W        W89774  13.027  28.436   2.004
19175W        W89775  17.737   6.664   4.538
19176W        W89776  31.385  34.080  11.681
19177W        W89777  43.093  22.549   4.828
19178W        W89778  15.785   1.183   1.794
19179W        W89779  21.191  11.932  13.465
19180W        W89780  10.241   5.802  12.862
19181W        W89781  11.872  19.775   2.938
19182W        W89782   5.900  10.813   1.535
19183W        W89783  23.597   6.849   2.195
19184W        W89784  10.322  36.549   0.801
19185W        W89785  16.957   9.383  12.825
19186W        W89786  28.208  37.838   4.562
19187W        W89787   4.350  28.638  10.709
19188W        W89788  23.725  25.512   4.062
19189W        W89789  33.854  14.843  11.186
19190W        W89790   9.316  35.370   4.226
19191W        W89791  30.181   5.531   3.399
19192W        W89792  22.266  11.591   5.017
19193W        W89793  41.347  22.666  13.701
19194W        W89794  21.130  31.668  14.832
19195W        W89795  15.158   4.026   1.471
19196W        W89796  30.253  28.460   2.714
19197W        W89797  41.939  26.409  13.406
19198W        W89798  35.784  27.748   0.344
19199W        W89799  11.393  32.526  12.384
19200W        W89800  44.807  26.018  11.561
19201W        W89801  28.931  24.682  12.856
19202W        W89802  38.095  35.013  11.476
19203W        W89803  37.578  31.962   0.355
19204W        W89804   8.753  28.703   4.904
19205W        W89805   2.882  11.573   3.264
19206W        W89806  26.235  16.197   3.621
19207W        W89807  10.159  38.007  13.068
19208W        W89808  41.415  17.164   5.453
19209W        W89809  26.079  42.999   3.068
19210W        W89810   2.028  11.583   1.509
19211W        W89811  31.710  37.525  13.463
19212W        W89812  44.413  10.389  10.816
19213W        W89813  16.659  28.585   0.679
19214W        W89814  30.068  36.765  11.533
19215W        W89815  13.023   4.173  11.938
19216W        W89816  19.356   1.933   3.172
19217W        W89817  38.886  11.474  14.597
19218W        W89818  18.665   4.979   1.297
19219W        W89819  29.476  34.516   3.744
19220W        W89820  27.460  10.910  13.095
19221W        W89821  42.253  27.014  10.701
19222W        W89822  31.835  10.483   4.438
19223W        W89823  26.739  10.422   1.351
19224W        W89824  43.916  44.901  12.375
19225W        W89825   9.988   3.329   2.455
19226W        W89826  33.394   1.861   0.823
19227W        W89827   5.859   4.887   0.892
19228W        W89828   0.060  24.477  11.799
19229W        W89829  18.238  11.548  13.078
19230W        W89830   9.873   4.495   4.081
19231W        W89831  16.541   0.715   1.845
19232W        W89832  38.062  41.067  14.366
19233W        W89833  32.483  28.961   3.299
19234W        W89834  18.686   5.418   3.307
19235W        W89835  25.422  44.217   3.318
19236W        W89836  21.256  44.243   0.424
19237W        W89837   6.630  44.282   4.845
19238W        W89838  23.520   2.621   3.446
19239W        W89839  44.431  40.508  12.748
19240W        W89840  13.872  33.963  10.679
19241W        W89841  30.809  13.275  14.871
19242W        W89842  34.603  12.827   0.216
19243W        W89843   2.315  28.642   4.747
19244W        W89844  41.931  43.406   3.275
19245W        W89845   0.869   4.925   5.076
19246W        W89846  36.511  10.600   0.250
19247W        W89847   4.499  37.150   0.293
19248W        W89848  28.198  32.151   1.362
19249W        W89849   6.329   6.221  12.429
19250W        W89850   8.005  31.046  13.312
19251W        W89851  42.434  15.475   2.298
19252W        W89852  34.062  23.553  13.131
19253W        W89853  19.709  31.520   4.818
19254W        W89854  30.983   0.662  13.970
19255W        W89855  18.015  42.540  14.482
19256W        W89856   4.045  23.944  12.694
19257W        W89857   5.752  13.053   2.873
19258W        W89858  14.205   7.193  10.428
19259W        W89859   8.868  14.183   3.607
19260W        W89860  24.465  30.216   2.321
19261W        W89861  37.524   0.908   4.235
19262W        W89862  21.420  12.104  14.498
19263W        W89863  24.711  18.108  13.878
19264W        W89864   6.713  40.042   3.726
19265W        W89865  25.581   7.304   0.098
19266W        W89866  11.583  44.831   4.051
19267W        W89867  19.736  25.278  14.068
19268W        W89868   1.079   8.103  11.907
19269W        W89869  27.548  15.892   4.828
19270W        W89870   8.551  11.120   1.713
19271W        W89871  43.207   6.213  10.729
19272W        W89872  27.354  32.611  12.938
19273W        W89873  31.414  25.517  13.405
19274W        W89874  37.076  17.112  10.664
19275W        W89875  35.519  24.756  11.156
19276W        W89876  26.787   3.552   1.804
19277W        W89877  43.877  10.026  12.410
19278W        W89878  21.277  23.984   3.618
19279W        W89879  10.346  24.104   4.304
19280W        W89880   6.042   6.249  10.745
19281W        W89881  32.048  40.556  12.917
19282W        W89882  42.308  20.980   2.310
19283W        W89883   7.213   1.956   2.653
19284W        W89884   8.126  29.152   0.051
19285W        W89885  11.076  19.954   1.200
19286W        W89886  15.868   1.943  11.603
19287W        W89887  18.151   1.057  10.673
19288W        W89888  42.059  19.836  12.215
19289W        W89889  19.190  14.503  12.005
19290W        W89890  32.961  14.572   2.546
19291W        W89891  32.387  13.641  10.673
19292W        W89892  17.022   0.472  11.943
19293W        W89893  14.052  20.351  12.213
19294W        W89894  21.853  42.839  11.711
19295W        W89895  36.553  12.382   0.027
19296W        W89896   1.997  26.421   4.887
19297W        W89897   8.802  15.934  12.483
19298W        W89898  18.147   5.263  12.494
19299W        W89899  32.456   2.725  12.527
19300W        W89900  44.386  30.703   4.543
19301W        W89901  12.567   1.185  14.976
19302W        W89902   4.200   2.695   2.418
19303W        W89903  32.403  27.754   1.840
19304W        W89904  10.871  37.991   1.910
19305W        W89905  11.717  37.294   4.084
19306W        W89906  14.573  25.594  11.611
19307W        W89907  31.003  37.380  11.259
19308W        W89908  14.818  22.222   2.575
19309W        W89909  15.829  20.064   2.672
19310W        W89910   4.948  37.791   4.491
19311W        W89911  17.645  15.841   4.530
19312W        W89912  18.266  19.233  12.035
19313W        W89913  12.924  20.741   4.783
19314W        W89914  39.479  13.590  13.119
19315W        W89915  10.732  33.295  13.906
19316W        W89916  34.421  20.057   4.038
19317W        W89917  16.119  14.181  12.551
19318W        W89918  21.699   3.284  12.004
19319W        W89919  38.033  29.105  14.011
19320W        W89920  30.432  29.038   1.509
19321W        W89921  26.065   0.293  12.527
19322W        W89922   0.811  41.913  10.966
19323W        W89923   6.250  37.101  14.753
19324W        W89924  25.167  28.199   3.328
19325W        W89925   8.803  26.859  14.207
19326W        W89926  33.569   8.646  12.003
19327W        W89927  10.624  10.473  14.953
19328W        W89928  29.050  19.316   1.258
19329W        W89929  34.355  44.480  12.810
19330W        W89930  37.366  25.077  12.135
19331W        W89931  13.772  30.057   4.541
19332W        W89932  14.774  37.449  10.798
19333W        W89933  37.345  42.961   3.612
19334W        W89934  32.642  17.511   4.211
19335W        W89935   3.564  20.417   1.349
19336W        W89936  11.184  29.938   4.287
19337W        W89937   9.959  11.362   4.691
19338W        W89938  30.092  39.337   2.221
19339W        W89939  16.981  30.511   9.943
19340W        W89940  32.230  35.993   1.789
19341W        W89941  12.838  20.127  14.422
19342W        W89942  38.458  26.913  12.029
19343W        W89943  42.461  32.164  11.234
19344W        W89944   8.903  38.472  11.623
19345W        W89945  23.253   1.484  11.986
19346W        W89946  20.528   1.317  10.715
19347W        W89947  30.816  34.930  13.186
19348W        W89948  14.674  11.172  14.603
19349W        W89949  41.692  34.197  14.563
19350W        W89950  37.973  29.141   1.002
19351W        W89951  13.965  33.279   4.101
19352W        W89952  43.521   8.446  12.750
19353W        W89953  17.454   9.765  14.443
19354W        W89954  32.798  14.813   4.033
19355W        W89955  29.578  16.802   3.294
19356W        W89956  24.034  26.855   0.028
19357W        W89957   5.411  20.775  11.547
19358W        W89958  21.358  24.062   4.149
19359W        W89959  20.616  11.192   0.836
19360W        W89960  34.762  31.224  10.451
19361W        W89961  14.345   2.283   2.631
19362W        W89962  36.798   8.634   2.344
19363W        W89963  21.321  13.194   3.895
19364W        W89964  40.498   0.442   1.454
19365W        W89965  20.626  15.681   0.280
19366W        W89966  12.182   1.800  14.718
19367W        W89967  41.540   1.300  11.982
19368W        W89968  43.414  37.123   4.172
19369W        W89969  26.593  40.336   1.491
19370W        W89970  41.008   7.927   4.300
19371W        W89971   0.263   9.477  14.249
19372W        W89972  20.500   3.306  11.678
19373W        W89973  19.917  20.475   1.324
19374W        W89974  41.664  40.790  11.580
19375W        W89975  21.546   8.205  12.106
19376W        W89976  25.039  43.331  14.825
19377W        W89977   7.237  18.096  13.807
19378W        W89978   5.186  43.268  12.041
19379W        W89979  17.686  44.919   4.617
19380W        W89980   8.339  21.926  11.630
19381W        W89981  38.402  14.176  11.957
19382W        W89982   1.458  20.285  11.734
19383W        W89983   0.822   5.752   0.486
19384W        W89984  11.360   3.896  12.433
19385W        W89985  11.401  22.584  14.145
19386W        W89986   8.226  40.511  12.803
19387W        W89987  19.022  29.468   3.178
19388W        W89988   9.404  12.880   0.742
19389W        W89989  40.000   2.110  11.678
19390W        W89990  29.351   4.667  11.470
19391W        W89991  17.287  43.620  12.535
19392W        W89992  28.459  12.809   2.273
19393W        W89993  24.699   2.351  13.029
19394W        W89994  29.902  12.146   1.461
19395W        W89995  27.394  23.290   2.791
19396W        W89996   9.736   0.880   1.805
19397W        W89997  11.070   5.015   3.532
19398W        W89998  13.802  21.035   0.478
19399W        W89999  23.430  14.253   2.671
19400W        W90000  42.341  22.978   2.335
19401W        W90001   2.545  17.038   0.973
19402W        W90002  15.397  42.849   2.363
19403W        W90003   2.809  13.864  12.237
19404W        W90004  28.997   8.595   2.738
19405W        W90005  16.943   9.516   1.979
19406W        W90006  39.064   7.916   1.879
19407W        W90007  21.051  27.641   4.996
19408W        W90008  24.306  27.978  13.374
19409W        W90009  22.029  18.675   4.439
19410W        W90010  35.512  22.599   0.838
19411W        W90011  32.409  15.194   3.819
19412W        W90012  28.438  25.190  13.915
19413W        W90013  41.141  34.932  14.234
19414W        W90014  12.641  27.969  11.052
19415W        W90015   6.159  31.738  14.827
19416W        W90016  15.779   8.306  14.739
19417W        W90017  29.651   6.869   0.754
19418W        W90018  43.377  40.424   1.346
19419W        W90019   9.749   0.449   2.241
19420W        W90020  35.881  18.355  10.509
19421W        W90021  11.188   7.886  13.400
19422W        W90022   5.160  36.282  14.237
19423W        W90023  28.509  18.681   3.152
19424W        W90024   4.183  17.802   4.660
19425W        W90025   1.504  38.880   0.363
19426W        W90026   1.797  28.239  10.734
19427W        W90027  36.925  12.430  11.583
19428W        W90028  26.463  28.742   0.036
19429W        W90029  42.371   6.839  10.717
19430W        W90030   9.826  40.388   4.596
19431W        W90031   2.348  14.084  12.259
19432W        W90032  24.584  17.335   1.772
19433W        W90033   9.054   9.779   0.274
19434W        W90034   2.442  44.051  13.428
19435W        W90035  41.079  35.669  14.895
19436W        W90036  10.835  39.955  13.869
19437W        W90037   9.762  18.047   0.906
19438W        W90038  35.583  13.073  10.729
19439W        W90039   6.200   2.783   4.387
19440W        W90040  16.018  13.906   3.171
19441W        W90041  33.441  13.337  14.412
19442W        W90042  17.572  31.122   1.592
19443W        W90043  31.575  42.314  14.302
19444W        W90044  14.281  42.303   2.142
19445W        W90045  15.142  35.871   0.217
19446W        W90046  10.744   0.832  14.752
19447W        W90047  19.546  18.149   3.785
19448W        W90048  13.670  26.335   2.132
19449W        W90049  27.404   8.648   4.466
19450W        W90050  31.022  18.062   1.933
19451W        W90051  38.016  35.079  13.215
19452W        W90052  10.147   5.740   1.145
19453W        W90053  14.717  25.959  14.434
19454W        W90054  26.081   7.882  10.658
19455W        W90055  23.691  12.809  14.843
19456W        W90056  14.483  33.908  12.507
19457W        W90057  28.690  32.557   4.702
19458W        W90058   5.215  11.079   0.419
19459W        W90059  38.091  31.159   1.181
19460W        W90060  31.413  18.745   2.215
19461W        W90061  37.172   1.172  12.961
19462W        W90062  38.988   3.466  10.825
19463W        W90063  37.001   3.802   4.042
19464W        W90064   2.240  23.518  14.327
19465W        W90065  44.460  21.297   2.262
19466W        W90066  43.028  40.363   3.462
19467W        W90067  39.903  41.917  13.881
19468W        W90068   5.506  17.279   1.735
19469W        W90069  17.583   5.697   2.781
19470W        W90070  21.121  37.769  10.922
19471W        W90071  33.292  43.471  12.083
19472W        W90072   6.209   3.000  13.635
19473W        W90073   1.861  42.176  13.909
19474W        W90074  12.959  28.271   0.895
19475W        W90075  33.558   6.778  10.059
19476W        W90076  42.233  13.278   3.265
19477W        W90077  42.680  29.564  14.827
19478W        W90078  19.795   2.051   4.964
19479W        W90079  11.609  14.586  13.729
19480W        W90080  29.762   1.531  13.946
19481W        W90081  39.101  20.078   2.730
19482W        W90082  29.877  26.979  10.846
19483W        W90083   1.294  10.623   1.182
19484W        W90084  34.479  32.401  10.656
19485W        W90085  25.781  20.512  13.310
19486W        W90086  43.015   2.748   4.157
19487W        W90087  23.136   2.531   1.469
19488W        W90088  44.240   1.666  12.713
19489W        W90089  10.234   1.396  13.016
19490W        W90090  11.316  15.919   2.578
19491W        W90091  23.957  28.609  12.076
19492W        W90092   3.933  30.386   4.065
19493W        W90093  22.946  32.514   1.740
19494W        W90094  10.627  21.260   2.843
19495W        W90095  31.823   8.918  13.675
19496W        W90096  30.155  41.955  13.313
19497W        W90097  27.200   7.865  11.625
19498W        W90098   2.269  23.129  14.814
19499W        W90099   5.452  31.256  13.336
19500W        W90100  39.406  43.973   3.351
19501W        W90101  25.593  15.679  11.632
19502W        W90102  10.756  34.460   2.364
19503W        W90103  18.086  40.272   3.790
19504W        W90104  21.312  23.043  14.040
19505W        W90105  26.724  15.595   4.226
19506W        W90106  17.748  34.366  13.614
19507W        W90107  24.071  33.633   0.483
19508W        W90108  16.062   6.527   2.253
19509W        W90109   9.368  20.863   1.835
19510W        W90110  38.951  32.948  12.880
19511W        W90111   6.957  26.199  12.389
19512W        W90112  42.442  29.134  11.222
19513W        W90113  27.669  34.288  12.552
19514W        W90114  38.427  19.592   0.248
19515W        W90115  26.450  39.531  12.866
19516W        W90116  20.591   3.432   1.696
19517W        W90117  32.057  28.421  13.907
19518W        W90118  39.778  36.986  14.805
19519W        W90119  44.386  30.684  13.835
19520W        W90120   1.588  42.185   2.277
19521W        W90121  29.802   3.535  12.982
19522W        W90122  33.441  23.861   0.442
19523W        W90123  44.278  23.695  10.782
19524W        W90124  32.041  14.753  11.693
19525W        W90125  29.038  21.994  11.714
19526W        W90126  10.741  30.971   1.468
19527W        W90127  40.222  36.366   4.318
19528W        W90128  12.485  34.677   2.625
19529W        W90129  22.881  23.133   4.319
19530W        W90130  21.168  20.872   3.656
19531W        W90131  26.222   5.593  12.433
19532W        W90132  40.356   0.952   0.697
19533W        W90133  20.149   0.440  10.449
19534W        W90134   0.737  36.445  14.403
19535W        W90135   6.291  24.471   3.239
19536W        W90136  17.143   2.043  13.495
19537W        W90137  30.936  14.348  11.162
19538W        W90138  23.071  41.668   4.123
19539W        W90139  14.354  32.200  14.485
19540W        W90140   6.404  43.485   5.015
19541W        W90141  11.380  18.305   3.686
19542W        W90142  29.725  26.537   4.760
19543W        W90143  29.728  10.669  13.085
19544W        W90144  37.847  39.199  14.015
19545W        W90145  43.756  17.156   2.686
19546W        W90146  28.209  12.215  10.664
19547W        W90147  17.679  16.150   3.173
19548W        W90148  15.493   7.625  11.931
19549W        W90149  30.705  38.919  13.999
19550W        W90150  43.581  31.075   0.338
19551W        W90151  35.489  43.005  13.909
19552W        W90152  43.821   4.389  12.128
19553W        W90153  35.654   7.422  11.594
19554W        W90154  16.274  18.438  11.293
19555W        W90155  23.058  41.535  13.498
19556W        W90156  17.098  12.685  13.391
19557W        W90157  10.645  13.790   4.134
19558W        W90158  11.756  39.927  10.642
19559W        W90159  25.440  30.517  14.748
19560W        W90160   0.653  34.134   0.392
19561W        W90161   7.466  31.302  12.440
19562W        W90162  40.049  21.186  10.767
19563W        W90163  14.731  40.790  14.875
19564W        W90164   8.850  23.635   1.404
19565W        W90165  39.872   9.225   0.784
19566W        W90166  25.805  31.888   4.459
19567W        W90167   5.267  11.650  11.854
19568W        W90168  10.471  16.708  12.464
19569W        W90169  22.781   0.101  10.939
19570W        W90170  32.936  29.094   0.760
19571W        W90171  44.896  34.992   3.890
19572W        W90172  20.766  33.929  13.888
19573W        W90173  42.011  35.566   2.229
19574W        W90174  32.719  19.300  11.081
19575W        W90175  18.111  44.900  11.958
19576W        W90176  13.580  43.394   2.841
19577W        W90177   4.053   1.728  12.104
19578W        W90178  35.650  40.002   4.283
19579W        W90179   6.083  42.818   1.458
19580W        W90180  21.132  15.618   0.645
19581W        W90181  12.587  27.153  10.740
19582W        W90182  13.118  37.032  12.890
19583W        W90183  36.923  42.332  12.984
19584W        W90184  40.148  26.464   4.945
19585W        W90185  18.923  24.774  13.351
19586W        W90186   5.671  43.058  12.113
19587W        W90187   6.260  30.151   2.379
19588W        W90188   1.163  39.277  10.540
19589W        W90189  23.575  12.505  13.851
19590W        W90190  35.638   1.227  12.925
19591W        W90191  41.348   7.348   3.049
19592W        W90192  19.281  16.483   3.874
19593W        W90193  43.063  12.619  14.449
19594W        W90194  29.586  22.423   0.784
19595W        W90195  30.370  13.350  10.676
19596W        W90196  16.246  19.648  12.036
19597W        W90197  10.106   4.203   4.717
19598W        W90198   3.277  19.571   2.199
19599W        W90199  38.084  13.801  11.690
19600W        W90200  37.385  12.640  11.811
19601W        W90201  24.653   9.647   2.370
19602W        W90202   1.459  24.955   3.090
19603W        W90203  26.680  41.949   1.623
19604W        W90204  23.179   2.027   2.105
19605W        W90205   4.348  42.475  13.284
19606W        W90206  31.472  30.346  11.326
19607W        W90207  17.223  31.928   0.774
19608W        W90208  39.560  40.081  11.479
19609W        W90209  15.528   5.891  14.000
19610W        W90210  21.070  25.929   2.881
19611W        W90211  32.992   0.718  13.916
19612W        W90212  33.401  26.291   3.472
19613W        W90213  10.318  20.735  12.130
19614W        W90214  42.213  40.535  12.626
19615W        W90215  15.751   3.966  12.485
19616W        W90216  34.549   1.731  10.931
19617W        W90217   9.311   1.408   4.638
19618W        W90218  25.179  31.463   3.720
19619W        W90219  29.223  16.349   3.686
19620W        W90220   4.801  43.525  13.488
19621W        W90221   6.827  14.828  14.269
19622W        W90222  34.548  40.651  13.878
19623W        W90223  26.108  37.449  10.934
19624W        W90224  37.130  40.772   4.102
19625W        W90225  31.496  20.904   4.385
19626W        W90226  36.701  26.730   4.567
19627W        W90227  31.653   9.805   2.203
19628W        W90228  17.612  37.517  13.822
19629W        W90229  41.715  43.884   4.396
19630W        W90230  12.080  15.073   4.580
19631W        W90231  42.259  43.795   2.625
19632W        W90232  31.939  18.711   2.143
19633W        W90233  17.114   2.415   1.091
19634W        W90234  20.126  21.339   1.797
19635W        W90235   7.727  14.020   0.773
19636W        W90236  14.562  14.857   2.236
19637W        W90237   6.419  21.152   0.359
19638W        W90238  25.445  11.351   1.920
19639W        W90239  28.974  41.928  10.664
19640W        W90240  31.124  12.451   1.913
19641W        W90241   1.921   7.765  11.840
19642W        W90242  12.695   5.969   2.181
19643W        W90243  36.688  20.244   0.333
19644W        W90244  15.839  27.071  12.141
19645W        W90245  24.418  14.654  12.975
19646W        W90246   2.804  43.217   3.323
19647W        W90247  23.563  36.091  11.174
19648W        W90248  31.118   1.069   1.472
19649W        W90249  34.754  13.496   4.220
19650W        W90250  19.085  34.566  13.607
19651W        W90251  12.259   0.450   0.400
19652W        W90252  15.940  42.043   1.771
19653W        W90253   6.639  11.459  11.414
19654W        W90254  14.655   7.819   0.052
19655W        W90255   9.910   2.834   4.197
19656W        W90256  38.329  35.564  11.079
19657W        W90257  34.186  25.600  13.015
19658W        W90258  30.642   1.932   3.776
19659W        W90259   1.700  10.760   0.219
19660W        W90260  18.713  16.112   4.599
19661W        W90261  21.526  39.273   2.206
19662W        W90262  41.757  42.051  14.428
19663W        W90263  33.106  24.755  14.465
19664W        W90264  30.169  36.263   4.200
19665W        W90265  34.511  31.415   3.085
19666W        W90266  19.097  24.002   2.380
19667W        W90267   1.730  18.589  11.921
19668W        W90268  23.320   4.407   3.330
19669W        W90269  44.832  22.160   4.582
19670W        W90270  29.998  25.393   2.910
19671W        W90271  34.034  37.068   4.037
19672W        W90272  16.212  16.253   1.724
19673W        W90273  44.115   5.213  12.120
19674W        W90274  11.841  16.225   1.736
19675W        W90275  29.118  25.680  13.004
19676W        W90276  24.090  37.639  12.949
19677W        W90277   5.080   7.388   3.569
19678W        W90278   4.506  22.259   4.065
19679W        W90279  23.214  41.871  13.842
19680W        W90280  24.958  33.936   2.311
19681W        W90281  10.761   8.195   0.470
19682W        W90282  30.968  32.519  11.865
19683W        W90283  27.141  28.906   2.716
19684W        W90284  13.824  25.555   1.402
19685W        W90285  43.107  37.548   3.677
19686W        W90286   0.975  11.553   4.128
19687W        W90287  18.755  40.882  13.871
19688W        W90288   5.405  13.154  11.751
19689W        W90289   2.004   5.199   0.199
19690W        W90290  20.663  33.089  10.571
19691W        W90291  11.239  38.082   2.727
19692W        W90292  14.206  44.136   4.862
19693W        W90293   7.459  35.680  14.973
19694W        W90294  16.510  36.724   2.350
19695W        W90295  16.294  31.425   2.651
19696W        W90296  17.579  25.324  10.030
19697W        W90297  11.058  27.137   4.103
19698W        W90298  25.285  13.346  12.166
19699W        W90299  40.362  24.535  10.520
19700W        W90300  37.123  39.871   2.207
19701W        W90301  21.307  44.197  12.842
19702W        W90302  11.321  33.392  12.886
19703W        W90303  37.662  42.673  12.910
19704W        W90304  10.597  24.069  12.598
19705W        W90305   2.219  41.510  13.286
19706W        W90306   0.269  27.185  12.770
19707W        W90307   9.587  23.197  14.500
19708W        W90308   1.198  36.910   0.214
19709W        W90309  10.993  12.031   2.798
19710W        W90310  32.203  18.325   2.380
19711W        W90311   4.877  40.347  10.807
19712W        W90312  32.085  10.127  11.486
19713W        W90313   3.275   6.811   1.842
19714W        W90314  15.331  33.983  13.610
19715W        W90315  43.558  29.142   1.117
19716W        W90316   6.765  17.474   3.240
19717W        W90317  33.397  28.389   2.856
19718W        W90318  17.756  22.186   1.409
19719W        W90319   3.200  40.911   2.755
19720W        W90320  29.581  37.476   3.229
19721W        W90321  38.042  34.102  11.548
19722W        W90322   0.216   1.478   3.261
19723W        W90323  30.354  41.820   0.742
19724W        W90324  36.580  15.481  13.395
19725W        W90325  31.634  44.932  11.547
19726W        W90326  18.777  18.682  13.904
19727W        W90327   8.726  34.973   1.994
19728W        W90328  34.150  29.124   1.288
19729W        W90329  15.602   1.353  14.059
19730W        W90330  27.102  30.157  12.108
19731W        W90331  43.836   1.119  14.718
19732W        W90332  14.543  15.579   0.194
19733W        W90333  32.448  36.380  13.045
19734W        W90334  28.546  34.077   0.765
19735W        W90335  14.355   5.292  11.676
19736W        W90336  18.765  14.046   2.310
19737W        W90337   8.709  44.889  10.688
19738W        W90338   8.750  27.703  12.952
19739W        W90339  28.896   0.905  10.665
19740W        W90340  37.821  18.032   4.181
19741W        W90341   4.356  10.796  12.481
19742W        W90342  28.902  33.564   3.282
19743W        W90343  41.640   6.098   0.267
19744W        W90344  11.111  14.220   1.322
19745W        W90345  18.714  42.678   2.272
19746W        W90346   8.308  10.495   4.220
19747W        W90347  31.946   4.310  14.246
19748W        W90348   4.148   7.874   2.945
19749W        W90349  10.176  40.101   3.728
19750W        W90350  14.105  25.996   1.417
19751W        W90351  16.622  32.117   1.384
19752W        W90352   4.618  20.518   1.995
19753W        W90353  29.462  12.115  12.695
19754W        W90354  15.701  34.391  14.679
19755W        W90355  20.611  43.054   2.740
19756W        W90356  24.151  10.075   3.046
19757W        W90357  10.653  17.921  11.105
19758W        W90358  41.833  22.493   2.863
19759W        W90359  15.114  18.771  13.918
19760W        W90360  23.920  20.322  10.770
19761W        W90361  43.771  30.954  12.444
19762W        W90362  25.657   0.669   9.827
19763W        W90363  17.423  38.653  12.836
19764W        W90364  39.115  41.795   0.813
19765W        W90365   3.722  38.549   3.127
19766W        W90366   0.332  17.217  12.882
19767W        W90367  32.621   5.554  14.330
19768W        W90368  40.976  44.745   1.978
19769W        W90369  16.197  35.347   3.638
19770W        W90370  11.690  40.795   1.912
19771W        W90371  22.678  38.364   2.708
19772W        W90372   3.137  25.146  11.695
19773W        W90373  11.566  26.604  10.191
19774W        W90374  20.287  14.331  10.837
19775W        W90375  22.658  24.899  11.441
19776W        W90376   6.674  40.893  14.927
19777W        W90377  18.250  23.539   2.628
19778W        W90378  11.476   4.765  13.548
19779W        W90379  26.133  17.320  12.782
19780W        W90380  29.899  13.095   1.621
19781W        W90381  36.389  38.058  14.476
19782W        W90382  40.238  41.278  14.875
19783W        W90383  28.627  26.475  14.406
19784W        W90384  42.032   9.615  13.347
19785W        W90385  22.782  25.163  11.922
19786W        W90386  35.836  21.268  13.539
19787W        W90387  23.410  16.512   4.825
19788W        W90388  38.123  29.492  11.446
19789W        W90389  38.721  35.883   4.765
19790W        W90390  39.327  11.692  14.357
19791W        W90391  10.235  11.125   2.282
19792W        W90392  36.456  37.395   1.142
19793W        W90393  34.079  23.246   3.680
19794W        W90394  41.050  21.874   2.781
19795W        W90395   9.691  39.351   2.811
19796W        W90396   6.648  30.366  14.257
19797W        W90397  30.966  29.140  10.690
19798W        W90398  42.601   5.196   0.818
19799W        W90399  43.942  12.368  12.979
19800W        W90400  42.245   5.559   0.742
19801W        W90401   0.417  35.327  13.022
19802W        W90402  32.203   7.636  14.939
19803W        W90403  44.939  34.334  14.470
19804W        W90404  21.131  41.416  11.206
19805W        W90405  31.873   8.112   1.792
19806W        W90406  28.483   6.989  11.470
19807W        W90407  32.871   1.765   0.864
19808W        W90408  10.705  26.459  10.548
19809W        W90409  21.564  30.478   2.164
19810W        W90410  28.673   7.242   1.443
19811W        W90411  31.145  32.462  13.888
19812W        W90412   2.902  30.807   1.839
19813W        W90413   5.862  26.230  11.707
19814W        W90414   2.210  24.163   3.251
19815W        W90415  17.808  22.750   4.541
19816W        W90416  18.955  36.836  14.974
19817W        W90417  31.813  10.842   0.406
19818W        W90418  26.402   6.449   2.034
19819W        W90419  29.458   0.356  12.634
19820W        W90420  31.178  14.728   3.633
19821W        W90421  29.326  19.079   3.697
19822W        W90422   1.747  34.382   2.266
19823W        W90423  10.616  10.563   4.586
19824W        W90424  42.847  30.664   4.663
19825W        W90425   1.705  22.358  11.994
19826W        W90426  32.569  36.780  11.205
19827W        W90427  38.849  32.207   0.879
19828W        W90428   4.412   4.436  14.372
19829W        W90429  28.963  29.611  11.496
19830W        W90430  20.999  13.110  11.129
19831W        W90431  27.795  12.369  14.459
19832W        W90432  23.244  14.051   0.316
19833W        W90433  17.806   5.864   0.047
19834W        W90434   0.423  22.164  11.356
19835W        W90435  40.134  37.133  12.902
19836W        W90436  16.019  25.369   4.916
19837W        W90437  35.426  29.434  10.907
19838W        W90438  21.606  33.354   3.997
19839W        W90439  42.699   3.832   3.678
19840W        W90440  11.799  25.622   3.384
19841W        W90441   5.895   9.963  11.037
19842W        W90442  39.050   6.249  11.931
19843W        W90443  10.731  10.118   4.309
19844W        W90444  11.688  33.510   1.144
19845W        W90445  17.987  32.324  13.458
19846W        W90446  42.339  38.131   1.436
19847W        W90447  23.062  37.818   1.723
19848W        W90448  11.273  21.995  10.799
19849W        W90449  20.291  41.417   1.389
19850W        W90450  36.820  34.419  14.957
19851W        W90451  24.335   6.747   4.126
19852W        W90452  23.679  12.375   4.260
19853W        W90453   0.020  23.183  11.480
19854W        W90454  37.989  36.022  13.331
19855W        W90455   9.565  24.058   1.788
19856W        W90456  27.769  22.319  14.405
19857W        W90457  12.444  22.677  12.159
19858W        W90458   1.015  32.077   0.558
19859W        W90459  23.113  29.130  14.379
19860W        W90460  14.377  41.365   5.016
19861W        W90461  19.061  21.369   2.796
19862W        W90462  10.407  16.785  10.685
19863W        W90463  20.021  43.788  14.565
19864W        W90464  15.993  36.316   9.813
19865W        W90465   3.002   7.439   1.396
19866W        W90466   8.627   7.652  13.805
19867W        W90467   2.846   7.372   2.445
19868W        W90468  10.230  23.420   3.691
19869W        W90469  24.110  26.224   0.828
19870W        W90470  35.413  34.366   4.162
19871W        W90471   6.375   9.128  13.177
19872W        W90472  30.477  35.116  12.838
19873W        W90473  43.948  23.591   1.864
19874W        W90474  14.017  27.956  13.128
19875W        W90475  28.396  27.682   2.831
19876W        W90476  12.561  35.454  14.479
19877W        W90477  12.722  14.493  11.270
19878W        W90478  15.124   8.688  14.458
19879W        W90479  13.614  14.854   4.524
19880W        W90480  44.807   2.251   1.237
19881W        W90481  17.601  44.796  12.040
19882W        W90482   4.195  39.998   2.348
19883W        W90483  42.874   8.751   0.466
19884W        W90484  23.474  27.187   2.766
19885W        W90485   9.678  19.908  12.499
19886W        W90486   7.370   2.702  12.096
19887W        W90487   5.319  23.544  11.944
19888W        W90488  37.406  10.146  14.931
19889W        W90489   3.200   9.657   3.771
19890W        W90490  44.891  19.833   3.780
19891W        W90491  10.131  15.356  11.558
19892W        W90492  15.659  19.618  10.939
19893W        W90493  37.530  10.914  11.675
19894W        W90494  28.663   1.542  14.933
19895W        W90495   5.874  38.415   2.869
19896W        W90496  33.342  10.343  13.973
19897W        W90497  22.944  37.759  10.048
19898W        W90498  30.677  21.679   3.306
19899W        W90499  30.750  40.291   0.441
19900W        W90500  16.484  25.735  12.932
19901W        W90501   9.921  21.802  12.897
19902W        W90502  23.152   6.198   4.379
19903W        W90503  30.739  17.123  11.911
19904W        W90504  16.350   9.722  14.259
19905W        W90505  23.602  19.119  12.999
19906W        W90506  41.503  35.089   5.051
19907W        W90507  26.752  16.695   4.190
19908W        W90508  39.893  10.387   4.173
19909W        W90509  10.409  15.801  11.594
19910W        W90510  28.667   3.240   2.605
19911W        W90511  26.394  32.586  13.328
19912W        W90512  32.943  28.923   3.066
19913W        W90513   2.800  24.526   2.338
19914W        W90514  13.568  15.589  13.616
19915W        W90515  26.742  25.330   4.492
19916W        W90516  31.640  11.135   0.933
19917W        W90517  27.357  22.003   1.002
19918W        W90518  11.385  12.279  14.325
19919W        W90519  39.372  16.289  11.466
19920W        W90520  31.590  15.910  10.534
19921W        W90521  13.742  11.832  13.313
19922W        W90522   3.754  43.800  10.790
19923W        W90523  19.984   9.184  11.094
19924W        W90524  18.010  26.002  14.467
19925W        W90525  18.123  16.148   2.877
19926W        W90526   1.740  38.503   2.461
19927W        W90527  33.991  19.203   1.938
19928W        W90528   0.445  29.111   2.250
19929W        W90529  20.844  40.473  10.786
19930W        W90530   7.372  18.650   2.698
19931W        W90531  35.293   3.599   3.761
19932W        W90532  37.767  14.610   3.367
19933W        W90533  21.568  42.848   0.981
19934W        W90534   7.341  13.359   3.224
19935W        W90535  24.240  29.464   1.318
19936W        W90536  39.370  15.136  10.431
19937W        W90537   1.769  27.043  12.918
19938W        W90538  42.444   7.772  11.006
19939W        W90539   1.941  31.146   1.924
19940W        W90540  26.451   1.198   0.482
19941W        W90541  12.281  23.311  14.889
19942W        W90542  27.174  19.839  11.791
19943W        W90543  34.918  20.114   1.647
19944W        W90544  27.617  17.652  13.569
19945W        W90545   1.966  18.175  11.685
19946W        W90546  25.037  27.896  11.108
19947W        W90547  27.659  40.885  12.856
19948W        W90548  24.125  39.880  12.644
19949W        W90549   1.835  12.736   2.434
19950W        W90550  33.069  32.997  12.973
19951W        W90551   9.197  40.710   3.007
19952W        W90552  13.501   2.870  14.838
19953W        W90553  26.666  22.239   3.239
19954W        W90554  13.090  22.781  10.030
19955W        W90555  26.437  43.161   5.125
19956W        W90556  30.189  22.502  14.508
19957W        W90557  31.228  27.727  13.007
19958W        W90558   9.582  19.075  14.403
19959W        W90559  26.016  35.803   3.716
19960W        W90560  28.099   9.216   1.873
19961W        W90561  25.692   1.992   2.323
19962W        W90562  32.545  25.101   0.750
19963W        W90563  16.655  13.721   2.742
19964W        W90564  25.083  16.760  12.562
19965W        W90565  42.083  30.007  11.523
19966W        W90566  29.052  31.544  14.046
19967W        W90567  40.912  17.271   5.396
19968W        W90568   5.653  44.444   2.271
19969W        W90569  13.852   1.506   3.202
19970W        W90570  18.756   2.622  13.085
19971W        W90571   6.520  37.386   1.994
19972W        W90572  31.139   3.393  13.351
19973W        W90573  42.413   2.311   3.646
19974W        W90574  21.087  25.705  14.910
19975W        W90575  25.183  27.947  12.934
19976W        W90576  19.281  27.385  11.631
19977W        W90577   7.764  12.402  14.846
19978W        W90578  40.867  36.447   4.687
19979W        W90579  38.507  17.799   2.814
19980W        W90580  15.212   9.875   0.249
19981W        W90581  21.788  33.699  14.632
19982W        W90582  37.643  44.682  11.175
19983W        W90583   7.743   9.113   0.483
19984W        W90584   8.240  24.819   1.707
19985W        W90585  29.526   7.738  10.580
19986W        W90586  23.264  36.599   2.266
19987W        W90587  35.337  14.037  12.316
19988W        W90588  10.452   6.247  14.939
19989W        W90589  30.063  43.345  14.475
19990W        W90590  39.064   1.390  12.871
19991W        W90591  18.526   4.040  12.577
19992W        W90592  42.756  40.569   2.539
19993W        W90593  26.960  21.725  10.624
19994W        W90594  11.327  24.150  14.456
19995W        W90595  20.506  18.093   1.232
19996W        W90596  16.071  25.050  14.019
19997W        W90597   2.454   8.686   0.414
19998W        W90598  34.028   9.371  13.156
19999W        W90599   0.529  32.555   3.271
20000W        W90600  33.976  39.008  11.555
20001W        W90601  36.996  16.331   0.767
20002W        W90602   0.983  26.710  11.204
20003W        W90603  10.340  34.181  13.989
20004W        W90604  29.459  34.470  14.758
20005W        W90605  41.971   6.171   2.325
20006W        W90606  23.591  24.614  13.809
20007W        W90607   4.786  40.252   1.518
20008W        W90608  44.403  34.371   9.912
20009W        W90609   8.758  27.758  10.109
20010W        W90610  34.089  33.608   1.467
20011W        W90611  20.125   2.848  13.367
20012W        W90612  26.288  22.606  14.370
20013W        W90613  19.748  19.048  13.109
20014W        W90614  18.295  41.546  12.110
20015W        W90615  44.017  35.532  13.321
20016W        W90616  11.179  24.447   4.154
20017W        W90617  38.291  44.827   4.122
20018W        W90618   9.646  41.859  11.929
20019W        W90619  12.849  22.567  13.424
20020W        W90620  14.129  12.392   0.739
20021W        W90621   3.823  15.623   2.671
20022W        W90622   7.177  29.405   1.848
20023W        W90623   3.466   0.406   4.096
20024W        W90624  11.706  30.632  11.257
20025W        W90625  19.514  32.791  11.070
20026W        W90626  26.164  33.866  11.063
20027W        W90627  30.798  44.251  11.514
20028W        W90628   4.236   9.199   0.486
20029W        W90629  32.984   7.292   3.923
20030W        W90630  12.343  20.257  14.486
20031W        W90631  27.427  27.420  14.995
20032W        W90632  20.819   2.277   1.447
20033W        W90633  38.898  20.034   1.719
20034W        W90634  34.418   8.266  14.070
20035W        W90635  28.353   6.345   1.427
20036W        W90636  18.503  36.445   2.752
20037W        W90637  15.278  15.174  13.041
20038W        W90638  34.005  26.288  13.724
20039W        W90639   4.513  34.466  14.929
20040W        W90640  23.394   5.555  12.436
20041W        W90641  28.369   2.216  13.588
20042W        W90642  29.610  36.425  14.285
20043W        W90643  32.942  38.380   2.756
20044W        W90644  24.018  40.407  11.064
20045W        W90645  11.942   3.455   1.893
20046W        W90646   7.745  41.620   3.632
20047W        W90647  43.209  24.450   3.274
20048W        W90648  18.931  23.250  12.041
20049W        W90649  27.674  34.849   0.988
20050W        W90650  18.286  11.673  10.765
20051W        W90651  33.824  27.905   3.630
20052W        W90652  17.591  21.753  12.963
20053W        W90653   8.874  12.156   2.331
20054W        W90654  24.299  36.942   3.725
20055W        W90655  12.109  20.688  10.483
20056W        W90656  37.969  40.329   2.261
20057W        W90657  10.227  34.598   3.128
20058W        W90658  17.657  17.129   3.338
20059W        W90659  33.356  20.284  13.350
20060W        W90660   9.246  39.093  12.559
20061W        W90661   9.947  15.823  11.402
20062W        W90662  26.012  31.522   2.193
20063W        W90663  15.257  43.803   1.307
20064W        W90664  24.366  44.802   1.769
20065W        W90665  33.855  13.721  14.079
20066W        W90666  39.822  20.802   1.265
20067W        W90667  25.359  10.337  12.457
20068W        W90668  42.393  27.001   2.436
20069W        W90669   7.738  18.807  12.119
20070W        W90670  42.547   5.457  13.824
20071W        W90671   0.465  15.236   1.761
20072W        W90672   7.539  35.407  10.653
20073W        W90673   1.965  30.804   0.077
20074W        W90674  12.622  21.663  14.281
20075W        W90675   1.815  42.374  14.884
20076W        W90676  21.690  31.436  10.412
20077W        W90677  18.785  39.951   4.417
20078W        W90678  21.102  12.876  14.445
20079W        W90679  21.845  37.301   3.707
20080W        W90680  28.171  29.861  11.161
20081W        W90681  28.512  25.000   2.864
20082W        W90682  30.911  44.518  11.934
20083W        W90683   1.415  32.958   0.066
20084W        W90684   9.314   8.655   4.891
20085W        W90685  11.280  34.296   0.888
20086W        W90686  39.582  37.127   2.220
20087W        W90687  30.903   6.689   3.322
20088W        W90688  32.675   2.585   4.447
20089W        W90689   2.807  20.213   1.639
20090W        W90690   1.807  22.706  10.513
20091W        W90691  13.286  18.620  11.116
20092W        W90692  13.891  31.679   1.856
20093W        W90693  39.076  22.737   0.352
20094W        W90694   6.107  11.881  13.521
20095W        W90695  28.568  22.087  10.893
20096W        W90696  16.245  23.571  14.971
20097W        W90697  14.603  24.259   1.234
20098W        W90698  39.061  18.208   2.295
20099W        W90699   5.441  44.967   0.815
20100W        W90700   9.743   2.658   4.674
20101W        W90701  30.066  28.940  11.679
20102W        W90702  16.060  22.597  12.139
20103W        W90703  13.247  34.497  13.964
20104W        W90704  26.439  11.149   1.950
20105W        W90705  25.238  40.260   4.098
20106W        W90706  18.194  42.729   4.446
20107W        W90707  12.656  11.893   3.272
20108W        W90708  29.690  10.196   2.299
20109W        W90709  15.405  32.531  12.780
20110W        W90710  12.348  16.207  11.883
20111W        W90711  21.355  28.543   4.032
20112W        W90712  17.773   8.123   1.296
20113W        W90713  41.054  35.984  10.579
20114W        W90714   8.963  35.797  13.433
20115W        W90715  38.908  16.276  11.229
20116W        W90716  39.058   2.794   4.067
20117W        W90717  38.521  28.952  14.072
20118W        W90718  28.968  25.997  11.196
20119W        W90719  23.005  27.008  10.788
20120W        W90720  36.341   7.702  12.891
20121W        W90721  14.289   8.560   0.485
20122W        W90722  23.397  15.659  12.687
20123W        W90723   1.522  20.047   2.763
20124W        W90724  20.254  34.595   1.271
20125W        W90725  33.122   0.075   1.385
20126W        W90726  43.369  42.071   3.657
20127W        W90727  43.035  39.584  13.314
20128W        W90728  21.341  17.253   3.105
20129W        W90729  16.964  15.193   1.565
20130W        W90730  10.222  12.233  11.765
20131W        W90731  14.030  31.576  14.007
20132W        W90732  36.647  29.245  12.123
20133W        W90733   6.824   6.816   4.758
20134W        W90734  31.440  17.632   1.245
20135W        W90735  20.631  11.720   3.171
20136W        W90736  25.192  32.304   1.293
20137W        W90737   3.728  43.275   3.412
20138W        W90738  28.864  44.353   1.811
20139W        W90739  38.890  32.706   4.036
20140W        W90740  30.571   4.298   4.715
20141W        W90741  36.781  12.146   2.404
20142W        W90742   1.273  38.799   4.594
20143W        W90743  38.763  41.865   3.771
20144W        W90744  21.040  35.950  13.529
20145W        W90745  35.124   4.651  11.560
20146W        W90746   5.078  41.445   4.629
20147W        W90747  34.758  32.527  11.662
20148W        W90748   0.762  19.033   2.116
20149W        W90749  10.648  38.342  11.899
20150W        W90750  40.833  27.975  10.719
20151W        W90751  40.363   6.299  12.840
20152W        W90752  38.912  26.684   3.623
20153W        W90753   5.733  19.724   1.727
20154W        W90754  15.582  38.973   1.779
20155W        W90755  42.977  39.880   4.833
20156W        W90756   3.229  44.058   2.893
20157W        W90757  14.962  15.563  11.751
20158W        W90758  23.680   0.878  14.787
20159W        W90759  24.128  43.631   0.256
20160W        W90760  32.730   8.770   0.019
20161W        W90761  44.256   4.676  13.394
20162W        W90762  22.183  16.876  12.569
20163W        W90763  44.345  20.481   1.326
20164W        W90764  18.392   2.793   3.643
20165W        W90765  22.053  38.364  13.363
20166W        W90766   5.511  40.672  13.011
20167W        W90767   3.163  25.234   1.769
20168W        W90768   2.589   4.202   3.648
20169W        W90769  39.741  41.130   3.530
20170W        W90770  14.634   2.193   3.922
20171W        W90771   2.910  25.475   2.286
20172W        W90772  17.485  23.746   0.422
20173W        W90773  33.004  33.875   1.563
20174W        W90774  35.023  38.882   2.302
20175W        W90775  20.128  41.041  11.004
20176W        W90776  26.841   4.959  14.256
20177W        W90777  15.060  14.704  12.993
20178W        W90778  10.207  13.851  10.645
20179W        W90779  23.545  28.553  14.894
20180W        W90780   3.344  42.597   3.364
20181W        W90781  13.290  35.529   0.565
20182W        W90782   3.478  11.889  11.233
20183W        W90783  44.851  20.844   2.293
20184W        W90784  43.940   1.998   3.125
20185W        W90785   7.718  29.361  12.692
20186W        W90786  28.078  28.895  14.257
20187W        W90787  38.857   2.409   3.786
20188W        W90788  16.319  11.610   4.077
20189W        W90789  14.855   6.907   2.001
20190W        W90790  30.144  23.408   0.356
20191W        W90791   2.043  11.689  13.932
20192W        W90792  12.138  38.768   1.785
20193W        W90793   4.779  25.839  12.070
20194W        W90794  10.808  13.694  14.041
20195W        W90795   5.962  11.070   2.984
20196W        W90796  33.512  19.485  14.913
20197W        W90797  37.155  19.594   4.268
20198W        W90798  21.705   5.802   3.621
20199W        W90799   3.299  41.017   1.748
20200W        W90800   9.426  18.625  13.609
20201W        W90801   2.236  41.493   3.730
20202W        W90802  13.661   1.585  12.814
20203W        W90803  36.465   6.426  10.344
20204W        W90804  14.834   0.448  11.186
20205W        W90805  35.521  29.956  13.325
20206W        W90806   0.977  12.211  13.572
20207W        W90807  29.094  14.073  13.714
20208W        W90808  26.651  17.356  13.598
20209W        W90809   0.837  16.744  11.149
20210W        W90810  29.081  34.799  14.825
20211W        W90811  35.650  39.138   0.315
20212W        W90812  43.956   2.749  13.344
20213W        W90813  40.359  33.949  12.439
20214W        W90814  39.877  17.148   3.710
20215W        W90815  14.770  34.580   0.492
20216W        W90816  35.118   7.881   3.806
20217W        W90817  18.720  20.221   2.172
20218W        W90818  42.516  19.129  13.153
20219W        W90819  16.855  35.511  12.119
20220W        W90820   0.545  37.861   0.267
20221W        W90821  25.165  28.158   1.889
20222W        W90822   2.983  18.603   1.736
20223W        W90823  33.875  40.773   3.707
20224W        W90824   5.957  15.062   0.356
20225W        W90825  10.406  40.860   4.210
20226W        W90826  37.583  43.883   0.814
20227W        W90827   6.824  12.355   1.691
20228W        W90828  10.598  16.430   4.514
20229W        W90829  30.686  24.790  14.332
20230W        W90830   1.832  22.457  11.017
20231W        W90831  15.079  11.209   5.266
20232W        W90832  32.320  15.149  12.011
20233W        W90833  25.486  24.435   3.073
20234W        W90834  16.756  13.067  12.472
20235W        W90835   9.431  29.194  13.473
20236W        W90836   8.201  18.006   2.326
20237W        W90837  13.129  10.202   2.854
20238W        W90838  13.592   0.640  12.952
20239W        W90839  38.455  43.991  11.978
20240W        W90840  43.518  26.992  14.289
20241W        W90841  16.667  13.545   1.676
20242W        W90842   4.061  12.195  12.458
20243W        W90843  15.672   1.543   4.022
20244W        W90844  33.815  21.537   4.693
20245W        W90845  44.865  39.278  12.553
20246W        W90846   4.866  26.728   5.058
20247W        W90847   3.227  14.527   2.918
20248W        W90848  19.718  11.307  12.962
20249W        W90849  31.253  43.785   2.749
20250W        W90850   3.904  40.586  13.457
20251W        W90851  10.074   8.020  14.238
20252W        W90852  40.024  16.028  13.364
20253W        W90853  36.588   4.259   4.579
20254W        W90854  34.422   7.490  12.024
20255W        W90855  34.793  26.988   0.971
20256W        W90856  14.896  10.995  12.912
20257W        W90857   3.907   1.874  12.600
20258W        W90858  26.225  23.452   3.625
20259W        W90859  30.071   9.142   3.132
20260W        W90860  20.580  43.305   0.838
20261W        W90861   1.887  16.179   4.564
20262W        W90862  11.868   8.491  14.350
20263W        W90863  10.223   7.739   0.767
20264W        W90864  19.540  21.191   2.795
20265W        W90865  24.815  23.773   0.458
20266W        W90866  20.297  10.053   0.383
20267W        W90867  34.369  14.281   2.895
20268W        W90868   5.557  43.998  13.149
20269W        W90869  10.675  31.807   2.609
20270W        W90870  10.297  35.292  10.547
20271W        W90871  43.436  26.782   1.671
20272W        W90872  31.858  10.843   1.359
20273W        W90873  44.462   8.615  13.036
20274W        W90874  24.489  34.088  13.420
20275W        W90875  34.055  12.859   3.309
20276W        W90876  15.884  30.360   4.992
20277W        W90877  11.340  30.896   4.836
20278W        W90878   9.736   4.948  11.421
20279W        W90879   5.636  10.904  14.799
20280W        W90880  35.170   5.699  12.640
20281W        W90881   4.209   7.393  13.720
20282W        W90882  31.227  37.811  14.313
20283W        W90883  19.831   4.141  14.323
20284W        W90884   7.456  37.947   3.581
20285W        W90885  22.978  17.658  10.719
20286W        W90886  13.184   7.233  14.325
20287W        W90887  33.785  24.399  12.448
20288W        W90888  10.126  40.667  14.314
20289W        W90889   6.993  43.183   0.370
20290W        W90890  36.146  40.388   2.699
20291W        W90891  30.609  32.872   0.928
20292W        W90892  24.132   1.454  12.979
20293W        W90893  11.416  28.349   0.487
20294W        W90894  33.738   0.903  11.225
20295W        W90895  41.406   5.724  12.553
20296W        W90896  12.850  13.784   2.107
20297W        W90897  28.115  40.983  12.568
20298W        W90898  15.598   4.006  13.631
20299W        W90899   3.257  28.694  13.808
20300W        W90900  28.084  42.857  13.178
20301W        W90901  13.622  39.494   0.840
20302W        W90902   1.796  27.607  13.439
20303W        W90903  11.692  12.020   2.223
20304W        W90904  28.079  14.575   2.896
20305W        W90905  35.238   0.898   2.811
20306W        W90906  14.648  25.670  14.882
20307W        W90907  39.859   1.550   1.327
20308W        W90908  41.364  35.482  14.370
20309W        W90909  38.488  42.346  11.170
20310W        W90910   1.663  22.366  14.716
20311W        W90911  18.979  24.605  10.997
20312W        W90912   9.349  42.775   2.428
20313W        W90913  37.330  11.859   3.619
20314W        W90914  25.020  23.559  10.507
20315W        W90915  29.544  27.853   5.061
20316W        W90916   6.808  28.218  11.127
20317W        W90917  32.593  14.129  12.910
20318W        W90918  21.129  36.323   3.191
20319W        W90919  30.151  16.311   1.081
20320W        W90920  26.480  13.773  14.867
20321W        W90921  22.207   3.519  13.880
20322W        W90922  13.349   4.531   3.202
20323W        W90923  32.878  15.752  12.695
20324W        W90924  33.615  18.739   3.768
20325W        W90925  22.911  40.442   1.370
20326W        W90926  29.949  28.003   0.367
20327W        W90927  44.077   2.181  12.071
20328W        W90928  14.478  32.857  13.102
20329W        W90929  43.319  33.584   3.741
20330W        W90930  17.547  21.125  14.501
20331W        W90931  17.852  35.430   1.234
20332W        W90932   0.827  23.522  11.381
20333W        W90933  11.454  29.966   1.230
20334W        W90934  41.406   4.331  13.955
20335W        W90935  15.775  16.139   1.458
20336W        W90936  39.774  41.045  14.923
20337W        W90937  19.603   7.580   4.111
20338W        W90938  11.178  11.769   0.412
20339W        W90939  37.356   4.769  14.725
20340W        W90940  30.687   1.276   2.792
20341W        W90941  24.397  35.523   1.712
20342W        W90942  16.616   8.361   1.181
20343W        W90943  40.314  43.893  14.855
20344W        W90944  42.636  29.965  13.410
20345W        W90945   7.643  15.606  11.706
20346W        W90946  17.647  21.471   2.728
20347W        W90947  28.232  21.280  11.608
20348W        W90948  38.025  11.824   0.903
20349W        W90949   0.510   1.823   0.428
20350W        W90950  24.766  26.097   1.755
20351W        W90951  15.847  12.868  14.594
20352W        W90952  38.747   4.738   2.242
20353W        W90953  29.953  25.687   4.674
20354W        W90954   9.388  16.514  13.422
20355W        W90955  42.404   1.285  12.606
20356W        W90956  19.897   3.598   2.311
20357W        W90957   0.972  22.287   3.688
20358W        W90958  23.725  20.508   2.231
20359W        W90959  24.005  14.743   3.140
20360W        W90960  12.824  44.096  12.099
20361W        W90961  24.985  25.516  14.909
20362W        W90962  34.061  25.581  12.036
20363W        W90963  42.450  24.666   0.294
20364W        W90964  22.146  39.146  13.136
20365W        W90965  28.499  34.330   4.575
20366W        W90966  21.615  22.774   2.943
20367W        W90967  30.657  19.621  12.966
20368W        W90968  18.073  44.854  11.139
20369W        W90969   6.762  28.370   4.944
20370W        W90970  26.223   8.877   1.259
20371W        W90971  42.398  14.330  11.285
20372W        W90972  28.917  23.839  12.016
20373W        W90973  43.192  29.042   3.834
20374W        W90974  44.702  13.803   3.757
20375W        W90975   2.312  10.765  12.519
20376W        W90976  35.508  17.076   2.713
20377W        W90977  30.208  37.536  14.018
20378W        W90978   6.326  38.565  13.604
20379W        W90979  25.913  15.632  13.353
20380W        W90980   9.332  44.830  10.599
20381W        W90981   0.385  16.525   2.141
20382W        W90982   0.750  19.623   0.547
20383W        W90983  29.592   6.771  11.415
20384W        W90984  25.610  11.671  12.575
20385W        W90985  31.401  28.448   4.143
20386W        W90986  20.737  43.872  11.786
20387W        W90987   4.664  38.277  11.759
20388W        W90988   8.793  22.443   3.329
20389W        W90989  35.064  32.059  14.867
20390W        W90990  18.296  41.021   0.979
20391W        W90991  21.939  14.092  14.059
20392W        W90992  38.391  34.046   0.471
20393W        W90993  11.324  12.281  12.515
20394W        W90994  35.660   0.673   0.594
20395W        W90995  36.405  43.967   4.443
20396W        W90996  17.327   5.317   1.883
20397W        W90997  30.605   2.385  13.330
20398W        W90998  21.099   3.009  13.891
20399W        W90999   5.248  41.963  12.531
20400W        W91000  42.808  10.775   1.431
20401W        W91001  34.715  33.473   3.102
20402W        W91002  34.722   8.491  14.437
20403W        W91003  44.968  38.476   1.212
20404W        W91004  11.218  39.071  10.796
20405W        W91005  41.270  10.270   0.153
20406W        W91006   8.025  25.949  12.250
20407W        W91007   5.538   3.804   3.309
20408W        W91008  44.670  16.116  11.842
20409W        W91009   3.787  34.443  11.546
20410W        W91010  26.245  19.796   0.465
20411W        W91011  33.209  37.661  14.444
20412W        W91012  36.882  24.069   3.285
20413W        W91013  10.019  30.921  12.171
20414W        W91014   6.308  39.869  14.477
20415W        W91015  27.465  17.817  10.854
20416W        W91016  24.006   8.504   0.280
20417W        W91017  17.326   0.297   4.583
20418W        W91018  15.263   3.767  13.306
20419W        W91019  27.627  23.532   4.229
20420W        W91020  44.883  27.897  14.036
20421W        W91021   0.514  17.338   9.945
20422W        W91022  13.891   8.140  13.457
20423W        W91023  30.149   0.910   0.862
20424W        W91024   2.432   8.585  10.846
20425W        W91025  11.801  13.845  12.042
20426W        W91026  19.726  44.749  12.480
20427W        W91027  42.036  28.231  13.874
20428W        W91028  18.348  25.916   4.151
20429W        W91029  26.435  13.995   2.944
20430W        W91030  38.618  14.747  11.199
20431W        W91031  39.271  12.240   2.179
20432W        W91032  10.425  18.699   2.719
20433W        W91033   4.600   0.756  14.710
20434W        W91034   3.245  37.876   1.695
20435W        W91035  21.778  26.383  11.385
20436W        W91036  36.000  37.509  13.963
20437W        W91037  29.143  22.171  12.683
20438W        W91038  12.127  30.382  14.808
20439W        W91039  43.175  13.438  12.013
20440W        W91040   8.118  23.342   4.206
20441W        W91041  21.563  31.628  11.908
20442W        W91042  19.546  15.180  14.922
20443W        W91043  18.718  37.795  12.554
20444W        W91044  26.267   5.973   3.171
20445W        W91045  36.673  42.286   3.289
20446W        W91046  30.420  21.118  13.365
20447W        W91047  30.075   3.900   1.958
20448W        W91048  21.935  34.388  11.137
20449W        W91049   9.753  43.828   0.422
20450W        W91050  24.905  17.755  10.380
20451W        W91051   1.378  33.906  12.684
20452W        W91052  43.204  28.442  14.401
20453W        W91053  26.027  23.151   0.533
20454W        W91054  41.462  38.224   1.858
20455W        W91055  17.521  43.001  11.223
20456W        W91056  25.386  12.240  13.518
20457W        W91057   3.237  36.297  11.642
20458W        W91058  29.151  23.505  11.677
20459W        W91059  20.133  14.813   1.664
20460W        W91060  40.373  14.339   0.395
20461W        W91061  26.727  24.865   0.907
20462W        W91062  34.103  10.697  14.849
20463W        W91063  20.016  22.670  12.996
20464W        W91064  30.999   1.919  13.864
20465W        W91065  44.303  40.510  13.843
20466W        W91066  20.714   1.717   3.104
20467W        W91067  42.440   0.742   3.428
20468W        W91068  30.639  21.306  10.963
20469W        W91069  30.634  17.779   1.769
20470W        W91070  41.598  40.529   1.530
20471W        W91071  32.769  30.500  11.716
20472W        W91072  24.334   4.952  11.168
20473W        W91073  27.594  43.061  13.993
20474W        W91074  29.721  19.738  13.217
20475W        W91075   1.506  28.779   3.780
20476W        W91076   0.216   9.119  12.023
20477W        W91077   9.316  27.029   0.942
20478W        W91078  34.589  35.574   1.502
20479W        W91079  15.166  25.938  13.011
20480W        W91080  25.658  10.711  13.697
20481W        W91081  39.307  24.481   1.647
20482W        W91082   8.687  13.374  13.139
20483W        W91083   5.289  19.719  14.475
20484W        W91084   1.780  26.450   1.337
20485W        W91085  25.436  29.636  14.857
20486W        W91086  27.536  23.715   4.694
20487W        W91087  18.152  20.274   2.944
20488W        W91088  18.043  17.571  11.237
20489W        W91089  38.833  10.344  11.717
20490W        W91090  11.382   9.311   0.259
20491W        W91091  22.145  41.430   4.841
20492W        W91092  31.515  36.494   2.856
20493W        W91093  27.648  35.106  13.974
20494W        W91094  34.480  12.996  11.146
20495W        W91095  21.165  39.969   3.831
20496W        W91096  12.749  28.347   2.824
20497W        W91097  38.901  42.834  14.285
20498W        W91098   6.949  19.015  12.370
20499W        W91099  11.754  19.928   4.564
20500W        W91100  43.175  20.722   0.702
20501W        W91101   7.765  15.838   2.670
20502W        W91102  20.220   4.242   1.146
20503W        W91103  18.116  42.245  13.645
20504W        W91104  40.505  15.998  12.185
20505W        W91105  11.270  22.644   2.365
20506W        W91106  15.546  39.445  11.620
20507W        W91107  44.070  16.767   2.547
20508W        W91108  25.543  37.356   2.262
20509W        W91109  15.747  41.186   3.877
20510W        W91110  19.709  11.197   0.759
20511W        W91111  21.245   5.372   1.846
20512W        W91112   5.993  36.418  14.448
20513W        W91113  11.126  23.905  13.324
20514W        W91114  21.548  15.170  14.524
20515W        W91115  31.071  22.089   4.527
20516W        W91116  19.492  44.340   2.686
20517W        W91117  29.505  44.427  13.104
20518W        W91118   1.682  12.875   3.439
20519W        W91119   6.227  31.108   2.876
20520W        W91120  25.260   9.329  12.575
20521W        W91121  14.540   9.298   1.154
20522W        W91122  28.584  39.164  14.437
20523W        W91123   2.227  24.773  13.855
20524W        W91124   2.987   2.565   2.738
20525W        W91125  42.461  42.301   2.684
20526W        W91126  33.072  33.616  11.382
20527W        W91127  44.950   2.078  11.851
20528W        W91128   0.966   7.864  11.418
20529W        W91129  16.646  37.994  11.272
20530W        W91130  21.740  34.859  11.578
20531W        W91131  37.323   8.924  10.690
20532W        W91132  25.697  29.125  11.111
20533W        W91133  37.797  37.339  13.848
20534W        W91134  20.255  12.764   1.698
20535W        W91135  41.770  40.943  11.025
20536W        W91136   1.917  31.808  14.924
20537W        W91137  21.565  12.744   4.670
20538W        W91138  31.460  36.488   0.850
20539W        W91139  27.036  36.838   0.008
20540W        W91140  40.010  12.440   3.702
20541W        W91141  39.425   3.787   4.152
20542W        W91142   0.759  11.692  12.879
20543W        W91143  33.491   4.233  10.718
20544W        W91144  31.583  22.724   0.404
20545W        W91145   3.300  25.749   4.106
20546W        W91146   9.296  38.917  10.231
20547W        W91147  10.553  18.406  11.194
20548W        W91148  39.317   5.787   3.231
20549W        W91149  22.157  30.661   3.611
20550W        W91150  43.496  18.859  12.186
20551W        W91151   1.005  16.371  13.583
20552W        W91152   9.562   6.283  14.841
20553W        W91153  14.733   2.733  13.166
20554W        W91154  13.831  24.642  14.977
20555W        W91155   9.591  11.637  12.063
20556W        W91156  18.297  27.613  10.376
20557W        W91157   3.176  41.983   4.598
20558W        W91158  11.609   4.798   2.651
20559W        W91159  28.344  25.553  11.871
20560W        W91160  31.643  17.032  11.303
20561W        W91161  27.558  14.346   0.778
20562W        W91162  17.502  23.478   5.030
20563W        W91163  42.055   3.430   4.470
20564W        W91164  16.737  12.657  12.132
20565W        W91165  19.825  36.950   4.114
20566W        W91166  40.885  38.615   2.258
20567W        W91167  44.903   4.804  14.106
20568W        W91168  35.842  34.588  14.599
20569W        W91169   3.434  40.775  13.448
20570W        W91170  16.696  12.635   0.655
20571W        W91171  18.033  31.099  11.899
20572W        W91172  43.186  25.940  11.227
20573W        W91173  21.591  22.359  11.670
20574W        W91174  32.460  27.889   3.273
20575W        W91175  11.914  33.928  12.685
20576W        W91176  24.583  39.480  12.469
20577W        W91177  14.747  42.409  13.943
20578W        W91178  14.557  16.028  12.911
20579W        W91179  41.453   3.044   2.695
20580W        W91180  20.854   5.783  11.076
20581W        W91181   6.288  23.548   3.360
20582W        W91182   0.728  37.433   3.129
20583W        W91183   4.261  16.165   2.215
20584W        W91184   1.272  10.675  12.266
20585W        W91185  43.940  20.069  13.718
20586W        W91186   8.611  21.808   2.220
20587W        W91187  21.660  30.028   4.330
20588W        W91188  41.044   9.369   2.173
20589W        W91189  23.490  16.048   3.088
20590W        W91190  17.002  32.038  11.584
20591W        W91191  15.811   0.404  13.113
20592W        W91192   3.457  11.710   5.022
20593W        W91193  27.148  29.258  14.438
20594W        W91194  42.587  44.517  12.568
20595W        W91195  28.036  30.558  13.342
20596W        W91196  29.006  24.051   1.363
20597W        W91197  12.111  17.218   1.861
20598W        W91198  36.097  29.478  11.581
20599W        W91199  19.969   8.635  11.019
20600W        W91200  36.712  15.635  11.920
20601W        W91201   0.953  24.072   4.668
20602W        W91202  44.900  24.727   2.431
20603W        W91203  40.812  41.264   1.188
20604W        W91204   5.919  23.151  13.901
20605W        W91205   4.414   8.931  10.338
20606W        W91206  39.032  26.467   4.561
20607W        W91207  13.167  14.708   0.709
20608W        W91208  23.003  23.449  10.711
20609W        W91209  14.547   8.927   0.745
20610W        W91210   3.413   3.744   3.737
20611W        W91211  29.932   6.440   2.277
20612W        W91212  26.779  26.791   2.834
20613W        W91213  17.765  16.574   0.810
20614W        W91214   0.401  24.574  14.234
20615W        W91215  40.074   7.332  14.343
20616W        W91216  41.690   3.298   1.314
20617W        W91217  38.598  24.264  14.509
20618W        W91218  42.356  21.436  11.586
20619W        W91219  23.554  20.170  13.041
20620W        W91220  31.710  16.683   3.723
20621W        W91221  41.496  25.874   4.424
20622W        W91222   5.780  35.343   4.102
20623W        W91223  26.126  44.793   2.317
20624W        W91224  41.782  44.001  12.451
20625W        W91225  21.755  37.522  11.271
20626W        W91226   7.964  26.476  11.058
20627W        W91227  27.989  38.149   0.098
20628W        W91228  17.147  15.620  13.792
20629W        W91229  17.370  21.688   0.724
20630W        W91230  36.090   9.788   1.941
20631W        W91231   6.000  42.545  12.549
20632W        W91232  24.278  24.177   4.628
20633W        W91233  43.496  16.847   0.089
20634W        W91234  16.761  42.538   0.433
20635W        W91235  35.313  42.024   4.464
20636W        W91236  21.581  26.860  11.496
20637W        W91237  13.802   7.700  12.522
20638W        W91238  38.571  42.703  11.555
20639W        W91239  43.389   6.199  12.010
20640W        W91240  30.455  43.396  13.184
20641W        W91241  28.591  19.396   0.954
20642W        W91242  33.523  39.251  11.690
20643W        W91243   2.464  36.240  11.122
20644W        W91244  14.356  32.006  11.949
20645W        W91245  35.574  10.802   2.768
20646W        W91246  23.457   2.714   2.762
20647W        W91247  38.319  10.879   0.751
20648W        W91248  42.296  21.748  14.262
20649W        W91249   1.959   7.935   3.691
20650W        W91250  37.810   4.179  10.272
20651W        W91251   9.862  10.557  12.575
20652W        W91252  34.009  27.949   4.464
20653W        W91253  18.751  10.907   4.310
20654W        W91254  44.525  27.086   0.796
20655W        W91255  41.358  33.989   3.973
20656W        W91256  19.764   8.720  13.821
20657W        W91257  19.239  21.857  11.142
20658W        W91258   2.838  43.438   2.336
20659W        W91259  38.017   8.653  12.629
20660W        W91260  13.712  42.954   3.115
20661W        W91261  41.359  19.814   2.741
20662W        W91262   7.246   8.305   0.341
20663W        W91263  24.967  11.477   1.265
20664W        W91264  27.113   2.107   3.141
20665W        W91265   7.435  35.055  13.755
20666W        W91266  33.879  26.049  11.993
20667W        W91267  30.927  41.706  12.653
20668W        W91268  11.416  39.532  10.607
20669W        W91269   9.645  37.857   4.956
20670W        W91270  35.068   9.212   2.592
20671W        W91271   2.216  19.516   4.523
20672W        W91272  31.561   0.041  13.998
20673W        W91273  43.182  25.167  13.350
20674W        W91274   4.329  13.509  11.869
20675W        W91275   3.424  23.539  11.168
20676W        W91276  12.946  33.552  14.294
20677W        W91277  11.786  15.658   1.827
20678W        W91278  24.065  25.059  14.558
20679W        W91279  21.410  39.525   3.917
20680W        W91280  10.856  39.068  12.997
20681W        W91281  22.480   8.305  14.128
20682W        W91282  18.545  11.564   2.453
20683W        W91283  34.068   7.245   2.423
20684W        W91284   3.756  18.233  13.907
20685W        W91285  16.547  27.150  13.076
20686W        W91286  40.587  24.230   2.903
20687W        W91287   5.333  17.626  10.803
20688W        W91288  13.338  44.405  11.141
20689W        W91289   3.386   4.600   4.989
20690W        W91290   4.928  23.231   3.184
20691W        W91291  35.460  35.576  14.192
20692W        W91292  22.927  12.506  14.294
20693W        W91293  43.792  17.635   0.423
20694W        W91294  13.409  23.768   1.029
20695W        W91295  44.748  42.059   2.328
20696W        W91296  18.783  42.377   1.818
20697W        W91297  40.492  28.901   3.434
20698W        W91298  34.092  12.573  10.618
20699W        W91299   8.314  41.687  14.476
20700W        W91300  13.779  24.093   0.237
20701W        W91301  32.555  23.175  10.947
20702W        W91302  38.586  25.574  14.399
20703W        W91303  43.866   6.816   4.034
20704W        W91304  42.011   3.713  10.332
20705W        W91305   7.981  42.800   0.676
20706W        W91306  30.171  17.569   1.786
20707W        W91307   4.224  19.070  11.603
20708W        W91308  17.515  11.263  10.746
20709W        W91309  35.578  41.303   3.845
20710W        W91310   5.552  15.233  13.483
20711W        W91311   2.271  31.920   2.900
20712W        W91312  20.529  25.974   0.784
20713W        W91313  29.417  42.352   2.826
20714W        W91314  13.234  11.451   0.366
20715W        W91315   6.132   5.969   2.635
20716W        W91316  38.073  44.761   0.906
20717W        W91317  20.636  16.591   3.237
20718W        W91318  16.462  21.116   3.248
20719W        W91319  15.141  44.155  14.990
20720W        W91320  13.671   1.600  10.753
20721W        W91321  22.532  36.098   2.794
20722W        W91322   7.943  43.971  14.448
20723W        W91323  31.399  31.939   4.721
20724W        W91324  35.352  42.807   4.050
20725W        W91325  10.171  13.055   3.570
20726W        W91326  17.606  15.548  10.503
20727W        W91327  15.348  16.863   1.156
20728W        W91328  35.835  43.973   3.800
20729W        W91329  13.051  33.682   1.541
20730W        W91330  25.731  17.707   0.523
20731W        W91331  28.970  42.400   4.326
20732W        W91332   9.787   4.562   4.985
20733W        W91333  24.183  28.398  13.643
20734W        W91334  24.831  36.523   4.098
20735W        W91335  10.223   3.893   2.429
20736W        W91336   5.929  23.687   0.774
20737W        W91337  16.251  36.859  11.117
20738W        W91338  13.832  27.579   2.798
20739W        W91339   5.035  27.270  12.938
20740W        W91340  26.658  29.417  14.532
20741W        W91341   9.635   0.783   3.239
20742W        W91342  15.242  30.515  12.450
20743W        W91343  13.851  25.221   4.592
20744W        W91344  37.405  34.491  13.064
20745W        W91345  36.860   1.492   1.418
20746W        W91346  31.354  40.595  10.756
20747W        W91347  12.510  33.408  14.540
20748W        W91348  18.213  44.902  14.013
20749W        W91349  16.762  26.083   1.700
20750W        W91350  40.825  18.859  13.358
20751W        W91351  20.039  29.021  14.440
20752W        W91352   5.789  12.259  13.386
20753W        W91353  24.785  23.186  11.641
20754W        W91354  44.368  11.280   0.477
20755W        W91355   4.279  40.487   0.815
20756W        W91356   6.239  41.057   0.889
20757W        W91357  19.928  18.820  12.491
20758W        W91358   7.322  17.653   4.096
20759W        W91359  19.248  13.525   2.802
20760W        W91360  18.891  20.111   1.221
20761W        W91361  27.726   5.795   2.281
20762W        W91362  40.494  17.855  12.124
20763W        W91363   3.833  23.897  10.515
20764W        W91364  28.422  31.914   3.563
20765W        W91365  28.935  41.735   0.616
20766W        W91366   9.206   2.363   4.092
20767W        W91367  12.644   0.389   0.756
20768W        W91368  29.683  12.249  14.178
20769W        W91369  37.497  24.695   1.417
20770W        W91370  36.601  18.921   4.145
20771W        W91371  37.632  44.357   1.039
20772W        W91372  25.968   6.335   3.380
20773W        W91373  12.335  25.094   3.264
20774W        W91374   8.718  42.880  13.430
20775W        W91375   4.231  24.480  12.144
20776W        W91376  15.250   4.180   3.998
20777W        W91377   9.759  19.295   0.295
20778W        W91378  11.221   1.928  13.795
20779W        W91379  33.144  18.571   2.793
20780W        W91380  18.017  19.037   1.982
20781W        W91381  15.931  11.123   3.272
20782W        W91382  40.254  36.443  10.737
20783W        W91383  37.968  13.551   0.882
20784W        W91384  24.258   3.649  13.029
20785W        W91385  29.457   0.822  11.390
20786W        W91386  16.322  42.515  12.170
20787W        W91387  41.006  37.019  11.598
20788W        W91388   1.909  26.506   4.379
20789W        W91389  43.565  17.124  12.967
20790W        W91390  28.898   1.730   1.503
20791W        W91391  20.912  13.962  12.145
20792W        W91392  20.579   2.537   1.059
20793W        W91393   2.499  23.159  10.913
20794W        W91394   9.437  17.277  11.121
20795W        W91395  16.731  41.010   4.652
20796W        W91396  25.754  25.186  12.524
20797W        W91397  36.846   7.401   2.640
20798W        W91398  38.919  43.281  11.271
20799W        W91399  37.854  12.659  12.021
20800W        W91400  41.640  19.578  12.098
20801W        W91401   4.111  35.820   2.693
20802W        W91402   9.246  12.864  14.861
20803W        W91403  39.994  37.474  12.472
20804W        W91404  29.420  30.243   2.718
20805W        W91405  25.022  23.341  12.526
20806W        W91406   1.861  42.606  12.453
20807W        W91407   3.822  26.421   3.746
20808W        W91408  24.601   3.288   4.640
20809W        W91409  36.750  12.965   3.239
20810W        W91410  18.736  23.010  10.524
20811W        W91411   7.584   2.463   4.117
20812W        W91412  14.605  10.588   0.501
20813W        W91413  30.225  32.059  13.626
20814W        W91414  15.236  40.943  14.992
20815W        W91415  15.757  25.876   3.181
20816W        W91416  35.678  41.195  11.113
20817W        W91417   7.318  44.222  12.936
20818W        W91418  22.236  17.230  13.817
20819W        W91419  17.126  42.401  12.808
20820W        W91420  11.972   9.491   3.512
20821W        W91421  29.704  17.825  11.250
20822W        W91422  17.326  39.369  14.878
20823W        W91423  22.765  28.172  11.149
20824W        W91424  25.914  15.061   2.334
20825W        W91425  24.633  27.015   1.218
20826W        W91426   6.297  18.265  11.522
20827W        W91427  34.456  41.026   3.243
20828W        W91428   6.324  14.174   0.317
20829W        W91429  41.993  24.940  14.316
20830W        W91430  24.654  22.358   0.219
20831W        W91431  30.810  30.178   4.670
20832W        W91432  39.530  11.892   1.812
20833W        W91433   5.204   6.658   4.641
20834W        W91434  37.523  41.121  14.319
20835W        W91435  32.450  30.456   4.101
20836W        W91436  38.988  27.729  14.919
20837W        W91437   6.501  41.485  10.122
20838W        W91438   9.351  35.080   4.653
20839W        W91439  29.384  26.505   3.816
20840W        W91440  18.061  34.816   0.525
20841W        W91441  26.079  38.308  14.721
20842W        W91442  20.300  13.436  14.952
20843W        W91443   8.248  32.439  14.962
20844W        W91444   4.009  38.067   4.133
20845W        W91445  16.191  12.866   2.200
20846W        W91446  11.272  18.513   4.559
20847W        W91447  39.647  18.418  14.914
20848W        W91448  38.490   5.146  14.296
20849W        W91449  25.750  43.902  11.137
20850W        W91450  20.874  15.380  11.546
20851W        W91451  31.582  41.297  12.179
20852W        W91452   5.286  27.510   4.467
20853W        W91453  19.867  10.200   4.702
20854W        W91454  23.142  16.287   2.474
20855W        W91455  28.596   4.433  14.497
20856W        W91456  13.278  34.060   1.848
20857W        W91457  37.394   9.103   2.849
20858W        W91458  35.573  24.865   4.893
20859W        W91459  42.586  44.536  10.109
20860W        W91460  26.928  26.084  11.193
20861W        W91461  38.274  25.911   4.637
20862W        W91462  43.484  21.595   3.665
20863W        W91463  28.765   4.654  13.648
20864W        W91464  32.610  14.813   4.912
20865W        W91465   2.045  40.007  14.431
20866W        W91466  16.017  38.735  11.149
20867W        W91467  35.562  16.723   0.436
20868W        W91468  38.898  30.139  12.628
20869W        W91469   5.609   4.163   1.615
20870W        W91470  10.205  35.085   0.799
20871W        W91471   0.489   6.286  12.757
20872W        W91472   2.664  37.960  12.559
20873W        W91473   6.810  22.208   4.453
20874W        W91474  33.878  39.292  13.877
20875W        W91475  18.120  42.682  13.351
20876W        W91476   5.324  42.468  14.273
20877W        W91477  14.270   5.581  14.800
20878W        W91478  22.823  22.337  13.554
20879W        W91479  34.347  21.262   0.087
20880W        W91480  31.570  15.189   0.782
20881W        W91481  20.354  23.527   0.404
20882W        W91482  36.814  14.309  11.313
20883W        W91483  40.412   7.736   2.726
20884W        W91484  29.952  16.213   1.547
20885W        W91485  30.635  27.392  11.422
20886W        W91486  10.562  40.765   3.439
20887W        W91487  32.101  20.798   1.671
20888W        W91488  12.460   2.441  12.588
20889W        W91489  27.858   2.994  12.071
20890W        W91490  13.571  27.334   2.428
20891W        W91491  20.225  13.932   2.238
20892W        W91492  18.574  27.347  12.991
20893W        W91493  11.950  18.973  10.880
20894W        W91494  21.222  19.041   2.105
20895W        W91495  10.898  21.322  14.710
20896W        W91496  12.300  27.939   1.870
20897W        W91497  19.230  20.497  14.836
20898W        W91498   0.840   5.785   0.994
20899W        W91499  30.803  32.611   1.779
20900W        W91500  18.859   4.935  10.438
20901W        W91501  43.923  43.500   1.402
20902W        W91502   2.428  24.043   1.413
20903W        W91503  38.778  32.441  12.836
20904W        W91504  42.134  13.508  14.308
20905W        W91505  14.560  12.708   0.924
20906W        W91506   4.263  33.563   3.342
20907W        W91507  16.199   8.341  13.060
20908W        W91508   9.443  10.406  11.513
20909W        W91509   4.454   8.781   2.912
20910W        W91510  22.115  40.249  10.462
20911W        W91511  11.251  17.710   1.378
20912W        W91512  34.049  40.299   0.640
20913W        W91513  10.652  32.151   1.655
20914W        W91514  31.579  11.218   0.140
20915W        W91515  28.993  41.497  11.624
20916W        W91516   8.339   7.991  12.303
20917W        W91517  21.877  24.297   4.290
20918W        W91518  30.509   8.303  14.779
20919W        W91519  22.149  16.564  12.127
20920W        W91520  28.752   9.066   4.453
20921W        W91521  32.597  32.638   2.235
20922W        W91522   2.190   3.181  14.921
20923W        W91523  16.058   4.989   0.310
20924W        W91524  41.714  28.431   2.235
20925W        W91525  44.863  44.063  13.015
20926W        W91526   3.468  31.479  13.095
20927W        W91527   3.215   1.497   4.076
20928W        W91528   3.872  36.593   0.711
20929W        W91529   7.217  38.289   3.901
20930W        W91530  30.984   7.878  13.509
20931W        W91531  18.004   2.756  11.085
20932W        W91532  36.828   4.734  13.989
20933W        W91533  21.522  23.748   1.963
20934W        W91534  17.724  34.014   0.240
20935W        W91535  35.091  23.528  11.498
20936W        W91536   9.189  25.195   0.986
20937W        W91537   0.723  37.563   1.815
20938W        W91538  41.989  43.900   3.955
20939W        W91539   5.966   4.755   2.200
20940W        W91540  28.459  23.126  10.337
20941W        W91541  13.192  21.102  13.339
20942W        W91542  16.202  28.987   2.209
20943W        W91543  15.377  41.305   3.322
20944W        W91544  25.718  38.911   1.185
20945W        W91545  17.173   3.616   4.738
20946W        W91546  41.875  30.665   0.255
20947W        W91547  41.373   8.319   1.340
20948W        W91548  38.371  17.037   3.242
20949W        W91549  26.307  43.875   0.902
20950W        W91550  20.739  18.664   4.787
20951W        W91551  12.442  35.968   0.991
20952W        W91552  40.521  10.406  10.537
20953W        W91553  18.435  27.662   2.635
20954W        W91554   7.593   7.829  13.987
20955W        W91555  40.309  15.346  12.951
20956W        W91556  10.341  36.796   0.312
20957W        W91557   7.769   9.329  14.973
20958W        W91558  11.643  34.579   2.911
20959W        W91559  25.182  19.220  13.127
20960W        W91560  34.092  26.235  14.212
20961W        W91561  26.695  14.099  13.975
20962W        W91562  34.192   3.480  14.453
20963W        W91563  41.935  21.294   0.953
20964W        W91564  24.650  40.120   4.732
20965W        W91565   5.735   2.912  13.830
20966W        W91566  20.779  40.232   4.769
20967W        W91567  24.687  18.592  13.636
20968W        W91568  35.947   1.730   4.573
20969W        W91569  18.823   3.937  11.644
20970W        W91570  27.068  20.648  12.824
20971W        W91571  28.619  43.781   3.758
20972W        W91572  18.274   8.859  12.206
20973W        W91573  23.095  34.522   0.892
20974W        W91574  30.460  25.909   4.512
20975W        W91575  26.990   0.536   2.278
20976W        W91576   2.421  16.706   2.285
20977W        W91577  14.784  18.890  10.283
20978W        W91578  39.373   4.728  13.863
20979W        W91579   4.880  18.515   4.590
20980W        W91580  18.435   1.267  14.498
20981W        W91581  21.195  28.176   3.256
20982W        W91582  15.956   1.926  14.733
20983W        W91583  37.934  27.015   2.958
20984W        W91584  21.191  17.258  14.862
20985W        W91585  14.796  31.356   1.318
20986W        W91586  39.585  20.270   1.072
20987W        W91587   2.771  27.214   1.988
20988W        W91588  25.288   6.808   1.041
20989W        W91589  22.286  29.806  12.424
20990W        W91590  43.985   7.465  13.903
20991W        W91591  28.171  27.859  14.275
20992W        W91592  18.796   9.127  12.274
20993W        W91593  41.354  20.444  11.515
20994W        W91594  20.000  27.078   2.366
20995W        W91595  25.904  26.666   1.283
20996W        W91596   1.465   1.964   4.151
20997W        W91597  27.974  36.276  13.073
20998W        W91598   3.850   5.207   2.999
20999W        W91599  25.766  15.584  12.121
21000W        W91600  32.551  29.955   1.853
21001W        W91601   8.198  12.730   3.170
21002W        W91602  31.086   8.169  12.083
21003W        W91603  32.849  32.470  11.648
21004W        W91604  11.763  22.776   2.408
21005W        W91605  19.033  44.946   0.766
21006W        W91606  13.351  29.632  14.428
21007W        W91607  23.550  12.321   0.925
21008W        W91608  19.028  18.161   3.700
21009W        W91609  14.632  35.835   1.839
21010W        W91610   5.183  41.352  11.380
21011W        W91611   3.413   1.028   3.920
21012W        W91612   3.510  34.895   2.808
21013W        W91613   5.765  36.072   0.416
21014W        W91614   7.416   3.991   4.158
21015W        W91615  24.015  13.126  13.051
21016W        W91616   5.323  15.195   4.325
21017W        W91617   3.598  31.457   2.298
21018W        W91618   7.674  36.527   0.051
21019W        W91619  12.917  12.750  13.985
21020W        W91620   3.675  44.571   2.095
21021W        W91621   5.045  20.232   4.916
21022W        W91622   4.720   3.365  12.349
21023W        W91623  27.185  31.107  13.849
21024W        W91624  28.924  37.123  14.501
21025W        W91625  10.837  40.756  12.489
21026W        W91626  41.400   6.117   0.712
21027W        W91627  25.573  34.948   0.328
21028W        W91628   7.798  11.706   1.181
21029W        W91629   7.889  20.594   1.152
21030W        W91630  19.206  23.252   1.292
21031W        W91631  36.738  42.789   3.161
21032W        W91632  15.023  13.681   4.002
21033W        W91633   6.198  10.691  10.221
21034W        W91634  20.120  43.218   2.718
21035W        W91635  31.309   7.981   3.111
21036W        W91636   6.831   5.979   4.492
21037W        W91637  25.569  29.504  12.178
21038W        W91638  23.588  13.012  12.019
21039W        W91639  17.611   8.677   2.614
21040W        W91640  16.286  19.792  10.722
21041W        W91641  29.557  33.848   2.950
21042W        W91642   2.956  16.683   2.274
21043W        W91643  16.799  21.718   1.482
21044W        W91644  12.804  37.988  13.999
21045W        W91645  10.202  41.021   1.563
21046W        W91646  32.995  36.825  12.598
21047W        W91647  24.621  37.803  13.102
21048W        W91648  41.288  26.664   1.464
21049W        W91649  28.400  27.184   3.709
21050W        W91650  32.831  16.342   1.816
21051W        W91651   2.023  13.666  12.470
21052W        W91652   0.825  32.048  12.973
21053W        W91653  42.023  12.842  13.515
21054W        W91654  43.945  14.823  12.957
21055W        W91655  34.479  17.654   1.870
21056W        W91656  30.461  25.565  12.252
21057W        W91657  26.597   5.748   0.340
21058W        W91658   9.723  22.170   4.031
21059W        W91659  30.582  26.627   0.871
21060W        W91660  34.178  18.041   2.631
21061W        W91661  40.765  32.903   0.462
21062W        W91662  24.676  14.277  13.951
21063W        W91663  30.146  26.748  12.941
21064W        W91664  27.701  24.665  11.695
21065W        W91665  32.488   0.826  13.518
21066W        W91666   4.791   9.393   4.398
21067W        W91667  39.039   8.091  10.293
21068W        W91668   7.292  34.283  11.307
21069W        W91669  35.326  20.303   1.387
21070W        W91670  18.492  18.934   2.676
21071W        W91671  28.393   0.629   9.870
21072W        W91672  13.321  23.514   4.184
21073W        W91673   4.487  19.803  12.537
21074W        W91674  22.128  16.672  11.618
21075W        W91675  40.455  14.769   1.167
21076W        W91676  40.006  37.903  13.493
21077W        W91677  25.636  36.912   2.894
21078W        W91678  30.557  19.561  14.492
21079W        W91679  27.622  35.824   0.764
21080W        W91680  14.800  25.172   2.235
21081W        W91681  42.461  12.469   0.524
21082W        W91682  18.229  23.525  12.067
21083W        W91683   8.197  40.162   4.607
21084W        W91684   5.280  40.603  11.900
21085W        W91685  22.743  44.326  11.167
21086W        W91686  22.995  31.637   0.245
21087W        W91687  41.947  29.977  14.173
21088W        W91688  39.388  29.078  14.189
21089W        W91689   4.879  34.120   3.620
21090W        W91690  36.764  13.553   0.041
21091W        W91691  24.707  15.293   1.799
21092W        W91692   9.710  11.638   0.342
21093W        W91693  32.513  16.535   3.417
21094W        W91694   8.456  26.018  14.878
21095W        W91695  33.535  29.488  13.558
21096W        W91696  38.936   3.408  12.075
21097W        W91697  22.675  44.013   4.119
21098W        W91698   0.015   1.377   1.259
21099W        W91699  15.208  43.394   1.664
21100W        W91700  36.907   2.055   1.331
21101W        W91701  13.764  44.296   1.504
21102W        W91702  29.184  29.534   1.836
21103W        W91703  31.431  23.008   0.804
21104W        W91704  29.681   9.138   0.808
21105W        W91705  31.798   0.430   1.706
21106W        W91706   9.420  32.003   1.219
21107W        W91707  19.175  24.120   1.697
21108W        W91708   3.829  38.485   4.625
21109W        W91709   0.167  15.545  10.432
21110W        W91710  39.758  27.229  13.506
21111W        W91711  36.300  30.212  11.634
21112W        W91712   0.256  18.722   2.925
21113W        W91713  38.418  19.559   4.992
21114W        W91714  31.410  14.793   4.078
21115W        W91715  20.680   6.166   2.344
21116W        W91716   4.170  44.168   2.708
21117W        W91717  21.523  23.476  11.030
21118W        W91718   2.807  20.248  10.570
21119W        W91719  24.948  21.973   4.102
21120W        W91720  14.786   5.281  13.884
21121W        W91721  41.028  21.215   0.212
21122W        W91722  21.805  40.944  12.042
21123W        W91723   2.756  23.395   3.131
21124W        W91724  38.615  41.281   2.415
21125W        W91725  18.521  16.366   2.086
21126W        W91726  19.321  34.132  12.952
21127W        W91727  40.590  32.566   1.382
21128W        W91728  32.916   0.223   4.591
21129W        W91729  24.382   3.206  10.969
21130W        W91730  36.561  42.341  13.599
21131W        W91731  18.065  34.613   3.268
21132W        W91732  25.065   0.487  14.087
21133W        W91733  30.021  31.374  10.679
21134W        W91734  18.187  43.015  14.311
21135W        W91735  17.272   5.738  11.517
21136W        W91736   5.117   9.389   1.963
21137W        W91737  35.060  23.317  10.977
21138W        W91738  27.752   5.222  13.378
21139W        W91739  38.052  16.725   4.671
21140W        W91740  39.430  32.982  12.520
21141W        W91741  43.751  37.142   0.319
21142W        W91742  23.584  33.389   0.369
21143W        W91743  35.936  44.345   4.561
21144W        W91744  37.750   8.421  14.359
21145W        W91745  25.190  25.272  11.983
21146W        W91746   7.150   1.733  12.910
21147W        W91747  37.926  41.927   4.183
21148W        W91748   2.457  16.072   4.541
21149W        W91749  24.103  36.449   3.713
21150W        W91750   2.967   3.934  13.537
21151W        W91751  19.682  43.733   3.524
21152W        W91752  22.478  20.736   2.731
21153W        W91753  22.071  39.359  12.499
21154W        W91754  28.770  18.334  13.843
21155W        W91755  34.892   3.178   4.626
21156W        W91756  35.371   4.753   4.158
21157W        W91757  16.531   3.213  14.279
21158W        W91758  32.594  31.067  12.456
21159W        W91759   0.903  43.825  14.466
21160W        W91760   4.949  44.085  11.359
21161W        W91761  28.893   5.223  12.466
21162W        W91762  42.921  26.315  11.510
21163W        W91763   0.282  41.050  13.448
21164W        W91764  21.053  35.783  14.668
21165W        W91765   0.790  35.018   4.428
21166W        W91766  13.496  30.419   4.261
21167W        W91767  15.160   2.348  12.121
21168W        W91768   3.575  14.384   3.836
21169W        W91769   8.156  31.077  14.271
21170W        W91770  33.349  21.083   3.328
21171W        W91771  17.674  29.965  13.688
21172W        W91772  11.106  29.624  12.900
21173W        W91773   9.775  36.069   3.765
21174W        W91774  28.712  32.751  14.825
21175W        W91775  24.644  13.050  13.832
21176W        W91776   0.947   3.404   1.148
21177W        W91777  31.005   9.604  10.783
21178W        W91778   7.708   3.281   3.680
21179W        W91779  29.782  14.645   3.984
21180W        W91780   7.339   0.668   1.841
21181W        W91781   0.944  20.586   1.796
21182W        W91782  25.213  20.191  14.272
21183W        W91783   3.224  44.874   3.427
21184W        W91784  26.690  26.877   4.645
21185W        W91785   9.783   2.804  14.160
21186W        W91786  36.834  18.657   1.249
21187W        W91787   2.726   2.934  13.819
21188W        W91788  26.265  38.788   4.067
21189W        W91789  33.980  37.372  12.330
21190W        W91790  39.337  26.301   2.736
21191W        W91791  31.362  22.944  14.969
21192W        W91792  17.677  40.342   2.790
21193W        W91793  30.217   3.302  10.436
21194W        W91794  44.939  23.948  11.028
21195W        W91795  11.338  37.928  14.467
21196W        W91796   5.588   4.688  11.207
21197W        W91797  36.506  38.247   4.142
21198W        W91798  37.951  40.764  14.796
21199W        W91799  24.295  10.861   3.533
21200W        W91800  18.709  16.491   1.398
21201W        W91801  19.106   2.701   4.829
21202W        W91802  32.475  34.775  10.701
21203W        W91803  18.336  25.474   2.353
21204W        W91804   2.931   5.218   2.635
21205W        W91805   1.675  20.587  13.286
21206W        W91806  17.007  25.509   5.000
21207W        W91807  27.562   1.950  14.018
21208W        W91808  37.881  20.207  12.590
21209W        W91809  44.727   9.789   1.747
21210W        W91810   5.964   6.535  12.618
21211W        W91811  15.241   8.456   0.310
21212W        W91812  11.013   2.488  14.372
21213W        W91813  25.087  21.112  11.673
21214W        W91814  40.220  26.226   2.425
21215W        W91815   9.927  29.576  10.799
21216W        W91816   5.951   8.199  11.372
21217W        W91817   3.412  34.309  12.301
21218W        W91818   4.407  37.811  13.844
21219W        W91819  28.962  17.343   3.782
21220W        W91820  39.920   1.969  13.077
21221W        W91821   8.775  29.372  11.865
21222W        W91822  30.985  35.988   4.481
21223W        W91823  44.903  24.558   1.849
21224W        W91824  19.513  34.109  14.089
21225W        W91825  44.586  36.290   4.406
21226W        W91826  41.441  44.625   0.595
21227W        W91827   6.862  37.058  10.826
21228W        W91828  26.194  26.419   1.852
21229W        W91829  18.167   1.844   0.969
21230W        W91830   0.800  33.194  13.907
21231W        W91831  30.638  22.968  13.134
21232W        W91832  13.253  15.085   3.632
21233W        W91833   5.987  25.437   2.177
21234W        W91834  44.000  36.699  10.755
21235W        W91835  23.208  15.786  10.506
21236W        W91836  40.712   7.353  11.202
21237W        W91837  24.204   2.730  14.835
21238W        W91838  25.054  21.743  14.287
21239W        W91839  19.438  35.024   0.331
21240W        W91840   8.207  20.277  12.370
21241W        W91841  27.917  17.310  13.828
21242W        W91842   6.055  21.038  14.695
21243W        W91843  34.158  18.730   3.133
21244W        W91844  20.869   7.184   4.565
21245W        W91845  30.722   6.801  13.408
21246W        W91846   6.680  18.594  12.511
21247W        W91847  24.544   0.785  13.925
21248W        W91848  24.042  24.252  10.460
21249W        W91849  22.612   7.186   1.726
21250W        W91850  20.894  14.097  11.596
21251W        W91851   7.376  26.219  14.222
21252W        W91852  20.497   3.837   0.324
21253W        W91853   5.396  37.430  11.293
21254W        W91854  42.695   9.410  12.883
21255W        W91855  18.728  16.323  13.485
21256W        W91856   2.038  20.622  14.781
21257W        W91857  43.230  18.054  12.700
21258W        W91858   1.517  42.346   1.396
21259W        W91859  27.621  36.131   4.139
21260W        W91860  36.061  41.972  12.973
21261W        W91861   0.420  32.675   4.550
21262W        W91862  17.145   4.432   3.231
21263W        W91863  32.228   5.016   0.046
21264W        W91864  27.481  21.567   4.693
21265W        W91865  23.170   1.266   3.236
21266W        W91866  10.233  32.561   1.888
21267W        W91867  44.415  26.693   2.547
21268W        W91868  32.475  19.680  14.374
21269W        W91869  33.678  18.669   0.786
21270W        W91870  26.062  11.287  11.067
21271W        W91871  18.700  31.358  10.768
21272W        W91872  22.279  22.117  12.347
21273W        W91873   1.277  32.955   4.549
21274W        W91874  35.467   1.228  10.707
21275W        W91875  32.038  38.796  10.736
21276W        W91876  30.684  34.814  12.442
21277W        W91877   4.180  37.987  14.284
21278W        W91878  11.718   8.787  13.001
21279W        W91879  18.560  44.009  12.906
21280W        W91880  15.967   6.068  11.503
21281W        W91881  28.135   2.445   2.225
21282W        W91882   9.983  42.451  10.744
21283W        W91883  20.669  29.349  13.069
21284W        W91884  10.688  13.062   3.635
21285W        W91885   8.826  43.749   1.991
21286W        W91886  21.993  36.384   3.503
21287W        W91887  18.775  38.829  14.653
21288W        W91888  36.523  39.330   3.407
21289W        W91889  13.291  36.339   1.849
21290W        W91890  41.702  30.669   4.411
21291W        W91891   1.010   9.380   2.323
21292W        W91892  23.636  22.272  14.245
21293W        W91893  36.494   5.312   4.451
21294W        W91894  44.635  22.981  11.169
21295W        W91895   4.232  26.174  14.026
21296W        W91896  41.117  20.510  13.837
21297W        W91897  20.851   9.054   5.371
21298W        W91898  22.418  40.315   1.338
21299W        W91899   1.666  29.469  13.364
21300W        W91900  10.987  28.984   4.524
21301W        W91901  27.463  22.326   4.199
21302W        W91902   8.856   2.174   3.768
21303W        W91903  28.421  16.840   2.829
21304W        W91904   7.412  16.620   0.238
21305W        W91905  12.168  12.842   3.757
21306W        W91906   3.969  24.481   2.845
21307W        W91907  28.893  28.122   1.303
21308W        W91908  42.647  23.194   4.218
21309W        W91909  12.137   3.380   3.612
21310W        W91910  41.445   0.041  14.266
21311W        W91911  37.399   4.229  11.995
21312W        W91912   8.843  17.264  12.968
21313W        W91913  25.613  35.123   1.632
21314W        W91914  19.524   5.349   2.775
21315W        W91915  22.152  33.836   3.448
21316W        W91916  43.092   7.553   2.328
21317W        W91917  26.015  17.817  12.589
21318W        W91918  19.524  10.176  11.555
21319W        W91919   6.387  41.921   1.384
21320W        W91920  23.779   4.429   4.228
21321W        W91921  16.014  13.192  12.875
21322W        W91922   4.668  42.855  12.556
21323W        W91923   8.942  22.030  14.646
21324W        W91924  34.536  39.504   0.843
21325W        W91925   9.036   0.783  14.906
21326W        W91926  26.073  33.787   3.790
21327W        W91927  18.886  28.060   0.924
21328W        W91928  29.131  14.625   2.932
21329W        W91929  19.017  31.935  12.590
21330W        W91930  17.680  43.909   4.112
21331W        W91931  21.651  27.537  10.734
21332W        W91932  44.797  36.459   3.696
21333W        W91933  12.874   3.908  10.718
21334W        W91934  43.873  24.409   4.034
21335W        W91935  43.387  22.556  11.289
21336W        W91936  13.300  29.126  14.826
21337W        W91937  22.606  33.517   2.877
21338W        W91938  42.252  39.847   3.592
21339W        W91939  32.154  21.244  14.810
21340W        W91940  40.832  24.138   1.257
21341W        W91941  19.260  26.681   1.745
21342W        W91942  16.683  41.372   3.810
21343W        W91943  15.878  44.182  12.700
21344W        W91944  18.266  21.622   3.157
21345W        W91945  36.785  12.688  14.666
21346W        W91946   8.597  39.030  10.491
21347W        W91947  26.724  34.341  11.319
21348W        W91948  21.114  42.774   3.261
21349W        W91949  14.259  17.185   4.115
21350W        W91950  15.806  11.654   4.154
21351W        W91951  36.396  13.614  13.778
21352W        W91952  15.417   4.453   1.585
21353W        W91953  22.344  18.023   0.810
21354W        W91954  39.280  40.972   1.174
21355W        W91955  36.511  28.900   1.452
21356W        W91956  13.823  34.340   1.385
21357W        W91957   8.317  37.984  13.195
21358W        W91958  16.173  17.077   2.403
21359W        W91959  38.645  39.445   0.806
21360W        W91960  12.725  36.740  14.255
21361W        W91961  31.131  36.535  14.446
21362W        W91962  34.950  14.326  10.707
21363W        W91963   5.810  22.258   3.321
21364W        W91964  37.015  19.583   3.750
21365W        W91965  15.551  37.557   1.519
21366W        W91966  14.844  37.830  14.537
21367W        W91967   5.915  21.696  11.043
21368W        W91968   1.482  14.258   3.704
21369W        W91969  14.537  32.854   0.026
21370W        W91970  20.488   0.085  14.559
21371W        W91971  39.274  10.621   0.022
21372W        W91972   8.400  35.257   1.649
21373W        W91973  12.544  11.298   3.747
21374W        W91974  20.662  16.401   0.789
21375W        W91975  15.605  21.729   0.891
21376W        W91976   8.561  10.900  14.370
21377W        W91977   1.456  21.493   1.780
21378W        W91978  13.684   7.166   3.634
21379W        W91979   9.670  11.797  13.550
21380W        W91980  39.152   8.420   1.408
21381W        W91981  43.236  42.963  10.462
21382W        W91982  14.270  29.080  13.748
21383W        W91983  43.827  15.061  11.188
21384W        W91984  32.890   3.685   0.755
21385W        W91985   4.053  43.001   2.263
21386W        W91986  25.978  24.164   2.282
21387W        W91987   3.733  22.528  14.306
21388W        W91988  40.807   6.931   1.530
21389W        W91989  18.676   3.618   0.346
21390W        W91990   5.330  33.844  11.554
21391W        W91991  18.136  19.560  13.917
21392W        W91992  31.183  27.862  10.987
21393W        W91993   2.842  40.045   4.635
21394W        W91994  30.408  32.216   2.879
21395W        W91995  41.241  13.538  11.608
21396W        W91996  32.988  44.981   2.679
21397W        W91997  29.169   2.666  14.533
21398W        W91998  11.813  38.082  10.539
21399W        W91999  32.227  33.433   0.386
21400W        W92000   7.984  30.244  10.325
21401W        W92001  18.216  44.026   3.191
21402W        W92002  13.921  42.909   0.513
21403W        W92003  28.040  32.986   3.674
21404W        W92004  19.047  29.713   3.698
21405W        W92005  41.093  35.842  13.533
21406W        W92006  17.727  35.446  12.179
21407W        W92007  14.197  11.167  14.809
21408W        W92008  37.893  16.573  11.941
21409W        W92009  37.543   7.784  11.752
21410W        W92010  22.029  19.646  12.121
21411W        W92011  27.074   5.807  12.620
21412W        W92012  39.523  18.204   0.848
21413W        W92013  23.299  36.391  14.617
21414W        W92014  41.667  38.926   0.752
21415W        W92015  43.808   8.643  10.500
21416W        W92016   9.443  43.418  11.932
21417W        W92017   1.018  39.621  12.422
21418W        W92018  42.517  44.507   3.842
21419W        W92019  41.113  16.729   1.794
21420W        W92020   3.417   2.857  12.588
21421W        W92021   8.725  44.439   0.553
21422W        W92022   4.228  15.027   0.465
21423W        W92023   6.856  34.022   0.918
21424W        W92024   2.861  11.049  13.842
21425W        W92025   2.524   3.170  11.576
21426W        W92026  10.059  25.904  12.554
21427W        W92027  37.357  32.441   3.164
21428W        W92028  18.247   7.774   0.487
21429W        W92029  41.752  38.577   2.642
21430W        W92030  31.244  12.259  13.945
21431W        W92031   9.411  41.589   0.288
21432W        W92032  21.294   4.539  12.560
21433W        W92033  30.961  22.182   2.540
21434W        W92034   2.320  14.336   0.210
21435W        W92035  20.739  30.488  14.478
21436W        W92036   1.244   2.432  11.537
21437W        W92037  43.106  44.808   3.086
21438W        W92038  21.761  10.759   3.332
21439W        W92039  11.582  42.775  13.971
21440W        W92040   5.698  17.164  11.566
21441W        W92041   6.928   4.324   1.326
21442W        W92042  35.344  31.234   2.204
21443W        W92043  17.457   8.526  14.118
21444W        W92044  15.645   3.870   1.425
21445W        W92045   0.685   8.611   1.787
21446W        W92046  21.771  29.129   2.000
21447W        W92047  34.421  13.131   4.138
21448W        W92048   0.990  34.073   1.860
21449W        W92049  13.825  11.022   1.036
21450W        W92050   2.557  32.953  14.008
21451W        W92051  44.904  12.338  13.586
21452W        W92052  18.202  11.410  12.109
21453W        W92053   0.116  33.653  13.486
21454W        W92054  36.467  44.503  13.610
21455W        W92055  12.317  32.360  14.461
21456W        W92056   9.562  37.944   3.898
21457W        W92057  17.922  32.281  12.578
21458W        W92058   4.316   0.334  12.775
21459W        W92059  26.157  18.313  12.521
21460W        W92060  43.998  32.373  14.441
21461W        W92061   6.316   0.236   4.508
21462W        W92062  25.756  25.211  13.383
21463W        W92063  33.538  29.389   2.874
21464W        W92064  19.062  44.900   3.311
21465W        W92065  23.149  30.200  10.852
21466W        W92066  29.511  31.089   0.810
21467W        W92067   0.408  23.579  11.681
21468W        W92068  12.818  39.514  14.859
21469W        W92069  13.657  33.160  13.582
21470W        W92070  23.580  18.507  14.853
21471W        W92071  26.593  35.554   3.632
21472W        W92072  21.027  43.918   4.689
21473W        W92073  37.414  19.342   0.992
21474W        W92074  11.660  14.715   2.326
21475W        W92075  26.035  39.770  11.101
21476W        W92076  30.629   2.935   0.264
21477W        W92077   4.291  31.337  12.148
21478W        W92078  15.367  25.724   3.506
21479W        W92079  33.391  43.018   3.192
21480W        W92080  19.487   9.197  14.881
21481W        W92081  32.102  12.984  12.411
21482W        W92082  32.208   0.794  11.181
21483W        W92083  31.877   9.817   3.248
21484W        W92084  38.416  16.219   1.445
21485W        W92085  38.825  29.356   5.429
21486W        W92086   7.799  17.950  12.472
21487W        W92087  30.942  14.211  14.463
21488W        W92088  32.818  43.662  14.941
21489W        W92089  12.224  23.423   3.286
21490W        W92090  31.165  38.129   9.684
21491W        W92091  26.390   2.611  13.832
21492W        W92092  14.086  23.248   1.288
21493W        W92093   1.686  21.423  11.079
21494W        W92094  15.294  37.756   0.822
21495W        W92095   5.776  18.363   0.500
21496W        W92096  28.144  13.573  11.965
21497W        W92097  42.503  23.126  10.772
21498W        W92098  35.904   1.564  10.764
21499W        W92099   0.175  39.058   4.408
21500W        W92100  34.828  35.837  12.007
21501W        W92101  23.106  10.288   2.114
21502W        W92102  18.596   9.820   2.397
21503W        W92103  14.335  15.070  14.533
21504W        W92104  20.041  17.247   1.416
21505W        W92105  27.568   0.808   3.289
21506W        W92106  37.364  29.083   3.756
21507W        W92107  41.799   9.153  13.100
21508W        W92108   9.630  37.602  14.841
21509W        W92109  26.996   6.946   1.662
21510W        W92110  37.544  39.413  14.387
21511W        W92111   6.223  22.923  11.084
21512W        W92112  13.830  27.173  11.231
21513W        W92113  22.320  40.322  14.049
21514W        W92114  43.562  40.209   2.325
21515W        W92115  41.463  11.017   2.391
21516W        W92116  30.147  11.648  12.884
21517W        W92117  37.624  28.621  10.557
21518W        W92118  26.066  41.082  12.387
21519W        W92119  40.833  38.446  10.757
21520W        W92120  39.273   9.316  13.304
21521W        W92121  33.643  23.284   3.311
21522W        W92122   2.196  20.117  13.532
21523W        W92123  35.349  31.982   2.732
21524W        W92124  42.576  13.715   4.977
21525W        W92125   1.036   6.424   3.226
21526W        W92126  32.153  38.453   1.391
21527W        W92127  40.964  16.219  12.182
21528W        W92128  34.976   0.389   1.179
21529W        W92129  30.712  41.479  14.882
21530W        W92130  42.238  41.669  14.435
21531W        W92131   5.440  26.291   1.313
21532W        W92132  12.311   3.898  14.992
21533W        W92133  22.247  21.269   3.198
21534W        W92134  18.288  24.881   9.882
21535W        W92135   7.818  42.077  12.498
21536W        W92136  12.434   9.689  12.499
21537W        W92137  13.225   3.795  12.916
21538W        W92138  22.887  23.527   3.388
21539W        W92139  44.904  14.561  12.053
21540W        W92140  11.097  28.131   1.301
21541W        W92141  27.322  17.550  11.634
21542W        W92142  18.497  13.531   0.513
21543W        W92143   0.796  17.103   0.171
21544W        W92144  10.882  19.101   2.423
21545W        W92145   8.210  36.787   3.147
21546W        W92146   9.290  27.958  12.754
21547W        W92147  27.053  16.157   4.731
21548W        W92148  43.950   1.998   1.350
21549W        W92149   6.114   5.719  10.676
21550W        W92150   2.012   8.132  14.201
21551W        W92151  39.996   8.505  14.914
21552W        W92152   3.433   4.436  13.124
21553W        W92153  36.467  26.474  12.455
21554W        W92154  19.495  13.238   1.657
21555W        W92155  35.301  27.418   2.267
21556W        W92156  26.922  33.393   3.333
21557W        W92157  36.924  38.565  12.127
21558W        W92158   9.336  36.588  13.465
21559W        W92159  37.667  26.857   1.677
21560W        W92160  36.204  13.039   0.860
21561W        W92161  15.574  12.581  14.938
21562W        W92162  21.747  19.794   5.026
21563W        W92163  42.863   4.129  13.098
21564W        W92164  42.811  42.344   2.288
21565W        W92165  17.654   7.125  12.380
21566W        W92166  15.560  28.515  13.478
21567W        W92167  36.789  20.782   0.416
21568W        W92168   7.149   2.863   0.922
21569W        W92169  38.818  13.014  11.597
21570W        W92170   5.780  38.086  14.584
21571W        W92171  17.470   3.152   3.999
21572W        W92172  27.239   4.668   0.351
21573W        W92173   2.172  43.911  10.554
21574W        W92174  16.732  41.113   2.075
21575W        W92175  17.376  28.205  13.814
21576W        W92176  43.021  38.523  13.046
21577W        W92177  41.397  42.449  14.433
21578W        W92178  15.917  28.135  14.496
21579W        W92179  19.218  36.431  10.770
21580W        W92180  29.500  33.018   4.249
21581W        W92181   0.451   2.766   1.222
21582W        W92182  19.475  33.459  13.438
21583W        W92183   9.458   4.348  13.030
21584W        W92184  19.165  16.751  14.149
21585W        W92185  19.524  37.107  12.515
21586W        W92186  11.276  32.072  12.633
21587W        W92187  18.149  32.584   3.702
21588W        W92188  13.569   3.266  13.417
21589W        W92189   3.291  17.790   3.192
21590W        W92190  35.917  43.799  11.217
21591W        W92191  34.128   7.225   3.178
21592W        W92192  29.155   8.145   2.472
21593W        W92193  27.658  35.818  13.278
21594W        W92194   3.703  19.165  13.855
21595W        W92195  33.114   6.235   3.837
21596W        W92196  32.558  20.244   1.311
21597W        W92197  26.416  42.650  14.708
21598W        W92198  21.060  22.469  12.232
21599W        W92199   3.485  19.682   3.675
21600W        W92200  35.455   9.257   4.770
21601W        W92201  38.090   5.587   3.785
21602W        W92202  13.383   0.815  10.745
21603W        W92203  41.878  16.680   0.998
21604W        W92204   1.426  35.373   4.527
21605W        W92205   9.604  19.710   3.115
21606W        W92206  19.741  21.456   3.201
21607W        W92207  29.598  40.247  11.659
21608W        W92208  34.887  11.296  10.412
21609W        W92209  35.039   5.329   2.625
21610W        W92210  25.998  36.098   1.223
21611W        W92211  44.746  32.422  13.884
21612W        W92212  25.611   3.742   2.363
21613W        W92213   0.445   8.923  12.497
21614W        W92214   3.504   0.245   3.182
21615W        W92215  24.278  23.816   0.429
21616W        W92216  39.302  38.737  11.107
21617W        W92217  24.274  32.130   1.000
21618W        W92218  32.692  42.847  12.020
21619W        W92219  23.885  17.592  11.208
21620W        W92220  12.115  20.256  13.130
21621W        W92221   2.809   5.664   4.207
21622W        W92222  18.573  29.074  11.859
21623W        W92223  22.520  34.491  13.031
21624W        W92224  26.967  16.379   3.274
21625W        W92225  16.193   5.374   4.325
21626W        W92226   7.729   0.804   0.047
21627W        W92227  33.911   3.287   2.094
21628W        W92228   8.230  30.189   3.251
21629W        W92229  26.047  13.874  14.353
21630W        W92230   4.359  12.012  10.341
21631W        W92231   0.099   4.305   1.195
21632W        W92232  26.416  31.649   3.140
21633W        W92233  41.795  44.381   1.245
21634W        W92234   5.583   5.793   0.035
21635W        W92235  39.375   9.680   2.463
21636W        W92236   4.119  22.897  12.430
21637W        W92237   0.050  21.722  10.670
21638W        W92238  12.374   9.688  13.773
21639W        W92239  24.971  28.171   3.847
21640W        W92240  27.076  30.432   2.991
21641W        W92241  38.336  26.683   0.326
21642W        W92242   8.865   2.898   0.036
21643W        W92243  18.846  18.556   2.833
21644W        W92244   2.405  43.479  12.132
21645W        W92245   1.349  37.327  11.441
21646W        W92246  30.563   9.736  13.285
21647W        W92247  35.415  27.102  14.493
21648W        W92248  10.192  27.984   1.377
21649W        W92249  21.513  33.986   0.253
21650W        W92250   0.192   7.912   0.526
21651W        W92251  40.014  10.705   1.900
21652W        W92252  42.882   4.188  14.025
21653W        W92253  41.761   6.738   4.611
21654W        W92254  12.693  30.967  13.856
21655W        W92255  36.508  14.769   3.084
21656W        W92256  16.217  16.650   2.115
21657W        W92257  25.294  32.138  12.448
21658W        W92258  22.023  13.700  12.839
21659W        W92259  12.890  31.114   4.459
21660W        W92260  38.499  43.996   0.644
21661W        W92261  43.302   7.178   1.549
21662W        W92262  18.613  39.518  10.669
21663W        W92263   4.334   4.942   0.883
21664W        W92264  37.300  35.992   3.693
21665W        W92265  26.671  34.398   0.805
21666W        W92266   2.293  23.589   0.477
21667W        W92267  36.082  15.724   5.025
21668W        W92268   5.938  39.257   2.137
21669W        W92269  31.676  32.319   4.502
21670W        W92270  39.920  17.082  11.592
21671W        W92271  41.866   9.170  12.585
21672W        W92272  43.952  42.633   0.287
21673W        W92273  37.949  24.237   3.688
21674W        W92274   2.413  30.203   1.362
21675W        W92275  43.342   1.508  10.728
21676W        W92276  22.758  37.812  11.464
21677W        W92277   2.638  25.123  13.961
21678W        W92278   1.985  44.353   1.838
21679W        W92279  21.474  30.321   0.729
21680W        W92280  31.949  38.361   4.112
21681W        W92281  18.493  17.406   9.634
21682W        W92282  44.191   9.491  13.025
21683W        W92283  33.434  30.100  12.802
21684W        W92284  28.392  41.005   4.129
21685W        W92285   0.476  15.399  12.907
21686W        W92286   9.373  25.196   4.556
21687W        W92287  43.031  13.646   3.132
21688W        W92288  35.900  43.522   1.692
21689W        W92289  33.348  13.648  13.990
21690W        W92290  39.484  37.787   3.586
21691W        W92291  42.549   8.352   0.376
21692W        W92292  21.981  21.225   3.684
21693W        W92293   3.682   4.158   3.545
21694W        W92294  28.248  26.496   2.576
21695W        W92295  14.196  43.278   2.227
21696W        W92296  12.600  38.503   0.661
21697W        W92297   4.004  26.431  13.582
21698W        W92298  33.901  30.028   1.275
21699W        W92299  40.924  39.567   3.153
21700W        W92300  22.514  32.012   4.169
21701W        W92301  13.935  27.140  12.052
21702W        W92302  27.236  17.042   2.863
21703W        W92303  29.635  22.323   4.287
21704W        W92304  17.436   5.935  13.936
21705W        W92305   5.368  44.794  10.366
21706W        W92306   6.484  31.049  13.503
21707W        W92307  34.028  43.500  13.977
21708W        W92308  14.325   1.992   1.275
21709W        W92309  36.938  43.774   1.855
21710W        W92310  35.864   6.137   3.165
21711W        W92311  35.884  27.958  14.786
21712W        W92312   4.700  24.244  12.007
21713W        W92313  35.884  42.407  10.648
21714W        W92314  42.032  33.460   0.492
21715W        W92315   5.910  32.339   3.164
21716W        W92316   5.808  23.267  12.967
21717W        W92317  30.059  40.938  12.096
21718W        W92318   1.815  42.327   1.816
21719W        W92319  31.196  15.744   1.485
21720W        W92320  22.554  18.381  11.990
21721W        W92321  41.954  37.630  13.033
21722W        W92322  16.153  26.943  12.545
21723W        W92323  31.677   7.264  14.035
21724W        W92324  24.735  12.265   2.754
21725W        W92325  28.046   4.997   4.267
21726W        W92326  32.263  22.267  14.912
21727W        W92327  10.695  27.800   1.349
21728W        W92328   0.515  28.232   0.582
21729W        W92329  43.581  19.821  10.100
21730W        W92330  35.057   8.990  12.769
21731W        W92331   6.819   1.187   0.281
21732W        W92332  32.244   8.953  14.951
21733W        W92333  29.259  28.190  10.337
21734W        W92334   7.499  38.018   1.512
21735W        W92335  26.210  30.479   2.837
21736W        W92336  30.898  14.095  11.613
21737W        W92337  28.710   2.806  14.280
21738W        W92338  28.435  23.974   2.138
21739W        W92339  11.168  38.036   3.228
21740W        W92340  10.036  33.651  12.498
21741W        W92341  13.386  12.233  13.285
21742W        W92342  31.035  25.722   0.554
21743W        W92343  12.277   9.707   0.244
21744W        W92344  19.484  21.617   0.954
21745W        W92345  39.769  34.983  14.850
21746W        W92346  44.511  42.778   1.854
21747W        W92347  35.876  18.053   2.815
21748W        W92348  44.400  40.589   3.287
21749W        W92349   8.783  27.181  12.205
21750W        W92350  29.387  13.744  13.425
21751W        W92351  13.261  29.534  10.720
21752W        W92352  28.126   6.422  14.825
21753W        W92353  25.974  15.204  14.386
21754W        W92354  25.720  37.824  12.033
21755W        W92355   1.974  10.734   4.174
21756W        W92356  12.155  12.882   4.525
21757W        W92357   0.135  22.058   3.630
21758W        W92358   7.212   3.951  10.756
21759W        W92359   1.728  40.505   1.287
21760W        W92360   6.893  30.466  10.646
21761W        W92361   9.886  25.388  12.411
21762W        W92362  22.810  18.445  11.046
21763W        W92363  39.825  30.026   0.844
21764W        W92364  13.842  23.434   0.759
21765W        W92365  42.928  43.971  12.973
21766W        W92366  31.874  27.691   2.247
21767W        W92367   0.911  10.583  14.899
21768W        W92368  18.706  21.922   3.146
21769W        W92369  16.196  12.515  11.124
21770W        W92370  10.422  31.370   2.517
21771W        W92371  23.072  16.847  12.085
21772W        W92372  32.671  16.921  11.156
21773W        W92373  10.852  24.570  13.490
21774W        W92374  17.617  35.168  10.849
21775W        W92375   7.379   7.766   0.429
21776W        W92376   0.496  15.866  10.695
21777W        W92377  32.979   3.393  12.440
21778W        W92378   3.331  32.186   1.900
21779W        W92379  40.893  29.267  12.581
21780W        W92380  11.232  24.440   2.195
21781W        W92381   4.914   8.557  12.593
21782W        W92382   0.985  22.972   2.775
21783W        W92383  40.929  14.528  12.258
21784W        W92384  34.000  39.974  10.570
21785W        W92385   9.722  23.649   2.476
21786W        W92386  39.738  13.586   1.825
21787W        W92387  27.653  38.533  14.277
21788W        W92388   2.720  18.853  12.139
21789W        W92389  23.164  37.260   4.269
21790W        W92390  15.625  32.574  14.511
21791W        W92391  12.790   1.544  11.142
21792W        W92392  31.108   4.443   1.883
21793W        W92393  10.408  42.459  11.538
21794W        W92394  38.028   1.738   2.656
21795W        W92395  41.860  12.702  12.184
21796W        W92396  11.791  23.097  14.095
21797W        W92397  16.671  12.850  14.832
21798W        W92398  33.123  33.689  12.384
21799W        W92399   8.099   2.960   3.888
21800W        W92400  15.267  36.839   4.346
21801W        W92401  44.185  10.375  13.340
21802W        W92402  23.216  22.533   0.293
21803W        W92403  22.808  29.969  13.132
21804W        W92404  32.944  19.168  12.134
21805W        W92405  26.072  41.012   1.782
21806W        W92406  39.494  26.880   3.355
21807W        W92407  33.873  15.347   0.456
21808W        W92408  29.038  44.084  10.763
21809W        W92409   2.684  21.313   2.716
21810W        W92410  41.963  29.604  12.669
21811W        W92411  26.439   1.240  13.351
21812W        W92412  32.472  43.931   4.595
21813W        W92413   8.249   6.940   2.944
21814W        W92414   9.958  25.027   3.566
21815W        W92415  20.474  15.733  11.513
21816W        W92416   9.912   0.973  13.104
21817W        W92417   9.124  21.549   3.109
21818W        W92418  22.320  23.957  11.097
21819W        W92419   5.218  37.165   3.825
21820W        W92420   1.098  26.132  12.999
21821W        W92421  19.702  23.822  14.007
21822W        W92422  20.100  33.800   3.535
21823W        W92423  36.589  24.583   3.412
21824W        W92424   4.270  18.272  13.971
21825W        W92425  43.818  11.321  11.987
21826W        W92426  16.234   7.176  10.847
21827W        W92427  38.893  36.841   1.369
21828W        W92428  32.709  37.546   1.305
21829W        W92429  12.848   5.358  11.623
21830W        W92430   7.388   0.841   5.056
21831W        W92431  21.187  27.136   1.822
21832W        W92432  17.480  25.081  13.480
21833W        W92433  27.554  39.240   2.767
21834W        W92434   7.837  34.172  14.849
21835W        W92435  16.733  27.191   1.999
21836W        W92436  16.587   7.862  11.159
21837W        W92437   9.183   0.260  13.070
21838W        W92438  32.145  41.171  12.473
21839W        W92439  17.541  25.409  11.516
21840W        W92440  19.056  21.626  12.350
21841W        W92441  22.300  41.403   2.875
21842W        W92442  36.089   0.624   2.812
21843W        W92443  27.102   0.179   3.625
21844W        W92444   6.425  44.892  11.651
21845W        W92445   3.776  34.276  14.547
21846W        W92446  36.474  33.684  11.600
21847W        W92447  29.581  25.387   2.166
21848W        W92448  42.343  39.517  10.573
21849W        W92449  19.062  14.992  14.889
21850W        W92450  35.500  35.107  11.083
21851W        W92451  31.486  32.386   0.741
21852W        W92452  24.442  14.721  13.508
21853W        W92453   8.830  18.160   0.424
21854W        W92454  16.694  12.168   1.366
21855W        W92455   4.974   4.917  12.853
21856W        W92456  29.635  18.799  13.966
21857W        W92457  26.758  12.253   0.365
21858W        W92458  21.214  32.497   2.446
21859W        W92459  13.896  37.282  13.102
21860W        W92460  28.550  44.893   2.939
21861W        W92461  39.504  27.209  12.936
21862W        W92462  20.576  31.216   1.170
21863W        W92463  34.394  29.545   1.929
21864W        W92464  15.171  42.491   2.665
21865W        W92465  20.725  12.442  10.518
21866W        W92466  31.564  26.273   0.553
21867W        W92467   4.520  32.053   4.108
21868W        W92468   8.147  18.522   2.321
21869W        W92469  35.988  43.674  13.503
21870W        W92470  25.474  44.202  12.972
21871W        W92471  27.297  44.953  11.090
21872W        W92472   1.126  26.226   0.403
21873W        W92473  12.673   6.748   3.290
21874W        W92474   0.755  43.784   1.805
21875W        W92475   6.874  15.645   1.263
21876W        W92476  27.639   6.906   3.657
21877W        W92477  14.032  34.104   3.180
21878W        W92478  17.680  23.801   2.086
21879W        W92479  33.566  36.913   4.136
21880W        W92480  21.545  23.125  13.216
21881W        W92481  30.477  37.573  14.475
21882W        W92482  29.169  21.201  11.093
21883W        W92483  20.239   6.194   5.135
21884W        W92484  13.645  20.589  11.014
21885W        W92485  35.204  13.326   0.878
21886W        W92486  30.507   0.893  13.844
21887W        W92487  33.577  35.383  11.488
21888W        W92488  12.762  11.001  13.987
21889W        W92489  42.492  41.217  14.483
21890W        W92490  11.877   5.281  14.486
21891W        W92491  43.672  30.969   1.815
21892W        W92492  35.910  41.992  10.961
21893W        W92493  16.715  36.196   4.566
21894W        W92494   8.419  43.452  11.120
21895W        W92495  31.648  21.711   0.122
21896W        W92496  44.201  28.327  14.413
21897W        W92497  12.321  16.654  13.972
21898W        W92498   7.979   7.344  12.584
21899W        W92499  36.581   6.231   1.853
21900W        W92500  13.775  10.219   0.126
21901W        W92501  13.080  17.069  14.708
21902W        W92502  11.749   4.746  14.534
21903W        W92503  16.290  10.362   0.004
21904W        W92504   9.678   3.003  14.605
21905W        W92505  26.544  16.784   0.667
21906W        W92506  31.250  14.874   1.789
21907W        W92507   6.923  42.071   4.674
21908W        W92508  22.262  34.079  10.761
21909W        W92509  14.166  32.544  10.649
21910W        W92510  42.299  15.717   1.845
21911W        W92511  39.362   2.416  13.432
21912W        W92512   9.268   5.419   3.711
21913W        W92513  23.945  30.570   0.867
21914W        W92514  21.103  26.767  13.609
21915W        W92515  31.612  34.684   9.931
21916W        W92516   4.373  42.819  14.292
21917W        W92517   2.866  11.319   0.931
21918W        W92518  10.675  12.154  12.658
21919W        W92519   8.669  33.176  10.419
21920W        W92520  17.767  10.417   9.987
21921W        W92521   0.904  37.937   0.628
21922W        W92522  44.909  31.408  12.895
21923W        W92523  38.470  23.045  12.873
21924W        W92524  28.330  18.947  14.478
21925W        W92525  28.207  19.811  12.886
21926W        W92526   5.582  10.256  12.063
21927W        W92527   5.758  19.035  12.956
21928W        W92528  27.692  31.011   2.345
21929W        W92529  40.804  21.700  14.333
21930W        W92530  37.999  29.494   4.068
21931W        W92531  39.354  29.362  11.394
21932W        W92532  36.877   0.358   3.060
21933W        W92533   2.531  27.732  14.006
21934W        W92534   8.838   9.883  13.252
21935W        W92535  29.009  36.591  12.216
21936W        W92536  38.967  24.645  14.503
21937W        W92537  39.321  35.676  11.661
21938W        W92538  14.554  18.081   2.757
21939W        W92539   8.936  25.766  14.829
21940W        W92540   5.553   8.135  13.101
21941W        W92541  44.764  33.509  14.767
21942W        W92542  39.343  15.138  10.944
21943W        W92543  43.621  35.341   2.726
21944W        W92544  36.048  19.169   2.165
21945W        W92545  19.034  11.872  11.976
21946W        W92546  30.385  28.130  13.076
21947W        W92547  24.162  18.056   2.029
21948W        W92548  29.061  20.171   2.348
21949W        W92549  24.051  37.707  10.889
21950W        W92550  19.402   6.554  11.201
21951W        W92551  44.418  35.366  14.921
21952W        W92552  42.293  22.399   3.175
21953W        W92553  10.411   1.147  10.689
21954W        W92554   9.108   0.714   4.077
21955W        W92555  32.007   3.345  11.015
21956W        W92556  40.564  30.573   2.205
21957W        W92557   7.421  34.448  10.792
21958W        W92558   2.886  24.596   0.989
21959W        W92559   2.856  42.088  11.896
21960W        W92560  35.300  15.912  11.593
21961W        W92561  36.208  22.242   4.256
21962W        W92562  43.723  34.911  10.732
21963W        W92563  32.864  22.369   0.780
21964W        W92564  25.226   9.024   5.060
21965W        W92565  27.457  30.604  11.242
21966W        W92566   8.213   9.600  14.015
21967W        W92567  34.065  17.014  14.416
21968W        W92568  30.412  11.431   1.400
21969W        W92569  24.249  33.020   0.838
21970W        W92570  33.002  10.593  12.472
21971W        W92571   5.888  38.986  10.732
21972W        W92572   2.069  40.535  12.398
21973W        W92573  17.596  32.103  14.885
21974W        W92574   3.001  33.375  14.500
21975W        W92575  12.662  35.943  13.735
21976W        W92576  20.915  12.862  13.577
21977W        W92577  40.884   2.019   1.413
21978W        W92578  33.496  24.360   1.328
21979W        W92579  32.734  15.669   3.008
21980W        W92580  18.086  13.784  12.810
21981W        W92581  29.440   4.736   0.709
21982W        W92582  37.799  30.621   1.112
21983W        W92583  16.684  19.801   0.400
21984W        W92584   2.293  37.665  14.402
21985W        W92585  30.006  32.558  11.816
21986W        W92586  29.037  15.158   0.361
21987W        W92587   6.919   8.965   4.144
21988W        W92588   9.604  44.747   4.383
21989W        W92589  21.378  35.539  11.049
21990W        W92590   6.127  26.601  12.513
21991W        W92591   7.343  23.904   0.378
21992W        W92592  34.144  22.268   4.848
21993W        W92593   0.890  34.573  14.087
21994W        W92594  31.448  22.970  11.657
21995W        W92595  33.569  28.533  11.969
21996W        W92596  22.604  42.236   4.865
21997W        W92597  28.796  11.274   3.135
21998W        W92598  36.631  37.329   4.220
21999W        W92599   3.249  13.661   1.896
22000W        W92600  23.106  11.890  14.278
22001W        W92601  18.801  32.438  10.385
22002W        W92602  38.995  16.681   0.933
22003W        W92603  22.760  15.539   1.834
22004W        W92604  31.438  44.018  10.662
22005W        W92605  30.009  20.985  12.204
22006W        W92606  27.216   0.550  14.542
22007W        W92607  44.367  33.454   1.266
22008W        W92608  17.027  27.162   0.358
22009W        W92609  25.535  31.927  11.543
22010W        W92610  32.987  19.928   1.033
22011W        W92611  21.020  31.419  12.525
22012W        W92612  43.701  29.153   3.719
22013W        W92613  20.317  40.916   2.091
22014W        W92614  30.886   1.777  11.301
22015W        W92615  27.867  26.917  11.587
22016W        W92616  22.188  36.122   2.222
22017W        W92617  35.949  12.902   3.895
22018W        W92618  35.733  18.316   3.313
22019W        W92619  43.510  43.147   2.250
22020W        W92620  42.432  26.004   3.228
22021W        W92621  11.027  34.307   3.749
22022W        W92622  22.856   1.702  13.925
22023W        W92623   3.275  15.064  11.067
22024W        W92624  40.363  26.585   1.719
22025W        W92625  11.423  35.829   3.846
22026W        W92626  39.908  24.014  11.060
22027W        W92627  10.299  17.511  11.100
22028W        W92628   1.033  16.652  12.994
22029W        W92629  43.800  22.182   0.139
22030W        W92630  28.420  22.676   1.410
22031W        W92631  16.965  24.888   1.768
22032W        W92632  32.948   2.878  14.691
22033W        W92633  29.434   0.346   0.871
22034W        W92634   3.659   7.879   2.664
22035W        W92635  40.859  18.585  11.675
22036W        W92636  34.118  44.457   1.955
22037W        W92637  23.684   1.412   0.967
22038W        W92638   5.707  33.922  13.995
22039W        W92639  43.039   6.496   3.803
22040W        W92640   8.513   2.857   4.176
22041W        W92641  17.247  10.911  10.435
22042W        W92642  28.043   7.908  11.968
22043W        W92643  33.356  37.897  11.214
22044W        W92644   8.923  15.895   5.033
22045W        W92645  30.115  10.494  13.461
22046W        W92646  31.896   5.666  11.048
22047W        W92647  42.430   9.252  12.456
22048W        W92648  16.230  30.064   2.934
22049W        W92649  35.433  32.448   3.369
22050W        W92650  32.950  30.139   0.919
22051W        W92651  11.612  36.352  11.220
22052W        W92652  30.393  43.237   3.381
22053W        W92653   0.480  13.270  14.776
22054W        W92654  20.233  37.497  10.477
22055W        W92655  31.948   6.798  12.403
22056W        W92656  27.451  34.742   0.541
22057W        W92657  17.820   7.613   1.338
22058W        W92658  33.491   6.987  13.327
22059W        W92659  42.681  14.051  14.390
22060W        W92660  29.215  24.658   4.253
22061W        W92661  40.807  19.064  12.883
22062W        W92662  21.258  19.435  10.646
22063W        W92663  43.547  20.927  11.983
22064W        W92664  13.063  23.620  12.541
22065W        W92665  38.049   2.046  12.364
22066W        W92666   5.405  16.434   4.215
22067W        W92667  30.570  15.822  13.384
22068W        W92668   4.934  18.230   3.090
22069W        W92669   7.317   4.828  10.615
22070W        W92670  22.272  11.222  12.862
22071W        W92671  25.895   6.858  13.524
22072W        W92672  33.691  40.045  12.195
22073W        W92673  34.898  19.201  13.505
22074W        W92674  41.035  37.452   0.001
22075W        W92675   0.807   4.323  13.057
22076W        W92676  15.641  14.565   4.081
22077W        W92677   5.374  28.234  11.116
22078W        W92678  31.396  33.262   2.217
22079W        W92679  37.989  34.286   1.833
22080W        W92680  28.110  13.619   3.036
22081W        W92681  15.400  38.786   2.223
22082W        W92682   5.199  36.849   2.489
22083W        W92683  19.575  35.188  12.569
22084W        W92684  35.053   3.167   0.333
22085W        W92685   0.656  19.864   0.028
22086W        W92686  17.234  11.748   4.135
22087W        W92687   7.299  32.433   2.459
22088W        W92688  42.166  18.302  14.406
22089W        W92689  44.469  14.823  12.960
22090W        W92690  19.252  28.530   9.914
22091W        W92691  12.714   3.276   2.884
22092W        W92692  13.282  33.622   0.152
22093W        W92693  11.797  24.323  13.226
22094W        W92694  10.067  12.107  11.057
22095W        W92695  39.480  29.638   1.705
22096W        W92696  20.676  36.291  11.161
22097W        W92697  24.462  15.548   3.807
22098W        W92698  18.088  38.951  11.135
22099W        W92699   3.643   3.418  10.893
22100W        W92700  16.919  26.403  13.802
22101W        W92701  31.652   6.310  12.099
22102W        W92702  33.653  23.807  12.940
22103W        W92703  14.358  23.953   1.870
22104W        W92704  34.100   5.318  12.128
22105W        W92705  36.412  33.204  12.027
22106W        W92706   3.040  30.112   4.791
22107W        W92707  37.894  10.204  14.760
22108W        W92708  18.773  15.870  14.772
22109W        W92709  43.251   8.279  14.474
22110W        W92710  18.063  42.570  12.832
22111W        W92711   7.832  23.129  13.280
22112W        W92712   1.263  42.942   4.416
22113W        W92713  36.028  42.045   2.187
22114W        W92714   1.252  29.107  12.184
22115W        W92715   8.397  36.376   2.906
22116W        W92716  24.107  24.699   3.137
22117W        W92717  38.813  18.549  11.623
22118W        W92718  32.652  24.705  13.791
22119W        W92719  18.625  11.097  13.510
22120W        W92720   6.892   9.699  11.136
22121W        W92721  44.301  34.880  14.747
22122W        W92722   7.831  31.804  13.857
22123W        W92723  35.577  34.624   1.667
22124W        W92724  35.723  41.667   2.752
22125W        W92725  27.987   4.660   4.668
22126W        W92726   1.019  32.187   3.665
22127W        W92727  37.652   7.937  14.485
22128W        W92728   7.494  26.600  11.230
22129W        W92729  36.518  22.468  11.162
22130W        W92730  22.527  13.568  14.743
22131W        W92731  31.912   2.913   0.922
22132W        W92732  26.094   6.917   4.548
22133W        W92733  10.497  17.475   2.413
22134W        W92734  26.884  19.396   2.696
22135W        W92735   6.152  15.727  14.908
22136W        W92736  29.066  28.878  14.717
22137W        W92737  28.738  43.422   4.848
22138W        W92738  44.780  42.023  13.487
22139W        W92739   2.356  23.428  12.582
22140W        W92740  30.081  44.883   0.062
22141W        W92741  18.700  38.500   1.734
22142W        W92742   6.697  25.242   1.320
22143W        W92743  23.725   5.934  13.059
22144W        W92744  42.136  16.240  14.231
22145W        W92745  33.972  15.678  14.994
22146W        W92746  20.068   8.294   1.024
22147W        W92747   0.903  33.479  13.095
22148W        W92748  36.794  31.348   2.302
22149W        W92749  36.343  25.731  11.183
22150W        W92750   0.192  17.885  11.587
22151W        W92751  19.547  22.070  13.286
22152W        W92752  23.567  12.336   0.031
22153W        W92753  30.875  41.844  11.560
22154W        W92754  37.597   2.679   2.670
22155W        W92755   3.441  19.288   4.633
22156W        W92756   6.035   5.314   2.248
22157W        W92757  17.690  32.403  14.253
22158W        W92758   2.264  13.798   0.924
22159W        W92759  41.830  44.353   3.250
22160W        W92760   0.151  19.878  13.965
22161W        W92761  43.822  14.063   4.895
22162W        W92762   5.934  42.184   1.473
22163W        W92763  12.165  14.875   0.840
22164W        W92764  35.399   6.808   2.072
22165W        W92765  36.730  17.214   3.951
22166W        W92766  42.932  22.739  12.541
22167W        W92767   7.721  39.453  13.613
22168W        W92768  40.474  19.188   0.832
22169W        W92769  32.015  17.060   2.791
22170W        W92770  14.703  37.841   1.868
22171W        W92771  33.079  14.092  13.869
22172W        W92772  18.223  39.308  14.609
22173W        W92773   2.901   2.972  10.692
22174W        W92774   9.855  27.090   0.233
22175W        W92775  14.133  12.887  10.635
22176W        W92776  18.161  15.820   4.653
22177W        W92777  33.012  12.112  13.904
22178W        W92778  24.651   7.824   4.490
22179W        W92779  16.530   4.206  14.901
22180W        W92780  39.613  38.536   2.385
22181W        W92781  24.546  34.554   2.886
22182W        W92782  42.289  24.690   2.300
22183W        W92783  43.948  42.889   2.161
22184W        W92784  36.388  18.141   2.724
22185W        W92785  38.292  39.474  13.994
22186W        W92786  10.270  39.872   0.656
22187W        W92787  23.677  28.496   4.157
22188W        W92788   8.673  39.880   3.131
22189W        W92789  24.849  15.677  11.031
22190W        W92790  33.527  16.130   0.772
22191W        W92791  20.105  34.072  11.373
22192W        W92792   1.753  16.655   0.721
22193W        W92793  38.281  14.548  10.338
22194W        W92794  39.465  32.848  13.965
22195W        W92795  39.936  33.032  14.061
22196W        W92796  15.296   6.679  11.732
22197W        W92797  34.397  12.047  11.983
22198W        W92798  22.342  20.051  14.447
22199W        W92799  25.970   7.794  11.151
22200W        W92800   4.733  27.754  13.535
22201W        W92801  39.007  16.537   4.532
22202W        W92802  32.644  33.783  12.187
22203W        W92803  11.800  15.436  12.980
22204W        W92804  38.533  24.523   0.984
22205W        W92805  35.527  27.100  13.001
22206W        W92806  27.383  36.419  12.482
22207W        W92807  20.122  12.204  14.923
22208W        W92808  34.404  34.519   0.988
22209W        W92809  23.769  11.449   2.227
22210W        W92810   4.912  14.837  12.403
22211W        W92811  36.849  20.859  11.290
22212W        W92812  24.080   3.538  10.658
22213W        W92813   9.630  18.271   2.223
22214W        W92814  42.888   4.426  13.561
22215W        W92815   7.952  41.982   4.562
22216W        W92816  44.414   2.367  10.365
22217W        W92817   0.739   8.350   4.379
22218W        W92818  33.227  21.422   5.050
22219W        W92819   3.925  44.747  14.320
22220W        W92820  23.546  26.522  11.581
22221W        W92821  11.087  26.337  11.180
22222W        W92822  36.450  24.000  12.091
22223W        W92823   9.084  15.939   0.230
22224W        W92824   5.396  13.616  13.622
22225W        W92825  16.689  28.694  13.354
22226W        W92826   9.153  12.661   3.583
22227W        W92827   8.432   5.053   2.434
22228W        W92828  28.185  15.505  12.971
22229W        W92829  17.358  35.596  13.939
22230W        W92830  37.361  41.393   3.151
22231W        W92831  40.838  43.355  11.704
22232W        W92832   3.740  33.840  14.998
22233W        W92833  15.303  38.167  10.662
22234W        W92834   6.912   9.884  13.349
22235W        W92835  20.384   7.590  11.118
22236W        W92836  15.775   8.749  11.140
22237W        W92837  18.589  15.389  14.908
22238W        W92838  34.992  25.589   3.002
22239W        W92839  10.753  20.482  11.947
22240W        W92840  37.954  44.545  11.556
22241W        W92841  25.837  11.687  10.789
22242W        W92842  25.672   8.326   0.933
22243W        W92843  37.656   1.341  12.857
22244W        W92844  30.007  23.085  12.549
22245W        W92845   4.000  40.522   4.146
22246W        W92846  39.823  18.124  14.114
22247W        W92847  41.046  35.137   2.450
22248W        W92848  28.204  23.786   3.545
22249W        W92849  10.807  35.502   3.246
22250W        W92850  44.646  31.832   2.380
22251W        W92851  19.213  38.274  10.953
22252W        W92852  39.276   0.010   4.090
22253W        W92853  40.524  44.918   1.440
22254W        W92854  26.633  21.281   1.799
22255W        W92855  13.910  31.479   3.564
22256W        W92856  30.136  42.228   0.960
22257W        W92857  36.539  42.991  12.475
22258W        W92858  20.573  43.960  12.251
22259W        W92859  30.832  44.715  14.449
22260W        W92860  30.524  36.982   4.606
22261W        W92861   0.519  34.935  13.354
22262W        W92862   4.680  23.691   0.922
22263W        W92863   3.689  29.849   1.319
22264W        W92864   2.307  40.420  14.555
22265W        W92865  44.212  18.763   0.856
22266W        W92866  12.339  14.133  11.226
22267W        W92867  24.739  32.847  11.988
22268W        W92868  34.395   4.398  13.486
22269W        W92869  27.511  26.016   2.686
22270W        W92870  18.477  37.955   2.433
22271W        W92871  24.618  36.926  11.535
22272W        W92872  39.839   6.009   4.529
22273W        W92873  40.336  27.637  14.702
22274W        W92874  34.081   4.315  14.475
22275W        W92875  14.814  16.755   4.606
22276W        W92876  26.745  15.745   2.403
22277W        W92877  32.434   0.800   2.816
22278W        W92878  28.594  22.978   3.444
22279W        W92879   0.865   6.118   0.136
22280W        W92880   9.800   6.537   1.215
22281W        W92881  31.063   8.888   4.625
22282W        W92882  40.404  21.820  14.682
22283W        W92883  18.681   5.255  14.209
22284W        W92884  23.209  34.805   2.699
22285W        W92885  27.946  12.038   2.325
22286W        W92886  31.574  42.908   0.505
22287W        W92887  41.993   8.961  14.892
22288W        W92888  40.803  30.600  14.385
22289W        W92889  20.885  24.860  11.128
22290W        W92890  21.612  27.245  14.125
22291W        W92891  21.098   4.736   3.807
22292W        W92892   9.385  16.081   2.783
22293W        W92893  26.131   0.799   4.546
22294W        W92894  20.211  26.275   1.978
22295W        W92895  22.481  30.836  12.207
22296W        W92896  13.622   5.007  12.968
22297W        W92897   3.613  42.965   1.960
22298W        W92898  40.035  15.032  14.818
22299W        W92899   2.728  16.829   2.736
22300W        W92900  41.437   8.840  14.325
22301W        W92901  10.323  10.624   2.330
22302W        W92902  22.613  39.923   3.694
22303W        W92903  19.678  43.588  12.587
22304W        W92904  30.965   8.596  10.934
22305W        W92905  42.916   9.912   1.633
22306W        W92906  28.007  18.685   3.008
22307W        W92907  40.067  25.928   0.274
22308W        W92908   5.728  15.382  14.944
22309W        W92909   4.010   4.347  12.590
22310W        W92910   8.760   6.956   4.650
22311W        W92911  17.980  39.024  13.446
22312W        W92912  42.348  42.531   0.451
22313W        W92913  40.309  39.058   2.851
22314W        W92914  25.561  42.609  13.955
22315W        W92915  11.599   9.196  11.087
22316W        W92916  21.973  24.847   4.216
22317W        W92917   9.954   0.162   0.167
22318W        W92918  23.449  29.500   3.252
22319W        W92919   9.215   1.122  13.333
22320W        W92920  22.849  17.643   2.066
22321W        W92921   2.484  14.403  11.507
22322W        W92922  22.060  11.106   3.618
22323W        W92923  40.006  19.307   2.200
22324W        W92924  13.861  25.810  14.260
22325W        W92925  12.734   5.008   3.267
22326W        W92926  21.965  36.686   4.591
22327W        W92927  26.203   4.403  12.987
22328W        W92928  27.679  30.109   4.243
22329W        W92929  23.572   8.911   3.549
22330W        W92930  44.412  26.774  10.653
22331W        W92931  29.606   1.142   2.870
22332W        W92932   7.890   8.308   4.188
22333W        W92933  19.933   6.821  13.490
22334W        W92934  32.497  42.387   4.357
22335W        W92935  19.976  27.010  12.973
22336W        W92936  11.534  20.717  11.051
22337W        W92937  34.927  30.572   3.612
22338W        W92938  36.611  10.324  11.021
22339W        W92939  28.454  39.578   2.266
22340W        W92940  10.135  22.543  14.534
22341W        W92941  21.750   3.798  12.009
22342W        W92942  35.153  10.749  11.495
22343W        W92943  12.892  33.484   2.518
22344W        W92944   3.423  29.557  12.008
22345W        W92945  34.843  11.667   1.785
22346W        W92946  30.611  44.769  10.655
22347W        W92947   3.962  17.314   3.264
22348W        W92948  16.210  39.454   1.407
22349W        W92949  40.476  25.338   4.645
22350W        W92950  36.987  23.433   0.990
22351W        W92951  26.606  23.057  13.430
22352W        W92952  18.102  22.736  14.417
22353W        W92953   6.897  38.181   2.298
22354W        W92954  15.792  36.313  14.484
22355W        W92955  26.610  36.682   5.077
22356W        W92956  12.467  33.647  14.074
22357W        W92957  31.898  33.060  14.225
22358W        W92958   3.457  30.598  11.627
22359W        W92959  42.719   0.420  13.431
22360W        W92960   4.233  29.094   3.093
22361W        W92961  25.483  10.194   2.661
22362W        W92962  35.820  22.208   3.180
22363W        W92963   1.786  40.807   2.006
22364W        W92964  29.684  22.784  11.108
22365W        W92965  11.770  22.169  11.160
22366W        W92966  33.112  39.227   4.607
22367W        W92967   0.717  34.370   1.380
22368W        W92968  43.539  22.184   4.070
22369W        W92969  39.516   6.414  10.413
22370W        W92970  14.742  20.699   3.384
22371W        W92971   2.001  32.188  13.717
22372W        W92972  13.570  29.091  13.522
22373W        W92973  16.624  33.095  10.157
22374W        W92974   0.713  14.365   5.025
22375W        W92975  33.132  40.413  13.512
22376W        W92976  26.613  37.095   2.908
22377W        W92977   9.261  33.263   2.746
22378W        W92978  28.701  42.780   0.360
22379W        W92979   2.688  36.774   0.161
22380W        W92980  26.633   6.356  13.571
22381W        W92981  32.186   8.931   2.324
22382W        W92982   0.503   1.505  10.925
22383W        W92983  11.272  43.310  10.513
22384W        W92984  39.887  13.962  12.269
22385W        W92985  26.450  10.711  11.080
22386W        W92986   9.400  12.131  14.476
22387W        W92987   9.942  19.601   2.746
22388W        W92988   4.789  34.681   4.911
22389W        W92989  41.782  29.150   4.615
22390W        W92990  36.929  23.187   4.559
22391W        W92991   2.816  16.312  14.978
22392W        W92992  33.537  31.441   2.189
22393W        W92993   3.019   4.171   2.729
22394W        W92994  33.999  41.312   0.644
22395W        W92995   9.301  40.413  13.863
22396W        W92996   9.934  18.250   4.609
22397W        W92997  38.014  41.593  10.571
22398W        W92998  22.084  11.301   1.398
22399W        W92999  27.024  36.952   2.604
22400W        W93000  42.349  38.045  12.165
22401W        W93001  32.120   4.865   1.432
22402W        W93002   3.044  40.216  12.928
22403W        W93003   3.674  36.462   3.407
22404W        W93004  14.132  26.944   3.688
22405W        W93005  22.697  30.507  10.815
22406W        W93006  15.057   1.952  10.757
22407W        W93007   8.318  28.950   3.726
22408W        W93008  38.260  25.173  14.312
22409W        W93009   9.197  39.825   3.138
22410W        W93010  33.879  13.235   4.122
22411W        W93011  40.341  27.698   4.043
22412W        W93012  10.208  44.026   4.206
22413W        W93013  17.497  42.489   1.279
22414W        W93014  43.012   1.176   3.459
22415W        W93015  34.360   9.983  12.667
22416W        W93016  11.617  25.406   4.897
22417W        W93017  21.794  28.129   0.918
22418W        W93018   2.861  36.425   0.508
22419W        W93019  25.593  17.251  10.680
22420W        W93020  41.883  31.191   0.301
22421W        W93021   4.957  23.741   3.888
22422W        W93022   2.833  37.588  11.534
22423W        W93023  39.863  13.366  12.873
22424W        W93024  22.452  32.063   2.924
22425W        W93025  20.034  17.547  12.854
22426W        W93026  19.143  18.713   3.241
22427W        W93027  41.664  22.464   0.442
22428W        W93028  12.717  10.289   1.237
22429W        W93029  31.200  38.847  14.991
22430W        W93030  16.169  20.111  13.704
22431W        W93031  23.969  19.946  12.812
22432W        W93032  13.286  25.395  12.062
22433W        W93033  25.303   1.854   1.297
22434W        W93034  35.178  14.708   4.883
22435W        W93035  33.956  29.061   2.734
22436W        W93036  15.183   7.330  12.958
22437W        W93037  30.782  22.188  13.420
22438W        W93038  18.155  43.721  12.771
22439W        W93039   1.407  32.488   3.790
22440W        W93040   2.327  37.600   2.149
22441W        W93041   2.206   3.786  12.856
22442W        W93042  38.135  19.336  12.406
22443W        W93043  12.192  25.161   2.773
22444W        W93044   5.914  30.727   0.717
22445W        W93045  17.259  38.259  12.042
22446W        W93046   4.425  37.399   1.541
22447W        W93047  31.505  21.047   2.287
22448W        W93048  18.736  24.814  13.839
22449W        W93049   8.297  39.079   1.204
22450W        W93050  35.481  23.909   0.479
22451W        W93051  43.034  18.233  14.048
22452W        W93052   9.152  26.970  10.804
22453W        W93053  21.758  14.684  12.417
22454W        W93054  41.390  40.085  14.947
22455W        W93055   3.742  18.842  14.338
22456W        W93056  39.569   5.185   3.832
22457W        W93057  34.911  38.554  11.110
22458W        W93058  40.028  30.032  13.400
22459W        W93059  30.488  10.185  11.671
22460W        W93060  26.549  26.517   3.626
22461W        W93061  21.625   7.345   2.604
22462W        W93062  27.149  29.703  13.191
22463W        W93063  29.175  36.396   4.093
22464W        W93064   1.331  10.706   2.185
22465W        W93065  11.871  38.520  14.032
22466W        W93066  38.753  40.651   5.157
22467W        W93067  15.393  43.321   1.172
22468W        W93068   7.544  41.975   3.317
22469W        W93069   0.841  28.428  13.824
22470W        W93070   9.345  18.077  10.631
22471W        W93071  14.875  40.296   1.885
22472W        W93072   3.429  33.170  10.236
22473W        W93073  10.013  33.541  11.155
22474W        W93074  22.447  10.942  11.656
22475W        W93075  31.737  33.448  12.639
22476W        W93076  42.358   6.706   4.260
22477W        W93077  37.607   5.883  11.164
22478W        W93078  44.150   5.734   9.877
22479W        W93079  26.111  19.122   4.925
22480W        W93080  43.822  31.104  10.930
22481W        W93081   5.925  40.698   5.167
22482W        W93082  24.951  18.188  10.688
22483W        W93083   2.017   9.853  14.897
22484W        W93084  28.389   7.299  10.601
22485W        W93085   9.398   0.266  12.622
22486W        W93086  36.677  39.810   1.240
22487W        W93087  24.605  41.495   0.242
22488W        W93088  13.229  42.370  13.658
22489W        W93089  26.930  24.602  13.601
22490W        W93090  27.940   0.318  14.935
22491W        W93091   5.106  19.988   3.201
22492W        W93092  24.076  13.747  11.018
22493W        W93093  12.161  10.942  14.390
22494W        W93094  26.410  11.215   2.799
22495W        W93095  44.439   3.386  12.085
22496W        W93096  17.175  41.551   4.093
22497W        W93097  22.390  21.054  12.311
22498W        W93098   5.354  28.757  11.130
22499W        W93099  41.508   6.284   5.439
22500W        W93100  37.858  22.935  10.726
22501W        W93101  22.136   4.987  11.115
22502W        W93102   7.325  29.661   4.559
22503W        W93103  12.342  37.792  10.687
22504W        W93104   7.702  22.592  10.598
22505W        W93105  35.621  38.007  11.498
22506W        W93106  33.600  12.422  13.463
22507W        W93107  40.090  44.468  12.082
22508W        W93108  43.004  29.365  14.201
22509W        W93109  30.895   2.210   1.968
22510W        W93110  26.136  27.918   4.133
22511W        W93111  26.605  30.911   4.744
22512W        W93112  21.986  42.504   1.497
22513W        W93113  25.553  39.314   1.481
22514W        W93114  26.857  18.020  11.571
22515W        W93115  44.375  19.016  14.829
22516W        W93116  28.161   3.841   1.329
22517W        W93117  23.149  12.956   1.817
22518W        W93118  40.744  14.735   4.270
22519W        W93119   8.189  43.856  12.579
22520W        W93120  34.720   0.723   2.770
22521W        W93121  16.382  30.486  14.643
22522W        W93122  14.644   1.230  10.786
22523W        W93123   5.118  12.561   1.290
22524W        W93124  15.117  29.265   3.238
22525W        W93125  37.532   8.769  11.933
22526W        W93126  24.958  31.085   2.672
22527W        W93127  31.130  10.751   0.966
22528W        W93128  19.834  43.555   4.030
22529W        W93129  38.830  30.613   2.786
22530W        W93130  34.422  33.026  13.682
22531W        W93131  13.720  28.982   3.099
22532W        W93132  18.237  18.807   3.115
22533W        W93133  32.682  33.566  10.658
22534W        W93134  20.243  23.507  14.799
22535W        W93135  30.531  19.416   0.158
22536W        W93136  37.501  33.193  12.095
22537W        W93137  13.634  22.540  14.051
22538W        W93138   3.247  28.948   3.092
22539W        W93139  30.448   3.818   4.980
22540W        W93140   4.841  32.620   1.406
22541W        W93141  30.592  36.181   2.822
22542W        W93142  41.482  36.710  13.789
22543W        W93143  37.041   6.664  11.756
22544W        W93144  43.297  19.564   3.636
22545W        W93145  14.779  35.995   3.218
22546W        W93146   8.603  33.413  12.403
22547W        W93147  42.974  14.555   4.143
22548W        W93148  30.664  27.463   3.219
22549W        W93149   0.874  30.946   3.162
22550W        W93150   5.962  19.111  14.811
22551W        W93151  20.738   4.178   1.231
22552W        W93152  11.135  26.667  12.020
22553W        W93153   6.343  26.105  11.522
22554W        W93154  32.317  23.631  14.907
22555W        W93155  36.062  20.674   3.321
22556W        W93156  31.247  25.635  11.215
22557W        W93157  21.327  20.080   5.057
22558W        W93158   7.643  41.059   1.362
22559W        W93159  24.797  27.655  10.694
22560W        W93160  19.742   7.746   1.694
22561W        W93161  41.441  28.914  13.141
22562W        W93162  19.864  26.014  14.493
22563W        W93163  27.763  18.205  14.844
22564W        W93164  20.177  10.945   2.390
22565W        W93165  24.793   1.834  12.403
22566W        W93166  20.310  29.173  13.995
22567W        W93167   1.935  25.607  13.662
22568W        W93168   6.918   3.474  10.754
22569W        W93169   0.885  43.204   0.827
22570W        W93170  40.679  10.302   4.648
22571W        W93171  40.648  23.813   0.097
22572W        W93172  37.560   1.326   2.189
22573W        W93173  25.346  44.729   9.586
22574W        W93174  39.439  11.393   1.853
22575W        W93175  27.745  15.111  13.953
22576W        W93176  29.907   9.885   3.456
22577W        W93177  36.402  26.386   5.010
22578W        W93178   2.400  16.253  14.082
22579W        W93179  11.911  36.083  11.561
22580W        W93180   7.940   8.620  14.258
22581W        W93181   9.272  30.448   4.093
22582W        W93182  37.490  16.917  10.385
22583W        W93183  27.878   8.666   4.241
22584W        W93184   6.210  27.402   2.430
22585W        W93185  36.511   6.892  14.050
22586W        W93186  39.970  36.351   0.022
22587W        W93187  11.921  30.477  13.123
22588W        W93188  38.935  44.349   2.416
22589W        W93189  29.335  43.050  12.363
22590W        W93190  42.220  28.452   2.459
22591W        W93191   3.960  27.401   2.776
22592W        W93192   6.245   3.810  14.933
22593W        W93193  16.584  39.337   0.171
22594W        W93194  28.926   6.696  13.002
22595W        W93195  27.782  35.068  11.563
22596W        W93196  31.128   5.675  10.917
22597W        W93197  13.317  28.464  11.945
22598W        W93198  23.773  42.327   1.249
22599W        W93199  16.229  18.308   0.374
22600W        W93200  40.456  27.137   3.164
22601W        W93201  25.393  19.015   0.504
22602W        W93202  29.445  14.061  11.697
22603W        W93203  24.187  31.087   0.800
22604W        W93204   4.302   9.639   3.164
22605W        W93205  34.741   6.284  13.235
22606W        W93206  24.429  22.641  13.702
22607W        W93207  14.766  23.438   5.115
22608W        W93208  30.437   2.225   4.998
22609W        W93209  43.054   1.363   2.953
22610W        W93210  19.322  15.217  13.662
22611W        W93211   0.987  33.043  13.396
22612W        W93212  30.727  44.023  14.807
22613W        W93213   7.797   2.382   3.232
22614W        W93214   8.486  15.124  13.478
22615W        W93215   5.836  26.266  12.790
22616W        W93216  21.132   3.358   0.939
22617W        W93217   0.041  19.746  11.170
22618W        W93218  28.214  21.818  13.017
22619W        W93219  38.512  17.613   1.471
22620W        W93220   3.787  16.336   1.340
22621W        W93221   2.488  37.113  14.847
22622W        W93222  30.082  35.911  13.293
22623W        W93223   1.085  43.759   1.356
22624W        W93224  12.773  15.026  12.937
22625W        W93225  34.209  24.841   0.887
22626W        W93226  41.953  34.633   2.259
22627W        W93227  30.550  32.293   0.865
22628W        W93228  31.319  22.197  13.451
22629W        W93229  37.515  16.237   2.344
22630W        W93230  25.929  18.715  14.928
22631W        W93231  10.595  18.062   2.393
22632W        W93232  12.204   7.420   3.662
22633W        W93233  11.755  29.169  12.635
22634W        W93234  11.395  13.073   0.905
22635W        W93235  33.295  16.389   3.354
22636W        W93236  10.557  38.021   4.264
22637W        W93237  20.527   2.346  12.968
22638W        W93238  35.040  29.674  13.386
22639W        W93239   3.447  44.925  14.338
22640W        W93240  15.202  32.253  11.424
22641W        W93241  28.489   7.333  14.455
22642W        W93242  38.114  26.060  11.792
22643W        W93243   9.158  16.059  13.220
22644W        W93244   6.151  35.466   2.173
22645W        W93245  11.366  33.958   1.277
22646W        W93246   9.629   4.811  14.461
22647W        W93247  13.178  22.401  13.834
22648W        W93248  44.953  34.048  10.984
22649W        W93249  33.566  36.476   4.845
22650W        W93250  28.550   2.298  10.812
22651W        W93251  34.056  36.879   1.743
22652W        W93252  21.930  10.488   0.956
22653W        W93253  14.244  35.065  14.897
22654W        W93254  11.336  24.216  10.761
22655W        W93255  30.327  30.424   4.646
22656W        W93256  43.536   6.650  14.981
22657W        W93257  34.568  44.751   3.537
22658W        W93258  38.833  42.762   0.249
22659W        W93259   4.390  42.540  11.215
22660W        W93260  14.866   7.990   0.991
22661W        W93261  23.712  44.391  13.466
22662W        W93262  16.653  36.967   1.440
22663W        W93263  37.796  39.376   4.049
22664W        W93264  18.233  43.489  14.605
22665W        W93265  37.959  18.545   4.034
22666W        W93266  34.065  20.667   3.862
22667W        W93267  34.018  28.953  10.699
22668W        W93268  42.494  25.548   3.424
22669W        W93269  36.397   4.734   4.773
22670W        W93270  12.332  17.197   4.626
22671W        W93271  38.747   8.106   1.491
22672W        W93272  31.967   2.947  12.388
22673W        W93273  38.116   5.917   1.904
22674W        W93274  31.886  15.327   2.416
22675W        W93275  18.167  42.527   2.986
22676W        W93276  42.063  38.435   4.620
22677W        W93277  36.931  17.632  11.643
22678W        W93278   0.184   3.696  13.117
22679W        W93279  30.936  10.708  13.580
22680W        W93280  23.525  20.716  13.101
22681W        W93281  14.084  40.920   1.741
22682W        W93282   7.422  18.548  10.599
22683W        W93283  39.346  44.270  13.404
22684W        W93284  32.059  31.433   4.593
22685W        W93285  19.668   5.134  11.518
22686W        W93286  37.641   0.939   0.486
22687W        W93287  37.489  15.548   4.556
22688W        W93288  17.263  35.382  14.797
22689W        W93289  29.012  12.283  14.856
22690W        W93290  36.974   3.165   3.220
22691W        W93291  36.793   3.523  12.197
22692W        W93292  25.708  36.011  12.897
22693W        W93293   0.699  21.868   3.817
22694W        W93294  30.908   6.861  11.958
22695W        W93295  15.605   2.889  10.737
22696W        W93296  17.070   0.241  11.487
22697W        W93297   6.436   1.096   4.269
22698W        W93298  26.261  26.932  10.321
22699W        W93299  29.890   5.435   1.298
22700W        W93300   3.025  11.281  12.086
22701W        W93301  31.162   0.711  14.506
22702W        W93302  10.788  26.406   2.112
22703W        W93303   4.638  41.327  14.294
22704W        W93304  39.237  21.525   1.795
22705W        W93305  42.321  27.377  11.510
22706W        W93306   1.548  38.048   4.211
22707W        W93307  18.612   3.916   1.702
22708W        W93308  24.304  39.454  14.505
22709W        W93309  33.119  22.752   3.704
22710W        W93310  40.298  35.707   0.688
22711W        W93311   8.318  42.485  11.958
22712W        W93312  25.070   6.811   1.907
22713W        W93313   8.164  39.337   3.699
22714W        W93314  16.612  15.606   2.930
22715W        W93315  26.726  28.551  11.339
22716W        W93316  13.412   3.411   0.809
22717W        W93317  21.952  25.906  11.435
22718W        W93318   4.401  40.346   1.876
22719W        W93319  26.553   0.992   2.193
22720W        W93320   2.431  35.071  13.446
22721W        W93321   0.934  13.532  10.807
22722W        W93322  35.930  35.828  12.566
22723W        W93323  25.878   4.355   1.652
22724W        W93324  30.400  35.794  14.214
22725W        W93325  41.179  35.909   2.670
22726W        W93326  12.919  19.848  13.415
22727W        W93327  18.744  33.091   2.570
22728W        W93328  27.670   3.346  12.398
22729W        W93329   4.489  36.226   3.201
22730W        W93330   2.702   6.764   2.759
22731W        W93331   3.169  20.133  10.999
22732W        W93332  41.805   8.698   4.647
22733W        W93333  10.442   9.232  14.745
22734W        W93334  40.346  11.684   4.620
22735W        W93335  16.447   4.119   2.786
22736W        W93336   5.188   5.882   2.400
22737W        W93337  44.339   0.417  10.602
22738W        W93338   6.185  33.498  11.923
22739W        W93339   3.007  26.442  13.366
22740W        W93340  32.463  12.342   0.836
22741W        W93341  14.196  44.534   0.310
22742W        W93342  20.989  20.472   3.410
22743W        W93343   9.924  34.733  14.583
22744W        W93344   8.980  30.200   2.259
22745W        W93345  29.322   0.045   2.841
22746W        W93346   1.754  35.676   0.390
22747W        W93347  15.535  28.867  12.986
22748W        W93348  22.119  23.992  10.586
22749W        W93349  11.068  29.134   3.106
22750W        W93350  42.388  20.953  12.636
22751W        W93351   3.916   2.370   1.842
22752W        W93352   1.462   1.898  12.429
22753W        W93353  41.536   9.374  10.634
22754W        W93354  26.635  18.049   2.086
22755W        W93355  29.993  31.086  11.897
22756W        W93356  13.079  25.086  14.912
22757W        W93357  38.915  12.965  12.873
22758W        W93358  18.124  30.683  13.806
22759W        W93359  36.397  35.571  13.122
22760W        W93360  22.240   9.959   9.686
22761W        W93361  13.312  11.824  11.556
22762W        W93362   6.766  34.928  13.064
22763W        W93363  14.364  26.997  13.336
22764W        W93364  22.581  24.287  14.209
22765W        W93365   8.968  14.712   4.785
22766W        W93366  28.572  30.902   4.925
22767W        W93367  40.519  17.111   2.415
22768W        W93368   2.717  20.563  12.487
22769W        W93369  43.077  23.086   1.547
22770W        W93370  10.852  30.073  12.895
22771W        W93371  36.712   3.301  14.636
22772W        W93372  32.924  39.994   3.184
22773W        W93373  36.830   5.702  14.931
22774W        W93374   4.734   6.122   1.672
22775W        W93375  14.712  14.581   1.268
22776W        W93376  15.327  30.091   1.203
22777W        W93377  44.283  13.250   3.251
22778W        W93378  41.030  10.434   3.398
22779W        W93379  10.742  43.166  12.217
22780W        W93380  34.806  30.182   2.782
22781W        W93381  22.275  27.068  11.984
22782W        W93382  32.313  31.807  11.156
22783W        W93383   7.722   8.115   0.225
22784W        W93384  29.460  43.567   1.257
22785W        W93385   0.417   7.041  11.552
22786W        W93386  17.487  31.984  12.556
22787W        W93387  16.040   5.697  12.852
22788W        W93388   7.212  28.645   2.319
22789W        W93389   7.866  23.089   2.153
22790W        W93390  17.056  19.556   2.317
22791W        W93391  20.135  19.271  12.517
22792W        W93392  27.012  44.281   2.043
22793W        W93393  40.508   0.200  12.772
22794W        W93394  13.703  43.706  13.123
22795W        W93395  38.804  39.137   4.212
22796W        W93396  31.737   7.359  12.903
22797W        W93397  39.529  43.981  13.008
22798W        W93398  10.365  29.032   0.904
22799W        W93399  18.758  34.454   0.051
22800W        W93400  26.653  17.713   3.807
22801W        W93401  34.412  42.896   3.994
22802W        W93402   7.813  16.499  14.943
22803W        W93403  13.703  43.498   3.869
22804W        W93404  25.451   4.359   1.968
22805W        W93405  22.229   8.545   4.481
22806W        W93406  24.536  24.047   2.181
22807W        W93407  12.390  13.934   3.841
22808W        W93408   2.765  37.701   0.301
22809W        W93409  41.903  10.123   3.931
22810W        W93410  33.165   0.862  12.017
22811W        W93411  33.635  42.801  14.523
22812W        W93412  19.602  37.568  13.759
22813W        W93413  36.224  41.813   2.668
22814W        W93414  38.990  20.695  12.086
22815W        W93415  39.133  25.108   3.715
22816W        W93416  41.019  15.314  13.386
22817W        W93417  43.755  16.551  11.509
22818W        W93418  13.315  37.296  10.738
22819W        W93419  34.199  37.607   2.236
22820W        W93420  10.793   2.548   3.739
22821W        W93421  37.901  34.987  10.546
22822W        W93422  43.053   6.510  13.311
22823W        W93423  10.042  41.137  14.531
22824W        W93424   4.536  37.224   2.981
22825W        W93425   0.439  27.750   4.146
22826W        W93426  32.598  26.979  12.402
22827W        W93427   6.624  11.160   2.851
22828W        W93428  20.105  21.469  13.961
22829W        W93429  14.872  27.679   0.757
22830W        W93430  23.026  16.994  13.494
22831W        W93431  37.455  42.501  12.174
22832W        W93432  21.711  19.511  14.340
22833W        W93433  26.244  13.210  13.077
22834W        W93434  23.513  32.470   0.012
22835W        W93435  30.424   1.902  10.670
22836W        W93436  20.991  35.808  12.958
22837W        W93437  32.664  37.402   4.147
22838W        W93438  38.082   6.685   1.822
22839W        W93439   2.167   1.713  14.480
22840W        W93440  27.435  37.643   4.603
22841W        W93441   0.412  35.393   2.649
22842W        W93442  31.895  19.742  13.918
22843W        W93443   7.385  30.110   1.270
22844W        W93444  35.359  20.006  13.500
22845W        W93445  26.159   2.165  14.063
22846W        W93446  23.532  35.580  11.143
22847W        W93447  34.428  31.634  14.411
22848W        W93448  12.775  27.499  12.750
22849W        W93449  20.029  44.798   1.065
22850W        W93450   8.801  14.742  13.311
22851W        W93451  17.045  16.213  14.856
22852W        W93452  14.501  26.070  12.200
22853W        W93453  18.240  18.714  11.467
22854W        W93454  30.018  43.606   2.705
22855W        W93455  12.782  11.823  13.758
22856W        W93456  39.033  38.905   0.375
22857W        W93457  20.684  35.422  12.890
22858W        W93458   1.985  33.422   3.206
22859W        W93459  36.789  20.693  12.022
22860W        W93460   6.312  28.649   4.125
22861W        W93461  35.609  20.001  11.488
22862W        W93462   8.657  14.576   0.030
22863W        W93463  17.125  14.378  12.721
22864W        W93464   6.867  22.916  14.268
22865W        W93465  12.635  29.313  14.555
22866W        W93466   6.756  20.664  14.856
22867W        W93467  23.992  11.244   4.150
22868W        W93468  24.273  28.164  12.878
22869W        W93469  13.010  22.287  11.609
22870W        W93470  23.533  18.788  14.426
22871W        W93471   5.315  17.700   2.660
22872W        W93472  41.548   9.801  13.253
22873W        W93473  19.996   1.344   4.624
22874W        W93474  44.290   4.348  10.241
22875W        W93475  14.725  11.397   0.057
22876W        W93476  35.139  34.572   1.996
22877W        W93477   6.701  43.862   0.823
22878W        W93478  14.846   7.157   3.291
22879W        W93479  29.466  43.832  10.954
22880W        W93480  26.292  31.828   1.902
22881W        W93481   7.503   3.222  12.040
22882W        W93482  29.467  38.868  11.985
22883W        W93483  24.364   7.297   4.878
22884W        W93484   3.811  28.111  10.268
22885W        W93485  29.897  23.034  13.936
22886W        W93486  32.924  38.583   4.093
22887W        W93487  22.632  37.919   3.004
22888W        W93488  37.791  34.846   5.092
22889W        W93489  36.431  17.123   3.535
22890W        W93490  31.614  42.462   0.211
22891W        W93491  36.646  24.103  10.749
22892W        W93492   3.240  13.616   0.896
22893W        W93493   1.687  11.284   2.862
22894W        W93494  17.158   6.012  11.104
22895W        W93495  38.846  16.671  14.443
22896W        W93496   2.784  44.309   2.765
22897W        W93497  43.325   7.551  13.156
22898W        W93498  35.529  18.551  11.542
22899W        W93499  42.116  44.013  13.940
22900W        W93500   2.003  12.256   2.278
22901W        W93501  33.822  31.988  14.013
22902W        W93502  33.354  24.843   1.182
22903W        W93503  22.201  37.414   4.077
22904W        W93504   8.817  43.525  14.489
22905W        W93505   3.313   2.987   2.457
22906W        W93506   4.293  25.581  11.345
22907W        W93507  37.745  26.502   2.087
22908W        W93508  42.358  26.500  14.809
22909W        W93509  31.520  28.095  10.687
22910W        W93510  41.477   8.280  12.489
22911W        W93511   4.497  26.590  14.280
22912W        W93512  30.565  13.536  12.992
22913W        W93513  41.498  37.967   2.315
22914W        W93514   0.511  38.123   4.863
22915W        W93515  26.985  44.931   0.326
22916W        W93516   4.146  36.667  11.073
22917W        W93517  40.919  29.520   2.984
22918W        W93518  39.981  38.613   1.104
22919W        W93519  19.559  35.392  14.481
22920W        W93520  24.216  29.058  11.973
22921W        W93521   2.865  25.541  13.265
22922W        W93522   8.305  18.747  10.636
22923W        W93523  22.719  20.235  13.560
22924W        W93524  39.909  13.360  13.889
22925W        W93525  22.021  11.103  12.380
22926W        W93526   7.925  25.558   0.743
22927W        W93527  15.631  13.634  14.969
22928W        W93528  42.542   0.880  14.216
22929W        W93529  37.584   6.369  11.337
22930W        W93530  29.527  24.393  10.432
22931W        W93531  13.202  18.320  14.557
22932W        W93532  15.749  21.484  10.119
22933W        W93533  21.094  38.835  14.862
22934W        W93534  22.179   0.270  12.466
22935W        W93535  44.779   3.318   1.476
22936W        W93536   0.206  16.056   2.291
22937W        W93537   7.408  11.719   1.536
22938W        W93538   8.048  41.965  14.127
22939W        W93539   9.193  34.793   2.832
22940W        W93540  42.339  14.624  11.711
22941W        W93541  26.957   7.365   3.681
22942W        W93542  19.010  12.937  12.699
22943W        W93543  39.137  37.582  10.662
22944W        W93544  31.350  31.029   4.131
22945W        W93545  36.888  41.120  13.428
22946W        W93546   1.876  23.225  12.642
22947W        W93547  36.827  19.098   3.669
22948W        W93548  21.201  37.777   1.374
22949W        W93549  23.239  36.860   2.856
22950W        W93550   7.368   4.912   4.200
22951W        W93551   8.218   0.458  14.416
22952W        W93552  34.124  41.195  11.732
22953W        W93553  21.033  17.401   4.080
22954W        W93554  38.755  13.594   4.583
22955W        W93555   6.116  38.803  14.306
22956W        W93556   0.399  22.153  11.860
22957W        W93557  15.277  42.938  14.418
22958W        W93558  18.485  21.498  13.024
22959W        W93559  37.435  15.096  11.083
22960W        W93560  41.191  15.644  11.685
22961W        W93561  18.623   8.322  11.244
22962W        W93562  33.662   4.818   1.455
22963W        W93563  25.582   6.570   1.422
22964W        W93564  18.422  30.932  12.174
22965W        W93565  25.566  21.768  13.537
22966W        W93566  14.644  30.925  14.163
22967W        W93567  44.826  30.391  12.954
22968W        W93568   5.026  23.793   4.391
22969W        W93569  21.212  11.143  14.075
22970W        W93570   0.199   9.120   2.826
22971W        W93571  21.474   1.230   4.114
22972W        W93572  37.007   0.962   4.329
22973W        W93573   3.338  32.635   3.658
22974W        W93574  17.314  25.590   2.228
22975W        W93575  17.082   7.733  12.085
22976W        W93576  18.201  22.681  11.630
22977W        W93577  33.939   7.106  10.402
22978W        W93578  32.409   9.341   3.850
22979W        W93579  38.607  19.183   2.244
22980W        W93580  19.524  17.184  12.944
22981W        W93581  17.704   1.961   0.300
22982W        W93582  42.056  24.948  12.433
22983W        W93583  21.406   4.916   4.194
22984W        W93584   5.469  16.213  11.947
22985W        W93585  38.267  34.896  11.980
22986W        W93586  16.635   0.120   3.284
22987W        W93587  15.372   4.881  13.577
22988W        W93588  39.781  19.275  11.975
22989W        W93589  27.399  11.675   0.458
22990W        W93590  24.716  32.187   3.232
22991W        W93591  19.455  39.350   3.281
22992W        W93592  30.558  10.916  12.239
22993W        W93593  33.509  42.631  14.039
22994W        W93594  24.540  11.210  14.945
22995W        W93595  29.276   1.788   4.687
22996W        W93596  34.169  14.563   1.740
22997W        W93597  18.215  16.827   3.248
22998W        W93598  14.346  35.470   0.189
22999W        W93599   2.670   1.050   0.813
23000W        W93600   5.871  16.797   0.456
23001W        W93601   1.450  15.038   2.016
23002W        W93602  15.363   5.664   3.258
23003W        W93603  24.052   7.067   4.513
23004W        W93604   5.201  18.674   3.077
23005W        W93605  28.898  10.648  13.444
23006W        W93606  39.455  27.682  12.052
23007W        W93607  18.711  28.469  11.572
23008W        W93608  39.497   6.824  11.231
23009W        W93609  28.135  13.943  10.650
23010W        W93610  33.384  39.496   1.457
23011W        W93611  17.384   3.814  14.350
23012W        W93612  43.421  35.844   0.216
23013W        W93613   5.445   6.384  12.549
23014W        W93614  17.367  44.377   3.200
23015W        W93615  42.800   8.878  13.922
23016W        W93616  36.046   1.855   3.687
23017W        W93617   2.737  42.091  14.954
23018W        W93618  28.782  22.974   0.368
23019W        W93619  43.070  37.245   3.268
23020W        W93620  21.806  18.450  13.886
23021W        W93621   3.904  41.832   3.469
23022W        W93622  28.608  24.913   3.555
23023W        W93623  24.484  42.481  13.123
23024W        W93624  13.579  38.786  14.959
23025W        W93625   7.286  32.822   2.117
23026W        W93626  27.523   5.740  14.422
23027W        W93627  44.962  11.654   3.211
23028W        W93628   0.003   3.923  11.026
23029W        W93629  27.456  11.150   2.833
23030W        W93630   7.574   9.104   1.536
23031W        W93631  28.502   9.223   2.190
23032W        W93632  36.599   6.432  12.690
23033W        W93633  21.076  38.139   2.809
23034W        W93634  30.033  15.610  11.634
23035W        W93635  14.733  21.426   4.938
23036W        W93636  23.689  28.636   2.783
23037W        W93637  16.991  30.070   4.591
23038W        W93638   8.275  44.318   2.920
23039W        W93639  35.031  27.373  13.781
23040W        W93640  15.086  30.883   0.784
23041W        W93641  27.982  18.083   4.148
23042W        W93642  35.063  29.013  10.801
23043W        W93643  16.533  22.574   4.208
23044W        W93644  19.618   3.370  13.030
23045W        W93645   8.265  29.450   3.758
23046W        W93646  28.391  15.652  13.460
23047W        W93647   3.951  21.609  10.643
23048W        W93648  16.550  10.868   4.509
23049W        W93649   5.444  28.552   2.670
23050W        W93650  20.514  23.573   1.695
23051W        W93651  43.933  37.065   3.400
23052W        W93652  17.659  14.703  12.452
23053W        W93653   5.354   6.783   4.169
23054W        W93654  32.886  15.183  14.380
23055W        W93655  17.771  30.440   4.793
23056W        W93656  22.171   2.668   4.160
23057W        W93657   9.210  24.523   1.720
23058W        W93658  21.046  28.923   4.215
23059W        W93659  34.004  19.445  13.816
23060W        W93660   9.836  27.588   0.144
23061W        W93661  19.755  37.403  10.637
23062W        W93662   3.835  23.238  11.094
23063W        W93663   8.451  35.460  13.986
23064W        W93664   1.717  10.666  10.560
23065W        W93665  44.401  27.065  12.584
23066W        W93666  11.165  19.435   1.229
23067W        W93667  14.642  10.776  14.272
23068W        W93668  40.949   8.977   2.903
23069W        W93669  43.312  35.956  12.567
23070W        W93670  13.779  40.553  14.288
23071W        W93671  20.739  19.270   4.947
23072W        W93672  26.255  20.335  11.000
23073W        W93673  15.261  11.637  10.116
23074W        W93674  36.064   4.141  14.351
23075W        W93675  32.358  30.013   2.794
23076W        W93676  24.774  43.788  14.790
23077W        W93677  22.646  19.737   5.034
23078W        W93678  15.307  28.131  13.829
23079W        W93679  12.790  31.569   4.675
23080W        W93680   0.480  30.364  10.626
23081W        W93681  21.603  38.549   2.960
23082W        W93682  43.017  31.229   1.364
23083W        W93683  34.344  18.213   3.875
23084W        W93684   6.445  22.616   2.886
23085W        W93685  18.436  31.551   1.502
23086W        W93686  37.659  19.095   0.166
23087W        W93687   6.807  36.969  12.224
23088W        W93688  18.453  15.184  14.310
23089W        W93689   5.789  15.853  12.647
23090W        W93690  28.747  24.508  12.402
23091W        W93691  17.366   5.782  13.422
23092W        W93692  26.048  43.531  12.633
23093W        W93693  27.760  22.524   0.740
23094W        W93694  24.592  19.585  14.352
23095W        W93695  11.276  13.709  13.782
23096W        W93696  27.683  18.255   1.005
23097W        W93697  33.122  24.209  13.931
23098W        W93698  28.283  20.105  13.511
23099W        W93699  17.212  10.574  13.340
23100W        W93700  28.996  37.757   4.064
23101W        W93701  36.968  14.749  12.647
23102W        W93702  14.121  28.729   3.755
23103W        W93703   7.620  37.896  10.708
23104W        W93704   1.333  25.207  11.477
23105W        W93705  23.715  37.319  13.395
23106W        W93706  39.466  27.784   2.881
23107W        W93707  33.000   4.177  11.072
23108W        W93708  14.828  37.977   4.233
23109W        W93709  18.144  29.727   1.283
23110W        W93710  33.761  39.021   3.523
23111W        W93711  32.527  40.344   2.359
23112W        W93712   1.859  31.508  12.533
23113W        W93713  35.566  39.984   2.904
23114W        W93714   5.341  41.852   0.887
23115W        W93715  12.855  40.333   1.912
23116W        W93716  31.547  18.023   4.853
23117W        W93717   4.771  15.392  13.961
23118W        W93718  23.243  32.818  12.901
23119W        W93719   8.820  26.406   3.736
23120W        W93720   6.260  43.894  14.343
23121W        W93721  28.178  35.778   4.136
23122W        W93722  33.963  22.499   4.384
23123W        W93723  32.016  10.270  14.736
23124W        W93724   2.471  44.390   0.148
23125W        W93725  36.296  37.921  10.934
23126W        W93726  42.452  10.854   2.390
23127W        W93727  38.063  27.158  14.708
23128W        W93728  31.676  38.111   1.946
23129W        W93729  19.118  18.968  14.778
23130W        W93730  36.440  42.715  12.053
23131W        W93731  36.736  42.584   4.204
23132W        W93732  12.229   8.686  12.496
23133W        W93733  19.249  26.878   3.283
23134W        W93734  25.182  19.079   3.842
23135W        W93735   2.186   6.763   2.736
23136W        W93736  16.160   6.324   0.145
23137W        W93737  34.417  38.745   3.683
23138W        W93738   3.531  37.276   1.183
23139W        W93739  43.939  33.097   4.117
23140W        W93740  18.347   1.330  12.049
23141W        W93741  28.386  26.289   2.120
23142W        W93742  16.638  18.262   4.496
23143W        W93743  20.544  21.263  12.141
23144W        W93744  30.710  34.029   2.233
23145W        W93745  40.487   2.306  10.481
23146W        W93746  23.755  31.369   2.078
23147W        W93747   0.670  22.689   3.559
23148W        W93748  41.998  42.563  12.582
23149W        W93749  32.804  15.253  12.105
23150W        W93750  38.963   0.500  13.589
23151W        W93751  41.879  16.885  13.392
23152W        W93752   4.898  13.713  14.493
23153W        W93753  11.410  23.591   3.670
23154W        W93754  19.718  16.503   3.071
23155W        W93755  41.913  14.072   0.319
23156W        W93756  33.261  15.538  12.402
23157W        W93757  43.824  10.459   3.767
23158W        W93758  12.091   4.775   1.724
23159W        W93759  23.179   7.957  14.340
23160W        W93760  18.576  42.071  13.787
23161W        W93761  37.083  44.485   4.129
23162W        W93762  36.026  30.499  12.991
23163W        W93763  34.162  27.041  10.589
23164W        W93764  33.906  29.419  13.041
23165W        W93765   8.046  34.354   1.749
23166W        W93766  43.717  14.800  12.500
23167W        W93767  32.958  16.285   4.644
23168W        W93768  34.405  28.436  12.424
23169W        W93769  27.676  40.811   4.933
23170W        W93770  29.390  41.530  10.808
23171W        W93771  25.408  32.899  10.513
23172W        W93772  10.881   7.283  12.112
23173W        W93773  19.217  25.544   3.880
23174W        W93774  13.920  11.662   2.022
23175W        W93775  44.104  31.470  14.064
23176W        W93776  39.975  44.459   4.251
23177W        W93777  43.476  27.723  14.821
23178W        W93778  37.958   8.894  12.186
23179W        W93779  29.089  37.952   4.538
23180W        W93780   2.522  32.503   3.142
23181W        W93781  19.711  33.215   2.124
23182W        W93782   9.150  13.531  13.310
23183W        W93783  29.159   9.439   2.832
23184W        W93784  18.092  39.632   4.607
23185W        W93785  24.985  24.036  12.359
23186W        W93786  38.067  29.453  13.343
23187W        W93787   6.392  24.033  14.372
23188W        W93788  16.715  25.443  10.212
23189W        W93789  12.117  10.724   1.187
23190W        W93790  44.247  16.338  11.644
23191W        W93791  10.720  14.287   0.922
23192W        W93792   5.711  23.451  14.844
23193W        W93793   7.434   9.847  13.373
23194W        W93794  44.974  29.118   1.853
23195W        W93795   0.284  41.801   2.223
23196W        W93796  16.004  42.924   3.038
23197W        W93797   6.937  17.271  12.549
23198W        W93798  23.080  28.189  14.366
23199W        W93799  23.012  15.622   1.391
23200W        W93800  11.124  34.601  13.509
23201W        W93801  39.877  41.084   2.223
23202W        W93802  25.089  39.541   2.181
23203W        W93803  44.240  25.475  11.081
23204W        W93804   6.922  44.344   1.948
23205W        W93805  16.200   3.665  11.174
23206W        W93806  39.755  16.200   3.989
23207W        W93807  35.850  22.495   2.615
23208W        W93808  23.718  36.538  14.329
23209W        W93809  28.631   6.270   1.877
23210W        W93810   2.206  27.224   1.357
23211W        W93811   3.956  13.820  14.865
23212W        W93812  28.945  12.740   3.669
23213W        W93813  18.619  12.197   0.135
23214W        W93814  40.286  30.147  14.800
23215W        W93815  39.940  29.516   0.519
23216W        W93816   6.804   6.334  12.220
23217W        W93817   2.718  30.366  13.389
23218W        W93818  39.033  17.208  11.736
23219W        W93819  38.353  15.563   3.398
23220W        W93820  15.882  34.389   1.105
23221W        W93821  40.856  15.243   2.246
23222W        W93822   7.309  31.057   1.890
23223W        W93823   9.844  34.654  12.094
23224W        W93824  29.132  16.737  14.280
23225W        W93825   9.399  36.086  13.341
23226W        W93826   7.648  28.319   2.257
23227W        W93827  33.354  16.598   2.440
23228W        W93828  11.836  37.472   1.809
23229W        W93829  31.947  32.024   1.924
23230W        W93830  14.749  41.455   5.381
23231W        W93831  18.455  28.240   2.166
23232W        W93832  28.902  30.136  11.629
23233W        W93833  28.955  44.016  11.766
23234W        W93834  26.444  32.003   3.821
23235W        W93835  13.726  12.604  10.706
23236W        W93836  12.604   4.780   1.660
23237W        W93837  31.496   9.904  12.020
23238W        W93838  41.995  39.545  12.465
23239W        W93839  36.511  22.517  10.150
23240W        W93840  43.339  11.742   0.016
23241W        W93841  11.234  33.848  11.611
23242W        W93842  33.538   7.373   2.357
23243W        W93843  35.569   9.270   2.985
23244W        W93844   9.238  32.348  13.337
23245W        W93845  36.004   1.920   0.904
23246W        W93846  35.610  22.144  12.638
23247W        W93847   4.630  20.244   4.593
23248W        W93848   2.399  24.521   2.863
23249W        W93849  36.106  40.734   2.295
23250W        W93850  26.691  33.900  11.035
23251W        W93851  33.328  36.374   0.675
23252W        W93852   4.327   6.374  10.322
23253W        W93853  18.219  41.036   1.817
23254W        W93854  27.469  37.931  10.721
23255W        W93855  23.637  36.443   0.000
23256W        W93856  38.787   9.417  13.383
23257W        W93857   3.834  35.663  14.263
23258W        W93858   1.780  23.674   2.731
23259W        W93859   4.473   2.163   0.277
23260W        W93860  38.580  35.038  13.919
23261W        W93861  12.089  30.183  14.305
23262W        W93862  25.018  17.589   3.424
23263W        W93863   7.827  38.814  11.558
23264W        W93864  24.602  24.452   3.063
23265W        W93865  36.972  13.314  13.326
23266W        W93866  12.407  10.192   0.349
23267W        W93867   6.784   2.451  10.752
23268W        W93868  29.701   7.316   2.462
23269W        W93869  14.043  41.522  13.988
23270W        W93870  19.754  37.577   1.336
23271W        W93871  30.141   8.477  14.411
23272W        W93872  37.067  31.453  12.979
23273W        W93873  28.958   1.755   0.363
23274W        W93874  36.821  37.799   4.090
23275W        W93875  41.315   7.850   4.709
23276W        W93876   6.237  34.282   5.039
23277W        W93877  31.213  37.985  14.798
23278W        W93878  17.761  43.377   1.279
23279W        W93879  40.996  19.548  12.896
23280W        W93880  19.733  40.542  14.336
23281W        W93881  26.368  31.025  13.004
23282W        W93882  10.740  33.897   3.258
23283W        W93883  31.024  19.654  12.242
23284W        W93884  38.923  33.027  11.469
23285W        W93885  27.000  18.603   0.809
23286W        W93886  30.390   9.619  12.390
23287W        W93887  32.033  22.718   1.751
23288W        W93888  17.786  41.964   3.542
23289W        W93889  40.461   4.504   3.316
23290W        W93890   5.501   7.345  12.620
23291W        W93891  27.906   2.710   0.769
23292W        W93892   9.168  26.613   0.232
23293W        W93893   4.687  22.713  14.028
23294W        W93894   0.795  26.129   2.738
23295W        W93895  15.438  30.572  10.154
23296W        W93896  13.225  29.510  11.984
23297W        W93897   8.706  43.500  14.998
23298W        W93898   5.861  43.850   0.042
23299W        W93899  25.219  11.035  10.601
23300W        W93900   2.116  42.831  10.593
23301W        W93901  17.693  40.402  11.475
23302W        W93902   7.399  13.786  11.109
23303W        W93903  39.172  29.203   2.447
23304W        W93904  13.962  17.284   1.352
23305W        W93905  31.878  39.090   3.402
23306W        W93906  24.468   3.702   4.934
23307W        W93907  41.024  38.561  13.059
23308W        W93908  26.670   4.483   1.466
23309W        W93909  42.547  22.213   4.096
23310W        W93910  44.022   9.885   4.749
23311W        W93911   1.790   7.429  10.887
23312W        W93912   0.118  25.695  12.488
23313W        W93913   8.621  10.647  11.051
23314W        W93914   4.038  28.150  13.761
23315W        W93915  26.452   2.218  14.814
23316W        W93916  34.190   9.756   2.800
23317W        W93917  10.660   9.876  11.598
23318W        W93918  24.825  11.833  11.541
23319W        W93919  29.959  18.705   4.909
23320W        W93920  31.183  15.795   2.003
23321W        W93921  11.641  29.425   1.189
23322W        W93922  14.387  27.220   1.618
23323W        W93923  42.793   3.725  12.067
23324W        W93924  20.046  20.311  13.058
23325W        W93925   4.433   6.736  13.451
23326W        W93926  37.322   0.889  11.599
23327W        W93927  32.902  39.966  13.384
23328W        W93928  30.635  36.448  14.537
23329W        W93929  24.542   8.300  12.018
23330W        W93930   3.519   4.888  12.894
23331W        W93931  19.344  22.027   2.358
23332W        W93932  39.457  36.394   3.607
23333W        W93933   1.265  36.321  10.806
23334W        W93934  32.596  39.440   4.664
23335W        W93935  38.766  21.536   2.824
23336W        W93936  32.002   0.214   4.001
23337W        W93937  26.052  11.431   4.632
23338W        W93938  23.863  44.888   3.169
23339W        W93939  27.070  43.673  13.355
23340W        W93940  32.563  13.326   0.554
23341W        W93941  29.188  33.490  12.957
23342W        W93942  22.700  25.030   3.464
23343W        W93943  36.254  37.891  12.892
23344W        W93944  31.401   9.745  13.759
23345W        W93945  15.543  39.429   1.341
23346W        W93946  34.077  39.839   0.886
23347W        W93947  30.365  11.434   2.290
23348W        W93948  42.782  22.675   2.299
23349W        W93949   1.163  24.485  12.583
23350W        W93950   0.446  15.827   4.113
23351W        W93951  28.875  16.043  14.823
23352W        W93952   5.917  25.226   2.691
23353W        W93953  43.029  11.118  11.966
23354W        W93954  33.281  22.783   1.395
23355W        W93955  21.439  28.872   5.055
23356W        W93956   2.806  27.588  13.475
23357W        W93957  38.581   7.321  10.353
23358W        W93958  17.513  23.188   4.586
23359W        W93959  35.193   2.243   4.277
23360W        W93960  28.882  42.743   1.901
23361W        W93961  34.932  39.809  11.633
23362W        W93962  29.100  16.725  13.777
23363W        W93963  42.343  39.869   1.860
23364W        W93964  25.654  15.847  14.877
23365W        W93965  14.556  36.328  13.495
23366W        W93966   0.380  37.932  13.948
23367W        W93967  17.056  43.179  14.665
23368W        W93968   6.937  18.415   4.036
23369W        W93969  42.148  30.105  13.312
23370W        W93970  37.909  29.799   3.649
23371W        W93971   8.273   8.670   1.232
23372W        W93972  21.146   5.892  12.903
23373W        W93973  31.120  42.481   0.388
23374W        W93974  13.550  29.254   0.322
23375W        W93975  32.632  25.231  11.181
23376W        W93976  25.482  21.160   2.845
23377W        W93977   2.537  13.500  11.576
23378W        W93978   9.421  21.487   2.596
23379W        W93979  37.685  36.343   1.298
23380W        W93980   9.820   8.842   1.756
23381W        W93981  43.763  30.566   0.377
23382W        W93982   0.812  36.452  11.809
23383W        W93983  17.295   8.141  11.877
23384W        W93984  35.626  13.436  12.966
23385W        W93985   0.790  25.014  14.047
23386W        W93986  27.930  31.078   4.142
23387W        W93987  40.430  36.314   3.242
23388W        W93988  25.199   7.311  13.137
23389W        W93989  19.532  33.148   0.731
23390W        W93990  10.069   6.379   2.816
23391W        W93991  29.592  36.448   1.394
23392W        W93992   5.610  26.328  10.731
23393W        W93993  10.628  30.231   0.920
23394W        W93994  22.525  23.204  10.439
23395W        W93995  41.211  18.758  13.016
23396W        W93996  40.924   9.443   0.256
23397W        W93997  23.096  13.530  14.446
23398W        W93998  14.886   2.804   0.822
23399W        W93999  23.159  41.393   2.317
23400W        W94000  30.561  30.443   3.271
23401W        W94001  35.181   3.694  12.348
23402W        W94002  29.608   4.643   1.266
23403W        W94003  14.667   4.903  11.453
23404W        W94004  29.516  35.471  14.365
23405W        W94005   6.656   2.983  11.698
23406W        W94006   1.888  26.902   4.706
23407W        W94007  17.233  26.928  14.468
23408W        W94008  41.637  44.701  10.442
23409W        W94009  31.472   0.787   2.884
23410W        W94010  39.014  38.270  12.920
23411W        W94011  19.997  29.747   1.843
23412W        W94012  38.888  44.562   4.984
23413W        W94013  16.515   7.096   1.095
23414W        W94014   5.895  39.756   3.149
23415W        W94015   4.143  22.036  12.937
23416W        W94016  16.128  31.580   3.107
23417W        W94017   3.027  23.285   0.241
23418W        W94018   5.690  12.810   3.331
23419W        W94019  15.261   5.470  12.482
23420W        W94020   5.829  30.622   2.227
23421W        W94021   7.796  33.536   2.436
23422W        W94022  25.263  44.075  12.220
23423W        W94023  41.511  30.034  11.545
23424W        W94024  36.809   7.461  14.715
23425W        W94025   9.930  28.350  14.476
23426W        W94026   7.351   8.817  11.548
23427W        W94027  34.475  35.194  12.926
23428W        W94028   4.095  10.583   0.912
23429W        W94029  25.920  13.570   1.127
23430W        W94030  37.284  29.425  14.349
23431W        W94031  34.038  17.216  10.633
23432W        W94032  33.046   7.794   1.191
23433W        W94033  26.087   7.955   4.705
23434W        W94034  42.932  30.651  11.555
23435W        W94035   6.940  39.712   4.119
23436W        W94036  44.024  41.473   3.692
23437W        W94037  13.070   6.445   0.899
23438W        W94038   9.079  42.104   1.181
23439W        W94039  34.993  42.641   3.687
23440W        W94040   5.798  13.364  12.932
23441W        W94041  13.149  38.819  12.398
23442W        W94042  43.359  38.890  11.763
23443W        W94043   2.316  37.205   2.481
23444W        W94044  23.281   0.490   0.510
23445W        W94045  35.860  26.118   1.968
23446W        W94046  40.826  43.983  14.943
23447W        W94047  20.987  12.324   4.319
23448W        W94048  36.436  40.449  14.478
23449W        W94049  41.081   8.836   3.368
23450W        W94050  10.135  42.763  13.244
23451W        W94051  34.556  23.080   1.786
23452W        W94052  29.757  43.878  10.529
23453W        W94053  36.018   3.708   4.451
23454W        W94054  22.524  38.909   2.766
23455W        W94055  23.190  19.271  11.570
23456W        W94056  30.682  25.355   0.495
23457W        W94057  44.934  15.715  11.608
23458W        W94058   5.948  39.866  11.175
23459W        W94059  22.506  31.785  10.578
23460W        W94060  44.804  32.115  12.441
23461W        W94061  25.925  43.479   3.841
23462W        W94062   5.110  24.124   4.760
23463W        W94063  19.024  16.251   0.734
23464W        W94064   3.262  27.165   2.874
23465W        W94065   7.732  15.485  11.216
23466W        W94066  11.255  35.988   1.811
23467W        W94067  29.083  22.961  11.694
23468W        W94068  28.874   1.976  13.850
23469W        W94069  34.394  22.537   2.654
23470W        W94070  25.171  25.237  11.132
23471W        W94071   4.939  30.130   0.239
23472W        W94072  18.134  43.712   1.158
23473W        W94073  34.878  36.147   0.956
23474W        W94074  21.008   5.380  12.631
23475W        W94075  24.255  28.658  13.021
23476W        W94076  17.659  38.936  11.400
23477W        W94077  10.069  14.116   3.735
23478W        W94078  44.328  41.329   0.402
23479W        W94079  41.334  32.024   2.712
23480W        W94080  13.067  35.363  14.499
23481W        W94081  11.239   7.915  11.896
23482W        W94082  39.525   9.111  13.983
23483W        W94083  29.054  10.677  13.944
23484W        W94084  31.631  25.190  12.508
23485W        W94085  35.067  14.215   3.564
23486W        W94086  44.494  23.415  12.129
23487W        W94087  14.419  12.561   3.661
23488W        W94088   7.716  20.351   3.697
23489W        W94089  19.927  22.532   0.593
23490W        W94090  25.590  43.333  12.805
23491W        W94091  26.704  26.294  13.834
23492W        W94092  44.498   7.120  10.751
23493W        W94093   6.724  25.728  13.904
23494W        W94094  13.103  15.466  13.234
23495W        W94095  11.387  31.000  11.124
23496W        W94096   4.914   2.686  14.985
23497W        W94097  34.091  14.147  11.659
23498W        W94098  43.996  24.157   0.905
23499W        W94099  38.913  39.868   2.859
23500W        W94100  33.099  10.909  10.899
23501W        W94101  40.791  19.710  12.450
23502W        W94102  11.731  23.113  13.052
23503W        W94103  12.651  23.640  13.863
23504W        W94104  30.697  41.386  13.021
23505W        W94105  15.215  15.738   0.836
23506W        W94106   9.226  16.745   5.096
23507W        W94107  14.105   3.713  14.992
23508W        W94108  30.658   1.432  10.605
23509W        W94109  28.906  24.958  13.600
23510W        W94110  11.206  22.412   0.956
23511W        W94111   1.910  41.392  14.211
23512W        W94112  19.614  34.812  12.931
23513W        W94113   6.751  35.130  10.651
23514W        W94114  20.373  41.939  11.660
23515W        W94115  42.749  23.662   1.387
23516W        W94116  18.726  15.335   3.583
23517W        W94117  35.439   6.512   3.898
23518W        W94118   3.448  34.934  12.475
23519W        W94119  18.601   4.936   4.533
23520W        W94120  27.626  25.674  13.859
23521W        W94121  18.138  35.925  11.153
23522W        W94122  23.761  24.172   3.858
23523W        W94123  25.031  11.951  10.726
23524W        W94124  15.397  29.785  11.934
23525W        W94125   3.463  35.081   1.890
23526W        W94126   2.803   1.275   3.848
23527W        W94127  19.632  33.627  14.287
23528W        W94128   2.991  35.621   4.696
23529W        W94129  32.110   4.345   2.263
23530W        W94130   0.965  44.241   0.798
23531W        W94131  30.833  41.730  13.994
23532W        W94132  38.424  33.420   4.568
23533W        W94133  27.523   5.172   2.743
23534W        W94134  42.421  35.831  11.528
23535W        W94135   0.791   0.216   1.716
23536W        W94136  11.400   0.377   0.681
23537W        W94137   6.242   8.651  11.971
23538W        W94138  44.882   1.461  14.358
23539W        W94139  22.217  34.825   2.338
23540W        W94140  26.655  23.777  13.011
23541W        W94141  31.631  20.065   1.411
23542W        W94142  31.839  24.454  10.770
23543W        W94143  10.352  39.336  12.802
23544W        W94144  40.640  12.536   4.073
23545W        W94145  30.410   2.289   1.752
23546W        W94146  10.717  37.902   1.144
23547W        W94147  25.074  15.780   0.469
23548W        W94148  23.015  20.628  14.746
23549W        W94149  22.730  36.027   0.911
23550W        W94150   6.845   2.640  12.083
23551W        W94151   7.220  24.379  12.024
23552W        W94152  17.934  30.064  12.393
23553W        W94153  41.356  42.537  13.546
23554W        W94154  36.625  22.645  13.886
23555W        W94155  22.744  37.304  11.275
23556W        W94156  28.933   6.257   2.336
23557W        W94157  30.852  41.851  10.651
23558W        W94158  28.671  21.098  13.458
23559W        W94159  18.594  17.199  14.583
23560W        W94160  33.358  18.246   3.128
23561W        W94161   8.721  13.731   3.409
23562W        W94162  35.524  33.829   2.314
23563W        W94163  17.147  26.072   2.281
23564W        W94164   1.484   3.086  13.160
23565W        W94165  38.907  26.126   0.707
23566W        W94166  30.621   9.001  13.820
23567W        W94167   0.735  18.733   0.000
23568W        W94168  35.925  24.678   0.390
23569W        W94169  29.021  20.294  10.684
23570W        W94170   9.369  40.934  13.949
23571W        W94171  44.837  13.387   4.033
23572W        W94172  12.002  32.226  11.491
23573W        W94173  20.630   7.584   2.301
23574W        W94174   8.218  34.200  14.467
23575W        W94175  15.213  19.735  13.937
23576W        W94176  44.499  10.779   4.180
23577W        W94177  21.136  21.424  10.981
23578W        W94178  44.786   2.262   3.902
23579W        W94179  34.856   0.182   4.279
23580W        W94180   5.650  28.019  12.036
23581W        W94181  43.361  18.756   0.241
23582W        W94182  25.634  32.141   0.177
23583W        W94183  23.026  31.862   4.123
23584W        W94184  24.143   6.550   4.571
23585W        W94185  23.289  28.512  10.460
23586W        W94186  18.137  33.826  11.249
23587W        W94187  36.698  36.180  11.529
23588W        W94188  42.907   6.006   3.824
23589W        W94189  27.351  28.260   0.288
23590W        W94190   2.524  20.767   3.600
23591W        W94191  39.016   0.275   3.677
23592W        W94192   8.718  35.077  14.879
23593W        W94193   2.481  24.924   1.215
23594W        W94194   1.179   8.928  12.269
23595W        W94195   6.596  29.156  11.926
23596W        W94196  20.860  40.395   3.761
23597W        W94197  24.428   7.338   2.567
23598W        W94198  41.967  10.077  11.571
23599W        W94199  14.222  10.631  13.911
23600W        W94200  25.627   9.155  10.669
23601W        W94201  44.571  34.570   4.001
23602W        W94202  43.658  26.531  14.482
23603W        W94203  40.387  21.974  11.672
23604W        W94204  10.845  13.523   3.739
23605W        W94205  13.542   7.855  14.556
23606W        W94206  41.932  43.503  12.398
23607W        W94207  33.943   0.259  13.813
23608W        W94208  32.894   2.825   3.052
23609W        W94209  42.074  36.616   4.089
23610W        W94210   5.887  12.212   1.460
23611W        W94211   3.213   7.903  12.901
23612W        W94212  32.756  36.376  11.502
23613W        W94213  14.569  15.251  12.346
23614W        W94214   1.732  37.229   0.784
23615W        W94215   7.239  14.091   2.727
23616W        W94216  33.922   9.893   0.214
23617W        W94217   6.355  23.510   4.742
23618W        W94218  12.684   0.781   0.270
23619W        W94219  31.409  40.890   1.707
23620W        W94220  15.703   3.730  14.571
23621W        W94221  31.137  11.728   4.024
23622W        W94222   7.138  37.931  13.447
23623W        W94223   8.136  38.549  13.803
23624W        W94224  16.381  17.106  11.215
23625W        W94225   6.175  27.843   1.709
23626W        W94226  42.002   7.597  13.027
23627W        W94227  12.081  42.240   4.506
23628W        W94228  39.040  31.506  14.659
23629W        W94229  37.305   6.899   0.234
23630W        W94230  18.741  35.737  10.382
23631W        W94231  26.660   0.306  10.767
23632W        W94232  15.901  41.382  12.919
23633W        W94233  13.825  34.266  13.960
23634W        W94234  16.650   9.396   0.905
23635W        W94235  23.173  23.050  12.526
23636W        W94236  11.808  11.791   4.107
23637W        W94237  11.308  17.186  14.717
23638W        W94238  13.709   9.685  12.613
23639W        W94239   0.934  35.880   0.049
23640W        W94240  16.184  42.578  12.666
23641W        W94241   8.913  34.760   2.415
23642W        W94242  17.031   0.800  10.671
23643W        W94243  24.136  28.445   5.134
23644W        W94244  33.848  42.589  11.185
23645W        W94245  15.263  44.929  11.938
23646W        W94246  25.132   6.377   0.756
23647W        W94247  14.568  21.042  14.480
23648W        W94248  41.463  23.738  12.805
23649W        W94249   4.297   2.713  13.852
23650W        W94250  33.476  35.251   2.178
23651W        W94251  36.139  40.719  14.146
23652W        W94252  34.815   5.295  10.896
23653W        W94253  17.562  44.255  13.897
23654W        W94254  22.076  26.678  11.685
23655W        W94255  40.076   0.752  12.073
23656W        W94256   7.017  27.665  14.221
23657W        W94257  37.261  34.067   2.220
23658W        W94258  20.053  36.633   0.915
23659W        W94259  34.988   8.800   1.629
23660W        W94260   5.423  29.173  13.850
23661W        W94261  34.085  24.604  12.025
23662W        W94262  37.765  34.543  11.588
23663W        W94263  28.704   7.370   3.437
23664W        W94264  17.693   3.469   1.855
23665W        W94265  27.214  28.717   3.681
23666W        W94266  40.214  22.741  13.396
23667W        W94267  12.406  43.285  13.595
23668W        W94268   8.142  22.459  14.366
23669W        W94269   5.854  39.583  14.434
23670W        W94270   5.993  13.824  11.135
23671W        W94271   2.964   6.910   9.823
23672W        W94272  10.271  31.448   2.007
23673W        W94273  43.429  25.322   4.145
23674W        W94274  28.417   1.464   3.546
23675W        W94275  37.012  39.977  14.255
23676W        W94276  35.822   3.299  13.541
23677W        W94277   7.958  42.041  14.642
23678W        W94278  19.775   1.858  13.850
23679W        W94279  34.061  22.234  13.981
23680W        W94280   4.239   7.884  13.894
23681W        W94281  36.607  24.571   1.968
23682W        W94282  18.041  11.222   3.817
23683W        W94283  11.253   7.239   2.347
23684W        W94284   8.296   3.708  12.419
23685W        W94285  10.924  14.877   2.765
23686W        W94286  20.613  38.155  13.022
23687W        W94287  23.054  33.535  13.546
23688W        W94288  29.934  14.846   4.436
23689W        W94289  32.477  15.629   0.326
23690W        W94290  29.357  35.997   1.497
23691W        W94291  23.058  32.522  14.754
23692W        W94292  40.184   0.211  14.889
23693W        W94293  28.358  11.566  14.417
23694W        W94294   7.713  40.824   0.642
23695W        W94295  32.518   7.105  14.313
23696W        W94296  23.738  38.928   4.071
23697W        W94297  24.235  31.921  13.546
23698W        W94298   5.745  25.273   4.447
23699W        W94299  24.333  24.971  12.174
23700W        W94300  33.446  24.049   2.664
23701W        W94301  10.627  29.649   1.915
23702W        W94302   0.717  43.788   3.567
23703W        W94303  39.243   0.375   3.226
23704W        W94304  32.083  35.482   3.243
23705W        W94305  40.139  37.646   2.791
23706W        W94306  27.188  30.937   0.076
23707W        W94307  16.374  20.229   0.367
23708W        W94308  20.606  35.327   1.872
23709W        W94309   6.451  36.846   0.341
23710W        W94310  43.591  20.140  11.151
23711W        W94311   9.823   2.842   2.318
23712W        W94312  43.882  24.157   1.843
23713W        W94313  22.122  12.602   3.192
23714W        W94314  38.763  10.830   2.180
23715W        W94315  25.526   2.547  10.998
23716W        W94316  44.241  15.267   0.391
23717W        W94317  24.703  41.456   0.757
23718W        W94318  15.826   3.399   9.964
23719W        W94319   9.331  18.059   1.870
23720W        W94320  40.348  11.059  14.473
23721W        W94321   2.368  31.169  10.976
23722W        W94322   6.894  31.820  12.127
23723W        W94323  29.188  13.068   3.282
23724W        W94324  15.251  40.105  10.780
23725W        W94325  22.662  35.412  10.518
23726W        W94326  42.839  40.331   4.511
23727W        W94327   2.779  18.756   1.223
23728W        W94328  34.096  28.204  11.140
23729W        W94329  23.172   6.146   2.877
23730W        W94330  36.050   5.124   4.669
23731W        W94331  39.063  14.709  10.897
23732W        W94332  20.635  42.452  10.593
23733W        W94333  20.725  42.503  11.084
23734W        W94334   2.231  29.996  12.965
23735W        W94335   4.992  38.576  13.424
23736W        W94336  22.803  33.562  12.639
23737W        W94337  37.848  14.771  13.478
23738W        W94338   8.542   5.927   2.787
23739W        W94339   1.334  14.038   2.809
23740W        W94340  28.588  12.552  12.986
23741W        W94341  27.598   1.500  13.087
23742W        W94342  44.519  15.691  12.864
23743W        W94343  11.360  39.571   3.688
23744W        W94344  16.175  23.166   3.936
23745W        W94345  44.845  23.085   1.873
23746W        W94346  23.305   0.189   1.853
23747W        W94347   7.830  41.268   0.886
23748W        W94348  10.161  43.475   1.783
23749W        W94349  40.529  35.540   1.656
23750W        W94350  21.675  44.345   1.713
23751W        W94351  30.160   8.915   0.370
23752W        W94352  38.075   7.602   1.900
23753W        W94353  11.483  26.660  14.498
23754W        W94354  35.495   5.298  10.708
23755W        W94355  37.562  15.014   4.144
23756W        W94356  31.375   7.711   3.732
23757W        W94357  11.269  11.629   2.593
23758W        W94358  11.763  43.006  14.795
23759W        W94359  39.537   3.727   2.114
23760W        W94360  34.115  35.566  14.452
23761W        W94361  38.287  34.137  12.635
23762W        W94362  32.957  24.245  11.569
23763W        W94363  42.424  38.333  11.070
23764W        W94364  41.076  42.686  12.990
23765W        W94365  44.200  22.243  14.331
23766W        W94366   9.154   3.824   3.752
23767W        W94367   0.357   7.334   3.732
23768W        W94368  42.574   7.223  13.741
23769W        W94369  39.837   2.592   3.734
23770W        W94370  11.290  10.294  14.318
23771W        W94371  20.622  41.288  11.642
23772W        W94372  24.751  16.864   1.886
23773W        W94373  37.417  31.063  12.834
23774W        W94374  21.839   6.962   4.179
23775W        W94375  37.017  34.015   0.750
23776W        W94376  42.396  11.430   0.811
23777W        W94377   3.791  26.442   4.933
23778W        W94378  16.265  36.377  14.273
23779W        W94379  43.100   9.244  14.789
23780W        W94380  41.961  27.418  13.438
23781W        W94381  17.175  42.234   0.306
23782W        W94382  44.776  24.968  10.494
23783W        W94383   5.482  34.983   4.517
23784W        W94384  43.567   4.426   4.647
23785W        W94385   3.652  23.269   3.102
23786W        W94386  40.387  14.222   4.195
23787W        W94387   1.825  18.820   1.129
23788W        W94388   5.715   5.294   3.345
23789W        W94389  41.310   3.928  14.405
23790W        W94390  14.307  25.053   2.180
23791W        W94391   2.158  26.113  13.021
23792W        W94392  24.415   8.759  12.406
23793W        W94393   2.882  13.082   4.604
23794W        W94394  32.296   3.351  10.561
23795W        W94395  27.818   6.739   4.938
23796W        W94396  30.444  25.001  13.919
23797W        W94397  23.607  32.701   2.296
23798W        W94398  22.360  24.592  10.432
23799W        W94399  44.645   2.683   0.999
23800W        W94400  30.745  34.947  10.855
23801W        W94401   1.518   7.176  11.291
23802W        W94402  40.039  29.517   2.944
23803W        W94403  19.094  15.996  13.282
23804W        W94404  22.992  14.357  14.878
23805W        W94405  25.595  15.743   2.768
23806W        W94406  28.674  20.463   3.947
23807W        W94407  10.380  44.804   2.258
23808W        W94408  37.723  37.304  12.094
23809W        W94409  14.082   8.473  12.198
23810W        W94410   9.599   8.530  12.669
23811W        W94411  23.765  32.023   0.857
23812W        W94412  26.298   4.738  11.803
23813W        W94413  30.003  17.986  13.370
23814W        W94414   2.771  25.392   0.430
23815W        W94415  38.125   8.806   3.326
23816W        W94416  39.603   9.897   3.949
23817W        W94417  17.114   1.735  12.576
23818W        W94418  41.305  14.701  14.877
23819W        W94419  41.017  27.004  12.912
23820W        W94420  37.888  40.090  13.390
23821W        W94421  34.381   4.026   2.596
23822W        W94422  44.072  16.085  13.457
23823W        W94423   2.756  21.078  10.793
23824W        W94424  28.602  19.213   3.217
23825W        W94425  19.016  35.578  12.222
23826W        W94426  14.490  43.051   1.291
23827W        W94427  12.925  43.690   9.711
23828W        W94428  24.641   0.237  13.881
23829W        W94429  44.974   0.753  14.510
23830W        W94430  44.033  14.489   3.361
23831W        W94431  34.231  22.411  11.220
23832W        W94432  24.510   9.498   4.087
23833W        W94433  22.085  32.340   0.269
23834W        W94434  20.632   4.168  11.842
23835W        W94435   5.875   8.321  12.721
23836W        W94436  33.103  24.507  13.498
23837W        W94437  25.464  22.677  13.895
23838W        W94438   5.611  36.277  13.950
23839W        W94439  32.594   8.459   3.329
23840W        W94440  13.584   1.771   4.419
23841W        W94441  16.124  21.259  13.337
23842W        W94442   9.235  30.679  12.540
23843W        W94443  17.066  17.381  12.097
23844W        W94444  19.467  27.078  13.020
23845W        W94445  27.959  40.405   5.074
23846W        W94446  26.895  33.687  14.496
23847W        W94447   3.412   4.892   3.042
23848W        W94448  44.251   1.161  12.675
23849W        W94449  34.299  24.964  14.523
23850W        W94450  22.769  16.880  11.103
23851W        W94451  40.973  23.530  12.841
23852W        W94452  29.002  35.608  10.920
23853W        W94453  40.090   8.727  14.442
23854W        W94454  16.339  30.166   3.417
23855W        W94455  32.434  23.924  10.677
23856W        W94456   7.086  21.108  12.908
23857W        W94457  11.526  40.279   3.609
23858W        W94458  44.305  42.035  11.820
23859W        W94459   5.878  13.560   2.844
23860W        W94460   7.678  11.233  13.433
23861W        W94461   6.301  44.234  12.569
23862W        W94462  37.385  33.081  14.798
23863W        W94463  35.274   0.497   1.959
23864W        W94464  10.295   8.211   2.355
23865W        W94465   9.268   2.432   4.591
23866W        W94466  22.644  24.515   3.729
23867W        W94467  22.724  10.890   4.242
23868W        W94468  31.148  18.320   2.347
23869W        W94469  10.576   9.744   0.291
23870W        W94470   6.362   9.732  11.142
23871W        W94471   3.186  15.226  12.908
23872W        W94472  24.524   2.302  11.916
23873W        W94473  38.361   6.629   2.275
23874W        W94474  15.749  25.893   0.449
23875W        W94475  28.121  14.768  10.346
23876W        W94476  19.115   9.643   1.453
23877W        W94477  12.209  25.056  14.790
23878W        W94478  44.994  18.875  11.123
23879W        W94479  18.462   3.509  14.397
23880W        W94480  44.197   9.810  10.310
23881W        W94481  15.268  23.691  11.948
23882W        W94482  14.881  28.277  12.922
23883W        W94483  20.266   1.424   3.110
23884W        W94484  20.346  13.394   3.679
23885W        W94485   2.226  22.189  11.226
23886W        W94486  10.560  39.907  14.304
23887W        W94487  40.392   1.478   2.691
23888W        W94488  31.158  15.234   0.480
23889W        W94489  13.198   4.348   2.322
23890W        W94490  42.396   3.407  12.952
23891W        W94491  42.300  39.828  12.845
23892W        W94492  41.364   8.768   2.610
23893W        W94493  33.858  10.206  11.580
23894W        W94494  25.470   1.219  14.027
23895W        W94495  41.809   4.252   3.318
23896W        W94496   8.110   6.336  10.987
23897W        W94497   4.857   4.846  14.304
23898W        W94498  12.499  36.894   5.046
23899W        W94499  27.964  32.347   1.853
23900W        W94500  10.393  10.892  14.757
23901W        W94501  24.117  15.358   2.460
23902W        W94502  27.127  28.131  13.802
23903W        W94503   1.293  10.647   2.706
23904W        W94504  31.958   7.925  12.513
23905W        W94505  37.540   3.867  11.588
23906W        W94506  14.144  10.932  14.338
23907W        W94507  32.008  19.449  12.620
23908W        W94508  16.865  16.999  10.513
23909W        W94509  10.797  18.646  14.488
23910W        W94510  36.324  36.466  11.698
23911W        W94511  27.676  36.357  14.770
23912W        W94512   7.917  42.687  11.633
23913W        W94513  26.110  10.737   1.984
23914W        W94514   9.333  21.929  14.282
23915W        W94515   2.256  44.082  12.555
23916W        W94516  11.770   6.960  14.567
23917W        W94517  27.527   6.132  13.423
23918W        W94518   3.377   8.934  10.445
23919W        W94519   5.168  22.849  13.936
23920W        W94520  35.072  42.649   1.742
23921W        W94521   6.930   3.280  14.471
23922W        W94522  28.146   0.299  10.771
23923W        W94523  26.973   8.668   2.099
23924W        W94524   1.538  13.657  11.667
23925W        W94525   2.573  18.375  11.981
23926W        W94526  33.999  10.834   3.442
23927W        W94527  15.135   0.441  13.875
23928W        W94528  15.818  12.959   1.303
23929W        W94529  37.951  22.546   1.287
23930W        W94530  30.363  33.152   2.379
23931W        W94531   9.808  26.927  14.323
23932W        W94532  33.692  27.168  13.296
23933W        W94533   9.319   6.620   2.325
23934W        W94534  20.084  16.233   4.291
23935W        W94535   3.948  28.516   1.104
23936W        W94536  40.666  40.577  12.919
23937W        W94537  37.440  32.614   2.700
23938W        W94538  16.266   0.922  11.501
23939W        W94539  28.694  18.609   1.175
23940W        W94540   7.398  23.253   1.910
23941W        W94541  29.373  30.164  14.855
23942W        W94542  37.252  13.589  14.893
23943W        W94543  37.888  18.451  11.049
23944W        W94544   0.781  21.179   9.797
23945W        W94545   8.614   5.796  14.237
23946W        W94546  12.034  38.510   2.620
23947W        W94547   0.002  10.186   4.629
23948W        W94548  36.577  38.923   4.178
23949W        W94549  15.717  43.079   2.041
23950W        W94550  39.112   9.828  13.391
23951W        W94551   5.314  36.132   0.150
23952W        W94552   9.886  30.283   2.327
23953W        W94553   5.673  33.859  14.522
23954W        W94554  12.843  12.567  10.648
23955W        W94555  34.026  11.917  13.907
23956W        W94556  28.707  43.779   0.651
23957W        W94557  14.103   5.221  10.384
23958W        W94558  15.840  43.483  13.909
23959W        W94559  20.326   4.957  11.676
23960W        W94560  42.761  17.078  14.844
23961W        W94561   2.309  37.757   4.997
23962W        W94562  19.338  14.267   4.304
23963W        W94563  32.253  12.892   5.013
23964W        W94564   7.821  40.996  11.973
23965W        W94565  38.006  37.315  11.433
23966W        W94566  25.930  18.139   0.246
23967W        W94567  21.592  10.534   0.178
23968W        W94568   9.824  14.173  11.717
23969W        W94569  36.073  20.539  14.714
23970W        W94570  32.389   3.645  12.669
23971W        W94571  36.921  15.146  11.891
23972W        W94572   4.903   1.910  11.800
23973W        W94573  37.973  27.632  11.155
23974W        W94574  20.476   2.736  12.037
23975W        W94575  29.568   2.279  10.816
23976W        W94576  43.402  38.975   4.637
23977W        W94577   2.797  16.569  14.487
23978W        W94578  44.431  39.798   2.625
23979W        W94579  40.315  41.557  12.341
23980W        W94580  16.290  10.831   2.341
23981W        W94581   4.861  15.481   0.999
23982W        W94582  11.776  37.851  11.381
23983W        W94583  16.144  16.460  10.438
23984W        W94584  38.069  40.593   2.713
23985W        W94585  33.678  38.065  11.568
23986W        W94586  21.264  34.027  14.803
23987W        W94587  40.456  36.687  12.951
23988W        W94588  31.160  25.692  12.991
23989W        W94589  39.489  15.137  11.959
23990W        W94590  37.006  29.842   3.842
23991W        W94591   7.488  36.890  11.619
23992W        W94592  34.369  34.804   4.407
23993W        W94593  32.482   4.613   0.875
23994W        W94594  32.964  15.771  13.197
23995W        W94595  16.679  15.878   4.492
23996W        W94596  27.202   4.656  14.478
23997W        W94597  32.646  18.465  12.661
23998W        W94598   9.386   1.642   0.449
23999W        W94599  25.457  34.989  12.361
24000W        W94600   0.934  27.014  14.820
24001W        W94601  34.928   0.772   4.045
24002W        W94602  43.792   7.121   1.819
24003W        W94603  15.345   3.613  12.455
24004W        W94604  13.406   5.358   2.335
24005W        W94605  29.140  41.611  12.091
24006W        W94606   9.352   5.077   4.605
24007W        W94607  18.906  13.949   0.856
24008W        W94608   6.150  22.661  13.869
24009W        W94609  21.085  30.516   4.478
24010W        W94610   4.863  31.637  12.794
24011W        W94611   5.898  20.356   2.345
24012W        W94612  27.510  26.440   3.913
24013W        W94613   9.356  23.080  12.689
24014W        W94614  26.094   5.951  12.949
24015W        W94615  12.160  39.497   4.672
24016W        W94616   4.484  27.797   1.417
24017W        W94617   8.872  27.944  13.490
24018W        W94618   9.599  24.588  13.028
24019W        W94619  36.934  25.509  14.813
24020W        W94620  12.959  12.501   1.209
24021W        W94621   5.974  33.381   4.699
24022W        W94622  25.586   7.113  10.738
24023W        W94623  42.995   2.645  14.938
24024W        W94624   4.210  15.421  13.826
24025W        W94625  35.312  19.289  12.837
24026W        W94626  25.363  13.338   5.195
24027W        W94627  30.041  12.708   2.313
24028W        W94628  11.396  23.233  14.434
24029W        W94629  34.661  36.379  13.628
24030W        W94630   0.976  24.624  12.131
24031W        W94631  11.940  30.104   0.415
24032W        W94632   4.864  10.649  12.787
24033W        W94633   4.480  41.528   1.333
24034W        W94634  40.729  29.575  11.534
24035W        W94635   2.976  44.287  10.753
24036W        W94636  12.524   4.438   4.107
24037W        W94637  29.653   7.229  12.087
24038W        W94638  34.549  13.922  11.045
24039W        W94639  19.768  23.603   2.680
24040W        W94640  21.938  42.194   1.922
24041W        W94641  39.368   7.641  10.718
24042W        W94642  15.477   5.921   3.723
24043W        W94643  24.768   5.391  13.112
24044W        W94644   9.987  16.849  14.012
24045W        W94645  18.729  38.589  12.102
24046W        W94646  42.087   8.249   4.802
24047W        W94647  32.392  18.638   1.157
24048W        W94648  38.595  31.936   2.650
24049W        W94649  15.706   6.280  14.883
24050W        W94650  15.548  21.272   3.159
24051W        W94651  12.189  22.155   3.729
24052W        W94652   5.900  24.809  13.035
24053W        W94653  10.854   4.768   9.971
24054W        W94654   6.305   7.547   3.037
24055W        W94655  34.944   1.453  14.453
24056W        W94656   8.127   7.280   1.403
24057W        W94657  32.976  15.183  11.626
24058W        W94658  37.776   3.516   5.312
24059W        W94659  35.529  34.078   0.409
24060W        W94660  20.059  15.190   2.869
24061W        W94661   2.760  25.207  10.750
24062W        W94662  30.984  32.540   0.679
24063W        W94663  41.927  32.820  11.135
24064W        W94664  33.728  16.847   4.739
24065W        W94665   2.796   6.226   2.307
24066W        W94666  10.378  26.970   1.473
24067W        W94667   7.532  44.131   3.928
24068W        W94668  30.462  15.045  14.471
24069W        W94669  33.160  27.152   2.958
24070W        W94670  30.067   4.960   1.300
24071W        W94671  22.047  39.412   4.577
24072W        W94672  36.752   2.562   1.393
24073W        W94673  24.045  31.590   0.820
24074W        W94674  17.677  32.203  13.036
24075W        W94675  15.825  12.317  13.501
24076W        W94676  20.475  25.523   2.612
24077W        W94677  33.036  28.029  11.526
24078W        W94678  37.014  18.131  12.452
24079W        W94679  43.892  14.429   1.868
24080W        W94680  42.829  16.279   2.190
24081W        W94681  31.946  35.427  11.145
24082W        W94682  41.850  16.147   2.779
24083W        W94683  36.027  26.812  10.735
24084W        W94684   2.827  43.248  13.510
24085W        W94685   8.311  13.244   3.278
24086W        W94686  39.713  29.110   3.625
24087W        W94687  19.807  22.012  12.834
24088W        W94688   3.574   6.194  14.989
24089W        W94689   9.118  33.269   4.931
24090W        W94690  41.237  19.073   4.117
24091W        W94691   3.456  44.965   2.327
24092W        W94692  34.667   8.912  14.756
24093W        W94693  44.904  28.480   3.700
24094W        W94694   8.017  12.100  12.087
24095W        W94695  40.609  38.500   0.312
24096W        W94696  10.201  14.680   1.940
24097W        W94697   3.210  20.056   1.351
24098W        W94698  20.165   6.251  11.169
24099W        W94699  32.581   2.351   2.619
24100W        W94700  14.350  38.957  12.890
24101W        W94701   0.845  15.314  11.113
24102W        W94702  34.311  35.469  14.944
24103W        W94703  20.994   3.556  12.404
24104W        W94704  12.856   7.245   3.176
24105W        W94705  31.054   1.249  11.565
24106W        W94706  17.651  12.362  14.748
24107W        W94707  39.631  26.067   0.010
24108W        W94708   5.706   1.616  10.759
24109W        W94709  30.960   2.784  10.891
24110W        W94710  35.500  24.393   0.255
24111W        W94711   7.336   9.036   4.990
24112W        W94712  40.968  15.659   1.390
24113W        W94713  25.107  12.138   0.976
24114W        W94714  18.581  21.552   2.752
24115W        W94715  15.071  35.523  12.509
24116W        W94716   8.272  16.053   2.904
24117W        W94717  36.932  32.497   2.616
24118W        W94718  13.287  11.256   3.409
24119W        W94719   8.759   8.436   1.201
24120W        W94720  26.640  20.543   3.671
24121W        W94721  39.348   9.425   3.875
24122W        W94722   7.674  27.673   2.751
24123W        W94723  20.024  43.471   1.681
24124W        W94724  23.969  30.348   3.096
24125W        W94725  17.583  17.395   0.834
24126W        W94726  37.654  34.099  11.922
24127W        W94727  27.492  24.097  12.891
24128W        W94728  19.180  13.279   4.147
24129W        W94729  17.776  17.544   4.107
24130W        W94730  39.338  39.057  13.049
24131W        W94731  16.072  43.005  14.811
24132W        W94732   6.156   1.432  12.523
24133W        W94733  20.613  31.023  10.959
24134W        W94734  12.084  19.696  14.531
24135W        W94735  18.177   1.964  14.813
24136W        W94736  10.272  15.131   0.718
24137W        W94737  31.898  41.474   2.775
24138W        W94738  33.786  30.988  12.922
24139W        W94739  14.762   7.449   0.831
24140W        W94740   2.688  25.216   3.736
24141W        W94741  23.601   6.739   3.702
24142W        W94742  39.087  39.475   2.251
24143W        W94743  26.204  23.995  14.060
24144W        W94744  22.218   7.675  12.504
24145W        W94745  15.767  21.446  10.634
24146W        W94746   6.716  23.299   2.128
24147W        W94747   5.907  13.853   3.301
24148W        W94748  25.910  43.872   4.554
24149W        W94749   1.078   8.956   2.610
24150W        W94750  29.322   0.545   5.066
24151W        W94751   7.603  34.158  11.687
24152W        W94752  17.696  23.969  11.659
24153W        W94753  44.005  12.167   4.078
24154W        W94754  11.884  17.770   2.530
24155W        W94755  32.395   8.763  12.776
24156W        W94756   5.469  15.219   2.642
24157W        W94757  36.128   4.367  11.585
24158W        W94758  24.596  18.254   4.670
24159W        W94759  24.666  36.526   1.102
24160W        W94760  38.437  40.997  12.815
24161W        W94761  17.426  30.499  10.589
24162W        W94762  28.402  27.270   2.483
24163W        W94763  16.246  44.737   3.294
24164W        W94764  25.558  12.114   4.412
24165W        W94765  25.968  12.187  11.952
24166W        W94766  32.156  41.841   3.901
24167W        W94767  13.595  41.367  13.796
24168W        W94768   2.487  15.757   2.232
24169W        W94769  18.536  34.621  11.345
24170W        W94770  14.802   7.340  14.298
24171W        W94771  11.939  30.602  11.742
24172W        W94772  10.311   3.690   4.264
24173W        W94773  35.999  26.544   4.067
24174W        W94774  39.861  20.372  11.127
24175W        W94775  32.649  25.171   2.863
24176W        W94776  32.978  10.213   3.141
24177W        W94777  13.270  24.634   3.339
24178W        W94778  24.806  17.315  14.275
24179W        W94779  42.726  14.866   0.407
24180W        W94780  19.143  29.513   4.614
24181W        W94781   9.828  11.071   1.218
24182W        W94782   4.747  26.498  13.835
24183W        W94783   5.234  17.535  12.178
24184W        W94784  44.567  15.208  14.362
24185W        W94785  20.694  32.985   1.763
24186W        W94786  42.349  39.111  12.327
24187W        W94787  18.197  28.097  10.613
24188W        W94788  27.458  35.965   3.100
24189W        W94789  22.577  12.608  12.970
24190W        W94790   4.214  18.596  10.947
24191W        W94791  24.707  19.249   3.728
24192W        W94792  26.484  38.437   1.618
24193W        W94793  21.571  28.188   3.595
24194W        W94794  21.229  41.139  13.249
24195W        W94795  23.989  43.674   5.009
24196W        W94796  39.595   7.247  12.950
24197W        W94797   2.457  11.161   2.620
24198W        W94798  13.100   4.854   1.813
24199W        W94799  10.145   4.806  12.731
24200W        W94800  15.857  35.734  12.144
24201W        W94801  24.133  20.704   4.631
24202W        W94802  16.715   0.028   4.170
24203W        W94803  11.882  29.515   3.186
24204W        W94804  18.464  31.437  12.122
24205W        W94805  23.542  33.247  11.525
24206W        W94806  33.059  17.266  12.612
24207W        W94807  20.025   2.769  14.831
24208W        W94808   4.166  30.458   1.783
24209W        W94809  28.772  27.845  11.101
24210W        W94810   6.510  43.727  12.853
24211W        W94811  21.165   8.146   1.654
24212W        W94812  24.120  35.997   3.997
24213W        W94813  31.473  14.711   2.650
24214W        W94814  43.525  25.324  12.563
24215W        W94815  39.010  25.807   0.297
24216W        W94816  35.708  28.489  10.491
24217W        W94817  39.764   0.492   1.289
24218W        W94818   5.173  31.570   0.035
24219W        W94819   7.069   7.801   4.520
24220W        W94820   6.582   2.662  13.460
24221W        W94821  26.663  33.630  14.974
24222W        W94822  26.157  22.822  14.808
24223W        W94823  10.780  42.789   0.367
24224W        W94824  41.719  34.169  12.899
24225W        W94825  25.335   3.338   4.553
24226W        W94826  43.051  14.615   0.732
24227W        W94827  13.049   1.395  14.903
24228W        W94828  34.353   5.292   3.242
24229W        W94829  28.069  14.452  10.756
24230W        W94830  24.149  34.185   3.132
24231W        W94831  32.501  26.275   1.621
24232W        W94832  23.627  17.944   0.794
24233W        W94833   4.910  18.624   1.773
24234W        W94834  15.712  30.632  11.928
24235W        W94835  36.236  15.366   0.888
24236W        W94836   8.220   7.910   1.885
24237W        W94837  40.917   4.750  11.942
24238W        W94838  12.144   0.535   2.273
24239W        W94839  29.943  21.983   3.487
24240W        W94840   5.780   3.753   0.173
24241W        W94841  37.835   7.619   3.693
24242W        W94842  38.391   7.371   0.751
24243W        W94843  14.845  43.385  11.767
24244W        W94844  43.579   3.429  12.453
24245W        W94845  26.662  37.877   0.241
24246W        W94846  32.083  35.178  14.067
24247W        W94847  14.327  15.872   1.537
24248W        W94848  26.140  23.732   3.145
24249W        W94849  18.162   7.269  10.473
24250W        W94850  16.178  22.725  14.843
24251W        W94851  17.205  37.633   4.557
24252W        W94852  39.783  42.920  14.283
24253W        W94853  15.283   3.672   1.814
24254W        W94854   8.270  27.000  11.962
24255W        W94855   3.711  29.530  13.596
24256W        W94856  25.074  10.206  13.452
24257W        W94857  24.981  31.823   1.379
24258W        W94858   9.287  30.623   3.220
24259W        W94859  15.331  18.358   4.138
24260W        W94860  14.496   2.944  11.573
24261W        W94861  43.791  24.175   3.583
24262W        W94862  20.340  44.187   4.400
24263W        W94863  31.872  34.719   2.681
24264W        W94864  18.211  13.047  14.344
24265W        W94865  25.953  40.909   0.441
24266W        W94866  28.863  43.271   2.594
24267W        W94867  42.044  38.618  14.035
24268W        W94868  35.934  44.017   2.813
24269W        W94869  11.724  23.940   5.288
24270W        W94870   7.408  26.551   3.816
24271W        W94871   2.488   5.628   3.823
24272W        W94872  22.263  38.263   0.559
24273W        W94873  39.015   9.051  13.702
24274W        W94874  25.695  31.589   3.604
24275W        W94875  32.305   8.918   4.588
24276W        W94876  11.062  36.700  14.849
24277W        W94877  12.933  30.615  14.601
24278W        W94878  36.640   3.204  13.071
24279W        W94879  43.717   3.192  13.478
24280W        W94880  26.809  22.085  14.602
24281W        W94881   4.449   3.882   3.259
24282W        W94882  40.625  31.144  12.146
24283W        W94883  12.743  24.466  12.874
24284W        W94884  30.127  42.390  10.753
24285W        W94885  18.299  33.904   4.374
24286W        W94886  41.870  14.680  12.367
24287W        W94887  38.973  41.405   1.714
24288W        W94888  37.616  36.814  12.037
24289W        W94889   8.853  44.520   3.642
24290W        W94890  25.711  36.665  14.324
24291W        W94891  35.642  31.076  13.344
24292W        W94892   6.629  33.964   4.080
24293W        W94893  15.601  30.142  10.931
24294W        W94894  34.811  23.736  11.076
24295W        W94895  42.155   0.034  14.922
24296W        W94896  18.680  39.443   0.426
24297W        W94897  40.115  38.327   0.285
24298W        W94898  14.364  43.539   0.436
24299W        W94899  34.686  26.635  10.695
24300W        W94900  44.996  28.878  13.940
24301W        W94901  22.939  35.710   5.148
24302W        W94902   8.395  33.609   1.195
24303W        W94903  13.375   7.856   0.056
24304W        W94904  21.597  34.239   4.589
24305W        W94905  22.278   9.604  14.922
24306W        W94906  24.830  12.337  11.548
24307W        W94907  28.005  17.847   2.887
24308W        W94908  23.647  36.443  10.725
24309W        W94909  42.466  35.890  10.609
24310W        W94910  44.929  33.478  13.016
24311W        W94911  31.925  30.431  13.639
24312W        W94912   5.349  27.703  11.074
24313W        W94913  18.263  20.547  13.885
24314W        W94914  18.077   8.780  10.323
24315W        W94915  40.292  16.133   4.018
24316W        W94916  43.332  30.651  13.575
24317W        W94917  37.465  26.032  11.755
24318W        W94918  38.946  41.440  10.847
24319W        W94919  28.093  14.690   5.094
24320W        W94920  39.244  36.289  12.559
24321W        W94921  23.014  10.702   0.297
24322W        W94922  37.144  31.168   4.146
24323W        W94923   0.957  18.734   1.358
24324W        W94924   8.986  30.538  14.183
24325W        W94925  29.800  40.384   1.752
24326W        W94926   4.212  32.848  14.265
24327W        W94927  40.558  39.367   2.306
24328W        W94928   6.732  16.321   2.307
24329W        W94929  19.110  30.477  13.889
24330W        W94930  14.260   4.123  11.106
24331W        W94931  34.947  22.220  14.996
24332W        W94932  33.934  14.106   1.003
24333W        W94933  43.865  30.559  13.606
24334W        W94934   1.929   4.730   3.623
24335W        W94935  30.172  29.190   3.251
24336W        W94936   2.645  24.706   3.723
24337W        W94937  38.320   7.957  13.055
24338W        W94938   3.164   8.305   4.153
24339W        W94939   0.888  30.696   4.587
24340W        W94940  44.334  14.115   2.633
24341W        W94941  28.541  40.774   1.425
24342W        W94942  41.960  11.649  13.834
24343W        W94943  37.952   6.665   0.811
24344W        W94944  31.416  15.910  12.527
24345W        W94945   5.685  10.307   0.758
24346W        W94946  21.264  16.361  11.622
24347W        W94947   3.999  14.707   3.902
24348W        W94948  17.117  30.308   1.369
24349W        W94949  21.222  27.659   4.518
24350W        W94950  28.576  22.268  11.378
24351W        W94951  10.609  23.441   3.303
24352W        W94952  19.674   8.717   3.150
24353W        W94953   8.796   3.445   0.019
24354W        W94954  14.382  22.124  13.067
24355W        W94955   2.477  22.720  12.934
24356W        W94956   6.079  32.047  13.462
24357W        W94957   4.838  21.274   2.183
24358W        W94958  11.770   0.502   4.078
24359W        W94959  11.509  26.893   1.752
24360W        W94960  20.265  43.331   4.253
24361W        W94961  36.610   4.660   0.853
24362W        W94962  21.011  29.931   2.493
24363W        W94963   0.240  13.914  12.059
24364W        W94964  16.441  15.763   2.377
24365W        W94965  36.411  19.278  13.485
24366W        W94966  32.322  12.982  10.303
24367W        W94967   8.946   8.347  13.134
24368W        W94968  32.520   9.471  10.728
24369W        W94969  43.076  19.295   2.267
24370W        W94970  44.791  18.608  12.154
24371W        W94971  10.619  21.776   2.805
24372W        W94972  21.356   6.695  11.791
24373W        W94973  18.760  21.415   3.236
24374W        W94974  11.193  25.827  14.699
24375W        W94975  41.985  10.269  10.743
24376W        W94976  25.165   4.836   3.259
24377W        W94977   0.020  34.509   4.240
24378W        W94978  44.562  43.530   5.135
24379W        W94979   5.501  31.638   1.472
24380W        W94980  12.436  24.593   2.356
24381W        W94981  35.931  42.730  13.469
24382W        W94982  38.079  20.625   3.787
24383W        W94983  17.026  26.009  14.931
24384W        W94984  14.626   4.792  13.085
24385W        W94985  25.897   2.349   2.882
24386W        W94986  13.317  24.413   3.810
24387W        W94987  22.865   1.047   4.898
24388W        W94988  18.437   3.416   9.963
24389W        W94989  36.980  43.490   2.770
24390W        W94990  20.553  14.792  10.844
24391W        W94991  44.300  11.198  13.327
24392W        W94992  21.548  18.630   4.696
24393W        W94993  34.111   5.095   2.806
24394W        W94994   5.242   5.410  13.028
24395W        W94995  16.452  19.430   2.705
24396W        W94996  40.801  27.063  10.922
24397W        W94997  35.031  18.725  12.498
24398W        W94998  36.470  37.373   2.391
24399W        W94999  37.420  13.375   1.192
24400W        W95000  27.452  36.632   2.507
24401W        W95001  13.299   8.410  12.781
24402W        W95002  24.007  21.527  13.090
24403W        W95003   6.449  30.699  12.815
24404W        W95004  25.688  17.275  13.886
24405W        W95005  28.558  12.872  13.407
24406W        W95006  35.007  18.029  14.313
24407W        W95007  35.036  19.292  11.481
24408W        W95008  18.078  27.397  14.311
24409W        W95009  34.420  13.036  12.009
24410W        W95010  18.664   2.870  12.603
24411W        W95011   5.667  43.334   3.576
24412W        W95012  29.896  31.622  13.483
24413W        W95013  22.767  23.925  11.604
24414W        W95014   7.820  35.006  13.040
24415W        W95015  40.247  10.537   1.436
24416W        W95016   2.879  20.681  14.448
24417W        W95017  11.972   7.170   2.950
24418W        W95018  35.147  15.139  10.734
24419W        W95019  30.554  24.497  13.889
24420W        W95020  37.403  11.201   4.119
24421W        W95021  19.631  15.653  12.614
24422W        W95022  20.766  43.511  12.864
24423W        W95023  40.345  42.962   0.790
24424W        W95024  39.641   8.250   1.526
24425W        W95025  36.005   5.698   0.357
24426W        W95026  35.327  32.946  13.510
24427W        W95027  37.154   5.753  11.382
24428W        W95028  35.135   2.740   4.431
24429W        W95029  39.009   9.082  14.905
24430W        W95030  44.476  33.953  11.212
24431W        W95031  31.239  38.729  12.446
24432W        W95032   3.746  17.727  13.105
24433W        W95033  43.026  43.709   4.070
24434W        W95034   1.851  18.571  10.972
24435W        W95035  25.676  38.096  12.458
24436W        W95036   9.778  24.568  13.556
24437W        W95037   2.073  32.368   2.215
24438W        W95038  26.072  14.613  14.881
24439W        W95039  26.002  34.294   3.772
24440W        W95040  20.604  42.492   3.828
24441W        W95041  12.723  36.191   0.599
24442W        W95042  37.908  42.516  13.446
24443W        W95043  15.103  36.122   3.600
24444W        W95044  34.523  27.787  11.651
24445W        W95045  31.572  28.996   2.384
24446W        W95046  42.834  27.089  14.186
24447W        W95047  35.467  36.866  12.042
24448W        W95048  38.028  31.578  11.237
24449W        W95049   1.621  43.092  13.755
24450W        W95050  10.933   9.360   2.290
24451W        W95051  21.663   0.761   4.851
24452W        W95052  30.281  32.998   1.392
24453W        W95053  13.298  32.863   4.235
24454W        W95054  15.489  17.250   5.028
24455W        W95055  14.112  37.356   2.238
24456W        W95056  30.887  26.747   0.261
24457W        W95057  40.248   6.792  12.118
24458W        W95058   9.895  38.312  11.486
24459W        W95059  39.906  37.616  12.964
24460W        W95060  25.305   8.773  12.278
24461W        W95061  34.655  25.095  13.549
24462W        W95062   7.074  43.373   2.451
24463W        W95063  31.544  24.839   1.118
24464W        W95064  22.068  23.732  11.968
24465W        W95065  19.822  39.697   3.136
24466W        W95066  14.768  16.170  14.401
24467W        W95067  13.769  19.791   4.691
24468W        W95068   2.406  35.713  11.143
24469W        W95069  42.675   0.962   0.876
24470W        W95070  28.375  34.316   2.059
24471W        W95071   3.244  10.162   2.239
24472W        W95072   3.448  19.684  13.978
24473W        W95073  16.874  21.809  13.879
24474W        W95074  25.532  31.413  11.454
24475W        W95075  42.785  42.307   0.049
24476W        W95076   9.144  11.306   2.767
24477W        W95077   8.778  22.497  10.600
24478W        W95078   8.644  38.538  14.959
24479W        W95079   4.373  33.307  13.876
24480W        W95080  23.506   6.830  12.992
24481W        W95081  40.595   3.446  12.964
24482W        W95082  16.105  17.712   1.718
24483W        W95083  30.230  12.735   1.793
24484W        W95084  38.332  23.469  13.395
24485W        W95085  13.721   9.242  10.915
24486W        W95086  20.723  17.582  12.208
24487W        W95087  11.019  15.592   2.263
24488W        W95088  38.788  43.638   2.881
24489W        W95089  28.662  13.278  11.127
24490W        W95090   9.418  34.397  11.218
24491W        W95091  25.745  24.491  11.256
24492W        W95092  35.563  36.775   2.781
24493W        W95093  32.911  30.943   3.325
24494W        W95094   0.842  17.278  14.201
24495W        W95095  16.722  10.371   3.679
24496W        W95096  34.989  13.776   3.845
24497W        W95097  37.770   0.211   1.714
24498W        W95098  30.694  22.412  14.556
24499W        W95099  31.584  42.312  13.000
24500W        W95100  20.654   8.864  12.467
24501W        W95101  36.313  18.687   5.028
24502W        W95102  31.068  12.700   4.139
24503W        W95103   3.856  14.178   4.595
24504W        W95104  12.208  30.491  11.291
24505W        W95105  11.604  38.960  11.557
24506W        W95106  20.227  28.766  11.938
24507W        W95107   2.719   7.202  12.168
24508W        W95108  26.620   5.916  12.365
24509W        W95109  41.583  10.776   2.896
24510W        W95110  15.875  27.430  12.518
24511W        W95111   1.001  28.071   0.453
24512W        W95112  41.461  35.167  11.072
24513W        W95113  13.643   6.728   4.778
24514W        W95114   1.250  17.986  11.406
24515W        W95115   2.031  37.652   2.868
24516W        W95116  35.572  19.053   4.704
24517W        W95117   8.012  15.196  11.521
24518W        W95118   1.909  30.954  14.567
24519W        W95119   7.158   0.588   1.327
24520W        W95120  40.843   5.165   3.219
24521W        W95121   8.181  37.398   0.943
24522W        W95122   1.711  27.281   1.412
24523W        W95123  37.002  13.923  14.055
24524W        W95124  12.947  36.557  13.810
24525W        W95125  37.689  37.131  14.838
24526W        W95126  22.380  29.512   4.171
24527W        W95127   2.394  44.917   3.166
24528W        W95128  42.930  39.566  13.812
24529W        W95129   4.769   3.737   2.760
24530W        W95130  11.356  15.779   3.825
24531W        W95131  41.250  35.594  13.002
24532W        W95132  21.304  23.960  10.927
24533W        W95133  27.711  32.580   4.663
24534W        W95134  43.777  20.220   5.428
24535W        W95135  39.737  36.402  11.647
24536W        W95136  17.593  27.288  13.880
24537W        W95137   6.257  40.486   0.240
24538W        W95138  38.138  29.617  11.941
24539W        W95139  36.855  25.548  11.167
24540W        W95140  13.657  41.084   2.766
24541W        W95141  17.009  13.007  13.958
24542W        W95142  44.848  37.442   1.457
24543W        W95143  13.195   9.157  14.841
24544W        W95144  43.222  22.478   1.307
24545W        W95145  19.321  25.469  11.649
24546W        W95146   5.349  29.946  13.507
24547W        W95147  18.049   1.340   2.856
24548W        W95148  28.855  20.530  14.870
24549W        W95149   8.419  40.367   0.913
24550W        W95150  37.890  16.769   3.298
24551W        W95151  32.218  11.731   3.297
24552W        W95152  25.306  39.005  12.671
24553W        W95153  39.812  40.317   2.671
24554W        W95154   3.565  10.235  13.404
24555W        W95155  15.072  29.058  10.652
24556W        W95156  19.745  27.579   4.548
24557W        W95157  42.365  13.916  12.220
24558W        W95158  26.459  22.337  13.957
24559W        W95159  42.962  42.781   1.412
24560W        W95160  42.913  33.607  11.712
24561W        W95161   0.192  38.631   0.479
24562W        W95162  17.257  34.485   0.243
24563W        W95163  15.500  42.474  14.503
24564W        W95164  23.917  28.554  11.212
24565W        W95165  22.049  29.176   3.761
24566W        W95166  13.315  23.114   1.725
24567W        W95167   1.536  12.219  14.507
24568W        W95168  41.990  41.254   3.251
24569W        W95169  31.516  20.675   1.367
24570W        W95170  13.797  22.983   2.633
24571W        W95171  39.137  18.500  12.038
24572W        W95172   2.737  25.968  14.962
24573W        W95173  19.219  34.741   2.621
24574W        W95174  17.944   6.694   2.165
24575W        W95175   0.442   4.714  14.725
24576W        W95176  21.726  39.450  10.960
24577W        W95177  20.207  20.992   0.872
24578W        W95178  28.246  33.675  14.437
24579W        W95179  25.476   6.315   1.878
24580W        W95180  17.697   4.958   4.686
24581W        W95181  23.449  36.547  12.005
24582W        W95182   8.971   7.492  13.320
24583W        W95183  25.752  30.626  11.995
24584W        W95184  13.144  35.340   3.858
24585W        W95185  25.116  42.558  11.589
24586W        W95186   7.748  28.924   2.760
24587W        W95187  44.532  23.236  10.713
24588W        W95188   8.844   8.823  14.287
24589W        W95189  19.184  39.531  14.761
24590W        W95190  24.921  34.919  12.010
24591W        W95191  10.509  15.821  10.717
24592W        W95192  13.554  35.902  12.682
24593W        W95193  40.010   3.900  13.034
24594W        W95194  17.710  33.808  11.556
24595W        W95195   6.516  11.825   2.924
24596W        W95196   7.223  43.009   4.278
24597W        W95197  37.072  35.777   4.102
24598W        W95198  22.558  29.036  12.147
24599W        W95199  20.999   7.337  13.870
24600W        W95200   8.108  22.992  14.963
24601W        W95201  20.493  38.584   3.621
24602W        W95202  11.949  14.718   2.841
24603W        W95203  41.968   1.977  13.122
24604W        W95204  38.882   9.335   3.651
24605W        W95205  23.088  25.743  11.214
24606W        W95206  38.722  17.848  11.039
24607W        W95207  13.639  30.486   1.123
24608W        W95208   7.308  22.717  14.449
24609W        W95209  35.779  16.623   1.392
24610W        W95210  24.710  32.384   3.712
24611W        W95211   8.376  11.062  13.878
24612W        W95212  36.521  10.354   3.676
24613W        W95213  29.306  28.663   2.344
24614W        W95214  10.716  29.713   4.279
24615W        W95215  28.430  13.213   2.914
24616W        W95216  14.822  21.767  12.455
24617W        W95217   2.390  37.823   3.208
24618W        W95218  27.160  23.734   2.246
24619W        W95219  38.553  22.757  14.041
24620W        W95220  35.374  34.410  14.813
24621W        W95221  18.395  41.577  10.876
24622W        W95222  26.856  22.027   0.949
24623W        W95223   7.231   4.286  12.956
24624W        W95224  22.158   6.481  11.986
24625W        W95225   5.852  16.212  10.561
24626W        W95226  17.531  12.599  12.046
24627W        W95227  31.498  34.378   1.869
24628W        W95228  39.652  17.980   3.972
24629W        W95229   4.003  43.337  10.673
24630W        W95230  24.143  22.223  10.538
24631W        W95231   8.153  23.770  14.321
24632W        W95232  15.922  17.829   4.492
24633W        W95233  19.951  34.820   3.821
24634W        W95234  37.800  27.421  13.360
24635W        W95235  24.622  21.144   4.369
24636W        W95236  42.251  14.849  11.252
24637W        W95237  20.363  38.417  10.859
24638W        W95238   0.971  42.192   0.547
24639W        W95239  33.182   6.323   4.840
24640W        W95240  14.916   2.146   4.371
24641W        W95241  12.169  14.413   2.461
24642W        W95242  18.413   3.928  11.956
24643W        W95243  21.239  18.277  11.204
24644W        W95244  12.484  30.520   4.074
24645W        W95245   1.599   5.446   0.434
24646W        W95246  13.873  32.917   3.572
24647W        W95247  26.407  34.308  10.931
24648W        W95248   3.502  21.740   0.045
24649W        W95249  35.669  17.825  11.199
24650W        W95250  40.120   2.457  12.997
24651W        W95251  38.335  33.572  14.262
24652W        W95252  22.199  19.342  11.542
24653W        W95253  24.038  15.668   2.888
24654W        W95254  44.935  32.471   0.929
24655W        W95255  12.625   3.249   3.421
24656W        W95256  30.123   2.600   4.365
24657W        W95257  36.353  23.077  13.993
24658W        W95258  35.574   6.916   3.582
24659W        W95259  33.067  18.675   2.234
24660W        W95260  19.801   3.665   3.694
24661W        W95261  25.639  14.296   3.146
24662W        W95262  10.834  26.257  14.858
24663W        W95263  38.994   0.149  11.641
24664W        W95264  14.298  36.983  13.947
24665W        W95265   6.838  30.541   3.346
24666W        W95266  29.261   1.061  13.162
24667W        W95267   7.607   9.553   3.405
24668W        W95268   6.357  36.251  10.423
24669W        W95269  42.716  44.109   3.577
24670W        W95270  42.698  10.653   4.171
24671W        W95271   4.719  20.299   0.921
24672W        W95272  17.687  35.977   0.424
24673W        W95273  20.655  35.723   1.057
24674W        W95274  28.009  11.763  14.719
24675W        W95275  40.009  20.251   1.377
24676W        W95276  20.114   2.506   1.935
24677W        W95277   0.416  23.615   4.904
24678W        W95278  44.736  30.592   0.781
24679W        W95279  33.094  17.021  13.644
24680W        W95280  19.999  20.488  14.340
24681W        W95281   6.267  38.084   3.065
24682W        W95282  44.731   9.527  11.303
24683W        W95283  36.593   0.670   2.756
24684W        W95284  39.461   9.551  13.717
24685W        W95285  30.085  43.505   1.784
24686W        W95286  35.825  27.059  12.099
24687W        W95287  17.589  30.642  11.064
24688W        W95288  41.471  40.810   1.081
24689W        W95289   8.757   7.908  14.636
24690W        W95290  42.887  42.612   2.743
24691W        W95291   7.450  25.609   1.963
24692W        W95292  27.043  24.914  10.776
24693W        W95293  19.094  18.879   1.623
24694W        W95294   6.325  37.359  12.922
24695W        W95295  24.645   6.662   0.220
24696W        W95296  30.069  37.063   3.771
24697W        W95297  11.128  17.101   4.024
24698W        W95298   7.633  22.781   1.811
24699W        W95299  21.202  38.302   1.345
24700W        W95300  14.331  40.863  10.788
24701W        W95301  21.509  38.663  12.916
24702W        W95302  27.114  15.635   2.936
24703W        W95303  32.652  22.247  12.913
24704W        W95304  40.506  29.861  13.278
24705W        W95305  19.298  35.977  11.867
24706W        W95306  29.239  34.388  12.489
24707W        W95307  15.142   0.104   0.901
24708W        W95308  34.800  30.792   4.478
24709W        W95309  21.873  13.557   1.334
24710W        W95310   3.887  28.599  14.874
24711W        W95311   1.493  25.419  13.410
24712W        W95312  41.002  39.134  14.272
24713W        W95313   0.056  20.795   0.413
24714W        W95314  16.759   7.520   0.955
24715W        W95315  24.975   9.328   5.408
24716W        W95316  22.553  28.175  14.342
24717W        W95317   7.235  37.386  11.604
24718W        W95318  32.342  22.133   2.905
24719W        W95319  18.031  42.831   0.727
24720W        W95320  29.500   4.879   2.834
24721W        W95321   9.683  24.559  12.089
24722W        W95322  37.709  42.781  11.207
24723W        W95323  12.561  36.427   3.315
24724W        W95324  38.497  17.205  14.285
24725W        W95325   7.301   0.808  14.767
24726W        W95326  31.427  42.279  12.110
24727W        W95327  13.657   9.136  13.389
24728W        W95328  43.590  17.833   4.277
24729W        W95329  42.023  34.844   1.204
24730W        W95330  37.863  39.091  12.096
24731W        W95331   9.117  12.172  12.713
24732W        W95332  34.457  35.932   0.213
24733W        W95333  32.622  41.657   1.141
24734W        W95334  39.407  31.047  12.141
24735W        W95335   1.707   8.174   4.104
24736W        W95336  28.043   3.298   3.664
24737W        W95337  17.054  21.262  14.862
24738W        W95338  38.998  35.413   1.250
24739W        W95339  41.935  41.934   2.903
24740W        W95340  14.293  42.607  11.950
24741W        W95341  43.505   1.419   2.663
24742W        W95342   2.181  19.744  11.947
24743W        W95343  15.526  40.818   3.183
24744W        W95344  42.592  27.071  12.911
24745W        W95345  35.116  40.320   0.992
24746W        W95346  39.024  23.109  12.897
24747W        W95347  44.895  37.107   1.953
24748W        W95348  35.735  27.547  11.332
24749W        W95349  41.883  40.310  11.667
24750W        W95350  43.346  10.121  13.679
24751W        W95351  33.384   5.994   2.214
24752W        W95352  28.442  43.047   1.733
24753W        W95353  16.091   8.594  12.151
24754W        W95354  41.405   7.491   0.903
24755W        W95355  41.399  20.123   2.299
24756W        W95356   2.308  14.214  13.806
24757W        W95357   7.506  10.158  11.651
24758W        W95358  32.997  36.416  12.926
24759W        W95359  16.765  11.701   1.177
24760W        W95360  12.281   8.811   0.515
24761W        W95361  27.661  32.406  11.698
24762W        W95362   1.869  25.415   1.248
24763W        W95363   9.258  27.541   1.669
24764W        W95364  31.067  10.720   4.112
24765W        W95365  11.985   3.586   0.236
24766W        W95366  20.957  13.545   4.547
24767W        W95367  43.948   7.412   3.338
24768W        W95368  25.234  12.413  10.518
24769W        W95369  39.733  28.506   3.539
24770W        W95370  39.062  31.580  11.222
24771W        W95371  30.431  36.005   4.597
24772W        W95372  33.609   8.145  12.008
24773W        W95373  41.809  25.742  12.155
24774W        W95374  26.480  18.604   0.806
24775W        W95375  37.806  41.540  14.407
24776W        W95376  17.167  41.272   3.664
24777W        W95377   0.296  11.017   0.323
24778W        W95378  32.000   6.220   0.906
24779W        W95379   2.781  17.314  12.275
24780W        W95380  43.684  36.694   1.480
24781W        W95381   8.216  23.292  14.533
24782W        W95382  21.947   6.438  11.164
24783W        W95383   0.643  34.905  14.812
24784W        W95384  36.962  20.014  12.551
24785W        W95385  30.998  28.219  12.900
24786W        W95386  40.766  13.992   3.687
24787W        W95387  22.546  22.740  11.924
24788W        W95388  12.184  40.371  14.753
24789W        W95389  21.412  14.539  12.785
24790W        W95390  44.047  38.500   3.705
24791W        W95391  12.179  20.646   4.116
24792W        W95392  20.657  37.047   2.397
24793W        W95393  41.721  22.747  10.842
24794W        W95394  39.532  43.225  10.606
24795W        W95395  31.340  43.837  13.118
24796W        W95396  39.045  20.193  14.644
24797W        W95397  26.809   7.907  12.908
24798W        W95398   7.389  35.801   2.250
24799W        W95399   1.335  13.263   0.484
24800W        W95400  31.673  37.170   4.360
24801W        W95401  22.991  27.887   0.237
24802W        W95402  14.285  19.449   4.003
24803W        W95403  13.472   8.637  11.544
24804W        W95404  39.376   0.245  13.457
24805W        W95405  15.227  15.936  10.084
24806W        W95406  20.268  10.337   1.741
24807W        W95407  43.459  41.771   2.891
24808W        W95408  25.394   3.886  12.490
24809W        W95409   3.980   1.301   3.197
24810W        W95410  18.318   9.691  13.726
24811W        W95411  19.309  16.987   3.683
24812W        W95412  31.246  29.381  11.083
24813W        W95413  18.316  29.049   4.823
24814W        W95414  12.827  37.081   3.746
24815W        W95415   6.162   9.770   3.305
24816W        W95416  12.782  31.444  11.070
24817W        W95417  19.495  17.667  14.971
24818W        W95418  16.108  40.058   2.805
24819W        W95419  31.530  40.780   3.272
24820W        W95420  37.910  29.557  13.808
24821W        W95421   8.767  39.611   1.913
24822W        W95422  32.413  39.836   3.299
24823W        W95423  38.061  12.751   1.360
24824W        W95424   1.820   2.542  12.097
24825W        W95425  13.342  23.889  13.518
24826W        W95426  19.386  22.569   0.513
24827W        W95427  39.484   8.308   0.996
24828W        W95428   0.063   8.466  10.641
24829W        W95429  29.529  29.144   2.681
24830W        W95430  24.269  14.103   0.521
24831W        W95431  22.891   6.454   2.591
24832W        W95432   8.335   3.903   0.368
24833W        W95433  22.994  30.626  11.675
24834W        W95434  31.364  12.700   1.287
24835W        W95435  10.186  21.295  13.635
24836W        W95436  24.999   4.613   4.624
24837W        W95437  15.125  16.322  10.387
24838W        W95438   3.778  14.732  12.663
24839W        W95439  15.732  14.574  11.627
24840W        W95440  32.946  25.429   4.671
24841W        W95441   2.440  19.055  11.189
24842W        W95442   2.702  32.401  12.002
24843W        W95443  27.764   3.861  14.029
24844W        W95444   1.842  28.382  13.977
24845W        W95445   4.913  25.561  13.922
24846W        W95446   5.731  20.205  13.359
24847W        W95447  38.064   2.888  14.353
24848W        W95448   7.818  21.180   2.337
24849W        W95449   0.372   5.933  12.416
24850W        W95450  28.708  26.996   0.874
24851W        W95451   4.178   3.435  14.878
24852W        W95452  30.427  17.312   3.806
24853W        W95453  30.084  34.886   3.141
24854W        W95454  26.090  41.747   2.193
24855W        W95455  18.734  24.001  13.139
24856W        W95456   7.464   4.701   4.693
24857W        W95457   4.698   1.330   2.542
24858W        W95458  36.979  27.060   4.869
24859W        W95459  16.803   0.898   4.848
24860W        W95460   1.327  24.679  13.887
24861W        W95461  26.948  37.812   2.128
24862W        W95462  31.823   7.326   0.868
24863W        W95463  34.830   9.131  11.529
24864W        W95464  29.710  11.275  14.572
24865W        W95465  28.519  23.900   0.689
24866W        W95466   1.182  37.097  13.293
24867W        W95467  23.063  41.721  10.748
24868W        W95468  28.092  20.818  11.349
24869W        W95469  14.612  15.493  14.693
24870W        W95470  19.189   3.789   0.350
24871W        W95471  17.281  14.843   0.108
24872W        W95472   5.586  29.761  11.105
24873W        W95473  36.685  44.317  11.116
24874W        W95474  37.663  32.596  12.544
24875W        W95475  32.880  10.056   0.007
24876W        W95476  19.470  41.412  12.446
24877W        W95477  11.792  13.418  12.927
24878W        W95478  21.578  44.797  13.489
24879W        W95479   4.242   7.823  14.512
24880W        W95480  19.788  42.513   3.206
24881W        W95481  11.319  42.639  10.095
24882W        W95482  32.630   0.314   2.891
24883W        W95483   6.348  37.620   2.846
24884W        W95484   5.687  42.059   2.310
24885W        W95485  36.839   7.689  10.704
24886W        W95486   0.363  12.934  11.187
24887W        W95487   6.818  21.080   3.240
24888W        W95488  35.923  29.607   4.665
24889W        W95489   5.967  15.807   9.987
24890W        W95490  43.442  28.202  14.019
24891W        W95491  31.653  41.385   1.859
24892W        W95492  29.995   8.580   1.460
24893W        W95493   1.815   8.267   2.662
24894W        W95494  25.012  12.188   2.327
24895W        W95495  10.336  37.455   3.363
24896W        W95496  39.698  39.883  12.855
24897W        W95497  24.133  34.401  10.748
24898W        W95498  29.978  32.133   4.150
24899W        W95499  20.199  37.372  10.976
24900W        W95500  41.104  42.947  12.538
24901W        W95501  44.902   2.295   3.397
24902W        W95502   7.998  41.078   4.489
24903W        W95503  38.966  22.248  13.502
24904W        W95504   6.721   2.015   4.261
24905W        W95505  25.121  12.862  12.142
24906W        W95506  42.877  12.580  10.726
24907W        W95507  16.413  26.049  13.498
24908W        W95508  41.518  42.323   3.348
24909W        W95509  13.540  26.578   2.758
24910W        W95510   8.865  36.816  13.477
24911W        W95511   3.745  17.687   4.956
24912W        W95512  34.106  21.381  12.894
24913W        W95513  34.000  27.424   2.727
24914W        W95514   6.262   4.108   4.827
24915W        W95515  17.674   6.348  12.787
24916W        W95516  27.508   4.272  13.298
24917W        W95517  40.443  42.055   1.319
24918W        W95518  23.663  25.521  11.852
24919W        W95519  23.725   8.499  11.982
24920W        W95520  15.834  36.578   4.560
24921W        W95521  41.600  30.512   3.943
24922W        W95522  25.461   0.410   2.203
24923W        W95523  40.916  21.456   2.346
24924W        W95524  16.047  24.728  14.427
24925W        W95525  31.426  13.426  13.607
24926W        W95526  33.887  37.393   1.784
24927W        W95527  12.649  37.620   0.332
24928W        W95528  36.440  44.715   2.677
24929W        W95529  20.659  37.056   1.331
24930W        W95530  28.348  41.372   4.823
24931W        W95531  24.685   6.291  14.350
24932W        W95532  26.577  10.668  12.998
24933W        W95533  24.207  13.179   4.685
24934W        W95534   9.442  24.450  12.529
24935W        W95535  15.877  43.822   4.449
24936W        W95536   0.586  19.520   2.289
24937W        W95537   5.847  14.105   0.055
24938W        W95538  21.681  33.514  13.638
24939W        W95539  44.519  38.459  12.435
24940W        W95540  33.332  10.821  12.965
24941W        W95541  36.567   7.896  11.832
24942W        W95542  34.537  19.007  14.835
24943W        W95543   4.845  18.828   0.363
24944W        W95544  12.796  25.691  10.821
24945W        W95545  39.361  28.061  11.092
24946W        W95546   2.373   7.691   0.598
24947W        W95547  17.334  30.587  14.266
24948W        W95548  18.926  44.414  14.332
24949W        W95549  17.150  29.548   4.457
24950W        W95550  39.748  43.256   0.358
24951W        W95551  12.028  27.503   0.771
24952W        W95552  11.338   1.673   2.586
24953W        W95553  32.924  16.891   1.161
24954W        W95554  38.151  35.087  10.984
24955W        W95555  31.049  29.543   0.836
24956W        W95556   8.124  28.679  14.823
24957W        W95557  13.201  20.957  11.987
24958W        W95558  11.216  23.548  13.710
24959W        W95559  30.069  12.905  10.762
24960W        W95560  17.861  18.313   4.593
24961W        W95561   6.269  40.546   0.765
24962W        W95562  28.192   8.880   9.851
24963W        W95563  33.825  10.836   0.261
24964W        W95564  17.332  41.524  14.546
24965W        W95565  25.646   8.001   3.169
24966W        W95566  17.391  24.172  12.857
24967W        W95567   9.341  23.664   2.875
24968W        W95568   5.407  34.903  12.134
24969W        W95569  24.608   3.314  12.829
24970W        W95570   8.103   2.518   4.162
24971W        W95571  16.237  23.622   3.713
24972W        W95572  16.547  43.832  11.000
24973W        W95573  23.097  33.584  11.823
24974W        W95574  12.726  31.199   3.176
24975W        W95575  10.812   0.284  10.666
24976W        W95576   6.409  35.474   0.318
24977W        W95577  36.426  15.516  14.528
24978W        W95578  42.228  29.513  11.475
24979W        W95579  28.954  26.721  13.855
24980W        W95580  35.328  34.531   0.309
24981W        W95581  16.378  21.912  14.626
24982W        W95582   9.641  25.221   1.249
24983W        W95583   2.682  18.701   3.642
24984W        W95584  42.046   5.187  13.880
24985W        W95585   5.917   1.058   4.269
24986W        W95586   2.976   8.755  12.496
24987W        W95587  24.225  15.280  12.889
24988W        W95588  27.418   6.631   3.236
24989W        W95589   8.369  18.152  11.610
24990W        W95590  33.586  41.968   4.747
24991W        W95591  11.375  28.215  12.924
24992W        W95592  15.593  22.654   3.347
24993W        W95593   8.515   9.896   4.378
24994W        W95594  35.388  10.685   4.530
24995W        W95595  25.961   2.453   3.818
24996W        W95596   1.411  25.938  13.364
24997W        W95597  18.964  22.115  12.441
24998W        W95598  31.430  14.614  11.142
24999W        W95599  28.211  24.187   3.910
25000W        W95600  28.440  39.760   1.307
25001W        W95601  24.186  39.370   1.774
25002W        W95602   9.833  12.077   1.425
25003W        W95603  31.832   5.954   5.106
25004W        W95604  40.462   4.480  11.894
25005W        W95605  15.590   7.156   4.491
25006W        W95606   6.904  17.591   4.644
25007W        W95607  43.478  14.109   1.895
25008W        W95608  19.768  26.054  12.301
25009W        W95609   4.087  42.009  14.363
25010W        W95610  11.161  35.006   2.275
25011W        W95611  39.117   1.945   1.952
25012W        W95612  30.090  20.507  13.517
25013W        W95613   4.445  19.067   2.323
25014W        W95614  19.952  34.073  13.526
25015W        W95615  33.023  26.618   2.299
25016W        W95616  26.743   1.797  14.884
25017W        W95617  21.813  44.041   3.574
25018W        W95618  24.609  37.635   0.250
25019W        W95619  26.018  25.221   3.318
25020W        W95620   5.973  16.229  14.292
25021W        W95621  33.452   0.433  12.902
25022W        W95622  30.360  39.365  12.898
25023W        W95623  21.545  27.233  12.641
25024W        W95624  19.348  20.924   5.149
25025W        W95625  41.412   7.373   4.469
25026W        W95626   7.829  14.223  14.870
25027W        W95627  43.491  12.792   2.131
25028W        W95628   1.707  20.772   2.278
25029W        W95629  32.486  31.502  14.834
25030W        W95630  29.872  24.892  13.962
25031W        W95631  36.887   2.961   3.704
25032W        W95632  39.398  11.790  11.064
25033W        W95633  26.231  19.631   3.199
25034W        W95634  40.859  20.912  12.038
25035W        W95635   1.234   5.049  14.108
25036W        W95636  35.591  13.683   0.725
25037W        W95637  16.413  42.589  14.782
25038W        W95638  28.227  10.424   0.921
25039W        W95639   8.186  41.544   4.677
25040W        W95640  44.273  36.641  14.887
25041W        W95641  37.853  10.177  13.328
25042W        W95642  29.567  10.626  14.032
25043W        W95643  32.055   6.762  13.521
25044W        W95644  15.627  29.523   3.626
25045W        W95645  28.406  21.278   2.331
25046W        W95646  29.486  38.488   0.246
25047W        W95647  35.608  22.850   1.309
25048W        W95648   8.040  22.968  10.481
25049W        W95649  10.014   3.920   2.899
25050W        W95650   2.518  44.568  13.502
25051W        W95651  15.195   0.285   2.698
25052W        W95652  43.375   8.586  10.793
25053W        W95653  15.590  42.840   1.036
25054W        W95654  26.313  14.611  13.152
25055W        W95655  23.443  38.755   3.668
25056W        W95656   1.979  26.086  14.878
25057W        W95657   0.013  35.016  11.055
25058W        W95658  16.081   6.810   0.956
25059W        W95659  31.852  38.650   3.704
25060W        W95660  20.758  33.419   2.820
25061W        W95661   4.290   3.494  14.349
25062W        W95662   8.350  11.579  13.855
25063W        W95663  14.194  14.421   3.145
25064W        W95664   2.829   5.691   2.156
25065W        W95665   9.193  21.782  13.388
25066W        W95666  20.988   7.588  13.395
25067W        W95667  11.261  18.215   0.686
25068W        W95668   2.543  40.447   1.049
25069W        W95669  13.027  33.296   4.220
25070W        W95670   1.190  27.689  14.290
25071W        W95671  40.642  10.130  12.956
25072W        W95672  14.193  17.465   1.785
25073W        W95673  42.880  23.269  13.956
25074W        W95674  12.822   5.087   0.324
25075W        W95675   5.938  38.388  12.097
25076W        W95676  41.830  34.858   0.362
25077W        W95677   8.976   0.467   2.745
25078W        W95678   8.394  13.194   1.354
25079W        W95679  10.736   2.651   2.295
25080W        W95680  29.152  38.482   4.506
25081W        W95681  33.059  13.083   0.195
25082W        W95682  29.536  21.247   1.081
25083W        W95683  32.030   8.149  14.944
25084W        W95684   6.383  25.658   0.267
25085W        W95685   2.003  15.805   2.414
25086W        W95686  11.890  37.701   2.292
25087W        W95687  34.490  28.183   3.561
25088W        W95688  25.920  23.002   3.603
25089W        W95689  43.207  28.205  10.219
25090W        W95690  36.013  18.053  13.853
25091W        W95691  12.428  36.871  13.420
25092W        W95692  42.267  15.042   1.226
25093W        W95693  23.106   0.673  11.121
25094W        W95694  27.879  14.280  10.265
25095W        W95695  44.817  24.251  11.411
25096W        W95696  25.402  41.358  13.050
25097W        W95697  14.702  28.175  14.929
25098W        W95698  44.313  20.342  10.779
25099W        W95699  17.827  25.155   1.884
25100W        W95700  25.435  21.131   3.698
25101W        W95701  18.764  35.951   0.413
25102W        W95702  32.176   9.417  11.122
25103W        W95703   6.549  40.033   2.828
25104W        W95704  19.763   2.724   0.799
25105W        W95705  37.579  18.207   4.655
25106W        W95706  13.089  39.936   3.681
25107W        W95707  18.986  26.999   2.375
25108W        W95708  15.805  23.961   0.699
25109W        W95709  42.880  43.875  11.639
25110W        W95710   8.575   4.534   2.763
25111W        W95711  27.208  41.374   0.241
25112W        W95712  36.481  41.746   0.271
25113W        W95713  37.493  39.384   4.942
25114W        W95714  33.021  29.435   3.068
25115W        W95715   4.822  19.608  12.137
25116W        W95716  32.584  17.391  10.945
25117W        W95717  17.114  30.061  12.772
25118W        W95718  35.124  30.731   2.093
25119W        W95719  38.791   8.860  12.156
25120W        W95720  27.266  37.277   3.643
25121W        W95721   6.198  11.488   0.388
25122W        W95722   3.336  23.037  11.161
25123W        W95723  32.672  22.233  11.198
25124W        W95724  35.031  20.751   0.891
25125W        W95725  39.020  41.923   3.318
25126W        W95726  16.808  32.817   9.776
25127W        W95727   0.605  19.549  10.542
25128W        W95728   5.429  24.083  13.113
25129W        W95729  12.771  26.674  14.461
25130W        W95730  15.614  28.616   4.226
25131W        W95731   7.294  25.533   4.782
25132W        W95732  27.070  12.596   3.313
25133W        W95733  25.404  20.213   3.654
25134W        W95734  40.177  22.533  12.533
25135W        W95735   6.171  26.227  12.123
25136W        W95736   2.453   7.835   2.012
25137W        W95737  21.075  15.206   1.448
25138W        W95738  13.293   8.231   2.287
25139W        W95739  18.205   4.819  12.241
25140W        W95740  42.334  23.038   4.582
25141W        W95741  43.272   1.380  13.054
25142W        W95742  32.936  24.599  12.380
25143W        W95743  18.833  11.054  13.984
25144W        W95744  10.893  18.615   1.276
25145W        W95745  43.448  19.672   2.179
25146W        W95746   6.754  32.883  14.303
25147W        W95747  32.506   2.139  12.382
25148W        W95748  10.863  19.259  13.876
25149W        W95749   6.809  18.461  12.026
25150W        W95750   1.703  20.160  13.958
25151W        W95751   8.494   3.118  10.658
25152W        W95752   0.992   2.864  14.594
25153W        W95753  12.842   3.736   2.255
25154W        W95754  27.608  38.239  11.976
25155W        W95755  22.261  38.550   1.410
25156W        W95756  22.979   5.332   0.568
25157W        W95757  42.862  26.499  14.969
25158W        W95758   4.488  12.826   2.414
25159W        W95759  20.857  43.325  14.846
25160W        W95760   6.621  11.318   1.312
25161W        W95761  18.529  28.925  12.385
25162W        W95762  18.680  37.529   1.838
25163W        W95763  21.091  34.451  13.069
25164W        W95764  12.706  19.909   4.577
25165W        W95765  20.251  41.242  12.867
25166W        W95766  44.390  14.967  11.288
25167W        W95767  35.398  10.919  13.508
25168W        W95768   9.388  32.474  10.088
25169W        W95769  36.954  12.718   0.155
25170W        W95770   2.856  17.771   2.390
25171W        W95771  23.662   7.816  13.585
25172W        W95772   1.883   4.776  14.937
25173W        W95773  31.179  41.333  13.969
25174W        W95774  43.476  18.798  10.851
25175W        W95775  13.004   4.755  13.989
25176W        W95776  39.436  42.726  10.764
25177W        W95777  17.735  29.186   0.712
25178W        W95778   9.392  29.706  13.478
25179W        W95779  10.811  30.654   1.907
25180W        W95780  43.599  11.514   1.504
25181W        W95781  14.166  39.820  11.462
25182W        W95782  41.607  34.529   1.871
25183W        W95783  31.145  41.197  14.865
25184W        W95784  40.920  16.784  14.433
25185W        W95785   3.717  22.730  11.033
25186W        W95786  29.981   0.265  10.932
25187W        W95787  35.097  12.648   1.371
25188W        W95788  10.223   9.714   4.321
25189W        W95789   8.545   8.898  11.094
25190W        W95790  39.445  29.491   0.378
25191W        W95791   0.122  14.238  14.893
25192W        W95792   0.164  40.018  11.575
25193W        W95793  30.469  42.654  13.598
25194W        W95794  39.298  14.216   1.168
25195W        W95795  40.351   7.470   4.529
25196W        W95796  26.647  22.804  13.885
25197W        W95797   6.839   6.608   0.428
25198W        W95798  15.047  23.195   2.314
25199W        W95799   2.068  41.459  11.633
25200W        W95800  40.108  32.054  13.453
25201W        W95801   9.180  38.037  11.177
25202W        W95802  20.087  34.566  12.079
25203W        W95803  35.411  19.534   0.433
25204W        W95804   6.297  14.405   2.293
25205W        W95805  38.695  20.494   4.588
25206W        W95806  42.655  39.076   0.819
25207W        W95807  10.304   5.304   1.428
25208W        W95808  23.397  30.049  13.332
25209W        W95809  30.635   5.471  11.997
25210W        W95810  15.014  12.598   0.696
25211W        W95811   5.486  10.141   0.290
25212W        W95812  17.542  43.831   1.903
25213W        W95813  17.029  19.861   4.127
25214W        W95814  43.328   3.359   3.054
25215W        W95815  36.309  11.531   2.811
25216W        W95816   6.168  13.685   0.315
25217W        W95817   0.681   0.419  12.136
25218W        W95818  28.188  33.021  11.652
25219W        W95819  43.542  22.671  13.627
25220W        W95820   1.778  40.817  13.478
25221W        W95821  39.554   3.362   3.258
25222W        W95822   1.226  38.305  11.500
25223W        W95823  44.370   4.097  14.626
25224W        W95824   5.426   2.158  12.993
25225W        W95825  44.621  20.863  10.247
25226W        W95826  32.199  20.286   0.016
25227W        W95827  28.403  37.198  13.010
25228W        W95828  33.970  40.586  12.944
25229W        W95829  39.957  22.249  11.716
25230W        W95830  38.610   7.157  11.988
25231W        W95831  17.385  13.647   1.295
25232W        W95832  33.238   4.828  12.928
25233W        W95833  15.797  30.973   3.716
25234W        W95834  13.579  25.077  14.840
25235W        W95835  28.529  26.041   2.648
25236W        W95836  10.296  15.161   1.746
25237W        W95837  37.807  21.962  12.263
25238W        W95838  31.397  21.405   3.858
25239W        W95839  42.948  32.632   1.763
25240W        W95840  42.835  29.818  12.074
25241W        W95841  37.924  34.632  14.962
25242W        W95842  26.460   7.408  10.492
25243W        W95843  30.037  21.768  13.955
25244W        W95844   2.008  18.083  10.266
25245W        W95845  26.245  43.946  11.233
25246W        W95846  10.579  16.714   4.961
25247W        W95847  36.560   3.794  13.198
25248W        W95848  21.610  18.675  13.416
25249W        W95849  21.235  27.031  11.826
25250W        W95850  41.383  40.041   4.416
25251W        W95851  25.753   4.432  14.343
25252W        W95852  40.413   9.856  14.927
25253W        W95853  18.474  18.763   3.745
25254W        W95854  28.566  18.059  12.846
25255W        W95855  42.628  39.431  11.008
25256W        W95856   5.328  43.589  13.432
25257W        W95857   4.671  29.964  14.796
25258W        W95858   6.408  17.103   3.168
25259W        W95859  30.697  17.706   2.726
25260W        W95860   8.144  30.860   2.357
25261W        W95861  24.981  14.027   3.697
25262W        W95862  24.201  15.803   4.169
25263W        W95863  43.030  27.172  11.974
25264W        W95864  34.610  17.259  11.150
25265W        W95865  30.388   0.378   0.544
25266W        W95866   0.971  16.610   0.264
25267W        W95867   0.395  36.650  11.077
25268W        W95868  34.963  41.492   2.099
25269W        W95869  17.914  40.752   3.882
25270W        W95870  24.979  35.566  14.707
25271W        W95871  19.096  22.189   3.396
25272W        W95872  33.945  32.903  13.005
25273W        W95873   4.882  28.762   4.240
25274W        W95874  39.924   9.229   1.330
25275W        W95875  18.172  30.386   3.293
25276W        W95876  32.118  27.695  10.725
25277W        W95877   1.344   2.947  13.631
25278W        W95878  42.429  22.279  10.466
25279W        W95879  29.037  14.138  10.922
25280W        W95880  20.237  32.012  10.363
25281W        W95881  27.479  28.968  13.169
25282W        W95882   9.276  44.359   4.387
25283W        W95883  44.010  28.153  10.821
25284W        W95884  40.526  34.481  10.243
25285W        W95885  13.743  11.532   0.966
25286W        W95886  38.274  32.040   1.426
25287W        W95887  15.405  15.612   2.289
25288W        W95888  23.534  19.009  13.930
25289W        W95889  12.271  19.712  11.500
25290W        W95890  10.062  32.739   4.129
25291W        W95891  10.773  27.469   0.503
25292W        W95892   0.590  24.132  10.822
25293W        W95893  43.845   4.328   1.966
25294W        W95894  44.770   3.498   2.958
25295W        W95895  17.118  10.862  11.444
25296W        W95896  17.726  17.814  12.218
25297W        W95897  33.604  26.134  11.525
25298W        W95898  37.921  35.359   3.632
25299W        W95899   1.272  37.691  14.903
25300W        W95900   4.654  14.431  10.642
25301W        W95901  40.365  26.092   1.938
25302W        W95902  30.455  10.293   0.347
25303W        W95903  27.336  24.130  14.158
25304W        W95904  26.829   9.787   3.589
25305W        W95905  38.418  36.957  10.624
25306W        W95906   2.311  41.061   1.722
25307W        W95907   3.554  28.149   4.179
25308W        W95908  40.291  33.087  10.555
25309W        W95909  42.492  11.125   3.242
25310W        W95910  16.663   5.312   2.490
25311W        W95911  16.946  18.729  13.632
25312W        W95912  18.770  41.437  10.531
25313W        W95913  37.492  16.116   0.791
25314W        W95914   4.814   6.939   0.204
25315W        W95915  20.798  27.705   3.618
25316W        W95916  22.714  11.673   1.659
25317W        W95917   9.822  40.361   4.097
25318W        W95918   2.021  44.366   2.404
25319W        W95919  36.261   4.429   3.821
25320W        W95920   6.169  24.444   1.257
25321W        W95921   8.714  25.982   1.890
25322W        W95922  24.606  20.484  11.429
25323W        W95923  15.256  38.727   0.397
25324W        W95924  37.088  30.080   1.393
25325W        W95925  44.785  18.802   3.744
25326W        W95926  26.456  24.605  13.365
25327W        W95927  30.583  25.288  14.494
25328W        W95928  39.785  16.595   2.331
25329W        W95929  38.628  38.798   2.623
25330W        W95930  25.870  24.004  13.202
25331W        W95931  41.446  26.446  13.611
25332W        W95932  37.581  41.061  12.065
25333W        W95933  17.525  17.910   4.389
25334W        W95934  11.566  27.461  13.531
25335W        W95935  25.156  10.770   0.781
25336W        W95936  20.587  37.294   0.841
25337W        W95937  23.507  43.203   3.826
25338W        W95938   4.877  26.232   2.832
25339W        W95939   4.375  39.466   1.061
25340W        W95940   9.332  43.315   2.399
25341W        W95941  39.819  40.320   3.191
25342W        W95942  31.643  26.048   3.549
25343W        W95943  11.579  40.490   2.730
25344W        W95944  12.890  19.566   2.155
25345W        W95945  12.708  32.399   0.840
25346W        W95946  43.966  13.983  14.389
25347W        W95947  14.153   5.029  12.093
25348W        W95948   3.120  32.330  11.637
25349W        W95949  34.866  42.120  14.083
25350W        W95950  36.989  37.590  10.413
25351W        W95951   6.745  40.005  10.761
25352W        W95952  13.912  21.459  13.724
25353W        W95953  31.982   1.050   0.776
25354W        W95954  26.457  33.486  11.215
25355W        W95955  18.233  16.231   4.349
25356W        W95956  28.099  15.181  10.024
25357W        W95957  19.198   6.262   1.441
25358W        W95958  11.292  41.079   3.630
25359W        W95959  37.400  11.648  13.167
25360W        W95960  21.878   7.187  13.460
25361W        W95961  29.041  21.159   0.887
25362W        W95962  24.247  17.902   2.530
25363W        W95963  24.988   7.325   3.241
25364W        W95964  23.150  22.983   1.205
25365W        W95965  14.525  41.929   2.410
25366W        W95966  38.896  25.769  13.974
25367W        W95967  18.243  29.006  11.032
25368W        W95968  33.141   6.652  13.554
25369W        W95969  37.585   7.721  11.245
25370W        W95970   5.850  38.796   3.399
25371W        W95971   4.407  29.938  13.302
25372W        W95972  27.603  32.097  12.171
25373W        W95973   0.852  32.413  11.113
25374W        W95974  21.483   4.861   3.121
25375W        W95975  30.950   2.989   0.882
25376W        W95976  13.870  24.694  13.621
25377W        W95977  44.622  38.655  13.692
25378W        W95978  23.460  35.786  11.601
25379W        W95979  10.804  28.216  12.962
25380W        W95980  23.146  29.825   1.956
25381W        W95981  28.692  26.116   1.721
25382W        W95982   3.070  12.256   3.649
25383W        W95983  30.628  26.854  10.669
25384W        W95984  25.669  28.552  11.361
25385W        W95985  12.878   2.400   2.169
25386W        W95986  42.496  14.397   0.738
25387W        W95987  13.098  16.299   1.251
25388W        W95988  35.765   7.360  12.412
25389W        W95989  40.359   6.768  11.625
25390W        W95990  25.931  37.987   4.150
25391W        W95991  43.409  44.402  10.157
25392W        W95992  34.289  33.131   1.399
25393W        W95993  44.982   3.851  12.639
25394W        W95994  25.656  18.030   3.156
25395W        W95995   5.798  17.608  14.349
25396W        W95996  16.643   2.742   2.911
25397W        W95997  30.135  30.373  10.597
25398W        W95998  25.633  20.214  14.953
25399W        W95999  25.148  38.542   1.827
25400W        W96000  30.214  29.669   3.458
25401W        W96001  39.774  25.237  11.231
25402W        W96002   4.333  27.043  14.490
25403W        W96003  15.557   3.292   3.265
25404W        W96004  32.955   4.308  13.505
25405W        W96005  35.556  38.883   3.485
25406W        W96006  12.626  19.448   0.264
25407W        W96007   2.810  11.637  12.535
25408W        W96008  36.942  27.494   2.183
25409W        W96009  24.925  11.191  14.600
25410W        W96010  34.038  33.874  12.315
25411W        W96011  19.547  15.106  11.668
25412W        W96012   2.369  40.936   0.272
25413W        W96013  11.273  43.958   1.617
25414W        W96014  34.949  32.839  11.297
25415W        W96015  31.939  35.884  12.897
25416W        W96016  41.925  35.170   3.500
25417W        W96017  33.704  20.112   3.316
25418W        W96018  11.563  23.965   0.854
25419W        W96019  36.396  28.128  14.725
25420W        W96020  20.627  29.195   1.506
25421W        W96021  12.595  22.487  14.391
25422W        W96022  20.296  20.350   2.652
25423W        W96023  11.380  37.912  12.195
25424W        W96024   9.332  40.072   4.116
25425W        W96025   2.049  23.127  13.566
25426W        W96026  19.616  14.413   3.130
25427W        W96027  11.828  28.205  14.323
25428W        W96028   3.440  33.619   3.345
25429W        W96029   6.382  23.545   3.853
25430W        W96030  35.759  13.203   3.053
25431W        W96031   5.885  22.949   1.805
25432W        W96032  26.417   6.826  13.493
25433W        W96033  26.916   9.195  11.432
25434W        W96034  22.590  10.413   3.703
25435W        W96035  25.393  11.446  12.150
25436W        W96036  43.422  14.330  10.420
25437W        W96037   0.981  15.762  10.795
25438W        W96038   0.483   3.349   4.598
25439W        W96039   6.770  37.579  10.646
25440W        W96040  23.269  42.799   2.846
25441W        W96041  42.519   4.957   1.316
25442W        W96042   9.904   8.372  13.901
25443W        W96043   2.170  24.182   1.862
25444W        W96044  15.656  14.135   2.255
25445W        W96045  18.608  27.118  14.968
25446W        W96046  11.396   4.470   3.460
25447W        W96047   6.420  13.501  14.709
25448W        W96048  33.737  42.987   1.816
25449W        W96049  41.936  22.309  11.601
25450W        W96050  41.223  31.590  11.268
25451W        W96051  22.309  29.996  12.952
25452W        W96052  11.965   7.252   1.233
25453W        W96053  40.466   7.172   4.137
25454W        W96054  35.321   6.324   2.281
25455W        W96055  21.445  30.535  13.605
25456W        W96056  19.441  31.943  14.231
25457W        W96057   8.799  11.371  14.028
25458W        W96058   9.298  16.265   1.698
25459W        W96059   5.403  42.758   2.780
25460W        W96060  20.114  19.204  14.986
25461W        W96061  32.918  27.542   2.640
25462W        W96062  11.040  30.348   3.572
25463W        W96063  35.938   1.301  12.517
25464W        W96064  10.199   2.761  13.434
25465W        W96065  25.640  16.549  13.408
25466W        W96066  31.556  35.918   1.138
25467W        W96067   9.849  22.042   3.077
25468W        W96068  21.127   6.856   3.756
25469W        W96069   1.685  44.741   3.713
25470W        W96070  10.810   7.644  13.125
25471W        W96071  10.220  33.858  13.611
25472W        W96072   8.861  10.850  13.919
25473W        W96073  43.251  15.750  13.377
25474W        W96074  15.188  39.398   4.719
25475W        W96075  20.136   8.375  13.926
25476W        W96076  22.749  24.320  14.948
25477W        W96077  13.149  39.238   4.605
25478W        W96078  24.515  23.264   2.644
25479W        W96079  14.634  30.912  12.920
25480W        W96080  14.209  36.259  14.434
25481W        W96081   7.001  27.624   2.252
25482W        W96082  27.269  16.552   4.177
25483W        W96083  32.067  42.891   2.681
25484W        W96084  20.676  13.563   0.309
25485W        W96085  31.373  34.855   2.657
25486W        W96086   4.333  19.582  11.967
25487W        W96087  13.626  16.137   4.026
25488W        W96088  10.249  13.756   0.706
25489W        W96089  37.159  14.403  14.801
25490W        W96090   3.910  36.109  13.327
25491W        W96091  18.872  15.162  13.973
25492W        W96092  24.232  18.294  13.830
25493W        W96093  18.757  14.637   3.220
25494W        W96094  12.596  39.623  14.072
25495W        W96095  12.780  11.728  13.259
25496W        W96096  42.451  42.208  13.172
25497W        W96097  36.052   5.915   0.830
25498W        W96098   1.465  20.638  10.665
25499W        W96099  16.587  31.361   3.756
25500W        W96100  39.808  27.004   1.326
25501W        W96101  22.252  30.591  11.076
25502W        W96102   2.741  29.883  11.579
25503W        W96103  28.040  13.560  13.165
25504W        W96104  37.244  22.473   2.827
25505W        W96105  32.710  32.133   0.386
25506W        W96106  37.372  39.870  12.544
25507W        W96107   0.909  30.376  14.398
25508W        W96108  16.283  25.910  12.422
25509W        W96109  13.227  44.269  11.639
25510W        W96110   8.895  32.252  11.638
25511W        W96111  16.506  32.898  10.612
25512W        W96112   0.887  14.671  13.646
25513W        W96113  20.635  43.735  13.524
25514W        W96114  37.625  32.340  11.270
25515W        W96115   4.155   8.394  12.408
25516W        W96116  23.024  19.520  11.988
25517W        W96117  12.258   7.243   2.299
25518W        W96118  12.854  35.655  14.869
25519W        W96119   3.976  42.205   4.790
25520W        W96120  16.005  17.177   4.933
25521W        W96121  29.044  39.842   1.940
25522W        W96122  26.278  39.668  14.303
25523W        W96123   8.272   0.944  13.789
25524W        W96124  38.743  13.860   9.983
25525W        W96125  23.432  23.968   1.971
25526W        W96126  25.953  16.275  11.544
25527W        W96127  12.172   1.330  11.275
25528W        W96128   4.149  16.793   4.536
25529W        W96129  31.943  26.970   5.022
25530W        W96130  20.879  37.556   3.752
25531W        W96131   0.321  35.921   0.835
25532W        W96132   4.867  19.630   1.894
25533W        W96133  27.613  39.048   3.837
25534W        W96134   5.942  41.976   3.157
25535W        W96135  33.462  17.078   0.293
25536W        W96136  20.868  31.921  12.565
25537W        W96137  32.696  18.083  14.995
25538W        W96138   3.252  33.006   1.443
25539W        W96139   0.169  12.587  12.472
25540W        W96140  12.547  14.685  14.553
25541W        W96141  33.002  31.883  11.453
25542W        W96142  12.350  10.148  14.044
25543W        W96143  18.854  23.354   2.829
25544W        W96144  19.485  24.988  13.637
25545W        W96145  33.004  34.720  13.458
25546W        W96146  29.976  18.032  13.909
25547W        W96147  42.841  27.775   4.254
25548W        W96148  25.482  13.653  13.987
25549W        W96149   0.554  34.474  11.594
25550W        W96150  41.644   6.270  11.883
25551W        W96151  38.284   6.425   1.395
25552W        W96152  13.522  27.076   1.633
25553W        W96153   3.911  22.076   3.270
25554W        W96154  18.185  13.658   0.065
25555W        W96155  42.314   0.292  11.486
25556W        W96156   5.192  24.183  12.121
25557W        W96157  31.437  14.327   3.835
25558W        W96158   7.414   0.937   4.523
25559W        W96159  15.201  16.708   3.587
25560W        W96160  32.090  32.502   2.136
25561W        W96161  13.043  23.566   1.923
25562W        W96162  28.208  14.903  14.053
25563W        W96163   2.361  14.067   2.099
25564W        W96164  27.467   5.158  13.812
25565W        W96165   7.219  39.817   0.246
25566W        W96166  34.833  14.348   5.088
25567W        W96167   3.743  12.179   1.357
25568W        W96168  29.829  39.476   1.782
25569W        W96169  29.600  34.242  12.134
25570W        W96170  40.590  44.777   3.349
25571W        W96171  12.803  21.151  14.111
25572W        W96172   9.193  15.570   4.608
25573W        W96173  20.729  15.832  13.897
25574W        W96174  29.334  10.427   4.025
25575W        W96175  38.316  39.996  14.241
25576W        W96176  18.262   1.332  13.037
25577W        W96177  27.023  39.115  14.810
25578W        W96178  16.725  16.824   4.802
25579W        W96179   6.634   4.396   4.625
25580W        W96180   3.964  44.903   2.385
25581W        W96181   8.648  25.491   4.065
25582W        W96182  42.315   2.249  14.400
25583W        W96183  28.069   8.005  12.479
25584W        W96184  41.404  13.092  13.932
25585W        W96185  14.157  42.752  12.783
25586W        W96186  23.144  14.496  13.320
25587W        W96187  21.448   3.058   1.235
25588W        W96188   7.473  19.630   1.310
25589W        W96189   4.686  33.034   4.115
25590W        W96190   7.277  35.038   1.766
25591W        W96191   3.563  18.525  14.712
25592W        W96192  12.573  26.064   4.380
25593W        W96193  41.256  28.548   4.407
25594W        W96194  28.762  22.772   2.763
25595W        W96195  16.661  18.247   3.991
25596W        W96196  19.190  35.593  13.125
25597W        W96197  42.840  11.026  14.953
25598W        W96198  15.108  16.707  10.709
25599W        W96199  13.557  25.739   3.534
25600W        W96200  37.948   4.236  14.092
25601W        W96201  27.472  14.431  12.833
25602W        W96202  11.521  15.651  14.540
25603W        W96203  33.669   8.151   1.196
25604W        W96204   2.738   1.259  11.912
25605W        W96205   0.910   4.753  12.729
25606W        W96206  33.137  42.828   4.087
25607W        W96207  14.614  10.269   2.684
25608W        W96208  22.496  29.124  13.148
25609W        W96209  21.749  15.124  13.495
25610W        W96210  27.931   2.848  10.547
25611W        W96211  30.147  36.589  14.422
25612W        W96212  24.213  21.684   3.640
25613W        W96213   3.238  42.502  14.350
25614W        W96214   9.251  11.651  13.864
25615W        W96215  23.663  21.128   4.071
25616W        W96216  44.338  28.680  13.004
25617W        W96217  16.045  24.920  14.965
25618W        W96218  40.765  12.843   2.752
25619W        W96219  30.924   1.751   2.850
25620W        W96220  42.107  33.905  10.626
25621W        W96221  26.818  11.858  11.630
25622W        W96222  22.974  21.184   3.665
25623W        W96223  14.236  21.599  11.532
25624W        W96224   5.479  20.107  14.753
25625W        W96225  16.166  30.498   1.153
25626W        W96226   9.259  29.561   3.027
25627W        W96227  15.855  32.710   9.804
25628W        W96228  40.709   3.457   4.190
25629W        W96229  26.458   5.227   2.946
25630W        W96230  21.752  28.840  14.445
25631W        W96231  38.841  44.155  10.750
25632W        W96232  13.208  43.779   1.004
25633W        W96233  43.780  21.037  14.915
25634W        W96234  38.456  12.373  13.554
25635W        W96235  38.366  16.770   2.812
25636W        W96236   4.151  14.585  11.838
25637W        W96237  39.165  42.823   4.539
25638W        W96238  30.088   1.377   4.465
25639W        W96239  13.159  20.200   0.005
25640W        W96240  20.651  22.447   2.372
25641W        W96241  15.315  26.033   0.737
25642W        W96242  37.871  14.109  12.067
25643W        W96243  30.065  24.471  13.750
25644W        W96244  21.294  34.654  11.785
25645W        W96245  23.469   5.212  11.194
25646W        W96246  40.385  43.563  14.234
25647W        W96247   7.935  16.537  11.963
25648W        W96248  38.223  26.901  10.842
25649W        W96249  26.999   9.240  10.537
25650W        W96250  42.325   3.633  12.487
25651W        W96251   1.708  24.090   1.630
25652W        W96252   0.468  19.589  12.039
25653W        W96253  20.172  41.084  11.499
25654W        W96254   1.389   1.166  11.959
25655W        W96255   8.926  26.673   0.914
25656W        W96256  20.574  38.603   0.004
25657W        W96257  30.048  33.915  12.679
25658W        W96258  15.181  30.963   2.331
25659W        W96259  35.206  31.264  11.256
25660W        W96260   0.173  24.004   2.426
25661W        W96261  41.815  12.193  14.590
25662W        W96262  41.044  24.092   0.266
25663W        W96263   8.280  14.148  12.942
25664W        W96264  26.077   8.496   4.691
25665W        W96265  41.056   7.013   1.971
25666W        W96266   7.888  44.069   3.181
25667W        W96267   6.031  16.122   1.054
25668W        W96268  22.689  23.436   2.233
25669W        W96269  35.200  39.304   3.635
25670W        W96270  22.525   9.833   5.032
25671W        W96271  23.769  23.741   0.385
25672W        W96272   3.012  26.986  11.598
25673W        W96273  35.890  36.413   1.888
25674W        W96274   5.022  31.273  11.427
25675W        W96275  17.254  18.543  12.152
25676W        W96276  43.484  37.585   1.224
25677W        W96277  36.485   3.199  11.084
25678W        W96278  22.542  43.954  14.913
25679W        W96279   0.041  30.670   1.781
25680W        W96280   5.179   8.110   4.118
25681W        W96281  19.251  14.198  12.908
25682W        W96282  10.776  10.362  13.477
25683W        W96283  39.918  24.402   4.680
25684W        W96284  13.598  16.600   0.877
25685W        W96285  35.369  15.139  12.009
25686W        W96286  23.590  26.866   3.171
25687W        W96287   6.018   5.751  12.994
25688W        W96288  39.467  17.402   0.071
25689W        W96289  38.865  10.796   4.677
25690W        W96290   5.673  35.247   3.286
25691W        W96291  21.158  14.122   4.853
25692W        W96292  43.844  44.824   4.836
25693W        W96293  32.116  19.564   2.689
25694W        W96294   9.199  36.975   3.676
25695W        W96295   5.368   3.028  11.420
25696W        W96296  36.953  31.415  14.067
25697W        W96297  14.502  38.512   1.263
25698W        W96298  14.678  31.193  10.725
25699W        W96299  41.706  44.196  10.383
25700W        W96300   4.933   6.403   1.283
25701W        W96301  26.221  32.308   1.777
25702W        W96302  26.193  11.187   4.191
25703W        W96303  36.970  13.382   4.132
25704W        W96304  33.078  35.287   1.850
25705W        W96305  30.236  25.117  12.135
25706W        W96306  39.367  38.392  14.801
25707W        W96307   3.398  42.678  14.840
25708W        W96308   3.686  35.410  12.469
25709W        W96309   8.651   5.799   1.734
25710W        W96310  19.800  10.121   1.715
25711W        W96311  27.822  26.073   4.184
25712W        W96312  31.897  33.364   1.461
25713W        W96313  10.108   7.422   2.755
25714W        W96314  28.634  13.862  10.494
25715W        W96315  25.708  29.026  13.613
25716W        W96316  10.187  43.826  13.285
25717W        W96317  19.037  11.037  14.986
25718W        W96318  22.985  35.789   0.442
25719W        W96319   5.719   3.769  14.134
25720W        W96320   3.705  15.288  13.858
25721W        W96321  32.499  10.395  13.532
25722W        W96322  33.351  41.345  12.098
25723W        W96323  38.017  31.942  11.713
25724W        W96324   1.508  44.879   4.180
25725W        W96325  16.769  39.962  10.566
25726W        W96326  16.657  34.477  11.931
25727W        W96327  28.288  33.531   1.564
25728W        W96328  37.590   6.666   2.784
25729W        W96329  20.744  43.896  11.284
25730W        W96330  42.133  28.150   2.052
25731W        W96331  30.730   7.280  14.332
25732W        W96332  24.680  44.202  13.949
25733W        W96333   6.141  42.816  11.992
25734W        W96334  24.023  26.507  12.887
25735W        W96335  43.409  26.371  13.458
25736W        W96336  16.136   6.362   4.416
25737W        W96337  22.546  24.145  10.211
25738W        W96338   9.153  19.759  14.864
25739W        W96339  11.710  30.187  11.502
25740W        W96340  41.818   4.548   0.579
25741W        W96341   8.896  19.348  13.889
25742W        W96342  23.070  20.999   1.878
25743W        W96343  14.282  44.331   0.802
25744W        W96344   1.891  40.042   1.068
25745W        W96345  38.566  18.668  10.628
25746W        W96346   7.128   9.497  14.230
25747W        W96347  25.826   7.302   1.783
25748W        W96348  11.812  12.580   2.795
25749W        W96349   3.800  12.194   2.407
25750W        W96350  19.109  21.729  10.664
25751W        W96351  34.866  31.045  10.915
25752W        W96352  39.794   8.197   2.438
25753W        W96353   5.071  19.042   1.032
25754W        W96354  34.130   1.670  13.904
25755W        W96355  20.888  18.596  14.877
25756W        W96356  24.262   0.296   1.589
25757W        W96357  36.429  32.006  13.493
25758W        W96358  18.283  22.013  13.002
25759W        W96359   9.574  32.925   3.317
25760W        W96360  35.331  44.953   1.892
25761W        W96361  38.370  31.588   4.937
25762W        W96362   7.526  26.504   2.851
25763W        W96363  22.731  30.904   0.244
25764W        W96364   1.503  38.848  14.514
25765W        W96365  19.288  16.539   2.765
25766W        W96366  40.322  41.491   3.360
25767W        W96367  38.581  37.391   2.777
25768W        W96368   0.322  23.559   0.942
25769W        W96369  32.849  42.023  13.935
25770W        W96370  44.453   7.835   4.720
25771W        W96371  30.970  25.633  12.175
25772W        W96372  43.841  20.580  10.718
25773W        W96373  39.095  20.289   1.284
25774W        W96374  42.340  16.148   4.569
25775W        W96375  39.129  21.301  13.190
25776W        W96376  13.851  20.309  11.408
25777W        W96377  26.253  41.102   2.762
25778W        W96378  41.416   1.596   1.954
25779W        W96379   7.260  12.293   0.721
25780W        W96380   5.479   9.744  14.351
25781W        W96381  22.804  10.620   1.387
25782W        W96382  20.560  28.409  11.506
25783W        W96383  33.055  41.525  14.781
25784W        W96384   2.859   8.203  11.187
25785W        W96385  32.944  25.134   0.412
25786W        W96386  29.579  37.043   3.578
25787W        W96387  33.857  31.901   2.844
25788W        W96388   5.377  19.745  12.586
25789W        W96389  41.790  23.955  14.354
25790W        W96390  11.356  16.569  12.158
25791W        W96391  13.411  17.251   1.275
25792W        W96392  42.745  24.796  13.184
25793W        W96393  37.490   8.840  13.431
25794W        W96394  37.825  26.684   3.820
25795W        W96395   8.220  34.802   0.323
25796W        W96396  26.759  37.151  12.003
25797W        W96397  13.764  19.463   0.878
25798W        W96398  21.900  16.748  14.951
25799W        W96399   2.678  15.588  14.498
25800W        W96400   9.481  42.191  13.010
25801W        W96401  18.839   6.255   3.827
25802W        W96402  35.055  11.291  12.624
25803W        W96403  23.369  34.063   0.906
25804W        W96404  30.888   0.067  11.967
25805W        W96405   9.836  18.690   1.251
25806W        W96406  10.070  36.405  10.901
25807W        W96407  20.453  40.474  12.095
25808W        W96408  15.303  14.580   3.686
25809W        W96409  36.418   8.696   2.902
25810W        W96410   5.125  20.673   4.145
25811W        W96411   4.229   6.758  12.497
25812W        W96412  24.178  15.249  14.751
25813W        W96413   0.241  31.656  11.980
25814W        W96414  30.460  39.061  14.440
25815W        W96415  43.996  25.966  12.087
25816W        W96416  24.036  15.598   4.778
25817W        W96417  39.377  39.776   4.629
25818W        W96418   2.471  24.689  12.888
25819W        W96419   2.386  24.188  11.225
25820W        W96420  37.117  43.534   1.438
25821W        W96421  29.020  14.971   4.287
25822W        W96422  12.898  10.886  14.884
25823W        W96423   2.175   4.781  14.506
25824W        W96424   6.437   0.278  11.008
25825W        W96425   6.945  21.616  12.997
25826W        W96426  37.610   4.711   0.201
25827W        W96427  37.032  17.312   3.091
25828W        W96428  36.047   3.742   0.832
25829W        W96429   1.901  16.377  13.452
25830W        W96430  30.170   6.659   2.791
25831W        W96431  26.124  38.461  12.520
25832W        W96432  37.004  23.692   1.438
25833W        W96433   4.539  31.284  11.667
25834W        W96434  34.408  11.556  12.073
25835W        W96435  28.567   0.331   1.485
25836W        W96436  10.769  14.630   0.142
25837W        W96437  13.706  19.655   2.665
25838W        W96438  44.355  13.903  12.949
25839W        W96439  42.835  31.141   4.925
25840W        W96440   0.462  18.044  14.813
25841W        W96441  36.450   5.828  12.605
25842W        W96442  43.222  25.787   4.324
25843W        W96443  28.143  40.885   3.184
25844W        W96444   8.537  21.618  12.011
25845W        W96445  14.274  41.066  14.939
25846W        W96446  40.817  23.996  12.118
25847W        W96447  37.129  16.288   1.515
25848W        W96448  15.698  27.594   5.611
25849W        W96449   7.146  24.122   2.149
25850W        W96450  15.679  35.445   2.955
25851W        W96451  10.815  41.466  11.939
25852W        W96452  40.331  41.320   4.240
25853W        W96453  25.465  11.571   0.259
25854W        W96454   4.850  12.868  14.886
25855W        W96455  29.146  43.884   3.878
25856W        W96456  10.262   6.905   0.406
25857W        W96457  18.384   2.412  10.978
25858W        W96458   5.723   8.899   2.158
25859W        W96459  24.160  13.226  13.954
25860W        W96460  34.140  28.991  11.197
25861W        W96461  34.852   5.722   3.344
25862W        W96462   4.474  27.221   2.879
25863W        W96463  38.300  43.747   1.632
25864W        W96464  14.686  40.435  11.606
25865W        W96465   5.696  40.870   4.320
25866W        W96466  38.930  27.823   4.787
25867W        W96467   6.871   0.311   0.955
25868W        W96468   1.295   6.622   0.968
25869W        W96469  43.900  19.112  10.746
25870W        W96470   4.408  21.516  11.101
25871W        W96471  20.790  17.985  11.914
25872W        W96472  42.961  38.146   4.904
25873W        W96473  36.918  16.931   0.668
25874W        W96474  40.718  14.577   0.754
25875W        W96475   8.832  25.005   2.352
25876W        W96476  37.642  31.836  14.391
25877W        W96477  31.820  21.031  12.506
25878W        W96478  32.977  39.390   0.392
25879W        W96479  40.543  13.764  12.337
25880W        W96480   4.167  40.815   2.394
25881W        W96481   0.300   8.220  13.102
25882W        W96482   5.730  26.940   1.300
25883W        W96483  41.630  28.604   4.758
25884W        W96484   1.228   6.458   0.309
25885W        W96485  27.084  24.667  12.532
25886W        W96486  17.744  12.484  11.575
25887W        W96487   4.468   8.375   3.632
25888W        W96488  22.432  36.912   3.194
25889W        W96489  37.577  36.645  11.552
25890W        W96490  21.117  27.214   3.764
25891W        W96491  41.574  18.124   3.146
25892W        W96492  27.078  38.283  10.660
25893W        W96493  24.080  23.103  14.524
25894W        W96494  30.722  15.258   3.096
25895W        W96495  20.160   8.097   0.215
25896W        W96496  17.074  13.865  12.611
25897W        W96497  27.434  36.906   1.230
25898W        W96498  23.129  35.213  14.018
25899W        W96499  20.487  11.227   3.242
25900W        W96500  12.694   8.153  14.431
25901W        W96501  26.837   4.327   0.414
25902W        W96502  31.064  35.566   1.278
25903W        W96503  21.692  40.453   4.370
25904W        W96504  21.678  24.903   4.652
25905W        W96505  31.523  19.724  13.535
25906W        W96506   0.267  22.232   0.819
25907W        W96507  26.732   4.806   9.778
25908W        W96508  30.439  36.858  10.637
25909W        W96509   1.660  23.618  12.906
25910W        W96510   9.205   6.231  12.969
25911W        W96511   7.717  13.399  13.905
25912W        W96512   3.953  43.707   3.232
25913W        W96513  16.754  21.201   1.342
25914W        W96514   4.658   9.135   1.956
25915W        W96515   5.367  40.921   2.913
25916W        W96516  27.197  29.114   0.811
25917W        W96517  41.493  43.917  10.762
25918W        W96518  35.051  43.475  13.268
25919W        W96519   9.737  14.153   4.579
25920W        W96520  36.065   6.176  13.535
25921W        W96521   1.978  42.789   5.052
25922W        W96522  35.138  44.586   2.249
25923W        W96523  17.601  10.375   3.663
25924W        W96524  30.009  17.195  11.940
25925W        W96525   8.743  40.490   3.680
25926W        W96526  21.822  42.369  14.219
25927W        W96527  20.586   4.651   3.672
25928W        W96528   5.110  20.996  14.292
25929W        W96529  21.265  39.705  10.765
25930W        W96530  30.441   9.892   1.396
25931W        W96531  35.474  20.983   2.698
25932W        W96532  28.911  11.281   0.704
25933W        W96533  11.091  28.713   1.826
25934W        W96534  17.868  10.536   4.072
25935W        W96535  13.294  29.814  13.898
25936W        W96536   3.457  43.590  12.439
25937W        W96537  41.800  36.097  11.163
25938W        W96538  29.713  14.440   1.748
25939W        W96539  28.522  18.942   4.084
25940W        W96540  32.336  22.764  14.982
25941W        W96541  25.721   3.332   9.996
25942W        W96542  37.761  38.123   0.063
25943W        W96543  34.075   2.469  11.420
25944W        W96544   0.631  30.298   2.680
25945W        W96545   6.031   3.941   1.838
25946W        W96546  34.363  10.817   0.307
25947W        W96547  43.454  20.996   1.134
25948W        W96548  12.987   8.865   3.042
25949W        W96549  14.600  24.411   1.761
25950W        W96550   5.424  37.854  13.786
25951W        W96551  39.086  15.185  14.479
25952W        W96552  42.837  36.163  10.843
25953W        W96553   6.864  29.096   3.822
25954W        W96554   7.122  16.257  13.395
25955W        W96555   1.214  39.059   2.871
25956W        W96556  18.281  33.658  12.903
25957W        W96557  29.734  15.160  14.917
25958W        W96558  20.009  17.725   0.696
25959W        W96559  44.325  42.835   3.809
25960W        W96560  13.624  24.208  12.311
25961W        W96561  40.490  28.875  11.479
25962W        W96562  33.913  38.870  13.304
25963W        W96563  21.156  16.317  14.991
25964W        W96564  42.288  24.137   3.657
25965W        W96565  19.044  32.815   4.523
25966W        W96566  43.831  36.565   3.244
25967W        W96567  22.528   1.655   3.374
25968W        W96568  40.974   3.584   4.617
25969W        W96569  36.600  13.226   4.471
25970W        W96570  28.127  23.740  13.105
25971W        W96571  19.708  44.934   2.665
25972W        W96572  43.691  31.969  13.266
25973W        W96573   3.049  20.610   1.334
25974W        W96574  42.421  33.394  12.783
25975W        W96575  25.194  15.341   3.389
25976W        W96576  36.899  15.587  10.702
25977W        W96577  14.122  19.628  11.926
25978W        W96578  29.493  30.343   1.910
25979W        W96579  12.624  30.080   2.801
25980W        W96580  17.126  37.136  14.943
25981W        W96581  27.512  38.773  12.006
25982W        W96582  39.136  10.202  12.103
25983W        W96583  33.349  43.782   0.453
25984W        W96584  28.961   4.496  14.120
25985W        W96585   6.447  27.346  10.046
25986W        W96586  37.573  39.945  11.196
25987W        W96587   7.418  37.376   0.392
25988W        W96588  23.026   1.283   1.785
25989W        W96589  26.983  12.063  14.424
25990W        W96590  41.597  21.685   3.437
25991W        W96591  24.176  40.949   4.227
25992W        W96592  24.348  34.993   1.877
25993W        W96593  13.568  17.707   0.747
25994W        W96594  12.157  23.060  11.930
25995W        W96595  17.231  34.009   0.461
25996W        W96596  27.162  31.865  11.395
25997W        W96597   7.176  43.043  13.794
25998W        W96598  39.500  27.957   0.781
25999W        W96599  27.987  15.819  11.635
26000W        W96600  16.937  14.788  14.742
26001W        W96601  41.994  15.711   1.417
26002W        W96602  37.600  12.990   1.523
26003W        W96603   3.258  27.679  10.570
26004W        W96604   1.808  44.774   2.162
26005W        W96605  26.218   1.863  13.648
26006W        W96606  45.000  14.748   3.784
26007W        W96607  19.067  41.519   0.922
26008W        W96608  27.091  25.226   0.940
26009W        W96609  38.791  15.113  13.168
26010W        W96610   5.781  18.729   2.395
26011W        W96611  34.516  13.856  14.862
26012W        W96612  10.783  39.788  14.776
26013W        W96613  35.525  11.283  14.900
26014W        W96614   1.762  33.298   2.310
26015W        W96615  41.379  23.841   3.870
26016W        W96616  35.101  40.507   4.629
26017W        W96617  14.292  19.027  12.390
26018W        W96618  19.543   6.909  12.147
26019W        W96619  14.083  23.545  14.398
26020W        W96620   3.606  36.074  14.913
26021W        W96621  35.123  36.441   1.340
26022W        W96622  13.250  12.380   1.652
26023W        W96623  14.717  23.146   2.731
26024W        W96624  38.412  33.912  10.747
26025W        W96625  26.776   9.800   0.749
26026W        W96626  15.841  17.586  12.122
26027W        W96627  10.857  34.927  12.415
26028W        W96628  37.845  15.277  10.808
26029W        W96629  34.507   5.415   4.632
26030W        W96630  17.709  15.728  11.910
26031W        W96631  15.578  36.468   4.108
26032W        W96632  37.095  35.894  14.925
26033W        W96633  33.348   4.288  14.928
26034W        W96634  35.618   5.290  12.011
26035W        W96635  37.544   6.318   4.678
26036W        W96636  18.173  18.889  12.445
26037W        W96637  14.582  16.229   1.237
26038W        W96638  20.874  44.328   2.414
26039W        W96639  21.132   4.488  13.436
26040W        W96640  29.561  28.977   1.299
26041W        W96641  36.574  20.512   1.967
26042W        W96642  11.279  10.861  10.921
26043W        W96643  22.771  24.205   4.148
26044W        W96644  42.808  16.383   4.492
26045W        W96645  18.741   9.748  10.593
26046W        W96646  21.022  39.350  12.527
26047W        W96647   5.331   7.776   0.247
26048W        W96648   6.190  30.138  14.448
26049W        W96649  20.244  37.117   2.716
26050W        W96650  20.001  16.207  12.086
26051W        W96651   1.946  24.824   0.496
26052W        W96652  23.588  11.264   1.352
26053W        W96653  10.579  36.341  11.015
26054W        W96654  34.482  11.712   4.831
26055W        W96655  43.086  31.442  12.998
26056W        W96656  44.484  31.670  12.655
26057W        W96657  43.865  10.169  13.739
26058W        W96658  28.142  35.076  14.981
26059W        W96659  24.994  14.090  11.778
26060W        W96660  12.142   6.710   3.176
26061W        W96661   8.583   6.012  12.345
26062W        W96662  32.121  17.066  14.521
26063W        W96663   0.527  41.262  14.575
26064W        W96664  41.333   3.790   0.831
26065W        W96665  21.768   4.866  10.637
26066W        W96666  12.889  36.003   1.238
26067W        W96667  25.055  19.548   4.679
26068W        W96668  16.162  11.789   1.997
26069W        W96669  30.461  10.222  12.191
26070W        W96670  41.771  27.031   2.581
26071W        W96671  16.943  24.290  12.040
26072W        W96672  29.151  13.277  12.624
26073W        W96673  20.120  23.978  12.019
26074W        W96674  27.045  16.590   0.013
26075W        W96675  27.682  26.954   0.875
26076W        W96676  39.042  31.314   1.918
26077W        W96677   5.045  28.508  13.711
26078W        W96678   7.231   6.413   1.817
26079W        W96679  18.586  39.423   3.702
26080W        W96680  14.557  10.830   0.946
26081W        W96681  42.047   3.871   3.087
26082W        W96682   5.234  42.246  12.975
26083W        W96683  31.058   4.354  12.398
26084W        W96684  28.991   4.278  11.551
26085W        W96685  13.203  29.133   3.126
26086W        W96686  33.391  28.103   2.415
26087W        W96687  24.662   4.357  13.402
26088W        W96688   9.197   0.809  12.913
26089W        W96689  37.434  33.717   4.519
26090W        W96690  25.351  14.278   2.020
26091W        W96691  13.856  23.939   1.784
26092W        W96692   4.952   9.213   0.018
26093W        W96693  41.476  34.703   4.646
26094W        W96694   6.367   6.708   3.647
26095W        W96695  27.913   9.664  13.597
26096W        W96696  27.982   1.942  14.332
26097W        W96697  21.692  13.367   4.264
26098W        W96698  28.693  21.070   1.313
26099W        W96699  11.165   0.360   2.941
26100W        W96700   8.745   4.299   4.374
26101W        W96701  13.120  38.921   1.779
26102W        W96702  39.897  32.701  11.006
26103W        W96703   5.835  30.754   0.192
26104W        W96704   1.352  36.460   3.713
26105W        W96705  19.233   6.726  12.547
26106W        W96706  16.406  12.150   2.256
26107W        W96707   9.461   9.766   2.838
26108W        W96708  13.643  37.426   3.629
26109W        W96709  12.608  10.492   4.909
26110W        W96710  11.564  17.080   3.745
26111W        W96711  13.849   5.898  13.377
26112W        W96712  42.736  37.149   3.769
26113W        W96713  15.106   5.895   2.885
26114W        W96714  33.298  30.516   1.861
26115W        W96715   7.626   3.019   4.985
26116W        W96716  43.910  37.621  12.414
26117W        W96717  11.118  20.864  14.787
26118W        W96718  19.182  31.241   3.773
26119W        W96719  28.484  26.460   4.163
26120W        W96720  28.468   8.917  13.505
26121W        W96721  39.744   5.326   3.365
26122W        W96722  43.923   9.138  10.623
26123W        W96723  44.642  14.880   1.568
26124W        W96724  18.202  16.296  11.470
26125W        W96725  21.776  31.023   3.603
26126W        W96726  38.817  23.168  13.360
26127W        W96727  21.680  43.031  13.054
26128W        W96728  25.956  42.457  12.992
26129W        W96729  34.650  34.370   1.951
26130W        W96730  28.724  17.763  11.478
26131W        W96731   2.264  16.575  12.529
26132W        W96732  36.495   5.670   0.779
26133W        W96733  30.533  43.036  14.639
26134W        W96734  28.529  10.914   0.849
26135W        W96735  25.054   6.660  14.509
26136W        W96736   7.435  19.529   4.564
26137W        W96737   2.987   7.403   3.889
26138W        W96738  42.037  17.742  11.139
26139W        W96739   8.876  17.624  14.443
26140W        W96740  37.156  25.022  13.028
26141W        W96741  17.154  40.794   2.316
26142W        W96742  36.804   8.634  12.875
26143W        W96743   3.270  19.149  11.648
26144W        W96744  28.690  34.574   2.364
26145W        W96745  43.339  35.719   5.157
26146W        W96746  24.480  22.107   3.966
26147W        W96747  36.957  20.755   2.218
26148W        W96748  28.082  38.094  14.591
26149W        W96749  18.587  44.519  13.949
26150W        W96750  20.495  11.467  10.655
26151W        W96751   9.205  32.092   4.257
26152W        W96752   4.302  42.731   4.352
26153W        W96753   8.772  41.250  13.767
26154W        W96754  38.012  29.103  14.524
26155W        W96755  39.416  37.905  13.899
26156W        W96756   7.055  30.923  12.409
26157W        W96757  37.270  38.355  10.204
26158W        W96758  24.908   7.837  12.586
26159W        W96759  41.615  42.829  11.831
26160W        W96760  40.260   9.143   3.911
26161W        W96761  32.308   3.661  10.082
26162W        W96762  12.831  41.860  12.726
26163W        W96763  28.382   6.815   3.377
26164W        W96764  13.815  25.127  12.999
26165W        W96765  33.853  30.039  13.775
26166W        W96766  16.186  40.762  13.495
26167W        W96767  20.706  41.764  14.814
26168W        W96768  20.823   9.620  14.815
26169W        W96769   4.738  20.326   4.098
26170W        W96770  40.147   0.159   1.168
26171W        W96771   4.350  12.825   0.792
26172W        W96772  14.735   5.356  14.817
26173W        W96773   8.363  37.117  14.143
26174W        W96774   4.920   8.386  12.111
26175W        W96775   7.418   2.777   0.475
26176W        W96776  24.574  23.106   3.705
26177W        W96777  26.702  19.112  13.921
26178W        W96778  22.138   2.776   0.749
26179W        W96779  43.930  25.741  13.838
26180W        W96780  39.227   6.213   1.160
26181W        W96781  37.481  38.942   4.126
26182W        W96782  25.618   3.470   4.972
26183W        W96783  28.890  30.564   2.277
26184W        W96784  18.317  16.285   4.858
26185W        W96785  10.244  44.855   3.769
26186W        W96786   0.258  42.946  12.430
26187W        W96787   2.809  14.853   2.116
26188W        W96788  18.242  22.037  14.912
26189W        W96789  19.180   1.751  13.093
26190W        W96790  31.855  19.562  11.260
26191W        W96791  33.476   1.205  13.365
26192W        W96792  23.123  32.656  13.837
26193W        W96793  24.993  11.805   2.698
26194W        W96794  27.433  32.961   1.257
26195W        W96795  21.077   7.648   3.740
26196W        W96796  21.350   6.113   1.319
26197W        W96797  11.095   0.800  12.047
26198W        W96798  22.098  23.560   2.722
26199W        W96799  38.847  43.610   4.228
26200W        W96800   9.917   5.910  11.641
26201W        W96801  39.664  28.899   2.285
26202W        W96802  42.186  25.004   4.870
26203W        W96803   3.745   0.450  13.757
26204W        W96804  28.942   6.338   3.219
26205W        W96805  34.467  29.673   3.664
26206W        W96806  43.879  22.646   0.818
26207W        W96807  17.742  24.739  12.262
26208W        W96808  35.540  42.536  14.778
26209W        W96809   8.421  18.609   3.679
26210W        W96810  14.943  37.734   3.627
26211W        W96811  12.094  21.913   4.170
26212W        W96812  34.512   7.346  14.405
26213W        W96813  30.031  26.870  14.974
26214W        W96814  35.034  36.668  12.209
26215W        W96815   8.936  12.563  13.389
26216W        W96816  27.361  44.536  12.536
26217W        W96817  13.735  42.357  13.797
26218W        W96818  34.853  11.205  13.950
26219W        W96819   6.808   3.522   3.540
26220W        W96820  17.114  39.956  13.931
26221W        W96821   5.127   6.737   0.931
26222W        W96822   7.640  17.041  11.013
26223W        W96823  37.964  12.096   4.201
26224W        W96824  40.012  19.729  12.838
26225W        W96825  25.372  27.218  12.981
26226W        W96826  26.016   5.247   3.719
26227W        W96827  40.140  30.459   1.900
26228W        W96828  32.570  16.384   0.823
26229W        W96829  13.587  25.142   4.144
26230W        W96830  21.857  39.637  13.086
26231W        W96831  32.144  15.578  12.796
26232W        W96832  25.667  31.688  13.515
26233W        W96833  39.387   1.716   2.685
26234W        W96834  19.474  24.172   4.524
26235W        W96835  16.633  23.555  10.631
26236W        W96836  13.635  19.807   3.256
26237W        W96837  43.350  42.854  12.018
26238W        W96838  20.759  34.894   0.787
26239W        W96839  43.979  33.478   0.353
26240W        W96840  39.492  27.359   3.181
26241W        W96841   6.400  13.544   5.048
26242W        W96842  27.949  10.261   2.826
26243W        W96843  26.787  10.085  12.606
26244W        W96844  30.752   3.780  13.339
26245W        W96845  19.983   3.391  13.398
26246W        W96846  18.877  29.481   0.191
26247W        W96847   8.040   2.253   1.129
26248W        W96848   5.314  11.604   4.409
26249W        W96849  17.895  12.274  13.752
26250W        W96850  24.537  21.092   3.161
26251W        W96851  24.050   6.346  12.574
26252W        W96852  30.074  44.992   1.813
26253W        W96853  37.198  44.171  11.578
26254W        W96854  44.895   9.371  14.883
26255W        W96855  27.842  14.091   0.060
26256W        W96856  16.121  25.608  11.491
26257W        W96857  40.739  42.939   3.648
26258W        W96858  23.314  23.383   0.179
26259W        W96859  24.443  23.029  13.002
26260W        W96860  42.458  14.151   0.276
26261W        W96861  38.359  13.579  12.152
26262W        W96862   2.888  14.707  11.668
26263W        W96863   4.043  13.133  14.267
26264W        W96864  37.007  15.709  12.581
26265W        W96865  17.298   6.358  12.039
26266W        W96866  43.914   1.385   3.034
26267W        W96867   6.800  36.816   4.779
26268W        W96868   0.471   7.696  14.580
26269W        W96869   4.696  12.888   1.951
26270W        W96870  39.952   8.539   2.822
26271W        W96871   0.852  36.662   2.776
26272W        W96872  18.470  12.276   4.232
26273W        W96873  44.927   9.164   4.546
26274W        W96874   8.553  20.746   0.169
26275W        W96875  29.638  36.089  13.073
26276W        W96876  12.058  29.753   1.261
26277W        W96877  33.587   6.258   5.147
26278W        W96878  31.767  12.992  11.540
26279W        W96879   8.657  30.903   2.139
26280W        W96880   4.008   0.909   2.870
26281W        W96881   3.654  34.478  13.252
26282W        W96882  40.402  15.980   4.500
26283W        W96883  24.196  25.428  13.050
26284W        W96884  24.248  11.180  12.989
26285W        W96885  15.138  29.612   1.076
26286W        W96886  27.632   5.944  13.944
26287W        W96887  33.132   3.595   2.705
26288W        W96888  44.459  20.266  12.578
26289W        W96889  16.344   1.932   0.659
26290W        W96890  19.091  30.739  12.050
26291W        W96891  25.763  35.080  12.768
26292W        W96892  41.914  43.488  14.945
26293W        W96893  44.020  20.215   4.552
26294W        W96894   5.036  18.762  13.948
26295W        W96895  25.207  38.784   1.371
26296W        W96896  33.504  32.590  10.028
26297W        W96897   2.600  17.236  11.454
26298W        W96898   0.882   3.534  11.997
26299W        W96899   5.869   7.860   4.404
26300W        W96900  41.050  30.004  10.741
26301W        W96901  37.313  42.999  13.502
26302W        W96902   3.227  35.787  11.648
26303W        W96903  29.765  11.316  10.520
26304W        W96904   8.367  42.963   2.282
26305W        W96905  41.934   9.894  13.787
26306W        W96906  28.918  24.206  13.105
26307W        W96907  34.098   6.467   4.780
26308W        W96908  36.401   3.059   3.809
26309W        W96909  13.531   4.248   1.395
26310W        W96910  16.332  11.347   0.931
26311W        W96911  14.573  12.421  14.913
26312W        W96912  14.575  31.085  11.206
26313W        W96913  13.276   7.344   4.309
26314W        W96914   6.259  10.850  12.745
26315W        W96915  19.606  33.108   3.700
26316W        W96916  13.403   7.203  11.541
26317W        W96917  36.550  19.538  10.810
26318W        W96918  44.206  16.732   0.711
26319W        W96919  40.119  34.490  11.156
26320W        W96920  39.296  24.395   2.704
26321W        W96921  38.393  23.864   4.562
26322W        W96922  42.320   7.875  12.543
26323W        W96923  12.601  33.384   3.953
26324W        W96924  43.380  14.839   3.965
26325W        W96925   1.786  37.526  14.560
26326W        W96926   9.745  41.795   1.471
26327W        W96927   4.184   5.549  14.677
26328W        W96928  31.444  43.229  14.673
26329W        W96929  12.830   9.738  13.524
26330W        W96930   3.976  11.327  10.671
26331W        W96931  21.106  37.250  10.755
26332W        W96932   1.748  41.904   1.527
26333W        W96933  19.632  29.457  11.027
26334W        W96934  36.001   3.085   0.270
26335W        W96935  25.589  37.586   4.139
26336W        W96936   0.050  10.770   3.339
26337W        W96937  38.553  16.740  12.897
26338W        W96938   6.648  38.311   1.848
26339W        W96939  18.345   9.623   0.888
26340W        W96940  23.710  30.900   3.821
26341W        W96941  28.513  41.287   1.428
26342W        W96942  15.486  29.302  14.332
26343W        W96943  41.315  39.512  11.680
26344W        W96944  11.258  10.952  11.908
26345W        W96945  43.021  30.384  12.892
26346W        W96946  36.901  40.287   1.309
26347W        W96947   1.866  10.551   1.290
26348W        W96948  11.130   3.519   1.258
26349W        W96949  30.463  17.600   2.230
26350W        W96950   6.094   3.756   3.201
26351W        W96951   7.924  14.673  13.531
26352W        W96952  37.552  18.209   2.179
26353W        W96953   4.891  23.669  13.633
26354W        W96954  34.168  21.964  10.975
26355W        W96955  13.838  16.125   0.813
26356W        W96956  22.282  40.728   1.664
26357W        W96957  32.908   5.105   0.131
26358W        W96958  11.757   7.883  14.119
26359W        W96959  27.424  27.409   2.783
26360W        W96960  18.471  10.668   2.285
26361W        W96961  13.253   1.681  10.255
26362W        W96962  13.827  40.614  10.757
26363W        W96963  17.047  41.478   0.846
26364W        W96964  41.989  44.812  11.207
26365W        W96965  13.793  16.951   4.054
26366W        W96966  33.030  16.784  14.208
26367W        W96967  34.150  30.469  14.966
26368W        W96968  39.817  20.541  12.500
26369W        W96969  18.580  25.958  11.237
26370W        W96970  10.207  23.513   0.802
26371W        W96971   0.917   4.946  11.440
26372W        W96972  32.178  19.507   1.619
26373W        W96973  27.740  39.901  14.729
26374W        W96974  28.143  17.169  11.525
26375W        W96975  34.934  27.142  12.366
26376W        W96976  32.833  10.320  13.953
26377W        W96977  41.865   2.001  14.489
26378W        W96978  44.024   8.581   2.395
26379W        W96979  15.185  34.964   1.140
26380W        W96980  31.404   6.754  11.978
26381W        W96981  23.841  44.005  13.140
26382W        W96982  29.473  21.011   2.077
26383W        W96983   3.412  43.083  12.465
26384W        W96984   0.768  30.337   0.794
26385W        W96985   3.795  32.533   3.047
26386W        W96986  10.882  22.056   3.158
26387W        W96987  10.443  14.243   0.002
26388W        W96988  20.658  44.954   4.307
26389W        W96989  36.892  42.707  10.552
26390W        W96990  25.429  41.390   5.160
26391W        W96991  13.616  32.317   4.124
26392W        W96992  31.703   2.330  13.937
26393W        W96993  16.633  29.327  14.724
26394W        W96994   2.853   9.681   1.024
26395W        W96995  38.067  21.856  11.817
26396W        W96996  37.359  38.424  11.266
26397W        W96997  19.386   4.571  11.223
26398W        W96998  37.143  37.765  13.475
26399W        W96999   2.732  14.362   3.264
26400W        W97000   1.809  39.281   1.782
26401W        W97001  12.879  30.546  14.109
26402W        W97002  19.482  19.229   2.671
26403W        W97003  42.000  22.254  13.558
26404W        W97004  11.962  27.060  12.019
26405W        W97005  16.740  19.503   1.641
26406W        W97006   5.214   3.976  11.486
26407W        W97007  33.528  21.402   3.793
26408W        W97008  12.249  24.426  13.058
26409W        W97009  35.984  15.832   0.738
26410W        W97010  44.115  25.276   0.138
26411W        W97011  26.496  43.554  13.358
26412W        W97012   7.785  24.005   3.723
26413W        W97013  13.697  32.227  13.174
26414W        W97014   0.549  34.338   1.892
26415W        W97015  43.204  28.620   2.156
26416W        W97016  21.546  26.921   2.167
26417W        W97017  35.925  31.980   2.200
26418W        W97018  14.653   2.432   0.505
26419W        W97019  40.879   4.233  11.020
26420W        W97020  33.759  35.431  14.849
26421W        W97021  31.500  32.014   2.770
26422W        W97022  14.255  35.110   1.776
26423W        W97023   3.740  27.973  13.351
26424W        W97024  40.877  21.674   1.854
26425W        W97025  39.080   4.587   2.679
26426W        W97026  35.337  39.326   4.137
26427W        W97027  29.546  20.766  14.382
26428W        W97028  42.457  29.479  12.456
26429W        W97029  34.066   3.395   3.158
26430W        W97030   5.671   2.623   1.325
26431W        W97031  40.989  13.709   2.324
26432W        W97032  40.985   0.478  12.084
26433W        W97033   5.893  28.273  11.178
26434W        W97034   7.751  40.596   1.600
26435W        W97035   6.260  28.720   2.331
26436W        W97036  12.165  33.282   2.453
26437W        W97037   5.550   8.001  11.109
26438W        W97038  39.134  26.442  14.494
26439W        W97039  26.182  16.293   3.093
26440W        W97040  38.267  24.449  11.040
26441W        W97041   2.374  32.979  13.043
26442W        W97042  40.801  16.819   3.662
26443W        W97043  33.009   0.020  11.604
26444W        W97044   5.129   1.060  14.559
26445W        W97045  32.152   4.917   2.784
26446W        W97046  38.077  33.964  13.346
26447W        W97047  10.201  23.778   3.314
26448W        W97048   3.641  22.513   2.438
26449W        W97049   0.569  24.160   4.297
26450W        W97050  35.510  23.007   4.112
26451W        W97051  37.021  14.208  13.335
26452W        W97052  19.576  36.852   0.861
26453W        W97053  21.247   0.359  13.460
26454W        W97054   6.645   6.580  14.495
26455W        W97055  23.680  39.245   4.488
26456W        W97056  24.907  30.860  12.939
26457W        W97057  41.818  13.610  10.590
26458W        W97058  21.377  37.615  12.116
26459W        W97059   3.708  17.200   4.687
26460W        W97060  44.340   4.600   4.298
26461W        W97061  42.913  15.607  10.405
26462W        W97062  39.425  33.162   1.795
26463W        W97063  26.528  26.197  14.778
26464W        W97064  37.847  27.508   0.353
26465W        W97065   1.970  11.983  13.523
26466W        W97066  36.678  28.530  14.453
26467W        W97067  36.001  31.708   4.793
26468W        W97068  14.738  39.548  13.386
26469W        W97069   2.479  27.470  12.664
26470W        W97070   8.917   1.247  12.883
26471W        W97071   3.638  20.270  14.054
26472W        W97072  38.006  44.091  13.335
26473W        W97073   4.716   3.310  13.416
26474W        W97074  11.086  29.941  12.439
26475W        W97075  10.668  28.855  10.764
26476W        W97076  17.121  44.381   1.647
26477W        W97077  40.546  43.054   1.338
26478W        W97078   3.136  27.400  11.894
26479W        W97079  30.476  30.680   3.749
26480W        W97080   7.281  33.123   3.591
26481W        W97081  33.819  15.610  12.494
26482W        W97082  44.300  41.532  12.005
26483W        W97083  40.343   0.411  13.784
26484W        W97084  15.076  15.047  13.930
26485W        W97085  28.565   6.640  12.021
26486W        W97086   5.355  23.468   2.272
26487W        W97087  15.543  32.948   0.526
26488W        W97088  18.157   2.328   0.738
26489W        W97089  16.564   5.744   3.606
26490W        W97090  24.602  10.541  11.224
26491W        W97091  19.103  20.659  10.608
26492W        W97092  32.592  44.318   1.242
26493W        W97093  30.139  15.308  14.051
26494W        W97094  43.178  10.834  14.574
26495W        W97095   1.750   1.177   2.338
26496W        W97096  40.585   6.817   2.914
26497W        W97097  43.446  42.550  10.735
26498W        W97098  12.711  20.904  11.656
26499W        W97099  29.929  21.501   3.725
26500W        W97100  25.274  14.599   1.625
26501W        W97101  15.281  32.017  13.445
26502W        W97102  26.530  23.221   0.439
26503W        W97103  20.905  19.667  10.331
26504W        W97104  31.866  19.850  11.706
26505W        W97105  18.194  23.517  14.799
26506W        W97106  21.659  14.659  13.769
26507W        W97107  23.249  25.381   0.354
26508W        W97108   9.565  29.925   2.827
26509W        W97109  23.235   9.679  11.682
26510W        W97110  25.463  16.561  11.863
26511W        W97111  36.887   7.369   1.697
26512W        W97112   9.319  23.616  13.839
26513W        W97113  23.466  28.898  11.487
26514W        W97114   7.998  30.117   4.058
26515W        W97115  37.477  20.618  11.544
26516W        W97116  10.319  11.737   5.140
26517W        W97117  38.227  19.262   9.886
26518W        W97118  31.918  26.872   2.670
26519W        W97119  15.858  24.196  10.401
26520W        W97120  17.256  23.101  12.092
26521W        W97121   1.752  14.556   4.176
26522W        W97122  12.437  27.588   3.711
26523W        W97123  17.923  13.290   3.605
26524W        W97124  33.803   7.844   3.252
26525W        W97125   6.267  19.185   2.694
26526W        W97126  21.157  18.400  13.248
26527W        W97127  27.525  19.477   3.176
26528W        W97128   6.847  34.421   4.194
26529W        W97129   7.668  25.260  13.926
26530W        W97130  17.020  43.931  11.163
26531W        W97131   2.984   5.438  13.465
26532W        W97132  22.500  11.671  13.438
26533W        W97133  22.006  30.277  11.588
26534W        W97134  20.783  42.390   1.852
26535W        W97135  28.383  14.320  10.341
26536W        W97136  34.162  31.747   3.232
26537W        W97137  13.115  33.179   1.770
26538W        W97138  36.077   3.404   4.044
26539W        W97139  34.151   5.842  11.153
26540W        W97140   7.156   9.387  13.455
26541W        W97141  22.978   3.561   4.994
26542W        W97142  36.052  18.994  13.953
26543W        W97143   2.445   5.021  12.161
26544W        W97144  18.574  29.732   0.516
26545W        W97145  17.566  37.692  14.307
26546W        W97146  28.490  24.094   4.585
26547W        W97147  12.251  11.538  12.112
26548W        W97148   4.769  21.074   0.064
26549W        W97149   6.972  27.526  10.854
26550W        W97150  23.550  17.133  13.426
26551W        W97151  43.280  26.802  12.429
26552W        W97152   5.182  10.321   1.882
26553W        W97153   1.798  20.209  11.038
26554W        W97154   4.745  16.617  11.056
26555W        W97155  27.973  24.885   4.138
26556W        W97156  10.800  37.943   3.810
26557W        W97157  14.299  11.723   2.414
26558W        W97158  19.776  18.225  11.983
26559W        W97159  26.087  36.596   3.266
26560W        W97160  37.060  15.745  14.000
26561W        W97161  38.023  43.992  10.676
26562W        W97162   5.739  31.987  10.693
26563W        W97163  22.436  40.303  14.992
26564W        W97164   6.601   6.795  14.983
26565W        W97165  16.239  30.087  11.502
26566W        W97166  33.383  32.908   4.654
26567W        W97167   5.327  12.190  13.041
26568W        W97168  18.816   6.016  11.033
26569W        W97169  28.656  19.053   1.450
26570W        W97170  12.619  24.963   0.087
26571W        W97171  44.554   0.966   3.721
26572W        W97172  41.764  37.051  14.920
26573W        W97173  41.916  43.069   4.522
26574W        W97174  24.476  16.878   3.316
26575W        W97175  44.321  27.556  12.441
26576W        W97176  17.998  39.729   2.338
26577W        W97177  42.784  43.024  14.624
26578W        W97178  22.209  16.068   1.279
26579W        W97179  42.456   1.679   4.365
26580W        W97180  12.076  33.067   3.303
26581W        W97181  12.300  26.576   2.141
26582W        W97182  16.863  16.218   0.794
26583W        W97183  43.843  22.802   4.727
26584W        W97184  43.832   1.286   1.741
26585W        W97185  31.354  29.569   0.253
26586W        W97186  36.465   7.931   4.078
26587W        W97187  41.188  24.927   4.046
26588W        W97188  35.557  21.776  14.323
26589W        W97189  38.427  18.329   3.730
26590W        W97190  21.593  10.169   0.719
26591W        W97191  17.086  40.697   0.443
26592W        W97192  19.264  38.649   2.414
26593W        W97193   1.864   4.535   4.113
26594W        W97194  19.206  40.425  12.838
26595W        W97195   4.658   9.337   2.890
26596W        W97196  42.384  11.624   1.695
26597W        W97197  35.337  30.642   2.944
26598W        W97198  12.900  29.954   1.217
26599W        W97199   6.284   4.748  12.843
26600W        W97200   9.659   4.821  12.947
26601W        W97201  20.657  29.545  14.063
26602W        W97202  37.580  43.974  13.090
26603W        W97203  16.550  40.451   2.545
26604W        W97204   3.007  23.101  14.358
26605W        W97205  20.168  19.070  13.447
26606W        W97206  15.679  17.527  10.668
26607W        W97207   7.851  42.643   3.849
26608W        W97208   0.822  11.543  14.815
26609W        W97209  35.066  31.367  13.854
26610W        W97210  33.571  39.589  10.232
26611W        W97211  23.150   9.237   3.592
26612W        W97212  11.809   7.940   3.411
26613W        W97213  28.167   5.783  13.965
26614W        W97214  43.708  16.754   1.658
26615W        W97215  31.451   4.425  13.358
26616W        W97216   9.091  23.930   0.001
26617W        W97217  37.026  40.936  10.573
26618W        W97218  10.225  31.940  10.713
26619W        W97219  39.979  42.892   2.859
26620W        W97220   5.615  26.490   3.236
26621W        W97221   5.364  21.242   4.738
26622W        W97222  10.330  43.049   4.256
26623W        W97223  32.163  30.618   1.314
26624W        W97224   8.743  34.512  14.007
26625W        W97225  33.627  40.266  10.870
26626W        W97226  31.528  36.314   2.384
26627W        W97227  24.254  40.101  13.108
26628W        W97228  41.180  35.039   3.254
26629W        W97229  18.777   4.239  11.156
26630W        W97230  16.736  23.579  14.794
26631W        W97231  18.954  27.608   1.782
26632W        W97232   0.741  25.465   0.068
26633W        W97233  40.001  35.346  10.608
26634W        W97234   1.869   0.517  12.021
26635W        W97235  14.634  37.818   2.891
26636W        W97236  35.984  35.132   3.242
26637W        W97237  34.572  22.320  13.885
26638W        W97238   4.538  36.247  12.104
26639W        W97239  38.527  10.118  10.788
26640W        W97240  18.363  42.862  10.553
26641W        W97241  36.437  22.256   1.375
26642W        W97242  26.316  24.499   1.808
26643W        W97243   8.320   6.141   4.509
26644W        W97244  34.146  19.677   1.839
26645W        W97245  22.462  35.920  13.467
26646W        W97246  17.837  42.065  11.539
26647W        W97247  35.913  25.192   0.405
26648W        W97248  42.959   5.900  12.482
26649W        W97249  33.794  10.846   9.883
26650W        W97250  19.026  35.831   3.764
26651W        W97251  21.824  33.135   0.272
26652W        W97252  10.302  35.290   0.326
26653W        W97253  39.975  29.009   2.690
26654W        W97254  43.787   3.541   3.801
26655W        W97255  21.686   2.723   4.293
26656W        W97256  37.337   9.793  11.601
26657W        W97257  33.478  28.887   2.870
26658W        W97258  39.892  22.637   4.485
26659W        W97259  25.399  14.339   2.694
26660W        W97260  34.822  40.590   1.292
26661W        W97261  30.864  29.717   0.370
26662W        W97262   6.192   0.726  10.889
26663W        W97263   2.366  25.438   1.482
26664W        W97264  29.710  40.317   0.374
26665W        W97265  33.877  17.690   3.687
26666W        W97266  20.752  36.332   1.860
26667W        W97267   2.296  37.079   1.970
26668W        W97268  14.393   4.203  14.315
26669W        W97269  26.426  23.561  10.608
26670W        W97270  42.907  35.613   2.257
26671W        W97271  42.841  40.026   1.782
26672W        W97272  32.689  14.537  11.401
26673W        W97273   6.205  38.763   0.294
26674W        W97274  44.110   2.472   2.992
26675W        W97275   5.336  11.297  14.975
26676W        W97276  38.440  44.314  11.522
26677W        W97277   1.324  14.433  13.489
26678W        W97278  27.419  10.517  11.656
26679W        W97279  11.466  27.585   3.681
26680W        W97280  21.879  32.945  13.619
26681W        W97281  24.592   0.517  11.874
26682W        W97282  40.516  35.155   5.285
26683W        W97283  41.160  34.413  12.161
26684W        W97284  43.763  27.201   0.289
26685W        W97285   4.429  30.422  14.596
26686W        W97286  27.707  35.658  13.920
26687W        W97287  14.510   2.897   4.157
26688W        W97288  17.159  23.776  13.558
26689W        W97289  12.131  14.287  12.508
26690W        W97290  28.581  17.271   3.457
26691W        W97291  42.221  12.335  14.908
26692W        W97292  16.264  24.182  14.390
26693W        W97293  32.104  40.040  12.995
26694W        W97294   8.151  44.811  10.756
26695W        W97295  20.442  29.543   4.228
26696W        W97296   6.994   6.873  12.926
26697W        W97297  44.637  15.180   4.114
26698W        W97298  43.446  30.133   0.779
26699W        W97299   6.388  42.434   1.304
26700W        W97300   2.433  33.167   0.783
26701W        W97301   1.477   5.973  13.576
26702W        W97302  16.775   2.692  14.878
26703W        W97303  28.753   7.177   4.250
26704W        W97304   0.016  24.141   4.278
26705W        W97305  20.168  36.093  11.222
26706W        W97306  41.507  36.578  12.910
26707W        W97307  38.952  11.727   3.252
26708W        W97308   8.879  43.003  14.274
26709W        W97309  35.633  40.347  13.505
26710W        W97310   0.984  26.541  14.627
26711W        W97311   1.352  33.436  12.863
26712W        W97312   6.831  19.731   4.329
26713W        W97313  17.100  28.952   3.124
26714W        W97314   5.710  14.326  13.320
26715W        W97315  14.675  11.103  10.554
26716W        W97316  35.488   2.277  11.938
26717W        W97317  19.678  32.886   1.733
26718W        W97318   4.622   1.785   1.317
26719W        W97319  42.584   7.162   2.870
26720W        W97320  43.013  27.691  12.827
26721W        W97321  18.690   5.774   3.725
26722W        W97322  13.315  36.317   0.268
26723W        W97323   8.920  27.892   2.941
26724W        W97324  16.400  33.809   4.130
26725W        W97325  31.137  41.057  12.051
26726W        W97326  39.237  43.494   0.411
26727W        W97327   4.224  30.128   1.312
26728W        W97328  22.521   5.204  14.300
26729W        W97329  32.841  44.822  12.106
26730W        W97330   7.018  32.684  13.828
26731W        W97331  25.771   3.498   1.860
26732W        W97332   4.081  34.688  14.631
26733W        W97333  37.824  19.092   3.658
26734W        W97334  24.704   4.932   1.006
26735W        W97335  41.611  17.713   2.783
26736W        W97336  20.201  31.669   3.463
26737W        W97337  26.645  32.324   4.619
26738W        W97338  39.518  28.298   2.803
26739W        W97339  10.365  22.070  12.993
26740W        W97340  16.641  29.623   0.689
26741W        W97341  29.067  14.265  12.765
26742W        W97342   0.198  44.425  14.370
26743W        W97343  17.874  22.691   1.435
26744W        W97344  41.108   6.984  12.002
26745W        W97345   1.187  16.759  14.356
26746W        W97346  25.177   4.701  13.363
26747W        W97347  41.453  18.796  14.814
26748W        W97348  16.920  42.933   2.749
26749W        W97349  21.090  32.174   5.075
26750W        W97350  24.012  32.589   0.197
26751W        W97351  20.788  38.963   1.086
26752W        W97352  40.912  18.846  14.506
26753W        W97353  23.957  25.548   4.522
26754W        W97354  19.398  18.130   2.213
26755W        W97355  12.774  28.045   4.457
26756W        W97356  33.799  16.210  12.024
26757W        W97357  15.654   1.889   4.424
26758W        W97358  31.604  38.232  14.104
26759W        W97359  41.839  29.709  13.158
26760W        W97360  24.270  30.877  11.221
26761W        W97361  13.542  39.847   2.791
26762W        W97362  11.688  29.508  12.058
26763W        W97363  22.643  18.807   3.806
26764W        W97364  27.676  16.701   2.208
26765W        W97365  15.540  39.576  13.922
26766W        W97366  28.242  44.374  10.335
26767W        W97367   2.943  29.800   2.033
26768W        W97368  29.493  27.396   0.585
26769W        W97369  11.401  16.630   3.929
26770W        W97370  43.233   8.268   2.772
26771W        W97371  38.974  26.668   2.636
26772W        W97372  23.360   2.510  12.058
26773W        W97373  18.221   6.776  12.737
26774W        W97374  29.968  36.534   3.762
26775W        W97375  42.568   9.622   1.864
26776W        W97376   9.171  43.840   1.592
26777W        W97377  33.806  32.164  13.422
26778W        W97378  33.548  20.328  11.522
26779W        W97379  24.967  29.541  10.730
26780W        W97380  31.882  12.903   2.367
26781W        W97381  10.583   9.179   3.279
26782W        W97382  42.965  36.465   0.328
26783W        W97383  44.755  25.141   4.664
26784W        W97384  18.153   7.535  12.877
26785W        W97385  40.552   2.025   0.981
26786W        W97386  30.926   0.984   2.312
26787W        W97387   8.132  24.151   4.571
26788W        W97388  10.420  16.164   1.849
26789W        W97389   9.375  33.902  11.956
26790W        W97390  10.094  32.432  13.515
26791W        W97391   4.806  18.067  14.862
26792W        W97392  33.327   4.793  14.293
26793W        W97393  18.280  22.522   4.576
26794W        W97394   1.757  18.110   0.897
26795W        W97395  19.753  18.037   0.216
26796W        W97396  17.484  12.121  10.832
26797W        W97397  37.865  22.716  11.575
26798W        W97398  12.025   7.595   2.644
26799W        W97399  39.364  26.271   2.210
26800W        W97400  17.672  23.430   3.670
26801W        W97401  32.026  23.273  13.075
26802W        W97402   9.206   2.331   3.119
26803W        W97403  10.347  26.467  14.921
26804W        W97404  27.019  12.095  10.707
26805W        W97405   7.236  16.689   0.715
26806W        W97406  16.069  14.845   1.356
26807W        W97407  38.427  35.434  11.551
26808W        W97408  23.547   2.302   4.142
26809W        W97409  16.801   6.742   3.116
26810W        W97410  21.335  43.274   1.666
26811W        W97411  23.608   9.563   1.861
26812W        W97412  19.496  15.127  12.563
26813W        W97413  24.119   6.665  10.552
26814W        W97414   6.636  35.003   0.357
26815W        W97415  40.525  22.124  12.592
26816W        W97416  16.098  39.224   3.515
26817W        W97417  13.338  43.541   0.563
26818W        W97418   6.011  29.994  12.077
26819W        W97419   1.379  37.839  10.559
26820W        W97420  34.366   2.281   4.660
26821W        W97421  18.194  36.685   2.114
26822W        W97422  39.132  18.499   1.872
26823W        W97423   7.168   6.830   2.161
26824W        W97424  22.968   2.042   0.345
26825W        W97425  31.515   1.836   1.273
26826W        W97426  15.780  37.889   3.622
26827W        W97427  30.098  27.354  14.212
26828W        W97428   0.277  24.693  14.725
26829W        W97429   9.121  12.610   0.309
26830W        W97430  38.917  16.316   1.288
26831W        W97431   1.808   4.041  12.024
26832W        W97432   9.754  15.407  13.839
26833W        W97433  18.705  19.147  14.148
26834W        W97434   4.190  12.244   3.345
26835W        W97435   4.973  30.460  10.706
26836W        W97436  11.664  41.943   4.627
26837W        W97437  41.878  22.739   1.868
26838W        W97438  44.910  31.598  12.388
26839W        W97439  40.420   4.297  14.373
26840W        W97440  16.124   2.754   2.715
26841W        W97441  44.360   6.230  11.193
26842W        W97442  39.248  37.278  11.078
26843W        W97443  39.012  13.776   3.270
26844W        W97444  23.119   3.894   0.642
26845W        W97445  30.330  11.667   3.643
26846W        W97446  15.771  40.609  13.207
26847W        W97447  43.562  31.508   4.046
26848W        W97448  13.529  44.932   1.712
26849W        W97449   4.243  28.113  10.630
26850W        W97450  11.847  35.890   3.107
26851W        W97451  14.116   9.812   4.703
26852W        W97452  20.668   6.170  12.946
26853W        W97453  43.538   7.237  13.905
26854W        W97454  17.619  32.477  11.924
26855W        W97455   4.139  32.548  13.447
26856W        W97456  43.467  33.092   3.814
26857W        W97457  35.599  34.402  12.631
26858W        W97458  41.366   5.759   2.830
26859W        W97459  26.942  33.509   4.220
26860W        W97460  21.757  35.292   3.756
26861W        W97461   2.218  39.130   0.852
26862W        W97462   3.434  22.512  13.549
26863W        W97463  39.427   5.639   5.610
26864W        W97464   6.306  18.578   5.081
26865W        W97465  18.722  19.605   1.810
26866W        W97466  10.431  17.653   5.070
26867W        W97467  14.739  19.748  12.546
26868W        W97468  22.779   1.403  13.455
26869W        W97469  18.125  17.524  12.061
26870W        W97470  20.009   7.862  13.858
26871W        W97471  28.583  15.893   1.773
26872W        W97472  29.510  39.870   0.991
26873W        W97473  33.854  17.060  14.926
26874W        W97474  10.136  17.396  12.027
26875W        W97475  31.565   9.145   2.806
26876W        W97476  36.927   4.806  10.375
26877W        W97477   6.310  26.344  11.007
26878W        W97478  35.896  29.387  10.715
26879W        W97479  14.177  18.296   1.427
26880W        W97480   8.284  27.021  12.972
26881W        W97481  44.296  39.060  13.693
26882W        W97482  19.525  15.182   2.876
26883W        W97483  24.964  20.834   3.089
26884W        W97484  34.663  39.837  12.079
26885W        W97485  30.485   8.350   2.713
26886W        W97486   1.335  10.316   4.386
26887W        W97487  15.623  35.289  14.462
26888W        W97488  31.682  27.458  13.917
26889W        W97489  40.490  37.271   3.118
26890W        W97490  10.406  33.101  12.931
26891W        W97491   5.489  24.568  10.544
26892W        W97492  40.324  37.423   3.601
26893W        W97493  23.183  15.646   3.279
26894W        W97494  31.621  39.966   3.680
26895W        W97495  14.664   4.263  12.932
26896W        W97496   1.375  41.804  13.465
26897W        W97497  25.603  12.228  12.596
26898W        W97498   7.172  26.026  13.769
26899W        W97499  20.193  38.835  14.704
26900W        W97500  27.429  42.613   4.195
26901W        W97501  16.300  13.494   3.015
26902W        W97502  38.427  20.792  11.634
26903W        W97503   7.901  26.003  12.786
26904W        W97504  31.561   4.228  12.434
26905W        W97505  44.854  23.591   1.174
26906W        W97506  15.355   1.190   0.148
26907W        W97507   4.168  10.980   2.637
26908W        W97508  13.912  29.597   3.765
26909W        W97509  28.925  34.275  14.039
26910W        W97510  18.569  42.171   2.257
26911W        W97511  26.142   0.979   0.049
26912W        W97512  23.030  18.040  13.472
26913W        W97513  30.525  35.629  12.816
26914W        W97514  18.173  25.972   2.137
26915W        W97515  15.121   0.905   4.392
26916W        W97516   4.653  18.699   3.786
26917W        W97517   8.923  42.818   3.145
26918W        W97518  32.166  42.783  13.492
26919W        W97519   4.505  15.647   2.804
26920W        W97520  36.866  23.085  12.669
26921W        W97521  28.471  10.949   2.865
26922W        W97522  14.322  23.087  11.171
26923W        W97523  36.474  31.040  14.335
26924W        W97524  27.126   9.717  13.598
26925W        W97525  16.050  32.183  11.159
26926W        W97526  26.612   5.921   3.654
26927W        W97527  31.124  41.928   0.338
26928W        W97528  33.673   8.131   4.708
26929W        W97529   4.928  21.768  11.154
26930W        W97530   8.412   5.340  14.940
26931W        W97531   5.250  43.293  13.858
26932W        W97532  36.813  35.691  14.483
26933W        W97533  29.339  27.416   1.477
26934W        W97534  25.249   2.661   0.980
26935W        W97535  21.001  34.063   1.155
26936W        W97536  39.637  32.646   0.781
26937W        W97537  44.993   3.458   0.980
26938W        W97538   0.747  37.494  14.401
26939W        W97539  38.469  35.819   4.245
26940W        W97540  44.856  27.641   1.903
26941W        W97541  12.588   7.289  11.923
26942W        W97542   5.227  13.572  11.513
26943W        W97543  14.088  21.069  13.338
26944W        W97544  34.941  36.549  10.740
26945W        W97545  28.039  16.618   2.552
26946W        W97546  24.134   1.694   4.114
26947W        W97547  10.874   3.106  11.724
26948W        W97548  30.519   5.233   1.405
26949W        W97549  23.004  26.688  12.365
26950W        W97550  43.341  34.476  10.694
26951W        W97551  37.944   1.939   1.369
26952W        W97552  16.516  42.359   4.767
26953W        W97553  29.604   5.894   4.132
26954W        W97554  13.280  10.190  13.954
26955W        W97555  34.998  33.040   0.830
26956W        W97556   2.318  39.507   3.547
26957W        W97557  31.599  28.658  13.069
26958W        W97558  36.262   8.883  11.644
26959W        W97559  28.887  10.330  10.712
26960W        W97560  22.753   6.295   1.664
26961W        W97561  26.067  25.145   0.505
26962W        W97562  31.103   9.582   2.854
26963W        W97563  23.644  16.143   3.569
26964W        W97564  16.041  33.042  10.743
26965W        W97565   9.386  39.372   3.276
26966W        W97566   4.396  22.485  13.108
26967W        W97567  32.707  27.324   0.472
26968W        W97568  25.261  36.550  14.907
26969W        W97569  13.114  16.798   0.916
26970W        W97570  30.377  44.947  11.080
26971W        W97571  40.334  43.512   4.363
26972W        W97572  32.123  44.330   4.520
26973W        W97573  29.383  28.065   4.602
26974W        W97574   7.352   0.808  10.728
26975W        W97575   0.994   6.413   4.192
26976W        W97576   6.085  22.896   4.598
26977W        W97577  13.415  33.974  13.808
26978W        W97578  21.117  18.863   1.364
26979W        W97579  19.068  35.053   3.337
26980W        W97580  18.278  30.178  11.159
26981W        W97581  18.188  20.727   2.666
26982W        W97582  19.063  41.572   3.151
26983W        W97583  20.140  44.288   1.198
26984W        W97584  17.702  38.549   0.732
26985W        W97585  18.301  18.586   1.887
26986W        W97586  38.894  20.640  10.382
26987W        W97587  12.088  20.702  14.320
26988W        W97588   7.812  13.201  11.085
26989W        W97589  10.666  34.073  10.898
26990W        W97590   3.944  10.060   4.599
26991W        W97591   7.294  11.418   4.505
26992W        W97592  39.628  21.064   1.780
26993W        W97593   2.772  32.354   0.759
26994W        W97594  42.516  32.394   4.224
26995W        W97595  10.301  21.998   4.698
26996W        W97596  40.426  43.450   0.625
26997W        W97597  36.170  10.356  14.392
26998W        W97598  43.819   7.185  12.434
26999W        W97599  37.170   0.013   3.318
27000W        W97600  42.066   6.710   3.655
27001W        W97601  11.373  26.774  11.149
27002W        W97602  11.151   2.345   2.436
27003W        W97603  40.440  20.233  13.144
27004W        W97604  24.354   0.879  12.156
27005W        W97605  26.068  41.409  11.723
27006W        W97606  22.852   8.334   1.408
27007W        W97607  12.885  14.115   0.277
27008W        W97608   8.096  23.089  11.972
27009W        W97609  33.899  21.413  13.808
27010W        W97610   1.373  25.143   2.229
27011W        W97611  15.982  31.871  11.571
27012W        W97612  17.057  20.719  10.182
27013W        W97613  10.613  15.252   3.698
27014W        W97614  37.884   4.853  10.690
27015W        W97615  23.968  22.543   3.670
27016W        W97616  25.616  36.132   3.608
27017W        W97617  25.666  39.079  14.595
27018W        W97618   5.837  31.673   0.808
27019W        W97619  28.621   4.091   4.631
27020W        W97620  36.017  28.309  10.867
27021W        W97621  41.892  13.348   1.415
27022W        W97622  12.297  43.139   1.303
27023W        W97623   8.791   9.378   3.526
27024W        W97624  27.357  16.999  11.999
27025W        W97625   1.420  13.940  13.602
27026W        W97626  20.128  11.355  10.981
27027W        W97627  33.483  36.046   3.582
27028W        W97628  18.589   6.796  11.477
27029W        W97629  32.268  11.098   9.937
27030W        W97630  44.215  29.303   5.021
27031W        W97631   8.905  14.423   3.148
27032W        W97632  34.277  23.048   4.449
27033W        W97633  35.863  27.134   1.483
27034W        W97634  14.043  24.213   2.203
27035W        W97635  30.927  24.627  10.538
27036W        W97636  38.040   4.887   0.473
27037W        W97637  28.191   4.846   1.176
27038W        W97638  17.649  44.011   0.454
27039W        W97639  37.154  44.994   1.382
27040W        W97640  43.177  13.045  11.649
27041W        W97641  32.418  24.178   3.800
27042W        W97642  39.709  25.729   0.815
27043W        W97643  10.906   7.119   3.665
27044W        W97644  37.469   0.497   1.409
27045W        W97645  18.542  12.599   0.936
27046W        W97646  43.051  14.707  14.927
27047W        W97647  15.172  34.077  12.938
27048W        W97648  40.814  42.604  10.724
27049W        W97649  31.035  21.281  10.509
27050W        W97650  35.925  36.347  12.378
27051W        W97651   7.516  18.532   4.577
27052W        W97652  38.416  42.815  10.730
27053W        W97653  21.189  44.761   0.373
27054W        W97654  42.017  40.992  11.932
27055W        W97655   0.153  26.980   4.507
27056W        W97656  16.521  24.214   4.707
27057W        W97657  22.472  31.547   2.355
27058W        W97658  24.197  17.345   2.583
27059W        W97659   8.895  15.547  14.812
27060W        W97660  16.522  11.893   3.681
27061W        W97661  12.988  17.330   3.610
27062W        W97662  15.697  18.482   2.868
27063W        W97663  15.359  19.672   4.661
27064W        W97664  26.704   0.720   0.735
27065W        W97665  21.777  20.150  13.510
27066W        W97666  13.293   8.674   1.224
27067W        W97667  24.123  35.317   3.902
27068W        W97668  10.192  14.263   4.807
27069W        W97669  10.924  33.446   1.798
27070W        W97670  40.884  15.757   4.539
27071W        W97671  31.084  10.757   2.291
27072W        W97672  25.161  11.694  13.384
27073W        W97673  17.155   8.771   1.064
27074W        W97674  43.280  29.506  11.014
27075W        W97675  24.467  32.772   0.415
27076W        W97676  35.417  32.333  12.065
27077W        W97677  28.491  37.339   4.687
27078W        W97678  25.671  35.858   0.441
27079W        W97679  31.487   3.160   2.579
27080W        W97680   9.752  22.253  14.320
27081W        W97681  34.894  20.649  14.134
27082W        W97682  44.743  17.614  11.527
27083W        W97683  32.623   4.953   1.497
27084W        W97684  25.709  42.393   4.169
27085W        W97685   2.534  42.272  12.741
27086W        W97686  13.948  13.007   1.929
27087W        W97687  25.237  42.838   4.860
27088W        W97688   4.172   1.320   2.609
27089W        W97689  42.947  44.083  13.853
27090W        W97690  31.813   9.877  11.089
27091W        W97691  35.906  20.282   4.076
27092W        W97692  40.687  21.574   2.963
27093W        W97693  14.228  42.419   3.647
27094W        W97694  35.751  40.567   1.868
27095W        W97695  18.610  27.689  12.066
27096W        W97696  37.029  19.749  12.994
27097W        W97697   3.953   9.211   3.849
27098W        W97698  41.773  28.214  10.264
27099W        W97699  28.387   5.400   1.056
27100W        W97700  23.193  14.713  11.659
27101W        W97701  23.701  44.747   3.647
27102W        W97702  26.970  30.153   4.781
27103W        W97703  30.902  23.071  12.698
27104W        W97704  28.661  12.228   1.326
27105W        W97705   6.791  30.936  11.887
27106W        W97706  26.207   2.925   3.747
27107W        W97707  23.695  35.628  14.225
27108W        W97708   9.723  41.103   0.933
27109W        W97709  34.399  32.490  12.041
27110W        W97710   1.048  25.779   1.470
27111W        W97711  23.958  21.224  13.907
27112W        W97712  25.437  19.275  14.530
27113W        W97713  33.126  32.380   4.223
27114W        W97714  35.517  43.506  11.088
27115W        W97715   5.468   0.967  13.378
27116W        W97716  33.491  39.257   5.487
27117W        W97717   2.819  43.582   0.997
27118W        W97718   0.006   7.905  13.843
27119W        W97719   1.773  29.608   1.717
27120W        W97720  27.485  32.439   1.282
27121W        W97721   2.292  12.848   1.208
27122W        W97722   7.449  29.872  11.025
27123W        W97723   9.669  22.014  13.345
27124W        W97724  23.775  42.738  11.075
27125W        W97725  41.087   5.994  11.320
27126W        W97726  35.607  31.772  12.925
27127W        W97727  13.932  19.617  10.631
27128W        W97728  23.055  31.563  13.467
27129W        W97729   4.464   0.950   3.856
27130W        W97730   3.942  37.150  13.304
27131W        W97731  44.386   5.315  11.695
27132W        W97732   8.391   4.672   4.355
27133W        W97733  20.776   0.866  12.871
27134W        W97734  21.238  39.992   4.914
27135W        W97735  26.904  41.369   3.196
27136W        W97736  39.260  26.154   4.159
27137W        W97737   0.194  43.458  11.457
27138W        W97738   9.225  31.939  14.546
27139W        W97739   3.983  29.912   3.192
27140W        W97740   7.351  42.545   0.819
27141W        W97741  38.816   8.859   4.452
27142W        W97742  11.610  38.082  14.012
27143W        W97743  29.004  39.745  11.288
27144W        W97744  33.480  12.312  13.997
27145W        W97745  31.662  25.493   2.238
27146W        W97746  44.831  36.364  13.842
27147W        W97747  21.018  21.054   2.664
27148W        W97748  11.848  24.491   4.557
27149W        W97749  15.591  25.618   3.957
27150W        W97750  38.744   9.854   3.669
27151W        W97751   9.825  22.648  11.030
27152W        W97752  14.143   3.046   2.150
27153W        W97753  35.381  11.679   1.861
27154W        W97754  10.256   9.566   3.387
27155W        W97755  33.382  19.040   2.820
27156W        W97756  22.434  20.735  13.520
27157W        W97757  41.609  37.930  13.909
27158W        W97758  14.447   6.389  14.500
27159W        W97759  23.026  17.364   1.248
27160W        W97760  41.022  30.695   3.302
27161W        W97761  26.994   8.882   3.117
27162W        W97762  12.663  21.448  10.801
27163W        W97763   2.645  24.420  12.488
27164W        W97764  37.314   7.682   2.818
27165W        W97765   5.643   0.008   3.780
27166W        W97766  41.755  34.373  10.869
27167W        W97767  19.662   9.863  13.898
27168W        W97768  21.872   3.241  11.179
27169W        W97769  33.157  14.149   0.215
27170W        W97770  38.368  40.667   1.508
27171W        W97771  34.132  37.522  13.456
27172W        W97772  18.238  27.186  11.499
27173W        W97773  26.338  12.134  14.502
27174W        W97774  43.433   3.413  10.298
27175W        W97775  26.643  25.677  14.885
27176W        W97776  40.477   2.757  14.655
27177W        W97777  31.430  24.194   4.620
27178W        W97778  29.687  36.841  13.535
27179W        W97779  20.232  30.957  12.328
27180W        W97780  15.231   7.921  12.818
27181W        W97781  29.857   3.210  14.256
27182W        W97782  43.861  26.584   0.967
27183W        W97783  17.073  14.568  11.853
27184W        W97784  43.776  18.081  11.445
27185W        W97785  13.220  22.747  11.651
27186W        W97786  21.587  41.447  12.990
27187W        W97787  28.627   7.897   0.717
27188W        W97788   7.341  10.645  13.069
27189W        W97789  11.433  35.862   1.344
27190W        W97790  30.933  20.512  12.384
27191W        W97791  24.215  17.059   0.837
27192W        W97792  41.023  31.073   1.311
27193W        W97793   8.759  27.146   0.959
27194W        W97794  13.426  40.909  10.689
27195W        W97795  16.307   8.737   1.640
27196W        W97796  27.231  25.549   0.561
27197W        W97797  16.055  12.181  11.972
27198W        W97798  21.954  28.839   1.269
27199W        W97799  35.869  18.695  12.953
27200W        W97800  28.434  43.726   0.191
27201W        W97801  39.355  33.524  12.483
27202W        W97802  43.006  14.090  13.997
27203W        W97803  23.958  18.441  14.512
27204W        W97804  27.123  30.182  10.752
27205W        W97805   1.901  33.750  12.592
27206W        W97806  15.168  33.832   3.775
27207W        W97807  19.323   4.429   4.648
27208W        W97808  33.948  17.331  12.595
27209W        W97809  44.090  24.140  10.551
27210W        W97810  27.461  41.403  10.770
27211W        W97811  27.964   2.659   4.336
27212W        W97812  20.120   7.119   1.227
27213W        W97813  33.162  38.328   3.252
27214W        W97814  10.418   8.696  14.761
27215W        W97815  28.092   9.885   4.564
27216W        W97816   3.007   5.709  13.045
27217W        W97817  33.429  21.821   0.406
27218W        W97818   1.538   3.974  13.468
27219W        W97819  36.492   1.570   2.793
27220W        W97820  24.994  20.524   2.670
27221W        W97821  44.767  25.611   1.870
27222W        W97822  21.537  18.574  10.622
27223W        W97823   8.118  37.050  10.434
27224W        W97824  25.917   3.225  12.826
27225W        W97825   1.217  23.129  13.233
27226W        W97826  15.807  42.779  13.540
27227W        W97827  31.013  26.519  11.199
27228W        W97828  15.206  26.724   4.396
27229W        W97829  22.011  15.431   0.655
27230W        W97830  30.180  34.656   0.374
27231W        W97831  25.109  40.502  13.533
27232W        W97832  40.486   2.387  11.724
27233W        W97833  26.747  44.861  11.946
27234W        W97834  20.499  15.528  13.486
27235W        W97835  34.998  29.204  14.378
27236W        W97836  19.034   6.899  11.951
27237W        W97837  20.299  25.571  10.666
27238W        W97838  17.358  25.520  13.755
27239W        W97839  12.191  32.032   3.090
27240W        W97840  21.297  42.509   4.544
27241W        W97841   7.656   6.876   0.858
27242W        W97842  10.715  20.521  10.721
27243W        W97843  33.084  11.862  11.526
27244W        W97844  22.232  29.933   2.079
27245W        W97845  21.299   0.005  13.082
27246W        W97846  17.345  44.537   4.511
27247W        W97847  39.043  23.253  11.170
27248W        W97848  20.525   2.336  13.589
27249W        W97849  42.318  22.001   4.502
27250W        W97850  32.571  34.403   0.477
27251W        W97851  14.447  36.897   1.024
27252W        W97852  31.893  38.913  14.562
27253W        W97853  44.872  39.825   4.494
27254W        W97854  19.026  33.830   3.707
27255W        W97855  41.273  32.722  13.038
27256W        W97856   0.007   9.408   4.098
27257W        W97857  42.982   4.879  12.613
27258W        W97858  34.082  12.315   3.254
27259W        W97859   5.441  21.050  13.512
27260W        W97860  37.816  32.758  10.679
27261W        W97861  42.581  38.588   0.944
27262W        W97862  25.640  32.624   3.891
27263W        W97863  36.136  10.227   0.286
27264W        W97864  36.980  26.446  13.986
27265W        W97865   7.752  22.214   3.924
27266W        W97866  16.093  24.617   1.781
27267W        W97867   3.338  12.830  14.380
27268W        W97868  39.895  10.455  12.441
27269W        W97869  35.647   2.067  14.949
27270W        W97870  39.597   7.704   3.450
27271W        W97871  38.485  24.703  14.286
27272W        W97872  41.339   7.698   2.663
27273W        W97873   9.424   9.190   4.218
27274W        W97874  39.535  30.397  13.794
27275W        W97875  24.656   3.636   3.421
27276W        W97876   6.783  41.827   0.927
27277W        W97877   2.470  28.655   1.373
27278W        W97878  16.802  31.488  11.459
27279W        W97879  44.739  36.281   0.878
27280W        W97880  29.670  16.454   4.277
27281W        W97881   7.850  35.030  14.474
27282W        W97882  21.136   1.303   3.699
27283W        W97883  38.872  36.861   0.689
27284W        W97884  39.995  40.503  11.097
27285W        W97885  11.941  40.471  12.542
27286W        W97886  37.978   8.593   1.624
27287W        W97887  33.465  44.407  11.141
27288W        W97888  21.075  14.798  10.765
27289W        W97889  22.773  28.806   1.635
27290W        W97890  37.740   4.784   2.362
27291W        W97891  20.463  27.083  10.358
27292W        W97892  20.455   3.403  11.183
27293W        W97893  38.048  36.912   0.322
27294W        W97894   5.441  40.409   3.449
27295W        W97895   4.892   8.430   2.861
27296W        W97896   7.994   8.718  13.739
27297W        W97897  25.957  29.208   2.221
27298W        W97898  29.159  21.906   2.292
27299W        W97899  28.599  11.125  14.478
27300W        W97900  31.625  17.161  11.962
27301W        W97901   0.470   3.000  12.625
27302W        W97902  31.569  19.552  13.027
27303W        W97903  29.678  30.597  11.674
27304W        W97904  25.439  26.638  12.616
27305W        W97905  19.047  28.524   4.075
27306W        W97906   3.300  13.356  12.923
27307W        W97907  12.645  13.263  14.776
27308W        W97908  11.926  25.562  13.041
27309W        W97909  41.247  42.925  10.462
27310W        W97910   2.731  13.290  12.080
27311W        W97911  35.828  38.966  12.423
27312W        W97912  39.050   3.483  13.017
27313W        W97913  34.610   0.259   3.479
27314W        W97914  39.212   2.961   3.203
27315W        W97915   0.951  23.391   1.249
27316W        W97916  22.571   0.600   3.200
27317W        W97917  33.681  31.198  14.299
27318W        W97918  44.279  33.016   0.461
27319W        W97919  42.042  28.731  13.734
27320W        W97920  40.014   1.259   1.763
27321W        W97921  13.918  18.671  12.613
27322W        W97922  24.077   6.761   0.060
27323W        W97923  23.613  34.229  11.632
27324W        W97924   3.279  28.984  11.157
27325W        W97925  17.185  27.472   2.138
27326W        W97926  40.004   6.044  11.653
27327W        W97927   4.762   9.510   1.153
27328W        W97928  34.596  12.135   2.368
27329W        W97929  21.283  17.226  10.787
27330W        W97930  19.608  11.129   3.066
27331W        W97931  40.469  12.891   2.208
27332W        W97932   2.232  18.676  12.922
27333W        W97933  16.574   1.904   4.386
27334W        W97934  16.365  19.261   3.976
27335W        W97935  24.841   8.673   1.427
27336W        W97936   5.645  22.709  13.822
27337W        W97937  29.063  24.634  13.979
27338W        W97938  16.572  34.327   1.697
27339W        W97939  34.056   5.203  13.943
27340W        W97940  24.318  14.954   2.734
27341W        W97941  23.463  40.126  12.061
27342W        W97942   8.310  36.929  14.644
27343W        W97943   7.658  20.034  11.584
27344W        W97944  23.537  13.775  10.794
27345W        W97945   2.985  43.042  14.822
27346W        W97946   2.876   1.932   0.863
27347W        W97947   9.718  35.173   3.853
27348W        W97948  30.454  41.282   0.337
27349W        W97949  42.033  12.184   4.333
27350W        W97950  32.607  24.853   3.307
27351W        W97951  22.877  39.996   2.227
27352W        W97952   9.719   3.330  14.040
27353W        W97953  39.351  33.096  14.431
27354W        W97954  37.299  31.947  14.029
27355W        W97955   5.921   8.170   1.670
27356W        W97956  43.325  10.398   4.534
27357W        W97957  15.780  29.712  14.427
27358W        W97958  36.456  30.450  14.781
27359W        W97959  27.546  24.166   1.421
27360W        W97960  36.238  21.121   4.053
27361W        W97961  33.897  30.556   0.981
27362W        W97962  35.074  29.459  13.850
27363W        W97963  15.189   7.415  14.644
27364W        W97964   1.012   6.290  11.814
27365W        W97965   2.041   6.569  12.036
27366W        W97966  23.004   2.580   0.356
27367W        W97967   9.286  24.785   2.170
27368W        W97968  40.231   0.804   4.141
27369W        W97969  44.373  33.056  10.831
27370W        W97970   1.361   1.420  13.540
27371W        W97971  25.217  43.738  12.913
27372W        W97972  28.675  24.209   4.133
27373W        W97973   2.812   1.083  10.949
27374W        W97974  17.318  37.507   2.693
27375W        W97975  36.396  11.584  11.946
27376W        W97976  13.661  39.012   4.605
27377W        W97977  39.757  28.424   0.784
27378W        W97978  31.141   5.410   0.221
27379W        W97979  34.318   0.971   4.585
27380W        W97980   3.529  22.135  10.113
27381W        W97981  40.754  21.945   1.404
27382W        W97982  38.970   1.926  13.943
27383W        W97983  13.205  39.913  10.434
27384W        W97984  33.147  26.247  14.252
27385W        W97985  38.578  39.162   0.364
27386W        W97986   6.888   4.863  10.885
27387W        W97987  38.896   3.350   3.295
27388W        W97988  35.126   7.644   3.335
27389W        W97989  15.309   1.535   3.153
27390W        W97990   4.778   8.500   4.904
27391W        W97991  15.335  23.624   2.254
27392W        W97992   1.686  39.306   0.895
27393W        W97993  10.195   8.161   1.221
27394W        W97994  19.200  26.941  12.437
27395W        W97995  24.965  36.907   5.275
27396W        W97996   0.404  42.953  14.415
27397W        W97997  29.215   9.219  11.147
27398W        W97998  23.417  41.442  11.004
27399W        W97999   5.469  16.346  12.757
27400W        W98000  11.603   8.011  11.001
27401W        W98001  19.092  19.210   0.272
27402W        W98002  12.039  11.328   3.853
27403W        W98003  36.680  37.683  11.941
27404W        W98004  24.053   7.956   1.841
27405W        W98005  27.161  36.804   2.123
27406W        W98006  38.971   1.890   1.278
27407W        W98007   3.104  12.376  13.499
27408W        W98008  22.915  14.340  11.882
27409W        W98009  43.069   2.197  13.995
27410W        W98010   0.893  38.011  14.338
27411W        W98011  32.120   7.184   4.546
27412W        W98012  20.546   8.699   1.331
27413W        W98013  20.724  38.092   1.293
27414W        W98014  27.941  21.556   2.735
27415W        W98015  35.508  26.737  14.862
27416W        W98016  15.900  33.024  11.579
27417W        W98017  12.026  13.367  13.408
27418W        W98018  18.956  30.800  10.110
27419W        W98019  20.463  27.791   3.229
27420W        W98020  16.865  17.507  10.608
27421W        W98021  28.965  30.201   3.743
27422W        W98022  16.169  42.533   1.756
27423W        W98023   0.504  44.777   0.278
27424W        W98024  28.445  20.087   2.287
27425W        W98025  16.313  24.193   0.414
27426W        W98026   4.352  11.775   0.443
27427W        W98027   7.880  15.513  14.089
27428W        W98028   9.278   3.192   1.932
27429W        W98029  23.569  30.103   1.231
27430W        W98030   4.925   6.987  12.013
27431W        W98031  20.055  23.709   2.231
27432W        W98032  43.520  11.323   3.316
27433W        W98033  18.144  22.131   2.337
27434W        W98034  38.401  33.373  14.738
27435W        W98035   0.407  19.076  13.003
27436W        W98036  33.625  15.978  11.089
27437W        W98037   5.195  19.673  13.073
27438W        W98038  39.013  17.159  14.378
27439W        W98039  43.759   6.127   2.779
27440W        W98040  29.169  41.443  14.753
27441W        W98041  21.516  27.087  13.649
27442W        W98042  22.968   0.287   0.915
27443W        W98043  19.544  34.987   2.292
27444W        W98044   5.887   5.857   4.618
27445W        W98045   3.248  28.532   1.889
27446W        W98046  43.423  18.563   0.731
27447W        W98047   1.360  22.303  13.205
27448W        W98048  17.037   1.721   4.525
27449W        W98049  12.167  11.893  14.362
27450W        W98050  18.536  37.165  11.222
27451W        W98051  35.366  12.658   1.834
27452W        W98052  43.868  41.785  12.105
27453W        W98053  17.089  14.623   1.352
27454W        W98054  22.642   6.102  13.339
27455W        W98055   4.429  18.035  11.739
27456W        W98056  22.630  36.060   1.905
27457W        W98057  28.021  15.610   4.826
27458W        W98058  33.706  36.487   0.297
27459W        W98059  14.649  19.661  13.913
27460W        W98060  24.516  30.574   3.129
27461W        W98061   7.318  29.538  13.926
27462W        W98062  15.351  12.354  10.744
27463W        W98063  13.354  33.719   2.766
27464W        W98064   1.488  24.532  12.973
27465W        W98065  44.699  21.645  13.955
27466W        W98066  11.163  14.538   4.560
27467W        W98067  19.573  35.104   4.035
27468W        W98068  21.760  10.408  14.107
27469W        W98069  36.042  19.717   2.192
27470W        W98070  39.959   3.611  11.042
27471W        W98071  41.415  15.986  12.008
27472W        W98072  17.774  31.970   0.369
27473W        W98073  19.018  24.156   3.096
27474W        W98074   3.359  12.944   4.071
27475W        W98075  15.309  29.708  12.887
27476W        W98076  30.937   5.168   4.183
27477W        W98077  10.743  37.391   1.045
27478W        W98078  42.827  38.633   1.945
27479W        W98079  20.107  27.482   0.676
27480W        W98080  32.710  31.707   4.763
27481W        W98081  15.445  17.872  14.790
27482W        W98082  40.661   9.959  10.265
27483W        W98083  33.360  14.640  12.484
27484W        W98084   3.893  13.314  12.082
27485W        W98085   1.430  43.095  14.922
27486W        W98086  23.866   6.731   1.506
27487W        W98087  13.102  38.063   1.268
27488W        W98088  28.165  36.937   4.615
27489W        W98089  40.018  30.534  13.267
27490W        W98090   1.765   0.819  11.195
27491W        W98091  26.967  43.746  11.574
27492W        W98092  27.964   1.549   1.763
27493W        W98093  26.703  31.974  11.668
27494W        W98094  13.908  30.345  11.935
27495W        W98095  26.517   4.756  12.816
27496W        W98096  34.285  22.071   4.287
27497W        W98097   0.888  25.685  11.203
27498W        W98098  20.189   5.920   2.646
27499W        W98099  22.953  24.465   3.155
27500W        W98100  24.043  37.636  11.616
27501W        W98101   9.348  30.471  11.067
27502W        W98102   5.443  40.055   1.796
27503W        W98103   2.169  43.040   4.130
27504W        W98104  23.693  42.122  12.998
27505W        W98105  20.237  27.225   1.948
27506W        W98106  41.752  10.914  12.430
27507W        W98107  24.394  23.065   0.823
27508W        W98108  30.503  11.917  13.733
27509W        W98109  40.844   9.855   4.229
27510W        W98110  17.743  35.157   2.638
27511W        W98111  26.688   1.482   4.169
27512W        W98112   7.534  27.620  10.740
27513W        W98113   4.751  30.113  12.915
27514W        W98114   6.423  42.196   2.619
27515W        W98115   8.208  12.579   2.152
27516W        W98116   7.356  23.779   1.827
27517W        W98117  22.041   1.476  11.687
27518W        W98118  31.494  27.426  13.384
27519W        W98119  22.908  12.895   0.951
27520W        W98120  33.990  30.522  14.019
27521W        W98121  28.197  19.043  12.404
27522W        W98122   3.092  39.457  13.867
27523W        W98123  11.722  26.683   1.268
27524W        W98124  41.315   2.355   1.371
27525W        W98125   8.323   7.755  13.332
27526W        W98126  29.141  24.562   2.879
27527W        W98127  11.845  21.448   1.885
27528W        W98128   3.302  10.101   5.223
27529W        W98129  22.381  18.433   1.194
27530W        W98130   2.370  17.592   1.605
27531W        W98131  21.616  16.989   0.459
27532W        W98132  17.308   6.256  11.538
27533W        W98133   1.291   8.208  12.913
27534W        W98134   3.010   1.870   2.267
27535W        W98135  20.225  15.569  11.075
27536W        W98136  10.375   6.504  14.491
27537W        W98137  41.093   2.995   5.353
27538W        W98138  32.473   4.416   2.660
27539W        W98139  20.481  34.996   0.342
27540W        W98140  14.556  15.939   3.581
27541W        W98141   3.233  32.491   0.563
27542W        W98142  24.142  26.502   1.328
27543W        W98143  38.966   4.992   0.480
27544W        W98144   0.509  27.571   1.321
27545W        W98145  41.277  20.715   1.365
27546W        W98146  14.073  28.886  10.800
27547W        W98147  19.528  44.353   4.257
27548W        W98148  21.423  38.656   4.995
27549W        W98149  26.446  12.248   4.279
27550W        W98150   2.780  39.973   3.183
27551W        W98151  28.239  38.942  12.953
27552W        W98152  13.293  36.334  11.095
27553W        W98153  41.374  39.479   2.403
27554W        W98154  27.143  31.056  11.282
27555W        W98155  27.529   2.528  14.852
27556W        W98156   2.688  44.233  12.872
27557W        W98157  22.829  23.547   0.394
27558W        W98158  17.036   9.658  13.787
27559W        W98159  15.183  18.801  14.926
27560W        W98160   2.354  23.571   4.085
27561W        W98161  31.909  14.809   4.203
27562W        W98162  21.735  42.518  10.450
27563W        W98163  32.416  15.774  10.168
27564W        W98164   2.358  18.536  11.112
27565W        W98165  18.667   4.510  10.635
27566W        W98166  30.027  18.792   3.303
27567W        W98167  25.526   5.623  13.795
27568W        W98168  28.637  30.736  13.342
27569W        W98169  30.396  34.471   3.883
27570W        W98170  24.578  43.673   4.144
27571W        W98171  43.488   4.827   1.741
27572W        W98172  11.819  37.095  14.260
27573W        W98173  32.719  42.585  12.522
27574W        W98174  31.526  28.496   1.486
27575W        W98175  14.124  22.533   0.892
27576W        W98176   0.323  36.349  13.609
27577W        W98177   9.119  33.625   4.574
27578W        W98178  20.630   0.736  10.550
27579W        W98179   5.606  44.725  11.886
27580W        W98180  36.723   3.936  11.881
27581W        W98181  29.608   7.741   4.493
27582W        W98182  39.617  25.520  14.437
27583W        W98183  33.799  32.480  11.563
27584W        W98184  18.422  40.691  14.848
27585W        W98185  26.630  21.521   2.254
27586W        W98186  39.509  11.881  13.345
27587W        W98187  27.772  33.563   4.562
27588W        W98188  29.004   3.826   1.369
27589W        W98189  14.243  38.735  14.529
27590W        W98190  38.107  10.820  12.540
27591W        W98191  29.739  42.545   3.748
27592W        W98192  43.160  27.699  10.357
27593W        W98193   6.455  42.308  12.631
27594W        W98194  32.108  16.058  10.497
27595W        W98195   9.465  44.705   2.515
27596W        W98196  21.694   9.255   1.268
27597W        W98197  21.602  27.785  14.318
27598W        W98198  43.064  16.063   4.161
27599W        W98199  21.650  33.202  14.473
27600W        W98200  30.533   1.668  14.992
27601W        W98201  18.689  31.049  12.607
27602W        W98202  38.462  26.405   0.739
27603W        W98203   2.749  18.805  10.833
27604W        W98204  41.940  35.112  12.007
27605W        W98205  28.983  29.615  12.917
27606W        W98206  36.890   2.850   4.508
27607W        W98207  30.012  20.862   1.198
27608W        W98208  27.105  13.098   3.384
27609W        W98209  10.296  27.915  11.626
27610W        W98210   8.285  34.473  11.388
27611W        W98211  31.696  44.810   3.741
27612W        W98212  44.048  28.880  13.426
27613W        W98213  11.722   2.096  14.447
27614W        W98214  33.021  29.929   3.166
27615W        W98215  28.420  39.972   4.033
27616W        W98216  24.447  18.216   3.781
27617W        W98217  33.174  27.425   4.683
27618W        W98218   6.999  39.364   0.308
27619W        W98219   2.813  29.370   2.289
27620W        W98220  25.348   7.719  12.877
27621W        W98221  18.831  40.027  13.904
27622W        W98222   7.116  32.277   2.926
27623W        W98223  14.637   2.132  10.420
27624W        W98224  13.215  12.103  11.112
27625W        W98225   4.984   1.453   4.338
27626W        W98226  43.915  36.774  12.496
27627W        W98227   9.890  10.330  13.030
27628W        W98228   9.664  15.977  12.196
27629W        W98229  20.072  28.588   2.156
27630W        W98230   4.777  11.798  12.138
27631W        W98231  14.709  10.828  13.770
27632W        W98232  13.131  30.169  12.506
27633W        W98233  42.042  18.176   1.588
27634W        W98234  37.485  30.200   2.449
27635W        W98235   7.965   6.823  11.697
27636W        W98236  19.087  14.324  10.479
27637W        W98237  12.713  18.869   4.529
27638W        W98238  35.872   6.641  12.844
27639W        W98239  35.946   5.684  11.850
27640W        W98240   4.533  23.985  12.881
27641W        W98241   6.689  22.608   1.941
27642W        W98242  39.642  11.736  10.610
27643W        W98243   0.836  20.231   1.396
27644W        W98244  29.916  20.728  10.947
27645W        W98245  40.459  31.176  10.711
27646W        W98246  10.437  42.766  12.840
27647W        W98247  31.796  18.948  12.625
27648W        W98248   3.429   5.115   3.718
27649W        W98249  17.641  23.534  10.924
27650W        W98250  13.708  43.490  14.416
27651W        W98251  42.781   7.619   2.741
27652W        W98252  31.011  16.547  12.785
27653W        W98253   2.018  21.497   1.816
27654W        W98254  27.175   7.733   3.979
27655W        W98255   3.021  30.953   0.781
27656W        W98256   4.806  37.191  13.324
27657W        W98257   2.494   7.041  11.057
27658W        W98258  12.150  32.143  12.556
27659W        W98259  33.114  35.058   1.328
27660W        W98260  23.509  32.743  14.516
27661W        W98261  42.957  31.666  13.461
27662W        W98262  17.344  21.607  12.079
27663W        W98263  12.379  43.201  14.963
27664W        W98264  24.268  33.524   4.218
27665W        W98265  42.190  37.871   2.646
27666W        W98266  37.380  42.442   2.691
27667W        W98267  18.271   3.315   3.724
27668W        W98268  13.368  33.020   1.351
27669W        W98269   5.144  39.975   3.642
27670W        W98270  34.846   7.453  12.321
27671W        W98271  28.221   5.241  11.139
27672W        W98272  27.109   5.674   1.368
27673W        W98273  24.191   9.798   3.474
27674W        W98274  39.155  13.271   0.263
27675W        W98275  32.003  22.257   0.805
27676W        W98276  12.369  27.121   0.789
27677W        W98277  42.562  20.649  11.940
27678W        W98278  37.393   3.147   4.389
27679W        W98279  41.195  42.270   3.778
27680W        W98280   2.390  34.380   2.736
27681W        W98281  18.667  36.513   2.205
27682W        W98282  19.631   0.769  12.505
27683W        W98283  32.619  44.408   4.692
27684W        W98284  13.692  26.865  11.637
27685W        W98285  21.898   7.445  12.183
27686W        W98286  30.727  40.490   2.706
27687W        W98287  32.259  11.840  11.181
27688W        W98288  44.839  20.315   3.306
27689W        W98289   1.281   8.851   0.049
27690W        W98290  41.881  25.224  12.840
27691W        W98291  27.644  17.947  12.042
27692W        W98292  34.562  37.704   4.728
27693W        W98293  38.088  26.629  14.852
27694W        W98294   0.796  35.024  14.333
27695W        W98295  42.048  42.420   2.980
27696W        W98296  42.808  27.438  13.729
27697W        W98297  17.366   2.325   1.927
27698W        W98298  20.167  37.046  11.384
27699W        W98299  14.764  44.903  14.750
27700W        W98300  35.936  13.873  12.066
27701W        W98301   6.417  21.239  13.754
27702W        W98302   5.494  32.966   0.816
27703W        W98303  44.676   3.281  14.336
27704W        W98304  42.969  21.908   4.114
27705W        W98305  24.809  24.701   2.634
27706W        W98306  33.046  39.222   2.858
27707W        W98307   1.950  32.559   1.298
27708W        W98308  19.581   7.748  14.942
27709W        W98309  43.030  42.829   3.194
27710W        W98310  27.083  29.384  11.471
27711W        W98311  20.659   1.950   0.416
27712W        W98312  35.715  39.888  11.964
27713W        W98313   2.179   6.895  12.478
27714W        W98314  25.142  29.256  12.005
27715W        W98315  19.046  23.748  10.427
27716W        W98316  41.351  37.026   4.496
27717W        W98317   0.316   0.290   0.359
27718W        W98318  30.368  39.495   1.806
27719W        W98319  37.068  38.037  12.139
27720W        W98320  13.760  23.060  11.018
27721W        W98321   0.165  14.891   1.463
27722W        W98322   5.404  38.852   0.275
27723W        W98323  32.186  40.477   0.842
27724W        W98324  23.740  14.260   3.102
27725W        W98325   8.730  16.751   0.965
27726W        W98326  35.838  32.289   3.639
27727W        W98327  23.525  11.945   4.745
27728W        W98328  11.581  34.849  10.320
27729W        W98329  42.300   5.504  12.073
27730W        W98330   6.639  35.993   4.774
27731W        W98331  43.023  38.616   2.942
27732W        W98332  15.641  15.773   3.672
27733W        W98333  25.412  22.181   0.746
27734W        W98334   7.887  43.103  12.609
27735W        W98335  42.659  30.660  14.456
27736W        W98336   5.361   4.050  10.635
27737W        W98337  21.574  34.048  11.040
27738W        W98338  10.254  31.447   0.486
27739W        W98339  22.176  39.372   2.824
27740W        W98340   7.308  23.631   1.341
27741W        W98341  40.745  29.461   0.928
27742W        W98342  32.657  25.111   1.823
27743W        W98343  16.308   2.959  13.862
27744W        W98344  14.342  29.241   1.895
27745W        W98345  39.142  40.915  13.506
27746W        W98346  34.903  10.324  12.518
27747W        W98347  22.103   7.170  14.493
27748W        W98348  44.826  36.485  14.355
27749W        W98349  25.191   3.754  11.955
27750W        W98350  23.170  11.200   0.359
27751W        W98351  23.108   3.505   0.272
27752W        W98352  19.020  33.946  11.501
27753W        W98353  25.646  42.647  10.780
27754W        W98354  22.537  31.356  12.186
27755W        W98355  30.160  26.564   4.465
27756W        W98356   2.240  22.222  13.036
27757W        W98357  35.829  17.160  14.877
27758W        W98358  10.377  24.639   5.101
27759W        W98359  10.783  13.116   1.607
27760W        W98360  39.095  13.839   0.827
27761W        W98361  17.259  10.833   2.866
27762W        W98362  18.312  12.783   2.260
27763W        W98363  13.131   2.102  11.178
27764W        W98364  44.390  21.317  10.440
27765W        W98365   3.118  32.096   9.848
27766W        W98366  33.810  42.508  10.065
27767W        W98367  13.382  17.862  14.734
27768W        W98368  22.769  37.758  14.307
27769W        W98369  44.817  44.789   4.942
27770W        W98370   5.853  18.251   0.004
27771W        W98371  17.922  23.833   0.133
27772W        W98372  38.699  31.041   3.685
27773W        W98373  30.103  22.092  12.824
27774W        W98374  37.087  22.966  14.875
27775W        W98375  35.348   9.348  13.372
27776W        W98376  44.692  26.168  13.657
27777W        W98377  41.206  36.442   4.242
27778W        W98378  37.824  33.605  11.196
27779W        W98379  23.146  12.788  13.848
27780W        W98380  11.550  17.957   4.285
27781W        W98381  29.007  25.141  14.875
27782W        W98382  36.053  13.621   2.902
27783W        W98383   9.394  10.021   3.286
27784W        W98384  15.298  38.098   3.673
27785W        W98385  29.234   5.933  13.449
27786W        W98386  42.294  11.834   4.619
27787W        W98387  24.977  27.407  14.478
27788W        W98388  34.467  39.258  10.738
27789W        W98389  25.696  15.241   3.681
27790W        W98390   3.882   3.305  11.800
27791W        W98391  12.605  27.908   1.412
27792W        W98392  26.044  27.731   2.319
27793W        W98393  35.065   0.775  11.167
27794W        W98394  33.949  28.400  12.950
27795W        W98395  40.989  16.128  10.669
27796W        W98396  37.384   5.611   0.678
27797W        W98397   7.320  42.952   1.160
27798W        W98398  37.568  33.936   1.799
27799W        W98399  38.569  35.625   1.064
27800W        W98400  33.331  28.492   1.198
27801W        W98401  34.231  14.590  11.421
27802W        W98402  38.994  17.587   4.511
27803W        W98403  36.628  36.403  12.108
27804W        W98404  19.948  25.567  12.440
27805W        W98405  16.340  17.789   1.249
27806W        W98406  14.497  16.376  14.940
27807W        W98407  18.932  13.565   2.340
27808W        W98408  36.908  20.212  12.083
27809W        W98409  22.170  12.636  13.869
27810W        W98410  35.082   8.997   3.809
27811W        W98411  19.300  17.676   1.705
27812W        W98412  40.672  40.809   1.410
27813W        W98413  36.462   6.645  11.237
27814W        W98414  22.718  43.965  14.258
27815W        W98415   8.268  16.053  13.750
27816W        W98416  15.119  22.699  12.102
27817W        W98417   7.448  12.012   0.316
27818W        W98418   6.304   6.459  13.597
27819W        W98419  35.607  41.800  14.442
27820W        W98420  22.140  32.031  10.883
27821W        W98421  42.033   1.273  11.168
27822W        W98422  30.764   5.743   1.320
27823W        W98423  13.842  44.495   3.310
27824W        W98424  26.544   8.610  13.830
27825W        W98425  17.004  23.557  10.269
27826W        W98426  14.640  19.643   3.677
27827W        W98427  11.688  38.000   1.904
27828W        W98428  14.845  11.166  11.042
27829W        W98429  28.926  19.029   2.843
27830W        W98430  27.441   9.352  14.381
27831W        W98431   6.096  25.973   3.538
27832W        W98432  37.380  35.765  14.506
27833W        W98433  13.290  28.388   2.465
27834W        W98434  26.224  19.067   0.892
27835W        W98435  43.535  21.044   1.877
27836W        W98436   2.139  43.163  11.830
27837W        W98437   4.752   0.862  13.196
27838W        W98438  36.092   2.184   4.758
27839W        W98439   2.288  30.846   4.534
27840W        W98440  42.680  43.913   4.437
27841W        W98441  39.385  42.225   0.025
27842W        W98442  40.788  43.434   2.476
27843W        W98443  17.758   9.682  11.836
27844W        W98444   6.165  32.959   1.337
27845W        W98445  33.340  35.834  11.188
27846W        W98446  39.947  14.880  11.954
27847W        W98447  39.533  16.839  13.294
27848W        W98448  25.391  13.088   4.245
27849W        W98449  36.136  21.045   0.402
27850W        W98450  15.786  42.540  14.004
27851W        W98451   2.296  24.182  11.737
27852W        W98452  38.136  21.569   0.323
27853W        W98453  40.387  23.576   1.285
27854W        W98454  17.739  12.310   4.662
27855W        W98455  33.923  44.261  11.579
27856W        W98456  40.299  10.368  14.895
27857W        W98457  42.278  37.298   2.236
27858W        W98458   0.015  28.345   0.489
27859W        W98459  16.252  41.015   1.812
27860W        W98460   8.208   6.904   0.971
27861W        W98461  26.171   9.242   3.941
27862W        W98462  43.448  17.089  14.607
27863W        W98463  26.503  14.137  11.971
27864W        W98464  32.093  40.271   2.671
27865W        W98465  27.611   5.782  12.588
27866W        W98466  28.569  12.403   3.412
27867W        W98467  15.595   6.996   0.877
27868W        W98468  32.127  18.541   0.709
27869W        W98469  16.736  41.081  10.517
27870W        W98470  20.571  26.013  10.423
27871W        W98471  28.600  43.212  13.913
27872W        W98472  17.156  31.542   9.797
27873W        W98473  21.945  11.064  11.597
27874W        W98474  39.519  28.921   4.469
27875W        W98475  23.126   0.060  14.929
27876W        W98476  17.269  19.456   4.948
27877W        W98477  40.756  26.612  11.181
27878W        W98478  41.574  27.435   0.477
27879W        W98479   4.118  41.002   3.960
27880W        W98480  33.997  10.997   1.380
27881W        W98481  29.472  31.688   0.275
27882W        W98482   4.957  35.071  10.680
27883W        W98483  21.962  16.274  10.718
27884W        W98484  21.135  14.362   0.409
27885W        W98485  17.516  14.576   3.092
27886W        W98486  34.400  21.314  13.698
27887W        W98487  24.674  36.013   4.899
27888W        W98488   5.710  24.788   3.488
27889W        W98489  40.562  42.717  13.048
27890W        W98490  37.055   9.917  11.131
27891W        W98491  18.330  25.751   0.353
27892W        W98492  16.801  21.000  12.833
27893W        W98493  32.141  41.453  13.888
27894W        W98494  43.238  13.258  14.466
27895W        W98495  26.211  29.690   1.020
27896W        W98496  20.745  30.519   0.387
27897W        W98497  14.598  11.804   3.991
27898W        W98498  12.195  43.475   3.089
27899W        W98499  35.946  34.430  14.111
27900W        W98500   5.077  10.280  12.010
27901W        W98501  35.505  38.518  12.308
27902W        W98502  20.709  29.696  10.659
27903W        W98503  43.786  35.093   2.074
27904W        W98504  34.859   5.929   4.173
27905W        W98505  44.500   7.569  13.925
27906W        W98506  37.551  12.209   3.907
27907W        W98507   5.933  22.522   1.463
27908W        W98508  30.346  21.018   3.365
27909W        W98509  20.199  28.059  11.538
27910W        W98510  10.131   5.708   4.666
27911W        W98511  10.919  17.721  10.705
27912W        W98512  33.097  12.228   4.096
27913W        W98513   5.828   6.022  12.587
27914W        W98514   2.338  32.985   0.301
27915W        W98515  31.838  31.120   4.239
27916W        W98516  18.051  37.978  13.252
27917W        W98517   1.707  18.650   5.055
27918W        W98518  14.265   6.405   1.525
27919W        W98519  42.940   6.775   2.601
27920W        W98520   0.900  37.322   3.998
27921W        W98521  10.681  32.586   2.132
27922W        W98522  38.990  12.414  14.352
27923W        W98523  42.425  24.959  13.987
27924W        W98524  37.251  38.972  14.327
27925W        W98525  26.239  34.384  12.635
27926W        W98526   0.971  15.307   1.326
27927W        W98527  28.479  38.542   4.129
27928W        W98528  19.637   4.904  14.833
27929W        W98529  23.185   9.138   9.664
27930W        W98530  42.269   6.699  12.511
27931W        W98531  27.176  25.978   1.543
27932W        W98532  10.857  28.624  12.042
27933W        W98533  26.526   7.425  11.809
27934W        W98534  19.038  29.383   4.106
27935W        W98535  14.861   6.852  12.619
27936W        W98536  26.615   7.247   2.733
27937W        W98537  41.611   5.640   0.006
27938W        W98538  14.510  28.432  14.488
27939W        W98539   0.259   5.070  14.378
27940W        W98540  15.100   7.574   1.461
27941W        W98541  35.398  27.267   1.257
27942W        W98542  24.665  35.959   2.366
27943W        W98543  11.051  35.022   1.366
27944W        W98544  39.845  18.562   0.372
27945W        W98545   4.188  41.091  12.892
27946W        W98546  35.612  20.947   0.356
27947W        W98547  25.421  20.809   1.854
27948W        W98548   2.450   2.204  11.608
27949W        W98549  35.399  35.949  12.401
27950W        W98550  22.737  22.167  10.524
27951W        W98551   0.421  28.022  13.988
27952W        W98552  28.426  24.497  14.361
27953W        W98553   1.542  27.526  12.954
27954W        W98554   4.922  37.515   2.786
27955W        W98555   5.659   9.278   2.830
27956W        W98556  39.040  30.176   1.277
27957W        W98557  16.040  23.224  11.608
27958W        W98558  43.403   1.982  10.531
27959W        W98559   6.852  24.003   1.709
27960W        W98560   7.334  42.830   2.166
27961W        W98561  22.660  36.930  14.938
27962W        W98562   7.897  20.891   4.558
27963W        W98563  25.593  36.531  11.586
27964W        W98564  10.854   4.836   3.095
27965W        W98565   3.965  41.766   2.049
27966W        W98566   3.872  37.715   0.293
27967W        W98567  19.224  21.162  13.054
27968W        W98568  29.116  10.470   2.282
27969W        W98569  37.192  16.177   2.881
27970W        W98570  12.280  24.567   1.014
27971W        W98571  13.865  37.583  11.607
27972W        W98572  23.053  44.250   3.227
27973W        W98573  44.851  29.434   0.482
27974W        W98574  40.821  40.304   4.710
27975W        W98575  39.898  43.803   2.140
27976W        W98576  40.287  20.696  12.886
27977W        W98577  12.519   4.752  13.835
27978W        W98578  39.846   3.793   3.416
27979W        W98579  44.258   6.145   2.685
27980W        W98580  27.234  15.924   3.352
27981W        W98581  39.501  39.945  13.577
27982W        W98582  38.341  39.227   2.689
27983W        W98583  38.818  15.511   3.668
27984W        W98584  37.256   2.173  10.851
27985W        W98585  34.370  32.709   0.238
27986W        W98586   0.362   0.451   1.866
27987W        W98587  10.671  36.227  12.378
27988W        W98588  37.187  27.942   2.278
27989W        W98589  39.844  26.221   0.637
27990W        W98590  22.433  25.688  13.740
27991W        W98591  30.119   8.185   2.302
27992W        W98592  28.196  13.283   1.042
27993W        W98593  11.945  35.527  12.296
27994W        W98594  28.888  27.439  14.746
27995W        W98595   3.038  21.543  14.940
27996W        W98596   2.205  10.321   4.494
27997W        W98597  43.239  34.087   3.621
27998W        W98598  31.431  38.421   4.598
27999W        W98599   4.525   8.225  12.717
28000W        W98600  41.546   2.478   3.580
28001W        W98601  28.982  10.314   4.381
28002W        W98602   1.747  15.201  12.484
28003W        W98603  44.059  13.395  14.151
28004W        W98604  21.304  38.592  11.941
28005W        W98605   4.393  18.546  10.458
28006W        W98606   1.973   3.142  12.981
28007W        W98607  37.001  25.662  12.500
28008W        W98608  29.906  18.125   0.565
28009W        W98609  44.235  12.179  12.387
28010W        W98610   7.437   2.685  11.077
28011W        W98611  28.938   0.835   1.435
28012W        W98612  40.483  13.850   2.247
28013W        W98613  29.154  30.539   4.079
28014W        W98614  26.019  44.901  14.935
28015W        W98615  43.199  19.830   3.178
28016W        W98616  12.986   7.980   1.934
28017W        W98617   8.824   3.841  11.073
28018W        W98618  22.415  18.785  11.126
28019W        W98619  10.061  11.442   2.644
28020W        W98620  19.648  28.227   1.404
28021W        W98621  15.077  25.495  11.645
28022W        W98622  14.597  22.955   3.207
28023W        W98623  24.562  12.379   4.545
28024W        W98624  40.810  18.133   0.459
28025W        W98625   6.252  34.026   0.163
28026W        W98626  27.487  44.449  11.129
28027W        W98627   3.873  38.486  14.837
28028W        W98628   1.302   1.439  14.513
28029W        W98629  20.314  16.134   0.400
28030W        W98630   1.545  25.245   4.330
28031W        W98631  10.608   9.872  13.448
28032W        W98632  40.808   4.214   3.075
28033W        W98633  19.059  10.606  10.654
28034W        W98634  16.304  36.829  12.998
28035W        W98635  35.965  32.803   2.657
28036W        W98636  31.288  18.849  12.521
28037W        W98637  41.631  23.496  10.528
28038W        W98638  30.684  31.942   3.219
28039W        W98639  31.373   3.313  12.873
28040W        W98640   3.908   3.809  11.726
28041W        W98641   5.382  25.071   4.748
28042W        W98642  35.367  22.845   0.384
28043W        W98643  18.149  32.610   4.626
28044W        W98644   9.118   0.041  11.015
28045W        W98645  37.941  43.328   1.759
28046W        W98646  19.568  24.535   0.418
28047W        W98647  43.871   0.918   2.765
28048W        W98648  42.033  29.179  12.367
28049W        W98649  42.394   7.265   1.000
28050W        W98650  25.534  32.645   0.246
28051W        W98651  26.916   2.955  12.181
28052W        W98652  13.692  23.518  12.987
28053W        W98653  24.518   3.530  11.340
28054W        W98654   2.481  21.968  14.226
28055W        W98655  44.512  35.615  13.490
28056W        W98656   7.754   2.455   0.725
28057W        W98657  43.288  40.394   0.040
28058W        W98658  43.010  34.508  14.506
28059W        W98659  30.635  11.448  13.982
28060W        W98660  40.966  12.032  11.706
28061W        W98661  31.849  31.926  11.333
28062W        W98662   8.525   9.893   0.306
28063W        W98663  36.529  20.104   4.704
28064W        W98664   3.750  16.533   2.672
28065W        W98665   4.870  24.975   1.275
28066W        W98666  26.278   5.019  13.576
28067W        W98667  39.486  38.656   0.449
28068W        W98668   6.351  37.258  14.272
28069W        W98669  11.658   0.911   0.536
28070W        W98670  38.802  31.948   0.239
28071W        W98671  17.244   0.390   2.124
28072W        W98672  35.436  15.342   3.228
28073W        W98673  41.238  32.779  10.735
28074W        W98674  17.260  30.386  13.231
28075W        W98675  39.096  17.496   3.608
28076W        W98676  32.533  36.006   4.188
28077W        W98677  29.122  25.689   4.254
28078W        W98678  21.120   3.045   4.860
28079W        W98679  24.708  22.909  11.204
28080W        W98680  13.166   3.896   1.862
28081W        W98681  44.055  39.051   9.922
28082W        W98682  43.280  33.043   0.338
28083W        W98683  20.190  38.157   0.885
28084W        W98684  13.069  14.016   2.517
28085W        W98685  38.429  43.242  12.559
28086W        W98686   0.112  42.680   5.065
28087W        W98687  31.886  11.625   3.695
28088W        W98688  22.553  28.038  11.613
28089W        W98689   9.899  26.210  14.924
28090W        W98690  44.251  32.121   3.278
28091W        W98691  28.698   5.782   4.231
28092W        W98692  40.470   1.918  11.513
28093W        W98693  41.865   5.357  14.363
28094W        W98694  22.432   0.075   2.605
28095W        W98695  20.575  27.132  13.761
28096W        W98696  27.926  17.245  12.815
28097W        W98697   3.470   2.846  14.947
28098W        W98698  41.264  40.043  14.278
28099W        W98699  13.011  40.998   3.214
28100W        W98700  23.795  19.171   3.699
28101W        W98701  23.398   5.054  12.453
28102W        W98702   4.630  21.176  11.995
28103W        W98703  23.941  31.136   2.627
28104W        W98704  20.616  12.850   3.830
28105W        W98705  29.239  28.987  13.627
28106W        W98706  40.783   6.761  13.396
28107W        W98707  33.077  31.176  13.405
28108W        W98708  26.365  13.855   1.212
28109W        W98709   6.367  27.540  11.447
28110W        W98710  38.598  35.546  12.391
28111W        W98711   4.168  20.947  12.032
28112W        W98712  15.935   1.767   3.580
28113W        W98713  40.066  40.894   4.488
28114W        W98714  27.761   5.127   4.701
28115W        W98715  36.799   3.603  12.749
28116W        W98716  17.628  19.064   1.629
28117W        W98717  34.524  14.099  10.561
28118W        W98718  40.362   8.658   1.882
28119W        W98719  23.605  42.290   4.280
28120W        W98720  13.914  14.118  14.854
28121W        W98721   1.673  35.328   4.083
28122W        W98722  21.807  28.608   3.792
28123W        W98723   9.564  22.461   3.025
28124W        W98724  29.522  43.230   2.566
28125W        W98725  11.711  25.662   0.389
28126W        W98726   3.521  22.724   3.314
28127W        W98727  43.378   7.065  11.655
28128W        W98728  14.709  21.703   2.650
28129W        W98729  28.177  37.335   3.861
28130W        W98730  24.282  21.604  14.074
28131W        W98731  17.238  37.627  13.010
28132W        W98732   5.635  12.135  11.609
28133W        W98733  26.073  35.317   1.855
28134W        W98734  12.482  39.989  12.174
28135W        W98735  43.980  12.404   0.770
28136W        W98736  11.666  40.825   1.397
28137W        W98737  18.753  35.574   2.687
28138W        W98738  13.889   7.955   3.970
28139W        W98739  24.801  43.629   2.370
28140W        W98740   8.541  20.135   1.214
28141W        W98741  14.298   3.851   4.332
28142W        W98742  35.753  38.342   3.940
28143W        W98743  35.093  24.624  11.974
28144W        W98744  26.224  14.102   2.204
28145W        W98745  43.649   3.705   2.148
28146W        W98746   9.235  10.357   4.983
28147W        W98747  42.542  11.000  10.389
28148W        W98748   1.329  26.960  12.047
28149W        W98749  24.245  38.142  13.025
28150W        W98750  24.762  36.437   2.620
28151W        W98751   7.330  11.982   1.117
28152W        W98752  34.929  29.613   3.910
28153W        W98753   5.347  32.541   1.049
28154W        W98754  24.113  43.229  12.181
28155W        W98755  23.270  39.943  11.075
28156W        W98756  36.768  31.608  14.510
28157W        W98757  18.352   9.339   3.154
28158W        W98758  31.294   6.249  10.367
28159W        W98759  11.934  13.824   4.599
28160W        W98760  28.665  23.909   3.716
28161W        W98761  21.020   7.370   0.805
28162W        W98762   2.947  34.096  14.566
28163W        W98763  12.441   5.717  12.304
28164W        W98764  38.076  27.643  14.862
28165W        W98765  26.381  43.058  13.520
28166W        W98766  18.501  10.583  12.841
28167W        W98767  14.063  31.004   0.743
28168W        W98768  33.346   5.230   1.378
28169W        W98769   2.356  30.704   1.330
28170W        W98770  22.017  10.657  12.640
28171W        W98771  32.366  24.447  10.720
28172W        W98772  14.788  10.091  10.502
28173W        W98773  24.571  16.706   2.413
28174W        W98774  16.817   2.684   1.962
28175W        W98775  18.273  36.986  12.911
28176W        W98776  19.006  10.128   2.245
28177W        W98777  30.603   3.174  14.774
28178W        W98778  13.788  38.988  14.045
28179W        W98779  40.420   1.768   3.398
28180W        W98780  42.440  20.329   0.974
28181W        W98781  28.730  30.236   4.216
28182W        W98782  21.838  40.342   3.888
28183W        W98783   9.035  15.200  13.370
28184W        W98784   9.979   9.780  11.950
28185W        W98785  17.751   1.735   3.164
28186W        W98786  39.560  30.958   2.481
28187W        W98787   7.943  26.736  13.783
28188W        W98788  29.427  13.081  14.225
28189W        W98789  28.196  27.136  14.912
28190W        W98790   9.835  32.612   4.609
28191W        W98791   8.651   9.563   1.658
28192W        W98792  31.002  20.911  10.901
28193W        W98793  18.689  31.484   4.896
28194W        W98794   2.439  22.642  14.822
28195W        W98795  42.476   9.793  11.616
28196W        W98796  17.153  32.362  14.865
28197W        W98797  41.558  35.913  14.800
28198W        W98798   0.493   9.383   3.799
28199W        W98799  21.180  29.209  10.782
28200W        W98800  30.638  26.605  12.986
28201W        W98801  43.477  37.867  14.158
28202W        W98802  34.736  40.758   0.258
28203W        W98803  36.007  24.639   2.598
28204W        W98804  29.701  38.960  12.434
28205W        W98805   9.420  21.513   3.534
28206W        W98806  10.335  20.147  11.324
28207W        W98807   6.332  17.209  13.558
28208W        W98808  29.821   4.381  11.115
28209W        W98809  12.793  38.491  11.585
28210W        W98810  20.794  21.473   1.388
28211W        W98811  10.837  33.030  13.326
28212W        W98812   5.367  35.379   1.780
28213W        W98813  35.394  32.636  11.128
28214W        W98814  41.358  17.746   1.780
28215W        W98815  21.466  34.521  14.917
28216W        W98816  13.373  18.161   0.974
28217W        W98817   9.447  37.953   2.765
28218W        W98818  16.324  22.251  10.919
28219W        W98819  34.026  29.565   2.874
28220W        W98820  15.827  15.710  13.300
28221W        W98821   1.470  31.060   0.915
28222W        W98822   3.891  29.755   2.650
28223W        W98823  38.498   2.293  10.634
28224W        W98824  26.573  17.656   1.322
28225W        W98825  12.079  33.350  14.257
28226W        W98826  32.940  25.058   1.405
28227W        W98827  44.472  30.211   3.190
28228W        W98828   4.396  11.948  14.272
28229W        W98829  38.860  38.903   4.677
28230W        W98830  36.491  25.561  13.513
28231W        W98831  44.230  44.835  11.938
28232W        W98832   9.813  35.169   4.366
28233W        W98833  34.971   7.948  10.949
28234W        W98834   6.940  27.015   2.869
28235W        W98835  35.623  33.040   0.298
28236W        W98836  43.327  32.934  12.415
28237W        W98837  36.021  34.101  12.773
28238W        W98838   2.705  22.947   3.376
28239W        W98839  42.296  16.103  13.506
28240W        W98840   8.143  12.907  10.765
28241W        W98841  33.193   3.114  14.273
28242W        W98842  21.075   3.879   0.958
28243W        W98843  32.842  37.971   1.913
28244W        W98844  13.207  19.886   1.753
28245W        W98845  36.615  24.265   2.914
28246W        W98846  39.616   1.024   0.424
28247W        W98847   8.794  30.082  14.381
28248W        W98848  37.918  37.845  14.105
28249W        W98849  10.836  20.082  13.275
28250W        W98850  27.184  40.851  14.886
28251W        W98851  41.405  12.362  10.802
28252W        W98852  42.032   0.701  14.227
28253W        W98853  43.848  19.561   2.789
28254W        W98854  18.248   1.366  13.552
28255W        W98855  30.344  19.197  12.898
28256W        W98856  27.808  23.755   1.168
28257W        W98857  30.391   0.720  14.838
28258W        W98858   2.918   9.201  10.979
28259W        W98859  44.358  10.952   0.917
28260W        W98860  17.185  37.015   3.694
28261W        W98861   7.254  28.991  11.248
28262W        W98862   6.660   3.037   0.896
28263W        W98863   7.869  29.998   2.154
28264W        W98864  42.403  40.316  13.965
28265W        W98865  31.398   8.458   4.527
28266W        W98866  13.746  38.525  10.671
28267W        W98867  12.802  25.905   1.504
28268W        W98868  27.215   2.218   0.964
28269W        W98869  10.943   6.964  14.945
28270W        W98870  38.454  36.587  11.346
28271W        W98871  33.650  39.915   3.895
28272W        W98872  38.744  19.372  12.987
28273W        W98873  35.367   8.437   1.850
28274W        W98874  39.851   9.668  12.938
28275W        W98875  43.468   5.618   3.029
28276W        W98876  43.022  38.802   1.112
28277W        W98877  20.014  36.904  13.335
28278W        W98878   2.714  38.775   1.669
28279W        W98879  18.006   2.308  11.329
28280W        W98880   3.778  28.896  10.913
28281W        W98881  27.627  19.528   2.639
28282W        W98882  21.206  34.289   3.253
28283W        W98883   8.425  17.689   1.020
28284W        W98884  38.596  41.694   0.963
28285W        W98885   7.409  28.601  12.368
28286W        W98886  12.137   6.778   2.649
28287W        W98887  11.829  14.201   1.580
28288W        W98888  36.521  18.687   3.631
28289W        W98889  40.858  22.201  10.766
28290W        W98890  33.483   4.333  11.228
28291W        W98891  27.690   4.011   1.298
28292W        W98892  13.382  21.032   1.130
28293W        W98893  20.233  33.950   1.713
28294W        W98894  13.846  32.739  11.025
28295W        W98895  12.398  32.876  14.550
28296W        W98896  23.144  26.622   0.803
28297W        W98897  18.330  32.470  12.335
28298W        W98898  40.447  36.201   0.737
28299W        W98899   6.793   5.401   0.182
28300W        W98900  11.598  28.628   0.939
28301W        W98901  18.203  11.689   3.123
28302W        W98902   1.230   3.429   0.308
28303W        W98903  14.563  32.090   4.209
28304W        W98904  12.813  44.569  12.350
28305W        W98905  34.170  17.075   4.630
28306W        W98906   5.269  13.701   1.800
28307W        W98907  15.911  42.779   2.519
28308W        W98908  14.207  42.955  10.278
28309W        W98909  35.801  30.643   3.161
28310W        W98910  29.511  25.858   3.041
28311W        W98911  34.002  37.548   0.770
28312W        W98912  31.950  18.131  13.013
28313W        W98913  11.138  15.243   1.361
28314W        W98914   3.846  30.565  10.224
28315W        W98915  17.134  40.433  11.568
28316W        W98916   3.727  28.812  12.454
28317W        W98917  35.813  14.461  11.563
28318W        W98918  12.733  43.085   3.152
28319W        W98919  44.791   2.221   0.706
28320W        W98920  27.581  35.075  12.951
28321W        W98921  42.061  15.380   4.226
28322W        W98922  17.812  29.117   3.052
28323W        W98923  21.521  43.748   0.879
28324W        W98924   5.177  16.321   3.776
28325W        W98925   3.826   4.659  10.626
28326W        W98926  36.895   8.223   0.306
28327W        W98927  23.295   2.767   4.190
28328W        W98928  39.353   9.208   3.383
28329W        W98929  37.341   7.616  12.199
28330W        W98930   2.780   9.586   1.544
28331W        W98931  14.862   1.356  12.927
28332W        W98932   4.242  19.167  13.755
28333W        W98933  31.309  15.124  11.074
28334W        W98934  36.359  10.618   2.305
28335W        W98935  29.036   2.698  11.582
28336W        W98936  14.957  18.580  14.379
28337W        W98937  39.204   5.290   3.329
28338W        W98938  21.702  17.114  13.556
28339W        W98939  40.711   3.001  10.727
28340W        W98940  27.979  29.694   4.222
28341W        W98941  25.713  42.757   0.316
28342W        W98942  30.139  15.303   3.181
28343W        W98943  17.227  24.759  10.801
28344W        W98944  30.581  16.541   1.296
28345W        W98945   8.273  29.931  14.464
28346W        W98946  16.171  37.054  11.653
28347W        W98947  30.698  14.146  13.547
28348W        W98948   1.308   0.896   4.255
28349W        W98949  14.238   5.648  10.960
28350W        W98950  34.057  31.326  11.424
28351W        W98951  39.955  14.317   3.910
28352W        W98952   0.950   1.554   0.370
28353W        W98953  43.339  44.921   4.561
28354W        W98954  36.955  41.785  13.100
28355W        W98955  43.766  42.958   9.989
28356W        W98956   1.975  29.061   4.061
28357W        W98957  14.215  27.856   3.984
28358W        W98958  31.152  24.107  14.454
28359W        W98959  42.781  32.145   1.757
28360W        W98960  40.949  20.955   2.131
28361W        W98961  32.870  33.967  13.977
28362W        W98962  10.300  15.778  14.500
28363W        W98963  29.433  32.423  14.583
28364W        W98964  32.925  38.078  14.590
28365W        W98965   7.147  36.240  11.091
28366W        W98966  38.948  43.757   0.741
28367W        W98967   9.703  14.286  12.193
28368W        W98968  34.638   1.888   4.905
28369W        W98969  23.524  41.901   1.408
28370W        W98970  40.019  16.687   2.788
28371W        W98971   9.209   4.251  14.985
28372W        W98972  29.006  41.038   3.483
28373W        W98973  26.512   0.449   4.480
28374W        W98974   6.006  43.210  10.753
28375W        W98975  30.998  14.513   2.359
28376W        W98976   4.901  37.026  10.726
28377W        W98977  23.914  33.871   1.769
28378W        W98978  29.729   0.193  14.821
28379W        W98979  39.259  36.959   0.991
28380W        W98980  15.166  28.354  11.166
28381W        W98981   6.720  25.612   2.569
28382W        W98982   1.251  22.071  10.766
28383W        W98983  40.264   8.717  13.332
28384W        W98984  43.847  39.093   4.353
28385W        W98985  33.356  37.024   4.595
28386W        W98986  16.310  42.516  13.979
28387W        W98987  11.537  21.073  13.554
28388W        W98988  27.340  15.244   2.649
28389W        W98989  20.695  31.056   2.933
28390W        W98990  17.467   7.647  14.310
28391W        W98991  20.644   8.882   2.681
28392W        W98992  42.028   3.199   0.904
28393W        W98993  34.990  41.483  14.772
28394W        W98994  12.507   3.287  14.308
28395W        W98995  30.537  26.151   1.832
28396W        W98996  30.117  32.115   2.191
28397W        W98997  32.117  24.132  13.489
28398W        W98998  11.121  39.555   0.487
28399W        W98999  13.108  30.098  14.300
28400W        W99000  20.950   5.813   5.244
28401W        W99001  27.070  27.000  11.932
28402W        W99002  14.606  35.338  10.725
28403W        W99003   9.156  29.048  11.719
28404W        W99004  27.836  39.478   3.638
28405W        W99005  33.593  23.992  13.840
28406W        W99006  15.070  21.659  14.843
28407W        W99007  21.234  22.717  10.651
28408W        W99008  30.408  34.596  12.068
28409W        W99009  29.986  12.587   0.765
28410W        W99010  40.383  32.036   4.667
28411W        W99011  33.154   6.960   2.325
28412W        W99012  26.076  22.038   1.430
28413W        W99013  42.527  22.389   0.736
28414W        W99014  12.598  40.865  10.999
28415W        W99015  44.960  12.390   2.730
28416W        W99016  19.009  29.868  11.555
28417W        W99017  30.093  39.389  14.946
28418W        W99018  41.303  28.999  14.023
28419W        W99019   5.687  40.322  12.064
28420W        W99020  21.283  43.806   2.725
28421W        W99021  16.815   6.417  11.716
28422W        W99022  44.489  31.158   3.199
28423W        W99023  12.779  44.821   0.531
28424W        W99024  21.736  11.326   4.336
28425W        W99025  27.003  26.469  14.722
28426W        W99026  26.892  21.023   2.734
28427W        W99027  34.343  35.749  11.928
28428W        W99028  27.535   3.204   2.195
28429W        W99029  28.864  14.617   3.370
28430W        W99030  16.542  24.030  12.511
28431W        W99031  37.184  17.601  13.954
28432W        W99032   5.338  32.021   4.551
28433W        W99033   6.630  34.074  14.388
28434W        W99034   3.454  22.274   0.966
28435W        W99035  17.046  13.148   0.007
28436W        W99036  37.878   4.411   0.538
28437W        W99037  12.585  41.578  11.532
28438W        W99038  24.701  24.025   3.371
28439W        W99039  42.160  19.469  12.613
28440W        W99040  14.788  17.912   0.557
28441W        W99041   0.030   2.137   4.749
28442W        W99042  34.060  20.205  12.194
28443W        W99043  27.644  14.816   0.415
28444W        W99044  13.202  31.700  13.360
28445W        W99045   9.766  43.740  11.215
28446W        W99046  38.996  25.374   1.180
28447W        W99047  22.390   4.415  12.832
28448W        W99048  28.477  35.367  10.697
28449W        W99049  38.445   2.803  13.300
28450W        W99050   0.258   2.271   0.472
28451W        W99051  36.872  16.019   0.364
28452W        W99052  19.241  19.677   4.978
28453W        W99053  33.371  44.936  14.927
28454W        W99054  22.333  42.960  11.645
28455W        W99055  28.407  37.165   3.233
28456W        W99056   9.131  28.233  10.362
28457W        W99057  29.973  29.435  11.741
28458W        W99058   9.407  18.985   4.824
28459W        W99059  35.315   0.974   4.853
28460W        W99060  20.262  32.526   2.808
28461W        W99061  32.638  37.941   3.590
28462W        W99062  16.337  28.978   3.601
28463W        W99063  14.354   8.439   4.709
28464W        W99064   2.317   7.209  14.361
28465W        W99065  26.297   5.732   0.779
28466W        W99066   8.254  34.439   2.689
28467W        W99067  41.890  36.070   2.933
28468W        W99068  41.782  38.385  11.035
28469W        W99069  33.327  21.829   4.682
28470W        W99070  43.335  19.313   3.141
28471W        W99071   7.413  31.935  13.320
28472W        W99072  13.298  26.331  13.528
28473W        W99073  11.848   4.126   0.022
28474W        W99074   7.131  42.442  14.827
28475W        W99075  21.655  20.518  13.074
28476W        W99076  18.406  21.109   1.285
28477W        W99077  25.024   8.192   1.373
28478W        W99078   3.286  17.667   4.148
28479W        W99079  26.243  15.149   1.939
28480W        W99080  18.946  44.888  13.332
28481W        W99081  33.314  10.250   3.940
28482W        W99082   7.689  37.854   4.036
28483W        W99083  33.383   1.542   1.941
28484W        W99084  10.929   6.222  10.654
28485W        W99085  27.111  27.843   2.705
28486W        W99086  35.486  37.072  13.369
28487W        W99087  36.687   1.721  12.893
28488W        W99088   1.702   9.206  12.440
28489W        W99089  27.664  30.541  14.531
28490W        W99090  37.425   3.404   3.154
28491W        W99091  21.234  43.451  11.969
28492W        W99092  43.843   7.760   2.730
28493W        W99093  26.209  34.185  11.472
28494W        W99094  33.599  21.754  13.183
28495W        W99095  21.034  22.198   0.338
28496W        W99096  17.732  23.359   0.168
28497W        W99097  24.504  31.417  14.997
28498W        W99098  23.849  33.093  11.933
28499W        W99099  18.021  32.499   1.204
28500W        W99100  29.982  13.040  11.694
28501W        W99101   2.278  30.157  11.649
28502W        W99102  38.441  30.987   4.175
28503W        W99103   0.677  25.094   1.941
28504W        W99104  14.706  34.053  13.792
28505W        W99105  17.254  38.754   0.538
28506W        W99106  30.134  12.143   1.003
28507W        W99107  19.719   3.403  12.098
28508W        W99108   2.765  16.043   0.437
28509W        W99109  23.827  43.678   2.893
28510W        W99110   9.128  22.930  14.603
28511W        W99111  15.178  31.071   4.373
28512W        W99112   3.832  25.426  13.605
28513W        W99113  28.875   9.857  11.985
28514W        W99114   9.336  33.753  14.888
28515W        W99115  27.937  23.065  10.322
28516W        W99116   7.930   3.996  13.102
28517W        W99117  24.182  21.194  14.375
28518W        W99118  10.564   4.840  11.051
28519W        W99119  22.718  29.915  12.121
28520W        W99120  19.327  12.201   2.904
28521W        W99121  17.302   3.758   0.389
28522W        W99122  34.502  18.540  13.919
28523W        W99123   7.723  38.278  13.971
28524W        W99124  42.516   6.332   4.672
28525W        W99125   1.817   8.992  11.134
28526W        W99126  36.631  25.517   3.230
28527W        W99127  11.473  31.473  13.963
28528W        W99128   8.766   5.335  13.954
28529W        W99129  16.760  13.635   0.302
28530W        W99130  40.586  27.591   0.205
28531W        W99131  26.082  11.811   3.806
28532W        W99132   7.940   7.394  10.753
28533W        W99133  42.846  32.886  12.131
28534W        W99134  43.803  26.461   1.471
28535W        W99135  39.244   2.291   1.492
28536W        W99136  11.365  31.868   1.288
28537W        W99137  36.454   5.701  11.539
28538W        W99138  21.533  42.711  12.630
28539W        W99139  14.824  10.073   1.833
28540W        W99140  40.610  12.143  12.852
28541W        W99141  43.808   8.888   1.300
28542W        W99142   6.721  41.323  13.446
28543W        W99143   5.137  20.225   4.407
28544W        W99144  22.201   5.963   0.324
28545W        W99145  35.706  23.341   1.264
28546W        W99146  19.042  18.417   1.371
28547W        W99147  33.984  22.763   0.917
28548W        W99148   1.564  28.732   2.421
28549W        W99149  27.083   6.264   3.424
28550W        W99150  25.090   5.925  11.592
28551W        W99151  38.806   8.976   2.660
28552W        W99152  33.140  28.070   1.438
28553W        W99153  11.821  36.136  10.792
28554W        W99154  44.004  19.670  14.096
28555W        W99155  18.530   0.987   3.897
28556W        W99156  34.557   8.229   3.648
28557W        W99157  12.329  34.463   1.211
28558W        W99158   9.665  23.148   2.306
28559W        W99159  28.182  12.516  10.247
28560W        W99160   0.977  35.908   3.232
28561W        W99161  23.100  13.634   3.178
28562W        W99162  23.640  29.978  13.773
28563W        W99163  44.860  38.782  13.125
28564W        W99164   3.713   8.258   2.268
28565W        W99165  32.374  27.028  11.222
28566W        W99166  12.194  27.069  14.758
28567W        W99167  38.997  27.185   4.215
28568W        W99168  39.656  41.927   0.801
28569W        W99169   1.957  39.066   1.298
28570W        W99170  22.362   9.749   2.328
28571W        W99171  18.269  32.020   1.273
28572W        W99172  41.757  16.555   3.841
28573W        W99173  23.051  16.630  10.757
28574W        W99174  42.986  26.047   4.774
28575W        W99175  15.271  12.542   9.877
28576W        W99176   7.896   8.160  13.034
28577W        W99177  34.862  25.204   1.290
28578W        W99178  42.779  34.161   2.168
28579W        W99179  32.358  24.450  14.999
28580W        W99180   9.790  27.340   3.146
28581W        W99181  25.101  22.055  13.835
28582W        W99182  33.362  30.183  10.686
28583W        W99183  42.678   8.935  14.753
28584W        W99184  18.329   1.677   4.342
28585W        W99185  34.369  36.284   3.294
28586W        W99186  22.657  17.269  14.785
28587W        W99187   4.444  29.966   1.793
28588W        W99188  25.190  10.578   0.303
28589W        W99189  11.842  23.110   1.794
28590W        W99190   6.388  25.142  12.938
28591W        W99191  12.519  33.775   0.680
28592W        W99192  24.656   6.012   3.672
28593W        W99193  15.509  40.296  12.271
28594W        W99194  26.511  20.295   4.107
28595W        W99195  13.966  13.286   3.975
28596W        W99196  18.721  12.897  13.489
28597W        W99197  27.236  44.495   2.981
28598W        W99198  13.701   7.629   0.395
28599W        W99199  19.026   3.155  12.410
28600W        W99200   2.977  12.393  11.012
28601W        W99201  13.501  42.986   1.418
28602W        W99202  21.610  12.802   0.800
28603W        W99203  43.339  22.152  10.454
28604W        W99204  17.822  37.636  10.192
28605W        W99205  40.116  14.158   2.665
28606W        W99206  15.662  17.108   4.136
28607W        W99207   7.697  42.731  13.918
28608W        W99208  28.999  23.478  12.995
28609W        W99209  41.314  39.367  12.498
28610W        W99210   2.538  28.441  11.141
28611W        W99211  32.302  30.750   3.133
28612W        W99212  30.028  42.850  13.769
28613W        W99213  25.167  12.875   1.528
28614W        W99214  40.971  31.718   1.743
28615W        W99215   4.949   0.440  14.404
28616W        W99216  23.637   0.487   2.696
28617W        W99217  37.050  44.801  14.430
28618W        W99218  34.179  23.387  11.574
28619W        W99219  11.506   9.191  13.355
28620W        W99220   7.134  28.604   4.643
28621W        W99221  38.674  27.851  12.994
28622W        W99222  18.151  12.227  14.895
28623W        W99223   9.617  39.343   2.173
28624W        W99224  35.854  11.218   3.246
28625W        W99225  27.453  34.446   4.510
28626W        W99226  16.143   1.972   4.642
28627W        W99227  13.703   4.521  14.475
28628W        W99228   3.212   8.579   3.338
28629W        W99229   9.685  41.177   2.770
28630W        W99230  17.086  25.122   2.278
28631W        W99231  30.935  18.720  14.808
28632W        W99232   9.386   1.936   4.478
28633W        W99233  40.551  39.059  10.802
28634W        W99234  41.572   3.312   3.647
28635W        W99235   4.333  29.436  13.132
28636W        W99236  13.698  24.048  11.811
28637W        W99237   3.739   8.760   3.656
28638W        W99238   8.247  36.741   0.170
28639W        W99239  36.104  23.078   4.416
28640W        W99240  15.665   9.157  13.741
28641W        W99241   7.339  44.760  12.973
28642W        W99242  42.327  30.067   2.198
28643W        W99243  33.659  27.534   1.916
28644W        W99244  32.586  42.489   0.026
28645W        W99245  43.127  18.955   4.919
28646W        W99246  34.333  30.429   1.259
28647W        W99247   6.944  43.785   4.801
28648W        W99248  19.509  13.152  14.778
28649W        W99249  42.838  34.511   4.542
28650W        W99250   0.366  32.391  12.587
28651W        W99251   4.439  13.734  14.986
28652W        W99252   9.816  34.309   3.371
28653W        W99253  34.510  35.855  14.250
28654W        W99254  12.800  14.392   1.267
28655W        W99255  27.539   4.227   2.516
28656W        W99256  24.858  40.019   2.226
28657W        W99257  27.421  33.540  12.897
28658W        W99258  31.502  27.178   1.729
28659W        W99259  22.087  38.367  11.203
28660W        W99260  35.496   5.748  13.041
28661W        W99261  41.521  17.246   4.540
28662W        W99262  42.481   8.684  14.301
28663W        W99263  43.801   1.340   0.177
28664W        W99264  17.205  18.039   0.399
28665W        W99265  41.930  30.333   2.377
28666W        W99266  11.811  33.464   1.687
28667W        W99267  24.722  36.340  13.490
28668W        W99268  42.460  15.485   1.387
28669W        W99269  10.586  29.584  12.905
28670W        W99270  33.658  32.609   0.792
28671W        W99271  33.349  36.934  12.245
28672W        W99272  41.830  28.053  12.952
28673W        W99273  39.054  27.157   3.383
28674W        W99274  38.968   0.342   4.628
28675W        W99275   3.700  25.003   3.707
28676W        W99276  27.610  42.455  14.384
28677W        W99277  14.570   6.734   2.400
28678W        W99278   2.963  42.429  11.533
28679W        W99279  29.096  14.611  12.371
28680W        W99280  17.289  33.580   3.773
28681W        W99281  16.099  12.651  14.970
28682W        W99282  40.087  26.072  11.505
28683W        W99283  15.645  28.586  11.430
28684W        W99284   6.920  40.408   2.801
28685W        W99285  33.860  34.751  13.905
28686W        W99286  44.367  18.803  12.376
28687W        W99287  27.128   1.068   3.360
28688W        W99288  21.553   9.724  13.458
28689W        W99289  41.535   2.956   0.955
28690W        W99290  10.710   1.979   0.863
28691W        W99291   0.332  26.779  13.590
28692W        W99292   3.202  10.226   3.797
28693W        W99293  10.895  36.511  10.603
28694W        W99294  30.481   0.422   3.899
28695W        W99295  31.422  34.443   2.957
28696W        W99296  14.129  41.001   5.328
28697W        W99297  28.507  42.989  13.426
28698W        W99298  41.972  37.362   0.280
28699W        W99299  29.596  11.032   1.905
28700W        W99300  36.192  28.623  12.992
28701W        W99301  21.544   0.387  11.648
28702W        W99302   6.217   5.119   5.122
28703W        W99303  17.481  10.310  12.964
28704W        W99304  12.215  10.061   3.027
28705W        W99305  34.513  19.286  11.402
28706W        W99306  36.824  22.511  14.927
28707W        W99307  27.857   1.963   9.806
28708W        W99308  12.353  16.672  11.069
28709W        W99309   6.622  21.559  12.134
28710W        W99310  26.021  29.081   3.800
28711W        W99311  20.664  24.538  13.505
28712W        W99312  39.379  38.792  10.278
28713W        W99313  22.264  16.745   4.076
28714W        W99314  13.035  21.158   2.279
28715W        W99315  43.537  33.113  14.880
28716W        W99316  27.956  36.908  11.565
28717W        W99317  12.923  24.525   4.107
28718W        W99318  35.008   4.744  13.748
28719W        W99319  10.779  24.368  12.185
28720W        W99320  21.207  11.112   4.130
28721W        W99321  39.136  18.583  12.946
28722W        W99322  18.040   1.001   1.987
28723W        W99323   5.936  14.185  12.870
28724W        W99324  33.934   6.432   0.468
28725W        W99325  39.093   9.828   4.101
28726W        W99326   0.463   0.683  14.350
28727W        W99327  13.988  26.971   1.368
28728W        W99328  43.373  21.364  14.847
28729W        W99329  23.192   0.435   2.969
28730W        W99330   1.232  17.038  11.045
28731W        W99331   8.891  41.004   4.386
28732W        W99332  15.601  18.303   1.972
28733W        W99333   8.808  36.330   2.338
28734W        W99334  18.195  21.060  13.897
28735W        W99335  11.916  29.013  12.078
28736W        W99336  39.749  33.085   0.519
28737W        W99337  25.431  35.942  12.466
28738W        W99338  17.786  44.393  13.433
28739W        W99339  44.053  23.334  14.401
28740W        W99340  39.326   6.886  14.525
28741W        W99341  24.394  23.034   1.679
28742W        W99342   5.257  33.837   2.692
28743W        W99343   6.948  23.965  12.054
28744W        W99344   4.378  13.785  11.428
28745W        W99345   1.240   7.838   1.340
28746W        W99346   3.860   9.614  13.921
28747W        W99347  13.812  40.051  14.491
28748W        W99348  34.605  44.395  10.570
28749W        W99349  22.021  32.782   1.395
28750W        W99350  15.113  25.906   2.649
28751W        W99351  11.426  12.542  11.213
28752W        W99352  31.041  19.979  11.240
28753W        W99353  13.852   2.241  12.320
28754W        W99354   2.853  34.109   4.018
28755W        W99355  16.489  30.832   1.456
28756W        W99356  32.844  22.747  14.972
28757W        W99357  35.098  27.849   4.770
28758W        W99358  14.801  26.947   0.323
28759W        W99359  12.685  14.543  11.970
28760W        W99360  26.687   1.821  11.153
28761W        W99361  25.644  30.695   2.327
28762W        W99362  17.520  12.835  13.150
28763W        W99363  17.890   8.739   0.449
28764W        W99364  11.652   2.949   3.941
28765W        W99365  39.773  36.306   0.485
28766W        W99366  31.979  33.865  14.074
28767W        W99367  12.730  44.897   1.028
28768W        W99368  20.629  14.288   1.263
28769W        W99369  15.164  31.390   0.867
28770W        W99370  43.322  41.636   3.372
28771W        W99371  40.485  33.269  13.206
28772W        W99372  37.358  14.301  10.713
28773W        W99373   0.044  22.605  13.563
28774W        W99374   2.986   4.741  13.925
28775W        W99375  18.387  20.832   5.353
28776W        W99376   8.016  40.730  12.389
28777W        W99377  33.013  27.987  14.498
28778W        W99378  22.253  30.038  11.961
28779W        W99379  11.219  42.887   2.851
28780W        W99380   1.897  18.892   2.690
28781W        W99381  14.553   9.952   3.095
28782W        W99382  16.089  32.147   0.233
28783W        W99383  21.287  31.402  10.728
28784W        W99384  37.459  30.033  10.828
28785W        W99385  41.978   8.989   4.248
28786W        W99386  27.358   6.690  14.529
28787W        W99387  10.339   6.416   4.629
28788W        W99388  26.706  41.261  13.485
28789W        W99389  30.170   0.345   2.956
28790W        W99390  32.381   0.311  12.759
28791W        W99391  28.947  37.424   4.456
28792W        W99392   9.647   3.369  11.567
28793W        W99393  14.615   9.130  10.683
28794W        W99394   7.358   3.778   1.770
28795W        W99395  14.135  23.889   0.557
28796W        W99396  34.375  28.596  10.967
28797W        W99397   8.367  16.636   1.855
28798W        W99398  34.885   7.215   0.447
28799W        W99399  18.575  22.626   3.996
28800W        W99400  14.609  34.595   0.983
28801W        W99401   2.849   3.164  12.001
28802W        W99402  37.074  44.438  12.005
28803W        W99403  15.446   6.252   5.004
28804W        W99404  17.203  24.907   2.744
28805W        W99405   3.257  22.576   3.734
28806W        W99406  41.530  44.845  14.743
28807W        W99407  44.366  32.038   1.954
28808W        W99408  26.702  21.729   0.344
28809W        W99409  15.937  13.868  14.499
28810W        W99410  41.020  23.835   2.121
28811W        W99411  28.349  11.726   4.099
28812W        W99412  29.684  43.431  12.169
28813W        W99413  39.517  34.407   0.529
28814W        W99414   8.788  28.687  14.040
28815W        W99415  26.195  40.533  13.646
28816W        W99416  15.568  27.514  12.079
28817W        W99417  40.596  31.361   1.700
28818W        W99418  14.277  44.670  14.798
28819W        W99419   4.748  28.539   2.777
28820W        W99420   3.404  21.730  11.412
28821W        W99421  18.815  36.474   0.320
28822W        W99422  21.222   7.605  11.628
28823W        W99423  19.467  16.209  13.547
28824W        W99424  17.994   4.840  10.754
28825W        W99425  44.213  10.148  12.012
28826W        W99426  33.904  27.627   4.074
28827W        W99427  37.629  17.940   3.014
28828W        W99428  20.721  34.662  12.567
28829W        W99429   7.518  26.583  13.397
28830W        W99430  33.972  25.771  14.400
28831W        W99431  19.487  34.465  10.327
28832W        W99432   7.811  19.720   0.350
28833W        W99433  19.427  14.843   0.892
28834W        W99434   1.970  30.420   3.591
28835W        W99435   6.475  33.656   0.448
28836W        W99436   9.408  11.802  14.915
28837W        W99437  13.186  41.307  14.093
28838W        W99438  33.740  30.098  14.891
28839W        W99439   5.868  42.288   4.362
28840W        W99440  13.222  36.399   4.520
28841W        W99441  43.099  29.114  13.376
28842W        W99442  38.951  13.873   2.407
28843W        W99443   9.651  28.020  11.084
28844W        W99444  40.869  11.815   4.506
28845W        W99445   8.670  20.708  11.137
28846W        W99446  19.573  26.034   3.677
28847W        W99447  13.413  22.213   3.089
28848W        W99448  28.773  38.896  13.015
28849W        W99449  10.567  12.215  13.156
28850W        W99450   0.889  20.083  14.421
28851W        W99451  22.547   2.072   1.648
28852W        W99452  11.829  17.717   3.039
28853W        W99453  25.870   6.817   3.238
28854W        W99454  26.408  26.560   3.140
28855W        W99455  17.154   9.593   3.736
28856W        W99456  30.123  23.602   1.169
28857W        W99457  27.099   0.922   1.945
28858W        W99458  27.193  25.654  11.124
28859W        W99459   2.122  17.757  14.357
28860W        W99460  43.736  29.079   2.783
28861W        W99461  32.161  24.295  14.396
28862W        W99462  40.997  30.623  12.589
28863W        W99463  28.628  19.068   2.378
28864W        W99464   5.566  36.250  10.790
28865W        W99465  35.056  18.104   2.220
28866W        W99466  26.652  22.636   1.909
28867W        W99467   8.305  40.807   2.112
28868W        W99468  15.795  18.787  14.546
28869W        W99469  24.543  21.825   1.390
28870W        W99470  21.673  28.335  14.321
28871W        W99471  36.503  18.765  13.473
28872W        W99472   9.368  18.678  12.214
28873W        W99473   7.662  33.945  11.191
28874W        W99474  15.114  22.570   0.716
28875W        W99475   5.800  19.847  10.560
28876W        W99476  14.636  43.402   1.700
28877W        W99477  29.270  40.514  12.923
28878W        W99478  35.509  40.387  12.637
28879W        W99479  27.075  24.315  11.259
28880W        W99480   7.832  12.376  13.887
28881W        W99481  32.689  11.296   0.944
28882W        W99482  21.728  23.000  12.254
28883W        W99483  30.589  42.255   4.192
28884W        W99484  33.690  23.536  11.616
28885W        W99485   0.588  42.346  11.513
28886W        W99486  29.838  39.769   2.363
28887W        W99487  35.620  38.523   4.402
28888W        W99488  32.445   0.418   4.765
28889W        W99489  10.998  25.484  13.394
28890W        W99490  22.618   5.233   2.233
28891W        W99491  36.048  37.925  10.489
28892W        W99492  15.175   9.393   0.524
28893W        W99493  40.570  39.256   1.338
28894W        W99494  17.243  38.212   3.093
28895W        W99495   9.049  41.395   4.073
28896W        W99496  20.006   3.630  11.073
28897W        W99497  13.433  35.952   4.621
28898W        W99498  39.542  41.830  12.647
28899W        W99499  36.392  23.875   5.027
28900W        W99500  20.449  42.218   4.889
28901W        W99501   3.364  42.531  13.266
28902W        W99502  29.064   9.875  12.471
28903W        W99503  23.342   3.696  13.024
28904W        W99504  36.029  24.706  10.639
28905W        W99505  39.397  25.552  11.428
28906W        W99506   0.044   9.664   4.590
28907W        W99507  40.383  26.141  10.754
28908W        W99508  14.011  17.298  10.658
28909W        W99509   8.413  19.675   1.464
28910W        W99510  29.091  31.204   3.679
28911W        W99511  38.598   5.442   4.529
28912W        W99512  23.957  21.505  11.065
28913W        W99513   0.336  37.069  14.885
28914W        W99514  37.859  22.676   4.165
28915W        W99515   7.268  36.547   4.781
28916W        W99516   6.293  20.547   2.665
28917W        W99517  19.047   3.532  13.770
28918W        W99518  14.501  21.701   2.175
28919W        W99519  17.763  39.904  10.585
28920W        W99520   8.956  35.532  13.884
28921W        W99521  26.586  27.689   4.245
28922W        W99522  20.078  13.369   4.599
28923W        W99523  34.067  31.927  12.614
28924W        W99524  36.996  31.177   1.862
28925W        W99525  32.930  31.677   1.282
28926W        W99526   7.986   8.599  10.323
28927W        W99527  43.606   2.323  14.030
28928W        W99528  23.708   7.780  11.472
28929W        W99529   8.393  32.029   0.289
28930W        W99530  36.507  30.243  12.109
28931W        W99531  27.439   0.467  12.006
28932W        W99532  40.565  37.287   4.660
28933W        W99533   5.349  27.529   3.472
28934W        W99534  41.828  19.476   1.077
28935W        W99535   5.229  37.779   4.920
28936W        W99536  38.830  19.532   1.926
28937W        W99537  16.781  23.613   3.337
28938W        W99538  14.030  23.076  12.890
28939W        W99539  25.444   0.771   3.925
28940W        W99540  36.394   7.527   3.762
28941W        W99541  19.839   2.323   0.040
28942W        W99542  42.971  32.482   4.508
28943W        W99543  38.387  43.831   3.198
28944W        W99544   3.475  11.415  12.877
28945W        W99545   9.921  10.606  13.466
28946W        W99546  25.940   4.016  11.154
28947W        W99547   4.601  13.154  10.703
28948W        W99548  19.682   3.614  14.441
28949W        W99549  16.331   6.776  12.531
28950W        W99550  23.549  10.496   3.785
28951W        W99551   2.029  21.490   0.847
28952W        W99552  23.953  35.645  12.918
28953W        W99553  22.735  31.054   9.940
28954W        W99554  22.978  41.388   1.828
28955W        W99555   1.920  34.892  12.021
28956W        W99556   5.652   1.421   2.851
28957W        W99557  23.462  26.181   0.471
28958W        W99558  12.590   7.327  12.890
28959W        W99559  39.068  24.167  14.288
28960W        W99560   8.237  18.147  14.735
28961W        W99561   6.754  15.272  14.571
28962W        W99562  26.069  35.664   0.918
28963W        W99563  22.050  37.054  13.596
28964W        W99564  28.311  39.793   4.547
28965W        W99565  30.873  12.690  14.223
28966W        W99566  17.194   5.419  14.817
28967W        W99567  25.107  19.341  12.634
28968W        W99568   6.709  37.238   3.114
28969W        W99569  37.021  11.425  13.514
28970W        W99570  39.041  10.282  11.261
28971W        W99571  34.916  25.273  13.956
28972W        W99572  15.297   2.373   4.671
28973W        W99573  36.780  32.455  11.679
28974W        W99574   9.261  35.613   3.281
28975W        W99575  32.724  24.999  14.214
28976W        W99576  43.263  27.243   3.089
28977W        W99577  28.703  30.564   0.371
28978W        W99578  20.628   5.161   1.410
28979W        W99579   5.347  38.457  13.050
28980W        W99580  19.549  13.455   3.272
28981W        W99581   7.921  35.679  10.842
28982W        W99582   0.318  40.148   4.263
28983W        W99583  10.786  10.428   2.166
28984W        W99584  28.179   2.859   0.357
28985W        W99585  38.306  14.976   2.106
28986W        W99586  16.270   3.861   3.209
28987W        W99587   2.717  42.600   0.788
28988W        W99588   8.895  26.566   3.258
28989W        W99589  16.279  43.616   4.119
28990W        W99590   7.822  32.018   4.328
28991W        W99591   5.534  16.306  11.041
28992W        W99592  37.976  30.163  10.740
28993W        W99593   2.855   2.375   2.233
28994W        W99594  31.154  17.316  12.157
28995W        W99595   6.284   2.295   4.251
28996W        W99596  19.111  39.860  14.340
28997W        W99597  44.403  21.989  11.831
28998W        W99598   3.674  35.139   2.364
28999W        W99599  33.615  14.052  11.224
29000W        W99600   0.416   0.994   0.818
29001W        W99601  25.693  21.352   3.300
29002W        W99602   5.908   8.414   2.146
29003W        W99603  14.532   1.780   2.677
29004W        W99604  20.011  35.644   4.304
29005W        W99605   9.892   7.581  13.549
29006W        W99606  41.343  12.904  14.819
29007W        W99607  21.344  12.380  12.489
29008W        W99608  39.823  34.575   3.425
29009W        W99609  25.681   9.256   4.951
29010W        W99610   1.257  25.002  14.321
29011W        W99611  39.264  19.259  12.025
29012W        W99612  25.480  39.991   0.354
29013W        W99613  26.476  21.306   1.304
29014W        W99614  31.983   1.472   0.435
29015W        W99615  31.068  12.398   0.937
29016W        W99616  22.509  13.865   0.769
29017W        W99617  21.567   0.867  12.526
29018W        W99618   1.919   0.499   2.831
29019W        W99619  14.614   6.908  10.583
29020W        W99620  33.393  39.429  13.930
29021W        W99621  21.537  35.108  12.638
29022W        W99622   6.233  20.031   2.660
29023W        W99623  10.604  10.585   3.253
29024W        W99624  13.734   4.047  14.282
29025W        W99625  18.509  28.285  14.595
29026W        W99626   1.287  41.516   0.916
29027W        W99627  11.118  29.511   1.996
29028W        W99628   1.349  11.886   0.433
29029W        W99629  34.997  17.349   0.832
29030W        W99630   1.927  35.105  10.727
29031W        W99631  30.119  34.124   3.080
29032W        W99632   6.293  44.805  10.654
29033W        W99633   0.835  12.645  14.820
29034W        W99634  28.176  42.837   4.234
29035W        W99635  29.221   7.151   0.035
29036W        W99636  20.013  14.830   2.170
29037W        W99637  35.521   9.561  12.064
29038W        W99638  34.716   6.703  11.007
29039W        W99639   5.307  40.949   0.965
29040W        W99640  13.697  26.034   4.672
29041W        W99641  17.128  30.883  13.088
29042W        W99642   7.793  29.723  13.040
29043W        W99643  35.297  33.474  13.449
29044W        W99644  31.669  18.236  14.895
29045W        W99645  39.484  42.861   3.158
29046W        W99646  36.980   2.317   1.813
29047W        W99647  14.366  29.580  13.027
29048W        W99648   9.651   5.716  13.481
29049W        W99649  33.450  17.333   2.885
29050W        W99650  25.682  35.062   9.909
29051W        W99651   7.931   3.830   4.363
29052W        W99652  35.439  28.587  11.510
29053W        W99653  42.801  33.137   2.700
29054W        W99654   5.679  37.421   2.315
29055W        W99655  44.068  30.957   0.230
29056W        W99656  30.559  28.189  14.953
29057W        W99657   7.058  10.339   1.278
29058W        W99658   8.305  35.555   4.159
29059W        W99659  11.212  35.569   0.598
29060W        W99660  27.668  16.665  14.354
29061W        W99661   1.427  35.392   1.815
29062W        W99662  38.627  24.107   0.227
29063W        W99663  39.525   6.171  11.769
29064W        W99664  27.038  15.292  14.353
29065W        W99665  36.712  30.581  11.778
29066W        W99666   2.272   1.332   3.048
29067W        W99667  38.581   6.809   1.827
29068W        W99668  32.840  33.509  14.276
29069W        W99669  17.748  30.577   3.060
29070W        W99670  44.356  29.929   3.596
29071W        W99671   1.923  29.654   2.349
29072W        W99672  24.047  17.529   3.935
29073W        W99673  33.468  29.676   4.164
29074W        W99674  40.962  18.989   5.023
29075W        W99675  33.479  16.366  13.917
29076W        W99676  17.188   0.901   2.338
29077W        W99677   7.730  25.135   9.639
29078W        W99678   1.922  34.673   1.867
29079W        W99679  31.927  38.552   1.870
29080W        W99680  40.567  43.977   4.954
29081W        W99681  15.813  24.779   3.667
29082W        W99682  34.651  34.076   0.734
29083W        W99683  30.174  18.228  10.630
29084W        W99684  27.532  41.097   2.317
29085W        W99685   8.403   0.311   1.536
29086W        W99686  37.006  23.757   1.950
29087W        W99687  28.059  22.311   1.461
29088W        W99688  24.045  14.711   1.312
29089W        W99689  31.206  12.910   3.310
29090W        W99690  15.309  15.839  11.485
29091W        W99691  31.153  31.507   0.827
29092W        W99692  21.273  18.027  10.207
29093W        W99693  32.924  24.541   1.265
29094W        W99694  12.280  44.215   0.010
29095W        W99695  41.002  16.734  12.101
29096W        W99696   6.109  40.875  14.086
29097W        W99697   0.328  31.423   3.585
29098W        W99698  30.956   1.571   1.032
29099W        W99699  19.690  37.274  11.491
29100W        W99700  23.243  39.483   2.870
29101W        W99701  23.099  31.229  14.331
29102W        W99702  42.338  15.321  14.011
29103W        W99703  33.616  18.658  13.755
29104W        W99704  30.755   5.896   0.816
29105W        W99705  21.722  15.032  11.952
29106W        W99706  35.962  19.676   3.690
29107W        W99707  29.559   6.322  13.617
29108W        W99708  24.123  44.444  14.835
29109W        W99709  40.189  41.987   0.843
29110W        W99710  37.266  18.806   5.087
29111W        W99711   7.010  32.050  12.996
29112W        W99712   6.742  28.426  14.438
29113W        W99713  35.352  18.649   1.928
29114W        W99714   6.701  41.851  12.674
29115W        W99715  11.090   1.342   3.947
29116W        W99716  35.413  11.732  11.906
29117W        W99717  24.271  43.645  11.007
29118W        W99718  25.418  16.768   3.121
29119W        W99719  42.539  42.273   1.813
29120W        W99720  39.382   4.359  11.230
29121W        W99721  34.631  40.309  10.748
29122W        W99722  25.061  12.130   4.622
29123W        W99723  17.734   7.650  10.414
29124W        W99724  13.348  16.829  11.258
29125W        W99725  26.156  31.182  10.945
29126W        W99726  24.025  42.437   1.691
29127W        W99727  42.982  33.141   1.695
29128W        W99728  34.792  26.179   0.937
29129W        W99729  31.388  38.369   0.092
29130W        W99730  24.034  31.658   4.117
29131W        W99731   4.312   4.445  11.195
29132W        W99732  10.148  27.033  12.604
29133W        W99733  33.057  39.735   4.598
29134W        W99734  34.909  15.378   2.649
29135W        W99735   7.701  12.367  13.008
29136W        W99736  10.585   7.433   4.833
29137W        W99737   8.770  38.493   1.013
29138W        W99738  39.581  31.514  14.642
29139W        W99739  19.484  34.004  14.652
29140W        W99740  11.385   0.770   2.705
29141W        W99741  37.319  40.282  11.508
29142W        W99742   4.661  31.212   3.579
29143W        W99743  17.827  18.250  10.627
29144W        W99744  11.023   1.398   1.657
29145W        W99745  32.345  28.686   1.462
29146W        W99746  41.533  38.460   1.366
29147W        W99747  24.242  28.230  10.573
29148W        W99748  25.695  12.548  13.894
29149W        W99749  18.019  11.179  10.581
29150W        W99750  29.180  20.840   1.249
29151W        W99751   5.555   4.761   3.208
29152W        W99752  14.256  41.755   9.826
29153W        W99753   9.783   8.017   0.895
29154W        W99754   5.655  23.597  11.554
29155W        W99755   7.775  44.374  12.009
29156W        W99756  23.039   5.848   0.099
29157W        W99757  11.698   0.457  10.644
29158W        W99758  14.580  28.317  13.804
29159W        W99759  39.387   0.698   3.634
29160W        W99760  11.696  19.907  10.703
29161W        W99761   9.800  19.221   2.434
29162W        W99762  13.139  10.411  13.523
29163W        W99763  23.451  12.832   1.216
29164W        W99764  11.120   3.956  11.981
29165W        W99765   5.745  22.152  13.645
29166W        W99766   6.706  16.344  11.630
29167W        W99767  11.226  42.535  12.762
29168W        W99768  44.889  40.543   2.267
29169W        W99769   3.539  31.214   2.769
29170W        W99770   8.283  10.722  10.592
29171W        W99771  22.833  40.969  12.948
29172W        W99772  36.342  13.397   2.160
29173W        W99773  19.742  21.708  11.180
29174W        W99774  43.571  36.940   1.928
29175W        W99775   2.031  32.146   1.663
29176W        W99776  23.937  20.132   1.307
29177W        W99777  19.697  12.666  12.157
29178W        W99778   2.888  44.446   0.476
29179W        W99779  37.597  29.628  11.978
29180W        W99780   7.669  27.439  12.439
29181W        W99781  35.640   0.515   4.517
29182W        W99782   7.467  21.553  13.067
29183W        W99783   5.333  21.469  12.482
29184W        W99784  42.966  28.827  10.645
29185W        W99785   5.178  42.780   4.663
29186W        W99786  29.829  14.827   3.187
29187W        W99787  24.686  34.135  13.894
29188W        W99788   5.888   3.744  13.621
29189W        W99789   3.320  10.096  12.942
29190W        W99790  38.547  31.581  12.098
29191W        W99791   4.894   9.481   4.922
29192W        W99792   6.630  42.834  13.965
29193W        W99793   9.193  36.066  12.408
29194W        W99794  19.058  35.875  14.342
29195W        W99795   9.822  18.755   0.334
29196W        W99796  44.431  28.262   5.183
29197W        W99797  34.295  40.514  14.337
29198W        W99798  22.287   4.713  14.249
29199W        W99799  32.476   7.826  12.403
29200W        W99800  16.510   5.862   0.655
29201W        W99801  38.026  44.365  11.029
29202W        W99802  32.490  23.101   3.043
29203W        W99803  15.185  28.590   4.642
29204W        W99804  16.339  44.908   1.322
29205W        W99805   7.698  27.720  12.903
29206W        W99806  43.053  22.525  13.573
29207W        W99807  38.411  12.296  12.503
29208W        W99808  44.922  42.128  12.429
29209W        W99809  27.389  24.871   2.169
29210W        W99810   6.407  17.678   2.796
29211W        W99811   2.965  29.922   4.283
29212W        W99812  33.592   3.464   2.920
29213W        W99813  39.442   3.909   3.139
29214W        W99814  42.662  38.770  12.584
29215W        W99815  15.527  12.732   0.813
29216W        W99816   7.817  14.469   5.234
29217W        W99817  15.488   4.772   4.153
29218W        W99818  38.430  33.509   2.216
29219W        W99819  12.616  31.580   1.430
29220W        W99820  11.695  18.676   3.240
29221W        W99821   7.151  20.506   3.170
29222W        W99822  28.819  14.721  12.788
29223W        W99823  13.874  44.980   3.098
29224W        W99824  37.425  43.992   3.251
29225W        W99825  17.833   4.693   4.190
29226W        W99826  12.332  36.894   3.824
29227W        W99827   0.596   7.241   1.589
29228W        W99828  29.075  42.565   2.387
29229W        W99829  10.321  27.207   3.225
29230W        W99830  40.742  20.444   5.090
29231W        W99831   5.942  32.969  13.019
29232W        W99832  24.514  27.001   3.131
29233W        W99833  15.883   8.087  13.359
29234W        W99834  28.540  20.690  11.103
29235W        W99835  20.738  15.302  13.895
29236W        W99836  36.050  15.805  12.467
29237W        W99837  17.293   8.223   0.008
29238W        W99838   5.021  22.374   4.134
29239W        W99839   1.295  37.936   1.872
29240W        W99840  23.480  26.549   3.607
29241W        W99841  12.899  23.592  12.056
29242W        W99842  32.686  22.123   1.940
29243W        W99843   9.862   3.813  13.848
29244W        W99844  22.063  15.040  14.719
29245W        W99845  22.493  38.852  14.883
29246W        W99846   7.640  16.183   1.361
29247W        W99847   9.939  38.013   2.731
29248W        W99848  19.029  28.943   3.129
29249W        W99849  15.803  31.998   3.751
29250W        W99850  16.633  14.278  11.241
29251W        W99851   3.030   9.710  12.676
29252W        W99852  25.265  29.407  11.224
29253W        W99853  11.065  10.526   2.997
29254W        W99854  26.992  20.943  12.385
29255W        W99855  25.765  31.442   2.640
29256W        W99856  32.590  33.882   0.871
29257W        W99857  40.755  19.597   3.568
29258W        W99858  24.565  43.070   0.888
29259W        W99859   7.193   0.802   0.267
29260W        W99860  42.478  18.426  10.352
29261W        W99861  31.439  27.106  12.210
29262W        W99862  10.137  23.148   1.177
29263W        W99863  12.200  23.310  13.764
29264W        W99864   5.021  29.191   2.129
29265W        W99865  35.515  12.606  13.292
29266W        W99866  26.692  29.870   0.820
29267W        W99867  40.829  32.068   4.305
29268W        W99868  39.311  16.776  11.640
29269W        W99869   9.794   0.509  13.889
29270W        W99870  20.622  26.486  14.344
29271W        W99871  32.677  10.716   1.674
29272W        W99872   7.674  14.820   2.729
29273W        W99873  25.840  22.122  11.848
29274W        W99874   2.850   3.021  13.028
29275W        W99875  34.130  16.095  12.474
29276W        W99876  23.703   4.843  14.520
29277W        W99877  34.251   5.635  12.939
29278W        W99878  25.225  14.760  12.054
29279W        W99879  29.197   7.336   1.469
29280W        W99880  42.201  41.289  14.049
29281W        W99881  26.253  39.316   2.854
29282W        W99882  40.326   8.443   3.163
29283W        W99883  27.579  31.558  12.056
29284W        W99884  31.418  17.097   3.836
29285W        W99885  16.202  13.115  14.330
29286W        W99886   4.009  35.410  13.846
29287W        W99887  40.309  38.640  10.618
29288W        W99888  16.449   0.591   3.161
29289W        W99889   4.111  44.131   4.127
29290W        W99890  20.724  17.858   2.566
29291W        W99891  15.982  40.909  12.671
29292W        W99892  40.318   9.927  10.656
29293W        W99893  13.340   6.959   1.805
29294W        W99894  27.549  40.877   4.396
29295W        W99895  35.925  17.620   3.213
29296W        W99896  25.677  17.616  13.001
29297W        W99897  27.167   3.945  13.086
29298W        W99898  40.306  44.532  10.772
29299W        W99899   2.266  10.653  10.585
29300W        W99900  30.849  35.434   4.051
29301W        W99901  15.209  12.415  14.004
29302W        W99902  10.708  10.022   0.739
29303W        W99903   5.677   1.055   2.446
29304W        W99904   5.296  25.751   3.285
29305W        W99905  21.309  40.506  14.027
29306W        W99906  20.048  17.413   2.339
29307W        W99907  15.857  24.509   2.275
29308W        W99908   4.301  39.422  11.650
29309W        W99909  21.852  24.863  14.281
29310W        W99910  26.549  37.128  13.780
29311W        W99911   2.517   4.727  13.036
29312W        W99912   8.660  25.483  12.003
29313W        W99913  41.821  33.070   1.308
29314W        W99914   4.430  41.523   2.236
29315W        W99915  39.934  43.238  11.055
29316W        W99916  38.355  14.323   0.710
29317W        W99917  22.575  24.702  10.889
29318W        W99918   7.368  42.989   2.648
29319W        W99919  44.531  22.033  14.888
29320W        W99920  34.531  33.892  10.637
29321W        W99921  28.475  25.022  10.433
29322W        W99922  17.838   1.655   4.249
29323W        W99923  42.238  32.568  11.517
29324W        W99924  41.967  37.410  13.913
29325W        W99925  27.111   9.810  12.034
29326W        W99926  11.900  27.878  11.714
29327W        W99927   4.819  15.601  13.499
29328W        W99928  23.134  38.072   1.257
29329W        W99929  26.960  34.592   4.539
29330W        W99930  26.463  23.269   3.199
29331W        W99931  11.836   3.316   2.973
29332W        W99932  21.704  12.612   2.768
29333W        W99933  20.663  39.506   2.680
29334W        W99934  16.139  26.743   4.063
29335W        W99935  15.944  27.097   2.748
29336W        W99936  32.120  19.684  12.130
29337W        W99937  33.681  44.439  12.038
29338W        W99938  27.645  12.731   2.759
29339W        W99939  43.358   3.263  14.742
29340W        W99940  40.323  34.191  13.359
29341W        W99941  31.398  12.357   3.249
29342W        W99942  24.081  35.148  11.615
29343W        W99943  33.084   5.517  11.594
29344W        W99944   1.235   6.812  11.088
29345W        W99945  36.031  12.206   1.286
29346W        W99946  41.050  13.557   1.827
29347W        W99947   7.118   9.565   4.186
29348W        W99948   5.895  14.632  10.771
29349W        W99949  11.291  33.344  11.523
29350W        W99950  29.362  35.420   2.708
29351W        W99951  16.409  43.836   3.666
29352W        W99952  18.757  44.487   0.761
29353W        W99953  43.224  16.490  13.448
29354W        W99954  37.580  41.546   3.583
29355W        W99955  36.482  21.020   0.789
29356W        W99956  40.549   8.749   4.086
29357W        W99957   6.960  17.663   1.014
29358W        W99958   3.964   2.287  12.909
29359W        W99959  38.987  28.635  11.655
29360W        W99960  27.899  16.287  14.622
29361W        W99961   4.863  41.756  10.471
29362W        W99962   8.375  21.199   0.019
29363W        W99963   5.960  24.041  12.570
29364W        W99964  39.841  25.553   1.964
29365W        W99965  44.749  28.401  13.043
29366W        W99966  31.357  32.066   4.192
29367W        W99967   2.756   3.264   1.629
29368W        W99968  24.599  29.250   2.110
29369W        W99969  11.575  15.170  11.636
29370W        W99970   1.528   8.435   0.254
29371W        W99971  31.830  23.213   1.833
29372W        W99972  17.753  13.536  10.391
29373W        W99973  31.526  42.232   5.050
29374W        W99974   1.318  25.256   4.798
29375W        W99975  30.314  10.614  11.466
29376W        W99976   9.781  36.368   0.492
29377W        W99977   4.881   1.301   3.423
29378W        W99978  17.764  17.858  14.940
29379W        W99979  12.756   8.235   2.318
29380W        W99980  26.947  39.341  13.771
29381W        W99981  11.592  42.559   2.695
29382W        W99982   7.320  35.175  11.974
29383W        W99983  31.907  20.331   4.145
29384W        W99984  38.493  34.672   1.479
29385W        W99985  15.051   8.470  13.954
29386W        W99986  28.012  15.950  13.787
29387W        W99987  17.932  32.031  14.490
29388W        W99988  37.604  38.924  12.489
29389W        W99989  42.943  26.157  12.927
29390W        W99990  37.376  10.753   0.798
29391W        W99991  26.299  40.953  11.939
29392W        W99992   3.925  31.839  10.607
29393W        W99993   7.703  24.681   0.781
29394W        W99994  11.404   0.883  11.644
29395W        W99995  19.709  19.516   1.784
29396W        W99996  27.444  40.885   0.345
29397W        W99997  43.392   3.505   1.767
29398W        W99998   4.463  16.508  13.417
29399W        W99999   1.733  24.860  11.588
29400W        W    0  13.323  14.223   0.522
29401W        W    1  27.227  30.422  11.693
29402W        W    2  29.603  16.017  14.367
29403W        W    3  40.504  18.676   0.743
29404W        W    4  23.003  33.430  14.341
29405W        W    5  28.472  23.355  13.017
29406W        W    6  28.058  14.335   1.321
29407W        W    7   4.469  25.840   1.332
29408W        W    8  43.695  32.230  11.992
29409W        W    9   7.886  14.419  13.084
29410W        W   10  21.671   2.351  13.665
29411W        W   11  24.593  32.747  13.013
29412W        W   12  19.623  43.346   2.662
29413W        W   13  31.679  38.985   1.803
29414W        W   14  34.679  38.036   1.363
29415W        W   15  24.258  11.595   2.230
29416W        W   16  34.402  20.681   4.695
29417W        W   17  21.627   3.162   4.596
29418W        W   18  33.453   0.420   0.120
29419W        W   19   3.438   8.201   4.593
29420W        W   20  43.590   9.215  14.906
29421W        W   21   2.487   5.388   2.875
29422W        W   22  23.980  36.062  14.267
29423W        W   23  42.871  21.608   0.737
29424W        W   24  33.479   9.102   1.017
29425W        W   25   0.965   8.226  10.481
29426W        W   26   4.418  25.310   1.266
29427W        W   27  10.883  33.097   1.390
29428W        W   28  24.333  36.035  11.608
29429W        W   29  31.170   5.879   3.725
29430W        W   30  43.956  17.101   3.318
29431W        W   31   1.793  10.473   3.752
29432W        W   32  43.107   2.437   4.564
29433W        W   33  12.279  13.637   3.385
29434W        W   34  17.774   1.958   1.735
29435W        W   35  15.569   4.666   4.841
29436W        W   36  25.293  34.259  11.694
29437W        W   37  17.180  10.854  11.946
29438W        W   38  12.845  12.807  12.025
29439W        W   39   2.688  14.763  11.182
29440W        W   40  43.391   2.711   3.686
29441W        W   41   8.403  24.665   2.175
29442W        W   42  12.418  32.580  12.418
29443W        W   43  12.417  25.648  13.006
29444W        W   44  32.136  25.196  11.052
29445W        W   45   0.634  28.776  12.839
29446W        W   46  28.817   5.969   4.694
29447W        W   47  16.525  28.219  11.632
29448W        W   48  18.254  43.979  14.757
29449W        W   49  27.381  28.684   0.607
29450W        W   50  34.542  33.965  13.922
29451W        W   51  38.371  10.383  14.836
29452W        W   52   9.196   4.298   1.828
29453W        W   53  11.234  33.656  10.644
29454W        W   54  33.116  40.934  10.638
29455W        W   55   6.113  20.636  12.073
29456W        W   56  42.528  24.483   1.777
29457W        W   57  44.228  19.878   0.701
29458W        W   58   6.402   0.393   9.943
29459W        W   59  22.643   3.757  11.979
29460W        W   60   6.007  26.500   0.363
29461W        W   61  27.762  42.999   2.869
29462W        W   62   8.285   7.397   3.217
29463W        W   63  16.841  42.937   5.175
29464W        W   64  20.278  15.266   3.857
29465W        W   65   7.298  44.054  13.784
29466W        W   66   3.993  25.932   2.825
29467W        W   67  38.984  13.482  12.991
29468W        W   68  23.026  12.620   4.083
29469W        W   69  39.824  30.759  12.202
29470W        W   70  33.047  34.019  11.955
29471W        W   71  13.055  44.886  13.547
29472W        W   72  28.698  19.254  14.680
29473W        W   73  24.507  32.627  12.422
29474W        W   74   0.278  20.374  13.798
29475W        W   75  12.337  36.564  12.992
29476W        W   76  11.588  28.065   1.447
29477W        W   77  36.276  42.927   1.202
29478W        W   78   2.058  23.100   0.308
29479W        W   79  42.977   9.893   4.469
29480W        W   80  42.049  27.075  11.179
29481W        W   81   5.058  32.596   5.066
29482W        W   82  12.768   5.476   0.666
29483W        W   83   0.222  26.802   2.790
29484W        W   84  15.736  38.109  11.425
29485W        W   85  42.771  17.096  12.629
29486W        W   86  10.298  38.438  13.301
29487W        W   87  14.856  16.067  11.663
29488W        W   88  36.629  17.337  12.638
29489W        W   89  43.459  41.795   1.400
29490W        W   90  44.896  26.881  13.024
29491W        W   91  36.930  20.836   3.137
29492W        W   92  12.640  16.180   2.112
29493W        W   93  35.413   5.478   0.312
29494W        W   94  30.685  43.985   3.872
29495W        W   95  42.718   2.931  10.780
29496W        W   96   8.059   7.285  11.464
29497W        W   97  24.194   7.754   4.097
29498W        W   98  44.082   7.573   1.758
29499W        W   99  34.632   8.709  11.320
29500W        W  100   0.365  20.326  13.290
29501W        W  101  44.287   0.713   1.269
29502W        W  102   6.905  30.435  11.568
29503W        W  103  33.433   4.721   3.221
29504W        W  104  24.927  40.419  10.804
29505W        W  105  21.687   2.260  11.452
29506W        W  106  44.383  32.969  12.282
29507W        W  107  21.069  24.358   0.412
29508W        W  108  40.454   6.794  12.983
29509W        W  109  22.461  19.941  12.007
29510W        W  110  28.372  17.082   5.008
29511W        W  111  19.591  31.611   0.043
29512W        W  112  35.598   1.365   4.366
29513W        W  113  32.335  30.961   4.135
29514W        W  114   5.143  42.738   3.239
29515W        W  115  10.844  37.021  11.746
29516W        W  116  13.935   4.406  10.845
29517W        W  117   7.425  20.081   3.323
29518W        W  118   3.657  36.769   0.249
29519W        W  119   9.610   9.184  13.738
29520W        W  120  40.251  43.465  11.562
29521W        W  121  40.794  43.506   0.136
29522W        W  122  13.794  13.294   5.360
29523W        W  123  32.169  10.705   1.822
29524W        W  124  43.457  43.704   3.252
29525W        W  125  18.585  12.266  14.110
29526W        W  126  28.917  24.897  11.219
29527W        W  127  24.170  12.647  13.114
29528W        W  128  11.382  26.346   3.018
29529W        W  129  40.876  37.583   2.369
29530W        W  130  24.149  31.538   1.774
29531W        W  131   9.715  33.946   4.219
29532W        W  132  24.026  30.006   3.980
29533W        W  133  13.175  15.687   4.183
29534W        W  134   9.810  29.158  10.527
29535W        W  135  19.551  26.736   1.300
29536W        W  136  30.493  20.670   2.332
29537W        W  137  21.688  38.008   1.267
29538W        W  138   3.646  37.761  12.503
29539W        W  139  32.093   3.818   3.677
29540W        W  140  26.894  38.856   3.270
29541W        W  141  31.482  11.565  13.836
29542W        W  142  35.566  32.343  10.739
29543W        W  143  37.491  17.894  12.462
29544W        W  144   8.425  16.490  13.020
29545W        W  145  23.862  28.152  14.837
29546W        W  146   9.663  10.412  14.848
29547W        W  147  41.082  43.118   2.758
29548W        W  148   2.866  10.762   0.643
29549W        W  149  39.581  34.854   2.231
29550W        W  150  30.649  41.705   5.084
29551W        W  151   3.446   5.790  13.315
29552W        W  152   7.109  20.350   1.675
29553W        W  153  11.836  31.091  11.869
29554W        W  154  44.128  27.188  14.924
29555W        W  155  25.863   8.066  12.405
29556W        W  156   7.667  42.388   2.163
29557W        W  157  23.976  38.708  11.734
29558W        W  158  14.327   0.175  14.824
29559W        W  159  38.693  23.148   3.260
29560W        W  160  37.416  13.327   2.771
29561W        W  161  39.407   9.761  12.083
29562W        W  162  21.232  12.210   2.599
29563W        W  163  32.420   6.004  11.943
29564W        W  164  40.920  18.185  14.766
29565W        W  165  38.438  14.207   0.205
29566W        W  166   9.803  41.380   4.691
29567W        W  167  25.105  16.128   4.359
29568W        W  168  33.801  44.895   0.789
29569W        W  169  34.481  32.910   0.951
29570W        W  170  21.789   0.853  10.544
29571W        W  171  42.528   7.944   3.546
29572W        W  172  28.624   6.046   3.635
29573W        W  173  31.912   6.733  11.871
29574W        W  174  29.507  21.518   2.343
29575W        W  175  14.704  42.046  13.111
29576W        W  176  35.440   8.332   0.927
29577W        W  177  17.119  14.969   4.675
29578W        W  178   8.784  40.693  12.101
29579W        W  179  43.791  32.336  13.963
29580W        W  180  10.793  26.364   2.651
29581W        W  181  25.619   2.340  14.222
29582W        W  182  42.281   8.567  14.756
29583W        W  183  32.340  24.994  11.541
29584W        W  184   6.860  25.806  11.568
29585W        W  185  28.200  16.265  11.512
29586W        W  186  29.165  42.115  12.008
29587W        W  187  12.836  16.203  13.172
29588W        W  188  42.946  20.276   0.895
29589W        W  189  44.289  42.907  13.334
29590W        W  190  10.611  30.733   1.005
29591W        W  191  11.424  38.896   0.295
29592W        W  192   8.367   2.913  14.389
29593W        W  193  28.104   3.718  11.656
29594W        W  194  42.333  15.094   4.569
29595W        W  195  37.273  10.682   4.112
29596W        W  196  24.925   3.143   4.275
29597W        W  197  24.221  38.132   2.221
29598W        W  198  23.428  32.092  10.352
29599W        W  199   4.044  14.024   3.144
29600W        W  200  40.589  44.996   4.529
29601W        W  201  24.591  14.355   4.214
29602W        W  202  12.804  17.007  11.203
29603W        W  203  42.313  40.724   2.765
29604W        W  204  39.310  43.698   1.886
29605W        W  205  36.899   8.231  11.579
29606W        W  206   2.405   3.175   3.095
29607W        W  207  42.529  12.631  12.602
29608W        W  208  39.629  15.803   4.305
29609W        W  209  17.545  24.104   4.623
29610W        W  210  24.941   1.410   1.991
29611W        W  211  31.651   1.422  12.405
29612W        W  212  40.612  43.666  13.670
29613W        W  213  35.099  18.192   1.726
29614W        W  214  42.878  30.989   3.606
29615W        W  215  44.215  16.106   1.493
29616W        W  216  27.100  21.658  11.469
29617W        W  217  44.479   9.943  14.099
29618W        W  218  32.538  27.113   1.296
29619W        W  219  23.436  35.576   4.223
29620W        W  220  13.010  41.516  13.093
29621W        W  221  28.836  11.616   3.702
29622W        W  222   4.601  10.232   2.731
29623W        W  223  43.544  39.557   0.765
29624W        W  224  30.623   3.050  13.848
29625W        W  225   5.062  13.120  10.463
29626W        W  226  29.628  34.914  14.529
29627W        W  227  18.214   9.323   4.019
29628W        W  228  15.388  12.641  11.617
29629W        W  229  25.918  22.736   0.262
29630W        W  230  20.729  16.981   4.747
29631W        W  231  36.236  14.259   0.261
29632W        W  232   9.287  29.435  13.927
29633W        W  233   5.810  40.342   0.555
29634W        W  234  40.347  13.355   2.386
29635W        W  235  24.601  17.205   2.306
29636W        W  236   6.446  34.593  14.361
29637W        W  237  36.360  37.907  13.900
29638W        W  238  13.711   2.549   3.246
29639W        W  239  13.730  10.408  13.838
29640W        W  240  20.550   0.954  12.415
29641W        W  241  19.822  36.356  10.784
29642W        W  242  37.260  36.998   3.646
29643W        W  243  18.195  15.113  10.901
29644W        W  244  16.637   8.267   1.719
29645W        W  245   3.750  40.232   0.214
29646W        W  246  29.614  19.246   2.360
29647W        W  247  10.101  23.069  11.067
29648W        W  248  18.715   6.665   2.684
29649W        W  249  18.368  28.506  10.313
29650W        W  250  29.993  17.340   2.237
29651W        W  251   3.720   2.377  14.838
29652W        W  252   2.513   9.224   1.215
29653W        W  253  35.565  33.209  13.089
29654W        W  254  33.940   6.128  10.754
29655W        W  255  20.608  26.081   3.794
29656W        W  256  37.309  23.770   3.272
29657W        W  257   1.729   0.017   2.861
29658W        W  258  24.076  15.711   5.400
29659W        W  259   1.976   5.770  14.483
29660W        W  260  39.403  20.611   1.995
29661W        W  261   2.006  29.137   3.074
29662W        W  262  26.913  37.197   5.144
29663W        W  263  41.345  44.275   0.964
29664W        W  264  34.967  32.142   4.234
29665W        W  265  30.950  29.644  11.510
29666W        W  266  16.218  15.141  12.912
29667W        W  267  27.818   5.087   3.171
29668W        W  268  37.969  40.017  10.345
29669W        W  269  25.796  13.411  12.200
29670W        W  270   5.175   0.239   2.634
29671W        W  271   0.814  28.558  10.491
29672W        W  272  17.799   9.812  12.991
29673W        W  273   1.998  32.083   0.356
29674W        W  274  40.317  27.850   2.716
29675W        W  275  14.306  22.265  13.972
29676W        W  276  11.080  41.980   3.016
29677W        W  277   9.951   1.375   4.091
29678W        W  278  16.346   1.444   0.449
29679W        W  279  19.148  44.820  11.970
29680W        W  280  22.616  40.312  14.503
29681W        W  281  27.837  36.495  11.227
29682W        W  282  17.818  42.041  14.591
29683W        W  283  18.672  17.838  13.450
29684W        W  284  39.952  36.892  10.725
29685W        W  285   0.695  42.093   2.353
29686W        W  286   4.816  14.163   0.595
29687W        W  287  36.576   2.457  12.085
29688W        W  288  20.551   6.396  14.963
29689W        W  289   8.666   0.808  12.989
29690W        W  290  34.647  31.730  13.789
29691W        W  291  30.180  35.470   2.306
29692W        W  292   0.088   1.582  12.169
29693W        W  293  15.386   5.250  12.963
29694W        W  294  33.989   7.301  14.321
29695W        W  295  18.059  24.988  12.591
29696W        W  296   1.036   5.215  12.915
29697W        W  297  17.249  24.204  14.457
29698W        W  298  38.747  40.946   0.307
29699W        W  299  23.688  15.916   1.766
29700W        W  300   9.956  33.295   3.427
29701W        W  301  40.611   6.271   0.255
29702W        W  302  12.574  28.826  12.523
29703W        W  303   5.416  29.583   2.235
29704W        W  304  12.798  33.784   4.900
29705W        W  305   6.585  31.990  13.355
29706W        W  306  43.849   0.926   3.287
29707W        W  307  23.615  36.073   4.092
29708W        W  308   9.980  11.111  13.447
29709W        W  309  11.752   8.541  14.862
29710W        W  310   8.899   2.219   0.925
29711W        W  311   2.276  17.938   0.755
29712W        W  312  28.646   8.169   0.223
29713W        W  313   7.035  16.963  10.460
29714W        W  314  35.806  21.324   4.214
29715W        W  315  33.762  32.852   2.549
29716W        W  316  21.293   2.654  14.255
29717W        W  317  36.659  26.326  10.335
29718W        W  318  28.728  26.913  12.923
29719W        W  319   6.124  26.596  11.406
29720W        W  320   7.973  31.057  12.385
29721W        W  321   5.419  28.165  10.292
29722W        W  322  24.564  18.984  14.935
29723W        W  323  27.060   2.036  13.408
29724W        W  324   4.728  36.128   2.720
29725W        W  325   9.460  36.098  12.834
29726W        W  326  20.382  32.493  12.911
29727W        W  327  21.505  41.413   0.917
29728W        W  328  10.259  12.233   0.189
29729W        W  329  21.673  19.339   3.855
29730W        W  330  20.890  33.319  12.015
29731W        W  331  39.923  37.093   4.803
29732W        W  332  39.880  28.175  11.368
29733W        W  333  18.854  43.201  12.500
29734W        W  334   0.220  19.849  10.713
29735W        W  335   0.799  25.619   4.178
29736W        W  336  41.557   5.894  11.025
29737W        W  337  31.963  18.125   2.795
29738W        W  338   1.147  35.428  11.230
29739W        W  339   8.370  44.691  14.752
29740W        W  340  32.722   8.464  13.835
29741W        W  341   6.237  38.321   2.203
29742W        W  342  20.785  25.264   1.284
29743W        W  343  44.531   6.255  14.553
29744W        W  344  31.772  23.644  12.811
29745W        W  345  35.210  43.480   2.630
29746W        W  346  37.266  38.531  12.509
29747W        W  347  11.848  39.290  11.859
29748W        W  348   4.172   8.821  13.209
29749W        W  349   6.677  37.750   3.214
29750W        W  350  37.937  28.589   1.175
29751W        W  351   2.743  14.338   1.862
29752W        W  352   0.883  29.714  10.298
29753W        W  353  41.393  21.610   4.244
29754W        W  354  14.526  30.947  14.896
29755W        W  355  38.892  30.377  10.102
29756W        W  356   6.163   1.263   3.863
29757W        W  357  32.670  20.246  11.580
29758W        W  358   5.053  35.098  12.489
29759W        W  359  44.239  20.728   0.820
29760W        W  360  17.448  15.622   2.331
29761W        W  361  23.229  26.239  11.291
29762W        W  362  14.520  12.294   5.361
29763W        W  363  44.775  32.608  14.776
29764W        W  364  24.408  38.479   0.832
29765W        W  365  30.742  18.293   0.991
29766W        W  366  22.301  20.758   4.501
29767W        W  367   5.197  13.311   0.909
29768W        W  368  31.548  44.063  14.109
29769W        W  369   1.863  24.020   0.156
29770W        W  370  27.859  44.348   2.227
29771W        W  371  38.379   0.053   0.271
29772W        W  372  15.626  23.120  13.774
29773W        W  373  13.676  35.476  10.624
29774W        W  374  26.647  39.411  11.636
29775W        W  375   1.452   2.470  13.814
29776W        W  376  43.745  29.909   2.717
29777W        W  377  11.804  31.054  10.848
29778W        W  378  16.930  33.181   2.377
29779W        W  379  34.507  30.964   3.325
29780W        W  380   8.297   1.400  14.042
29781W        W  381  41.033  11.725   3.369
29782W        W  382   3.019  23.875  11.117
29783W        W  383  40.506  22.451   3.067
29784W        W  384  31.722   9.155  14.933
29785W        W  385   5.283  28.924  11.609
29786W        W  386  41.305  39.592   0.522
29787W        W  387  36.122  11.243  14.220
29788W        W  388   6.453  18.255   1.818
29789W        W  389   2.899  25.976  14.465
29790W        W  390  33.504  38.359  11.008
29791W        W  391  34.699  10.202   4.110
29792W        W  392   9.110  27.596  13.797
29793W        W  393  35.963  34.089   3.191
29794W        W  394   4.714   2.033  14.324
29795W        W  395   2.924  34.098  12.571
29796W        W  396  12.057  14.751  10.713
29797W        W  397  19.737  12.643   3.778
29798W        W  398  41.789  31.423  12.062
29799W        W  399   2.437  15.457  11.565
29800W        W  400  40.275  36.074  11.083
29801W        W  401   1.261  39.209   1.845
29802W        W  402  29.935   0.002   3.285
29803W        W  403   9.900  11.829  11.709
29804W        W  404   9.765   1.515   3.161
29805W        W  405  19.097  23.335   2.356
29806W        W  406  24.012  26.524   3.637
29807W        W  407   6.673  25.383  13.512
29808W        W  408  22.954  12.440  12.465
29809W        W  409   5.803  15.670   4.750
29810W        W  410   0.498  26.947   1.778
29811W        W  411  40.446  19.046   3.579
29812W        W  412  36.313   2.170  14.463
29813W        W  413  41.532  38.523   4.563
29814W        W  414  31.027  10.280  13.324
29815W        W  415  27.029  34.142   2.733
29816W        W  416  36.293   8.634  12.931
29817W        W  417  10.807  36.170   4.592
29818W        W  418  44.814  34.812  14.601
29819W        W  419  18.652  30.034  13.545
29820W        W  420  11.236  35.572  12.981
29821W        W  421  18.234   2.261  14.352
29822W        W  422  26.441  29.645   1.802
29823W        W  423  27.129  44.494  12.043
29824W        W  424  43.369  38.516   0.809
29825W        W  425  38.858   9.735   5.040
29826W        W  426  43.974  34.445  13.886
29827W        W  427  40.880  11.207   1.168
29828W        W  428  20.530  22.171   1.905
29829W        W  429  13.107  24.847  11.930
29830W        W  430  39.537  31.490   0.424
29831W        W  431  14.587  22.678   5.506
29832W        W  432  29.678  13.938   1.916
29833W        W  433  43.104  15.262  14.885
29834W        W  434  16.221  10.569  14.438
29835W        W  435  18.301  44.387  13.547
29836W        W  436   2.184  42.880   0.167
29837W        W  437   0.849  25.127  13.134
29838W        W  438  15.797  22.458  10.606
29839W        W  439  31.970  25.498  12.003
29840W        W  440   3.203  14.525   5.089
29841W        W  441   5.765   2.455   3.223
29842W        W  442  38.075  25.488   3.163
29843W        W  443  43.928  28.968   3.244
29844W        W  444  40.356  20.755   3.831
29845W        W  445   3.884  26.685  13.147
29846W        W  446  25.555  17.164   2.738
29847W        W  447  22.835  11.147   1.981
29848W        W  448  11.748  26.226   2.169
29849W        W  449  22.615  39.152   2.313
29850W        W  450  20.580  16.384   4.151
29851W        W  451  31.858  31.504  12.561
29852W        W  452  35.318  44.435  12.944
29853W        W  453  25.625  41.744   1.929
29854W        W  454  20.082  15.748   4.066
29855W        W  455  20.595   6.228  13.458
29856W        W  456  33.561  20.170   4.977
29857W        W  457  18.251  38.760  12.142
29858W        W  458   8.720  32.422   3.092
29859W        W  459   2.185   3.492  13.330
29860W        W  460  23.219  36.420  12.451
29861W        W  461   0.673  26.113   0.628
29862W        W  462   7.593  21.096  12.891
29863W        W  463  10.568  22.531   1.827
29864W        W  464  26.152   3.813   3.835
29865W        W  465  27.672  19.527  14.719
29866W        W  466  32.916  44.171  14.912
29867W        W  467  25.474   3.267   2.210
29868W        W  468  30.998  40.588   3.239
29869W        W  469  12.701   1.062  11.365
29870W        W  470  18.584  31.592   3.850
29871W        W  471  20.656   0.559  13.906
29872W        W  472  33.769  14.226   1.478
29873W        W  473  35.600  38.182   0.642
29874W        W  474  33.616  17.330   3.386
29875W        W  475  41.893  10.245   1.421
29876W        W  476  23.439  36.023   2.573
29877W        W  477   4.897   1.367   0.467
29878W        W  478  19.743  11.218   9.949
29879W        W  479  39.429  16.973   2.383
29880W        W  480  39.922  40.083   2.221
29881W        W  481   0.895  12.851   4.595
29882W        W  482   0.380  42.976   0.962
29883W        W  483  21.817   6.241   0.621
29884W        W  484  10.078   6.169   0.841
29885W        W  485  18.477  29.089  13.011
29886W        W  486  32.157   2.044   3.806
29887W        W  487  26.538  29.500  12.399
29888W        W  488   6.243  16.455   4.158
29889W        W  489  22.578  18.614  13.232
29890W        W  490  33.002   5.238  14.095
29891W        W  491   7.589  29.987   0.815
29892W        W  492  40.842  32.459  13.823
29893W        W  493  36.146  31.165  11.332
29894W        W  494  20.041   2.596   0.407
29895W        W  495  43.173  35.331   0.828
29896W        W  496   6.927   9.582  12.546
29897W        W  497  10.514  19.361   4.105
29898W        W  498  16.449  37.755   2.985
29899W        W  499   6.918  33.527   4.079
29900W        W  500  38.417  42.797   4.069
29901W        W  501  27.881  31.567  12.472
29902W        W  502  29.451  37.827  12.715
29903W        W  503  17.590  12.681  12.662
29904W        W  504  13.072   3.820   3.753
29905W        W  505   7.818  42.414  12.083
29906W        W  506  13.259  25.558   4.134
29907W        W  507  23.254  36.101  10.770
29908W        W  508  26.009  40.128  12.108
29909W        W  509  25.003  30.974   1.210
29910W        W  510   0.513  15.893  13.042
29911W        W  511  22.204   7.681  10.765
29912W        W  512  37.445  38.077   2.681
29913W        W  513  16.209  35.067   0.853
29914W        W  514   2.357  24.377  10.518
29915W        W  515  11.174  40.644   1.313
29916W        W  516   1.540  17.703   0.218
29917W        W  517  27.467   6.605  13.640
29918W        W  518   0.332  38.447  14.005
29919W        W  519  43.015  27.934  13.870
29920W        W  520  42.461  38.785   2.301
29921W        W  521  15.695  41.925   2.665
29922W        W  522  31.089  26.446   0.682
29923W        W  523  42.783   6.349  14.060
29924W        W  524  17.456  24.774   1.928
29925W        W  525  29.734  32.035  13.794
29926W        W  526  28.228  24.253  12.307
29927W        W  527  36.555   8.350   4.372
29928W        W  528  44.991  16.270   2.744
29929W        W  529   7.848   1.292  13.773
29930W        W  530  23.095  23.362   1.554
29931W        W  531   8.720   3.938   4.745
29932W        W  532  36.064  44.148  13.328
29933W        W  533  36.453  22.437   3.804
29934W        W  534  19.788  30.057  12.155
29935W        W  535  12.353  35.590  14.926
29936W        W  536  41.384  27.007  12.072
29937W        W  537  24.672   7.951  13.542
29938W        W  538  37.018  36.238  13.508
29939W        W  539  31.649  15.647  12.906
29940W        W  540  33.945   0.751  13.583
29941W        W  541  18.813  30.096  12.013
29942W        W  542  37.754  15.188   0.845
29943W        W  543  20.688  28.617   2.666
29944W        W  544  15.290  41.849   3.434
29945W        W  545  20.485   0.484  13.081
29946W        W  546  29.604   5.800  14.906
29947W        W  547  39.844   7.813   1.284
29948W        W  548  20.110  16.977  13.513
29949W        W  549  34.992   5.280   3.123
29950W        W  550   1.188  29.125  12.680
29951W        W  551  41.920  33.524   2.957
29952W        W  552  42.981  16.085  11.740
29953W        W  553  25.578  40.470   0.525
29954W        W  554  44.410  16.112   4.312
29955W        W  555  26.768  10.516   2.501
29956W        W  556  35.640  29.592   0.413
29957W        W  557  16.358   6.252  12.521
29958W        W  558  18.159  30.186  13.718
29959W        W  559  42.535  42.007  12.372
29960W        W  560  27.916  26.553   0.138
29961W        W  561  18.629   1.119  14.959
29962W        W  562  42.755   1.472  14.465
29963W        W  563  44.676   6.826  12.913
29964W        W  564  17.773  12.881   1.392
29965W        W  565  20.686   3.508   2.775
29966W        W  566  39.680   1.450   3.247
29967W        W  567  26.999  41.990   0.311
29968W        W  568  31.924  18.831   4.098
29969W        W  569  39.675  24.143   2.461
29970W        W  570  17.049  15.771  12.504
29971W        W  571  14.216   2.350   5.177
29972W        W  572   2.914  22.564   0.052
29973W        W  573  17.585  37.380   0.317
29974W        W  574  41.881  42.904  14.826
29975W        W  575   5.414  32.212   5.084
29976W        W  576  39.552   6.661   3.734
29977W        W  577  13.859  40.364   0.411
29978W        W  578  12.167  18.407   3.212
29979W        W  579  35.794  44.789   0.198
29980W        W  580  19.330   6.027   0.310
29981W        W  581  11.244   8.819   3.799
29982W        W  582  42.476  17.344  11.959
29983W        W  583  14.816  31.244  14.561
29984W        W  584  26.066  15.165   3.289
29985W        W  585  32.258   6.754   3.471
29986W        W  586  25.361   8.808  11.002
29987W        W  587  41.276  17.237   1.742
29988W        W  588  34.026  17.908   4.170
29989W        W  589  42.620   0.273  12.847
29990W        W  590  35.324  24.529   1.834
29991W        W  591  27.249  30.577   3.998
29992W        W  592  41.018   5.124  11.607
29993W        W  593   9.356   4.542   2.290
29994W        W  594  27.630   5.825   1.349
29995W        W  595  30.449  37.401  10.583
29996W        W  596  40.830  16.665   2.241
29997W        W  597  10.334  22.109  14.347
29998W        W  598  36.071  32.717   0.823
29999W        W  599   4.823  28.026   2.722
30000W        W  600  33.930  34.573  11.549
30001W        W  601  29.237  11.294  10.521
30002W        W  602  30.328  29.479   4.467
30003W        W  603  36.425  43.450  13.380
30004W        W  604  12.776  12.854  11.070
30005W        W  605  21.411  41.952   2.202
30006W        W  606  44.408  35.672  12.522
30007W        W  607  25.978  13.262   0.505
30008W        W  608  17.506  28.557   1.291
30009W        W  609  12.445  36.810  14.995
30010W        W  610  38.427  32.978  13.355
30011W        W  611  38.848  11.915  12.910
30012W        W  612  17.313   1.576   9.740
30013W        W  613   3.454  28.441  14.200
30014W        W  614  18.984  37.500   3.335
30015W        W  615  22.026  16.555  13.892
30016W        W  616  20.515  20.555  14.255
30017W        W  617  14.196   2.518   2.176
30018W        W  618  21.650  21.764  14.789
30019W        W  619  24.767  44.142   4.084
30020W        W  620   0.012   5.183   3.894
30021W        W  621  42.831  32.419   2.229
30022W        W  622  20.301   9.707   2.841
30023W        W  623   0.981  30.514  12.424
30024W        W  624  10.770  38.680   0.712
30025W        W  625   3.210  11.924  12.931
30026W        W  626  39.097  38.536   2.493
30027W        W  627  29.160  15.314  13.355
30028W        W  628  33.678  11.089  12.345
30029W        W  629  30.864   8.733  14.838
30030W        W  630  20.735  18.632  13.008
30031W        W  631   0.028  41.173  14.422
30032W        W  632  43.194  20.620   4.418
30033W        W  633   0.466   2.365   0.010
30034W        W  634   7.085  28.465   4.127
30035W        W  635  28.860  25.993  14.388
30036W        W  636  34.390  16.909   4.216
30037W        W  637  13.387  20.531   4.174
30038W        W  638  44.045  20.215  12.884
30039W        W  639  27.475  26.039   2.175
30040W        W  640  40.432  40.962  10.569
30041W        W  641  22.636  32.216  13.025
30042W        W  642  33.466  23.342   0.463
30043W        W  643   5.231  27.063  11.682
30044W        W  644   7.216  32.342   1.940
30045W        W  645  20.544  39.063  12.933
30046W        W  646  44.763  22.975  13.795
30047W        W  647   0.218  16.732   1.686
30048W        W  648   4.210  23.685   4.571
30049W        W  649   3.931  24.280   0.513
30050W        W  650  34.959  28.175  12.106
30051W        W  651  39.786  34.570   4.887
30052W        W  652   1.777  36.021   0.010
30053W        W  653  40.456  37.875   3.794
30054W        W  654  28.969  38.409  13.007
30055W        W  655  35.336  20.274  14.787
30056W        W  656  26.864  16.221  13.762
30057W        W  657  39.123  12.799  10.756
30058W        W  658  10.802   8.371  10.631
30059W        W  659  26.859  43.416   4.998
30060W        W  660  32.948  25.981   0.887
30061W        W  661  42.435  42.468  10.826
30062W        W  662  30.842  39.395   2.717
30063W        W  663  33.351  32.196   0.733
30064W        W  664  44.719  18.682   0.867
30065W        W  665  14.874   2.265   1.461
30066W        W  666  42.004  23.119   3.628
30067W        W  667   3.855  43.918   1.789
30068W        W  668  34.375  41.992   3.594
30069W        W  669  22.004  21.967   2.834
30070W        W  670   2.527  17.192  13.631
30071W        W  671  38.123  36.546   4.942
30072W        W  672  25.303  32.646  11.379
30073W        W  673  14.862  44.913   1.275
30074W        W  674  36.111  17.406   0.313
30075W        W  675  19.928  39.560  11.171
30076W        W  676   0.867  34.373  12.005
30077W        W  677  12.285   3.616  11.581
30078W        W  678  28.686  18.874  12.546
30079W        W  679   2.357   8.245  14.855
30080W        W  680  35.531   3.844   4.632
30081W        W  681  43.340  16.559   0.509
30082W        W  682  16.471  34.872  13.172
30083W        W  683  22.150  30.091   4.518
30084W        W  684  34.464  35.330   2.319
30085W        W  685  12.709  22.183   2.820
30086W        W  686  32.225  41.961  11.081
30087W        W  687  30.676  24.835   4.807
30088W        W  688  11.313  34.063  14.836
30089W        W  689  33.006   5.724   3.792
30090W        W  690  23.970  39.207  10.204
30091W        W  691  43.796   4.302  14.038
30092W        W  692  21.097  15.826  10.711
30093W        W  693  20.761   2.759  13.397
30094W        W  694  16.376   9.032  12.094
30095W        W  695  18.314  28.150   4.324
30096W        W  696  41.084  26.945   0.697
30097W        W  697  28.925  14.254  14.688
30098W        W  698   9.768  14.789   4.348
30099W        W  699  17.213  15.120  13.777
30100W        W  700  20.221  29.229  12.148
30101W        W  701  41.997  39.004  14.420
30102W        W  702  16.823  17.599  11.470
30103W        W  703   9.696  12.533   4.240
30104W        W  704   4.688  27.411  10.343
30105W        W  705   3.738  11.410   4.223
30106W        W  706  17.276  24.003  10.288
30107W        W  707   9.611   6.865  14.946
30108W        W  708  15.158  44.953   4.487
30109W        W  709   8.154  23.521  13.406
30110W        W  710   9.789  25.940   3.917
30111W        W  711  32.608  35.554   3.336
30112W        W  712  32.820  36.051   0.711
30113W        W  713  31.082  21.321  11.246
30114W        W  714  17.169  38.798   4.776
30115W        W  715  30.352  17.108  13.880
30116W        W  716   2.852  19.829   2.653
30117W        W  717  17.594   8.941   0.825
30118W        W  718  24.326  27.517  10.934
30119W        W  719   5.290   9.106   2.365
30120W        W  720   2.630   8.358  12.561
30121W        W  721   5.158  21.205   1.386
30122W        W  722   8.061  20.562   0.189
30123W        W  723  15.657   6.186   4.532
30124W        W  724  21.034  44.664  12.796
30125W        W  725  34.354  20.133   0.814
30126W        W  726  35.593  24.722  14.844
30127W        W  727   7.926   2.729   1.304
30128W        W  728  41.412  25.322   0.877
30129W        W  729  19.506   9.610  11.914
30130W        W  730  23.548  21.697   0.800
30131W        W  731  33.921  29.858  14.337
30132W        W  732  13.833  14.551   1.621
30133W        W  733  21.484  34.488  10.318
30134W        W  734   7.450  24.227   0.752
30135W        W  735  33.875  22.389  10.784
30136W        W  736   3.067   6.875  11.892
30137W        W  737  11.414  34.144  12.776
30138W        W  738  27.699   2.017  10.917
30139W        W  739  27.548  33.853   1.032
30140W        W  740  12.684  23.492   2.894
30141W        W  741  24.209  17.679   2.988
30142W        W  742  41.962   8.361   4.276
30143W        W  743  35.580  26.762  10.995
30144W        W  744  18.702   2.055  10.195
30145W        W  745  44.840  19.803   3.270
30146W        W  746  32.558  42.248   1.843
30147W        W  747  36.647  27.619  14.528
30148W        W  748  20.086  23.681  12.916
30149W        W  749  15.652  37.047   1.489
30150W        W  750  14.239  36.668   1.681
30151W        W  751  16.570   8.561  12.338
30152W        W  752  13.175  12.719   3.737
30153W        W  753  27.830  35.400   5.201
30154W        W  754   7.600  21.114   2.794
30155W        W  755  44.402  13.384   4.309
30156W        W  756  20.377   3.802   2.392
30157W        W  757  20.082  22.274   1.654
30158W        W  758  39.410  43.371  11.078
30159W        W  759   8.533  27.686  10.688
30160W        W  760  27.777  28.244  11.208
30161W        W  761  23.332  20.481   2.568
30162W        W  762  11.569  44.679  11.095
30163W        W  763  31.990  40.537  11.847
30164W        W  764  13.142  37.143   4.341
30165W        W  765  31.066  41.580  14.465
30166W        W  766  37.055  14.693  13.129
30167W        W  767  10.909  25.379   2.403
30168W        W  768  30.587  29.924   3.219
30169W        W  769  18.054   1.630  12.377
30170W        W  770  28.385   2.434   4.122
30171W        W  771  39.642  15.761  13.617
30172W        W  772   7.827   5.239  13.302
30173W        W  773  12.832   0.538   1.857
30174W        W  774  34.528  34.962   2.919
30175W        W  775  28.152  40.997   2.190
30176W        W  776   4.938  36.118   2.210
30177W        W  777  35.380  12.102   3.304
30178W        W  778  39.546   8.218  13.877
30179W        W  779  14.939   1.309   0.529
30180W        W  780  43.399  21.458  13.919
30181W        W  781   3.724   2.768  14.053
30182W        W  782  17.981  29.494   2.230
30183W        W  783  38.768  10.877   0.492
30184W        W  784  13.234  11.805  13.005
30185W        W  785   0.340   9.725   0.751
30186W        W  786  25.190  18.214   2.260
30187W        W  787  32.889  25.816   3.573
30188W        W  788  22.074  44.403   1.328
30189W        W  789  27.830  16.724   3.304
30190W        W  790  33.343  25.047  11.719
30191W        W  791  36.360  25.043  12.045
30192W        W  792  38.274  41.563   4.113
30193W        W  793  10.587  41.387   4.198
30194W        W  794  39.537  10.846  12.572
30195W        W  795   0.943  18.654  13.432
30196W        W  796  37.380   3.132   3.591
30197W        W  797  22.022  38.592   3.269
30198W        W  798  25.582   8.129  10.603
30199W        W  799   2.933   2.835  14.973
30200W        W  800  27.977   5.702  11.169
30201W        W  801   8.301  18.746   4.165
30202W        W  802  34.753  42.434   1.381
30203W        W  803  44.664  34.934   0.113
30204W        W  804  30.612  19.241  13.343
30205W        W  805  36.887  13.280   3.638
30206W        W  806  13.067  13.302  14.026
30207W        W  807  14.687  29.165  12.997
30208W        W  808   1.887  34.049  11.656
30209W        W  809  10.841   1.977  14.427
30210W        W  810   1.548  32.575   3.280
30211W        W  811  27.119   3.163   4.137
30212W        W  812  23.811  30.087   0.740
30213W        W  813  28.225   2.447   5.229
30214W        W  814   7.947  26.022   1.368
30215W        W  815   3.728  20.992  11.619
30216W        W  816  12.308  16.117  14.870
30217W        W  817  10.235  10.152  10.424
30218W        W  818  32.287  36.331  12.233
30219W        W  819  13.331   9.353  11.980
30220W        W  820   1.397  23.208   4.994
30221W        W  821  10.454   0.075   0.812
30222W        W  822   8.589   6.247  11.123
30223W        W  823  44.295  20.582  11.736
30224W        W  824  36.137  42.481   2.430
30225W        W  825  13.223   6.036   0.324
30226W        W  826  36.060  13.058   4.472
30227W        W  827  31.961  18.597  13.305
30228W        W  828  15.884   7.216   4.906
30229W        W  829  13.415  12.496   3.204
30230W        W  830  32.794   4.625  12.001
30231W        W  831   9.365   0.820   0.935
30232W        W  832  22.169   2.920   3.221
30233W        W  833  28.648  26.210  13.505
30234W        W  834  31.077  44.956   0.252
30235W        W  835  13.622  10.604  10.649
30236W        W  836  42.306  27.028   3.876
30237W        W  837  14.688   0.515   0.000
30238W        W  838  32.087  13.428  11.685
30239W        W  839  33.000  22.778  12.505
30240W        W  840  44.082   1.806  14.245
30241W        W  841  10.928  14.111  13.764
30242W        W  842   2.266  30.417  11.177
30243W        W  843  44.407  41.704   2.489
30244W        W  844  23.971   2.525   0.669
30245W        W  845  27.211  17.973  14.791
30246W        W  846  39.516  34.418   4.240
30247W        W  847   6.310  29.676   1.335
30248W        W  848  13.210   5.055   3.073
30249W        W  849  24.171   5.433  12.070
30250W        W  850  37.161   8.668   3.523
30251W        W  851   5.484  30.425  10.754
30252W        W  852   0.516  44.490  14.848
30253W        W  853  21.729  17.275  10.303
30254W        W  854  28.377  21.593  12.571
30255W        W  855  43.414   3.935   4.571
30256W        W  856  11.375   0.528  12.949
30257W        W  857  32.831   3.702   1.285
30258W        W  858  33.002  33.983  10.586
30259W        W  859  44.750   5.678  12.984
30260W        W  860  37.483  29.137  12.279
30261W        W  861  39.542  24.067  13.880
30262W        W  862  34.420   3.097  11.965
30263W        W  863  21.200  34.952   2.118
30264W        W  864  14.902  24.644   3.278
30265W        W  865   9.680  14.097   1.883
30266W        W  866  42.405  32.093   0.298
30267W        W  867  40.830  24.859   2.225
30268W        W  868  14.016   1.332   0.018
30269W        W  869  25.166   2.833   1.809
30270W        W  870  32.210  18.690  14.761
30271W        W  871   8.428  42.772   3.329
30272W        W  872   6.349  22.071   2.144
30273W        W  873   5.792  31.074  11.734
30274W        W  874  14.851  28.417   3.364
30275W        W  875  41.624   0.718   4.656
30276W        W  876   1.463  33.094   3.163
30277W        W  877  15.794  28.779  14.293
30278W        W  878  40.782   3.431  12.486
30279W        W  879  32.599  17.054   3.306
30280W        W  880  11.870   9.125  14.876
30281W        W  881  42.415  25.994  14.730
30282W        W  882  29.927   2.307   0.288
30283W        W  883  33.638  18.982  14.900
30284W        W  884  25.385  16.949  12.184
30285W        W  885  42.682  39.286   4.033
30286W        W  886   4.680  37.811   1.805
30287W        W  887  25.714  32.470   1.743
30288W        W  888  37.058   6.244  11.444
30289W        W  889   3.196  43.250   1.170
30290W        W  890   4.863  29.498  10.637
30291W        W  891   5.315   3.500  11.555
30292W        W  892  43.820   7.383  12.909
30293W        W  893  19.658  28.992  10.761
30294W        W  894  38.818  31.701   3.699
30295W        W  895  18.330  12.435  11.051
30296W        W  896  12.287  15.165  13.923
30297W        W  897  29.423  19.315   0.751
30298W        W  898   0.423  22.658   0.404
30299W        W  899  14.671  36.926   1.764
30300W        W  900   2.818  18.257   1.360
30301W        W  901   1.829  12.686  10.783
30302W        W  902   5.425  21.145  11.145
30303W        W  903  14.278  35.505  13.156
30304W        W  904   7.565  30.116  13.278
30305W        W  905  33.562  14.855  14.741
30306W        W  906  35.657  41.534  12.040
30307W        W  907  18.374  42.374  10.421
30308W        W  908  41.544   7.754   3.635
30309W        W  909  32.051  17.694  13.884
30310W        W  910  18.580  20.178  10.626
30311W        W  911  28.437  18.378  12.467
30312W        W  912  40.536  19.263   1.382
30313W        W  913  11.610  18.824  14.905
30314W        W  914  23.290  40.832   4.661
30315W        W  915   4.233   4.462   2.362
30316W        W  916  32.977  16.752  12.437
30317W        W  917  22.693  43.484   4.174
30318W        W  918  29.575  26.736  13.370
30319W        W  919   4.467   0.782  11.921
30320W        W  920  37.103  17.104  12.624
30321W        W  921  26.165   0.856  12.195
30322W        W  922  21.902  31.474  11.564
30323W        W  923  15.901  38.913   2.196
30324W        W  924  24.119  37.184   3.267
30325W        W  925  20.626   2.410  10.631
30326W        W  926  26.181   7.901   0.222
30327W        W  927   1.531   0.286   4.550
30328W        W  928  10.405  21.502   3.739
30329W        W  929   1.693  28.198  12.622
30330W        W  930  20.195  14.211   0.311
30331W        W  931  14.982  13.085   1.537
30332W        W  932  10.631  20.702   3.281
30333W        W  933  32.069   3.766   4.243
30334W        W  934  19.294  12.668  10.878
30335W        W  935  16.661   9.125   2.280
30336W        W  936  37.354   6.202   1.392
30337W        W  937  16.582   6.865  11.087
30338W        W  938  19.653  35.908   4.596
30339W        W  939   3.685   7.395  11.933
30340W        W  940  41.429  36.734   2.348
30341W        W  941  32.039  11.144  10.581
30342W        W  942  21.654   3.353  10.711
30343W        W  943  41.906  27.697  14.763
30344W        W  944  43.199  44.811  11.467
30345W        W  945  26.964  38.351   3.466
30346W        W  946  19.603  10.181   2.209
30347W        W  947  37.446  27.326   1.769
30348W        W  948   8.897  30.156  11.633
30349W        W  949   1.815  20.086   1.793
30350W        W  950  25.565  37.027  11.463
30351W        W  951   2.627   3.947   4.104
30352W        W  952  20.986  39.130  13.862
30353W        W  953  19.582  39.298  12.912
30354W        W  954   3.036  16.533  12.156
30355W        W  955  42.829  36.639  13.907
30356W        W  956  41.350  28.403   0.282
30357W        W  957  13.330  17.838  10.436
30358W        W  958  36.793  16.516  11.419
30359W        W  959  10.376  30.976   1.842
30360W        W  960  16.739  13.363  13.332
30361W        W  961  18.037  31.965  11.669
30362W        W  962   3.196  32.841  11.537
30363W        W  963  40.449  30.329  13.478
30364W        W  964  28.443   3.495   3.346
30365W        W  965   4.399  20.857  14.753
30366W        W  966  44.291  24.382   3.238
30367W        W  967  34.683   0.765   3.577
30368W        W  968  33.423   7.124  12.834
30369W        W  969  34.765  34.042  11.683
30370W        W  970  40.930   0.422  13.074
30371W        W  971   6.391  40.991  11.212
30372W        W  972  23.823   9.312   5.135
30373W        W  973  41.029  33.381   3.812
30374W        W  974  36.263  41.211   2.224
30375W        W  975  43.953  38.104   2.005
30376W        W  976  23.010  39.449  13.556
30377W        W  977  43.612  44.269  13.456
30378W        W  978  18.490  18.276  11.595
30379W        W  979  34.304  40.946  11.281
30380W        W  980   0.227  30.943  14.427
30381W        W  981  38.992   1.867  14.481
30382W        W  982  43.793  36.145  14.288
30383W        W  983  17.576   2.636   1.290
30384W        W  984  12.636  11.640  12.483
30385W        W  985   5.137  44.283   2.318
30386W        W  986   8.115  16.111   4.691
30387W        W  987   5.724  39.465  10.659
30388W        W  988  44.751   5.202  12.757
30389W        W  989  11.627   2.623   4.974
30390W        W  990   0.446  14.899  12.946
30391W        W  991   4.357   6.356   4.865
30392W        W  992  44.518  21.935  12.861
30393W        W  993  31.460  23.997  11.571
30394W        W  994  24.213  22.562  12.584
30395W        W  995  24.972  13.540   3.397
30396W        W  996   9.995  27.158   4.843
30397W        W  997  30.881  34.445  10.280
30398W        W  998  37.328  42.519   0.833
30399W        W  999  15.653  21.657  13.577
30400W        W 1000   4.897  11.427  11.126
30401W        W 1001  40.702  32.994   3.870
30402W        W 1002  42.580  38.482   3.383
30403W        W 1003  20.945  18.369  11.623
30404W        W 1004  23.409  26.245  14.959
30405W        W 1005  19.734  38.765  14.010
30406W        W 1006   8.730   9.870  10.562
30407W        W 1007  36.807   5.378   3.632
30408W        W 1008   2.505   7.400  12.603
30409W        W 1009  29.686  13.131  12.874
30410W        W 1010  35.544   8.946   0.269
30411W        W 1011  27.799  41.294   5.574
30412W        W 1012  12.800   4.819  10.921
30413W        W 1013  15.803  22.583   1.438
30414W        W 1014  16.051   9.962   0.247
30415W        W 1015  18.977  10.894  11.986
30416W        W 1016  36.886  37.366   9.944
30417W        W 1017  21.901  29.546   2.292
30418W        W 1018  38.512  37.074  12.132
30419W        W 1019  40.013  35.508   4.436
30420W        W 1020  38.924   2.686  13.429
30421W        W 1021   7.922  26.470   0.766
30422W        W 1022  24.556  17.030   1.290
30423W        W 1023   0.307  28.069   1.058
30424W        W 1024   4.797  34.024  13.217
30425W        W 1025  27.260  19.480  11.441
30426W        W 1026  39.828  15.604   3.299
30427W        W 1027  17.195   7.468  14.766
30428W        W 1028   2.133  43.193  13.803
30429W        W 1029  32.209   5.849  14.845
30430W        W 1030  24.782  14.854   0.335
30431W        W 1031  27.144  38.916   4.648
30432W        W 1032  24.939   7.553   1.730
30433W        W 1033  18.692  13.303  14.346
30434W        W 1034  21.001  18.798  14.384
30435W        W 1035  19.262  24.084  14.494
30436W        W 1036  13.592   1.862   2.671
30437W        W 1037  39.461  40.269   4.521
30438W        W 1038   2.229  27.626  11.701
30439W        W 1039  18.745  24.179  10.263
30440W        W 1040   5.926  23.797  14.496
30441W        W 1041  36.945  13.672   0.539
30442W        W 1042  35.688   2.749  12.037
30443W        W 1043  43.580  20.243  14.503
30444W        W 1044  10.620   6.914   0.813
30445W        W 1045  23.594  41.489   3.630
30446W        W 1046  32.175  31.461   4.072
30447W        W 1047   2.804  17.238  13.069
30448W        W 1048  18.727  33.980   2.811
30449W        W 1049  23.207  34.147  12.036
30450W        W 1050  15.970   4.816   4.382
30451W        W 1051  30.068  12.278   1.918
30452W        W 1052  37.302  24.727  12.588
30453W        W 1053  36.549  21.983   2.317
30454W        W 1054   9.784  32.340  11.559
30455W        W 1055   3.049   7.444  13.423
30456W        W 1056   7.849   1.935  12.110
30457W        W 1057  25.058   7.417  14.943
30458W        W 1058   6.802  32.480   0.975
30459W        W 1059  25.332  40.907   2.586
30460W        W 1060  39.232  35.852   3.536
30461W        W 1061  10.356  36.084  14.841
30462W        W 1062   5.259  27.113   1.668
30463W        W 1063  31.085  29.214  12.609
30464W        W 1064   7.117   1.955   3.573
30465W        W 1065  32.498   0.424  10.920
30466W        W 1066  37.714  26.000   4.750
30467W        W 1067   1.971  35.456  11.924
30468W        W 1068  19.962  30.797   5.055
30469W        W 1069  19.085  12.232   0.390
30470W        W 1070  24.286  37.564  12.446
30471W        W 1071   0.446  41.493   1.203
30472W        W 1072  17.551  15.078   4.945
30473W        W 1073   7.337  19.503   0.333
30474W        W 1074  40.292  19.247  12.090
30475W        W 1075  25.300  18.061  12.957
30476W        W 1076  35.395   6.483   0.330
30477W        W 1077  27.950  32.500  12.120
30478W        W 1078  33.197  16.175   4.177
30479W        W 1079  24.355  14.806  12.482
30480W        W 1080  19.634  26.219   2.316
30481W        W 1081   2.257  10.327   3.985
30482W        W 1082  33.360   4.433  10.266
30483W        W 1083  40.326   6.811   1.421
30484W        W 1084   2.638   7.689   2.875
30485W        W 1085  39.583   6.907  14.061
30486W        W 1086  25.949  25.527   2.782
30487W        W 1087  39.025  21.951  12.613
30488W        W 1088  26.620  35.921  12.438
30489W        W 1089  15.662   0.276   2.945
30490W        W 1090  40.318  33.587   1.334
30491W        W 1091  38.962  40.372   4.610
30492W        W 1092  17.214   8.444  10.419
30493W        W 1093  40.149  29.076   2.206
30494W        W 1094  26.666  33.041  13.886
30495W        W 1095   4.008  17.996   2.620
30496W        W 1096   3.313   3.500  14.307
30497W        W 1097  32.043  40.429  14.976
30498W        W 1098  41.126  11.450   4.758
30499W        W 1099   8.301  36.257   1.850
30500W        W 1100   6.809  11.589  12.512
30501W        W 1101  42.176   9.914  11.122
30502W        W 1102   5.454  33.227   1.746
30503W        W 1103   9.396  15.382   1.631
30504W        W 1104   0.897  24.455   5.027
30505W        W 1105  10.719  12.796   2.199
30506W        W 1106  27.195  19.477   4.978
30507W        W 1107  28.560  35.969   2.883
30508W        W 1108  11.441  32.120  13.641
30509W        W 1109   7.890  17.410  10.204
30510W        W 1110  14.083  18.508   4.595
30511W        W 1111  19.715  13.031   2.331
30512W        W 1112  31.660  28.615   4.586
30513W        W 1113  17.726  20.470   2.738
30514W        W 1114  17.873   3.198  10.852
30515W        W 1115  42.399   1.791   0.310
30516W        W 1116  15.182  14.713  13.506
30517W        W 1117   9.643  44.948  11.035
30518W        W 1118   1.399  31.006   3.163
30519W        W 1119  37.528  38.002  11.573
30520W        W 1120   5.835   5.102   1.818
30521W        W 1121   6.903   6.424   1.394
30522W        W 1122  37.775  36.859   3.722
30523W        W 1123   2.057  37.921  11.343
30524W        W 1124   6.270  16.507   2.284
30525W        W 1125  36.979  16.813  13.350
30526W        W 1126   0.306  19.046   4.767
30527W        W 1127   4.729  42.356  12.978
30528W        W 1128  31.139  25.734  11.697
30529W        W 1129  19.620  44.260   1.355
30530W        W 1130   0.803  44.529   2.862
30531W        W 1131  20.693  41.166  12.575
30532W        W 1132   1.127  15.212  14.999
30533W        W 1133  17.058  26.016   1.258
30534W        W 1134  38.345  32.877   3.644
30535W        W 1135  24.169  15.643   0.526
30536W        W 1136  44.953  38.984   1.223
30537W        W 1137  11.875  33.465  13.441
30538W        W 1138   7.260  10.160  10.287
30539W        W 1139   1.252  42.570  11.042
30540W        W 1140  31.372  21.315  12.572
30541W        W 1141  12.588  23.867   3.278
30542W        W 1142  24.921  24.830  12.030
30543W        W 1143  11.805  21.478  12.414
30544W        W 1144  12.763   2.792  13.403
30545W        W 1145   3.080  39.862   3.618
30546W        W 1146  12.759  36.530  10.794
30547W        W 1147  37.501  15.179  11.584
30548W        W 1148  17.377   0.149  12.334
30549W        W 1149  19.338  26.759   0.820
30550W        W 1150  32.330  19.017   0.781
30551W        W 1151  21.730  33.630   3.176
30552W        W 1152  19.595  35.774  14.872
30553W        W 1153  43.348  18.698  13.491
30554W        W 1154  27.447   5.370  14.812
30555W        W 1155  17.577  18.602   2.681
30556W        W 1156  33.093  28.520  10.487
30557W        W 1157  33.105   5.900   4.283
30558W        W 1158   4.812  10.328   4.436
30559W        W 1159  12.067  28.992   4.643
30560W        W 1160  30.477  21.584   1.924
30561W        W 1161   3.867  41.505  11.598
30562W        W 1162   2.696  14.262  11.025
30563W        W 1163  15.663  13.423   3.237
30564W        W 1164  19.120  26.902  11.540
30565W        W 1165   5.511  32.151   4.086
30566W        W 1166  15.559  39.914  12.635
30567W        W 1167  15.616  26.509  10.325
30568W        W 1168  32.876  35.622   2.831
30569W        W 1169   8.293  28.789  12.310
30570W        W 1170  35.804  31.859  14.127
30571W        W 1171  11.537  42.123  13.148
30572W        W 1172  21.226  18.212   4.198
30573W        W 1173  23.059  33.802   3.671
30574W        W 1174  15.352  34.857   3.039
30575W        W 1175  13.994  37.258  14.362
30576W        W 1176  42.286  28.650   0.979
30577W        W 1177   6.143  15.565   1.767
30578W        W 1178  32.606  42.645   1.519
30579W        W 1179   3.289  20.076   3.153
30580W        W 1180  18.233  43.022  13.790
30581W        W 1181   4.155  19.283   0.207
30582W        W 1182  22.569  34.366   2.275
30583W        W 1183  42.388  23.317   2.722
30584W        W 1184  44.764  13.542   2.088
30585W        W 1185  10.023  32.397  14.388
30586W        W 1186   7.816  16.339   0.447
30587W        W 1187  22.556  19.940  13.174
30588W        W 1188  36.955  15.792   0.821
30589W        W 1189  10.314  44.055   2.613
30590W        W 1190  26.958  16.079  11.538
30591W        W 1191   4.426  10.055  13.324
30592W        W 1192   0.013  43.040  13.968
30593W        W 1193  41.462  21.440   0.577
30594W        W 1194  23.989  17.728  10.705
30595W        W 1195  26.682   7.461   2.267
30596W        W 1196  29.074  27.971   3.063
30597W        W 1197  41.570  21.761  11.182
30598W        W 1198  27.483  17.315  12.591
30599W        W 1199   3.641  44.560  12.948
30600W        W 1200   5.878  11.560  12.944
30601W        W 1201  28.547   4.487   1.018
30602W        W 1202   6.494  11.967   3.597
30603W        W 1203  20.802   1.553   1.757
30604W        W 1204  39.472   3.746  13.760
30605W        W 1205  34.403  10.241  13.949
30606W        W 1206   9.236   6.125   3.274
30607W        W 1207  27.396  28.087  12.563
30608W        W 1208  25.663  23.035  11.473
30609W        W 1209   2.898   7.296  11.685
30610W        W 1210  11.136  29.473  14.129
30611W        W 1211  19.660  24.648  12.475
30612W        W 1212  37.496  22.009  10.757
30613W        W 1213   7.134  33.604  12.199
30614W        W 1214   4.741   8.825   1.187
30615W        W 1215   5.647   9.396   1.985
30616W        W 1216  19.215  36.590   3.856
30617W        W 1217  24.023  32.647   3.161
30618W        W 1218  11.321   5.092   1.284
30619W        W 1219  17.799  23.012   2.731
30620W        W 1220   6.535  32.417   1.421
30621W        W 1221  18.916  21.038   1.083
30622W        W 1222  41.428  28.620  11.830
30623W        W 1223   8.978  44.264   1.827
30624W        W 1224  39.867  13.281   0.850
30625W        W 1225  31.873  40.404  13.945
30626W        W 1226  12.873   5.916  12.503
30627W        W 1227   1.380  41.170   4.246
30628W        W 1228  41.609  26.055  10.555
30629W        W 1229  30.711  35.928   1.830
30630W        W 1230  23.841  18.270  10.141
30631W        W 1231  28.827  18.020  14.526
30632W        W 1232   7.730  24.533  12.046
30633W        W 1233  34.137  30.048   1.770
30634W        W 1234  18.382  14.143   1.383
30635W        W 1235  31.881   9.750  12.480
30636W        W 1236   2.905   8.103   1.936
30637W        W 1237   8.732   2.310   1.828
30638W        W 1238  35.945  21.585  12.362
30639W        W 1239  38.371  21.101  12.460
30640W        W 1240  23.188  18.683  12.483
30641W        W 1241  40.322  32.364   1.807
30642W        W 1242  11.963  23.542   4.524
30643W        W 1243  43.146   4.129   3.702
30644W        W 1244  35.138  23.057  11.834
30645W        W 1245  44.441  21.519   2.736
30646W        W 1246   6.744  19.267   0.525
30647W        W 1247  12.068  22.587  14.455
30648W        W 1248  38.477   2.028   2.591
30649W        W 1249  30.892   6.734   2.415
30650W        W 1250  29.502  28.594  12.048
30651W        W 1251  34.218   4.284   3.022
30652W        W 1252  29.571  35.918  14.066
30653W        W 1253  33.916  19.979   0.545
30654W        W 1254  42.879   7.997   1.313
30655W        W 1255  38.884  37.043   4.675
30656W        W 1256  10.111  19.775   3.241
30657W        W 1257  44.294   0.029   2.055
30658W        W 1258  38.317   4.480   2.971
30659W        W 1259  33.893  22.089  13.457
30660W        W 1260  27.047  31.882   3.068
30661W        W 1261   6.821   6.307  14.971
30662W        W 1262   5.147  25.716  12.397
30663W        W 1263  24.689  19.283  12.089
30664W        W 1264  19.427  39.465  11.110
30665W        W 1265   6.714   4.927  13.060
30666W        W 1266  27.704  13.221  12.692
30667W        W 1267  42.709  39.638   2.183
30668W        W 1268  31.381  13.934   4.169
30669W        W 1269   2.127  22.167  12.178
30670W        W 1270  41.830  33.710  11.462
30671W        W 1271  11.871  31.031   4.831
30672W        W 1272  31.505  28.425   0.989
30673W        W 1273  14.313   2.231   0.174
30674W        W 1274  23.179  12.361  10.631
30675W        W 1275  21.131   0.281   0.356
30676W        W 1276  14.812  28.680  11.426
30677W        W 1277  22.685   9.419   3.476
30678W        W 1278  41.094  19.127   0.736
30679W        W 1279  10.930  14.476  12.513
30680W        W 1280   2.276  27.223   3.167
30681W        W 1281   8.717   2.519   0.500
30682W        W 1282  10.034  25.611   2.744
30683W        W 1283  16.627  21.563   1.012
30684W        W 1284  18.640  26.207   3.474
30685W        W 1285  12.666  28.017  13.348
30686W        W 1286   4.474   4.956  12.963
30687W        W 1287   7.744  37.541   5.107
30688W        W 1288  19.829   9.502   2.753
30689W        W 1289   1.190  15.689  11.258
30690W        W 1290  35.166   6.957   3.930
30691W        W 1291  18.249   7.558   3.747
30692W        W 1292   4.241  35.139   1.357
30693W        W 1293  14.788  10.671  11.310
30694W        W 1294   0.445  23.603   0.438
30695W        W 1295  38.452  33.039   1.939
30696W        W 1296  24.057  37.071   4.155
30697W        W 1297  42.625  30.567   1.833
30698W        W 1298  36.302   7.818  13.942
30699W        W 1299  29.994  26.427  13.884
30700W        W 1300  38.553  15.779  14.975
30701W        W 1301  43.056  16.830  11.156
30702W        W 1302   4.241  44.489  13.993
30703W        W 1303  27.636  37.649   3.664
30704W        W 1304   6.014  39.670  12.879
30705W        W 1305  44.303  19.064   1.709
30706W        W 1306  26.678  41.576  11.705
30707W        W 1307  13.708  15.503  10.533
30708W        W 1308  25.831  39.057   0.133
30709W        W 1309   1.193  11.133   2.866
30710W        W 1310  19.169  10.190   0.289
30711W        W 1311  29.730  14.378   0.882
30712W        W 1312  39.885  25.564  12.911
30713W        W 1313  11.252  39.256   4.128
30714W        W 1314  24.195  22.260   0.498
30715W        W 1315  37.767  10.367  12.486
30716W        W 1316  24.213  16.500   0.026
30717W        W 1317  17.653   8.721  14.561
30718W        W 1318  25.638  23.376  14.247
30719W        W 1319  43.940  14.315  12.552
30720W        W 1320  24.572  16.827  10.695
30721W        W 1321  42.298  11.718  11.650
30722W        W 1322  43.099  10.303  14.382
30723W        W 1323  37.054  40.300   2.526
30724W        W 1324  32.909  26.938   1.885
30725W        W 1325  32.037   0.974   0.255
30726W        W 1326  24.565   3.195  12.337
30727W        W 1327  10.326  12.780  13.942
30728W        W 1328   6.358   1.068  14.980
30729W        W 1329  21.763   5.414   1.733
30730W        W 1330  15.077  34.445  14.165
30731W        W 1331  15.090  41.033   1.029
30732W        W 1332  25.000  12.854  14.159
30733W        W 1333   3.429   1.965  12.452
30734W        W 1334  13.492  20.100  13.302
30735W        W 1335   1.785   5.024  13.390
30736W        W 1336  41.592  14.089  10.709
30737W        W 1337  33.481  12.138   3.596
30738W        W 1338  20.696  15.597   3.290
30739W        W 1339  33.323  16.013  12.095
30740W        W 1340  23.141  40.327  12.488
30741W        W 1341  42.607  24.030  13.616
30742W        W 1342   5.943   6.955  10.458
30743W        W 1343   8.320  21.776   1.763
30744W        W 1344  35.990  24.196   2.300
30745W        W 1345   6.454  19.608   1.290
30746W        W 1346   1.576   0.228  11.100
30747W        W 1347   2.799   4.198   0.678
30748W        W 1348  17.240  30.841   3.209
30749W        W 1349  17.746  22.980  11.626
30750W        W 1350  28.697   2.027  14.706
30751W        W 1351   6.188   6.870  14.504
30752W        W 1352   7.729  28.999   3.276
30753W        W 1353   3.485   2.201  13.988
30754W        W 1354  23.687  40.979   1.324
30755W        W 1355  33.477  19.499  12.121
30756W        W 1356  39.341   9.913   4.939
30757W        W 1357   0.519  43.952   2.256
30758W        W 1358  41.873  14.750  13.394
30759W        W 1359  24.104   5.596  12.968
30760W        W 1360  24.457   0.577   4.659
30761W        W 1361  33.592   6.168   3.605
30762W        W 1362   5.703  19.995   0.796
30763W        W 1363  34.146  12.781  11.521
30764W        W 1364  44.432  31.138   0.527
30765W        W 1365  44.204  14.805  10.576
30766W        W 1366   0.773   8.240  12.881
30767W        W 1367  16.139  26.194   2.986
30768W        W 1368   6.885   1.989  12.546
30769W        W 1369  25.927  19.096  10.688
30770W        W 1370  39.475   1.942   3.132
30771W        W 1371   5.308   4.451  12.942
30772W        W 1372  31.122   6.284  13.372
30773W        W 1373  20.218  35.336   3.519
30774W        W 1374  12.887  37.378  14.950
30775W        W 1375   8.350  21.147   3.214
30776W        W 1376  11.260  24.559  14.805
30777W        W 1377  42.141  39.973  10.743
30778W        W 1378  24.798  16.991  13.841
30779W        W 1379  44.089  29.593  11.622
30780W        W 1380  24.181  41.772  12.162
30781W        W 1381  23.560   5.257   2.728
30782W        W 1382  20.160   0.921  10.659
30783W        W 1383   0.281  36.443   3.370
30784W        W 1384   8.484  25.096   3.774
30785W        W 1385  13.057  22.273  10.707
30786W        W 1386   9.356  26.948  11.714
30787W        W 1387   1.698  27.519  15.000
30788W        W 1388  19.130  14.359  14.511
30789W        W 1389   0.783  44.473  13.873
30790W        W 1390  10.276  27.973   2.825
30791W        W 1391   1.764  12.169  14.990
30792W        W 1392  31.038   4.332   2.382
30793W        W 1393  24.246  14.220   4.579
30794W        W 1394   7.059  15.547   4.308
30795W        W 1395  10.333  41.773  10.450
30796W        W 1396  43.814  35.440  11.291
30797W        W 1397   4.398  17.299  13.979
30798W        W 1398  23.722   2.502  10.520
30799W        W 1399  30.338  43.286   1.286
30800W        W 1400   3.530   7.373   3.782
30801W        W 1401  42.698   9.438  11.999
30802W        W 1402   3.836  28.876   1.438
30803W        W 1403  10.975  17.630   2.690
30804W        W 1404  24.058  20.347  11.545
30805W        W 1405  38.594  11.466   1.551
30806W        W 1406  16.263   3.718   0.775
30807W        W 1407  29.450  26.736  14.300
30808W        W 1408  26.573  20.680   0.094
30809W        W 1409  18.183   0.832   4.635
30810W        W 1410  30.803  38.704  11.580
30811W        W 1411  11.785  30.007  14.709
30812W        W 1412  20.367  39.575   1.730
30813W        W 1413  38.560   3.944   1.879
30814W        W 1414  22.701  15.373   3.154
30815W        W 1415  11.895  15.096   3.309
30816W        W 1416  25.040  10.275  11.066
30817W        W 1417   4.826   3.492   0.327
30818W        W 1418  28.758  12.714  14.298
30819W        W 1419  11.783  31.929  10.766
30820W        W 1420  25.965  33.028   1.271
30821W        W 1421   7.890  42.442  14.330
30822W        W 1422  43.514   5.469  11.424
30823W        W 1423  29.807  42.329  12.960
30824W        W 1424  43.178  29.513   2.260
30825W        W 1425  10.490  12.207   3.662
30826W        W 1426  12.912  27.793   3.690
30827W        W 1427  27.943  38.506  12.879
30828W        W 1428  16.637  20.316   1.269
30829W        W 1429   0.701  35.433   4.091
30830W        W 1430  30.956  12.547   2.394
30831W        W 1431  17.805   6.208   2.815
30832W        W 1432   1.705  21.362   1.340
30833W        W 1433  33.126  39.639  12.281
30834W        W 1434  41.315  40.980   4.331
30835W        W 1435  25.522  33.161  14.465
30836W        W 1436  39.276  41.499  14.378
30837W        W 1437  20.738   4.809   4.167
30838W        W 1438  16.019  37.515  12.445
30839W        W 1439  13.916  22.555   0.400
30840W        W 1440  42.027  40.362   3.647
30841W        W 1441   1.825  23.468  11.610
30842W        W 1442  15.229  43.316   2.194
30843W        W 1443  11.779  34.222  13.935
30844W        W 1444  15.507  18.404  14.810
30845W        W 1445  31.947  34.059   0.077
30846W        W 1446  15.732  18.950  11.709
30847W        W 1447   4.754  13.764  11.763
30848W        W 1448  35.192  18.648  14.588
30849W        W 1449  36.885  42.683  13.391
30850W        W 1450  38.822  20.982  13.436
30851W        W 1451  10.470  14.182  13.977
30852W        W 1452  28.339  39.933   2.649
30853W        W 1453  14.721  38.619   3.145
30854W        W 1454  33.031  21.306  14.880
30855W        W 1455  16.376   0.057  12.446
30856W        W 1456   0.840   3.418   0.647
30857W        W 1457   6.882  24.192   3.800
30858W        W 1458  33.091   5.681  14.468
30859W        W 1459  25.158   1.194  10.407
30860W        W 1460  20.167   6.373  12.806
30861W        W 1461  13.788  24.648   4.619
30862W        W 1462  11.707  41.735  11.225
30863W        W 1463  40.457  42.890  14.891
30864W        W 1464  43.525  43.144  13.025
30865W        W 1465  24.997  25.631   4.611
30866W        W 1466   5.185  23.235   2.706
30867W        W 1467   2.817  24.824   4.213
30868W        W 1468  41.125  17.007  12.969
30869W        W 1469  42.696  19.971   5.313
30870W        W 1470   5.172  36.967   0.892
30871W        W 1471  31.148  34.596   2.243
30872W        W 1472  10.777  22.500   2.314
30873W        W 1473  25.556   7.207  11.638
30874W        W 1474   7.728  42.781   2.966
30875W        W 1475  18.411  21.098   1.927
30876W        W 1476  39.001  41.315   2.738
30877W        W 1477  38.076  15.864   1.784
30878W        W 1478  44.370  31.664  10.698
30879W        W 1479  18.774  43.424   3.277
30880W        W 1480   9.091   3.369   4.597
30881W        W 1481  22.099  27.106   2.911
30882W        W 1482  37.696  11.187   0.703
30883W        W 1483  36.495  44.466  10.622
30884W        W 1484  24.817  32.384   0.455
30885W        W 1485  19.885  28.896  13.916
30886W        W 1486  30.861  16.350   2.625
30887W        W 1487   0.869  35.872  12.482
30888W        W 1488   7.373  44.691   3.227
30889W        W 1489  32.675  34.976  11.698
30890W        W 1490  40.887  44.337   0.730
30891W        W 1491  34.424  27.524   2.464
30892W        W 1492   2.673  14.752   4.160
30893W        W 1493   5.215  44.341  13.989
30894W        W 1494  33.984  40.036  11.629
30895W        W 1495   3.571   8.408   2.745
30896W        W 1496   1.083  27.503  12.577
30897W        W 1497  35.652   6.429   1.838
30898W        W 1498   6.195   6.972  12.454
30899W        W 1499  26.092  13.715  13.125
30900W        W 1500  21.007  17.637   1.849
30901W        W 1501  26.982  24.164   3.180
30902W        W 1502  20.698  38.950  14.284
30903W        W 1503  31.114   7.420  12.650
30904W        W 1504  26.661  18.318  12.648
30905W        W 1505  32.538   3.752  11.892
30906W        W 1506  12.359  31.864  11.625
30907W        W 1507  31.567   6.199   3.726
30908W        W 1508  14.240   3.852   4.896
30909W        W 1509  25.731  28.575  12.346
30910W        W 1510   3.823  39.251  12.560
30911W        W 1511  17.185   6.020   2.652
30912W        W 1512   8.917  28.769   2.135
30913W        W 1513  42.768  21.023  11.612
30914W        W 1514   4.287   1.922   4.661
30915W        W 1515   5.256  17.346  14.955
30916W        W 1516  23.187  10.707  13.429
30917W        W 1517  12.782   5.355  12.534
30918W        W 1518   6.383  35.026  11.021
30919W        W 1519   7.156   7.707   2.466
30920W        W 1520  41.139   3.827  14.888
30921W        W 1521  18.804  28.157   4.622
30922W        W 1522  13.713  42.387  12.874
30923W        W 1523   4.395  41.271   2.688
30924W        W 1524  24.922  25.206  13.763
30925W        W 1525  33.216  16.767   3.755
30926W        W 1526  42.612  34.596  11.822
30927W        W 1527  25.881   0.217  13.016
30928W        W 1528  27.698   4.904   1.316
30929W        W 1529   8.451  26.576  10.972
30930W        W 1530  11.322   6.928  12.155
30931W        W 1531  35.011  28.465   0.166
30932W        W 1532  26.548  30.372  11.305
30933W        W 1533  32.764  15.321   4.864
30934W        W 1534  18.766  31.147  14.507
30935W        W 1535  18.188  43.637   0.136
30936W        W 1536   4.663  33.410   0.810
30937W        W 1537  41.633  21.233   2.844
30938W        W 1538  18.312  39.520  12.528
30939W        W 1539  38.824  14.478  11.632
30940W        W 1540  41.351  38.331  13.479
30941W        W 1541   5.876  24.825   4.031
30942W        W 1542  15.693  27.469  14.234
30943W        W 1543  43.370  38.996   4.126
30944W        W 1544  35.594  36.225   2.688
30945W        W 1545  44.371   1.443  10.585
30946W        W 1546   6.891   0.903   1.662
30947W        W 1547  11.003  32.970   1.981
30948W        W 1548  10.268  34.639   1.706
30949W        W 1549  32.449  20.180   4.158
30950W        W 1550  35.150  37.459  13.391
30951W        W 1551  37.086  12.230  11.074
30952W        W 1552  22.011  38.502   4.541
30953W        W 1553  34.686  12.947  13.278
30954W        W 1554  40.248  13.442  12.085
30955W        W 1555  24.462  18.389   0.298
30956W        W 1556  28.881  35.913   3.293
30957W        W 1557   5.160  43.757   2.219
30958W        W 1558  38.435  24.409  13.384
30959W        W 1559   7.871  39.855  13.332
30960W        W 1560  39.996  36.949  14.280
30961W        W 1561   9.845  19.589   1.029
30962W        W 1562  13.343   2.263   0.427
30963W        W 1563  26.941  34.613  12.115
30964W        W 1564   2.181  18.963  13.783
30965W        W 1565  12.854  26.907  11.845
30966W        W 1566   3.406  23.618   4.780
30967W        W 1567  41.383  29.977   4.621
30968W        W 1568  38.781  31.977   1.339
30969W        W 1569  40.189   1.343   3.142
30970W        W 1570  18.077  33.305   3.166
30971W        W 1571  30.095  26.069   3.714
30972W        W 1572   0.002  44.567  13.331
30973W        W 1573  17.689  42.526  13.639
30974W        W 1574  21.640  10.914  13.904
30975W        W 1575  37.292  13.499  12.362
30976W        W 1576  37.918  35.252   4.498
30977W        W 1577  23.171  43.932   3.614
30978W        W 1578  37.725   7.451   4.597
30979W        W 1579  21.129  43.437   4.507
30980W        W 1580  16.645  19.007  11.428
30981W        W 1581  21.697  10.357  13.072
30982W        W 1582  25.287  15.039   1.001
30983W        W 1583  36.623  25.269   2.778
30984W        W 1584  17.377  41.430   3.222
30985W        W 1585  40.958  13.997  11.561
30986W        W 1586  41.084   2.270  14.846
30987W        W 1587   0.923  34.625   2.760
30988W        W 1588  30.630  11.863   3.098
30989W        W 1589  32.325  28.926   1.916
30990W        W 1590  19.192  11.343   4.760
30991W        W 1591  36.123  41.801  14.294
30992W        W 1592  27.607  18.244  10.618
30993W        W 1593   9.886  30.599   1.912
30994W        W 1594  33.649  22.422   1.271
30995W        W 1595  43.075   3.386  11.655
30996W        W 1596  32.926  26.248   0.453
30997W        W 1597  32.427  26.885   4.198
30998W        W 1598  29.975  21.509  11.639
30999W        W 1599  15.587   7.076   3.999
31000W        W 1600  13.834  32.655   1.816
31001W        W 1601  32.483   0.781  14.410
31002W        W 1602  31.365  44.344  12.862
31003W        W 1603  28.527   9.459   1.711
31004W        W 1604  41.468  27.201   4.383
31005W        W 1605   1.249   1.697  14.962
31006W        W 1606  37.626  32.175   4.528
31007W        W 1607  38.441   4.847   0.795
31008W        W 1608  32.022  14.954   0.599
31009W        W 1609  37.901  10.679  13.498
31010W        W 1610  34.684  27.114   2.970
31011W        W 1611  35.771  18.238   0.359
31012W        W 1612  40.529  23.298  14.985
31013W        W 1613  13.751  29.691  10.685
31014W        W 1614  21.756   5.418  10.415
31015W        W 1615  24.949  43.455   1.897
31016W        W 1616  27.963   4.481   2.349
31017W        W 1617   4.664  29.921  12.422
31018W        W 1618  11.324  33.785   0.792
31019W        W 1619  33.274  11.122   4.541
31020W        W 1620   2.777  29.029  12.619
31021W        W 1621  30.732  12.032   0.297
31022W        W 1622  27.193  28.553  11.093
31023W        W 1623  26.030  34.496  14.351
31024W        W 1624  37.746   0.197   1.060
31025W        W 1625  12.520  13.292   5.064
31026W        W 1626  41.351   5.275  14.279
31027W        W 1627  19.462  25.113   3.196
31028W        W 1628  19.515   0.904   1.761
31029W        W 1629   5.914  37.350  11.060
31030W        W 1630  28.078   9.383   3.728
31031W        W 1631   9.581   0.959   2.306
31032W        W 1632  29.354  42.603  14.244
31033W        W 1633   5.040  27.537  11.608
31034W        W 1634  31.646  34.593  12.938
31035W        W 1635  26.894  23.433   2.639
31036W        W 1636  39.429  18.336  13.322
31037W        W 1637   2.403  19.293  12.042
31038W        W 1638  19.885  37.637   1.834
31039W        W 1639  26.114  14.123  14.813
31040W        W 1640  22.670  37.405   1.753
31041W        W 1641  14.234  37.085   2.799
31042W        W 1642  41.288  40.957  13.866
31043W        W 1643  43.196  36.831  11.716
31044W        W 1644  25.438  32.129  10.171
31045W        W 1645  16.232   1.550   2.820
31046W        W 1646  15.612  19.151   3.627
31047W        W 1647  22.286  43.202   5.082
31048W        W 1648  37.539  35.989   4.185
31049W        W 1649  11.703  24.392  13.736
31050W        W 1650  39.862   4.930  13.879
31051W        W 1651  26.937  22.123  14.038
31052W        W 1652   3.400  26.710   3.061
31053W        W 1653  22.755  24.499   0.841
31054W        W 1654  24.685  17.722  11.337
31055W        W 1655  13.348   1.340   4.235
31056W        W 1656  28.140   9.923   1.277
31057W        W 1657  30.416  25.657   3.707
31058W        W 1658  32.136  20.083   0.491
31059W        W 1659  36.135  40.719  11.934
31060W        W 1660  30.573  28.331  13.508
31061W        W 1661  20.509   3.648   3.397
31062W        W 1662  12.089  22.069   0.967
31063W        W 1663  26.097  36.627  11.501
31064W        W 1664  30.636   6.370  13.144
31065W        W 1665   9.257  30.497   0.080
31066W        W 1666  38.565  36.591   3.673
31067W        W 1667  44.030  39.458  13.399
31068W        W 1668  21.746  27.315   0.760
31069W        W 1669   9.924  22.244  10.706
31070W        W 1670  11.563   6.138  13.535
31071W        W 1671  20.487  31.121   1.683
31072W        W 1672  19.005  39.057   0.641
31073W        W 1673  42.364  44.293   0.776
31074W        W 1674   0.410  44.034   4.152
31075W        W 1675  15.358  13.829  12.048
31076W        W 1676  43.735   4.149  13.138
31077W        W 1677   9.625  28.955   4.629
31078W        W 1678  36.103  29.971   3.674
31079W        W 1679  11.065  22.678  11.971
31080W        W 1680  16.368  17.601   4.603
31081W        W 1681   2.222  18.758  12.023
31082W        W 1682  18.199  43.214   1.018
31083W        W 1683   2.438   2.715   3.329
31084W        W 1684  18.521  22.081   2.672
31085W        W 1685   4.947   3.735  10.371
31086W        W 1686   7.395  36.598  12.020
31087W        W 1687  38.545  19.127   1.708
31088W        W 1688   3.260  39.845   4.924
31089W        W 1689  38.981  43.291   2.041
31090W        W 1690   4.629   4.273  10.273
31091W        W 1691  13.658  19.240  13.155
31092W        W 1692  39.855  25.422  12.078
31093W        W 1693  32.996  17.243   1.532
31094W        W 1694  10.148  25.354  11.147
31095W        W 1695   5.839  35.535  13.447
31096W        W 1696  39.295  23.456   0.580
31097W        W 1697  33.996  10.432  11.132
31098W        W 1698   9.670  17.795   4.515
31099W        W 1699  26.956  22.982   0.699
31100W        W 1700  23.395  29.410  12.150
31101W        W 1701  18.755  39.974  11.502
31102W        W 1702  38.832  41.820   4.597
31103W        W 1703  37.582  23.111   4.251
31104W        W 1704   1.846  36.844   4.430
31105W        W 1705   7.937  10.792  14.807
31106W        W 1706  26.192   4.849   0.226
31107W        W 1707  16.769   0.829   2.752
31108W        W 1708   8.892   0.526   4.522
31109W        W 1709  20.095   7.158   3.874
31110W        W 1710  28.722   4.716  10.080
31111W        W 1711  10.657  38.016  12.889
31112W        W 1712   4.677  43.444   0.935
31113W        W 1713  29.251  25.140   3.137
31114W        W 1714  31.049  21.090  12.928
31115W        W 1715  42.753  31.620  14.475
31116W        W 1716  10.016  39.578   1.892
31117W        W 1717  28.610  23.572   1.813
31118W        W 1718  14.128   3.316  11.493
31119W        W 1719  25.205   6.079  12.083
31120W        W 1720  43.289   7.742   2.807
31121W        W 1721  35.851  13.352   2.066
31122W        W 1722   0.883  30.683   1.207
31123W        W 1723   9.897  32.730   2.274
31124W        W 1724   0.258  33.302  13.879
31125W        W 1725  33.482  21.262  12.445
31126W        W 1726  26.342  17.236   3.257
31127W        W 1727  41.081  21.159  14.717
31128W        W 1728  33.519  21.686   3.333
31129W        W 1729   7.216   8.796   4.531
31130W        W 1730  27.836   8.887   2.894
31131W        W 1731  41.954   2.658   0.834
31132W        W 1732  34.970  14.044   1.485
31133W        W 1733  42.518  38.338  13.985
31134W        W 1734   9.417  36.579  14.357
31135W        W 1735  12.667  41.696  10.654
31136W        W 1736  44.732  42.763  11.741
31137W        W 1737  35.350  16.420  11.639
31138W        W 1738  36.139   6.381   1.016
31139W        W 1739  29.933   4.362   3.810
31140W        W 1740  44.975  28.004  10.708
31141W        W 1741   7.440   6.389   0.792
31142W        W 1742  32.664  26.694   3.644
31143W        W 1743   0.844  42.860   1.202
31144W        W 1744  17.230   0.864   1.378
31145W        W 1745  39.508   0.467   2.287
31146W        W 1746  32.310  30.241   4.583
31147W        W 1747  35.543  10.183   4.559
31148W        W 1748  10.262   8.189   3.230
31149W        W 1749  24.971   4.558   2.232
31150W        W 1750  40.997   8.472  10.715
31151W        W 1751  26.561  30.373   0.807
31152W        W 1752   3.172  36.781  11.542
31153W        W 1753  38.903  19.987  10.120
31154W        W 1754  11.141  13.426   2.817
31155W        W 1755   2.247  22.605   9.974
31156W        W 1756  12.250  40.416  13.005
31157W        W 1757  26.117  25.523  12.095
31158W        W 1758   9.759   2.918  12.632
31159W        W 1759  35.844   1.203   1.651
31160W        W 1760  31.662  32.923   3.254
31161W        W 1761  21.624   9.216  13.291
31162W        W 1762  25.730  40.364   4.205
31163W        W 1763  29.405  40.582  14.963
31164W        W 1764  41.338  44.351   1.472
31165W        W 1765  42.899   2.522   3.630
31166W        W 1766  43.282  19.656   1.217
31167W        W 1767  15.115  17.724  13.928
31168W        W 1768  16.756  39.044  11.012
31169W        W 1769  35.324   3.127  14.891
31170W        W 1770  18.383   0.498  14.855
31171W        W 1771  38.301  27.477   3.931
31172W        W 1772  22.477   9.162   1.716
31173W        W 1773   1.149  33.363  10.913
31174W        W 1774   7.345  21.905   0.379
31175W        W 1775   1.019  16.325   2.667
31176W        W 1776   5.514  10.479   3.622
31177W        W 1777  38.653  24.226  11.573
31178W        W 1778  14.357  42.420  12.437
31179W        W 1779   1.240   7.381   3.298
31180W        W 1780  19.800  44.844   4.548
31181W        W 1781  43.309  33.090   3.296
31182W        W 1782  14.300  32.936  12.237
31183W        W 1783   6.671   5.370  12.622
31184W        W 1784  40.179  14.592   3.413
31185W        W 1785   9.868   8.506   3.247
31186W        W 1786  25.276  28.808  11.183
31187W        W 1787  34.586  22.129  12.324
31188W        W 1788  28.744  25.836   3.080
31189W        W 1789  42.877   6.939   3.586
31190W        W 1790   4.894   7.483  13.416
31191W        W 1791  11.795  41.466  10.717
31192W        W 1792   0.256   1.992   0.902
31193W        W 1793  35.086  44.375   2.746
31194W        W 1794  16.364  44.207  11.280
31195W        W 1795  44.874  13.585  13.806
31196W        W 1796  40.284  21.567  14.245
31197W        W 1797   9.262   9.396   0.566
31198W        W 1798   3.202   0.819  14.561
31199W        W 1799   7.280  23.439  10.736
31200W        W 1800  22.954   0.027   3.853
31201W        W 1801  14.690  15.688   0.699
31202W        W 1802  37.903   4.441   4.608
31203W        W 1803  40.871   9.617  13.915
31204W        W 1804  30.116   0.356  14.463
31205W        W 1805   7.667  33.486  12.960
31206W        W 1806  43.338  35.401   3.203
31207W        W 1807  19.563  38.300  14.166
31208W        W 1808  13.407  38.137   2.384
31209W        W 1809  21.431  20.066  11.162
31210W        W 1810   1.206   9.825   1.646
31211W        W 1811  25.794  35.309   1.197
31212W        W 1812   5.803   8.838   3.063
31213W        W 1813  30.245  22.128  10.617
31214W        W 1814  29.635  16.707  14.053
31215W        W 1815  32.896  31.484   3.533
31216W        W 1816  22.733  15.698   0.948
31217W        W 1817  13.435   9.819  12.193
31218W        W 1818   3.475  16.980   5.100
31219W        W 1819  35.396  16.215  12.927
31220W        W 1820  25.792  16.026   2.125
31221W        W 1821  36.808   1.902  10.794
31222W        W 1822  32.938   8.385   4.753
31223W        W 1823  28.886  21.154   3.536
31224W        W 1824  13.839   5.626   0.648
31225W        W 1825  37.104  25.995   2.630
31226W        W 1826  14.529   5.313   3.356
31227W        W 1827  40.198  13.359  11.562
31228W        W 1828  27.279  23.322  13.365
31229W        W 1829  17.531  33.351   4.588
31230W        W 1830   3.001  15.144   1.697
31231W        W 1831  14.043  43.746   3.244
31232W        W 1832  11.850  35.783  13.498
31233W        W 1833   3.382  28.549  10.889
31234W        W 1834   8.214  14.822   2.169
31235W        W 1835  14.728  12.159   4.589
31236W        W 1836  13.168  43.717  11.937
31237W        W 1837  40.484  16.296  10.578
31238W        W 1838  39.329  29.403  13.302
31239W        W 1839  35.403  40.995   0.775
31240W        W 1840   2.895  32.375   3.891
31241W        W 1841  28.680  30.627   3.870
31242W        W 1842  20.280   1.516   1.790
31243W        W 1843   0.931  27.571   4.235
31244W        W 1844  32.916   5.060  10.785
31245W        W 1845  37.210   2.163  12.564
31246W        W 1846   4.493  29.582   1.030
31247W        W 1847  13.232  34.936  14.277
31248W        W 1848  37.777  11.625   0.448
31249W        W 1849   8.535  25.962  12.130
31250W        W 1850  31.561  33.468   2.688
31251W        W 1851  31.486   4.979  11.590
31252W        W 1852  25.131  10.071   0.310
31253W        W 1853  10.751  26.672   4.144
31254W        W 1854  17.501  37.324  12.655
31255W        W 1855  27.981  36.605  13.471
31256W        W 1856  11.956  27.392   3.751
31257W        W 1857  13.685   8.770  10.685
31258W        W 1858   4.671  15.329  11.763
31259W        W 1859  27.507  39.576  12.831
31260W        W 1860  39.909  32.844  12.670
31261W        W 1861  41.960  42.256   2.494
31262W        W 1862   9.853  37.750  12.267
31263W        W 1863  43.017  10.328  11.006
31264W        W 1864   1.223  38.761  12.743
31265W        W 1865  30.693   5.671  10.653
31266W        W 1866   4.487  29.400  14.203
31267W        W 1867  29.144  25.545   2.834
31268W        W 1868   9.395  28.992   1.294
31269W        W 1869   5.847  42.082  12.346
31270W        W 1870  33.611  22.644  13.166
31271W        W 1871  18.972  27.901  13.775
31272W        W 1872  36.248  26.485   4.529
31273W        W 1873  39.973  26.739   3.251
31274W        W 1874  13.077  16.001  14.299
31275W        W 1875  27.976  32.048  14.927
31276W        W 1876  17.433  13.162   3.669
31277W        W 1877  21.509  37.126  11.097
31278W        W 1878  41.530  38.230   4.158
31279W        W 1879  12.328  25.077  12.318
31280W        W 1880  23.753  17.387  12.239
31281W        W 1881   3.532   3.186   0.704
31282W        W 1882   7.437  11.853  11.502
31283W        W 1883  30.571   3.745   1.889
31284W        W 1884  32.555  41.001  13.823
31285W        W 1885  41.477  31.870  10.375
31286W        W 1886  29.733  17.320  10.419
31287W        W 1887  11.957   4.284  11.192
31288W        W 1888  20.990   2.790  12.124
31289W        W 1889   5.763   5.451  14.370
31290W        W 1890   8.842   7.865  12.975
31291W        W 1891  10.567   9.219  14.057
31292W        W 1892  28.625  13.127   0.237
31293W        W 1893   3.897   7.242  14.360
31294W        W 1894  13.868  21.031  10.813
31295W        W 1895  15.594   1.361   2.262
31296W        W 1896  23.242  12.359   4.495
31297W        W 1897  31.140  27.384  14.870
31298W        W 1898  14.614  20.975   0.361
31299W        W 1899  24.519  13.612  12.310
31300W        W 1900  14.252   7.073  14.897
31301W        W 1901   1.601  11.198  12.596
31302W        W 1902  19.808  44.198   2.188
31303W        W 1903  23.765  12.761  13.423
31304W        W 1904   1.417  14.083  14.399
31305W        W 1905  12.265   9.587   4.273
31306W        W 1906  19.727  27.924  13.352
31307W        W 1907   1.824  38.216  13.205
31308W        W 1908  38.924  37.904   4.752
31309W        W 1909  31.087  36.083   1.316
31310W        W 1910  21.188   4.832  11.962
31311W        W 1911  29.461  43.815   0.406
31312W        W 1912   0.457  18.546  11.116
31313W        W 1913  32.452  22.369  13.392
31314W        W 1914  41.998  18.056   2.766
31315W        W 1915   5.468  22.009  12.435
31316W        W 1916  29.059  26.604  12.500
31317W        W 1917   1.390  44.428  12.449
31318W        W 1918  15.829  12.688   3.853
31319W        W 1919   4.809   4.441  13.086
31320W        W 1920  20.100   6.362  13.304
31321W        W 1921  32.443  23.746  13.380
31322W        W 1922  43.508  17.384  11.976
31323W        W 1923   0.640  34.694   0.450
31324W        W 1924  20.548  11.905   0.147
31325W        W 1925  25.442  21.826   4.192
31326W        W 1926  21.393  29.256   1.654
31327W        W 1927  16.960  42.871  10.617
31328W        W 1928  23.570  25.888   4.407
31329W        W 1929  36.809  39.819   3.638
31330W        W 1930  43.823  33.096   3.217
31331W        W 1931  25.897  11.287  14.481
31332W        W 1932  12.990  39.562   4.121
31333W        W 1933  26.230   0.339   1.722
31334W        W 1934  28.604   6.258  10.663
31335W        W 1935  44.328  44.978  11.433
31336W        W 1936  27.213  26.676  13.851
31337W        W 1937  19.729  16.169  10.677
31338W        W 1938  29.443   0.242   3.351
31339W        W 1939  42.925   2.920  13.365
31340W        W 1940   3.462  12.071  14.304
31341W        W 1941  35.455  20.486   4.640
31342W        W 1942  23.574  35.000  11.147
31343W        W 1943  31.526  34.169   0.385
31344W        W 1944   1.382  22.315   4.656
31345W        W 1945  36.790   9.091   1.685
31346W        W 1946  14.311  37.174  13.387
31347W        W 1947  10.894  13.264  14.916
31348W        W 1948  38.025  10.285  13.800
31349W        W 1949  14.741  38.058  14.984
31350W        W 1950  15.689  18.278  10.252
31351W        W 1951  14.757   0.920   2.240
31352W        W 1952  18.172  40.197  11.353
31353W        W 1953  23.278  28.642  14.448
31354W        W 1954  43.821  19.334   3.604
31355W        W 1955   2.634   4.728  11.267
31356W        W 1956   5.989  30.025   1.687
31357W        W 1957  13.154   0.893   1.672
31358W        W 1958  35.926  30.557  12.470
31359W        W 1959  42.812  16.772   3.641
31360W        W 1960  27.576  29.445  13.342
31361W        W 1961  14.290  41.728   0.588
31362W        W 1962  36.349  31.572  11.533
31363W        W 1963  42.792  43.509   1.966
31364W        W 1964  21.051  36.121  12.147
31365W        W 1965  35.279  13.355  12.581
31366W        W 1966  10.190  30.220  12.360
31367W        W 1967  30.493   9.439   3.065
31368W        W 1968  25.860  10.156  12.487
31369W        W 1969  12.580  21.010   4.159
31370W        W 1970  11.296  17.842   3.443
31371W        W 1971   4.359   6.964  14.451
31372W        W 1972  30.403  39.950  11.191
31373W        W 1973  38.852  33.722   4.745
31374W        W 1974  40.849  37.355  12.579
31375W        W 1975  23.738  33.063   4.039
31376W        W 1976  15.060  36.281  13.505
31377W        W 1977  30.465  20.687   0.420
31378W        W 1978  22.221  18.125  13.841
31379W        W 1979  25.619  11.442  13.074
31380W        W 1980  30.927   6.833   0.034
31381W        W 1981  34.624  43.106   1.017
31382W        W 1982  32.932  35.265   4.726
31383W        W 1983   5.087  32.694  13.958
31384W        W 1984  12.818   6.603  10.778
31385W        W 1985  39.119   0.703  10.446
31386W        W 1986  26.759   1.000   4.030
31387W        W 1987   2.821   0.451  12.432
31388W        W 1988  41.244  39.248   4.066
31389W        W 1989  29.919  23.220   0.889
31390W        W 1990  13.394  32.034   2.246
31391W        W 1991  26.543   1.882   4.932
31392W        W 1992   1.166  23.582  12.775
31393W        W 1993  43.320  20.873  14.703
31394W        W 1994  39.808  27.824   1.586
31395W        W 1995  24.581  24.562   2.197
31396W        W 1996  36.517  22.083  13.541
31397W        W 1997  28.734  11.023   4.891
31398W        W 1998  19.138  20.199   3.251
31399W        W 1999  34.314  35.030   0.823
31400W        W 2000  41.530  27.192   0.926
31401W        W 2001  14.135  31.086   1.666
31402W        W 2002  42.305  15.623   4.623
31403W        W 2003  40.036   4.365   0.940
31404W        W 2004  37.445  14.630   3.804
31405W        W 2005  35.386  18.569   0.412
31406W        W 2006  29.677  21.251   0.108
31407W        W 2007  32.346  28.972  12.355
31408W        W 2008  35.771  23.162   0.402
31409W        W 2009  40.440  43.442   1.712
31410W        W 2010  13.016  41.540   0.514
31411W        W 2011  38.747  15.188  13.672
31412W        W 2012  25.988   4.300   3.678
31413W        W 2013   0.478  37.402  11.429
31414W        W 2014  19.599  12.274  14.881
31415W        W 2015  13.451   8.548  10.254
31416W        W 2016  23.293  18.137  12.806
31417W        W 2017   0.487  25.700   2.644
31418W        W 2018   2.380  23.526  13.443
31419W        W 2019  44.639   2.738  14.962
31420W        W 2020  34.320   0.512   3.842
31421W        W 2021   0.740  31.195   4.456
31422W        W 2022  18.083  39.428  13.740
31423W        W 2023  33.635  37.623  13.532
31424W        W 2024  39.998  30.997   2.798
31425W        W 2025   6.955  12.214  13.578
31426W        W 2026  16.715  23.972  13.357
31427W        W 2027  38.938  37.995  13.685
31428W        W 2028  14.291  35.998   0.806
31429W        W 2029  42.054   8.526  11.060
31430W        W 2030  38.049   9.351   2.143
31431W        W 2031  28.658  17.297   2.944
31432W        W 2032  11.701  23.619   2.432
31433W        W 2033   3.277  41.439   0.168
31434W        W 2034  16.711   7.694   4.621
31435W        W 2035   2.981  29.454  12.877
31436W        W 2036  21.141   8.422  13.066
31437W        W 2037  26.546   0.946  14.724
31438W        W 2038  35.297  16.836   1.300
31439W        W 2039  22.033  10.217   4.252
31440W        W 2040  10.460  16.688   1.807
31441W        W 2041   2.045  25.496   3.650
31442W        W 2042  44.437  38.859  14.144
31443W        W 2043  27.698  30.569   3.707
31444W        W 2044  32.653  25.944  12.447
31445W        W 2045  19.854   6.329   2.668
31446W        W 2046  31.593   2.804  14.123
31447W        W 2047  43.020  10.205  12.477
31448W        W 2048  18.987   1.480  11.800
31449W        W 2049   1.345  14.875  12.595
31450W        W 2050   6.836  17.759  12.904
31451W        W 2051   3.439   0.736  12.056
31452W        W 2052  39.960  38.839   0.621
31453W        W 2053  27.662   8.740  11.560
31454W        W 2054  32.731  28.773   3.723
31455W        W 2055  20.756   5.324   3.115
31456W        W 2056   9.235  43.233   4.263
31457W        W 2057   0.332  20.541   3.630
31458W        W 2058  44.323  34.343  12.086
31459W        W 2059   7.990  30.597  11.481
31460W        W 2060  19.936  16.863   1.737
31461W        W 2061  22.177  27.597  12.495
31462W        W 2062  27.075  17.939   2.367
31463W        W 2063  42.066  12.814   3.114
31464W        W 2064   7.845  14.565  12.087
31465W        W 2065  23.727  10.117  10.891
31466W        W 2066  21.004  15.316  10.750
31467W        W 2067   0.295  39.481  11.586
31468W        W 2068   5.646   7.359   0.802
31469W        W 2069  35.329  11.646  13.140
31470W        W 2070  14.751  28.530   3.868
31471W        W 2071  25.547  28.883   2.737
31472W        W 2072  12.811   5.199   3.772
31473W        W 2073  39.867  10.941  12.178
31474W        W 2074   9.113  42.090  14.819
31475W        W 2075  29.509  13.523   3.416
31476W        W 2076  20.482  18.619  11.716
31477W        W 2077  37.028  14.896   3.972
31478W        W 2078  26.188  14.650  11.946
31479W        W 2079  40.612  31.839  11.750
31480W        W 2080  38.110  28.651  14.249
31481W        W 2081  18.155   1.455  14.944
31482W        W 2082  15.661  36.212  12.095
31483W        W 2083  24.315  17.909   0.193
31484W        W 2084   6.013   7.892  12.960
31485W        W 2085  32.959  41.885   3.281
31486W        W 2086  18.093  38.498   4.163
31487W        W 2087  34.548   8.898  12.158
31488W        W 2088  15.583   6.795   0.021
31489W        W 2089   1.887  14.349   0.698
31490W        W 2090  13.141  11.739   3.412
31491W        W 2091  44.703  25.827   3.333
31492W        W 2092  27.657  19.876  11.618
31493W        W 2093   6.784  42.133  14.593
31494W        W 2094  17.679  38.964   4.689
31495W        W 2095  26.511  37.479  12.485
31496W        W 2096   9.441  34.584  14.474
31497W        W 2097   3.001  40.759   4.135
31498W        W 2098  14.615  44.460   1.266
31499W        W 2099  26.691  30.109  10.445
31500W        W 2100   1.873   7.902   2.283
31501W        W 2101  43.187   9.696   2.031
31502W        W 2102  15.132  40.543  14.381
31503W        W 2103  25.608  20.794  12.453
31504W        W 2104  15.995   0.582   0.786
31505W        W 2105  39.419  42.964   4.106
31506W        W 2106  25.599   1.687   2.774
31507W        W 2107  10.369  29.998  11.493
31508W        W 2108  41.326  27.260  11.608
31509W        W 2109  34.412  22.014  10.503
31510W        W 2110  16.807  37.953   4.689
31511W        W 2111  17.300   2.682  12.967
31512W        W 2112  37.052  11.593   3.250
31513W        W 2113  40.651  41.810  12.058
31514W        W 2114  31.065   4.838  10.273
31515W        W 2115  23.480  25.437   0.925
31516W        W 2116  31.043  13.115  13.440
31517W        W 2117   7.181  43.924   1.749
31518W        W 2118  13.516   6.100   0.742
31519W        W 2119  11.289  28.164  14.055
31520W        W 2120  33.058  33.089  13.477
31521W        W 2121  35.057  32.117  12.556
31522W        W 2122   1.324  42.541  14.926
31523W        W 2123  39.949   3.314  11.938
31524W        W 2124  14.780  18.548  13.063
31525W        W 2125  24.368  34.771   4.887
31526W        W 2126  15.740  11.054  11.116
31527W        W 2127  17.070   0.454   4.112
31528W        W 2128  14.111  10.134   1.379
31529W        W 2129  15.770  22.231   4.710
31530W        W 2130  19.130   1.680   2.772
31531W        W 2131  31.509  17.294   2.719
31532W        W 2132  43.276  29.505  13.042
31533W        W 2133   3.191   4.740  11.223
31534W        W 2134  44.192   6.829   4.803
31535W        W 2135  15.372   8.720  13.560
31536W        W 2136  11.719   4.178   4.626
31537W        W 2137  37.227  41.928  11.568
31538W        W 2138  31.476  28.390  13.607
31539W        W 2139  29.122  40.802   0.941
31540W        W 2140  24.453  12.638  11.001
31541W        W 2141  25.544   8.750   0.193
31542W        W 2142  41.515  16.570  14.314
31543W        W 2143  35.168  22.331  10.998
31544W        W 2144  13.932  21.522  10.672
31545W        W 2145  26.694  19.609  13.667
31546W        W 2146  16.328  18.606   2.242
31547W        W 2147  24.712   6.224   0.507
31548W        W 2148   1.848   4.137   1.749
31549W        W 2149  13.684   0.995   3.266
31550W        W 2150   2.460  12.215  12.036
31551W        W 2151  11.296  12.365   4.767
31552W        W 2152  33.526  10.326  13.000
31553W        W 2153  41.260  23.426  14.303
31554W        W 2154   8.231  30.494  13.604
31555W        W 2155   1.798  19.403   2.856
31556W        W 2156  41.336  39.959   3.327
31557W        W 2157   8.801  31.459   3.742
31558W        W 2158  34.623  13.080   4.613
31559W        W 2159  22.698  27.664   2.200
31560W        W 2160  44.696   3.207  10.791
31561W        W 2161  42.579  29.827  11.621
31562W        W 2162  31.145  27.989  11.487
31563W        W 2163  17.638  16.037  13.560
31564W        W 2164  25.557  25.661  12.487
31565W        W 2165  23.094  12.847  11.777
31566W        W 2166  43.547  37.795   3.591
31567W        W 2167  33.012  44.736  12.595
31568W        W 2168   2.477   0.001   2.243
31569W        W 2169  29.196  18.073  14.910
31570W        W 2170  11.194  11.299  10.672
31571W        W 2171  18.979  31.015   3.214
31572W        W 2172  35.740  37.422   1.941
31573W        W 2173   2.128   2.328  11.196
31574W        W 2174  40.837  38.334  13.485
31575W        W 2175  24.191   9.665   0.689
31576W        W 2176  24.646  26.587   1.981
31577W        W 2177  22.693  30.648   1.971
31578W        W 2178  40.827  12.147   0.846
31579W        W 2179   8.464  35.824   0.283
31580W        W 2180  39.568  19.435   0.933
31581W        W 2181  23.214   2.080  13.926
31582W        W 2182  20.214  17.661   3.954
31583W        W 2183  40.750   3.845   5.435
31584W        W 2184   4.948  23.174  12.067
31585W        W 2185   6.223  31.488  12.083
31586W        W 2186  29.101   3.191  11.481
31587W        W 2187  25.594  25.673  11.978
31588W        W 2188  33.939  35.736   4.373
31589W        W 2189  25.480  21.797  14.933
31590W        W 2190   3.944   5.634   0.245
31591W        W 2191  15.951   6.028   2.233
31592W        W 2192  25.311  31.911   4.532
31593W        W 2193  10.988   7.160   1.429
31594W        W 2194   5.618  29.230  11.021
31595W        W 2195  24.115  14.069  14.467
31596W        W 2196  39.091  22.696  12.573
31597W        W 2197   7.291   6.926   1.682
31598W        W 2198  32.868  32.133  13.451
31599W        W 2199  29.366  31.934  13.414
31600W        W 2200  33.466   3.209  12.451
31601W        W 2201   6.641  26.602   3.232
31602W        W 2202  28.085  37.151  13.424
31603W        W 2203  43.329  23.957  12.759
31604W        W 2204  25.667   0.184   3.171
31605W        W 2205  18.956  21.531  12.843
31606W        W 2206  12.676  16.690   2.894
31607W        W 2207  12.776   2.757  14.298
31608W        W 2208  35.559  17.034  10.965
31609W        W 2209  17.740   9.830  12.459
31610W        W 2210  41.278  15.349   1.851
31611W        W 2211   9.341   9.243  14.609
31612W        W 2212  36.086   4.707   3.352
31613W        W 2213  42.995  29.023   3.341
31614W        W 2214  10.621  36.517   3.193
31615W        W 2215  26.065  36.865   3.698
31616W        W 2216  13.597  29.183  13.000
31617W        W 2217  38.768  10.708  14.992
31618W        W 2218   9.410  12.591   2.698
31619W        W 2219  22.176  19.106   2.255
31620W        W 2220  15.822   3.397  10.686
31621W        W 2221   1.560  19.086  14.947
31622W        W 2222  26.670  30.715   2.857
31623W        W 2223  23.498  12.517  11.002
31624W        W 2224   1.252  11.368  14.584
31625W        W 2225  43.540   0.503   2.015
31626W        W 2226   5.202  35.779  10.858
31627W        W 2227  37.868  41.785  14.885
31628W        W 2228  23.409  14.821  12.958
31629W        W 2229  11.186  17.714   3.958
31630W        W 2230  40.235  36.029   3.626
31631W        W 2231  28.367   9.893   0.006
31632W        W 2232  16.647   2.910  12.548
31633W        W 2233   4.892  43.323   2.370
31634W        W 2234   8.854   8.929  13.768
31635W        W 2235  44.359  28.481  13.501
31636W        W 2236  35.898   7.635   4.891
31637W        W 2237  35.601  14.631  12.880
31638W        W 2238   3.706   2.648  11.963
31639W        W 2239  39.660  13.402   0.371
31640W        W 2240  34.927  40.425  11.465
31641W        W 2241  26.760  34.466  12.605
31642W        W 2242   9.072  12.835   2.129
31643W        W 2243   4.181   9.587   4.668
31644W        W 2244  27.621   5.257  11.874
31645W        W 2245  10.751  44.596   4.575
31646W        W 2246  40.798  25.135  11.205
31647W        W 2247  41.497  33.072   2.263
31648W        W 2248   9.850   3.675   0.266
31649W        W 2249  18.650  25.785   3.201
31650W        W 2250  12.580   8.396  13.980
31651W        W 2251  20.965   7.710   0.371
31652W        W 2252  12.168  40.977  12.000
31653W        W 2253  29.362  17.153  14.052
31654W        W 2254   2.199  39.822  13.974
31655W        W 2255  44.796  41.035   2.104
31656W        W 2256  17.266  37.122  13.074
31657W        W 2257  26.730  19.098  12.458
31658W        W 2258  25.944  22.192   0.813
31659W        W 2259  21.333  18.634   2.899
31660W        W 2260   3.467  39.414   4.577
31661W        W 2261  34.043  42.020  13.522
31662W        W 2262   9.361  37.493  12.539
31663W        W 2263  44.396  43.521  14.349
31664W        W 2264  22.140  15.001   3.648
31665W        W 2265  42.484   3.418  14.768
31666W        W 2266   3.512  21.043   2.183
31667W        W 2267  42.639  24.138   0.377
31668W        W 2268  32.278   8.454   4.382
31669W        W 2269  17.116  39.502   3.161
31670W        W 2270  33.863  18.067   0.290
31671W        W 2271  25.478  12.596   1.168
31672W        W 2272  21.987  27.373   1.748
31673W        W 2273   6.395   9.561   3.733
31674W        W 2274  22.849  35.498  14.423
31675W        W 2275  17.612  33.692  12.489
31676W        W 2276  25.193   7.129   5.059
31677W        W 2277  18.722   6.876  13.934
31678W        W 2278  21.507  32.029   1.662
31679W        W 2279  44.759  19.771   4.681
31680W        W 2280   1.906   5.339  11.238
31681W        W 2281  14.478   4.484  14.780
31682W        W 2282  15.678   6.857   2.255
31683W        W 2283  29.277  20.833  14.864
31684W        W 2284  27.640   3.823  12.595
31685W        W 2285  37.897  36.307   2.592
31686W        W 2286  14.705  18.120  12.533
31687W        W 2287   4.288   8.644   0.567
31688W        W 2288   5.795  14.733  11.657
31689W        W 2289  16.807  24.801  12.082
31690W        W 2290  31.544  39.547  12.495
31691W        W 2291  29.251  28.430  12.470
31692W        W 2292  40.016   9.010  14.865
31693W        W 2293  28.180  43.776   3.444
31694W        W 2294  44.579  27.249  12.112
31695W        W 2295   8.317  32.058   4.161
31696W        W 2296  38.386  18.138  10.619
31697W        W 2297  40.580  39.815  14.910
31698W        W 2298  11.868   8.174   2.059
31699W        W 2299  35.578  17.815   4.800
31700W        W 2300  19.777  20.096   0.995
31701W        W 2301  12.503  32.484   1.339
31702W        W 2302  30.114  28.671  11.243
31703W        W 2303  15.185  35.330   2.834
31704W        W 2304  43.460  22.050  11.447
31705W        W 2305  37.953   6.213  11.953
31706W        W 2306  39.124  24.785  12.422
31707W        W 2307  31.712  38.787   0.044
31708W        W 2308  17.591  12.111  11.942
31709W        W 2309  30.560   9.194  13.338
31710W        W 2310  38.859   8.810  12.688
31711W        W 2311   9.342  44.198  11.558
31712W        W 2312   8.269  26.447   1.487
31713W        W 2313  10.351  22.360  10.401
31714W        W 2314  12.068  20.600  11.005
31715W        W 2315  26.313  24.455  14.836
31716W        W 2316  24.556  27.053   4.502
31717W        W 2317  26.863  41.222   5.002
31718W        W 2318  27.559   9.076  11.102
31719W        W 2319  13.211  31.621  11.332
31720W        W 2320  30.854  31.762  12.600
31721W        W 2321   9.531   6.756   3.582
31722W        W 2322  35.496   6.180  11.094
31723W        W 2323  25.965  42.256  10.662
31724W        W 2324  29.400   3.424  14.278
31725W        W 2325  27.474  38.291   0.235
31726W        W 2326  27.130  23.969   2.699
31727W        W 2327  16.217  21.026  14.623
31728W        W 2328  35.332  34.691  12.958
31729W        W 2329  20.735  26.500   1.666
31730W        W 2330  37.035  31.826  12.252
31731W        W 2331  44.085   6.913   0.038
31732W        W 2332  29.472  43.465   3.706
31733W        W 2333  17.111  41.473  14.082
31734W        W 2334  31.004   8.534   1.772
31735W        W 2335   8.908  12.868   4.447
31736W        W 2336  24.505  31.014   4.899
31737W        W 2337  10.256  28.085   2.306
31738W        W 2338  43.636  11.092  13.835
31739W        W 2339  29.456  10.897   3.821
31740W        W 2340  25.873   5.567   4.110
31741W        W 2341  17.235  30.680  13.730
31742W        W 2342  32.873  39.256   1.324
31743W        W 2343  38.941  10.868  14.066
31744W        W 2344  28.599  32.636  11.134
31745W        W 2345  23.564  34.315  13.474
31746W        W 2346  27.666  27.139   3.230
31747W        W 2347  25.478  22.075  11.469
31748W        W 2348   5.335  34.554  10.340
31749W        W 2349  39.337  12.848   1.835
31750W        W 2350   1.834  38.588  10.649
31751W        W 2351  11.841  14.254  13.295
31752W        W 2352  24.645  20.087   4.630
31753W        W 2353   6.492  14.771   0.251
31754W        W 2354  41.948  25.313  10.390
31755W        W 2355  22.122  43.056  14.672
31756W        W 2356   8.727   7.317  14.776
31757W        W 2357  23.655  35.504   3.354
31758W        W 2358  33.528   8.415   3.157
31759W        W 2359  12.557  44.975  12.603
31760W        W 2360  11.583  22.850  12.645
31761W        W 2361  10.207  41.359   5.084
31762W        W 2362   0.861  42.733  13.484
31763W        W 2363  26.234  14.341   4.946
31764W        W 2364  30.356   6.083   3.668
31765W        W 2365   1.703   6.700  12.416
31766W        W 2366  38.455  12.847   1.702
31767W        W 2367  13.336  34.006  11.932
31768W        W 2368  21.549  25.091   2.275
31769W        W 2369  19.579  28.620   4.879
31770W        W 2370   4.376  30.970   1.004
31771W        W 2371   7.281  24.495   4.483
31772W        W 2372  23.171  34.636  13.345
31773W        W 2373   3.886  43.484   2.491
31774W        W 2374  39.914  25.080   1.755
31775W        W 2375   6.979  22.101  11.999
31776W        W 2376  43.031  39.996   0.856
31777W        W 2377  12.954  38.782  14.597
31778W        W 2378  32.627   8.300  12.879
31779W        W 2379  40.899  34.787   3.885
31780W        W 2380  13.047  22.328   0.279
31781W        W 2381  24.585  30.519   3.641
31782W        W 2382  13.200  32.481  12.969
31783W        W 2383  24.801   1.878  11.900
31784W        W 2384  32.895   6.390   1.477
31785W        W 2385  19.879   9.977   3.058
31786W        W 2386  21.625  13.381  13.348
31787W        W 2387  36.681  15.279   3.211
31788W        W 2388   3.618  41.965   1.178
31789W        W 2389  22.962   4.137  10.549
31790W        W 2390  37.095  31.643  11.105
31791W        W 2391  24.886  42.351   0.572
31792W        W 2392  40.341  31.193   0.280
31793W        W 2393   1.200  21.698   3.934
31794W        W 2394  33.664  12.770   4.192
31795W        W 2395  12.345  15.920   3.623
31796W        W 2396  15.643  36.440  11.639
31797W        W 2397  15.144  33.459  14.930
31798W        W 2398   5.686  41.046   0.025
31799W        W 2399  16.945   8.894  14.564
31800W        W 2400  43.443  11.237   0.882
31801W        W 2401  30.879  30.599   0.723
31802W        W 2402  43.134  39.871  10.595
31803W        W 2403  19.779  26.986   1.700
31804W        W 2404  14.260   8.762   3.892
31805W        W 2405  16.019  18.050   2.853
31806W        W 2406  11.458  11.387  12.643
31807W        W 2407   6.440  29.160   4.169
31808W        W 2408  42.571  27.901   2.251
31809W        W 2409   6.219  39.278  12.514
31810W        W 2410  37.642  23.918  10.711
31811W        W 2411  16.702  40.955  11.489
31812W        W 2412   5.660  20.723   1.824
31813W        W 2413   4.386  20.666   3.162
31814W        W 2414  16.091  15.090   4.245
31815W        W 2415   9.875  21.585  13.922
31816W        W 2416  21.366  38.175   0.442
31817W        W 2417   7.174  40.907  14.742
31818W        W 2418  12.606  30.108  14.290
31819W        W 2419   2.252  37.312  12.910
31820W        W 2420  25.363  44.818  14.760
31821W        W 2421  26.108  13.567   4.279
31822W        W 2422  35.019  44.690   4.221
31823W        W 2423   5.338  35.562   1.282
31824W        W 2424   6.700  26.241  13.808
31825W        W 2425  21.494  28.037  11.577
31826W        W 2426  18.667  37.846   4.641
31827W        W 2427  21.807  25.579   3.163
31828W        W 2428   6.285  22.989   2.168
31829W        W 2429  42.945  22.211  12.628
31830W        W 2430  37.493  17.824   0.416
31831W        W 2431  29.579   3.754   1.935
31832W        W 2432  21.265   4.698   5.177
31833W        W 2433  12.744  23.350   3.366
31834W        W 2434   5.670  33.090   1.288
31835W        W 2435  32.531   4.918   4.938
31836W        W 2436  28.314   6.320  12.359
31837W        W 2437  27.529  32.044   4.555
31838W        W 2438  31.844  20.180  12.106
31839W        W 2439  33.481  17.039  12.899
31840W        W 2440   3.444   3.888   2.682
31841W        W 2441  29.413   2.352   3.277
31842W        W 2442  40.329  10.835   3.657
31843W        W 2443  34.485   0.620  13.467
31844W        W 2444   3.357  42.079  10.549
31845W        W 2445  24.698   4.819   0.519
31846W        W 2446   2.349   8.080  10.888
31847W        W 2447  19.674  33.556  10.796
31848W        W 2448   4.804  27.464   3.699
31849W        W 2449   5.284   7.217  14.357
31850W        W 2450  10.539  11.451  11.706
31851W        W 2451  40.459  15.008   2.668
31852W        W 2452  19.845  14.844  11.999
31853W        W 2453  16.393  31.733   0.273
31854W        W 2454  32.236   7.793   3.448
31855W        W 2455  14.810   9.728  14.357
31856W        W 2456  40.000   6.505   4.534
31857W        W 2457  24.396  13.909  10.657
31858W        W 2458   3.507  25.038  13.627
31859W        W 2459  42.048   2.787  14.949
31860W        W 2460  42.732  35.760  11.127
31861W        W 2461  32.826  14.202   1.376
31862W        W 2462   9.780  16.664   1.024
31863W        W 2463  35.940  34.797  12.594
31864W        W 2464  16.719  27.617  13.293
31865W        W 2465   0.924  19.640  11.820
31866W        W 2466  10.449  38.948   2.756
31867W        W 2467  44.075  25.974  13.026
31868W        W 2468  42.938  44.207  10.308
31869W        W 2469  25.707  44.559  10.557
31870W        W 2470  23.264  27.252  11.145
31871W        W 2471  16.517   9.862   1.056
31872W        W 2472  25.990   0.758  14.600
31873W        W 2473  24.687  42.127   4.857
31874W        W 2474  25.062  11.131  11.917
31875W        W 2475  20.511   3.218  14.246
31876W        W 2476   1.717  10.645  11.466
31877W        W 2477  30.012  21.007  11.700
31878W        W 2478  13.400  35.940   1.246
31879W        W 2479  11.374  14.025   1.758
31880W        W 2480  11.481  27.672  14.041
31881W        W 2481  18.255   9.087   0.725
31882W        W 2482  11.905   9.356   3.990
31883W        W 2483   7.633  25.125   1.885
31884W        W 2484  34.994  37.449   4.489
31885W        W 2485  11.222  40.806   2.194
31886W        W 2486   0.909  38.380   0.895
31887W        W 2487  23.539  42.918   2.432
31888W        W 2488   6.813   5.107   1.808
31889W        W 2489  28.519   6.875   2.388
31890W        W 2490  17.231  16.256   2.910
31891W        W 2491  36.552  43.776   2.669
31892W        W 2492   3.199  16.220   4.044
31893W        W 2493  30.440  39.363  13.777
31894W        W 2494  26.512  40.809   4.561
31895W        W 2495  33.663  19.551   1.794
31896W        W 2496   2.130   6.286  13.896
31897W        W 2497   7.959  41.953   2.116
31898W        W 2498  25.885  44.250  11.475
31899W        W 2499   6.398  15.260   2.950
31900W        W 2500   3.744  38.183  13.361
31901W        W 2501  43.548   6.307   4.628
31902W        W 2502  25.974  33.398   0.327
31903W        W 2503   0.620  17.640   0.631
31904W        W 2504  38.857  40.430   0.274
31905W        W 2505  28.541  11.083  12.727
31906W        W 2506  21.221  17.914  11.572
31907W        W 2507  26.185  28.448   1.875
31908W        W 2508  17.797   6.393  11.894
31909W        W 2509  43.937  32.931   1.311
31910W        W 2510  17.478  39.782   0.182
31911W        W 2511  31.419   7.140  10.288
31912W        W 2512   2.408   5.410   4.345
31913W        W 2513  28.586  38.470  14.273
31914W        W 2514  11.211  43.651   3.631
31915W        W 2515  35.664   0.447  12.094
31916W        W 2516  14.403  17.799  14.738
31917W        W 2517  43.554  28.973   4.235
31918W        W 2518  35.965  29.220   0.289
31919W        W 2519  14.789   9.082   2.034
31920W        W 2520  10.904   0.805  10.707
31921W        W 2521   0.463  43.666  13.264
31922W        W 2522  42.839  28.661  13.488
31923W        W 2523  42.051  42.205  13.980
31924W        W 2524  18.977   2.219   0.403
31925W        W 2525  44.868   8.361  12.836
31926W        W 2526   4.870   8.914   2.630
31927W        W 2527  22.928  23.057   4.808
31928W        W 2528  23.738  13.544  13.957
31929W        W 2529  18.442  17.551   4.572
31930W        W 2530   5.018   4.859   1.278
31931W        W 2531  38.350  18.842   9.627
31932W        W 2532  22.028  10.597   3.770
31933W        W 2533  16.271   0.475  14.444
31934W        W 2534  44.263  38.673  14.620
31935W        W 2535   2.376  10.144   2.436
31936W        W 2536  38.382  11.654  10.168
31937W        W 2537  32.840  34.390   0.921
31938W        W 2538  20.054  16.081   2.871
31939W        W 2539  27.493  19.994  13.191
31940W        W 2540  15.596  20.593  11.935
31941W        W 2541  15.872  25.903   2.262
31942W        W 2542   7.752  18.717  14.297
31943W        W 2543   6.165  19.039   2.213
31944W        W 2544  33.643  40.529  12.277
31945W        W 2545  12.499   5.710  11.774
31946W        W 2546   6.457  15.219  12.034
31947W        W 2547  10.923  11.451  13.567
31948W        W 2548  40.784  42.786   1.780
31949W        W 2549   3.947  25.028  14.519
31950W        W 2550  11.423  23.472  13.251
31951W        W 2551   9.056  36.538   0.178
31952W        W 2552   8.543  27.593   0.777
31953W        W 2553   3.917   1.634   0.910
31954W        W 2554   0.255  19.261   1.970
31955W        W 2555   8.629  19.580   3.745
31956W        W 2556  36.586  29.746  12.171
31957W        W 2557   9.543  28.887  12.512
31958W        W 2558  34.079  30.348  11.775
31959W        W 2559  26.974  23.122   0.174
31960W        W 2560   7.320  31.272   2.801
31961W        W 2561  22.115  25.690  11.889
31962W        W 2562  27.468   4.738   4.550
31963W        W 2563  42.540  12.094   4.219
31964W        W 2564  34.813  24.221   3.259
31965W        W 2565  16.601  17.540  13.051
31966W        W 2566  34.352  33.115   3.168
31967W        W 2567  31.464  25.211   2.629
31968W        W 2568  28.145  28.529  13.359
31969W        W 2569  17.538  21.177   2.303
31970W        W 2570  33.847  13.708  11.523
31971W        W 2571  43.297  41.198  11.201
31972W        W 2572  30.038  17.806   4.520
31973W        W 2573  12.307  18.209   1.736
31974W        W 2574  39.290  16.497   2.268
31975W        W 2575  36.863  16.735   4.128
31976W        W 2576   3.742  26.662  13.977
31977W        W 2577  18.667  38.381  13.891
31978W        W 2578  18.300   4.665   0.692
31979W        W 2579   8.951  16.355  10.495
31980W        W 2580   5.424  40.774   3.909
31981W        W 2581   4.731  36.398  12.813
31982W        W 2582  10.350  33.618  14.883
31983W        W 2583  27.130  29.726  14.176
31984W        W 2584  25.515  25.205   4.101
31985W        W 2585   5.227   6.902   3.689
31986W        W 2586  20.571  16.320   2.793
31987W        W 2587  37.751  43.747   4.880
31988W        W 2588  19.523   6.707  14.402
31989W        W 2589   2.692  44.722   1.826
31990W        W 2590  16.833  22.784   4.873
31991W        W 2591  10.270  38.777   4.110
31992W        W 2592   7.079  43.561  12.092
31993W        W 2593  21.121  41.759  14.118
31994W        W 2594  24.189  20.603  11.108
31995W        W 2595  18.073  12.140   3.351
31996W        W 2596  41.748  29.118   3.687
31997W        W 2597   8.739  41.126   1.045
31998W        W 2598  31.834  39.894  13.421
31999W        W 2599  39.531  12.693  12.093
32000W        W 2600  38.629  27.598   2.860
32001W        W 2601  16.456  26.396   9.736
32002W        W 2602   8.590   3.859  14.437
32003W        W 2603  30.697  16.203  12.008
32004W        W 2604  31.204   2.908  14.444
32005W        W 2605  39.291  11.800  12.432
32006W        W 2606  16.509  25.657  14.893
32007W        W 2607  20.315  38.896   1.313
32008W        W 2608  36.468  22.955   3.775
32009W        W 2609   2.872  39.853   0.563
32010W        W 2610  14.393  17.251  14.675
32011W        W 2611   2.528  19.816  10.692
32012W        W 2612  32.411  40.021   0.667
32013W        W 2613  25.458   2.236  11.415
32014W        W 2614  14.406  20.671  13.407
32015W        W 2615  10.143   0.797   1.492
32016W        W 2616  11.867  39.374  11.349
32017W        W 2617   0.029  27.189   0.843
32018W        W 2618  19.329  29.889   2.410
32019W        W 2619   7.416  34.430   3.108
32020W        W 2620  31.654  29.424  11.404
32021W        W 2621  31.575  16.191   3.620
32022W        W 2622  42.538  38.859   0.337
32023W        W 2623  43.449  19.319  10.783
32024W        W 2624  21.949   2.741  11.152
32025W        W 2625  36.849  39.368   3.003
32026W        W 2626  27.577  25.383  13.397
32027W        W 2627  11.811  40.980   2.869
32028W        W 2628  21.574  41.520   0.386
32029W        W 2629   8.915  12.203   4.620
32030W        W 2630  44.506  41.574  13.603
32031W        W 2631  35.058  30.199   0.315
32032W        W 2632   7.102  29.054  11.733
32033W        W 2633  40.436  12.581   4.546
32034W        W 2634  27.952  18.808  12.015
32035W        W 2635  20.675   0.825   3.083
32036W        W 2636  11.385  13.148   4.230
32037W        W 2637   0.015  12.056  12.143
32038W        W 2638   6.430  12.239   4.097
32039W        W 2639  44.419   3.987   0.585
32040W        W 2640  14.084   8.341   0.933
32041W        W 2641  15.520  18.071   3.709
32042W        W 2642  15.269  22.488  11.131
32043W        W 2643   6.761  16.253   4.267
32044W        W 2644   7.020  39.014   2.383
32045W        W 2645   6.429  16.319   0.804
32046W        W 2646  13.477   6.921   9.985
32047W        W 2647   7.715   5.629   1.800
32048W        W 2648  34.638   6.053   2.725
32049W        W 2649  29.413  35.575  10.617
32050W        W 2650   7.292  28.492  14.777
32051W        W 2651  43.368  33.415   1.890
32052W        W 2652  32.079  27.748  14.950
32053W        W 2653   7.784  18.736   4.171
32054W        W 2654  30.561  26.765   1.413
32055W        W 2655  31.149  25.087   1.756
32056W        W 2656  30.395  17.393  11.647
32057W        W 2657  28.064  26.385   1.667
32058W        W 2658  43.922  12.396  13.527
32059W        W 2659   7.970  27.892  12.502
32060W        W 2660  24.279  21.976  10.981
32061W        W 2661  36.562  41.993  12.789
32062W        W 2662  35.895  25.637  13.784
32063W        W 2663  17.995   5.771  10.752
32064W        W 2664  39.028   6.545  12.400
32065W        W 2665  13.363  13.253  12.140
32066W        W 2666  15.141   1.178   4.830
32067W        W 2667   4.448  10.288  11.535
32068W        W 2668  25.213  39.245   3.975
32069W        W 2669   0.357  27.593   0.818
32070W        W 2670  44.347   4.656   0.286
32071W        W 2671  26.967   4.560  14.919
32072W        W 2672   5.525  10.845  13.371
32073W        W 2673  25.486   9.506   3.338
32074W        W 2674   9.699  36.346   1.001
32075W        W 2675  14.435  15.360   3.230
32076W        W 2676  21.460  19.170  13.470
32077W        W 2677  33.503  19.280  11.676
32078W        W 2678   3.391  10.582  11.615
32079W        W 2679  28.408  12.550   4.639
32080W        W 2680  38.398  38.838   2.149
32081W        W 2681  18.136  15.098   2.835
32082W        W 2682  42.904  35.527   4.600
32083W        W 2683  36.451   9.156  14.864
32084W        W 2684  23.845  35.211   2.974
32085W        W 2685  40.751  16.671  13.093
32086W        W 2686  16.670  14.816   0.357
32087W        W 2687  25.814  13.641  13.583
32088W        W 2688  13.284  34.469   3.297
32089W        W 2689  19.065  13.495  12.013
32090W        W 2690  37.930  28.169   2.826
32091W        W 2691  10.420  43.436  11.294
32092W        W 2692  17.210  21.207  10.018
32093W        W 2693  16.250  32.907   4.128
32094W        W 2694  34.852  18.860   2.593
32095W        W 2695  22.589  39.032   0.393
32096W        W 2696  32.484  44.999  10.601
32097W        W 2697  11.118  20.986   1.284
32098W        W 2698  41.602  23.233  10.969
32099W        W 2699  27.748  41.933   1.194
32100W        W 2700  38.226  22.116   1.352
32101W        W 2701   9.580   5.624   2.751
32102W        W 2702  16.629  35.314   2.989
32103W        W 2703   1.939  39.446  11.916
32104W        W 2704  20.658  30.817   2.136
32105W        W 2705  14.595   3.266   2.317
32106W        W 2706  12.353  38.883   2.842
32107W        W 2707  16.787  43.971   0.354
32108W        W 2708  27.923  27.246  12.266
32109W        W 2709  13.683   9.332   4.286
32110W        W 2710  38.463   5.937  11.254
32111W        W 2711  44.004  36.947  12.010
32112W        W 2712  10.153  14.329  12.971
32113W        W 2713  43.448  26.094  13.001
32114W        W 2714  20.050   9.042   4.527
32115W        W 2715   9.685  22.742  11.920
32116W        W 2716  30.710  17.213  10.867
32117W        W 2717  33.003  37.375   0.906
32118W        W 2718  36.643  40.514   0.771
32119W        W 2719  15.094  20.814   0.302
32120W        W 2720  12.797  30.357   2.407
32121W        W 2721  44.818  21.761   3.338
32122W        W 2722   8.797  30.370   0.687
32123W        W 2723  27.112   3.145   1.152
32124W        W 2724   7.844  35.836   2.774
32125W        W 2725  21.622  31.054  11.375
32126W        W 2726  24.506  22.785  14.702
32127W        W 2727  11.663   4.045  13.768
32128W        W 2728   3.834  37.658  13.396
32129W        W 2729  13.046  42.973  11.423
32130W        W 2730  32.372  14.335   4.971
32131W        W 2731  35.535  32.368  14.816
32132W        W 2732  29.951   6.809  12.130
32133W        W 2733  43.385   5.895  14.344
32134W        W 2734  39.838  19.174   3.531
32135W        W 2735  34.907  12.482  10.366
32136W        W 2736   1.440   6.346  10.945
32137W        W 2737  38.486  35.502   3.163
32138W        W 2738  15.079  41.438   3.728
32139W        W 2739  19.143  20.980  11.159
32140W        W 2740   3.675  33.645   0.696
32141W        W 2741  43.695  14.886   3.082
32142W        W 2742  22.224   5.900  13.909
32143W        W 2743  10.098  23.003   2.051
32144W        W 2744  14.924  11.703   5.461
32145W        W 2745  12.263  21.671  11.532
32146W        W 2746  36.025  44.889  14.313
32147W        W 2747   7.208  21.677   1.850
32148W        W 2748  28.155  15.108   1.844
32149W        W 2749  28.754  40.908  12.454
32150W        W 2750  10.588  40.382  10.719
32151W        W 2751   4.317  19.585  14.297
32152W        W 2752  35.191  11.126  13.084
32153W        W 2753  16.956  18.003   3.146
32154W        W 2754  19.685  39.802   4.215
32155W        W 2755   9.303  10.651   4.148
32156W        W 2756  43.902  34.371  11.390
32157W        W 2757  32.551  37.965  13.341
32158W        W 2758  37.880  44.417  10.423
32159W        W 2759   8.831  29.107   3.663
32160W        W 2760  14.770  44.000   3.574
32161W        W 2761  17.008  21.964   1.024
32162W        W 2762  30.472   1.749   1.038
32163W        W 2763  34.467  34.421  11.994
32164W        W 2764  23.255   9.416  14.889
32165W        W 2765  22.966  25.561   0.725
32166W        W 2766   4.614   4.263   1.834
32167W        W 2767  17.759  44.866  10.666
32168W        W 2768   3.481  13.290  14.190
32169W        W 2769  37.919  38.367   3.129
32170W        W 2770  22.514  10.454  12.569
32171W        W 2771  10.925  25.244  12.210
32172W        W 2772  11.147  18.224   4.149
32173W        W 2773  18.248   9.699   1.821
32174W        W 2774   5.132   5.430   2.144
32175W        W 2775  43.907  27.208  13.337
32176W        W 2776  27.261  41.776   1.305
32177W        W 2777  37.018  29.494   3.180
32178W        W 2778  10.477   2.843   2.752
32179W        W 2779   8.920  26.206  11.408
32180W        W 2780   4.899   9.245  11.542
32181W        W 2781  44.378   3.163  14.797
32182W        W 2782  34.008  32.903  13.972
32183W        W 2783   0.091  20.181  12.874
32184W        W 2784  28.225  13.343   0.510
32185W        W 2785  32.590  44.711   4.244
32186W        W 2786  30.393   7.203  11.498
32187W        W 2787  43.315  39.265  11.432
32188W        W 2788  14.342   4.560   3.217
32189W        W 2789  44.186  12.280  14.904
32190W        W 2790  41.513  31.035   4.712
32191W        W 2791  26.587  26.277   1.218
32192W        W 2792  36.536  33.490   4.617
32193W        W 2793  22.420  11.741   1.229
32194W        W 2794  44.756  17.484  12.460
32195W        W 2795  22.770  39.153   0.985
32196W        W 2796   6.374  20.185   4.084
32197W        W 2797  26.733  39.097  12.941
32198W        W 2798   8.893  20.769  10.149
32199W        W 2799  11.312  20.641  12.637
32200W        W 2800  30.145   4.251   2.906
32201W        W 2801  36.945   4.676  13.107
32202W        W 2802  22.662  20.628  11.487
32203W        W 2803  22.672   6.470  11.956
32204W        W 2804   0.963  14.287   3.739
32205W        W 2805  18.806  20.196  14.967
32206W        W 2806  10.178   5.927   3.735
32207W        W 2807  12.889   3.922  12.394
32208W        W 2808  36.467  39.513   4.960
32209W        W 2809  17.202   6.049   0.753
32210W        W 2810  30.437  32.666   3.196
32211W        W 2811  37.539   9.358   0.166
32212W        W 2812   3.229  30.863   4.629
32213W        W 2813  28.297  29.657  10.314
32214W        W 2814   7.212   1.538   2.290
32215W        W 2815   5.337  44.803   2.924
32216W        W 2816  37.240  36.568   4.563
32217W        W 2817  43.484  39.054  10.814
32218W        W 2818  43.072   7.807  14.357
32219W        W 2819  30.983  44.517   3.170
32220W        W 2820   8.781   4.340   0.814
32221W        W 2821  27.116   7.316  13.976
32222W        W 2822  18.710  16.322  11.670
32223W        W 2823   7.180  31.514  13.069
32224W        W 2824  13.946  20.183   2.956
32225W        W 2825  42.321  23.814   2.814
32226W        W 2826  42.964   0.729   4.139
32227W        W 2827  24.688   2.185   2.960
32228W        W 2828  38.975   1.412   1.013
32229W        W 2829  43.208  23.075   2.099
32230W        W 2830  14.611   4.310   2.250
32231W        W 2831   8.631   8.329   3.609
32232W        W 2832  24.271   4.314   4.150
32233W        W 2833  36.934  15.230   2.737
32234W        W 2834   8.481  30.691  11.032
32235W        W 2835  35.983  10.369   3.692
32236W        W 2836   4.365   0.788   1.868
32237W        W 2837  32.867  10.498  10.682
32238W        W 2838   9.187   5.270   2.776
32239W        W 2839  10.816  41.361  14.536
32240W        W 2840  28.237  19.804  14.309
32241W        W 2841  20.364  35.442   2.321
32242W        W 2842  42.090  27.553   3.681
32243W        W 2843  36.056  39.361   1.128
32244W        W 2844  20.162  12.228  13.815
32245W        W 2845  33.067  24.974  14.942
32246W        W 2846   8.896  36.835   2.367
32247W        W 2847  12.079  31.531   1.436
32248W        W 2848   3.009  34.935   0.515
32249W        W 2849   4.659  13.877  14.042
32250W        W 2850  22.604  13.137   1.478
32251W        W 2851  17.600   8.182  14.514
32252W        W 2852  15.223  12.934  14.024
32253W        W 2853  43.106  27.713  11.949
32254W        W 2854  38.839  30.147   3.342
32255W        W 2855   5.791  11.621  10.855
32256W        W 2856  16.352   6.135  13.525
32257W        W 2857   2.281   0.569   4.188
32258W        W 2858  14.813  38.827  12.645
32259W        W 2859  28.741  25.327   3.217
32260W        W 2860   8.188  27.520  12.887
32261W        W 2861  19.070   8.331   4.576
32262W        W 2862  21.637  25.184  13.924
32263W        W 2863  44.379  10.844  12.553
32264W        W 2864   0.798  38.624  10.675
32265W        W 2865  12.854  32.615  14.772
32266W        W 2866  27.811  40.550   3.619
32267W        W 2867  16.501   2.352   2.284
32268W        W 2868   8.720  40.738   2.809
32269W        W 2869  15.675  10.858   3.642
32270W        W 2870  37.430  43.356   0.250
32271W        W 2871  35.885  43.423   4.702
32272W        W 2872  23.156   9.720   3.808
32273W        W 2873  22.567  39.422   3.728
32274W        W 2874  22.059  40.932  12.524
32275W        W 2875  35.549  43.741   2.300
32276W        W 2876   7.601   5.835  14.976
32277W        W 2877  22.827  19.327  10.111
32278W        W 2878  13.324  12.711  14.801
32279W        W 2879   1.097   6.843  14.268
32280W        W 2880   0.902  38.670   2.745
32281W        W 2881   8.183  31.661   4.512
32282W        W 2882  33.477  39.433   3.717
32283W        W 2883  26.943  26.092   0.073
32284W        W 2884  20.619  32.252   0.423
32285W        W 2885  28.422  25.630   3.538
32286W        W 2886  29.085  44.020  13.996
32287W        W 2887  15.997  43.871   1.825
32288W        W 2888  22.194  33.389   3.182
32289W        W 2889  21.270  26.181   3.267
32290W        W 2890   8.831  20.497  13.369
32291W        W 2891  44.551  20.243  13.096
32292W        W 2892  30.478  33.569   3.032
32293W        W 2893   1.696   7.660   4.092
32294W        W 2894   9.765  30.070  12.083
32295W        W 2895  26.923  27.437   3.157
32296W        W 2896  39.082  23.263   1.653
32297W        W 2897  29.055  44.585   0.893
32298W        W 2898  11.914  33.021  10.209
32299W        W 2899   7.695  35.137   3.986
32300W        W 2900  20.032  35.108  10.901
32301W        W 2901  39.415  29.941  11.253
32302W        W 2902  41.350  35.465   3.893
32303W        W 2903  21.687  26.735  11.017
32304W        W 2904  37.340  42.985  12.086
32305W        W 2905  21.070  30.024   3.878
32306W        W 2906  20.536  30.163   2.592
32307W        W 2907  14.396  20.866   4.095
32308W        W 2908  35.090  13.330   4.571
32309W        W 2909   9.393  36.062  14.295
32310W        W 2910  27.035  21.510   2.810
32311W        W 2911  16.190  24.831  12.185
32312W        W 2912   6.249  40.115   2.311
32313W        W 2913  44.445  12.769  12.045
32314W        W 2914   5.439   2.839  14.285
32315W        W 2915  36.025  12.137  10.740
32316W        W 2916   7.410  33.531  11.730
32317W        W 2917   5.676   0.268  12.967
32318W        W 2918  35.997  21.080  11.026
32319W        W 2919  21.144  38.651   1.732
32320W        W 2920  40.957  22.948  14.644
32321W        W 2921  14.198  33.905  10.307
32322W        W 2922  15.339  22.752  10.688
32323W        W 2923  40.467  29.351   3.150
32324W        W 2924  28.620  25.170  12.027
32325W        W 2925  21.917   7.524  12.908
32326W        W 2926   0.352  28.164  11.673
32327W        W 2927  17.325  36.651  10.214
32328W        W 2928   2.838   9.856   2.462
32329W        W 2929   5.283   8.389  10.849
32330W        W 2930  25.931   9.187  13.418
32331W        W 2931  42.771  20.223   3.189
32332W        W 2932   1.327  29.979  11.667
32333W        W 2933  18.996  35.928   1.124
32334W        W 2934  31.941  10.080  10.597
32335W        W 2935   8.656  22.711  13.011
32336W        W 2936  42.804  16.535  11.935
32337W        W 2937   5.432  40.241   3.966
32338W        W 2938   9.922  23.253   0.416
32339W        W 2939  24.668  33.394   1.708
32340W        W 2940  42.018   3.393  13.582
32341W        W 2941  19.387  33.139  10.689
32342W        W 2942  33.971   4.899  11.251
32343W        W 2943  30.551   2.719   2.554
32344W        W 2944  17.147  36.360  11.257
32345W        W 2945  37.072  12.232   2.801
32346W        W 2946  19.834   0.749   0.787
32347W        W 2947  18.406  42.826  12.460
32348W        W 2948  30.054  13.648  12.194
32349W        W 2949  26.534  13.131   0.652
32350W        W 2950  25.199   9.026   1.260
32351W        W 2951  17.852  10.352   3.204
32352W        W 2952  43.479  32.413  14.389
32353W        W 2953  23.758   0.331   0.567
32354W        W 2954   8.720  22.986   3.174
32355W        W 2955  19.027   3.784  14.843
32356W        W 2956   7.364   6.193  11.449
32357W        W 2957  38.693   8.842  11.610
32358W        W 2958   5.352  29.882   0.418
32359W        W 2959  39.212  24.664  11.011
32360W        W 2960   1.592  24.770   4.544
32361W        W 2961  10.528  33.532  12.531
32362W        W 2962   4.808  22.113   1.224
32363W        W 2963  40.148  34.239   2.047
32364W        W 2964  21.498   1.773   1.505
32365W        W 2965   8.000   4.853  10.797
32366W        W 2966  11.882  24.236  10.796
32367W        W 2967  14.563  43.757   2.626
32368W        W 2968  21.476  28.978   1.193
32369W        W 2969  36.993  17.798   0.234
32370W        W 2970  39.458   2.529  11.587
32371W        W 2971   1.914   5.405   4.311
32372W        W 2972  24.147  13.897  12.582
32373W        W 2973  38.270  32.684   0.386
32374W        W 2974  35.920  37.353   0.501
32375W        W 2975  22.029   4.212  10.719
32376W        W 2976  33.826  26.808   1.413
32377W        W 2977  37.916   0.623   0.810
32378W        W 2978  43.151  33.905  12.949
32379W        W 2979  39.167  27.595  12.937
32380W        W 2980  10.426  13.217   1.215
32381W        W 2981   1.113  43.027  13.821
32382W        W 2982   6.676  43.154  11.224
32383W        W 2983  13.909   3.426  13.782
32384W        W 2984  24.180  30.062  14.986
32385W        W 2985  21.301  27.032   1.324
32386W        W 2986  44.753  41.525   4.190
32387W        W 2987   2.010  43.423   3.733
32388W        W 2988  24.572  40.429   1.382
32389W        W 2989  39.378  44.773  12.542
32390W        W 2990  19.350  18.541   1.901
32391W        W 2991  18.106   1.389   1.298
32392W        W 2992   6.095  34.922   1.227
32393W        W 2993  27.139  22.416   3.391
32394W        W 2994  15.041  25.608  13.458
32395W        W 2995   6.155  19.395  12.954
32396W        W 2996   3.530   1.676  14.065
32397W        W 2997   0.747  27.924  12.564
32398W        W 2998   8.861   6.335  11.555
32399W        W 2999  27.192  14.015  14.110
32400W        W 3000  27.539  41.796   0.255
32401W        W 3001  16.120  19.632   3.103
32402W        W 3002   2.311   7.089  12.967
32403W        W 3003   6.723  24.300   2.384
32404W        W 3004  17.592  13.867  12.559
32405W        W 3005   9.715  11.778  12.564
32406W        W 3006  38.451   4.700  10.472
32407W        W 3007  11.227  32.987  14.172
32408W        W 3008   2.949  41.828   1.442
32409W        W 3009  37.337   7.801   4.637
32410W        W 3010   4.676  10.369  12.395
32411W        W 3011   2.248  21.397  13.472
32412W        W 3012  33.816  27.638   3.163
32413W        W 3013  44.469  15.649   1.425
32414W        W 3014   0.641   0.219   1.222
32415W        W 3015  30.931  35.605  13.994
32416W        W 3016  41.503  24.335   3.889
32417W        W 3017  40.875  10.644  11.256
32418W        W 3018  33.849  15.135  12.041
32419W        W 3019  13.456  14.941   1.567
32420W        W 3020  28.230  28.709   0.300
32421W        W 3021  17.570   2.016   2.729
32422W        W 3022  38.826  38.830  10.822
32423W        W 3023  40.915  40.579  14.956
32424W        W 3024  17.778  36.382   1.261
32425W        W 3025  10.026   8.614  12.417
32426W        W 3026  18.858  18.208  10.785
32427W        W 3027   6.545  31.128   1.997
32428W        W 3028  26.530  22.200   1.674
32429W        W 3029  21.528  34.494   0.811
32430W        W 3030  10.865  21.690  10.642
32431W        W 3031   5.681  26.987   3.135
32432W        W 3032  40.462  21.154   2.336
32433W        W 3033  42.780  28.960  14.851
32434W        W 3034  21.270  22.934  12.033
32435W        W 3035   6.020  13.844   4.705
32436W        W 3036  13.144   7.407  11.105
32437W        W 3037  40.967   6.709   4.218
32438W        W 3038  29.037  16.675  10.640
32439W        W 3039  14.236   6.421   4.620
32440W        W 3040  41.958  12.134  11.651
32441W        W 3041  29.463   6.231  11.630
32442W        W 3042  24.885  13.050   4.313
32443W        W 3043  32.039  24.541  11.672
32444W        W 3044  28.057  19.615   0.612
32445W        W 3045  22.548  33.976   0.239
32446W        W 3046   6.344  16.571   0.354
32447W        W 3047  23.418  17.366  11.380
32448W        W 3048  38.263  41.806   4.592
32449W        W 3049  27.113  10.461   3.067
32450W        W 3050   8.226  38.258  14.789
32451W        W 3051  37.501   6.226  12.283
32452W        W 3052   5.826  41.504   3.724
32453W        W 3053  24.655   0.541   9.926
32454W        W 3054   7.728   2.760   3.607
32455W        W 3055  37.887  21.824   3.267
32456W        W 3056  34.353   9.189   0.524
32457W        W 3057  41.506  10.436  12.516
32458W        W 3058   4.274  23.953   0.759
32459W        W 3059  15.418   0.319   0.510
32460W        W 3060   8.193  15.728  13.243
32461W        W 3061   3.438  31.967   2.348
32462W        W 3062  34.399   4.273  14.903
32463W        W 3063   8.287  24.586  10.501
32464W        W 3064  25.871  16.997  11.990
32465W        W 3065  32.995  13.682   4.092
32466W        W 3066  14.714   1.115   5.329
32467W        W 3067   0.325  21.704   0.077
32468W        W 3068   9.546  30.684   2.300
32469W        W 3069   8.678  23.641   0.900
32470W        W 3070  24.236  21.747   0.560
32471W        W 3071   3.884  14.529   3.422
32472W        W 3072   0.925  37.713  13.919
32473W        W 3073  16.258  22.245   0.005
32474W        W 3074  11.783  36.351   0.330
32475W        W 3075  36.519  28.408  10.892
32476W        W 3076  25.459  25.148  11.549
32477W        W 3077  44.726   0.104  10.483
32478W        W 3078  36.367  35.318   2.384
32479W        W 3079   6.732  10.735   0.533
32480W        W 3080   5.844  42.663   9.966
32481W        W 3081  43.041  11.274  11.499
32482W        W 3082  26.599  31.953   0.906
32483W        W 3083  12.249  30.971  11.583
32484W        W 3084   6.933  20.099  14.839
32485W        W 3085  31.577  18.512  11.671
32486W        W 3086  19.593  31.567   3.758
32487W        W 3087   7.413  21.274   0.061
32488W        W 3088  33.454  38.945  14.682
32489W        W 3089   9.877  34.194   1.056
32490W        W 3090   7.934   9.441  13.040
32491W        W 3091  41.318  18.280  11.494
32492W        W 3092  28.425  32.167  10.400
32493W        W 3093   7.409   5.651   1.361
32494W        W 3094  35.639  44.466   0.943
32495W        W 3095  23.918  13.032   4.266
32496W        W 3096   3.123  21.174   4.489
32497W        W 3097  14.121  32.946  12.711
32498W        W 3098   9.704   0.591   1.268
32499W        W 3099  43.472  29.688  14.995
32500W        W 3100  39.052  15.616   9.820
32501W        W 3101  30.931  16.562   1.702
32502W        W 3102   2.810   5.813   2.702
32503W        W 3103   9.502   6.887   1.449
32504W        W 3104  42.331   2.835   1.155
32505W        W 3105   2.545   2.021  14.014
32506W        W 3106   7.061   7.722   3.393
32507W        W 3107   6.583  24.728   4.997
32508W        W 3108  18.977  41.435   4.066
32509W        W 3109  18.755  12.276   2.641
32510W        W 3110  11.880  20.122   0.869
32511W        W 3111  20.159  35.861   1.157
32512W        W 3112  39.374   8.958  12.499
32513W        W 3113  40.577  11.337  14.860
32514W        W 3114  34.995  27.445   0.823
32515W        W 3115  36.102  20.075  14.031
32516W        W 3116   3.358  24.779   4.052
32517W        W 3117  38.838  30.556  14.475
32518W        W 3118   1.915  16.316   2.588
32519W        W 3119  13.456  26.013  13.140
32520W        W 3120  18.694  27.315   4.763
32521W        W 3121  30.750  35.781   3.629
32522W        W 3122   6.273  39.795  12.459
32523W        W 3123  27.643  17.797  14.064
32524W        W 3124  31.822  21.677   2.897
32525W        W 3125  20.829  38.549  12.095
32526W        W 3126  10.602  22.528   3.202
32527W        W 3127   6.421  34.911   3.794
32528W        W 3128  34.003   7.583   4.035
32529W        W 3129  35.987  20.900   2.846
32530W        W 3130  27.065   7.364  14.959
32531W        W 3131  12.453  22.027   3.287
32532W        W 3132  36.780  19.519  12.522
32533W        W 3133  27.832   5.199  10.389
32534W        W 3134   6.867   7.154   1.891
32535W        W 3135  29.532  42.783  13.810
32536W        W 3136   0.842   0.033  10.590
32537W        W 3137  40.099  36.963   3.720
32538W        W 3138  10.096  20.112   3.689
32539W        W 3139  33.132  23.159  14.792
32540W        W 3140  36.334  31.813   4.021
32541W        W 3141  14.317  13.244  12.313
32542W        W 3142   4.331  19.767  10.387
32543W        W 3143  28.219  16.831  12.780
32544W        W 3144  43.751  38.637   4.112
32545W        W 3145  41.723  26.666  11.163
32546W        W 3146  38.892  33.950  10.902
32547W        W 3147  43.832  10.429   0.466
32548W        W 3148  15.642  34.026  13.145
32549W        W 3149  28.900   5.052   2.256
32550W        W 3150  28.076  24.294   2.320
32551W        W 3151  15.818  31.111   3.218
32552W        W 3152  22.972   5.366  12.851
32553W        W 3153   3.717  39.856  11.890
32554W        W 3154  28.635  34.559  14.445
32555W        W 3155  19.048   2.155  13.405
32556W        W 3156   7.449  14.737   4.302
32557W        W 3157  36.859  24.653   4.489
32558W        W 3158   4.598  44.382   4.104
32559W        W 3159  24.096  22.541  14.463
32560W        W 3160   7.435  24.957   4.700
32561W        W 3161  39.717  28.643  13.551
32562W        W 3162  28.195  27.660  12.426
32563W        W 3163  28.647   7.119  12.182
32564W        W 3164   0.112  13.723  13.367
32565W        W 3165  40.390  28.985   0.287
32566W        W 3166   2.185  12.737  12.611
32567W        W 3167  35.304  22.601  14.928
32568W        W 3168  35.038  29.044   0.876
32569W        W 3169  34.705  20.223   3.117
32570W        W 3170  37.088  44.846  13.055
32571W        W 3171   4.537  28.827   5.079
32572W        W 3172  42.357  36.850  11.449
32573W        W 3173  13.152   5.735   3.930
32574W        W 3174  16.017  15.589   4.950
32575W        W 3175  28.612  19.649   3.600
32576W        W 3176  11.775  36.974  11.602
32577W        W 3177  20.298  36.503  14.527
32578W        W 3178   0.163  28.217  11.208
32579W        W 3179  11.630   0.093   2.110
32580W        W 3180  11.526  35.922  10.430
32581W        W 3181   5.211  32.189   2.795
32582W        W 3182  26.566  37.406  10.690
32583W        W 3183  11.193  17.652  13.327
32584W        W 3184   8.743  22.535  14.509
32585W        W 3185  23.944  38.746  12.265
32586W        W 3186  15.253   8.058  11.706
32587W        W 3187  26.386  27.348  12.091
32588W        W 3188  39.486   1.003  10.700
32589W        W 3189  11.814  44.335  14.297
32590W        W 3190   2.331  11.764   3.800
32591W        W 3191  32.601  27.627  10.532
32592W        W 3192  40.257   5.265   1.031
32593W        W 3193  35.530  20.514  13.543
32594W        W 3194  36.528  26.531  10.799
32595W        W 3195   0.779  40.880  12.816
32596W        W 3196  41.212   6.359   3.026
32597W        W 3197  23.720   9.205  14.910
32598W        W 3198  32.261  16.694  12.471
32599W        W 3199  36.847  40.510  10.800
32600W        W 3200  19.191  44.892   2.809
32601W        W 3201  12.328   7.181  12.389
32602W        W 3202  32.097  24.626   0.437
32603W        W 3203   5.499  37.124  11.955
32604W        W 3204   4.105  10.989  11.079
32605W        W 3205  13.746  18.435  13.483
32606W        W 3206   1.322  44.923  14.746
32607W        W 3207  22.994  43.712   1.014
32608W        W 3208   6.703   0.888   0.710
32609W        W 3209   3.320  22.261  13.968
32610W        W 3210   7.360  30.659   0.415
32611W        W 3211  18.738  22.029  11.987
32612W        W 3212  21.970  37.006   5.007
32613W        W 3213  21.880  19.661   4.540
32614W        W 3214  26.020  37.136   2.105
32615W        W 3215  19.461  34.418   0.827
32616W        W 3216   3.760  23.447  14.419
32617W        W 3217  15.597  40.108  14.901
32618W        W 3218  16.849  22.405  13.226
32619W        W 3219  38.043   8.386  10.681
32620W        W 3220   4.733  41.452   0.266
32621W        W 3221  29.444   6.753  12.890
32622W        W 3222  38.954  10.357   4.985
32623W        W 3223  37.382  39.944  13.859
32624W        W 3224  10.210  39.833  12.524
32625W        W 3225  13.778   4.741  13.449
32626W        W 3226  31.519  40.641  14.334
32627W        W 3227  39.279  33.852  12.870
32628W        W 3228   9.842  14.606   3.630
32629W        W 3229  12.656  14.813   3.560
32630W        W 3230  28.912   9.678  11.137
32631W        W 3231  13.911  27.904   0.794
32632W        W 3232  24.882  16.100   3.355
32633W        W 3233  21.506  11.814   4.826
32634W        W 3234  21.524   7.297  13.835
32635W        W 3235  25.062   1.012   1.676
32636W        W 3236  26.054  44.834   3.303
32637W        W 3237  37.146  26.420  11.906
32638W        W 3238  12.370   7.169   3.263
32639W        W 3239  42.488  44.750   4.314
32640W        W 3240  19.071  33.024   0.971
32641W        W 3241  24.487   7.392   3.872
32642W        W 3242  27.202  30.200  13.398
32643W        W 3243  26.487  32.680  12.385
32644W        W 3244  15.604  35.329   0.055
32645W        W 3245  18.065  41.379  13.847
32646W        W 3246   3.752   2.681   4.735
32647W        W 3247   9.052  42.028  11.133
32648W        W 3248  42.408  39.514   0.067
32649W        W 3249  21.464  36.054  11.242
32650W        W 3250   9.216  15.950  10.707
32651W        W 3251   6.167  37.593  13.373
32652W        W 3252   8.150   3.391   0.281
32653W        W 3253  28.123  31.067  13.920
32654W        W 3254  26.563  44.901   3.247
32655W        W 3255  21.555  34.025   4.114
32656W        W 3256   2.275  11.242   0.260
32657W        W 3257  18.535   1.963   0.202
32658W        W 3258  37.768  30.494   0.416
32659W        W 3259  42.549  36.861  13.369
32660W        W 3260  41.583  28.961  14.485
32661W        W 3261  41.799  15.915  12.396
32662W        W 3262  14.752  40.217  10.766
32663W        W 3263  16.563   4.406   3.662
32664W        W 3264  27.252  30.911  13.367
32665W        W 3265  35.944  42.676   2.929
32666W        W 3266   9.447  40.343  12.478
32667W        W 3267  20.010  10.743   4.624
32668W        W 3268  15.885   1.235  12.851
32669W        W 3269  32.257  12.338   4.202
32670W        W 3270   6.678  39.527   3.721
32671W        W 3271  29.065   5.103   2.738
32672W        W 3272   9.279   9.952  10.565
32673W        W 3273  27.555   6.225  12.885
32674W        W 3274  41.224  26.596   3.777
32675W        W 3275  24.791  32.012  14.188
32676W        W 3276  26.060  21.686   0.857
32677W        W 3277  24.152  29.390  13.501
32678W        W 3278  26.228  42.016  11.064
32679W        W 3279  15.297  30.507  14.855
32680W        W 3280  20.161  27.956   0.482
32681W        W 3281   0.993  15.696   0.422
32682W        W 3282  24.035  10.705  12.877
32683W        W 3283   5.925  37.871   1.334
32684W        W 3284   6.939  39.736  11.154
32685W        W 3285  36.144   5.879  10.513
32686W        W 3286  13.814  10.102  12.895
32687W        W 3287   4.458  28.470   4.257
32688W        W 3288   8.488  35.364   4.614
32689W        W 3289  41.091  35.523  11.142
32690W        W 3290   2.389  29.365   2.638
32691W        W 3291  39.784  44.930   4.117
32692W        W 3292  15.769  37.693   1.048
32693W        W 3293   7.085  21.743  14.209
32694W        W 3294   4.731  33.799   3.263
32695W        W 3295  36.274  10.672  10.686
32696W        W 3296  30.042  28.636  12.090
32697W        W 3297  27.814  33.001   2.306
32698W        W 3298  11.213  39.953  11.435
32699W        W 3299  14.620  12.976  11.993
32700W        W 3300  28.227  12.680  14.356
32701W        W 3301  31.075  27.086  14.438
32702W        W 3302  36.977  42.719   4.676
32703W        W 3303  34.854  19.216  12.508
32704W        W 3304   5.509  24.775   2.667
32705W        W 3305  15.870  25.119  11.440
32706W        W 3306   0.269  40.790   1.973
32707W        W 3307  40.844  22.601   0.960
32708W        W 3308  15.046   4.648  12.230
32709W        W 3309  23.409  19.706   0.808
32710W        W 3310  34.968  17.801   1.105
32711W        W 3311   1.403   4.862  13.097
32712W        W 3312  42.519  13.661   1.891
32713W        W 3313   4.916  13.251  12.956
32714W        W 3314  16.691  15.671  13.465
32715W        W 3315  37.633  27.397   0.809
32716W        W 3316  24.087  13.493   1.174
32717W        W 3317  28.258   2.941   4.029
32718W        W 3318  39.785  11.134   3.284
32719W        W 3319  28.995  13.615  10.872
32720W        W 3320  36.349  12.525  13.318
32721W        W 3321   2.791  26.552   0.784
32722W        W 3322  43.732   6.318   4.143
32723W        W 3323  12.283  34.431  11.235
32724W        W 3324  34.667  43.119  12.959
32725W        W 3325  12.211  11.582   4.343
32726W        W 3326  36.572   6.441   2.733
32727W        W 3327  30.435  20.498   4.327
32728W        W 3328   7.969   2.035   0.544
32729W        W 3329  40.872  19.578  11.623
32730W        W 3330  12.651   9.294   2.919
32731W        W 3331  19.610  24.104  12.559
32732W        W 3332   7.185   9.082  14.681
32733W        W 3333   3.778  13.394   0.132
32734W        W 3334  43.975   0.411  11.525
32735W        W 3335  38.534   6.824  14.999
32736W        W 3336  31.047  18.223  10.758
32737W        W 3337  12.644   8.391  14.910
32738W        W 3338  34.709  22.571  11.153
32739W        W 3339  41.902  42.418   0.828
32740W        W 3340  37.982  20.227   1.777
32741W        W 3341  16.755  41.060   0.750
32742W        W 3342  29.254  11.873  11.181
32743W        W 3343  25.953  10.801   1.457
32744W        W 3344  12.102   0.285  11.979
32745W        W 3345  21.122  40.480   5.092
32746W        W 3346   7.107   0.057  13.388
32747W        W 3347   7.864  34.261  13.976
32748W        W 3348  31.099  13.440   3.396
32749W        W 3349   3.429  11.331   3.288
32750W        W 3350   7.097   2.499  11.679
32751W        W 3351  15.646  15.640   1.384
32752W        W 3352  15.357  32.528   4.027
32753W        W 3353   1.372  23.232   0.964
32754W        W 3354  25.879   6.599  12.354
32755W        W 3355  44.533  25.233   0.436
32756W        W 3356   4.444  39.987   3.292
32757W        W 3357   9.160  18.462   1.596
32758W        W 3358  44.597  26.246  11.995
32759W        W 3359  17.507  31.656  11.999
32760W        W 3360  12.799  24.013  13.493
32761W        W 3361   4.415   9.713   0.751
32762W        W 3362  29.674  42.024   4.443
32763W        W 3363  32.130  10.647   4.848
32764W        W 3364  33.144   4.602  10.733
32765W        W 3365  26.784  44.084   0.006
32766W        W 3366   4.295  20.244   2.851
32767W        W 3367  41.972  12.655   1.222
32768W        W 3368  27.665  11.594  13.819
32769W        W 3369  12.065   9.794  11.567
32770W        W 3370  15.230  37.485  14.451
32771W        W 3371   9.181   2.323   2.077
32772W        W 3372  41.514  21.985  12.572
32773W        W 3373   5.897   1.185   0.180
32774W        W 3374  41.392  32.561  12.009
32775W        W 3375  31.491  13.856  13.902
32776W        W 3376   1.012   6.775  12.034
32777W        W 3377   3.946   0.815   1.272
32778W        W 3378   9.840  19.557  11.427
32779W        W 3379  23.675  24.731  14.698
32780W        W 3380   4.377  22.362   1.992
32781W        W 3381  29.070  36.083  14.345
32782W        W 3382  16.712  40.752  12.962
32783W        W 3383  17.261  39.976  13.017
32784W        W 3384  18.093  13.873   0.533
32785W        W 3385  34.279   7.276   0.955
32786W        W 3386   3.774   9.192  11.007
32787W        W 3387  19.023  30.377  14.808
32788W        W 3388   7.202  12.018  11.900
32789W        W 3389  22.649   2.732  14.399
32790W        W 3390  20.594  32.573   3.747
32791W        W 3391  14.179  43.040   1.751
32792W        W 3392   5.221  39.782  13.888
32793W        W 3393  21.336   5.935  13.401
32794W        W 3394  27.580   1.720  13.553
32795W        W 3395  39.841  28.987  13.982
32796W        W 3396   8.964  30.601  10.741
32797W        W 3397  20.145  10.855  11.709
32798W        W 3398  31.487  17.067   1.386
32799W        W 3399  21.585  23.813   0.928
32800W        W 3400  32.959  28.281  11.081
32801W        W 3401  13.613  32.567   1.329
32802W        W 3402  12.086  26.011  12.788
32803W        W 3403  18.282  35.581  12.904
32804W        W 3404  16.704  28.201   2.916
32805W        W 3405  22.741  26.172  12.076
32806W        W 3406  22.751  20.974   4.128
32807W        W 3407  42.016  16.775  11.226
32808W        W 3408  30.992  22.572   4.852
32809W        W 3409  11.721  35.405  13.144
32810W        W 3410   2.677  21.453   1.318
32811W        W 3411   6.484  26.007   3.929
32812W        W 3412   3.779  10.732   3.667
32813W        W 3413  18.657   9.022  10.007
32814W        W 3414  38.018   8.390   2.656
32815W        W 3415  33.901  16.659  13.691
32816W        W 3416  39.944  44.764   1.900
32817W        W 3417   5.724  23.045  11.553
32818W        W 3418  26.000  40.918  11.523
32819W        W 3419   2.983  17.396  14.282
32820W        W 3420   0.478  27.445  10.940
32821W        W 3421  25.619  26.573   3.897
32822W        W 3422  34.640   4.372   3.309
32823W        W 3423  23.958  29.439   3.239
32824W        W 3424   5.349   8.846   2.810
32825W        W 3425  20.005   2.251  13.555
32826W        W 3426  14.154  36.604   2.623
32827W        W 3427  42.317  11.034   0.496
32828W        W 3428  11.629  43.795   0.832
32829W        W 3429  41.945   8.616  14.320
32830W        W 3430   6.091  31.946  10.315
32831W        W 3431  33.459   8.826   1.919
32832W        W 3432   9.396  14.227  13.991
32833W        W 3433  26.056  38.542  11.759
32834W        W 3434  32.007  30.428  13.126
32835W        W 3435  28.847  26.112   2.243
32836W        W 3436  39.399  38.027  10.581
32837W        W 3437  19.334  11.029  11.610
32838W        W 3438  32.860  42.912   2.301
32839W        W 3439  13.877  32.071   0.023
32840W        W 3440  40.498  27.661  10.441
32841W        W 3441  18.402  28.034  11.091
32842W        W 3442  43.475  17.700   0.829
32843W        W 3443  35.774  26.605   3.600
32844W        W 3444   0.508  26.883   4.123
32845W        W 3445   1.329   2.472  10.670
32846W        W 3446  15.859  29.061  10.301
32847W        W 3447  21.208  32.152   1.202
32848W        W 3448  41.778   4.958  11.395
32849W        W 3449   7.226   8.507  12.402
32850W        W 3450   7.142  30.901  14.276
32851W        W 3451  18.784  26.677  10.431
32852W        W 3452  29.176  11.817   2.760
32853W        W 3453  41.921  38.076  11.860
32854W        W 3454  26.399  38.022  11.461
32855W        W 3455  40.034  27.980   0.859
32856W        W 3456  37.336  32.745   3.593
32857W        W 3457  44.275  40.640  14.735
32858W        W 3458  40.460  33.961   2.321
32859W        W 3459  42.316  16.826   3.320
32860W        W 3460   1.008  38.406  11.997
32861W        W 3461  43.295  26.218   3.760
32862W        W 3462  30.044  16.491  12.341
32863W        W 3463  38.371  33.067   2.806
32864W        W 3464   9.182  26.946   4.192
32865W        W 3465  36.869  43.181  13.252
32866W        W 3466   8.367  11.304  11.160
32867W        W 3467  37.080  34.143   1.706
32868W        W 3468  23.963   4.387   0.876
32869W        W 3469  14.113  23.114   4.591
32870W        W 3470  21.993   4.352   4.583
32871W        W 3471   8.641  32.748  11.129
32872W        W 3472  19.367  21.215   1.251
32873W        W 3473  41.072   4.820  13.044
32874W        W 3474  21.397  20.332   3.688
32875W        W 3475  16.695  20.012   1.689
32876W        W 3476  30.964  35.153  12.068
32877W        W 3477  12.814  14.284  14.807
32878W        W 3478  26.460  18.583  13.996
32879W        W 3479   4.744   3.932   0.015
32880W        W 3480   4.210  43.037  11.039
32881W        W 3481  29.815   4.040   0.302
32882W        W 3482  22.001   6.198  10.705
32883W        W 3483  21.309  38.686  10.671
32884W        W 3484  24.604  25.571   1.263
32885W        W 3485   4.279   9.697   0.221
32886W        W 3486   1.075  31.930  11.189
32887W        W 3487  10.140  39.638  14.400
32888W        W 3488   1.936  25.619   1.727
32889W        W 3489   0.844  28.436   2.749
32890W        W 3490  18.615  43.280  10.675
32891W        W 3491  43.576  12.335   3.745
32892W        W 3492  16.183  30.016  12.550
32893W        W 3493   2.200   9.114  12.228
32894W        W 3494   3.701  41.112   1.404
32895W        W 3495   6.836  12.810  11.620
32896W        W 3496  35.223  34.982   4.978
32897W        W 3497  24.465   0.958   2.718
32898W        W 3498   0.283  24.068   3.409
32899W        W 3499  26.052  43.358  13.135
32900W        W 3500  42.046   6.714  14.947
32901W        W 3501  13.559  23.019  13.115
32902W        W 3502   7.378  33.573   2.799
32903W        W 3503  42.365  27.716  13.541
32904W        W 3504  24.523   2.280  10.904
32905W        W 3505  22.537   4.306   2.194
32906W        W 3506  19.352  35.082  11.458
32907W        W 3507  20.665  25.944   2.298
32908W        W 3508  14.316  22.647  12.992
32909W        W 3509  28.526  15.481   0.751
32910W        W 3510   9.200  25.207   3.108
32911W        W 3511   9.256   0.669  13.869
32912W        W 3512  25.354   4.054   0.888
32913W        W 3513   5.980  43.845  13.475
32914W        W 3514  35.438  30.319   2.206
32915W        W 3515  32.925  37.259   5.289
32916W        W 3516   7.777  21.563  14.798
32917W        W 3517  11.838  31.990   1.316
32918W        W 3518   3.748  36.607   5.146
32919W        W 3519  17.080  13.136   3.256
32920W        W 3520  44.037  13.818  12.503
32921W        W 3521  25.434  44.229   2.383
32922W        W 3522  35.447  22.176  13.604
32923W        W 3523  27.211   7.936   2.736
32924W        W 3524  41.308  11.965   4.712
32925W        W 3525  29.147  40.998   0.240
32926W        W 3526  20.717   0.931   0.692
32927W        W 3527  17.790  17.332   0.066
32928W        W 3528  25.718   0.312   2.659
32929W        W 3529   0.857  40.656  10.436
32930W        W 3530  21.753  28.450   4.351
32931W        W 3531  23.401  13.150  13.458
32932W        W 3532  33.898   5.731   3.113
32933W        W 3533  28.926  20.166   4.303
32934W        W 3534  17.423   7.115  11.595
32935W        W 3535  13.185   9.709   1.073
32936W        W 3536   2.964  27.570   1.214
32937W        W 3537  19.711  26.927  13.474
32938W        W 3538   2.713  34.606   0.827
32939W        W 3539   0.803  35.320  12.479
32940W        W 3540  37.627  10.691   3.267
32941W        W 3541  39.563  41.429   3.902
32942W        W 3542  23.256  40.065   1.291
32943W        W 3543  34.686   4.415   2.795
32944W        W 3544  12.136   1.303  11.784
32945W        W 3545   2.868  36.546   1.014
32946W        W 3546  11.568  25.733  11.069
32947W        W 3547  34.573  12.639  12.873
32948W        W 3548  40.304  16.634   2.323
32949W        W 3549  41.816  20.277  12.080
32950W        W 3550  11.690  10.919   0.319
32951W        W 3551  40.847  12.676   3.246
32952W        W 3552  32.084  40.938  11.521
32953W        W 3553  35.312  14.299   2.576
32954W        W 3554  14.708  18.335   1.485
32955W        W 3555  28.199  18.331   1.204
32956W        W 3556  22.331  32.385   2.529
32957W        W 3557  17.753  24.242  12.480
32958W        W 3558  30.944   0.819   4.746
32959W        W 3559  15.586  35.551  12.561
32960W        W 3560  14.044  28.018  12.632
32961W        W 3561  23.566  22.670   1.159
32962W        W 3562   1.335  22.108   2.704
32963W        W 3563  10.304  37.919   3.622
32964W        W 3564   4.975  22.870  14.444
32965W        W 3565  23.435  11.765   1.273
32966W        W 3566  38.988  34.955  10.805
32967W        W 3567  21.005  43.003  14.431
32968W        W 3568  33.043  42.296   4.108
32969W        W 3569  33.472  27.589   0.780
32970W        W 3570   4.867  34.831   0.217
32971W        W 3571  41.103  32.532  14.271
32972W        W 3572   4.737  26.064  14.094
32973W        W 3573  18.528  13.608  12.576
32974W        W 3574  29.090   3.322   4.492
32975W        W 3575  27.894   2.388  10.244
32976W        W 3576  25.149  22.123   0.247
32977W        W 3577  37.852  15.562   3.149
32978W        W 3578  33.525  23.134   2.804
32979W        W 3579  40.365   4.357   2.831
32980W        W 3580  37.614  19.141   4.894
32981W        W 3581  21.426  41.849   1.292
32982W        W 3582   9.352  38.121  14.403
32983W        W 3583  12.246  31.370  13.088
32984W        W 3584  34.888  26.140   3.125
32985W        W 3585   9.293   5.086   3.275
32986W        W 3586  20.178   5.711   0.608
32987W        W 3587  32.245  37.680  11.152
32988W        W 3588  27.592  23.461  12.045
32989W        W 3589  39.088  21.159  11.198
32990W        W 3590  32.601  18.127   0.931
32991W        W 3591  11.867   1.180   3.729
32992W        W 3592  36.933  22.720  11.380
32993W        W 3593   1.997   9.847  11.650
32994W        W 3594   7.725  22.619   3.625
32995W        W 3595  29.376  11.315   3.092
32996W        W 3596  18.029  38.762   3.712
32997W        W 3597  29.922   3.569   3.385
32998W        W 3598   7.894  28.041  13.811
32999W        W 3599  22.719  17.508  10.279
33000W        W 3600  26.553   0.008  14.959
33001W        W 3601  39.801  28.658   3.059
33002W        W 3602   7.676   9.866  12.877
33003W        W 3603  30.410  34.498   0.954
33004W        W 3604  28.047  25.225   5.059
33005W        W 3605  20.315   2.360   1.479
33006W        W 3606  29.373  27.682   1.013
33007W        W 3607  17.336  42.359  12.286
33008W        W 3608  37.003  10.318   0.902
33009W        W 3609  21.376  32.905   4.242
33010W        W 3610   8.754  24.460  10.853
33011W        W 3611  27.350  31.410  11.585
33012W        W 3612  34.629  11.872  12.413
33013W        W 3613   3.509  43.434   4.643
33014W        W 3614   6.161  16.803  11.976
33015W        W 3615  26.937  27.692  10.408
33016W        W 3616  13.748   2.167   4.748
33017W        W 3617  40.099   8.521  10.639
33018W        W 3618   0.437  42.284  12.001
33019W        W 3619   8.355  17.508  14.015
33020W        W 3620  24.424  43.967   2.384
33021W        W 3621  41.952  27.442  14.311
33022W        W 3622  12.272  37.194  14.018
33023W        W 3623  24.689  19.164   2.605
33024W        W 3624  16.844  10.701  14.408
33025W        W 3625  12.874   0.848  14.709
33026W        W 3626   0.023  33.322  14.334
33027W        W 3627  15.165  23.488   4.730
33028W        W 3628  34.043  23.293   2.763
33029W        W 3629  20.706  32.681  11.647
33030W        W 3630  15.676  39.824   2.133
33031W        W 3631  16.981  11.315  10.725
33032W        W 3632  33.595   0.813   2.389
33033W        W 3633  39.376  33.894   2.423
33034W        W 3634  17.642  10.895  13.438
33035W        W 3635  21.951  35.958  12.861
33036W        W 3636  11.241   3.683  10.755
33037W        W 3637  38.355  33.093   0.924
33038W        W 3638  21.948   9.664  13.136
33039W        W 3639   3.467  37.003   4.905
33040W        W 3640  11.397  25.264  11.997
33041W        W 3641  15.547  19.661  11.892
33042W        W 3642   5.852  29.768  13.654
33043W        W 3643  38.580  33.572   4.107
33044W        W 3644  11.439   6.318   3.639
33045W        W 3645  25.339   7.861  14.890
33046W        W 3646  23.249   9.780  13.519
33047W        W 3647  32.855  34.289   1.830
33048W        W 3648  21.533   7.410  12.560
33049W        W 3649  44.511  41.892   1.472
33050W        W 3650  26.452  20.755   0.594
33051W        W 3651  18.447  32.557  13.481
33052W        W 3652  22.235  15.640   3.186
33053W        W 3653  24.041  10.649   0.305
33054W        W 3654  10.533  29.119  12.433
33055W        W 3655  35.323  35.421   4.033
33056W        W 3656  30.677  27.672  10.566
33057W        W 3657  23.397  40.629  12.150
33058W        W 3658  14.795  44.946   2.575
33059W        W 3659  24.973  37.944  14.015
33060W        W 3660  41.284  20.762  11.086
33061W        W 3661  17.641  29.646   1.159
33062W        W 3662  41.136  32.185   3.349
33063W        W 3663  39.599   8.527  10.773
33064W        W 3664  14.137  41.805   2.048
33065W        W 3665   9.076  15.113   2.634
33066W        W 3666  18.571  19.289  10.653
33067W        W 3667   7.480  17.540   3.611
33068W        W 3668  21.763  35.369   0.237
33069W        W 3669  28.196   5.319  11.688
33070W        W 3670  38.846  23.723  11.187
33071W        W 3671  40.016  25.228  12.530
33072W        W 3672  42.316  31.388   1.864
33073W        W 3673  34.034  41.901   2.390
33074W        W 3674  32.333  42.917   4.440
33075W        W 3675  19.770   0.260   0.650
33076W        W 3676  10.826  40.978   3.870
33077W        W 3677  12.717   4.148   2.926
33078W        W 3678  27.515  30.191   2.870
33079W        W 3679  11.127  32.944  12.328
33080W        W 3680  42.925  24.904  14.553
33081W        W 3681  28.033  21.796   0.248
33082W        W 3682   3.501  18.748   0.187
33083W        W 3683  40.432  16.874  13.967
33084W        W 3684  30.010  24.464  14.258
33085W        W 3685  37.883  23.980   4.533
33086W        W 3686  41.459   5.823  12.036
33087W        W 3687   6.281  35.593   4.038
33088W        W 3688  19.136  13.176  13.362
33089W        W 3689  38.263   5.113  13.298
33090W        W 3690  28.214  26.926  11.961
33091W        W 3691   9.353  39.615   4.375
33092W        W 3692  28.666  42.444   0.812
33093W        W 3693  39.036  29.770  13.511
33094W        W 3694  44.488   2.102   3.119
33095W        W 3695  35.877   6.452   4.980
33096W        W 3696  12.426  31.126   1.270
33097W        W 3697  36.408  22.415   5.139
33098W        W 3698  17.734  19.817   0.290
33099W        W 3699  35.001  14.240   4.073
33100W        W 3700  11.725  26.869  14.932
33101W        W 3701   3.438  43.947   0.428
33102W        W 3702   7.330   7.155   2.763
33103W        W 3703  39.486  26.780   2.840
33104W        W 3704   1.511  12.244  11.251
33105W        W 3705  10.624  32.143   0.886
33106W        W 3706  35.112  14.696   4.322
33107W        W 3707   3.979   9.037   4.606
33108W        W 3708  35.368  29.070  13.994
33109W        W 3709   5.870  22.299   0.992
33110W        W 3710  23.567  29.885  12.099
33111W        W 3711  10.058   6.898   2.850
33112W        W 3712  42.888   4.633  12.180
33113W        W 3713  32.506  42.102  10.634
33114W        W 3714  34.921   2.042  10.664
33115W        W 3715  42.478  28.521  13.951
33116W        W 3716  25.536  12.718  12.827
33117W        W 3717  28.727  12.809   2.754
33118W        W 3718  10.926  29.991   1.294
33119W        W 3719  33.795  29.480   1.080
33120W        W 3720  32.384  28.184   1.547
33121W        W 3721  21.013  29.227   5.159
33122W        W 3722  36.480  37.414  10.731
33123W        W 3723  32.596  26.064  11.632
33124W        W 3724   0.513  27.531   3.221
33125W        W 3725  24.653   7.271   1.411
33126W        W 3726  32.940  16.316   2.323
33127W        W 3727  19.046  44.054   2.701
33128W        W 3728  28.001  43.446   2.627
33129W        W 3729  34.404   6.731   1.517
33130W        W 3730  37.575  41.994  14.515
33131W        W 3731  19.234  36.843  12.183
33132W        W 3732  28.074   3.322   1.290
33133W        W 3733   2.356  17.526  14.764
33134W        W 3734  40.420   8.586   1.204
33135W        W 3735   1.879  15.306  10.933
33136W        W 3736  12.390   5.307   3.533
33137W        W 3737   5.206  39.403  10.740
33138W        W 3738  20.460  13.190   1.908
33139W        W 3739  26.360  28.898   3.171
33140W        W 3740   6.419  15.286   0.433
33141W        W 3741  41.521  20.710  11.949
33142W        W 3742  32.159   8.111  12.040
33143W        W 3743  31.858   6.395   3.267
33144W        W 3744  39.767  43.592  11.401
33145W        W 3745  23.997   1.887  13.242
33146W        W 3746   5.969  15.948   2.867
33147W        W 3747  29.451  32.551   2.836
33148W        W 3748  22.235  26.171   3.451
33149W        W 3749  38.032  15.324  11.696
33150W        W 3750  36.028  32.065  10.714
33151W        W 3751  15.554   5.112   0.436
33152W        W 3752  28.716  33.542   0.265
33153W        W 3753  28.231  37.381  11.658
33154W        W 3754  12.139  41.337  11.529
33155W        W 3755  18.361  40.947   2.715
33156W        W 3756  40.792  21.044  13.854
33157W        W 3757  26.933  18.856  14.953
33158W        W 3758  37.764  41.915   1.854
33159W        W 3759  38.389  15.305  12.924
33160W        W 3760  16.121  34.901   0.229
33161W        W 3761   7.950  29.124  11.976
33162W        W 3762  42.276  27.123  12.490
33163W        W 3763  30.425  43.862  14.401
33164W        W 3764  27.503  13.615  11.391
33165W        W 3765   0.195  15.090   3.204
33166W        W 3766  28.404  17.524   1.628
33167W        W 3767   1.803  15.408  10.427
33168W        W 3768  19.270  20.077   0.858
33169W        W 3769  13.764   1.130  10.590
33170W        W 3770  33.939  23.386  11.120
33171W        W 3771  32.441  29.434   1.879
33172W        W 3772  31.586  42.036  13.445
33173W        W 3773  30.109  30.566  11.093
33174W        W 3774  23.717  35.552  11.989
33175W        W 3775   8.564  15.670  11.159
33176W        W 3776  39.845  12.341  13.250
33177W        W 3777   2.520  33.203  14.449
33178W        W 3778  19.742  15.746  10.993
33179W        W 3779  10.845  14.648   1.276
33180W        W 3780  19.280  23.741   2.778
33181W        W 3781  13.222  21.700   2.265
33182W        W 3782   2.914  32.576   9.812
33183W        W 3783  18.823  21.154  14.337
33184W        W 3784   0.508  42.524   3.303
33185W        W 3785  26.235  36.775  11.997
33186W        W 3786   7.789   5.731  13.442
33187W        W 3787  26.039   8.420  10.666
33188W        W 3788  33.617   8.609  11.193
33189W        W 3789   1.306  23.655  13.820
33190W        W 3790  19.639  25.182   3.761
33191W        W 3791  33.773  19.007   3.365
33192W        W 3792  33.495   4.447  13.911
33193W        W 3793  16.517  30.032   0.337
33194W        W 3794  14.769  16.752   3.272
33195W        W 3795  15.794  20.013  10.639
33196W        W 3796  33.634  23.668  13.441
33197W        W 3797  24.054  14.440   0.864
33198W        W 3798  27.608   0.429   2.872
33199W        W 3799  38.428  13.492   4.188
33200W        W 3800  10.332  12.707  12.005
33201W        W 3801  16.632  26.761  11.891
33202W        W 3802  34.582  44.967  12.826
33203W        W 3803  18.010   5.161   4.339
33204W        W 3804  43.826  35.068  12.476
33205W        W 3805  25.309  29.993   2.179
33206W        W 3806  29.039   5.869  14.491
33207W        W 3807  26.407   0.760  10.641
33208W        W 3808  37.402  37.733  10.701
33209W        W 3809  29.108  19.724   2.665
33210W        W 3810  29.600  20.656  12.179
33211W        W 3811  39.443  31.850   2.201
33212W        W 3812  37.555  18.464  14.370
33213W        W 3813  12.383   2.392   1.389
33214W        W 3814  12.136  22.984  11.025
33215W        W 3815  23.202  10.095   1.154
33216W        W 3816  35.401  39.534  13.904
33217W        W 3817  25.929  11.879  12.961
33218W        W 3818   1.302  23.411  14.570
33219W        W 3819   9.441  26.155  14.066
33220W        W 3820   6.775  37.253   0.833
33221W        W 3821  21.492  40.932  12.881
33222W        W 3822  38.370  28.785  12.733
33223W        W 3823  29.431  16.779  11.183
33224W        W 3824  12.113  22.229  13.509
33225W        W 3825  12.069   0.372  11.007
33226W        W 3826  41.790  24.299  12.170
33227W        W 3827  25.936  29.506  14.859
33228W        W 3828  14.260  11.478   1.674
33229W        W 3829  23.011  40.069  13.328
33230W        W 3830   7.985  33.559  13.413
33231W        W 3831   0.435  31.672  10.661
33232W        W 3832  17.548   0.085  13.503
33233W        W 3833  30.601  42.064  14.362
33234W        W 3834  44.492  35.127   1.736
33235W        W 3835  41.831  21.165   2.375
33236W        W 3836   3.453  43.539  11.536
33237W        W 3837  42.378  12.799  12.124
33238W        W 3838  41.867   6.228   4.597
33239W        W 3839  42.440  29.627   4.026
33240W        W 3840  40.342  11.855  12.522
33241W        W 3841  32.709  29.635   2.718
33242W        W 3842  24.700  41.408   4.679
33243W        W 3843  14.940  19.124   3.690
33244W        W 3844  19.709  31.363  10.802
33245W        W 3845   0.432  42.087   4.628
33246W        W 3846  30.040  44.817  11.968
33247W        W 3847  42.491   0.277   1.991
33248W        W 3848  20.238  41.560  13.946
33249W        W 3849  11.222   7.547   3.213
33250W        W 3850  12.120  42.950  11.393
33251W        W 3851  29.573   1.442  14.786
33252W        W 3852  28.511  14.816  13.644
33253W        W 3853  11.891  31.604  11.575
33254W        W 3854  11.600   9.702  13.403
33255W        W 3855  24.574  33.784   0.277
33256W        W 3856   8.728  35.861  12.565
33257W        W 3857  30.149   1.839  13.287
33258W        W 3858  16.798  30.429  12.942
33259W        W 3859  20.354  27.415   9.960
33260W        W 3860   7.275  13.799   0.881
33261W        W 3861   9.898  27.379  13.401
33262W        W 3862  21.965  40.026   2.393
33263W        W 3863   5.234  43.850  11.833
33264W        W 3864  39.391  36.893  10.708
33265W        W 3865  38.891  29.256   1.068
33266W        W 3866   5.799   3.439   3.827
33267W        W 3867  21.599  14.762  10.637
33268W        W 3868  37.862  20.717  14.838
33269W        W 3869  23.264  16.869   1.746
33270W        W 3870  16.260  37.430   0.473
33271W        W 3871  44.507  38.023   4.527
33272W        W 3872   4.568  37.002  11.154
33273W        W 3873   8.167  28.559  10.278
33274W        W 3874  27.983  34.436   4.553
33275W        W 3875  27.095  19.545   1.860
33276W        W 3876  12.145   2.405  14.399
33277W        W 3877  43.712  20.616   4.457
33278W        W 3878  28.359   8.854  14.812
33279W        W 3879   5.050  26.603   1.473
33280W        W 3880   3.507  44.603  11.615
33281W        W 3881  14.524  40.057  11.193
33282W        W 3882  31.903  34.106  11.643
33283W        W 3883   8.435  37.549   4.388
33284W        W 3884  42.707   7.206   2.368
33285W        W 3885   0.293   2.532  12.598
33286W        W 3886   8.860  27.023   4.588
33287W        W 3887   1.148  24.553   1.143
33288W        W 3888  40.860   2.565   1.334
33289W        W 3889   2.650  34.905  12.988
33290W        W 3890  12.728  19.614   3.579
33291W        W 3891  26.675  43.567  14.889
33292W        W 3892  31.861  30.757   3.424
33293W        W 3893  11.614  42.834  12.604
33294W        W 3894  44.091  13.693   1.576
33295W        W 3895  43.788  21.269  11.614
33296W        W 3896  16.214  28.484  14.255
33297W        W 3897  31.064  10.442   1.851
33298W        W 3898  18.562  26.393   3.949
33299W        W 3899  14.596  13.704   3.028
33300W        W 3900  24.726  37.379  14.795
33301W        W 3901  40.858  11.440   1.658
33302W        W 3902  11.088  30.536  11.482
33303W        W 3903  23.043  36.120   2.252
33304W        W 3904   7.816  16.026   3.140
33305W        W 3905  41.573  27.465   3.740
33306W        W 3906  38.993  29.514   4.956
33307W        W 3907  32.419  31.877   2.642
33308W        W 3908  34.158  43.473  10.705
33309W        W 3909  35.655  15.663  11.199
33310W        W 3910  28.679  14.332  13.432
33311W        W 3911   9.304   2.797   2.262
33312W        W 3912  14.041   4.775   3.590
33313W        W 3913  40.148  30.894   2.317
33314W        W 3914   0.402   5.719   2.611
33315W        W 3915   0.981   6.207   0.713
33316W        W 3916  38.520   8.772  14.504
33317W        W 3917  18.257  35.959  12.051
33318W        W 3918  22.167   6.357   5.318
33319W        W 3919  42.300  40.733  14.413
33320W        W 3920  20.218   3.959  12.627
33321W        W 3921  18.967  44.145  12.521
33322W        W 3922  30.900  29.002   0.846
33323W        W 3923  10.791  15.505  13.000
33324W        W 3924  35.954  16.327   3.593
33325W        W 3925   3.937  22.481  13.361
33326W        W 3926   8.661   0.953  14.549
33327W        W 3927   5.897  14.535  12.488
33328W        W 3928  18.102  25.007   2.315
33329W        W 3929  12.754  37.076  13.833
33330W        W 3930   1.697  42.776   0.210
33331W        W 3931  44.884   4.780   3.590
33332W        W 3932  29.687  30.923  14.267
33333W        W 3933  26.100  35.007   2.414
33334W        W 3934   9.116  29.397  11.141
33335W        W 3935  36.403  17.202   1.996
33336W        W 3936  15.556  10.822  12.020
33337W        W 3937   7.163  14.396   1.263
33338W        W 3938  21.410  42.810   2.352
33339W        W 3939  36.600  17.315   0.445
33340W        W 3940  25.630   7.684  11.513
33341W        W 3941  39.076  29.193   1.557
33342W        W 3942  40.279  38.036  13.900
33343W        W 3943   7.906  19.558   4.775
33344W        W 3944   5.012  39.038   1.641
33345W        W 3945  41.560  13.806  13.781
33346W        W 3946  20.703  11.495  12.022
33347W        W 3947   1.776  10.989  13.463
33348W        W 3948  44.481  31.142  10.918
33349W        W 3949  23.072  24.105  14.293
33350W        W 3950  44.447  18.410   4.490
33351W        W 3951   7.281  43.890   4.307
33352W        W 3952  44.419  37.762   4.092
33353W        W 3953  44.169  15.578   3.664
33354W        W 3954  40.056   0.327  13.020
33355W        W 3955  26.581  28.068  14.398
33356W        W 3956  36.136  42.028   1.281
33357W        W 3957  38.491  15.709  11.070
33358W        W 3958  16.177  33.709   3.683
33359W        W 3959   9.339  35.007  10.148
33360W        W 3960  40.717  12.074   0.337
33361W        W 3961  15.295  17.167   0.728
33362W        W 3962   0.945   5.858   1.989
33363W        W 3963  39.485  22.029   1.785
33364W        W 3964  22.443  10.688  13.396
33365W        W 3965  41.040  43.107   3.279
33366W        W 3966   3.081   1.986   9.907
33367W        W 3967   0.195   4.535   3.956
33368W        W 3968  32.788  12.811  13.450
33369W        W 3969  16.628  31.556  14.806
33370W        W 3970  43.389  17.676  10.722
33371W        W 3971  42.986  32.935   3.658
33372W        W 3972  38.406  29.514  13.983
33373W        W 3973  29.535  25.122   2.685
33374W        W 3974  33.503  43.722   1.473
33375W        W 3975   0.147  34.040  13.964
33376W        W 3976  18.503  34.418   1.932
33377W        W 3977  24.223  44.488  12.573
33378W        W 3978  41.929  44.736  13.468
33379W        W 3979  22.335  14.735   2.787
33380W        W 3980  39.956  23.230  13.294
33381W        W 3981  36.019   9.218  14.507
33382W        W 3982   7.719  34.550   4.067
33383W        W 3983  20.986  28.905  12.975
33384W        W 3984  28.207  18.826   1.368
33385W        W 3985   5.894   7.344   1.260
33386W        W 3986  27.019  35.602  10.651
33387W        W 3987  11.992  20.596   0.192
33388W        W 3988  28.705   8.016   3.730
33389W        W 3989  43.739  16.109  13.045
33390W        W 3990  42.535  17.208   4.864
33391W        W 3991   5.341   2.535  11.511
33392W        W 3992  40.301   3.659   3.623
33393W        W 3993  30.376  37.393  14.964
33394W        W 3994   6.357  43.016  13.345
33395W        W 3995  35.181  18.153  10.783
33396W        W 3996  44.114  11.592   1.355
33397W        W 3997   4.000  12.758  13.139
33398W        W 3998  25.469  19.389   1.820
33399W        W 3999  17.193  37.783  11.185
33400W        W 4000  18.062  29.456  14.853
33401W        W 4001  11.178  30.375   2.155
33402W        W 4002   3.170  17.852  14.450
33403W        W 4003   4.407   5.816  13.116
33404W        W 4004   8.058  28.608   2.499
33405W        W 4005  22.217   9.369  12.343
33406W        W 4006  44.412  17.490   3.821
33407W        W 4007  22.813   4.917   0.854
33408W        W 4008  11.320  26.087  10.762
33409W        W 4009  11.697  43.522  12.916
33410W        W 4010  41.016   2.739   2.713
33411W        W 4011  36.997  41.134   0.026
33412W        W 4012  43.886  26.703  14.054
33413W        W 4013   8.876  24.485   2.208
33414W        W 4014  29.542   7.921  14.008
33415W        W 4015   4.041   3.885   0.385
33416W        W 4016   3.180  24.163   0.367
33417W        W 4017  17.042   1.366   4.110
33418W        W 4018  21.064  11.147   0.564
33419W        W 4019  41.486  23.464   3.025
33420W        W 4020  31.612  36.018  11.967
33421W        W 4021   8.527   7.982   1.025
33422W        W 4022  13.317  21.903  13.945
33423W        W 4023  16.239  12.326   3.836
33424W        W 4024  16.188   4.735   4.853
33425W        W 4025  11.329   0.345  14.410
33426W        W 4026  36.234  17.646   2.816
33427W        W 4027  40.467   8.771   2.747
33428W        W 4028  13.112  20.265   4.598
33429W        W 4029  15.585  13.865   0.419
33430W        W 4030  29.916  14.334   2.277
33431W        W 4031  39.498   9.726   3.468
33432W        W 4032   8.388  12.231  14.309
33433W        W 4033  41.892   3.389   3.197
33434W        W 4034  30.112   6.017   4.913
33435W        W 4035  38.469  37.138  11.109
33436W        W 4036  25.970   4.375  12.008
33437W        W 4037  30.355   5.614   4.613
33438W        W 4038  23.815  15.621   0.928
33439W        W 4039   1.399  32.788   2.752
33440W        W 4040  33.521   7.655  13.044
33441W        W 4041  38.321  14.038   2.423
33442W        W 4042  10.340  36.582   2.301
33443W        W 4043  40.446   2.793   1.110
33444W        W 4044  44.866  11.542  11.230
33445W        W 4045  26.661   9.463   1.417
33446W        W 4046   5.309   5.334   4.170
33447W        W 4047  44.293  35.485   4.374
33448W        W 4048  30.909   4.253  14.283
33449W        W 4049  24.630  14.542  14.939
33450W        W 4050  26.558  25.826   4.623
33451W        W 4051  28.120   6.302  12.849
33452W        W 4052   0.945  22.148   4.186
33453W        W 4053  42.808   6.461   1.375
33454W        W 4054  37.336  44.810  10.772
33455W        W 4055   6.360   0.439   0.916
33456W        W 4056  33.808  40.633   0.294
33457W        W 4057   1.745  44.138  10.279
33458W        W 4058  25.237  25.978  14.881
33459W        W 4059  18.795  31.821  12.159
33460W        W 4060   3.923  14.116   1.838
33461W        W 4061  23.996   8.022   2.711
33462W        W 4062  22.064  44.032  11.600
33463W        W 4063  20.825  37.595  12.184
33464W        W 4064  32.410  41.358  13.454
33465W        W 4065  36.990   4.706   3.179
33466W        W 4066  23.658  25.740   2.346
33467W        W 4067  44.315   5.792  14.351
33468W        W 4068  17.247  18.276   1.876
33469W        W 4069   0.544  32.907   2.627
33470W        W 4070   0.665  34.302  12.477
33471W        W 4071  14.046   7.159  14.043
33472W        W 4072   7.462  31.412  14.952
33473W        W 4073  18.352  43.720  10.627
33474W        W 4074   7.689  22.444  14.626
33475W        W 4075   8.770  28.912  14.510
33476W        W 4076  34.362   8.346   1.910
33477W        W 4077  32.728  43.007   0.737
33478W        W 4078  27.860  38.210   1.937
33479W        W 4079   6.661  38.408   1.246
33480W        W 4080  42.522  30.221  12.951
33481W        W 4081  44.348  41.286   2.205
33482W        W 4082  11.275  41.604   3.699
33483W        W 4083  29.666  37.552   3.754
33484W        W 4084  19.365  12.784  14.096
33485W        W 4085  27.591  21.589   0.787
33486W        W 4086  41.099  20.793   4.481
33487W        W 4087  32.312   5.438  11.261
33488W        W 4088  22.967  34.022  12.476
33489W        W 4089  33.386  22.230  11.484
33490W        W 4090  14.525  18.653  11.676
33491W        W 4091  44.247  12.917  13.903
33492W        W 4092   1.089  24.940   5.146
33493W        W 4093  19.130  20.509   2.336
33494W        W 4094  23.672   6.228   2.687
33495W        W 4095   3.446  15.678  13.030
33496W        W 4096  41.815  38.934  13.103
33497W        W 4097  22.765   0.456   0.420
33498W        W 4098  29.747  26.864   3.121
33499W        W 4099   8.953  24.757   3.456
33500W        W 4100  21.790   0.734  14.787
33501W        W 4101   6.708  18.795   2.184
33502W        W 4102  39.441   6.404  13.864
33503W        W 4103   6.874  12.516   2.352
33504W        W 4104  18.077  10.173  14.663
33505W        W 4105  26.930   6.008  14.579
33506W        W 4106   3.539  18.110   4.178
33507W        W 4107  21.610   2.225   1.814
33508W        W 4108  24.330  25.039   2.285
33509W        W 4109   1.301  18.279   2.136
33510W        W 4110  44.957  34.617  13.890
33511W        W 4111  27.964  26.971   1.347
33512W        W 4112  13.861  11.566  14.754
33513W        W 4113  41.951  21.533   3.088
33514W        W 4114  26.964  39.967   2.739
33515W        W 4115  11.656  16.297  14.929
33516W        W 4116  34.444   0.329   2.983
33517W        W 4117  39.258  28.878   3.623
33518W        W 4118  29.899   0.316  13.549
33519W        W 4119   3.246  20.648  14.067
33520W        W 4120  28.626  20.710  13.086
33521W        W 4121  28.367  44.553   3.866
33522W        W 4122   5.294  34.562   1.456
33523W        W 4123  19.405  24.726   3.848
33524W        W 4124  27.256  26.451  12.085
33525W        W 4125  24.692  21.863   0.344
33526W        W 4126  41.606  43.206   2.827
33527W        W 4127  20.155  28.112  13.142
33528W        W 4128  18.468   5.498  10.967
33529W        W 4129  24.912   4.025  12.452
33530W        W 4130  21.716  28.955  11.468
33531W        W 4131  37.885  20.768   4.252
33532W        W 4132   6.817  44.906  11.196
33533W        W 4133   3.495  40.053   3.354
33534W        W 4134  29.219  33.452   0.319
33535W        W 4135  28.700  35.812  10.554
33536W        W 4136  13.701  11.779  13.824
33537W        W 4137   5.319  25.955  10.552
33538W        W 4138  29.075  11.124  14.207
33539W        W 4139  16.325  27.323   2.344
33540W        W 4140  19.070  41.930   1.821
33541W        W 4141   9.874  16.682   1.554
33542W        W 4142  43.811  21.978  14.066
33543W        W 4143   5.867  43.205  11.657
33544W        W 4144   4.464   8.372   1.151
33545W        W 4145   1.897  24.636  10.538
33546W        W 4146  16.720  21.511  12.949
33547W        W 4147   6.376  42.550   3.583
33548W        W 4148  38.143  24.182   0.820
33549W        W 4149  39.117  24.290   0.415
33550W        W 4150  33.554  38.990   4.527
33551W        W 4151   1.204   6.412   3.700
33552W        W 4152  37.327  41.388   4.302
33553W        W 4153   5.286  20.699   1.436
33554W        W 4154  41.064  32.535   0.680
33555W        W 4155  10.830  39.836   2.392
33556W        W 4156  12.542  34.994   1.106
33557W        W 4157  39.658  24.538  10.709
33558W        W 4158   2.452   3.143   4.966
33559W        W 4159  35.596  39.514   1.315
33560W        W 4160  36.332  27.173  12.021
33561W        W 4161  28.483  30.841   2.468
33562W        W 4162   2.900  16.309   2.680
33563W        W 4163   1.795  44.842  14.896
33564W        W 4164   9.190  12.138   1.739
33565W        W 4165  25.232  27.716   4.033
33566W        W 4166  43.369  37.091   1.427
33567W        W 4167  26.868   4.849  12.442
33568W        W 4168   8.755  31.143   0.212
33569W        W 4169  21.595  16.326   2.523
33570W        W 4170   6.261   5.701  12.548
33571W        W 4171  12.365  10.413   2.250
33572W        W 4172  24.975   3.515  12.513
33573W        W 4173  26.328   1.304   1.853
33574W        W 4174  31.148   1.806   3.727
33575W        W 4175  31.406  17.030   4.618
33576W        W 4176  41.957  16.429  12.467
33577W        W 4177  29.387   5.330   0.067
33578W        W 4178  15.814  27.692   0.230
33579W        W 4179  42.769   6.949  12.450
33580W        W 4180  27.705   2.244  11.692
33581W        W 4181   3.009  24.680  12.788
33582W        W 4182  38.376  24.568   2.389
33583W        W 4183   0.960  17.292  13.234
33584W        W 4184  42.904  20.190  13.753
33585W        W 4185   6.808  25.532  13.011
33586W        W 4186  22.143  44.692   3.985
33587W        W 4187  39.423  24.263  14.960
33588W        W 4188   8.464   5.837   3.670
33589W        W 4189  15.130   2.539   3.313
33590W        W 4190  23.589  39.599  11.337
33591W        W 4191  33.122  24.598  11.911
33592W        W 4192   8.215   4.634   1.005
33593W        W 4193  14.776   3.326  10.650
33594W        W 4194  30.092   8.609  11.102
33595W        W 4195  12.719  13.286   2.223
33596W        W 4196   4.696  26.544  10.678
33597W        W 4197  16.150  43.844   3.206
33598W        W 4198   0.226   7.515   0.895
33599W        W 4199  32.017  21.298   1.694
33600W        W 4200   2.065  44.669   4.106
33601W        W 4201   8.124  34.460   0.851
33602W        W 4202  16.993  12.958   5.450
33603W        W 4203   8.826  18.591  11.747
33604W        W 4204  18.483  41.233  12.739
33605W        W 4205  18.826  23.468   4.371
33606W        W 4206  40.906  35.798  12.688
33607W        W 4207  32.881  43.427  11.778
33608W        W 4208  39.313  28.181  10.595
33609W        W 4209   4.826  39.536   4.450
33610W        W 4210  30.600  22.571   3.319
33611W        W 4211  19.630  28.672  14.309
33612W        W 4212  33.136  25.587   2.174
33613W        W 4213   9.236  37.552  11.068
33614W        W 4214   0.385  25.709  12.938
33615W        W 4215  23.793  26.979  12.873
33616W        W 4216   4.494  12.175   2.938
33617W        W 4217  25.995   0.484  13.964
33618W        W 4218  28.990  11.234   4.500
33619W        W 4219  17.534  36.821  12.466
33620W        W 4220  10.225  38.021   0.319
33621W        W 4221  38.505   0.255   1.440
33622W        W 4222  42.151   9.689  12.444
33623W        W 4223  31.641  17.073  10.796
33624W        W 4224  33.645  42.562   3.325
33625W        W 4225  44.190   9.030  12.828
33626W        W 4226  32.583   6.067  14.336
33627W        W 4227  39.597  30.956   0.438
33628W        W 4228   0.749  14.560  13.181
33629W        W 4229   3.858  19.350  14.309
33630W        W 4230  25.083  43.919  13.792
33631W        W 4231  34.892  23.595  10.580
33632W        W 4232  16.755  42.517   0.952
33633W        W 4233  24.551  27.484  12.057
33634W        W 4234  27.476  21.266  13.723
33635W        W 4235   5.455  23.286  11.183
33636W        W 4236   3.281   0.730   0.081
33637W        W 4237   2.192  12.388   0.222
33638W        W 4238   2.987  30.568  12.969
33639W        W 4239  28.936   1.874  10.725
33640W        W 4240   7.757  14.578   2.262
33641W        W 4241  28.898   2.251  12.493
33642W        W 4242  13.215   4.684   1.297
33643W        W 4243  19.235  30.415   4.873
33644W        W 4244  36.946  14.694   0.796
33645W        W 4245  18.308   1.492   3.840
33646W        W 4246  15.189   6.148   1.117
33647W        W 4247  40.798  24.137  12.618
33648W        W 4248   7.688   8.661  12.952
33649W        W 4249  18.700  43.095  13.997
33650W        W 4250   1.527  32.049   0.576
33651W        W 4251  43.748  44.639  11.967
33652W        W 4252  29.558  30.635   0.538
33653W        W 4253  44.285  28.900  11.203
33654W        W 4254  34.937  14.157  12.710
33655W        W 4255  16.583   2.108  11.809
33656W        W 4256   2.439  41.533   3.268
33657W        W 4257  12.396   8.547   4.322
33658W        W 4258  10.831  31.412  10.626
33659W        W 4259  26.044  42.458   3.259
33660W        W 4260  30.913  21.556  12.632
33661W        W 4261   2.015   1.708   3.286
33662W        W 4262  20.140  11.232   2.845
33663W        W 4263   4.285   7.425  11.611
33664W        W 4264  11.244  34.888  14.348
33665W        W 4265  32.813   7.302   0.648
33666W        W 4266   9.736  20.158  13.703
33667W        W 4267  31.125  44.878  10.614
33668W        W 4268  43.608   0.791  11.570
33669W        W 4269  27.682  20.420  10.765
33670W        W 4270   7.706  26.226  13.740
33671W        W 4271   7.336  30.451   0.885
33672W        W 4272   6.350  18.515  13.965
33673W        W 4273  24.216  39.603   2.817
33674W        W 4274  31.090  12.603  10.780
33675W        W 4275  13.085  40.234   4.551
33676W        W 4276  34.104  29.469  11.427
33677W        W 4277   1.315  17.181   4.836
33678W        W 4278   6.307  27.044  11.653
33679W        W 4279  22.504  18.201   2.863
33680W        W 4280  37.840   0.902   2.268
33681W        W 4281  31.855  25.615  14.306
33682W        W 4282  44.801  43.144  12.530
33683W        W 4283  29.067  32.178   4.677
33684W        W 4284  43.253   3.653   0.465
33685W        W 4285  41.110   1.007   2.517
33686W        W 4286  13.174  34.038  14.276
33687W        W 4287  15.268  28.535   2.163
33688W        W 4288  41.560  37.821  13.348
33689W        W 4289  41.800   5.873  14.257
33690W        W 4290  30.447  29.208  12.526
33691W        W 4291   8.456  41.967   2.240
33692W        W 4292  43.215  28.385   0.447
33693W        W 4293   1.804  15.590   2.838
33694W        W 4294   3.410   6.348   1.639
33695W        W 4295  27.209  30.651   4.894
33696W        W 4296  27.928  36.500   4.700
33697W        W 4297  35.398  10.386  14.772
33698W        W 4298  35.130   4.339   3.068
33699W        W 4299  35.134  34.424   3.727
33700W        W 4300  40.906   2.857   0.316
33701W        W 4301   2.262  12.589   0.732
33702W        W 4302  12.741  23.154  14.006
33703W        W 4303   3.947  32.079   3.237
33704W        W 4304  40.464  11.539  11.170
33705W        W 4305  22.092   1.272  10.542
33706W        W 4306  16.581  21.777   4.656
33707W        W 4307  33.137   9.358  13.898
33708W        W 4308  14.035   5.518   1.146
33709W        W 4309   6.183  29.096   3.304
33710W        W 4310  44.961  28.422   4.794
33711W        W 4311  19.708  17.354   2.772
33712W        W 4312  14.185   1.503  13.985
33713W        W 4313  38.474  14.726   1.649
33714W        W 4314  34.385   2.829  12.651
33715W        W 4315   4.253   2.734   3.713
33716W        W 4316  11.482   9.120   4.151
33717W        W 4317  26.206   9.902   1.516
33718W        W 4318  20.759  27.936   4.581
33719W        W 4319   3.260   5.221  12.555
33720W        W 4320  32.835  11.291   4.749
33721W        W 4321  41.775  20.491   3.171
33722W        W 4322  36.875  22.089   2.702
33723W        W 4323   6.906  16.037  11.118
33724W        W 4324  36.800   1.138   2.742
33725W        W 4325  39.459   0.686  14.661
33726W        W 4326  43.788  43.871   3.642
33727W        W 4327  37.404   4.280   0.449
33728W        W 4328   7.751   4.337  12.322
33729W        W 4329  14.152   4.939   1.824
33730W        W 4330  27.014  44.767  10.217
33731W        W 4331  29.419  31.244  12.931
33732W        W 4332  12.415  35.463   0.898
33733W        W 4333  11.681  12.320   1.390
33734W        W 4334  19.752   4.921   0.661
33735W        W 4335  32.360   1.507   2.214
33736W        W 4336  37.095  17.286  11.170
33737W        W 4337  13.073  37.876   3.436
33738W        W 4338  32.180  31.330   0.927
33739W        W 4339   6.601   7.751  11.939
33740W        W 4340  29.832  24.949   2.279
33741W        W 4341  33.888  22.636  12.674
33742W        W 4342   7.644   8.319   0.697
33743W        W 4343  39.425  13.191   2.215
33744W        W 4344  36.344  15.289   2.830
33745W        W 4345   8.692  39.344   1.432
33746W        W 4346  21.603   6.494  14.828
33747W        W 4347  13.246   7.414   3.783
33748W        W 4348   0.454  37.113   2.124
33749W        W 4349  11.370  30.456   2.671
33750W        W 4350   8.809   3.282   4.164
33751W        W 4351  10.263  34.347   4.942
33752W        W 4352   1.793  30.455  11.380
33753W        W 4353  16.973  30.845   0.138
33754W        W 4354  37.494  14.578   2.096
33755W        W 4355   0.834  23.467   0.078
33756W        W 4356  18.496   2.280   3.724
33757W        W 4357  25.358  16.312   3.366
33758W        W 4358  27.002  16.763   1.459
33759W        W 4359  24.613  29.053  12.884
33760W        W 4360   5.902  40.034  14.190
33761W        W 4361   1.949   8.122   0.203
33762W        W 4362  30.895  41.975  14.808
33763W        W 4363  30.447  14.162  11.358
33764W        W 4364  35.373   8.318  12.430
33765W        W 4365   0.516  41.114   4.471
33766W        W 4366   0.673  13.061  10.791
33767W        W 4367  27.219  31.800  12.343
33768W        W 4368  20.666  29.086  11.911
33769W        W 4369   1.770  11.064   4.541
33770W        W 4370  19.851  13.293   3.677
33771W        W 4371   0.936  42.005  14.922
33772W        W 4372  25.850   7.082  12.512
33773W        W 4373  21.269  11.343   3.665
33774W        W 4374  12.839   6.399   2.398
33775W        W 4375  21.286  22.384   1.965
33776W        W 4376  36.085   1.342   3.413
33777W        W 4377  38.249  37.461  12.345
33778W        W 4378  38.083  30.158   1.225
33779W        W 4379  23.610  23.421   2.830
33780W        W 4380   4.701  18.905   1.384
33781W        W 4381  21.143   6.832   0.240
33782W        W 4382  44.912  17.261   0.025
33783W        W 4383  20.636   0.962  11.516
33784W        W 4384   0.556  24.609   4.657
33785W        W 4385  18.000  42.969  10.190
33786W        W 4386  33.882  28.244   2.351
33787W        W 4387   0.369  29.348   4.612
33788W        W 4388  35.660  15.368   2.393
33789W        W 4389  28.691  30.733  11.646
33790W        W 4390  34.363  34.496  14.995
33791W        W 4391  14.196   4.368   0.661
33792W        W 4392  30.054  15.975   0.701
33793W        W 4393  23.719   9.941   2.751
33794W        W 4394   2.520  22.049   2.096
33795W        W 4395  27.188  23.907  10.965
33796W        W 4396  34.250   8.604  14.806
33797W        W 4397  27.784  17.057  11.066
33798W        W 4398  28.428  18.636  10.478
33799W        W 4399  32.370   5.409  13.524
33800W        W 4400  37.015   9.743   3.378
33801W        W 4401  23.031   4.791   3.152
33802W        W 4402   9.786  40.375   0.376
33803W        W 4403   0.481  15.722   0.506
33804W        W 4404  22.648  16.349  14.894
33805W        W 4405  11.552   8.899  14.509
33806W        W 4406  15.268  39.880   1.291
33807W        W 4407  35.478  20.062   0.957
33808W        W 4408   8.124  12.372  11.612
33809W        W 4409  22.748  16.317  13.999
33810W        W 4410  24.559  23.785   0.002
33811W        W 4411   4.922  33.956   0.248
33812W        W 4412  35.653  38.931  11.944
33813W        W 4413  24.231  35.955  13.822
33814W        W 4414  38.284   8.097  12.021
33815W        W 4415  15.096  44.775  13.417
33816W        W 4416  16.582  22.390   0.406
33817W        W 4417  24.143  44.755  13.486
33818W        W 4418  16.064  30.142  10.649
33819W        W 4419  41.695  23.228   1.747
33820W        W 4420  44.251  30.137  12.394
33821W        W 4421   5.972  14.195  14.111
33822W        W 4422  12.121  15.217  12.380
33823W        W 4423  26.621  16.848  13.444
33824W        W 4424  22.524  23.882   2.003
33825W        W 4425  18.767  34.885  13.982
33826W        W 4426   3.736  10.201   1.791
33827W        W 4427  27.748  44.988   1.263
33828W        W 4428  44.420  39.062  13.200
33829W        W 4429  15.174  21.849   1.374
33830W        W 4430  13.582  12.852  12.436
33831W        W 4431   9.737   7.199  10.816
33832W        W 4432  36.932  43.488  11.047
33833W        W 4433   1.018   3.070  11.078
33834W        W 4434  25.701  16.176   3.718
33835W        W 4435  19.587  19.004   1.823
33836W        W 4436  21.001  24.780  13.824
33837W        W 4437  12.128  13.140  12.076
33838W        W 4438  13.342  16.791  12.912
33839W        W 4439   8.609  24.541  11.515
33840W        W 4440  26.472  23.935   0.760
33841W        W 4441  44.392  26.538   2.069
33842W        W 4442  41.959  10.676   0.512
33843W        W 4443  16.141  36.168  11.925
33844W        W 4444  29.249  12.177  11.611
33845W        W 4445   6.135  39.562   1.748
33846W        W 4446  15.496  43.017   3.329
33847W        W 4447   7.279  42.072   4.274
33848W        W 4448  25.385  26.886   2.727
33849W        W 4449  18.725  18.240  12.061
33850W        W 4450  32.592  33.617   2.372
33851W        W 4451  37.066   9.122   4.689
33852W        W 4452  21.943  41.967   1.428
33853W        W 4453  39.752  39.067  14.669
33854W        W 4454  18.691   5.937  13.476
33855W        W 4455  17.155   6.293   0.288
33856W        W 4456  42.377  27.892   1.311
33857W        W 4457  44.834  23.493  13.735
33858W        W 4458  10.561  21.564   4.583
33859W        W 4459   3.132  17.165  12.664
33860W        W 4460   6.541  10.338   2.220
33861W        W 4461  18.191  31.280  12.510
33862W        W 4462  28.211  42.457   3.853
33863W        W 4463  29.539  32.956  14.542
33864W        W 4464  33.474  39.994   3.213
33865W        W 4465  32.905  23.010   4.833
33866W        W 4466   1.779  15.061   4.091
33867W        W 4467  25.811  23.485   2.132
33868W        W 4468  27.824  40.022   4.657
33869W        W 4469  10.941  22.988  14.333
33870W        W 4470  14.260  11.929  13.434
33871W        W 4471  42.716  41.835  14.332
33872W        W 4472   3.809  19.626   3.281
33873W        W 4473  36.990  26.154   2.127
33874W        W 4474   2.593  22.057  11.595
33875W        W 4475  10.241  16.651  13.489
33876W        W 4476  34.245   5.256   2.289
33877W        W 4477  21.655  41.291  13.478
33878W        W 4478   2.277  31.208   1.277
33879W        W 4479   0.892  22.123  13.026
33880W        W 4480  34.570  36.873  13.352
33881W        W 4481  37.351  13.578   2.311
33882W        W 4482  14.206  21.012   2.902
33883W        W 4483  35.310  17.233  11.809
33884W        W 4484  44.037  32.698  10.667
33885W        W 4485   1.796  34.627  12.858
33886W        W 4486   2.145  18.350   4.925
33887W        W 4487  11.361   1.307  14.442
33888W        W 4488   4.939  26.528   0.218
33889W        W 4489  38.442  27.938   3.713
33890W        W 4490  40.731   9.079   3.696
33891W        W 4491  42.403  38.505   4.219
33892W        W 4492  27.087  24.380   1.298
33893W        W 4493  33.152  40.489  10.908
33894W        W 4494  27.704  18.675   0.031
33895W        W 4495  41.909  14.444  11.404
33896W        W 4496  21.742  39.755  14.180
33897W        W 4497  17.537   3.315  14.432
33898W        W 4498  10.731   2.139  10.750
33899W        W 4499  39.066  11.269  12.580
33900W        W 4500   1.710  39.299  12.878
33901W        W 4501   3.420  41.292  11.859
33902W        W 4502  41.932  38.591  11.943
33903W        W 4503  10.306  20.711  12.632
33904W        W 4504  41.947  36.913  13.584
33905W        W 4505  28.562  11.438   2.690
33906W        W 4506  31.783  35.399  13.071
33907W        W 4507  32.623  20.396   4.617
33908W        W 4508  10.637  38.468  14.230
33909W        W 4509  20.001   7.369   0.790
33910W        W 4510   1.751  20.029   3.314
33911W        W 4511   5.817   1.049  12.112
33912W        W 4512  21.142  36.566   3.646
33913W        W 4513  20.048   3.695   1.176
33914W        W 4514  27.266   3.750  14.830
33915W        W 4515  11.549  24.122  14.959
33916W        W 4516  13.625  38.797   3.233
33917W        W 4517   1.924   8.368   1.643
33918W        W 4518   6.971  35.215  13.898
33919W        W 4519  19.411   8.466  14.503
33920W        W 4520  31.690  31.015   0.461
33921W        W 4521  31.665  20.216   3.261
33922W        W 4522  20.030  23.743  11.370
33923W        W 4523  10.604   6.458   4.186
33924W        W 4524  14.633  29.531   1.354
33925W        W 4525   2.950  24.098  14.552
33926W        W 4526   0.907  24.084   2.067
33927W        W 4527  23.593  29.329  12.933
33928W        W 4528  34.737  18.816   4.500
33929W        W 4529   1.913  12.596   4.888
33930W        W 4530  31.952  16.268   3.958
33931W        W 4531  38.563  33.387  11.613
33932W        W 4532   9.612  16.765  11.140
33933W        W 4533   8.798  28.373   0.374
33934W        W 4534  38.573   0.781  11.209
33935W        W 4535  17.993  38.111   2.273
33936W        W 4536  21.598  34.632   3.226
33937W        W 4537   9.777   0.073   1.222
33938W        W 4538  23.118  40.573  14.518
33939W        W 4539  11.870  39.917   0.927
33940W        W 4540   0.411  30.604   4.400
33941W        W 4541  12.082   3.908   1.153
33942W        W 4542   4.431  33.437  11.401
33943W        W 4543  40.077  36.717  13.784
33944W        W 4544  40.099  19.943   0.320
33945W        W 4545   8.263  17.032   2.605
33946W        W 4546   0.895  27.778   2.268
33947W        W 4547   3.211  10.705   1.481
33948W        W 4548  10.736  18.995   3.402
33949W        W 4549  29.522  28.984  10.972
33950W        W 4550  42.748  23.974  14.441
33951W        W 4551  14.766  36.048  13.911
33952W        W 4552  30.594  42.462   0.828
33953W        W 4553  22.344  19.870  14.932
33954W        W 4554  42.353  19.378   0.014
33955W        W 4555  31.485   9.835  10.692
33956W        W 4556  24.627  25.226  11.847
33957W        W 4557   2.919  22.083   4.697
33958W        W 4558  43.202  37.945   1.437
33959W        W 4559  19.475  44.936  12.907
33960W        W 4560  18.835  43.601  13.937
33961W        W 4561  42.971  25.983  13.416
33962W        W 4562  42.022  11.846   2.092
33963W        W 4563  30.381  44.886   0.904
33964W        W 4564  41.409   0.776  14.831
33965W        W 4565  24.405  11.321   3.808
33966W        W 4566  32.680  16.133   4.246
33967W        W 4567   3.769  17.772   3.427
33968W        W 4568  34.320  38.236   3.716
33969W        W 4569  36.421  17.186   0.915
33970W        W 4570  29.587  24.141  11.286
33971W        W 4571   7.162   7.232  11.532
33972W        W 4572  34.833  38.689   4.468
33973W        W 4573   0.046  18.284   1.711
33974W        W 4574  14.710   9.151  14.483
33975W        W 4575  29.204  27.068  12.033
33976W        W 4576  38.588  41.577   2.861
33977W        W 4577   0.919   7.149  11.686
33978W        W 4578  34.376   4.739  14.431
33979W        W 4579  33.000  29.903   4.201
33980W        W 4580   7.120  44.260   4.665
33981W        W 4581  30.521  16.887   3.224
33982W        W 4582   2.697  17.254   3.675
33983W        W 4583  10.181   1.191  13.505
33984W        W 4584  39.044  18.515   2.764
33985W        W 4585   5.958  27.053   2.704
33986W        W 4586  42.712  44.998  11.298
33987W        W 4587  10.730  35.471  10.793
33988W        W 4588  19.201   3.795  13.164
33989W        W 4589  17.103   9.738   3.245
33990W        W 4590  41.617  12.134  12.906
33991W        W 4591  10.360  43.012  14.737
33992W        W 4592   4.470  39.568  11.192
33993W        W 4593  44.200  13.588   0.450
33994W        W 4594  35.424  37.988   3.224
33995W        W 4595  10.303   3.356   3.669
33996W        W 4596   6.589  11.798  14.387
33997W        W 4597   3.872  39.143  11.299
33998W        W 4598  29.657  25.622   4.252
33999W        W 4599  20.083  22.771   1.476
34000W        W 4600   0.232   6.177   1.306
34001W        W 4601  34.051  40.791  13.946
34002W        W 4602  16.034  26.444  10.647
34003W        W 4603  34.366  21.124   3.232
34004W        W 4604  35.954  41.219  13.476
34005W        W 4605  10.028   3.064   0.943
34006W        W 4606  44.546  33.227  13.261
34007W        W 4607  41.244  23.483   1.610
34008W        W 4608   0.775  23.648  10.907
34009W        W 4609   1.915  33.368  12.229
34010W        W 4610  40.847   2.005  10.729
34011W        W 4611  24.555  10.356  11.732
34012W        W 4612  35.001  42.530  14.860
34013W        W 4613  32.180  25.048  13.393
34014W        W 4614  26.562  34.416   3.792
34015W        W 4615  42.251   0.934   0.228
34016W        W 4616   5.310  29.010   4.102
34017W        W 4617  20.697  28.216   1.275
34018W        W 4618   5.409  38.065  10.746
34019W        W 4619  33.983  32.057   2.333
34020W        W 4620   0.931  17.726  13.961
34021W        W 4621  43.124  21.244  11.948
34022W        W 4622  21.309  15.585  11.103
34023W        W 4623   7.443  34.011  10.404
34024W        W 4624  35.983  32.408   0.395
34025W        W 4625  14.887   9.629  13.604
34026W        W 4626  23.549  14.575   2.242
34027W        W 4627  21.239   3.983   1.835
34028W        W 4628  42.351  10.226   1.164
34029W        W 4629  35.370   9.140   4.256
34030W        W 4630  22.311  35.574  14.355
34031W        W 4631   5.217   4.450   0.463
34032W        W 4632  35.401  38.076  14.134
34033W        W 4633  27.429  35.597  12.869
34034W        W 4634  16.855  36.694   4.557
34035W        W 4635  41.273   3.656  12.529
34036W        W 4636  30.059  13.140  12.203
34037W        W 4637  27.235  12.205  13.421
34038W        W 4638  17.123  21.338   1.665
34039W        W 4639  34.910   9.701   0.359
34040W        W 4640  19.407  10.133   5.000
34041W        W 4641  15.332  23.643   3.158
34042W        W 4642  17.105  33.096  13.859
34043W        W 4643  15.553  35.798   5.087
34044W        W 4644   9.387  38.618  10.677
34045W        W 4645  44.974  25.957   0.188
34046W        W 4646  14.263   9.852  10.495
34047W        W 4647  22.660  42.222   4.351
34048W        W 4648  34.915  15.298   1.723
34049W        W 4649   8.858  11.804   3.654
34050W        W 4650  14.840  23.407   3.651
34051W        W 4651  10.457   3.169   5.178
34052W        W 4652  44.760  21.617  11.090
34053W        W 4653  23.979  38.893   1.716
34054W        W 4654  32.162  44.425   1.904
34055W        W 4655  14.896   0.374   0.475
34056W        W 4656  10.084   8.536  14.363
34057W        W 4657  17.552  40.531  10.645
34058W        W 4658  16.273  10.851  12.350
34059W        W 4659  30.942  21.995  14.365
34060W        W 4660   5.880  28.509   3.833
34061W        W 4661   6.148  13.976  11.596
34062W        W 4662   6.658  27.164   1.338
34063W        W 4663   3.432  43.335   2.256
34064W        W 4664  15.929  32.602   5.641
34065W        W 4665  11.282  19.615  10.632
34066W        W 4666  42.300  13.173   1.797
34067W        W 4667  37.450  38.983   3.614
34068W        W 4668  41.793  35.606   2.714
34069W        W 4669  19.228  32.573  13.641
34070W        W 4670  25.959  41.958   4.740
34071W        W 4671  12.833   9.490   2.462
34072W        W 4672  38.306   1.187  14.840
34073W        W 4673  32.614   8.723   0.871
34074W        W 4674  33.949  32.376  12.974
34075W        W 4675  41.421  41.572  14.217
34076W        W 4676  23.224  17.662  12.591
34077W        W 4677  44.201  26.426  12.832
34078W        W 4678  20.474  34.375  13.918
34079W        W 4679  15.570   6.171  12.223
34080W        W 4680  35.044   9.420  11.158
34081W        W 4681   3.945  34.008   0.441
34082W        W 4682  24.284   1.921   4.548
34083W        W 4683  12.677  29.068   0.442
34084W        W 4684  28.402  32.369   3.300
34085W        W 4685  41.893   3.882  12.677
34086W        W 4686  21.146  23.826   0.028
34087W        W 4687  10.171  43.891   0.760
34088W        W 4688  16.610  30.636   0.966
34089W        W 4689  35.067   1.354  14.997
34090W        W 4690  26.500  36.029  14.334
34091W        W 4691  30.417  34.480   3.365
34092W        W 4692  40.179  42.653   4.581
34093W        W 4693  14.379  25.160  10.311
34094W        W 4694   2.851   5.213  12.997
34095W        W 4695  20.807  37.204   4.120
34096W        W 4696  18.838  36.842   1.392
34097W        W 4697   2.662  26.085  13.148
34098W        W 4698  25.675   3.020  11.128
34099W        W 4699  38.486  42.500  14.873
34100W        W 4700  39.479  41.330   1.930
34101W        W 4701  11.171   0.969  12.583
34102W        W 4702  42.110  10.777  13.497
34103W        W 4703  36.144  26.870  11.637
34104W        W 4704  10.842   3.749  14.965
34105W        W 4705  28.579   4.129   1.418
34106W        W 4706  36.331   2.536  11.634
34107W        W 4707   0.695  40.054  11.548
34108W        W 4708  39.702  20.652  11.644
34109W        W 4709   1.356  34.650   0.163
34110W        W 4710  16.772  42.896  10.104
34111W        W 4711   1.760  39.302  14.408
34112W        W 4712   4.921   4.722   3.665
34113W        W 4713  19.296  16.288  14.421
34114W        W 4714  17.331   6.319   4.536
34115W        W 4715  14.512  25.719  13.609
34116W        W 4716   4.501  18.545   4.252
34117W        W 4717   7.078  30.002   0.847
34118W        W 4718  28.946  23.091   1.751
34119W        W 4719  16.092  39.902  11.911
34120W        W 4720  17.031  31.972  10.734
34121W        W 4721  11.662  27.520  13.012
34122W        W 4722  42.562   8.469   3.601
34123W        W 4723  39.039  31.104  13.272
34124W        W 4724  19.286  43.307  12.819
34125W        W 4725  21.074  28.433   1.537
34126W        W 4726  11.648  28.330  12.506
34127W        W 4727  28.690  36.853  10.684
34128W        W 4728  25.006  20.970  13.857
34129W        W 4729  38.465  22.970   3.738
34130W        W 4730  36.162  39.943   0.386
34131W        W 4731  35.092  15.342  12.830
34132W        W 4732  43.454   7.889   3.756
34133W        W 4733   3.200   7.874   0.966
34134W        W 4734  25.694   7.850   4.181
34135W        W 4735  30.408   0.401  13.585
34136W        W 4736   1.112  44.258  13.366
34137W        W 4737  35.165  20.250  14.304
34138W        W 4738  25.583   7.907  13.497
34139W        W 4739  37.403  17.834  13.548
34140W        W 4740  38.876  22.616   5.023
34141W        W 4741  22.758  41.487   1.178
34142W        W 4742  44.445  13.991   5.043
34143W        W 4743  15.798  29.899   2.712
34144W        W 4744   6.461  22.775  12.564
34145W        W 4745   4.735  23.195  13.789
34146W        W 4746  36.460  15.183   0.365
34147W        W 4747   1.378  10.115  13.646
34148W        W 4748   2.872  18.228  14.655
34149W        W 4749  29.170   3.416  11.952
34150W        W 4750   5.510  30.097  11.923
34151W        W 4751  16.525   7.251  12.616
34152W        W 4752  30.553  32.621  14.940
34153W        W 4753  35.066   0.337  13.022
34154W        W 4754  37.000   7.308   0.708
34155W        W 4755  37.573  21.614   2.353
34156W        W 4756  37.052  32.891   2.951
34157W        W 4757   6.503  35.363  12.637
34158W        W 4758   3.514   0.918   2.687
34159W        W 4759  37.392   5.111  13.893
34160W        W 4760  25.510  32.617   4.385
34161W        W 4761   4.184  24.268  10.698
34162W        W 4762  20.381  35.503   3.983
34163W        W 4763  13.633  41.253   3.727
34164W        W 4764   8.395  13.856   4.690
34165W        W 4765   2.649   9.087  14.423
34166W        W 4766  21.572   5.236   4.761
34167W        W 4767  43.343   5.202   3.335
34168W        W 4768  35.874   4.784  11.928
34169W        W 4769  21.620   5.354   2.234
34170W        W 4770  36.463  19.599  11.829
34171W        W 4771   1.194  19.225  11.653
34172W        W 4772   8.902  17.725   1.775
34173W        W 4773  43.786   4.437  13.549
34174W        W 4774  16.563  36.996   4.882
34175W        W 4775  41.874  17.695  13.017
34176W        W 4776  28.437   2.397  14.438
34177W        W 4777  42.391  26.812   1.376
34178W        W 4778  27.040   7.668   0.370
34179W        W 4779  26.898   6.516   2.291
34180W        W 4780  27.232  26.537  11.223
34181W        W 4781  14.290  26.155  13.521
34182W        W 4782  16.803  16.706  13.977
34183W        W 4783  34.646  21.593  11.124
34184W        W 4784  42.380   8.864   1.189
34185W        W 4785  30.208  28.373   3.651
34186W        W 4786   1.431  29.778  13.024
34187W        W 4787  33.894  12.291  11.851
34188W        W 4788  37.624   1.828   0.804
34189W        W 4789  11.028  19.244  11.940
34190W        W 4790  19.925  24.769  11.893
34191W        W 4791  38.923  14.158   0.415
34192W        W 4792   8.475  12.088   2.674
34193W        W 4793  42.788  13.828   1.238
34194W        W 4794   1.722  21.025  14.613
34195W        W 4795  42.374  28.854  11.639
34196W        W 4796   9.282   7.674  12.791
34197W        W 4797  32.100   9.140   2.859
34198W        W 4798  22.508  44.800  12.485
34199W        W 4799  31.333  31.003  12.981
34200W        W 4800  29.379  25.014  13.905
34201W        W 4801   1.376  27.913  10.765
34202W        W 4802  42.395  35.635   4.692
34203W        W 4803  20.673  15.411  14.846
34204W        W 4804   1.757   1.803   4.567
34205W        W 4805  37.063  20.541  12.469
34206W        W 4806  10.314   4.207   4.231
34207W        W 4807   8.383  42.235  14.386
34208W        W 4808  30.971  22.028  12.413
34209W        W 4809  44.279   5.620  13.839
34210W        W 4810  41.663  39.473  11.300
34211W        W 4811  22.953  29.292   1.704
34212W        W 4812  24.105  13.790   2.171
34213W        W 4813  40.821  23.695  14.320
34214W        W 4814   2.292   5.955   4.182
34215W        W 4815  28.921  17.282  13.117
34216W        W 4816  15.644  24.177  13.892
34217W        W 4817  25.257   1.724  11.154
34218W        W 4818  31.536  12.384   2.746
34219W        W 4819  14.845  38.335  14.482
34220W        W 4820  12.102  32.191   0.904
34221W        W 4821  37.290  18.565  13.047
34222W        W 4822  19.659  27.634   0.901
34223W        W 4823   7.006  12.341  12.232
34224W        W 4824   7.769  12.304   1.923
34225W        W 4825  17.129   6.733  11.453
34226W        W 4826  23.537  24.911   0.939
34227W        W 4827  16.017  12.406   0.414
34228W        W 4828  37.095   7.820   1.876
34229W        W 4829  25.104  21.079   0.286
34230W        W 4830  13.553   6.824   2.304
34231W        W 4831  21.586  27.551  13.425
34232W        W 4832  39.508  36.610   2.251
34233W        W 4833  43.057  24.685  11.968
34234W        W 4834  43.337  32.776   4.762
34235W        W 4835   3.163   2.334   0.746
34236W        W 4836  18.251  21.573   1.069
34237W        W 4837  27.504   2.337   3.567
34238W        W 4838  19.208  44.348  13.894
34239W        W 4839  21.301  35.986  12.579
34240W        W 4840   4.238  13.090   1.226
34241W        W 4841  29.908   3.443   2.531
34242W        W 4842  32.023  30.679  12.633
34243W        W 4843  40.895  31.630  12.780
34244W        W 4844  23.818  29.424   0.510
34245W        W 4845  36.808   8.179  14.063
34246W        W 4846  29.921  10.905  12.509
34247W        W 4847  14.203  36.684  13.540
34248W        W 4848   2.903   2.845  12.538
34249W        W 4849  44.742  13.868   2.894
34250W        W 4850  31.064  23.989   3.671
34251W        W 4851   6.832  18.924   3.962
34252W        W 4852  20.309  13.600   0.761
34253W        W 4853  13.716   7.380  14.384
34254W        W 4854  36.600   8.347  12.035
34255W        W 4855   8.678  22.998  11.164
34256W        W 4856  38.991  43.056   3.285
34257W        W 4857  14.213  22.620   3.265
34258W        W 4858  34.807  38.397   3.680
34259W        W 4859   8.865  27.418  13.388
34260W        W 4860  15.018   1.649  11.612
34261W        W 4861  15.993   3.611   4.078
34262W        W 4862  36.997  39.845   2.784
34263W        W 4863  28.160  15.335  11.596
34264W        W 4864  20.717  35.063   2.292
34265W        W 4865  24.148   1.300  11.934
34266W        W 4866  32.921  43.346   2.025
34267W        W 4867  22.123  22.547  14.728
34268W        W 4868  37.911  32.817   2.727
34269W        W 4869   5.220  22.000  13.473
34270W        W 4870  10.269  20.185  14.447
34271W        W 4871  17.035   4.499  11.175
34272W        W 4872  19.616   4.430  12.529
34273W        W 4873   3.359  10.943  13.982
34274W        W 4874  16.412   0.387   2.685
34275W        W 4875  28.943  17.940  12.507
34276W        W 4876  38.321   9.230  13.422
34277W        W 4877  30.923  39.985  11.219
34278W        W 4878  10.875  15.225   4.143
34279W        W 4879  22.098  10.203  11.822
34280W        W 4880   8.940  21.534   3.781
34281W        W 4881   4.553  41.791  11.870
34282W        W 4882  28.488  38.348   0.249
34283W        W 4883  18.505  23.362  10.824
34284W        W 4884  28.599   5.426   0.576
34285W        W 4885  44.891  20.433   1.206
34286W        W 4886  44.781  14.368   2.860
34287W        W 4887  26.454  19.131  10.632
34288W        W 4888  13.222  39.705  12.393
34289W        W 4889  29.175  28.156   0.849
34290W        W 4890   8.290  27.971   3.961
34291W        W 4891  13.593  21.857   3.429
34292W        W 4892  14.400  28.253   3.142
34293W        W 4893  36.598  32.463  13.357
34294W        W 4894  39.595   3.511  12.954
34295W        W 4895  42.019  39.909  14.982
34296W        W 4896  10.364  36.036  12.849
34297W        W 4897  19.664  36.484   5.212
34298W        W 4898  23.554  10.114  11.904
34299W        W 4899   0.563  12.944  13.965
34300W        W 4900  16.284  34.178   4.484
34301W        W 4901  12.333  26.502  12.517
34302W        W 4902  42.464  21.801  11.258
34303W        W 4903  44.012  20.596  12.534
34304W        W 4904  17.463  10.843  12.953
34305W        W 4905   8.650  30.577   3.916
34306W        W 4906  15.145  44.473  14.539
34307W        W 4907  23.738  19.686   2.786
34308W        W 4908  11.778  36.031   1.760
34309W        W 4909   2.164   0.881   0.713
34310W        W 4910  16.541  19.988  14.935
34311W        W 4911  22.816  11.730  12.519
34312W        W 4912  44.792  28.590  11.254
34313W        W 4913  39.493  27.896  11.574
34314W        W 4914  23.619  30.165   2.707
34315W        W 4915  18.575  11.320   2.949
34316W        W 4916  37.279  31.136  14.913
34317W        W 4917   6.797  41.395  12.922
34318W        W 4918   3.270  16.321  14.418
34319W        W 4919   3.028   4.732  12.964
34320W        W 4920  10.303  30.778  14.336
34321W        W 4921  13.709  43.836  12.629
34322W        W 4922  32.156  23.462  10.763
34323W        W 4923  12.770  12.348  11.119
34324W        W 4924  26.721  13.258  12.332
34325W        W 4925  44.223  32.607  13.995
34326W        W 4926  18.081  39.393  10.666
34327W        W 4927  22.760  39.951  12.475
34328W        W 4928  18.643  42.953   4.643
34329W        W 4929   6.227  19.846  11.599
34330W        W 4930   4.678  17.826   2.084
34331W        W 4931   1.630   6.845  14.337
34332W        W 4932   9.517  13.316  14.968
34333W        W 4933  25.808   3.523  11.171
34334W        W 4934  24.441  25.663  11.609
34335W        W 4935  26.051  15.075   4.951
34336W        W 4936  12.865   7.732  14.977
34337W        W 4937  39.999  23.306   2.228
34338W        W 4938  40.634  31.188   2.848
34339W        W 4939   0.377  11.788   4.136
34340W        W 4940  41.731   0.061   0.775
34341W        W 4941  20.537  17.604   2.134
34342W        W 4942  23.311  20.646  14.311
34343W        W 4943  14.139  39.047   1.792
34344W        W 4944  30.499  30.472  11.901
34345W        W 4945  26.562  41.931   2.611
34346W        W 4946  35.375  10.853  12.015
34347W        W 4947   3.341   7.590  11.230
34348W        W 4948  37.232  39.873   1.227
34349W        W 4949   3.781  41.954  13.957
34350W        W 4950   2.669  38.864  12.015
34351W        W 4951  14.242  42.351  10.517
34352W        W 4952   3.863   0.062   4.083
34353W        W 4953  26.385  35.771   2.685
34354W        W 4954  41.887  44.398  10.835
34355W        W 4955  41.756  14.924  11.461
34356W        W 4956  43.540  14.925  14.909
34357W        W 4957   8.249  43.660   3.341
34358W        W 4958   9.650  35.056   2.838
34359W        W 4959  31.869  42.979  12.608
34360W        W 4960  11.906  43.932   0.276
34361W        W 4961  44.314  22.963   0.639
34362W        W 4962  33.040  37.449  13.901
34363W        W 4963  42.887  13.576  13.948
34364W        W 4964  40.966  26.612  10.713
34365W        W 4965  10.742   8.213   4.398
34366W        W 4966  12.850  43.244  13.839
34367W        W 4967   8.796  33.681  10.706
34368W        W 4968  41.456  37.477  11.412
34369W        W 4969  20.173  43.310   4.778
34370W        W 4970  16.014  17.251   2.851
34371W        W 4971  18.160  15.394   0.247
34372W        W 4972  42.738  15.048   2.280
34373W        W 4973  25.129   2.658   5.119
34374W        W 4974   4.312  12.500  12.789
34375W        W 4975  37.968  42.752  13.908
34376W        W 4976  22.485   3.876   0.913
34377W        W 4977  31.719  26.444  12.374
34378W        W 4978   5.273  44.032   3.630
34379W        W 4979   7.708  18.161  14.033
34380W        W 4980   0.019  12.027  14.495
34381W        W 4981  39.003  16.722  13.123
34382W        W 4982  17.680   6.851  12.807
34383W        W 4983   4.680  24.672   3.753
34384W        W 4984   5.843  15.553   1.328
34385W        W 4985   4.259  13.687  10.604
34386W        W 4986  20.020  15.172   0.184
34387W        W 4987  36.516  29.073  14.476
34388W        W 4988  10.723  13.860  10.656
34389W        W 4989  25.016  11.349   0.076
34390W        W 4990  29.203   2.374  13.868
34391W        W 4991  28.384   2.396   0.467
34392W        W 4992  22.157  10.196  12.838
34393W        W 4993  21.976  21.443   2.770
34394W        W 4994  14.373  16.310  12.517
34395W        W 4995  44.237  36.894  13.064
34396W        W 4996  32.359  38.045   2.104
34397W        W 4997  21.491  41.070  11.095
34398W        W 4998  20.575  13.909   2.618
34399W        W 4999   3.110  21.127   1.044
34400W        W 5000   6.021   6.418   2.151
34401W        W 5001  23.038  34.605  14.851
34402W        W 5002   5.800   1.432  14.749
34403W        W 5003  11.754   4.515  11.593
34404W        W 5004  32.002  28.143  10.488
34405W        W 5005  20.746   3.180   4.510
34406W        W 5006   0.198   5.070   3.243
34407W        W 5007  31.322  18.636   0.183
34408W        W 5008  40.998  18.197   9.607
34409W        W 5009  21.488  22.027   4.590
34410W        W 5010  34.285  11.782  14.363
34411W        W 5011  32.020   0.537  13.511
34412W        W 5012  38.706  39.857   1.145
34413W        W 5013  16.776  16.667   3.728
34414W        W 5014   6.690  28.414   2.278
34415W        W 5015  41.888   1.847  10.337
34416W        W 5016   9.309  21.074  14.004
34417W        W 5017  25.170  32.530  11.889
34418W        W 5018  15.165  10.442  12.104
34419W        W 5019  32.461  42.080   0.822
34420W        W 5020  42.960  24.046   4.035
34421W        W 5021  27.130   2.229  14.030
34422W        W 5022  17.225  34.686   1.200
34423W        W 5023   1.422  16.089  11.488
34424W        W 5024  30.077  44.259   4.024
34425W        W 5025   3.583  25.516   0.340
34426W        W 5026   4.319   6.490  14.177
34427W        W 5027   7.695   3.736  12.003
34428W        W 5028  32.491   6.795   4.537
34429W        W 5029   7.336  39.032   4.162
34430W        W 5030  29.559  26.679   2.676
34431W        W 5031  43.210   9.717  12.581
34432W        W 5032  36.445  24.540  10.971
34433W        W 5033  11.068  44.915  14.510
34434W        W 5034  35.481   5.642  14.282
34435W        W 5035  29.897  38.540  10.199
34436W        W 5036  28.335   7.693   1.227
34437W        W 5037  35.468   4.073  12.513
34438W        W 5038  14.108  29.212   3.392
34439W        W 5039  22.728  15.897   3.269
34440W        W 5040  19.675   2.777  11.431
34441W        W 5041  18.576  32.103   5.289
34442W        W 5042   0.628  26.378   5.006
34443W        W 5043  40.993   0.733  11.212
34444W        W 5044  20.489  22.198  10.652
34445W        W 5045   9.786  40.038   0.808
34446W        W 5046  25.687  23.158  10.435
34447W        W 5047  16.579  13.327  13.888
34448W        W 5048   0.691  27.098   0.270
34449W        W 5049  25.479  17.738  13.866
34450W        W 5050  42.569  34.557  13.551
34451W        W 5051  24.137  32.362  13.229
34452W        W 5052  41.320  33.649  11.168
34453W        W 5053   6.625  10.821  14.516
34454W        W 5054  35.400   9.927  14.511
34455W        W 5055  24.961  33.929   1.738
34456W        W 5056  33.920   8.143  11.589
34457W        W 5057  26.188  37.378   3.618
34458W        W 5058  41.000   8.626  14.073
34459W        W 5059  44.826  28.445   3.202
34460W        W 5060  39.428   4.563  14.791
34461W        W 5061   0.828  11.125   0.173
34462W        W 5062  38.828  42.257  11.529
34463W        W 5063  17.959  26.879   2.272
34464W        W 5064   5.407  44.921  11.432
34465W        W 5065  28.113  37.334  12.569
34466W        W 5066   1.096  25.487  12.501
34467W        W 5067  21.338  40.763  10.598
34468W        W 5068   9.229   3.392   0.286
34469W        W 5069  20.252  22.701  12.521
34470W        W 5070  42.184  13.965  13.528
34471W        W 5071  32.615  12.232  10.628
34472W        W 5072  21.931  41.920   4.886
34473W        W 5073  13.885  10.299  10.965
34474W        W 5074  35.556  38.492  13.867
34475W        W 5075  40.987  24.269  11.494
34476W        W 5076  11.576  44.819   2.887
34477W        W 5077   1.949  19.801   5.083
34478W        W 5078  43.863  24.985   0.501
34479W        W 5079  41.528  15.185  14.943
34480W        W 5080   0.244   3.811   4.571
34481W        W 5081   9.123  30.301  10.347
34482W        W 5082   8.276   7.294  13.926
34483W        W 5083  27.431  22.246  13.970
34484W        W 5084  11.049  12.179  13.953
34485W        W 5085   8.756   5.807  11.325
34486W        W 5086  28.116  40.061  11.111
34487W        W 5087  38.576   7.134   2.238
34488W        W 5088  34.640  41.122  11.620
34489W        W 5089  37.848  19.873   3.287
34490W        W 5090  38.608  39.374   4.642
34491W        W 5091   5.177  27.426  14.353
34492W        W 5092  22.195  12.194  10.750
34493W        W 5093  40.375  35.290  12.950
34494W        W 5094   9.399  39.874   3.607
34495W        W 5095  20.354   7.548   1.415
34496W        W 5096  12.125  15.337   2.873
34497W        W 5097  20.587  24.565  14.547
34498W        W 5098  13.545  32.251  12.542
34499W        W 5099  10.909  21.147   3.277
34500W        W 5100  44.548  34.548   0.472
34501W        W 5101   5.904  41.542  12.380
34502W        W 5102   9.738  22.645   2.166
34503W        W 5103  28.387  33.955  11.422
34504W        W 5104  36.035   6.719   3.800
34505W        W 5105   0.655  15.891  13.545
34506W        W 5106  17.701   7.843   0.857
34507W        W 5107   2.749  38.554  11.496
34508W        W 5108  43.559  40.616   0.446
34509W        W 5109  15.028   5.731  14.090
34510W        W 5110  31.580   2.073   0.378
34511W        W 5111  10.247  21.656  14.917
34512W        W 5112  18.585  38.964  11.790
34513W        W 5113  24.582  32.963  10.685
34514W        W 5114  27.260  37.506   1.816
34515W        W 5115   4.801   0.891   0.688
34516W        W 5116  29.916  23.663  12.955
34517W        W 5117   3.270  42.560  13.772
34518W        W 5118   2.035  26.480  11.076
34519W        W 5119  34.743  21.984  11.839
34520W        W 5120  26.792  44.898  13.882
34521W        W 5121  36.591  29.373   2.239
34522W        W 5122   0.991  16.373  11.468
34523W        W 5123  28.105  15.661  10.232
34524W        W 5124   4.323  15.531   4.022
34525W        W 5125  15.767  25.900  11.237
34526W        W 5126   9.806  27.887  11.966
34527W        W 5127  43.281  10.559   1.502
34528W        W 5128  10.090  17.970   3.261
34529W        W 5129  42.402   9.743   2.735
34530W        W 5130  28.727  40.013  14.603
34531W        W 5131   9.711  24.203   0.210
34532W        W 5132  22.483  12.748   0.699
34533W        W 5133   3.095  27.917   3.138
34534W        W 5134  15.169   6.951   4.690
34535W        W 5135   6.499  41.766  13.133
34536W        W 5136  34.379  38.227  12.843
34537W        W 5137  38.593  21.615   2.309
34538W        W 5138  33.950   9.702  12.772
34539W        W 5139   7.925  29.571  14.762
34540W        W 5140  21.270  29.919  12.965
34541W        W 5141  27.008   1.975   0.500
34542W        W 5142   5.331  36.420   4.883
34543W        W 5143   6.989  17.113  12.067
34544W        W 5144  12.457  22.932   3.329
34545W        W 5145  42.696  41.772  13.343
34546W        W 5146  26.650   3.075  11.507
34547W        W 5147  22.609  20.481   4.158
34548W        W 5148  17.576   8.811  12.423
34549W        W 5149   4.160   6.073  13.944
34550W        W 5150  38.417   0.530   4.771
34551W        W 5151   7.610  18.715   3.192
34552W        W 5152  25.511  28.064   4.693
34553W        W 5153  27.765   9.144   4.067
34554W        W 5154   5.497  23.053  14.260
34555W        W 5155  34.943  36.640   0.851
34556W        W 5156  25.194   7.182   1.436
34557W        W 5157  27.485  18.085   3.683
34558W        W 5158  19.305  10.375   2.590
34559W        W 5159  29.135  23.684  12.473
34560W        W 5160  40.042   1.932  12.168
34561W        W 5161  17.487  40.544  11.918
34562W        W 5162   9.703  31.353   1.290
34563W        W 5163   2.992  30.898   4.166
34564W        W 5164  15.238  20.158   4.490
34565W        W 5165  12.212  12.259  14.722
34566W        W 5166   5.996  20.632  13.352
34567W        W 5167  21.747  32.586  11.613
34568W        W 5168  16.698   0.982   1.393
34569W        W 5169  42.323   8.476   5.623
34570W        W 5170  21.009  38.606   3.672
34571W        W 5171  32.286  25.543   0.806
34572W        W 5172  33.967  16.220   1.453
34573W        W 5173  19.911  13.866  13.030
34574W        W 5174  39.021  15.473   1.764
34575W        W 5175  31.911  27.020  14.095
34576W        W 5176  25.250   6.902  10.409
34577W        W 5177  31.122  19.546   3.614
34578W        W 5178  25.514  33.114   4.646
34579W        W 5179  23.609  12.232  13.414
34580W        W 5180   9.754  28.096  13.005
34581W        W 5181  44.911   4.244  10.618
34582W        W 5182   5.119  14.862   4.682
34583W        W 5183  12.414  15.272   2.273
34584W        W 5184  35.340  21.228   2.253
34585W        W 5185  37.249   3.651  10.819
34586W        W 5186  27.935  11.748  10.697
34587W        W 5187  31.034  44.144   0.189
34588W        W 5188   0.104  19.063   1.509
34589W        W 5189  34.431  29.412  12.334
34590W        W 5190  28.986  26.099  11.694
34591W        W 5191  34.543  21.685  13.011
34592W        W 5192  19.118  42.306   2.210
34593W        W 5193  18.517  10.830  11.257
34594W        W 5194  26.211  23.575   1.766
34595W        W 5195  43.448  14.532   0.230
34596W        W 5196  23.959  31.846   1.347
34597W        W 5197   1.699   1.742  13.319
34598W        W 5198  21.749  26.054   3.389
34599W        W 5199  17.192  37.514  14.587
34600W        W 5200  12.326  42.939  12.403
34601W        W 5201  29.578  30.161   1.434
34602W        W 5202  39.236  39.975  12.586
34603W        W 5203  26.991  13.674   4.618
34604W        W 5204  25.020  13.350  10.693
34605W        W 5205  43.319  29.001  12.911
34606W        W 5206  17.251  21.225   0.439
34607W        W 5207  19.886  20.742  13.277
34608W        W 5208  43.803  27.119  10.766
34609W        W 5209   3.450  34.580  13.714
34610W        W 5210  31.859  12.627   1.431
34611W        W 5211   0.473  40.923   2.914
34612W        W 5212  27.016  24.951   4.213
34613W        W 5213  35.123  16.266  14.922
34614W        W 5214  42.858  13.894   4.576
34615W        W 5215  24.966  34.641   3.179
34616W        W 5216  11.867  28.526   4.538
34617W        W 5217  22.125  21.285  14.029
34618W        W 5218  18.316  34.519   3.717
34619W        W 5219  12.614  37.957  12.996
34620W        W 5220  19.123  20.859   2.712
34621W        W 5221  27.318  22.815   3.113
34622W        W 5222  33.838  33.992  10.916
34623W        W 5223  20.903  34.644   5.180
34624W        W 5224  24.563  18.248   1.682
34625W        W 5225   4.716  14.625   1.817
34626W        W 5226  32.574  13.207  12.531
34627W        W 5227   6.749  17.537  14.670
34628W        W 5228   2.227  28.654   0.654
34629W        W 5229  11.071  22.636   1.901
34630W        W 5230  22.450  14.100   1.747
34631W        W 5231  18.687  35.299   4.483
34632W        W 5232  43.102  11.032  13.971
34633W        W 5233  16.395  13.088  11.081
34634W        W 5234   4.191  34.371  11.870
34635W        W 5235  39.899  26.500   1.492
34636W        W 5236  37.483  40.860   1.997
34637W        W 5237  10.430  27.930  13.783
34638W        W 5238   3.850  25.176  10.971
34639W        W 5239  41.995  18.120  13.955
34640W        W 5240  37.095  16.060  11.179
34641W        W 5241  18.539  41.783   2.644
34642W        W 5242  36.577   8.238   2.628
34643W        W 5243  26.109  17.395   1.334
34644W        W 5244   6.659   9.450  13.487
34645W        W 5245  33.440  10.837  10.525
34646W        W 5246  37.844  23.222  14.580
34647W        W 5247  21.005   6.448   3.451
34648W        W 5248  26.376  13.115  13.924
34649W        W 5249  29.352  17.983   4.540
34650W        W 5250  42.994   2.794   1.714
34651W        W 5251  19.734  11.684  12.594
34652W        W 5252  18.860  10.554  13.827
34653W        W 5253  24.412  43.919   0.748
34654W        W 5254  12.329  39.705   3.361
34655W        W 5255  15.651  11.903  14.535
34656W        W 5256   0.967  31.784   2.832
34657W        W 5257   9.910  27.484   3.637
34658W        W 5258  15.050  23.108  14.756
34659W        W 5259  35.571   7.824   0.816
34660W        W 5260  44.039   8.278  12.906
34661W        W 5261  37.970  27.367   1.762
34662W        W 5262  34.587  21.743   2.257
34663W        W 5263  14.242  20.556   3.162
34664W        W 5264  34.417   3.682   3.651
34665W        W 5265  18.629  44.273  10.666
34666W        W 5266  35.733  24.200   1.842
34667W        W 5267  26.162  37.095   0.447
34668W        W 5268  25.919   9.776  11.137
34669W        W 5269   1.232  11.712  13.336
34670W        W 5270  36.423  16.048  12.037
34671W        W 5271   1.487  43.530   0.224
34672W        W 5272  24.417  31.749   3.249
34673W        W 5273  32.951  16.326   3.748
34674W        W 5274   3.469  39.439  12.146
34675W        W 5275   3.510  43.890  14.455
34676W        W 5276  28.522   1.938   3.273
34677W        W 5277   6.592  20.369  14.441
34678W        W 5278  40.776   5.810   1.972
34679W        W 5279   2.390  41.307   4.706
34680W        W 5280  14.664  31.309   2.960
34681W        W 5281  43.149  39.404   2.392
34682W        W 5282  20.028  25.559   1.696
34683W        W 5283  44.331  13.419  13.101
34684W        W 5284  13.052   0.901   4.131
34685W        W 5285  20.819  10.774  14.806
34686W        W 5286  28.698  21.588  13.014
34687W        W 5287  21.733  16.135  13.838
34688W        W 5288  13.027  35.884   0.303
34689W        W 5289  39.268  33.596  14.536
34690W        W 5290  15.818  18.160   4.105
34691W        W 5291  17.804  40.041  13.160
34692W        W 5292  10.199  39.146  14.461
34693W        W 5293  30.953  29.754   1.353
34694W        W 5294  39.745  19.559   0.294
34695W        W 5295  31.646  12.332   0.258
34696W        W 5296  17.606  32.647  13.279
34697W        W 5297  19.708  20.492   0.038
34698W        W 5298  42.047  38.128   4.180
34699W        W 5299  41.225   7.200   2.555
34700W        W 5300   0.898  22.392  12.005
34701W        W 5301  43.358  26.566   0.701
34702W        W 5302  23.902   0.254   3.619
34703W        W 5303  14.403  20.013   2.787
34704W        W 5304  27.989  28.146   2.167
34705W        W 5305  29.664   5.278  11.666
34706W        W 5306  32.547  35.006  14.291
34707W        W 5307   8.888  23.415  12.013
34708W        W 5308  39.998  42.211  11.203
34709W        W 5309  42.473  24.605   3.768
34710W        W 5310  20.422  33.078   3.235
34711W        W 5311   3.024   5.999  12.647
34712W        W 5312   6.295  34.476  12.107
34713W        W 5313  19.440  16.325  12.101
34714W        W 5314  28.194   3.260   0.039
34715W        W 5315  38.930   3.390   5.160
34716W        W 5316   3.978  23.820  12.194
34717W        W 5317  29.500   5.815   0.794
34718W        W 5318  17.123  33.162  13.308
34719W        W 5319  31.944   9.773  13.918
34720W        W 5320  21.530  13.724  14.556
34721W        W 5321  11.703  17.945   3.805
34722W        W 5322  37.949  28.456   3.241
34723W        W 5323  38.451  22.768   4.662
34724W        W 5324  14.676   3.223   3.791
34725W        W 5325   7.336  23.981   4.572
34726W        W 5326  17.524  19.276  13.208
34727W        W 5327  21.048  28.626   0.484
34728W        W 5328   5.775   4.921   4.613
34729W        W 5329  41.304  36.033  11.019
34730W        W 5330  25.745  39.417   4.385
34731W        W 5331  29.061  16.849   2.159
34732W        W 5332  34.924  13.024   4.120
34733W        W 5333  43.207  13.501   1.322
34734W        W 5334  39.233  30.880   3.707
34735W        W 5335  11.850  10.319  14.111
34736W        W 5336  37.048  41.970  14.623
34737W        W 5337  27.084  30.431   0.376
34738W        W 5338  14.263  21.696   4.202
34739W        W 5339  38.076  30.979  12.197
34740W        W 5340  32.143  38.976  12.599
34741W        W 5341  28.006   4.459  13.283
34742W        W 5342  13.628  24.716  12.547
34743W        W 5343  33.403  17.126  11.914
34744W        W 5344  10.793  22.702   0.960
34745W        W 5345  31.672  20.046   2.365
34746W        W 5346  10.086  41.853  14.778
34747W        W 5347  36.303   9.241  13.599
34748W        W 5348  25.161   2.012   3.595
34749W        W 5349  32.251  42.820  14.804
34750W        W 5350  28.518   6.799  10.680
34751W        W 5351  20.634   6.309  10.965
34752W        W 5352   6.133  11.581   3.730
34753W        W 5353  30.570  38.947   3.650
34754W        W 5354   3.634  30.131  11.488
34755W        W 5355  18.688  34.527  13.270
34756W        W 5356   4.719  21.164  10.516
34757W        W 5357  21.989  15.388   1.653
34758W        W 5358  15.712   2.451  13.370
34759W        W 5359  25.959  24.465  10.716
34760W        W 5360   4.327  30.021   0.796
34761W        W 5361  29.294   6.355   2.834
34762W        W 5362   8.811  29.852   0.713
34763W        W 5363  42.595  16.336  10.835
34764W        W 5364  38.439  42.487  13.791
34765W        W 5365   6.831  23.932  11.203
34766W        W 5366   4.520   7.641   4.926
34767W        W 5367  36.036  23.398  12.469
34768W        W 5368   4.947  17.457  13.870
34769W        W 5369  38.875  31.165   4.458
34770W        W 5370  30.955  26.461   2.717
34771W        W 5371  29.357   7.788   1.184
34772W        W 5372  25.187  19.092  12.201
34773W        W 5373  44.459   4.207   3.442
34774W        W 5374  39.418  28.409  11.464
34775W        W 5375  17.792   5.546  13.132
34776W        W 5376   2.899  22.708  12.076
34777W        W 5377  39.020   8.066   0.906
34778W        W 5378  16.743  25.903  11.021
34779W        W 5379  12.705   8.715  13.555
34780W        W 5380  34.543  44.257   3.657
34781W        W 5381  38.841   2.933  13.904
34782W        W 5382   6.763  29.530   4.981
34783W        W 5383  22.121  19.759   0.372
34784W        W 5384  23.925  41.615  13.015
34785W        W 5385  16.442   1.803   3.703
34786W        W 5386  36.989   2.678  12.333
34787W        W 5387  30.768   4.421  11.981
34788W        W 5388   2.373  10.199   1.910
34789W        W 5389  43.844  18.080   3.712
34790W        W 5390   4.886  20.857  12.320
34791W        W 5391  19.232  21.262   1.772
34792W        W 5392   5.306  32.273  10.725
34793W        W 5393  37.025  29.103  12.546
34794W        W 5394  44.882  33.052   0.296
34795W        W 5395  40.578  32.538  11.080
34796W        W 5396   4.411   9.712   4.163
34797W        W 5397   5.646  20.213  14.258
34798W        W 5398  41.298  40.024   3.890
34799W        W 5399  31.527  27.171   0.677
34800W        W 5400  16.042  30.977   2.771
34801W        W 5401  25.800   0.071  11.622
34802W        W 5402   8.760  24.423  12.011
34803W        W 5403  29.857   1.641   4.064
34804W        W 5404  25.123  17.761  11.636
34805W        W 5405  25.693  29.159   0.358
34806W        W 5406   9.910   2.293  13.060
34807W        W 5407  17.266  22.169   3.876
34808W        W 5408  22.820   9.132   0.636
34809W        W 5409  31.931  39.570  11.566
34810W        W 5410  35.377  23.089   0.877
34811W        W 5411  25.721  25.475   1.356
34812W        W 5412  41.869  25.952  14.377
34813W        W 5413   7.813  40.811  12.845
34814W        W 5414   3.143  39.917  14.083
34815W        W 5415   1.282  14.253   1.537
34816W        W 5416  16.226   7.522   2.364
34817W        W 5417  32.688  40.750  10.892
34818W        W 5418  30.517  34.003   0.786
34819W        W 5419   7.277  25.463   2.438
34820W        W 5420   8.201  29.628   1.441
34821W        W 5421   7.030  26.589  13.604
34822W        W 5422  42.062  36.528  11.177
34823W        W 5423  24.208  29.395  11.122
34824W        W 5424  40.472   9.302  14.013
34825W        W 5425  32.502  14.611   1.298
34826W        W 5426  18.212  14.148  14.929
34827W        W 5427  36.460  13.887   0.886
34828W        W 5428  24.204  18.062   3.333
34829W        W 5429  15.931  22.656  11.610
34830W        W 5430   0.204   8.235  12.036
34831W        W 5431  10.237  35.188   2.225
34832W        W 5432  19.621   9.730  12.411
34833W        W 5433  40.856  42.398  13.566
34834W        W 5434   3.013  31.050  12.188
34835W        W 5435  34.912  27.468   2.620
34836W        W 5436  35.621  37.851  12.069
34837W        W 5437  33.523  36.499   3.295
34838W        W 5438  22.415  10.203   3.251
34839W        W 5439  12.729  41.524   4.263
34840W        W 5440  14.751   0.843   0.635
34841W        W 5441  37.098  22.720  12.373
34842W        W 5442   6.317  26.136  13.022
34843W        W 5443  38.966   5.630  13.593
34844W        W 5444  15.778  11.741  12.006
34845W        W 5445  26.173  15.279   4.468
34846W        W 5446  16.099  23.108   0.671
34847W        W 5447  10.423  12.691   3.864
34848W        W 5448  36.562  32.138  10.624
34849W        W 5449   3.120  14.264   2.210
34850W        W 5450  32.902  18.079  11.426
34851W        W 5451  19.617  24.500   0.943
34852W        W 5452  21.090   0.246  13.974
34853W        W 5453  27.461  33.555   4.140
34854W        W 5454  43.526  11.205  11.578
34855W        W 5455  43.813  35.084  13.453
34856W        W 5456   6.450  17.713  11.591
34857W        W 5457   5.400  26.109  13.559
34858W        W 5458   2.792   1.311   3.305
34859W        W 5459  27.273  31.871   4.135
34860W        W 5460  44.727  14.736  12.494
34861W        W 5461  26.817  39.809   4.651
34862W        W 5462  22.351  29.621  11.078
34863W        W 5463  39.001  11.818  11.999
34864W        W 5464  41.115  23.541   4.165
34865W        W 5465  30.947  37.526   9.897
34866W        W 5466   5.054  41.504   4.092
34867W        W 5467  21.722  26.073   1.145
34868W        W 5468  36.377  23.898   4.503
34869W        W 5469  38.490  37.149   0.546
34870W        W 5470   2.329  20.160   0.384
34871W        W 5471   6.664  16.632  13.904
34872W        W 5472   0.034  39.445   3.073
34873W        W 5473  31.425  22.697   2.015
34874W        W 5474  30.924  34.614  12.048
34875W        W 5475  17.174  19.958   3.291
34876W        W 5476  13.724   7.194  12.424
34877W        W 5477   0.732  22.704   2.378
34878W        W 5478  41.997  29.641  12.151
34879W        W 5479  16.536  26.169  14.819
34880W        W 5480  44.689  28.033  11.125
34881W        W 5481  35.500  31.971   0.146
34882W        W 5482  23.148  16.775   4.422
34883W        W 5483  43.318   6.106   3.036
34884W        W 5484  24.315  31.989   1.954
34885W        W 5485  14.193  18.491   0.812
34886W        W 5486  11.351   5.209  12.795
34887W        W 5487  27.094   3.921  12.587
34888W        W 5488  44.661   0.356  14.312
34889W        W 5489  28.486  41.957   0.707
34890W        W 5490   8.828  14.609  12.271
34891W        W 5491  41.801   5.417  11.140
34892W        W 5492  21.356  16.063   1.774
34893W        W 5493   1.990  15.679   0.296
34894W        W 5494  20.465  43.727   1.681
34895W        W 5495  31.991  26.426   0.903
34896W        W 5496  31.281  31.169  11.597
34897W        W 5497  15.817  39.152  14.817
34898W        W 5498  30.920  21.709  11.613
34899W        W 5499   5.683  11.801   4.080
34900W        W 5500  11.219   6.177  13.922
34901W        W 5501  17.238  40.499   4.957
34902W        W 5502  19.069  20.693  12.923
34903W        W 5503  24.306  36.841  11.145
34904W        W 5504  14.054  17.588   0.940
34905W        W 5505  15.765   0.646  14.565
34906W        W 5506  37.609  44.268  11.873
34907W        W 5507   3.334  32.489   1.481
34908W        W 5508  43.549  22.736  12.303
34909W        W 5509   2.671   1.784  13.061
34910W        W 5510  29.135  37.012  10.418
34911W        W 5511  37.339  30.569   1.388
34912W        W 5512  37.678  12.023  14.422
34913W        W 5513  38.545  36.749   0.232
34914W        W 5514   9.258  39.303   0.256
34915W        W 5515  32.071   9.607   4.641
34916W        W 5516  24.240  12.811  13.619
34917W        W 5517  19.340  31.931   2.051
34918W        W 5518  36.284  11.609  13.876
34919W        W 5519   6.444  17.751   0.962
34920W        W 5520  36.916  19.853  11.081
34921W        W 5521  31.608  18.078   0.984
34922W        W 5522  20.281  21.570   4.628
34923W        W 5523  22.745  13.593  11.194
34924W        W 5524  13.390  27.545   1.448
34925W        W 5525  44.006  16.709  11.916
34926W        W 5526  24.772   0.039   3.625
34927W        W 5527  38.501  40.311   4.795
34928W        W 5528   7.231   4.695  13.931
34929W        W 5529   4.377   3.775  13.879
34930W        W 5530   9.293  42.998   1.448
34931W        W 5531   8.085  42.190  11.619
34932W        W 5532   1.775  39.542   3.704
34933W        W 5533  18.967  44.528   2.544
34934W        W 5534   9.742  17.966   3.680
34935W        W 5535   5.738  34.353  13.410
34936W        W 5536  17.713  26.368  13.818
34937W        W 5537   0.622   5.914  10.591
34938W        W 5538  22.553   1.758  12.541
34939W        W 5539  31.582  13.783   2.150
34940W        W 5540  14.719  13.770  13.803
34941W        W 5541  39.697  22.797  13.379
34942W        W 5542  19.042  36.600   1.852
34943W        W 5543   2.055  34.753  11.100
34944W        W 5544  26.905  17.064   2.438
34945W        W 5545  38.633  28.587   4.294
34946W        W 5546  24.040  14.308   0.006
34947W        W 5547  11.215  22.837  11.430
34948W        W 5548   8.272  15.320  10.566
34949W        W 5549  15.126  31.214  12.895
34950W        W 5550  11.873   7.299   4.616
34951W        W 5551  21.655  20.754  10.746
34952W        W 5552  36.344  23.666   4.042
34953W        W 5553  38.054   1.040  11.925
34954W        W 5554   8.094   5.143  14.558
34955W        W 5555  27.727  43.858   3.695
34956W        W 5556  37.273  41.627  14.283
34957W        W 5557  38.522  11.758  14.354
34958W        W 5558  34.536   3.763  12.914
34959W        W 5559  38.311  44.270  14.600
34960W        W 5560  34.882  17.653   4.520
34961W        W 5561  12.103  25.522  14.599
34962W        W 5562  35.894   3.201   1.211
34963W        W 5563  17.759  33.830   3.872
34964W        W 5564  33.395   9.866   3.121
34965W        W 5565  20.601  10.782  12.872
34966W        W 5566   5.395  32.537   4.663
34967W        W 5567  20.683  41.355  13.786
34968W        W 5568  28.184  12.123   3.196
34969W        W 5569  38.439   9.650   2.332
34970W        W 5570  28.649  44.729  10.369
34971W        W 5571  11.781  12.924   0.312
34972W        W 5572  12.714  28.778  14.539
34973W        W 5573   7.732  30.381   0.171
34974W        W 5574  39.778   0.666  11.607
34975W        W 5575  43.826  41.581   0.353
34976W        W 5576  15.124  11.248   2.859
34977W        W 5577  19.500   1.464  11.677
34978W        W 5578  19.573  14.626  12.352
34979W        W 5579  26.186  34.202   0.809
34980W        W 5580  29.952  37.527  10.901
34981W        W 5581  28.662  34.931  11.474
34982W        W 5582  39.346  25.823   2.504
34983W        W 5583   5.935  22.543   2.860
34984W        W 5584  42.148  44.294   5.004
34985W        W 5585  27.012   5.062  14.757
34986W        W 5586  21.840  37.989   0.747
34987W        W 5587   6.632  32.049   0.777
34988W        W 5588  16.617  36.504   4.975
34989W        W 5589  29.031  14.625   1.939
34990W        W 5590  19.735  14.102   1.614
34991W        W 5591  31.234  16.965  11.634
34992W        W 5592  22.835  14.969   4.070
34993W        W 5593  26.747  13.254  14.270
34994W        W 5594  41.936  40.906  14.739
34995W        W 5595  22.701   5.857  11.121
34996W        W 5596  19.596  21.126  12.346
34997W        W 5597  16.435  31.912   2.822
34998W        W 5598   5.523   2.139   1.113
34999W        W 5599  39.505  38.315   3.684
35000W        W 5600  31.470  22.254   4.235
35001W        W 5601  28.286  39.049  14.862
35002W        W 5602   5.032  32.405   4.314
35003W        W 5603  21.192  20.492  14.914
35004W        W 5604  20.196  15.229  11.984
35005W        W 5605  25.072  22.560  11.399
35006W        W 5606  22.120  13.066   4.207
35007W        W 5607  19.960  34.047  14.422
35008W        W 5608  21.040  24.494  14.239
35009W        W 5609   0.957  30.460   3.045
35010W        W 5610  25.953  11.692   0.333
35011W        W 5611   6.860  10.964  11.579
35012W        W 5612  15.610   1.388  12.447
35013W        W 5613  33.210   6.401   0.865
35014W        W 5614  25.620   2.973  12.037
35015W        W 5615   8.293  23.034  13.603
35016W        W 5616  33.673  32.436   4.573
35017W        W 5617  30.381  37.406  12.136
35018W        W 5618  40.702  20.955   4.983
35019W        W 5619  44.942  19.109   2.765
35020W        W 5620  10.855   2.689   0.537
35021W        W 5621  23.103  37.527  10.516
35022W        W 5622   4.680  11.913  13.117
35023W        W 5623  20.230  22.509   4.746
35024W        W 5624  22.428  37.460   2.635
35025W        W 5625  25.672  29.687   0.307
35026W        W 5626  44.983  43.346   3.649
35027W        W 5627   9.859  16.170   1.193
35028W        W 5628   8.377  11.157  12.004
35029W        W 5629  43.296  21.152   2.334
35030W        W 5630  38.945  11.390  14.089
35031W        W 5631  20.203  38.974  10.362
35032W        W 5632  33.283  18.794   3.349
35033W        W 5633  16.680  21.657  14.322
35034W        W 5634  26.652   7.273  12.275
35035W        W 5635  34.886  16.354  12.955
35036W        W 5636  13.179   9.976  14.398
35037W        W 5637  38.877  25.588  12.924
35038W        W 5638  28.541  43.252  11.690
35039W        W 5639  37.472   9.577   2.632
35040W        W 5640  12.662  32.454  12.875
35041W        W 5641   3.936  33.595   1.130
35042W        W 5642  41.541  38.653   0.326
35043W        W 5643   1.253   3.715   2.657
35044W        W 5644  15.374   6.353  14.164
35045W        W 5645   7.875  39.385   2.352
35046W        W 5646   6.852   6.942   1.389
35047W        W 5647  15.451  16.375   2.797
35048W        W 5648   0.478  28.088  12.972
35049W        W 5649   6.197  33.015  13.481
35050W        W 5650  30.411   9.101  12.472
35051W        W 5651  31.117  13.054   2.555
35052W        W 5652  22.679  27.464  10.717
35053W        W 5653   9.767  27.127  11.971
35054W        W 5654  21.090  26.728   4.001
35055W        W 5655   6.579  26.585  12.811
35056W        W 5656  31.138  12.288  12.068
35057W        W 5657   7.171  33.183   3.081
35058W        W 5658  41.354  40.019  11.117
35059W        W 5659  43.816   6.724  12.639
35060W        W 5660  11.422  43.961  14.515
35061W        W 5661  16.199  31.864  14.806
35062W        W 5662   3.390   9.363  14.940
35063W        W 5663  38.093  32.370   3.615
35064W        W 5664   1.928   0.894   0.107
35065W        W 5665  35.554  22.080   1.800
35066W        W 5666  35.000  27.883  13.891
35067W        W 5667  28.983  17.127   4.259
35068W        W 5668   7.497  22.147  11.946
35069W        W 5669  32.937  34.433   4.264
35070W        W 5670  10.542   6.587   2.765
35071W        W 5671  36.990  44.294   3.207
35072W        W 5672  12.585  37.438  11.434
35073W        W 5673   8.321  29.754  13.918
35074W        W 5674  10.805  41.006   1.430
35075W        W 5675  38.718   2.005   0.445
35076W        W 5676  40.355  10.629  10.975
35077W        W 5677  13.100  11.618  11.143
35078W        W 5678  27.733  19.433   4.996
35079W        W 5679  29.607  11.750   3.273
35080W        W 5680  24.043  26.961  14.474
35081W        W 5681  37.574  34.393  11.143
35082W        W 5682  33.196  33.585  13.370
35083W        W 5683   9.984  43.586  12.612
35084W        W 5684  37.034  22.226   2.202
35085W        W 5685  19.524  12.411   3.348
35086W        W 5686  21.609  13.155  14.415
35087W        W 5687   4.827  39.410  12.486
35088W        W 5688  34.082   5.588  14.292
35089W        W 5689  12.221  30.868  13.010
35090W        W 5690  27.185  32.435   4.648
35091W        W 5691   4.020  11.093   0.932
35092W        W 5692  15.257  24.782  10.699
35093W        W 5693  34.874  31.631   4.907
35094W        W 5694  30.073  24.240  12.527
35095W        W 5695   0.861  24.865  10.788
35096W        W 5696   7.671  12.714  10.980
35097W        W 5697   2.867  15.175  11.940
35098W        W 5698   3.607  20.840  12.902
35099W        W 5699  13.626   0.523  14.777
35100W        W 5700  30.178  24.976  14.357
35101W        W 5701  14.340  40.554   4.520
35102W        W 5702   7.837  31.150   2.697
35103W        W 5703   6.441  18.207   2.726
35104W        W 5704  34.943  32.588   4.500
35105W        W 5705  34.706  15.075  13.074
35106W        W 5706  31.589  26.387   3.185
35107W        W 5707  43.302  10.741  10.787
35108W        W 5708  38.565   0.802  12.061
35109W        W 5709  32.156  37.813   3.805
35110W        W 5710  22.720  39.125  14.487
35111W        W 5711  33.068  44.480   2.743
35112W        W 5712  20.215   0.934  13.893
35113W        W 5713  30.524   0.481   4.755
35114W        W 5714  30.662  30.569   4.293
35115W        W 5715  19.787  18.348   4.228
35116W        W 5716  30.700  22.699   1.378
35117W        W 5717  30.007   8.668  12.905
35118W        W 5718   1.259  11.362   4.895
35119W        W 5719  12.019  12.114   2.746
35120W        W 5720  24.233  26.588   0.439
35121W        W 5721  38.818   8.593  14.912
35122W        W 5722  41.018   5.129   2.710
35123W        W 5723  42.229  12.651   2.657
35124W        W 5724   2.800  41.069  14.333
35125W        W 5725  21.142  10.518   1.177
35126W        W 5726  15.747   5.344  12.604
35127W        W 5727  14.727   9.988   4.049
35128W        W 5728  27.817  16.851   5.026
35129W        W 5729  42.322  18.839   0.119
35130W        W 5730  35.034  43.393   4.852
35131W        W 5731  18.156   7.195   1.393
35132W        W 5732  26.755  18.453  10.318
35133W        W 5733  27.469   6.538   4.614
35134W        W 5734  27.666  28.021   3.391
35135W        W 5735  37.701  13.365  14.951
35136W        W 5736  18.506  42.326  12.460
35137W        W 5737  33.450   9.332   0.326
35138W        W 5738  25.845   7.138   3.735
35139W        W 5739  16.301  39.524  11.163
35140W        W 5740  19.085  32.059   1.014
35141W        W 5741  36.989   4.895   3.661
35142W        W 5742  16.972  27.781  11.136
35143W        W 5743  22.990  20.096   1.964
35144W        W 5744  25.406   8.338   0.465
35145W        W 5745  39.617  28.464  12.441
35146W        W 5746  16.619  38.911   4.779
35147W        W 5747  30.473   4.658  10.930
35148W        W 5748  21.851  29.310   1.435
35149W        W 5749   0.898  34.125   0.924
35150W        W 5750  13.705  36.388  10.482
35151W        W 5751   1.044  35.917  14.012
35152W        W 5752   6.111  16.293   3.656
35153W        W 5753  36.508   2.784  12.495
35154W        W 5754  27.629  20.255   0.509
35155W        W 5755  40.747   8.708  13.124
35156W        W 5756   0.355   5.849   4.489
35157W        W 5757  19.269   8.951  12.069
35158W        W 5758   6.360  44.959   3.107
35159W        W 5759  11.556  39.528   0.807
35160W        W 5760  29.082  27.905   2.561
35161W        W 5761  34.976  14.951   1.321
35162W        W 5762  11.887  13.302  11.259
35163W        W 5763  41.762  28.427  13.340
35164W        W 5764  33.003  23.265  14.308
35165W        W 5765  17.819  32.456  11.452
35166W        W 5766   5.474  18.401  14.245
35167W        W 5767  25.031  26.661  13.480
35168W        W 5768  17.230  19.036   4.640
35169W        W 5769  27.981  23.914  10.879
35170W        W 5770  17.829  20.766   2.300
35171W        W 5771  40.344  22.124   2.302
35172W        W 5772  17.205   2.703   4.180
35173W        W 5773  43.260  26.988   1.229
35174W        W 5774  29.897  36.995  13.004
35175W        W 5775  22.263  39.869   4.727
35176W        W 5776  21.595  25.687  13.950
35177W        W 5777  40.028  20.246  12.853
35178W        W 5778  39.804  27.730   3.359
35179W        W 5779  15.387  28.376  13.021
35180W        W 5780   0.866  41.839   4.871
35181W        W 5781   5.297  11.350   3.339
35182W        W 5782  19.782  23.136   0.948
35183W        W 5783   2.650  26.896  13.484
35184W        W 5784  32.065   0.941   4.543
35185W        W 5785   7.217  19.989   4.556
35186W        W 5786  38.835  27.689  12.516
35187W        W 5787  21.686  17.220  14.980
35188W        W 5788   7.153  28.379  10.631
35189W        W 5789  31.744  23.039   2.325
35190W        W 5790  20.598   5.737  13.223
35191W        W 5791  39.096  15.250   3.308
35192W        W 5792  27.439  36.926   2.929
35193W        W 5793  38.036  19.143  14.806
35194W        W 5794  38.290  26.787   4.648
35195W        W 5795  24.104   5.643   2.187
35196W        W 5796  31.341  43.033  12.664
35197W        W 5797  15.841  12.699  12.850
35198W        W 5798  44.529  25.998   1.374
35199W        W 5799  40.863  39.840   0.734
35200W        W 5800   3.461   4.372   3.956
35201W        W 5801  34.072  40.526  13.477
35202W        W 5802  19.131  20.997  14.776
35203W        W 5803  39.637   4.322  12.614
35204W        W 5804  38.897  29.625  10.041
35205W        W 5805   0.752  25.614   1.862
35206W        W 5806  43.497  42.532  13.896
35207W        W 5807  15.552  20.182  14.933
35208W        W 5808   1.832   3.009  11.114
35209W        W 5809  30.214   2.309   2.706
35210W        W 5810  22.808  30.881   4.055
35211W        W 5811   1.235  16.611   0.703
35212W        W 5812  19.012  40.845   4.698
35213W        W 5813  28.692  16.225  10.712
35214W        W 5814   6.228  30.738  14.784
35215W        W 5815  34.823  44.335  12.952
35216W        W 5816  44.396  36.319   1.826
35217W        W 5817  23.082   8.280   3.074
35218W        W 5818  28.492  24.043   1.632
35219W        W 5819  36.505  26.727   2.757
35220W        W 5820   5.242  22.751  14.892
35221W        W 5821  25.947   7.505  10.312
35222W        W 5822  43.588  10.858  12.140
35223W        W 5823  23.502  22.395   2.721
35224W        W 5824  40.425  36.440   2.167
35225W        W 5825  42.314  15.563  13.495
35226W        W 5826  26.784  31.125   1.913
35227W        W 5827  28.930  30.120  10.794
35228W        W 5828  27.189  18.799  13.189
35229W        W 5829  25.902  12.259   3.566
35230W        W 5830  19.542  42.980   3.271
35231W        W 5831   5.816  12.663  14.814
35232W        W 5832  15.747  10.580   1.822
35233W        W 5833  17.296  20.722   2.898
35234W        W 5834  26.320   3.446   0.174
35235W        W 5835  19.717  25.531   2.183
35236W        W 5836  44.116   5.280   3.815
35237W        W 5837  36.479  26.448   1.392
35238W        W 5838  39.343  30.996   4.718
35239W        W 5839   8.832  18.306  13.924
35240W        W 5840  25.658  38.481  11.083
35241W        W 5841  29.857  17.542  10.858
35242W        W 5842  19.602  12.519   2.273
35243W        W 5843  15.614  41.895  12.467
35244W        W 5844  14.495   0.092  14.331
35245W        W 5845  19.056  10.699   1.383
35246W        W 5846  27.973  42.590   0.323
35247W        W 5847  14.900  35.562   2.275
35248W        W 5848  20.177  32.537  12.438
35249W        W 5849  14.955  40.587   0.303
35250W        W 5850  12.438  26.875  12.123
35251W        W 5851  39.241  41.085  11.645
35252W        W 5852  32.349  16.407  13.018
35253W        W 5853  12.744  34.340  13.968
35254W        W 5854  43.907   8.328   1.844
35255W        W 5855  20.705  20.589  14.752
35256W        W 5856  22.582  34.518   0.757
35257W        W 5857   8.100  31.996  10.894
35258W        W 5858  31.848  36.987   3.260
35259W        W 5859   8.032  44.202   5.038
35260W        W 5860  14.632   5.737  11.647
35261W        W 5861  28.141  44.027  13.830
35262W        W 5862  30.851  15.341  10.945
35263W        W 5863  42.411  16.715   0.950
35264W        W 5864  40.859  27.572  11.653
35265W        W 5865  14.719  27.009  12.477
35266W        W 5866  22.554  33.238   4.540
35267W        W 5867  40.485  16.023   3.293
35268W        W 5868  11.500   6.104   9.865
35269W        W 5869  16.425  12.520   2.599
35270W        W 5870  38.337  16.498  11.709
35271W        W 5871  27.419   2.204  14.452
35272W        W 5872  27.606  33.582   3.645
35273W        W 5873  35.960  23.799   3.124
35274W        W 5874  26.188  22.265  13.524
35275W        W 5875  34.468  12.394   2.808
35276W        W 5876  38.940  36.397   0.087
35277W        W 5877   4.167  38.235  12.507
35278W        W 5878  19.513   8.908  11.077
35279W        W 5879  20.466  10.758  14.321
35280W        W 5880  29.429  30.165  11.641
35281W        W 5881  20.580  11.824  12.404
35282W        W 5882  25.602  44.915   2.327
35283W        W 5883   1.467  32.596  11.750
35284W        W 5884  17.088  21.173   4.456
35285W        W 5885  23.523  35.580  14.968
35286W        W 5886  10.760  26.048   0.313
35287W        W 5887  12.914  30.574  13.600
35288W        W 5888  26.836   0.313   4.100
35289W        W 5889  42.159  36.531   0.892
35290W        W 5890   2.496  38.932   2.261
35291W        W 5891   0.305  23.962  14.524
35292W        W 5892  41.797  28.994   1.774
35293W        W 5893  26.488   9.710   4.024
35294W        W 5894  18.623  40.418   3.116
35295W        W 5895   6.576  31.917   0.275
35296W        W 5896  12.705  10.567  10.420
35297W        W 5897  14.658  39.279  10.998
35298W        W 5898  16.413  26.459  13.834
35299W        W 5899  24.416  29.639   4.154
35300W        W 5900  12.292  15.214  10.888
35301W        W 5901   5.147  35.079   1.421
35302W        W 5902  34.850  12.194   1.345
35303W        W 5903  33.936   6.247  13.704
35304W        W 5904  22.763  25.959  14.067
35305W        W 5905  29.883   5.892  11.620
35306W        W 5906  37.056  20.652   3.613
35307W        W 5907  14.721  42.326   1.844
35308W        W 5908  13.986  35.355   4.169
35309W        W 5909  10.849  42.393   0.708
35310W        W 5910  29.051  13.724   4.647
35311W        W 5911  36.600  24.544   1.350
35312W        W 5912  19.270   3.711  11.740
35313W        W 5913  22.922  17.612   4.437
35314W        W 5914  44.271  30.038   2.719
35315W        W 5915   1.705  32.372  10.604
35316W        W 5916  13.523   8.724   0.735
35317W        W 5917  27.011  38.200   0.015
35318W        W 5918   6.961  12.805  14.407
35319W        W 5919  23.687   4.479  11.573
35320W        W 5920   4.100   7.114  11.980
35321W        W 5921  23.403   2.698   0.030
35322W        W 5922  36.829   0.387   0.088
35323W        W 5923  41.342  40.496   4.125
35324W        W 5924  21.581   1.262   2.855
35325W        W 5925  40.213  18.326  12.233
35326W        W 5926  27.897  16.528   0.762
35327W        W 5927   5.781  12.651   1.764
35328W        W 5928  40.782  36.389  10.833
35329W        W 5929  17.283  42.584  11.028
35330W        W 5930  17.164  11.098  13.479
35331W        W 5931  30.538   8.804  14.316
35332W        W 5932  20.433  20.556   2.160
35333W        W 5933  23.905  14.138   3.632
35334W        W 5934  28.115  28.099   2.705
35335W        W 5935   4.005  21.610   0.052
35336W        W 5936  33.343  15.663   5.036
35337W        W 5937  26.221  23.977   3.613
35338W        W 5938  34.041  35.391  12.749
35339W        W 5939  21.092   6.247  11.156
35340W        W 5940  12.818   2.917  12.894
35341W        W 5941  44.764  30.144   1.742
35342W        W 5942  42.119  17.835   4.136
35343W        W 5943  39.586  36.197   4.863
35344W        W 5944  26.541  18.890   4.795
35345W        W 5945  15.798  25.413   2.221
35346W        W 5946  39.468  39.053   3.070
35347W        W 5947   1.422  17.279   3.340
35348W        W 5948  25.934   6.011  11.971
35349W        W 5949  27.592   2.712   2.407
35350W        W 5950  11.142   6.642  11.302
35351W        W 5951  15.352  37.405  11.048
35352W        W 5952  11.780   8.446   2.595
35353W        W 5953   0.286   0.847   2.326
35354W        W 5954  20.825  20.918   2.185
35355W        W 5955  29.894  40.881   1.936
35356W        W 5956  11.275  13.473  14.259
35357W        W 5957  33.075  35.670   0.414
35358W        W 5958  23.235  39.976   3.043
35359W        W 5959  30.197  42.978  13.306
35360W        W 5960  23.615  13.458  13.082
35361W        W 5961  11.693  42.362   3.662
35362W        W 5962  23.006  10.232  13.462
35363W        W 5963   2.454   9.878  14.092
35364W        W 5964  27.015   7.900   0.852
35365W        W 5965  12.490  22.016  13.197
35366W        W 5966  37.157  43.257   2.330
35367W        W 5967  34.700  37.513   2.304
35368W        W 5968   5.148  17.163  10.676
35369W        W 5969  11.627  30.636   2.192
35370W        W 5970   2.100   0.635  12.657
35371W        W 5971  44.831  17.475   4.166
35372W        W 5972   0.292   5.677  11.953
35373W        W 5973  12.484  22.498   0.304
35374W        W 5974  11.080  42.746   2.253
35375W        W 5975  15.285  15.167   4.433
35376W        W 5976  37.891  21.749   4.070
35377W        W 5977   9.386  25.362  12.495
35378W        W 5978  13.987  20.955   3.792
35379W        W 5979  31.640  36.490   0.356
35380W        W 5980  10.283  16.835  12.938
35381W        W 5981  25.647  27.454   1.314
35382W        W 5982  30.853  44.222   1.472
35383W        W 5983  26.102  32.815   4.087
35384W        W 5984  28.321  38.315   1.733
35385W        W 5985  42.043  20.672  11.877
35386W        W 5986   3.312   7.403  12.982
35387W        W 5987  34.103  15.734  12.921
35388W        W 5988   2.387  25.651  13.070
35389W        W 5989  14.595  27.221  14.863
35390W        W 5990  29.965  25.569  10.452
35391W        W 5991  14.303   0.903  12.294
35392W        W 5992   0.795  44.634   3.811
35393W        W 5993  33.282  21.381  12.946
35394W        W 5994   1.352  19.728   0.751
35395W        W 5995   4.913  31.686  14.573
35396W        W 5996  10.937  29.787   0.434
35397W        W 5997   9.498   3.263   2.390
35398W        W 5998  40.022   3.722   4.920
35399W        W 5999   4.193  32.987   2.631
35400W        W 6000  26.712  15.120   0.384
35401W        W 6001  28.096  17.441  11.038
35402W        W 6002   3.292   3.397   2.860
35403W        W 6003  41.880  26.704  14.778
35404W        W 6004   0.119   2.711   0.245
35405W        W 6005  35.680  27.943  14.289
35406W        W 6006  44.325  43.942   1.191
35407W        W 6007  29.404  11.215   0.587
35408W        W 6008  25.224  22.925  11.714
35409W        W 6009   2.221  15.139  13.888
35410W        W 6010  11.221  27.640   4.157
35411W        W 6011  25.868  44.946  12.147
35412W        W 6012  39.719  15.949  12.013
35413W        W 6013  13.135  16.109   3.917
35414W        W 6014   3.940  31.087  13.520
35415W        W 6015   6.907  43.247   3.311
35416W        W 6016  17.292  11.379  13.940
35417W        W 6017  28.647  16.719  14.090
35418W        W 6018   4.960  35.584   4.500
35419W        W 6019  31.359   1.391  13.916
35420W        W 6020  19.545  43.813   0.338
35421W        W 6021  24.057   5.861  13.443
35422W        W 6022   5.593   4.655   1.755
35423W        W 6023  20.331  26.239  13.577
35424W        W 6024  38.578  10.734   4.229
35425W        W 6025   5.004  43.248  14.959
35426W        W 6026  19.942  41.153  13.771
35427W        W 6027  29.962  19.155  11.093
35428W        W 6028   6.761  39.481  10.722
35429W        W 6029  25.695   0.434  11.231
35430W        W 6030  36.394   1.677  11.318
35431W        W 6031  42.292  34.973  12.569
35432W        W 6032  31.147  43.807   3.647
35433W        W 6033  31.271  39.983  12.043
35434W        W 6034  22.696  35.800  11.595
35435W        W 6035   3.405  31.253   3.258
35436W        W 6036  14.132  25.463  10.690
35437W        W 6037  35.382   7.510  11.165
35438W        W 6038  39.616  21.057   3.809
35439W        W 6039  18.612  44.499   4.147
35440W        W 6040   7.225   7.807  11.589
35441W        W 6041  38.503  31.931  14.785
35442W        W 6042   5.332  21.459   3.213
35443W        W 6043   0.967  19.600  14.204
35444W        W 6044  29.352  26.222  14.387
35445W        W 6045  13.597   6.608   0.870
35446W        W 6046   0.950  20.805  11.114
35447W        W 6047  38.074   6.822  12.491
35448W        W 6048  12.870  38.098   0.805
35449W        W 6049  36.783  26.430   0.448
35450W        W 6050  42.102  21.230   1.428
35451W        W 6051  25.020  30.618  11.646
35452W        W 6052  12.718  24.052   0.318
35453W        W 6053  12.233  24.040   4.568
35454W        W 6054  34.515   4.923  13.933
35455W        W 6055  27.845  41.352   1.928
35456W        W 6056  13.775  35.539   4.616
35457W        W 6057  35.971  26.863  12.561
35458W        W 6058  32.202  33.575  12.427
35459W        W 6059  40.942   2.802   4.905
35460W        W 6060  30.587  25.780   1.437
35461W        W 6061  34.986  41.753  12.021
35462W        W 6062  38.935  31.020  11.401
35463W        W 6063  32.497  27.500  11.025
35464W        W 6064   0.114  11.109  12.898
35465W        W 6065  28.700  17.130   1.887
35466W        W 6066   8.711  10.392   1.200
35467W        W 6067  37.403  34.894   0.294
35468W        W 6068  17.468  26.618   3.157
35469W        W 6069   8.730  42.506   1.249
35470W        W 6070  44.446  29.888  13.425
35471W        W 6071  30.698   2.845  14.335
35472W        W 6072  12.683  34.122   4.448
35473W        W 6073  42.986   2.946   0.921
35474W        W 6074  28.459  43.079  14.405
35475W        W 6075  34.178  27.432   4.484
35476W        W 6076   6.106  40.115  10.129
35477W        W 6077  44.062  21.015  12.021
35478W        W 6078  12.810  36.041   2.603
35479W        W 6079  19.766  43.521  12.088
35480W        W 6080  40.643  24.668  14.545
35481W        W 6081  32.298  22.743  12.052
35482W        W 6082  29.111  23.718   3.513
35483W        W 6083  36.497  33.408  14.895
35484W        W 6084  24.076   2.353  11.183
35485W        W 6085  37.458  27.284  12.695
35486W        W 6086  29.548  15.616   4.816
35487W        W 6087  40.805  40.603   3.295
35488W        W 6088  18.833  24.378   2.642
35489W        W 6089   8.209  23.422  10.692
35490W        W 6090   6.258  12.020   0.023
35491W        W 6091  12.321  22.501   0.830
35492W        W 6092   0.186  12.191  11.671
35493W        W 6093  20.585  23.742   3.999
35494W        W 6094  13.077   0.583   0.557
35495W        W 6095  11.368   4.812   9.880
35496W        W 6096  12.818  13.104  10.617
35497W        W 6097  41.959  20.900  14.352
35498W        W 6098  40.438  22.858  14.735
35499W        W 6099  12.372   0.071   3.152
35500W        W 6100   3.744  41.346  14.871
35501W        W 6101  38.066  24.095  12.857
35502W        W 6102  38.455  43.374  14.321
35503W        W 6103  35.366   9.855  12.497
35504W        W 6104  16.334  44.457   2.871
35505W        W 6105   2.699   1.197   2.799
35506W        W 6106  44.610  17.009   4.063
35507W        W 6107  21.445  35.621  13.480
35508W        W 6108  21.117  16.773   3.122
35509W        W 6109  38.105  19.179   2.374
35510W        W 6110  22.278  43.143   9.820
35511W        W 6111   3.471  32.079   4.368
35512W        W 6112   7.740   2.432   0.215
35513W        W 6113   3.942  10.416   1.366
35514W        W 6114   2.416  31.551   1.628
35515W        W 6115  24.859  40.596   4.880
35516W        W 6116  30.012   4.748   2.923
35517W        W 6117  42.909  26.734   3.236
35518W        W 6118  21.169   7.869  14.895
35519W        W 6119   7.200  34.372  12.618
35520W        W 6120  36.934  41.287   1.483
35521W        W 6121  37.245  28.718  14.006
35522W        W 6122  14.524  39.509   1.336
35523W        W 6123   1.511  17.214  11.639
35524W        W 6124  43.058  38.044  13.850
35525W        W 6125  14.363   6.862   0.467
35526W        W 6126  25.010   4.898   2.651
35527W        W 6127  20.216  25.125   1.902
35528W        W 6128  35.972  25.589   2.625
35529W        W 6129  10.927  21.336  12.917
35530W        W 6130  18.255  26.307  11.045
35531W        W 6131  24.943  32.985  13.639
35532W        W 6132  44.452  19.999  14.614
35533W        W 6133  39.911  14.067  14.524
35534W        W 6134   4.790  23.955  14.531
35535W        W 6135  40.640   1.677  11.085
35536W        W 6136  14.031  36.131  10.809
35537W        W 6137  13.160  27.401   4.907
35538W        W 6138  40.586  29.208  11.863
35539W        W 6139  32.598  42.361   3.823
35540W        W 6140  14.774   4.132  11.037
35541W        W 6141  26.178  12.313   2.270
35542W        W 6142  32.953   0.196  13.894
35543W        W 6143  22.926  10.436   0.889
35544W        W 6144  33.498  41.570   3.926
35545W        W 6145  28.171  39.890   0.044
35546W        W 6146   0.910  15.021   4.071
35547W        W 6147  43.678  10.184  13.261
35548W        W 6148  17.550  15.008  13.399
35549W        W 6149  34.849  32.528   2.967
35550W        W 6150  18.623  30.445  10.326
35551W        W 6151  22.991  25.173  14.972
35552W        W 6152  26.374  36.337  12.244
35553W        W 6153  41.336   9.761  14.969
35554W        W 6154  16.301  23.651   2.676
35555W        W 6155  28.410  25.027   4.418
35556W        W 6156   2.864   6.928   1.501
35557W        W 6157  24.221  31.980  14.059
35558W        W 6158  16.075   3.244   0.937
35559W        W 6159   5.100  23.124   1.767
35560W        W 6160  30.338  24.240   3.568
35561W        W 6161  32.034  20.448   2.212
35562W        W 6162   0.950  37.244  14.866
35563W        W 6163  42.106  33.376   4.858
35564W        W 6164   2.336  27.458   1.810
35565W        W 6165  44.278  15.638   4.528
35566W        W 6166  37.888  31.077  14.942
35567W        W 6167   4.338  39.455   3.276
35568W        W 6168   7.171  17.625  10.627
35569W        W 6169  30.762  27.805   9.871
35570W        W 6170  30.444  27.207   2.191
35571W        W 6171  19.600  26.730   0.380
35572W        W 6172  25.018  24.680   0.423
35573W        W 6173  13.220   2.004   4.695
35574W        W 6174   0.380  11.788   2.698
35575W        W 6175  38.749  12.680  14.773
35576W        W 6176  42.672  14.097  13.596
35577W        W 6177  18.839   9.498   3.232
35578W        W 6178   5.392  36.113   3.323
35579W        W 6179   2.244  11.194   4.283
35580W        W 6180  26.927   6.965  14.458
35581W        W 6181  24.419  26.111  11.356
35582W        W 6182  29.168  16.892   3.595
35583W        W 6183  42.291   7.901   0.410
35584W        W 6184  17.842  14.208   1.888
35585W        W 6185  34.553  40.277  13.515
35586W        W 6186  10.898  36.446   4.122
35587W        W 6187  21.007  11.965   5.029
35588W        W 6188  33.076  12.071  12.399
35589W        W 6189  19.241  22.241   1.892
35590W        W 6190  25.942   0.447  11.958
35591W        W 6191  36.273  44.090  13.854
35592W        W 6192  16.135   8.672  14.623
35593W        W 6193  28.179   6.356   2.808
35594W        W 6194  14.311  34.548   3.181
35595W        W 6195  38.505  36.330   4.297
35596W        W 6196   4.228  21.175  10.690
35597W        W 6197  40.972  39.528   1.162
35598W        W 6198   9.806  10.601   4.132
35599W        W 6199   8.885  39.578   0.503
35600W        W 6200  36.531  35.090   1.603
35601W        W 6201  13.147   1.826  11.623
35602W        W 6202   1.029   7.363  13.531
35603W        W 6203  43.845  37.078   2.896
35604W        W 6204  38.729  32.172  13.901
35605W        W 6205  12.614  41.472   0.958
35606W        W 6206  37.362  30.166  14.861
35607W        W 6207   8.132  43.239  10.772
35608W        W 6208  36.536  40.476  12.957
35609W        W 6209   2.290  22.256  13.817
35610W        W 6210  27.636  33.910   0.517
35611W        W 6211   9.336   7.855  10.570
35612W        W 6212   5.488  19.070   3.347
35613W        W 6213  30.491   9.939  12.805
35614W        W 6214  17.494  17.067   1.794
35615W        W 6215  22.258  27.044   0.019
35616W        W 6216  10.712  38.174   2.955
35617W        W 6217  30.585  37.500  11.519
35618W        W 6218  14.344  27.925  10.682
35619W        W 6219   5.204  34.740  11.635
35620W        W 6220  20.695  30.632   1.649
35621W        W 6221  37.441  28.746  12.634
35622W        W 6222   7.841  30.302  11.855
35623W        W 6223  24.018  13.591  10.519
35624W        W 6224  20.239  16.809  11.616
35625W        W 6225   9.353   8.141   4.460
35626W        W 6226  28.867  22.754  12.140
35627W        W 6227   3.307  22.763  14.053
35628W        W 6228  41.917  19.153  14.285
35629W        W 6229  29.845  44.804  11.112
35630W        W 6230  21.449  19.805   3.691
35631W        W 6231  17.141   1.036  14.851
35632W        W 6232  41.929  21.152   1.887
35633W        W 6233  16.645   5.677   1.635
35634W        W 6234   7.167  17.129   3.539
35635W        W 6235  12.629  26.134  11.192
35636W        W 6236  40.527  19.800  12.882
35637W        W 6237  14.789  36.607   2.193
35638W        W 6238  37.306  36.096   3.170
35639W        W 6239  39.798  30.551  14.216
35640W        W 6240  24.733  32.819   4.651
35641W        W 6241  36.734  44.871   3.076
35642W        W 6242  27.166  32.224  11.042
35643W        W 6243  29.698  18.039  14.741
35644W        W 6244  33.436   1.955  11.512
35645W        W 6245   8.099  39.083  10.289
35646W        W 6246  38.375  26.565   1.225
35647W        W 6247  16.020  19.556  13.967
35648W        W 6248  40.500  44.891  14.579
35649W        W 6249  31.581   9.393  12.147
35650W        W 6250  14.903  12.067   5.082
35651W        W 6251  16.189  17.604   2.239
35652W        W 6252  17.996  43.500  13.658
35653W        W 6253   4.917  28.126  12.751
35654W        W 6254  37.624  35.401  10.771
35655W        W 6255  36.502  35.140   3.759
35656W        W 6256  16.252  33.272  11.881
35657W        W 6257   1.656  30.434  13.441
35658W        W 6258  30.402  19.487  11.589
35659W        W 6259  28.207   1.058   0.479
35660W        W 6260  30.490  18.132   1.414
35661W        W 6261   0.803   3.332   4.071
35662W        W 6262  35.590  23.861   4.450
35663W        W 6263   1.415  38.566   3.768
35664W        W 6264  36.009   5.393   0.802
35665W        W 6265   5.427  42.521  13.395
35666W        W 6266  31.605  24.532   2.368
35667W        W 6267  39.580  15.029   1.751
35668W        W 6268  42.749  22.430   3.687
35669W        W 6269   0.571  41.470   1.705
35670W        W 6270   6.052  10.479  12.209
35671W        W 6271   9.369  29.985  11.782
35672W        W 6272  41.898  36.903  14.094
35673W        W 6273   6.732  19.681   1.883
35674W        W 6274  12.505  34.460   1.751
35675W        W 6275   3.814   8.155   1.762
35676W        W 6276  25.689  25.821  14.010
35677W        W 6277  37.318  32.814  14.324
35678W        W 6278  18.168  12.055   4.565
35679W        W 6279   5.342   9.215  12.039
35680W        W 6280  35.053  23.653  13.821
35681W        W 6281  21.921  30.405   4.022
35682W        W 6282  17.222  25.587  13.256
35683W        W 6283  27.653  42.130   5.067
35684W        W 6284  38.211  27.649  13.132
35685W        W 6285  32.946  17.531  13.594
35686W        W 6286  33.747  21.558   0.105
35687W        W 6287  16.167  30.154  13.046
35688W        W 6288  35.797  30.864   0.463
35689W        W 6289  40.821  44.823   0.990
35690W        W 6290  33.664  34.195  12.550
35691W        W 6291  37.987  44.088  12.475
35692W        W 6292   4.174  19.089  12.107
35693W        W 6293  44.678  16.617  11.682
35694W        W 6294  14.797   0.976  12.065
35695W        W 6295  10.238   2.485  14.781
35696W        W 6296   6.625  33.109  14.758
35697W        W 6297  43.316  18.106   4.625
35698W        W 6298  37.703  21.272   4.218
35699W        W 6299  19.480  41.802  14.622
35700W        W 6300  34.297  12.701   0.631
35701W        W 6301  11.255  19.260  11.137
35702W        W 6302  20.538   9.184  14.971
35703W        W 6303  36.679  18.875  12.238
35704W        W 6304   3.154  28.543   0.328
35705W        W 6305  43.383   9.258   1.827
35706W        W 6306  15.751  16.893  11.036
35707W        W 6307   7.776  27.323   4.328
35708W        W 6308  15.542  44.340  14.179
35709W        W 6309  18.258  25.200  13.017
35710W        W 6310  20.342  24.979  13.204
35711W        W 6311   6.043  33.898   1.495
35712W        W 6312  34.163  32.420  12.506
35713W        W 6313  43.468  14.394  12.355
35714W        W 6314   7.886  26.067   4.296
35715W        W 6315  34.055  43.358   0.870
35716W        W 6316  29.088  22.152  14.941
35717W        W 6317  26.463  41.366  10.583
35718W        W 6318  22.867   9.633  14.299
35719W        W 6319  28.020   7.444  12.217
35720W        W 6320   9.677  37.377   1.930
35721W        W 6321   7.739  19.810  13.363
35722W        W 6322  14.835  25.676   3.660
35723W        W 6323  20.145   4.794  10.691
35724W        W 6324  26.043  43.999  12.400
35725W        W 6325  25.171   6.880  14.980
35726W        W 6326  11.119  41.933   4.923
35727W        W 6327   4.931  12.643  14.435
35728W        W 6328  24.050  16.771  10.657
35729W        W 6329  11.225   0.703  13.442
35730W        W 6330  40.279  17.498   2.152
35731W        W 6331  43.746  23.913   2.303
35732W        W 6332  32.328  43.952  11.013
35733W        W 6333  44.997  39.050   0.291
35734W        W 6334  23.656  38.804   0.704
35735W        W 6335  10.697  44.913  12.967
35736W        W 6336  33.660  44.688  13.316
35737W        W 6337  15.875  10.540   5.070
35738W        W 6338  23.182   6.161   1.370
35739W        W 6339  12.543   0.925   4.262
35740W        W 6340  37.637  34.654  10.206
35741W        W 6341   7.011  44.399  11.522
35742W        W 6342  10.857  28.174   4.221
35743W        W 6343   6.744   2.536   0.875
35744W        W 6344  14.685  14.393  12.463
35745W        W 6345   9.678  36.579   4.657
35746W        W 6346   9.557   1.979   3.338
35747W        W 6347   5.553   7.645  11.950
35748W        W 6348  22.703  16.409   3.255
35749W        W 6349   2.939   5.980  11.482
35750W        W 6350  22.045  35.916   0.616
35751W        W 6351  33.314  26.890   4.340
35752W        W 6352  25.454  33.175   2.305
35753W        W 6353  32.395  29.709   2.321
35754W        W 6354  17.706  39.387  14.467
35755W        W 6355  22.407  22.128  13.807
35756W        W 6356  10.712  35.324   2.026
35757W        W 6357  20.066  40.341   3.687
35758W        W 6358  20.594  43.269  13.302
35759W        W 6359  35.365   4.639   0.049
35760W        W 6360   6.165  20.808   1.708
35761W        W 6361  34.362  38.582   1.446
35762W        W 6362  37.900  35.911   0.412
35763W        W 6363  24.050  12.325  13.695
35764W        W 6364  30.753  38.990  11.146
35765W        W 6365  25.504  11.962  12.138
35766W        W 6366  28.164  31.123  11.578
35767W        W 6367  32.168   3.627   2.228
35768W        W 6368  17.444  15.137   1.286
35769W        W 6369  37.257   0.290   0.972
35770W        W 6370  26.954  10.975  11.896
35771W        W 6371  14.381  30.038   0.889
35772W        W 6372  37.468  22.509  12.030
35773W        W 6373   1.862  16.629   2.156
35774W        W 6374  24.986  40.878   2.973
35775W        W 6375  37.776  30.058   0.685
35776W        W 6376  38.471   6.294   1.881
35777W        W 6377  26.168  44.763  14.468
35778W        W 6378  44.517   7.327   2.509
35779W        W 6379  41.125  32.625   0.177
35780W        W 6380  37.821   6.731  10.633
35781W        W 6381  14.289  29.055  14.775
35782W        W 6382  43.772  26.899   2.473
35783W        W 6383  26.420  23.290  13.001
35784W        W 6384  39.652  36.097  14.716
35785W        W 6385  15.523  20.508   0.325
35786W        W 6386  25.686  32.894   2.666
35787W        W 6387  43.869   3.607  11.898
35788W        W 6388  32.837  16.317  14.410
35789W        W 6389  13.892  36.201  14.022
35790W        W 6390  43.838  12.739   1.221
35791W        W 6391   7.702  26.789   2.308
35792W        W 6392  38.267  16.710   4.198
35793W        W 6393   1.851  18.573  10.463
35794W        W 6394   4.188  31.276  11.276
35795W        W 6395  10.756  44.267  10.831
35796W        W 6396  35.505  17.089   3.612
35797W        W 6397  10.786  10.634  13.911
35798W        W 6398   9.937  36.704  12.116
35799W        W 6399  17.249  22.611   5.152
35800W        W 6400  24.009  37.989  12.554
35801W        W 6401  33.027  21.199  10.457
35802W        W 6402  10.677   2.731  12.081
35803W        W 6403  41.065   7.234  14.156
35804W        W 6404   7.792  42.295  12.966
35805W        W 6405  14.737   6.791   1.492
35806W        W 6406  15.698  42.138   3.651
35807W        W 6407  16.323   7.930   2.729
35808W        W 6408  38.431  39.968  14.757
35809W        W 6409  37.085  25.640   4.228
35810W        W 6410  13.876  41.027  12.569
35811W        W 6411  15.696  19.855  12.353
35812W        W 6412  35.359  17.216  13.056
35813W        W 6413  18.551  13.923  10.402
35814W        W 6414  29.524  13.637   4.427
35815W        W 6415  42.841  34.453   1.274
35816W        W 6416  26.432  20.818   3.259
35817W        W 6417  18.090  43.393  13.175
35818W        W 6418  22.047  23.035  13.074
35819W        W 6419  11.309  37.967  11.594
35820W        W 6420  40.294  13.325  12.597
35821W        W 6421  21.688  23.096   3.372
35822W        W 6422  34.509  17.408   4.865
35823W        W 6423  25.997  25.713   3.441
35824W        W 6424  27.193  29.377   2.885
35825W        W 6425  10.660  16.604  14.729
35826W        W 6426  42.345  28.952  12.704
35827W        W 6427  29.567  15.568   1.166
35828W        W 6428  10.198  40.338  13.859
35829W        W 6429  36.872  43.700   4.560
35830W        W 6430   3.794  35.157  12.002
35831W        W 6431  44.976  30.738  11.106
35832W        W 6432   1.932  37.943  11.838
35833W        W 6433  42.387   8.257   3.135
35834W        W 6434  43.107   9.679  13.548
35835W        W 6435   6.533  15.431  13.294
35836W        W 6436   0.686  36.006   0.480
35837W        W 6437  12.803  31.467  13.633
35838W        W 6438   7.831  33.751  13.888
35839W        W 6439  15.051  40.063  12.523
35840W        W 6440  43.542   2.388   1.834
35841W        W 6441   1.208  13.620  12.054
35842W        W 6442   3.645  29.942   0.021
35843W        W 6443  12.205   2.723   0.457
35844W        W 6444  24.671  20.127  12.412
35845W        W 6445  44.394  29.216   0.554
35846W        W 6446   0.045  44.316   0.742
35847W        W 6447  32.395  33.934   0.361
35848W        W 6448  44.842  33.042  11.064
35849W        W 6449  18.379  11.294  13.950
35850W        W 6450   3.710   4.648   4.310
35851W        W 6451  16.316  16.986  14.738
35852W        W 6452  13.969  30.567   4.402
35853W        W 6453  43.107  10.674  12.199
35854W        W 6454  37.548  28.293   2.125
35855W        W 6455   8.507  13.237  12.567
35856W        W 6456   9.176   7.419   2.743
35857W        W 6457  31.796  23.541   4.319
35858W        W 6458   2.897  15.665  11.693
35859W        W 6459  29.955   8.934  10.742
35860W        W 6460  44.396  18.125  14.922
35861W        W 6461   3.904   5.193  13.072
35862W        W 6462   3.426  20.358   2.735
35863W        W 6463  11.082  28.560  10.695
35864W        W 6464  41.454   3.764   1.415
35865W        W 6465  44.468  42.444  13.517
35866W        W 6466   2.851   3.733   3.668
35867W        W 6467  15.024  43.547   3.483
35868W        W 6468  18.591  26.835   4.535
35869W        W 6469   3.412  33.946   1.913
35870W        W 6470  42.434  42.666  14.526
35871W        W 6471  35.043  12.406   0.868
35872W        W 6472  14.502  10.434   4.083
35873W        W 6473  34.796  37.028   2.146
35874W        W 6474   7.675  34.004  14.379
35875W        W 6475  23.731  17.822  12.537
35876W        W 6476  29.940  41.591   4.548
35877W        W 6477  15.581  11.663   0.002
35878W        W 6478  16.745   2.370   4.179
35879W        W 6479  19.394  10.216   3.072
35880W        W 6480  21.292  31.913   4.274
35881W        W 6481  19.077  17.044   4.130
35882W        W 6482  18.112  24.243  11.511
35883W        W 6483  44.820  36.111   1.582
35884W        W 6484  39.105  35.379  11.076
35885W        W 6485  37.627  11.822  11.598
35886W        W 6486  31.017  36.878   4.460
35887W        W 6487  40.093   9.230  13.073
35888W        W 6488   1.045  34.602  11.551
35889W        W 6489  35.489  19.756   3.298
35890W        W 6490  19.203  12.439   1.832
35891W        W 6491  36.842  16.715   1.517
35892W        W 6492  43.381  25.433   3.160
35893W        W 6493  12.384   1.693  12.086
35894W        W 6494  37.438  25.009   3.770
35895W        W 6495  35.060  21.006   0.420
35896W        W 6496  23.496  20.483  14.767
35897W        W 6497   9.452  21.713  12.050
35898W        W 6498  34.824  23.889   1.296
35899W        W 6499  41.512  15.521  12.178
35900W        W 6500  29.540   8.213   0.312
35901W        W 6501  23.523  19.683  12.845
35902W        W 6502  29.680  34.189   1.846
35903W        W 6503  35.571   1.889  13.483
35904W        W 6504   7.302  37.258   0.901
35905W        W 6505  38.562  27.566  14.036
35906W        W 6506  41.967  32.659  12.542
35907W        W 6507   2.756  43.979   4.671
35908W        W 6508   7.544   4.956   0.181
35909W        W 6509  27.499  43.793  11.540
35910W        W 6510  18.488   4.485   2.852
35911W        W 6511  39.907   4.696   1.376
35912W        W 6512  20.097  13.482  12.561
35913W        W 6513  19.319  23.373  13.385
35914W        W 6514  41.076   8.410   0.776
35915W        W 6515  24.471   2.425   0.799
35916W        W 6516  11.068  38.299   4.467
35917W        W 6517  35.983  28.655   1.199
35918W        W 6518  23.957  31.830  14.487
35919W        W 6519   4.398  40.866   1.856
35920W        W 6520   7.260  36.068   4.562
35921W        W 6521  15.887  42.122  13.341
35922W        W 6522  25.286  43.734   2.217
35923W        W 6523  29.210  24.125  13.975
35924W        W 6524  12.278   0.018   2.252
35925W        W 6525  18.308   9.490   0.381
35926W        W 6526  43.885  22.591  11.145
35927W        W 6527  11.355  44.060   0.473
35928W        W 6528   2.696   1.701  14.390
35929W        W 6529  26.681  40.009   4.124
35930W        W 6530  14.777  21.084  10.869
35931W        W 6531  33.210  42.814  12.567
35932W        W 6532  17.575  36.371  14.890
35933W        W 6533  41.322  42.937  13.902
35934W        W 6534  22.387   6.817  13.938
35935W        W 6535  38.517  43.532   0.914
35936W        W 6536   9.091  39.342  11.316
35937W        W 6537  28.254  30.369   1.645
35938W        W 6538  41.276  20.783   5.482
35939W        W 6539   1.973  17.302  13.588
35940W        W 6540  34.564  31.113  14.427
35941W        W 6541  19.231  28.121   0.449
35942W        W 6542  26.760   7.590  11.367
35943W        W 6543  13.558  24.240  14.795
35944W        W 6544   8.508  30.159  11.990
35945W        W 6545  37.489   2.455  10.487
35946W        W 6546   1.699  35.015  13.950
35947W        W 6547   3.193   1.066  11.733
35948W        W 6548  20.271  41.388  13.438
35949W        W 6549  43.420   1.030  11.149
35950W        W 6550   2.459  22.772  11.654
35951W        W 6551   9.861  32.655  13.950
35952W        W 6552  42.702   4.359   1.728
35953W        W 6553  12.165  22.470  11.076
35954W        W 6554   8.724   7.704   0.621
35955W        W 6555  13.086  26.390  11.149
35956W        W 6556   0.054  43.836   1.074
35957W        W 6557  15.303   9.202   3.226
35958W        W 6558  10.335   2.110  11.683
35959W        W 6559  25.428   8.859  12.767
35960W        W 6560   3.155   6.352  13.106
35961W        W 6561  13.337  18.268   4.168
35962W        W 6562  23.007  22.190  11.239
35963W        W 6563  32.592  16.665   4.619
35964W        W 6564  10.709  15.058  14.830
35965W        W 6565  24.670  14.180  10.988
35966W        W 6566  16.758  33.035   2.862
35967W        W 6567  25.507   7.729   1.791
35968W        W 6568  38.385  38.529   0.764
35969W        W 6569   0.211   0.595  12.421
35970W        W 6570  18.552  13.505   3.137
35971W        W 6571  19.467   7.545  12.945
35972W        W 6572  43.990   0.025  10.684
35973W        W 6573  41.533  35.757   1.173
35974W        W 6574  27.099  26.428   4.248
35975W        W 6575  19.311  38.333   2.850
35976W        W 6576  14.480  33.553   1.821
35977W        W 6577  35.011  32.158   4.781
35978W        W 6578  23.082  35.824  11.235
35979W        W 6579  29.614  42.911   2.985
35980W        W 6580  31.955  40.753   2.553
35981W        W 6581  13.540  27.493  10.934
35982W        W 6582  34.919  19.078  11.040
35983W        W 6583  38.354  12.226   0.099
35984W        W 6584   2.605   4.299   0.207
35985W        W 6585  12.625  36.385  13.422
35986W        W 6586  35.974  14.785   3.762
35987W        W 6587  29.848  29.383  10.828
35988W        W 6588  43.015  27.582   2.718
35989W        W 6589  10.705   6.919  14.488
35990W        W 6590   5.318  38.969  12.906
35991W        W 6591   6.887  35.305   4.624
35992W        W 6592  12.121  37.504  14.427
35993W        W 6593  24.131  13.891  12.063
35994W        W 6594  12.456  41.254   2.381
35995W        W 6595   4.934  27.747   4.110
35996W        W 6596  22.216   1.603  12.138
35997W        W 6597  41.305  25.743  11.508
35998W        W 6598  43.123   7.233   2.740
35999W        W 6599  17.605   7.874   1.722
36000W        W 6600   3.308   5.517  14.371
36001W        W 6601  42.282  29.988   2.723
36002W        W 6602  12.724  13.713  14.025
36003W        W 6603   2.744  27.822  11.719
36004W        W 6604  24.529  21.557   0.950
36005W        W 6605   0.381  35.616  12.567
36006W        W 6606  36.060  32.453   1.272
36007W        W 6607  33.748   5.343  13.459
36008W        W 6608  17.347  10.582   0.721
36009W        W 6609  28.084   9.879   3.151
36010W        W 6610  17.926   7.106   1.852
36011W        W 6611  35.486  38.652   2.350
36012W        W 6612  10.667  39.320   0.022
36013W        W 6613  42.743  14.796  13.395
36014W        W 6614  20.204  38.558   0.409
36015W        W 6615   5.644  17.637   3.052
36016W        W 6616  40.612  31.617   2.237
36017W        W 6617  28.619  29.640   2.754
36018W        W 6618   9.683  16.010   3.756
36019W        W 6619  39.818   0.731   0.821
36020W        W 6620  26.893   7.609   1.255
36021W        W 6621   1.284   5.679  14.842
36022W        W 6622  41.887  39.262  10.682
36023W        W 6623  20.799  32.882  11.184
36024W        W 6624  11.619  14.236   4.514
36025W        W 6625  23.470  26.715  13.944
36026W        W 6626  40.522  24.945  12.548
36027W        W 6627  39.867   1.260  14.008
36028W        W 6628  19.230  33.347   2.351
36029W        W 6629  26.600   8.339  12.066
36030W        W 6630  40.874  38.329  14.908
36031W        W 6631  38.552  20.313  14.501
36032W        W 6632  32.725  25.509   4.062
36033W        W 6633  36.897  32.947   0.594
36034W        W 6634   3.499  22.702  12.893
36035W        W 6635   5.714   6.651  14.592
36036W        W 6636  31.085  11.567   2.698
36037W        W 6637  25.032  20.406  13.829
36038W        W 6638  30.215   2.570   3.178
36039W        W 6639  26.574  13.317   1.165
36040W        W 6640  24.034  31.517  13.832
36041W        W 6641   4.243  17.771  12.179
36042W        W 6642  37.914   5.319  12.142
36043W        W 6643  20.230  39.985   1.402
36044W        W 6644  44.739  19.334  11.150
36045W        W 6645  41.048  43.588  14.684
36046W        W 6646   4.151  25.509  14.651
36047W        W 6647  10.108   0.880   4.162
36048W        W 6648  10.966  25.141  13.826
36049W        W 6649  19.266  20.758   1.898
36050W        W 6650  21.089  29.462  13.812
36051W        W 6651  23.446  22.196   0.956
36052W        W 6652  30.743  11.806   4.441
36053W        W 6653  33.282  24.565   4.063
36054W        W 6654  33.631   6.287   2.766
36055W        W 6655  29.842  20.235   2.708
36056W        W 6656   6.531  11.866  11.691
36057W        W 6657  40.081  36.090  11.889
36058W        W 6658  33.352  19.809   3.090
36059W        W 6659   5.342  36.964  14.955
36060W        W 6660  13.324  42.524   1.266
36061W        W 6661   4.993  15.431   2.907
36062W        W 6662  27.647   8.859  10.635
36063W        W 6663   0.035  32.584  14.327
36064W        W 6664  41.031   8.151   0.307
36065W        W 6665   5.179  12.309   0.828
36066W        W 6666  37.854  31.978   2.341
36067W        W 6667  27.176  39.237  14.245
36068W        W 6668   8.745  13.319  11.145
36069W        W 6669   9.150   9.643   4.087
36070W        W 6670  37.345  37.351   2.125
36071W        W 6671   2.177  36.573   1.857
36072W        W 6672  13.907  35.108  11.121
36073W        W 6673  41.158  40.794  11.730
36074W        W 6674  35.682  25.533   0.940
36075W        W 6675  14.584  21.497  12.077
36076W        W 6676   5.291  31.037  11.923
36077W        W 6677   6.048  16.297  11.955
36078W        W 6678  43.520   8.217  10.416
36079W        W 6679  38.724   4.010   3.811
36080W        W 6680  40.638   7.258  12.870
36081W        W 6681  10.108   7.361  14.480
36082W        W 6682   3.220  24.201   0.887
36083W        W 6683  43.970  37.391  14.859
36084W        W 6684  10.453  34.110   4.523
36085W        W 6685   0.951   6.320   2.307
36086W        W 6686   1.179  32.985   3.560
36087W        W 6687   0.241  19.622   2.651
36088W        W 6688  11.587   8.731  12.041
36089W        W 6689  30.048  39.297   3.133
36090W        W 6690  19.651  42.032   3.142
36091W        W 6691  28.133  28.442   1.701
36092W        W 6692  27.416   6.590   0.350
36093W        W 6693   7.082  16.746  12.469
36094W        W 6694  42.574  39.387   3.165
36095W        W 6695  28.086  19.344   4.108
36096W        W 6696   2.179  40.745  11.946
36097W        W 6697   3.750  32.548   5.301
36098W        W 6698  14.010  41.927   2.552
36099W        W 6699   5.138  12.824   4.231
36100W        W 6700  34.919   4.133   1.281
36101W        W 6701   6.149  31.021  13.901
36102W        W 6702  14.362  40.408   2.750
36103W        W 6703  22.519  23.494   0.829
36104W        W 6704  44.830  24.062   2.849
36105W        W 6705   5.697  36.524   2.475
36106W        W 6706  27.743  16.756  12.922
36107W        W 6707   0.697  15.089   3.187
36108W        W 6708  40.139  28.512   3.853
36109W        W 6709  33.153  20.057  11.675
36110W        W 6710  42.726  35.104  10.687
36111W        W 6711  17.318  40.376  11.095
36112W        W 6712  33.131   6.327   2.882
36113W        W 6713  22.518  31.055   1.695
36114W        W 6714  31.058  17.281  14.514
36115W        W 6715  12.392  41.848   0.697
36116W        W 6716   2.451  16.575   3.721
36117W        W 6717  21.098  40.226   1.339
36118W        W 6718   5.869   3.453   4.845
36119W        W 6719  33.657  14.669   1.779
36120W        W 6720  37.144  42.410   5.135
36121W        W 6721  12.164  43.470  14.007
36122W        W 6722   2.137   0.033  12.545
36123W        W 6723  24.182  19.596   3.068
36124W        W 6724  19.516  30.023   4.626
36125W        W 6725  42.458   5.955   5.674
36126W        W 6726   5.470  15.069   1.147
36127W        W 6727  33.539   7.329  12.380
36128W        W 6728  24.252  36.690   3.259
36129W        W 6729  44.559   5.753   2.907
36130W        W 6730  21.596  41.791  13.391
36131W        W 6731  39.205  10.741   1.444
36132W        W 6732  34.176  16.255  13.404
36133W        W 6733  29.107  25.919  13.507
36134W        W 6734  11.070  30.507   4.561
36135W        W 6735  20.823  36.198  12.610
36136W        W 6736  31.333   3.211  11.518
36137W        W 6737  35.806  41.921   1.712
36138W        W 6738  35.786  29.125   1.922
36139W        W 6739  36.158  25.076   2.804
36140W        W 6740   4.110  33.826   1.544
36141W        W 6741  40.399  29.808   4.282
36142W        W 6742  29.054  32.899   2.807
36143W        W 6743  32.427   1.830  12.814
36144W        W 6744   8.934   6.723  13.814
36145W        W 6745  21.819  34.157   3.214
36146W        W 6746  18.063   0.031   0.742
36147W        W 6747  16.273   8.406   2.419
36148W        W 6748  31.487   8.173  14.235
36149W        W 6749  22.722   6.474  12.473
36150W        W 6750  16.488  43.397   2.371
36151W        W 6751  14.622   1.423   1.879
36152W        W 6752  10.940  12.428  10.410
36153W        W 6753  32.113  37.760  13.172
36154W        W 6754  15.977   6.889  11.876
36155W        W 6755  33.045  29.371   4.005
36156W        W 6756  14.007  13.592   2.923
36157W        W 6757  43.913  38.050  13.900
36158W        W 6758  13.737  24.117   4.556
36159W        W 6759   3.743   2.809  13.516
36160W        W 6760  41.862   5.176   0.876
36161W        W 6761  29.829  11.256  11.029
36162W        W 6762   6.884  21.516   1.485
36163W        W 6763  43.019  41.438  14.489
36164W        W 6764  27.813   4.190  12.905
36165W        W 6765  24.631  36.458  14.834
36166W        W 6766   5.376  26.922  10.695
36167W        W 6767  26.727  33.931  10.531
36168W        W 6768  35.851  15.101   2.946
36169W        W 6769  35.384  42.039   0.775
36170W        W 6770   5.975  31.948   4.170
36171W        W 6771   7.425   1.991   0.462
36172W        W 6772  22.488  13.413  12.485
36173W        W 6773  22.298  22.210   0.487
36174W        W 6774   4.549  13.396  14.280
36175W        W 6775  11.414  29.037  13.917
36176W        W 6776  30.531  10.964  13.770
36177W        W 6777  19.863  10.457  11.889
36178W        W 6778  32.014  30.986  10.897
36179W        W 6779  12.317  34.401   4.154
36180W        W 6780  43.796   6.188   1.751
36181W        W 6781   3.929  15.907  12.917
36182W        W 6782  12.802  35.516  14.021
36183W        W 6783  24.751  30.122   0.742
36184W        W 6784  13.635  31.542   2.312
36185W        W 6785  26.295  17.671   4.200
36186W        W 6786  26.999  35.439   1.419
36187W        W 6787  32.679  32.857  11.205
36188W        W 6788  25.925  12.251  13.531
36189W        W 6789  43.536  34.617  14.072
36190W        W 6790  38.041   3.996   0.283
36191W        W 6791  33.560   6.261  14.574
36192W        W 6792  15.699  35.828   0.980
36193W        W 6793  31.265  13.447   2.891
36194W        W 6794  11.276  16.786   2.261
36195W        W 6795  37.397  17.033  13.115
36196W        W 6796  14.109  40.474   2.290
36197W        W 6797  10.512  43.785   4.552
36198W        W 6798   0.826   0.854  10.730
36199W        W 6799   3.847  33.609   1.991
36200W        W 6800  34.939  31.524   3.384
36201W        W 6801  14.693  30.414  13.074
36202W        W 6802  11.507  33.895  11.191
36203W        W 6803  17.281  22.618   4.629
36204W        W 6804  12.930  42.685   2.413
36205W        W 6805  31.029  14.070  10.662
36206W        W 6806  32.832  37.442   1.847
36207W        W 6807   3.752  14.120  11.800
36208W        W 6808  11.232  19.690  12.097
36209W        W 6809   4.162  30.484  12.150
36210W        W 6810  41.453  27.536   0.000
36211W        W 6811  44.881  20.534   0.005
36212W        W 6812   8.248  16.017   0.502
36213W        W 6813  24.921  40.029  13.375
36214W        W 6814   7.039  27.304  11.572
36215W        W 6815   4.544  33.606   0.350
36216W        W 6816  25.130  37.262  12.427
36217W        W 6817  26.557  17.547   2.825
36218W        W 6818  17.641  40.230   0.468
36219W        W 6819  40.048  11.689  11.571
36220W        W 6820  41.141   6.301   0.288
36221W        W 6821  17.273  16.714  14.581
36222W        W 6822  12.488  20.262   3.256
36223W        W 6823   8.392   8.952  13.534
36224W        W 6824   3.921   5.079  12.084
36225W        W 6825  38.243   0.257   0.991
36226W        W 6826  18.652  16.812  14.973
36227W        W 6827  16.975  19.305  11.668
36228W        W 6828   3.901  41.300   3.572
36229W        W 6829  23.121  41.341   2.834
36230W        W 6830  37.571  29.966   1.652
36231W        W 6831  14.580  40.033  10.304
36232W        W 6832   0.059  10.470  11.160
36233W        W 6833  44.169   2.310  14.276
36234W        W 6834  34.107   7.693   0.141
36235W        W 6835  27.673  24.459   3.348
36236W        W 6836  38.662   4.188   1.370
36237W        W 6837  10.746  34.371  14.778
36238W        W 6838   4.266   5.405  12.786
36239W        W 6839  27.157  43.387  13.914
36240W        W 6840   1.391   5.945   0.264
36241W        W 6841  12.804  17.340   4.831
36242W        W 6842  36.110  12.491   1.769
36243W        W 6843  30.961   2.467  14.641
36244W        W 6844  24.512  29.410   0.745
36245W        W 6845  35.957  37.185  11.998
36246W        W 6846  43.087   5.160  14.996
36247W        W 6847  31.632   4.438   2.081
36248W        W 6848  30.965  29.694  12.457
36249W        W 6849  18.880  31.535   0.512
36250W        W 6850   9.069  24.632  11.281
36251W        W 6851  31.561  29.025   4.249
36252W        W 6852   2.429  26.376  14.924
36253W        W 6853  18.162  28.666   2.084
36254W        W 6854  18.999  32.104  10.734
36255W        W 6855   3.344  29.385   3.352
36256W        W 6856   4.453  30.100  11.976
36257W        W 6857  24.659  20.314  11.918
36258W        W 6858  25.558  27.961   2.193
36259W        W 6859  24.497   5.449   4.653
36260W        W 6860   5.574  30.602   3.019
36261W        W 6861  15.099  14.520   3.222
36262W        W 6862  12.190  12.991   1.500
36263W        W 6863  41.478  31.423  12.722
36264W        W 6864  40.231  44.838  13.049
36265W        W 6865  32.462  41.163   1.190
36266W        W 6866  12.206  32.458   4.456
36267W        W 6867  31.145   5.999  14.520
36268W        W 6868  44.433  36.852   0.801
36269W        W 6869  44.436   1.361   4.655
36270W        W 6870  35.629  37.697   2.798
36271W        W 6871   3.860  14.393   0.950
36272W        W 6872  31.621  40.436  10.141
36273W        W 6873  13.400  39.900  14.216
36274W        W 6874  15.516  25.178  13.782
36275W        W 6875  20.712   6.918  14.906
36276W        W 6876  14.644  13.606  12.972
36277W        W 6877   0.757   3.731   4.856
36278W        W 6878  42.350  44.823  12.937
36279W        W 6879  25.061  13.788   1.495
36280W        W 6880  30.941  40.057   3.191
36281W        W 6881  33.285  30.342  11.588
36282W        W 6882  19.369  37.434  12.922
36283W        W 6883  19.620  37.867  12.820
36284W        W 6884   2.626  43.565  11.170
36285W        W 6885  12.362   4.253  14.254
36286W        W 6886   4.254  22.026   3.667
36287W        W 6887  15.032  13.356  13.830
36288W        W 6888  39.838  13.892  14.033
36289W        W 6889   0.939  15.636  13.046
36290W        W 6890   9.307  44.462  12.001
36291W        W 6891  23.624  25.045  11.623
36292W        W 6892   6.370  22.987  14.434
36293W        W 6893  15.212  16.932  11.166
36294W        W 6894  25.938  42.876  13.313
36295W        W 6895  40.425  19.743  11.486
36296W        W 6896  21.034  30.108   0.596
36297W        W 6897  39.715  26.046  13.798
36298W        W 6898  16.248  11.736  10.833
36299W        W 6899  15.735  16.144  12.512
36300W        W 6900   3.860  15.842  13.854
36301W        W 6901  21.536  21.169   0.690
36302W        W 6902  15.713  26.565   0.758
36303W        W 6903  29.871  10.212  13.901
36304W        W 6904  34.533  17.945   4.282
36305W        W 6905  37.372  41.999   0.035
36306W        W 6906  16.828  40.380   1.607
36307W        W 6907   3.915  10.783  10.654
36308W        W 6908  43.053  32.702  13.466
36309W        W 6909  26.145  20.216   4.669
36310W        W 6910   1.462  34.052   0.361
36311W        W 6911  10.268  17.203  11.577
36312W        W 6912  34.812  17.495   4.023
36313W        W 6913  43.472  34.369   0.459
36314W        W 6914   7.659   1.479   1.114
36315W        W 6915  31.035   1.054   0.954
36316W        W 6916   6.296   5.596   4.355
36317W        W 6917  36.824  43.304  14.614
36318W        W 6918  28.231  25.569  11.045
36319W        W 6919  13.317  19.936  12.200
36320W        W 6920  24.866  27.509   1.727
36321W        W 6921  30.692   7.170   3.126
36322W        W 6922  16.499   4.915   4.363
36323W        W 6923  25.965  40.254  14.001
36324W        W 6924   8.383  11.120   2.208
36325W        W 6925  16.378  33.593  11.498
36326W        W 6926   4.312  11.723  12.380
36327W        W 6927  10.244  11.349  12.936
36328W        W 6928  35.024   7.536  14.466
36329W        W 6929   5.861   5.401   4.855
36330W        W 6930  16.068   1.640  12.483
36331W        W 6931  28.883  39.743  13.051
36332W        W 6932  19.439   0.809  13.351
36333W        W 6933  23.663  13.591   2.443
36334W        W 6934  36.181  22.068   4.829
36335W        W 6935  21.505  17.285  13.065
36336W        W 6936   7.762  19.207   0.466
36337W        W 6937  19.846  39.647   1.813
36338W        W 6938   8.371  20.807  13.166
36339W        W 6939  17.968   4.843   1.569
36340W        W 6940  34.467   1.417  13.601
36341W        W 6941  36.015   3.900  13.021
36342W        W 6942  42.281  23.220  11.560
36343W        W 6943  25.824   9.199  12.872
36344W        W 6944  14.121  34.414  10.216
36345W        W 6945  38.453  26.385  12.029
36346W        W 6946  21.027  38.039   3.631
36347W        W 6947  33.863   1.241   3.956
36348W        W 6948  41.461  42.018  13.935
36349W        W 6949   3.188  22.493   4.592
36350W        W 6950  37.366  10.937   3.667
36351W        W 6951  19.266  16.280   4.765
36352W        W 6952   1.024  19.633  10.851
36353W        W 6953   1.729  34.169   3.948
36354W        W 6954  31.229  24.626  11.380
36355W        W 6955   4.385  34.658   9.631
36356W        W 6956  35.084  28.681   1.243
36357W        W 6957  19.847   1.396  11.281
36358W        W 6958  44.390  12.396   4.628
36359W        W 6959  11.226  15.013   0.854
36360W        W 6960   2.176  21.604   1.331
36361W        W 6961  43.941  25.911  11.239
36362W        W 6962  11.774  16.241   2.666
36363W        W 6963  18.152  41.439   2.714
36364W        W 6964  12.932  12.084   2.025
36365W        W 6965  19.167  29.085   0.822
36366W        W 6966  20.108  27.588   1.184
36367W        W 6967   1.411  35.666  14.924
36368W        W 6968  27.286  27.542   2.298
36369W        W 6969  34.508   4.819   3.061
36370W        W 6970  16.284  21.672   1.386
36371W        W 6971  15.668  30.674   2.399
36372W        W 6972  37.341  28.442   1.682
36373W        W 6973  30.566  38.002  11.420
36374W        W 6974  33.907  37.606   3.155
36375W        W 6975  29.540  12.220  13.688
36376W        W 6976  16.447  19.349  14.824
36377W        W 6977  31.008   3.669   4.130
36378W        W 6978  10.958  42.349  12.090
36379W        W 6979  17.171   8.561  13.082
36380W        W 6980   6.984   2.152  12.075
36381W        W 6981  36.997  18.688   3.329
36382W        W 6982  44.347  32.497   1.707
36383W        W 6983  24.032  24.769  10.444
36384W        W 6984  17.863  19.659  14.354
36385W        W 6985  11.291  28.547   2.358
36386W        W 6986  16.873  21.494   3.293
36387W        W 6987  17.081  29.744  14.005
36388W        W 6988  41.442  31.480   4.432
36389W        W 6989  39.336   5.867  13.978
36390W        W 6990   3.285  28.053   1.235
36391W        W 6991  28.604  39.321   1.099
36392W        W 6992  16.823  39.490  14.708
36393W        W 6993  32.833  32.313   1.877
36394W        W 6994   5.939  32.707   3.528
36395W        W 6995  20.709   7.127   1.351
36396W        W 6996  29.854  44.036  11.661
36397W        W 6997  24.202  23.003  14.017
36398W        W 6998  33.019  29.071   4.885
36399W        W 6999  15.051  42.943  12.635
36400W        W 7000  36.990  12.558  10.687
36401W        W 7001   9.345   4.256  10.375
36402W        W 7002  41.246  18.667   2.332
36403W        W 7003  16.835  13.681  14.388
36404W        W 7004   6.553  14.741   1.945
36405W        W 7005  20.044  31.836  11.634
36406W        W 7006   5.020  34.407   0.004
36407W        W 7007  44.466  23.837  13.988
36408W        W 7008  24.693  27.838   2.119
36409W        W 7009  42.512   6.929   1.720
36410W        W 7010  18.628  18.726   1.473
36411W        W 7011  26.201  12.988  11.085
36412W        W 7012   7.210  27.951  13.065
36413W        W 7013  44.374  30.850  10.215
36414W        W 7014  20.764   5.263   4.506
36415W        W 7015   7.545  20.500   0.185
36416W        W 7016   5.795  32.518  11.582
36417W        W 7017  13.417   0.398   4.482
36418W        W 7018  29.989  39.044  11.992
36419W        W 7019  10.832  24.786   1.079
36420W        W 7020  31.342  41.814  13.971
36421W        W 7021   6.374   6.738   4.491
36422W        W 7022  37.826  42.817  12.112
36423W        W 7023  23.090  16.663  12.597
36424W        W 7024  21.826   7.936  13.217
36425W        W 7025   6.075  28.011   3.053
36426W        W 7026  37.824  35.125   0.062
36427W        W 7027  16.285  22.661  10.144
36428W        W 7028  21.734  44.596   3.678
36429W        W 7029  37.932  32.535  13.461
36430W        W 7030   2.921   1.935  14.892
36431W        W 7031   6.018  31.718   0.317
36432W        W 7032  22.107   7.110  11.625
36433W        W 7033  23.791   6.746   2.832
36434W        W 7034   4.684   4.564  10.878
36435W        W 7035  35.454  44.019   1.162
36436W        W 7036  19.523  20.910   2.328
36437W        W 7037  24.604   4.315   1.464
36438W        W 7038  36.133   5.186  14.638
36439W        W 7039  28.057  24.169   1.346
36440W        W 7040  43.442  20.382  13.749
36441W        W 7041  28.680  24.656  10.817
36442W        W 7042   1.247  17.759  14.360
36443W        W 7043  11.193  29.516  11.103
36444W        W 7044  31.509   4.111   0.832
36445W        W 7045  23.765  15.637   2.198
36446W        W 7046  31.514   7.414   2.307
36447W        W 7047  27.197   4.399   0.794
36448W        W 7048  35.533   7.013  11.282
36449W        W 7049  26.321  13.583   0.769
36450W        W 7050  17.262  38.369  13.779
36451W        W 7051  22.285  35.046   4.497
36452W        W 7052  12.684  41.334   1.912
36453W        W 7053   0.528  29.644  12.796
36454W        W 7054   5.708  17.719  12.135
36455W        W 7055  42.772   8.246  14.210
36456W        W 7056  16.694  23.524  14.271
36457W        W 7057  38.792  26.912   0.370
36458W        W 7058  23.242  29.377  10.695
36459W        W 7059   8.712  28.177  10.691
36460W        W 7060  28.491  38.084   3.887
36461W        W 7061  20.060  42.901   4.068
36462W        W 7062  28.949  19.174   0.663
36463W        W 7063  15.317   6.739   1.940
36464W        W 7064  35.840  33.597  12.848
36465W        W 7065  22.978  44.000  13.343
36466W        W 7066   4.571  38.693  10.999
36467W        W 7067  21.974   3.042   2.286
36468W        W 7068   8.681  15.614   2.214
36469W        W 7069  16.460   3.189   3.812
36470W        W 7070  20.330  34.070   2.216
36471W        W 7071   5.872  18.524  11.711
36472W        W 7072  19.806   4.601  13.035
36473W        W 7073  30.912  22.301   1.143
36474W        W 7074  21.141  13.625   4.992
36475W        W 7075  25.927  34.330  11.070
36476W        W 7076  41.760   8.105  11.134
36477W        W 7077   2.311  32.647  12.656
36478W        W 7078   1.868  17.948   4.654
36479W        W 7079  38.513  37.811  12.712
36480W        W 7080  11.595  21.089  12.673
36481W        W 7081  25.887  43.918  13.969
36482W        W 7082  44.593  13.011  10.181
36483W        W 7083  16.862  39.318  13.493
36484W        W 7084  23.091  42.791   0.435
36485W        W 7085   1.214  17.316   3.818
36486W        W 7086  23.313  41.098  14.317
36487W        W 7087  13.969  42.465  13.345
36488W        W 7088  25.064   0.366  13.598
36489W        W 7089  17.773  16.076  12.655
36490W        W 7090  39.606  10.163  12.949
36491W        W 7091   2.950   5.789  12.027
36492W        W 7092  14.675  33.727  10.374
36493W        W 7093  27.589   3.301  13.710
36494W        W 7094   5.668  23.942  12.148
36495W        W 7095  15.726   8.600   4.548
36496W        W 7096  16.659  16.077   1.261
36497W        W 7097   8.839  31.014   1.142
36498W        W 7098  21.233  13.577  11.974
36499W        W 7099  15.235  38.021  12.808
36500W        W 7100   1.841  27.971  13.069
36501W        W 7101  33.625  43.905  11.188
36502W        W 7102   3.790  25.700   4.227
36503W        W 7103  41.298   5.950  14.098
36504W        W 7104  42.174  20.801   4.542
36505W        W 7105  29.841  34.529   2.870
36506W        W 7106  36.177  32.307   4.034
36507W        W 7107  24.236  35.743   4.758
36508W        W 7108  12.566  43.727   1.838
36509W        W 7109   1.442  37.590  13.993
36510W        W 7110  43.999  40.456   3.581
36511W        W 7111   4.021  21.221  14.738
36512W        W 7112  19.099  33.960   9.720
36513W        W 7113  17.015   4.959   4.141
36514W        W 7114   2.208  36.850   0.355
36515W        W 7115  12.947  23.534  13.454
36516W        W 7116  29.669  22.256  12.004
36517W        W 7117  27.074  23.572  12.102
36518W        W 7118  12.373  36.089   4.391
36519W        W 7119   3.921  32.565   2.553
36520W        W 7120  14.175  21.264  14.207
36521W        W 7121  28.500   5.282   1.566
36522W        W 7122  20.659  29.159   2.807
36523W        W 7123   3.903   0.483   4.375
36524W        W 7124  33.640  43.551   2.341
36525W        W 7125   9.665  28.798   4.143
36526W        W 7126  14.247  41.936  13.386
36527W        W 7127  43.469  23.065   0.244
36528W        W 7128  37.008  39.022   1.715
36529W        W 7129  16.954   0.881  13.339
36530W        W 7130  24.615   5.077   1.922
36531W        W 7131  44.716  44.242   4.077
36532W        W 7132   5.764  39.782   1.327
36533W        W 7133  15.579   7.490  14.972
36534W        W 7134  15.806  41.448   0.461
36535W        W 7135  23.079   2.500  12.487
36536W        W 7136  31.600  28.640  14.027
36537W        W 7137  15.206  32.193   2.364
36538W        W 7138  32.485  12.787   2.806
36539W        W 7139  17.257  11.932   2.336
36540W        W 7140  44.882  40.301  13.000
36541W        W 7141  15.842  25.726  12.174
36542W        W 7142  43.033  28.527   2.647
36543W        W 7143  18.694  33.403  13.843
36544W        W 7144  10.820  11.652  12.152
36545W        W 7145  39.382  31.671  13.373
36546W        W 7146  35.373  40.826   3.630
36547W        W 7147  25.450  44.986  10.407
36548W        W 7148  12.918  29.126   2.676
36549W        W 7149  29.445   0.490   0.289
36550W        W 7150  17.267  18.592  14.026
36551W        W 7151  28.998  26.127  14.857
36552W        W 7152  13.119   0.156   3.625
36553W        W 7153  26.389  22.016   3.649
36554W        W 7154  18.484  39.087   4.970
36555W        W 7155  28.232  38.846  14.248
36556W        W 7156  11.306  35.030  13.828
36557W        W 7157  32.602   1.073  13.988
36558W        W 7158  13.596  35.895   2.615
36559W        W 7159  10.231  28.924  11.556
36560W        W 7160  25.236  17.759   0.445
36561W        W 7161   6.331  41.428  12.052
36562W        W 7162  40.039  15.731   1.311
36563W        W 7163  43.829  30.515  11.633
36564W        W 7164   8.101  34.909   2.865
36565W        W 7165  13.550  34.390  13.540
36566W        W 7166   1.214  21.222  10.651
36567W        W 7167  29.205   3.287  10.615
36568W        W 7168   0.001  19.045   3.298
36569W        W 7169  18.186  31.909   2.301
36570W        W 7170  40.463  19.919   1.989
36571W        W 7171  41.296  29.371  14.364
36572W        W 7172  42.211  23.470   4.243
36573W        W 7173  18.068  44.387  14.021
36574W        W 7174  43.465  19.500  14.233
36575W        W 7175   5.933  44.963  11.528
36576W        W 7176   9.197  36.092   3.088
36577W        W 7177  26.613  44.834   4.258
36578W        W 7178  13.320  31.976  12.929
36579W        W 7179  43.848  39.834  11.361
36580W        W 7180  22.719  15.205  11.113
36581W        W 7181  21.247  25.437  11.494
36582W        W 7182   8.498  33.529  13.360
36583W        W 7183  30.342   5.324   2.886
36584W        W 7184  29.038  37.483  10.632
36585W        W 7185  30.571  43.008  11.187
36586W        W 7186  29.875  36.469   0.959
36587W        W 7187  30.125  40.264   1.335
36588W        W 7188   8.806  14.148  12.629
36589W        W 7189  14.879  15.280   3.489
36590W        W 7190  20.676  43.161   4.599
36591W        W 7191  27.022   5.385  13.980
36592W        W 7192  37.537   8.087  13.988
36593W        W 7193  34.537   1.454   2.380
36594W        W 7194  38.317   1.298  12.296
36595W        W 7195  40.879  21.975   2.283
36596W        W 7196   2.244  18.854  10.727
36597W        W 7197  36.864  27.060   3.863
36598W        W 7198   7.867  14.771  14.553
36599W        W 7199  17.611   6.137  10.764
36600W        W 7200  43.942  24.670  13.819
36601W        W 7201   4.527  13.653   4.370
36602W        W 7202  14.082  24.221  14.820
36603W        W 7203  37.964  43.812   2.501
36604W        W 7204   9.670  15.133  13.005
36605W        W 7205  42.502  43.847   3.964
36606W        W 7206  24.602  18.538  12.538
36607W        W 7207  31.176  29.994  12.839
36608W        W 7208  39.918  29.154   0.128
36609W        W 7209   8.557   4.785   1.565
36610W        W 7210  18.831  17.701   1.940
36611W        W 7211   6.770  30.657  11.118
36612W        W 7212  34.623   2.989  13.934
36613W        W 7213  11.197  15.108   4.583
36614W        W 7214  43.066   3.456   0.939
36615W        W 7215   0.285  35.102   1.347
36616W        W 7216  14.694  33.176  12.004
36617W        W 7217   2.281  38.518   2.505
36618W        W 7218  44.566   6.589   1.807
36619W        W 7219  18.949   0.444  13.832
36620W        W 7220  29.094  34.617  13.391
36621W        W 7221  32.435  16.767   1.199
36622W        W 7222  29.853  25.871   0.833
36623W        W 7223   1.420  23.246   3.674
36624W        W 7224  36.722  26.294  14.408
36625W        W 7225  43.220  33.994   0.223
36626W        W 7226   0.297  13.401  12.087
36627W        W 7227  33.831   4.480   1.848
36628W        W 7228  34.109  14.167  11.155
36629W        W 7229  10.014  12.647   0.501
36630W        W 7230  21.353  16.917   0.915
36631W        W 7231  10.839  30.028   4.706
36632W        W 7232  34.583  24.716   3.232
36633W        W 7233  29.427  41.024  13.007
36634W        W 7234  42.698  25.933   1.810
36635W        W 7235  36.500  37.845  12.427
36636W        W 7236  11.774  33.009   0.957
36637W        W 7237   5.420  22.981   0.699
36638W        W 7238  44.687  40.966  11.482
36639W        W 7239   1.689  25.148   3.838
36640W        W 7240  19.050  40.555  11.472
36641W        W 7241  39.712   6.491  10.906
36642W        W 7242  34.177  38.288  13.914
36643W        W 7243  41.833   8.382  11.979
36644W        W 7244  18.349   4.880  10.329
36645W        W 7245  31.192  44.941   3.599
36646W        W 7246   0.185   4.396  13.322
36647W        W 7247  40.715  36.059   2.853
36648W        W 7248  27.110  25.672   2.305
36649W        W 7249  40.272  21.090  13.998
36650W        W 7250  28.001  39.180  13.349
36651W        W 7251  24.198  20.076  11.119
36652W        W 7252  26.446  14.268  14.413
36653W        W 7253  40.382  16.284  13.945
36654W        W 7254  15.611  28.589  11.951
36655W        W 7255   8.261  43.486  14.744
36656W        W 7256  38.852  38.640   4.227
36657W        W 7257  30.233   5.762  13.539
36658W        W 7258  24.565  35.597   3.864
36659W        W 7259  21.113  20.019   3.197
36660W        W 7260   1.498  39.619  14.961
36661W        W 7261  33.040  15.385   1.783
36662W        W 7262  30.002  10.198  11.434
36663W        W 7263  18.462  31.950   4.796
36664W        W 7264   2.227  28.472   1.810
36665W        W 7265  32.039  32.024  14.896
36666W        W 7266  15.874   5.776  13.540
36667W        W 7267  17.675   5.937   1.014
36668W        W 7268  35.431   0.966  13.531
36669W        W 7269  31.556  21.702  13.445
36670W        W 7270  35.829   7.496   1.798
36671W        W 7271   7.853   2.893  13.767
36672W        W 7272  23.403  31.107   1.299
36673W        W 7273  36.364  27.672   2.865
36674W        W 7274  15.848   1.313   0.346
36675W        W 7275  41.756  40.396   4.523
36676W        W 7276  15.733  21.938  10.444
36677W        W 7277  25.406  15.678   2.276
36678W        W 7278  14.726  22.479   3.376
36679W        W 7279  43.811  41.294  11.101
36680W        W 7280  10.735  34.507  12.158
36681W        W 7281  37.457  30.200  12.325
36682W        W 7282  30.648  12.057   0.901
36683W        W 7283  17.184  25.966  13.967
36684W        W 7284  12.211  23.232  11.464
36685W        W 7285  42.748  36.252   3.372
36686W        W 7286  24.192  10.134   0.435
36687W        W 7287   3.388  15.312  11.523
36688W        W 7288   9.212  24.529   2.618
36689W        W 7289  36.305  27.590   0.442
36690W        W 7290  23.405  40.482  11.660
36691W        W 7291   1.994  19.835   2.656
36692W        W 7292  27.553  14.384   3.082
36693W        W 7293  25.743  26.787  12.173
36694W        W 7294  30.458  12.427   2.311
36695W        W 7295  19.754  16.347   2.531
36696W        W 7296  34.803  26.116   1.829
36697W        W 7297  11.089  33.010  14.682
36698W        W 7298   2.523   5.511  11.981
36699W        W 7299   8.423   0.722   4.637
36700W        W 7300  11.165  44.456   1.746
36701W        W 7301  18.555  37.036   1.971
36702W        W 7302  18.004  25.062  13.461
36703W        W 7303  24.404   5.980   4.588
36704W        W 7304  39.879   7.952  11.338
36705W        W 7305  12.527  20.944   2.300
36706W        W 7306  41.001  32.610   1.716
36707W        W 7307  12.778  15.509   0.222
36708W        W 7308  22.063  33.588  12.908
36709W        W 7309  41.153   3.826   2.774
36710W        W 7310  33.925   3.978  10.609
36711W        W 7311   5.866  34.318   4.395
36712W        W 7312  20.700   4.898   0.970
36713W        W 7313  20.728  34.538   3.725
36714W        W 7314  26.522   1.193  12.428
36715W        W 7315  23.435  25.407   4.525
36716W        W 7316  21.623   8.046   1.888
36717W        W 7317   8.547  15.535  12.708
36718W        W 7318  15.308   7.270   5.099
36719W        W 7319  27.244   1.913  14.847
36720W        W 7320  13.570  39.241  11.742
36721W        W 7321  38.816   0.341   1.908
36722W        W 7322   2.152   6.179   1.294
36723W        W 7323  27.182  15.853  13.978
36724W        W 7324  12.253   4.249   2.639
36725W        W 7325   6.099  39.151  13.903
36726W        W 7326  33.797  28.630  13.460
36727W        W 7327   5.669  39.322  13.040
36728W        W 7328  38.129  11.792  11.538
36729W        W 7329  15.372   4.948  12.523
36730W        W 7330  30.135  43.082  11.958
36731W        W 7331  37.752  31.046   3.241
36732W        W 7332  37.380  17.119   0.852
36733W        W 7333  13.734   2.955  13.029
36734W        W 7334   3.580  41.857   0.183
36735W        W 7335  19.350  38.837   1.361
36736W        W 7336  38.971  28.414  11.165
36737W        W 7337  39.374  25.278   4.159
36738W        W 7338   0.697  13.824   3.697
36739W        W 7339  28.820   7.443  13.511
36740W        W 7340  12.704  28.188  11.490
36741W        W 7341   7.536  20.227   1.931
36742W        W 7342  13.560  39.217   1.467
36743W        W 7343  29.657  29.956  14.505
36744W        W 7344   7.480  33.530   1.348
36745W        W 7345  28.376  40.882  11.413
36746W        W 7346  40.445   8.227   4.965
36747W        W 7347  38.911   9.741  12.063
36748W        W 7348   4.949  15.171  14.416
36749W        W 7349   6.848   9.342   0.997
36750W        W 7350  43.456   9.818  10.704
36751W        W 7351  17.246  20.619  13.875
36752W        W 7352  24.826  11.363  10.725
36753W        W 7353  41.914  33.134   2.592
36754W        W 7354   3.440  16.578  10.862
36755W        W 7355  26.971   1.785   5.192
36756W        W 7356  10.628   6.753  11.401
36757W        W 7357   1.929  23.180   2.719
36758W        W 7358  32.382  30.756  13.000
36759W        W 7359  14.223   3.157   0.676
36760W        W 7360  41.219  34.626  12.970
36761W        W 7361  12.734  29.556  10.735
36762W        W 7362  12.596  44.000   4.646
36763W        W 7363  19.773  36.938   2.722
36764W        W 7364  44.777  40.299  13.901
36765W        W 7365  24.638  16.824  13.383
36766W        W 7366   5.898  31.641  12.515
36767W        W 7367  26.275   3.630   1.866
36768W        W 7368  38.145  12.637  10.577
36769W        W 7369  39.592  41.203  12.804
36770W        W 7370  37.468  34.638   4.247
36771W        W 7371  18.630  18.345  13.405
36772W        W 7372  21.349  32.971   3.187
36773W        W 7373   8.108  13.354  10.480
36774W        W 7374  14.734  41.053  10.479
36775W        W 7375  41.783  10.294  12.022
36776W        W 7376  17.546  36.903   4.761
36777W        W 7377  27.519   6.412  14.126
36778W        W 7378  20.641  23.699   4.632
36779W        W 7379  29.989   7.356   3.784
36780W        W 7380  44.371  42.654   0.925
36781W        W 7381  27.531  26.791   0.407
36782W        W 7382  44.722  39.844   3.042
36783W        W 7383  12.554  23.136   1.279
36784W        W 7384   5.116   1.415   2.829
36785W        W 7385  21.352  22.531   3.305
36786W        W 7386  24.090   6.857  14.500
36787W        W 7387  25.734  18.185  13.866
36788W        W 7388   7.275  27.049  14.830
36789W        W 7389  20.732  37.152  12.969
36790W        W 7390  22.611  16.671  12.376
36791W        W 7391  13.838   3.617   3.337
36792W        W 7392  29.614  23.455   9.538
36793W        W 7393   7.775  40.487  12.009
36794W        W 7394  15.838   9.791   2.763
36795W        W 7395  11.075   5.523   3.331
36796W        W 7396   2.250   7.342  14.859
36797W        W 7397  29.106   3.180   0.382
36798W        W 7398  28.450  38.407  11.280
36799W        W 7399  25.925  33.548  12.160
36800W        W 7400  24.250   9.365   1.609
36801W        W 7401  39.948  12.985   0.414
36802W        W 7402  32.011  13.858   3.301
36803W        W 7403   2.108  32.655   1.801
36804W        W 7404  32.040  38.629  12.969
36805W        W 7405  13.044   4.995  14.852
36806W        W 7406  13.803   6.608  11.017
36807W        W 7407  36.372  28.125   0.295
36808W        W 7408  39.781  44.382  10.816
36809W        W 7409  30.623  28.586  12.959
36810W        W 7410   9.899  34.552  11.272
36811W        W 7411  15.785  38.354  13.395
36812W        W 7412  33.661   3.727  12.441
36813W        W 7413  19.690   1.907   0.305
36814W        W 7414  38.127   0.821   2.687
36815W        W 7415  37.922  31.051   2.401
36816W        W 7416   3.538  41.406   2.352
36817W        W 7417  25.070  24.099   2.231
36818W        W 7418  38.884   1.257   4.744
36819W        W 7419  16.255   0.896  14.749
36820W        W 7420  17.740   0.892   4.386
36821W        W 7421  43.597   3.195  11.670
36822W        W 7422  35.337  24.065  13.118
36823W        W 7423   5.308   6.750   1.984
36824W        W 7424  13.607   4.792  11.615
36825W        W 7425   5.419  35.538  11.276
36826W        W 7426  37.490   0.501  14.335
36827W        W 7427  10.303  19.130   1.666
36828W        W 7428  36.649  41.131   1.070
36829W        W 7429  30.353  19.620   4.108
36830W        W 7430  17.077  30.230   2.664
36831W        W 7431   1.438   1.306   0.929
36832W        W 7432  33.994   1.907   3.738
36833W        W 7433   7.730  43.746  13.920
36834W        W 7434  15.117  28.622  12.632
36835W        W 7435  27.667  39.049  14.132
36836W        W 7436   0.522  30.878  12.427
36837W        W 7437  23.170  10.650   4.269
36838W        W 7438   3.015  40.081  10.591
36839W        W 7439  17.769  12.508   2.968
36840W        W 7440  40.898  11.533  11.931
36841W        W 7441  16.193  14.819  13.397
36842W        W 7442   9.175  21.456   4.694
36843W        W 7443  19.175  14.604   3.926
36844W        W 7444  27.202  34.464  13.431
36845W        W 7445   9.378  33.357  12.091
36846W        W 7446  28.483  32.685  14.359
36847W        W 7447   4.255  26.777  13.861
36848W        W 7448  13.374  16.389  10.989
36849W        W 7449  15.784  33.372   3.670
36850W        W 7450   5.928  24.205   2.908
36851W        W 7451  26.638  38.244   4.671
36852W        W 7452  11.404   9.014  10.620
36853W        W 7453  29.143  41.505   3.602
36854W        W 7454  40.744  35.375   0.710
36855W        W 7455  33.902   8.959  14.092
36856W        W 7456  28.032  43.945  12.238
36857W        W 7457   5.526  40.887   2.005
36858W        W 7458  43.733  44.009   2.282
36859W        W 7459  38.584  22.574   2.259
36860W        W 7460  38.429  44.506   2.540
36861W        W 7461   6.981   1.445  10.744
36862W        W 7462  20.627   0.433  12.592
36863W        W 7463   2.907  16.394  13.940
36864W        W 7464  36.373   5.486  13.819
36865W        W 7465   8.994  24.080   1.858
36866W        W 7466   4.344  17.049   0.399
36867W        W 7467  43.222   5.292   1.750
36868W        W 7468   3.770   5.625  10.455
36869W        W 7469   4.437  26.148  14.533
36870W        W 7470   3.191  25.495  10.537
36871W        W 7471  38.460  36.465  13.867
36872W        W 7472  10.789  25.165  11.746
36873W        W 7473  39.038  19.374   3.182
36874W        W 7474  44.995  35.937  13.558
36875W        W 7475  25.659  22.258   3.218
36876W        W 7476  30.091  22.232  12.318
36877W        W 7477  19.685  28.026  14.462
36878W        W 7478  22.734   3.831   2.417
36879W        W 7479  16.187  22.270  13.121
36880W        W 7480  11.394  32.616  14.487
36881W        W 7481  30.962   0.587   1.350
36882W        W 7482  14.262  42.455  11.031
36883W        W 7483  30.436  37.939  14.907
36884W        W 7484  38.404  39.351   1.247
36885W        W 7485  39.771  28.955  12.190
36886W        W 7486   9.165  26.246   1.044
36887W        W 7487  29.370  37.391  13.454
36888W        W 7488  23.654  33.789  10.709
36889W        W 7489  10.555   3.892   2.826
36890W        W 7490  22.001  28.383  12.094
36891W        W 7491  28.523  15.185   4.431
36892W        W 7492   5.966  12.614   2.279
36893W        W 7493  23.827  35.968   0.147
36894W        W 7494  12.229  15.347   1.785
36895W        W 7495  23.153   4.780   1.242
36896W        W 7496  27.789  16.743  11.932
36897W        W 7497  35.281  27.531   3.576
36898W        W 7498  36.154   6.124  11.622
36899W        W 7499  12.594  20.687  11.176
36900W        W 7500  25.683  17.177  12.529
36901W        W 7501   2.635  16.225   3.114
36902W        W 7502  26.392  44.331   4.228
36903W        W 7503  40.475  11.197   2.882
36904W        W 7504  12.673   7.275   0.127
36905W        W 7505  13.955  24.629  13.034
36906W        W 7506  13.707  39.875  12.392
36907W        W 7507   1.493  39.181  11.284
36908W        W 7508  36.005  34.969  11.152
36909W        W 7509   6.743  44.217   3.885
36910W        W 7510   7.919  23.097   3.795
36911W        W 7511   2.364  43.479  13.402
36912W        W 7512  15.292   9.107   0.981
36913W        W 7513   1.698  44.819   1.660
36914W        W 7514  23.818  36.192  11.614
36915W        W 7515  17.281  42.852  11.972
36916W        W 7516  10.485  25.079   1.359
36917W        W 7517  26.457  41.458  13.035
36918W        W 7518  26.097  10.805  12.930
36919W        W 7519  17.306  38.605   1.050
36920W        W 7520   1.551  10.913  14.179
36921W        W 7521  38.893  31.068   4.993
36922W        W 7522   2.717  22.928  12.517
36923W        W 7523  13.729  32.476   2.293
36924W        W 7524  27.462  28.715   4.143
36925W        W 7525  11.325  43.756  12.098
36926W        W 7526   6.455  31.432   0.257
36927W        W 7527   4.028  23.636   1.107
36928W        W 7528  23.949  39.407  14.031
36929W        W 7529  33.518  22.464   2.856
36930W        W 7530  31.033  14.390   0.898
36931W        W 7531   8.142  24.283  14.439
36932W        W 7532  40.588   3.528  13.791
36933W        W 7533  31.967  37.658   0.736
36934W        W 7534  44.633  11.335   2.623
36935W        W 7535  37.561  10.377  13.970
36936W        W 7536  41.391  19.432   0.285
36937W        W 7537  19.549  16.328   4.309
36938W        W 7538  16.475  41.519  12.850
36939W        W 7539   8.796  16.215   2.446
36940W        W 7540   5.637  22.137  13.154
36941W        W 7541  41.587  44.710   4.555
36942W        W 7542  44.849  40.330   3.140
36943W        W 7543  34.190   2.780  13.125
36944W        W 7544  20.544   2.885  11.406
36945W        W 7545  32.500   1.104   3.970
36946W        W 7546   3.837  12.184   1.885
36947W        W 7547  15.660  44.358   0.728
36948W        W 7548  23.449  29.423   1.791
36949W        W 7549  32.130  37.346   4.122
36950W        W 7550  34.016  14.638  14.893
36951W        W 7551  38.556   7.324   0.264
36952W        W 7552  15.211  17.587  14.417
36953W        W 7553  23.905  38.470   0.991
36954W        W 7554  42.926  42.971  11.763
36955W        W 7555  31.614  34.677   4.618
36956W        W 7556   9.274  35.912   4.565
36957W        W 7557  27.553  11.482   2.011
36958W        W 7558  19.052  38.659   0.974
36959W        W 7559  33.392   6.366  11.464
36960W        W 7560  32.509  37.344  12.573
36961W        W 7561  38.243  42.921  11.196
36962W        W 7562  17.900   2.785  11.584
36963W        W 7563  23.493  16.826  11.607
36964W        W 7564   0.527   5.216  14.809
36965W        W 7565  42.876  16.788   2.246
36966W        W 7566  40.008  44.678   0.459
36967W        W 7567   0.418   0.978   1.809
36968W        W 7568  12.732  18.316  14.338
36969W        W 7569  44.482  16.256   2.737
36970W        W 7570  29.637   0.006   4.237
36971W        W 7571   3.487  23.247  10.716
36972W        W 7572   4.769  22.995  14.909
36973W        W 7573  28.085  32.709   0.529
36974W        W 7574  38.817  16.662  11.572
36975W        W 7575   4.944  29.520  11.525
36976W        W 7576  23.529  42.036   2.245
36977W        W 7577  36.627  35.310  13.518
36978W        W 7578  26.024  23.696  11.404
36979W        W 7579   4.421  31.193   2.959
36980W        W 7580   3.731  36.444  10.759
36981W        W 7581  25.258  43.656  11.903
36982W        W 7582  41.963   4.433  14.464
36983W        W 7583  40.763  37.854  13.854
36984W        W 7584  16.493  17.015  13.049
36985W        W 7585  27.814  44.316   4.674
36986W        W 7586   1.228  24.425  13.455
36987W        W 7587  34.349   5.177  12.643
36988W        W 7588  39.278  44.657   2.730
36989W        W 7589  33.423  31.581   0.080
36990W        W 7590  40.166  44.312  11.206
36991W        W 7591  38.533   1.944   4.807
36992W        W 7592  36.743   9.776  10.722
36993W        W 7593  13.792  32.531   3.201
36994W        W 7594  37.405  11.005  14.354
36995W        W 7595  27.206  13.297  14.936
36996W        W 7596  14.261   7.394   4.584
36997W        W 7597  19.627  32.116   0.299
36998W        W 7598  20.543  32.165  11.641
36999W        W 7599  42.936  24.254   5.047
37000W        W 7600  42.664  20.598   4.483
37001W        W 7601  12.711  44.806  13.940
37002W        W 7602   0.266   5.545   0.753
37003W        W 7603  24.072  42.441  12.831
37004W        W 7604   7.050   3.709   0.430
37005W        W 7605   0.029  22.087  14.866
37006W        W 7606  15.527  26.610   3.614
37007W        W 7607  12.290  32.629   1.793
37008W        W 7608  17.160  31.850  10.243
37009W        W 7609  34.167  23.868   0.881
37010W        W 7610   4.698  36.447  14.070
37011W        W 7611  30.218  29.093   2.201
37012W        W 7612   7.445  24.543   0.333
37013W        W 7613  17.160  39.833   2.181
37014W        W 7614  25.249  21.282   1.674
37015W        W 7615   1.689  21.792   3.612
37016W        W 7616  37.385   5.035   4.368
37017W        W 7617  22.270  27.581  11.633
37018W        W 7618   9.815  28.376   0.329
37019W        W 7619  16.628   3.520  12.626
37020W        W 7620  12.274  13.008   0.575
37021W        W 7621  18.131  15.538  11.709
37022W        W 7622  22.191  30.615   2.731
37023W        W 7623  19.583  33.611   3.533
37024W        W 7624  41.375  27.397   2.804
37025W        W 7625  20.203  22.651  10.667
37026W        W 7626  27.051  28.574   3.224
37027W        W 7627  37.121  25.180   1.009
37028W        W 7628  21.569  25.818   3.829
37029W        W 7629  33.894   9.688  11.543
37030W        W 7630   2.646  27.941   4.294
37031W        W 7631  42.417  18.190   1.967
37032W        W 7632  35.567  37.969   1.668
37033W        W 7633   7.286  30.079  14.852
37034W        W 7634  19.439  41.401  13.819
37035W        W 7635   3.717  31.002   4.669
37036W        W 7636   5.672  17.057   0.854
37037W        W 7637  32.703   9.219   0.930
37038W        W 7638   0.808  18.551   1.877
37039W        W 7639   4.327  19.026  10.678
37040W        W 7640  13.719  44.090  14.387
37041W        W 7641  16.882  15.342   3.757
37042W        W 7642  20.178  33.660   1.276
37043W        W 7643   7.677   2.929   0.907
37044W        W 7644  38.438  35.137   2.785
37045W        W 7645   8.418  33.993   2.926
37046W        W 7646  41.384   0.780  12.053
37047W        W 7647  11.912  34.516   3.865
37048W        W 7648  34.937  36.615  14.028
37049W        W 7649  10.671   4.936   4.749
37050W        W 7650  19.711  31.488  14.548
37051W        W 7651  10.484  15.551   2.393
37052W        W 7652  27.496  30.884   4.398
37053W        W 7653  39.933  18.029   3.344
37054W        W 7654  22.694   6.741   3.898
37055W        W 7655   8.736  12.447  12.932
37056W        W 7656  25.484  24.034   0.867
37057W        W 7657  36.825  21.553   0.975
37058W        W 7658  28.533  35.781  12.002
37059W        W 7659  20.686  13.689  13.592
37060W        W 7660  27.463  33.421  13.391
37061W        W 7661  31.713  40.523  11.415
37062W        W 7662  17.185  31.371   2.339
37063W        W 7663  20.649  29.517   0.551
37064W        W 7664  21.125  10.429  12.478
37065W        W 7665   1.833   1.099  12.645
37066W        W 7666  27.161  25.624   0.064
37067W        W 7667  43.887   7.834  13.129
37068W        W 7668  16.064  38.411   2.751
37069W        W 7669  35.511  42.932  12.216
37070W        W 7670  32.925  13.701   0.381
37071W        W 7671  28.494  20.212  13.980
37072W        W 7672   4.314  32.880   3.746
37073W        W 7673  18.060  19.211   0.206
37074W        W 7674  39.554   1.926   2.251
37075W        W 7675  25.595  44.739   4.146
37076W        W 7676  24.607  10.589   1.424
37077W        W 7677  28.322  40.359  10.177
37078W        W 7678  38.980  23.471  11.630
37079W        W 7679  19.535  15.727   5.098
37080W        W 7680  28.596  32.310   2.131
37081W        W 7681   6.638  19.220  13.073
37082W        W 7682  30.626   8.283  14.274
37083W        W 7683  44.432   3.471   4.082
37084W        W 7684  36.328  28.239   3.424
37085W        W 7685  18.371  25.480  11.105
37086W        W 7686   4.898  42.553   2.725
37087W        W 7687  31.137   5.366  12.077
37088W        W 7688   4.796  43.728  11.003
37089W        W 7689  42.402  18.865   2.871
37090W        W 7690   2.670  41.139   2.411
37091W        W 7691  29.532  21.076   1.571
37092W        W 7692  34.668   7.744   3.557
37093W        W 7693  25.442   2.381   1.376
37094W        W 7694  25.406   2.185   2.979
37095W        W 7695  12.304  39.266  11.612
37096W        W 7696  29.197   5.209   3.283
37097W        W 7697  22.266  37.676   0.210
37098W        W 7698   8.587  25.091  13.599
37099W        W 7699   9.207  36.288  14.734
37100W        W 7700  43.316  42.986  12.541
37101W        W 7701  31.726  36.961  10.715
37102W        W 7702  14.013  36.218  13.357
37103W        W 7703   7.283  17.069   1.303
37104W        W 7704  12.645  37.785   1.146
37105W        W 7705  30.214  41.493  13.942
37106W        W 7706  34.899   2.915  12.542
37107W        W 7707  11.706  41.277   0.476
37108W        W 7708   9.385   6.418  13.972
37109W        W 7709  35.950  12.583  11.049
37110W        W 7710  38.861  41.022  10.572
37111W        W 7711  35.624   0.792  14.990
37112W        W 7712   9.632   4.384   4.529
37113W        W 7713  37.046  16.618  12.465
37114W        W 7714  16.352   8.188  14.813
37115W        W 7715  31.760  14.786  13.916
37116W        W 7716  22.231  37.158  12.040
37117W        W 7717  37.805  22.327   3.382
37118W        W 7718  28.453  27.415  12.038
37119W        W 7719  21.467  25.953  11.563
37120W        W 7720   8.378  15.622  14.207
37121W        W 7721  40.303  31.161  14.764
37122W        W 7722  38.579  44.821  11.619
37123W        W 7723   4.796  10.474  13.744
37124W        W 7724  43.765   7.351  14.354
37125W        W 7725  28.167  41.050   0.238
37126W        W 7726  26.427  14.382  10.725
37127W        W 7727  12.104  17.647  13.897
37128W        W 7728  22.557  38.923  12.237
37129W        W 7729  29.655  29.333   1.929
37130W        W 7730   4.192  26.630  11.413
37131W        W 7731   9.121  30.724   3.693
37132W        W 7732  27.638  37.609  12.663
37133W        W 7733  36.519   6.698   0.856
37134W        W 7734  21.599  25.194   0.719
37135W        W 7735  26.946  33.480  11.393
37136W        W 7736  21.540  32.021  13.926
37137W        W 7737  17.188   4.829   4.599
37138W        W 7738   3.833  22.814  11.991
37139W        W 7739  21.298   2.966   1.740
37140W        W 7740   8.910   4.354  10.656
37141W        W 7741  33.945  40.877   2.692
37142W        W 7742  31.420  42.886  10.363
37143W        W 7743  34.964  38.304   2.628
37144W        W 7744   7.829  29.466   3.456
37145W        W 7745  24.577  34.521   0.926
37146W        W 7746  38.333  16.096   4.221
37147W        W 7747  11.793  30.386  12.188
37148W        W 7748  29.629  23.405  12.265
37149W        W 7749  24.414   6.255   0.937
37150W        W 7750  27.949   2.252  12.532
37151W        W 7751  23.111  34.357  10.713
37152W        W 7752  23.126  37.150   0.074
37153W        W 7753  16.779  32.926   5.809
37154W        W 7754  39.759   3.265  12.509
37155W        W 7755  22.186  43.767  13.082
37156W        W 7756  22.350  41.300   3.371
37157W        W 7757  15.973   6.134  13.891
37158W        W 7758  31.420   3.044   4.882
37159W        W 7759  40.313   7.256  11.498
37160W        W 7760  11.269  16.328   0.287
37161W        W 7761  11.596   2.769   4.431
37162W        W 7762  36.088   0.775  14.749
37163W        W 7763  14.877  37.435  14.872
37164W        W 7764  31.185  14.145  14.935
37165W        W 7765  23.234  43.401  12.732
37166W        W 7766  27.446  44.459  10.184
37167W        W 7767  33.857  31.043   2.407
37168W        W 7768   6.211  14.555   1.333
37169W        W 7769  12.279  30.448   0.763
37170W        W 7770  15.912  17.056  13.791
37171W        W 7771  14.487  39.849  11.978
37172W        W 7772   7.750  32.454   3.142
37173W        W 7773  44.990  34.471   3.724
37174W        W 7774  16.795  12.681   1.155
37175W        W 7775  13.190  27.978  12.124
37176W        W 7776  32.012   4.562  10.275
37177W        W 7777  10.057  22.566   1.755
37178W        W 7778  33.169   4.706   3.671
37179W        W 7779  12.243  29.912   0.009
37180W        W 7780  28.454  35.594   3.259
37181W        W 7781  19.014  26.396  14.473
37182W        W 7782  12.755  31.513  13.123
37183W        W 7783   7.362  27.019   3.621
37184W        W 7784  38.596  44.204   1.539
37185W        W 7785  10.324   2.905   1.337
37186W        W 7786  39.005   3.834   4.833
37187W        W 7787   2.383  10.891   3.076
37188W        W 7788  25.228  24.841   2.865
37189W        W 7789  33.382   7.912   2.969
37190W        W 7790  39.112  17.060   4.535
37191W        W 7791  12.288  28.242   4.517
37192W        W 7792  36.771  37.974  14.826
37193W        W 7793   9.733  30.088  13.030
37194W        W 7794  25.006  16.291   0.440
37195W        W 7795   4.749  22.724  10.862
37196W        W 7796  32.243  42.724   3.710
37197W        W 7797   1.499  42.847   1.457
37198W        W 7798  21.571   1.603   3.778
37199W        W 7799  27.596  42.099  13.647
37200W        W 7800   6.407  44.302  10.509
37201W        W 7801  37.295  11.588  12.651
37202W        W 7802  39.852   6.904  14.534
37203W        W 7803  25.730  33.082   3.638
37204W        W 7804  15.851  20.629  14.924
37205W        W 7805  19.233  41.499   4.514
37206W        W 7806  23.601  31.606   3.700
37207W        W 7807  25.617  28.153  12.646
37208W        W 7808   1.433  24.903  13.378
37209W        W 7809   5.388  24.765   4.138
37210W        W 7810   7.911  29.586   2.468
37211W        W 7811  15.346  20.683  14.869
37212W        W 7812  22.217  27.275  13.791
37213W        W 7813  32.038  39.447  12.419
37214W        W 7814   2.081  22.733  13.253
37215W        W 7815   4.155  30.032  11.544
37216W        W 7816  44.902  33.490  10.682
37217W        W 7817  42.769   2.851   4.617
37218W        W 7818  34.006   6.827   1.193
37219W        W 7819  33.551  38.551   4.813
37220W        W 7820  27.712  15.089   2.279
37221W        W 7821   1.016  42.645   4.045
37222W        W 7822   8.438  34.423   3.257
37223W        W 7823   5.646  34.978   1.471
37224W        W 7824  29.102  28.991   4.489
37225W        W 7825   9.351  29.509   2.482
37226W        W 7826  30.106  16.714   1.410
37227W        W 7827  32.538  29.358   0.969
37228W        W 7828  19.778   6.661  12.561
37229W        W 7829  43.911  18.842   3.601
37230W        W 7830  40.953  37.265   1.414
37231W        W 7831  12.437  39.726   4.261
37232W        W 7832  40.977  27.025  13.917
37233W        W 7833   0.508  28.697   0.865
37234W        W 7834   4.191  38.977   2.363
37235W        W 7835   7.722  11.735   4.147
37236W        W 7836  19.246  14.310   1.728
37237W        W 7837   9.696  25.996   1.870
37238W        W 7838   4.886  42.659  14.506
37239W        W 7839  39.818   2.916  14.032
37240W        W 7840   3.222  35.532  10.376
37241W        W 7841  26.749   8.148  13.934
37242W        W 7842   3.850  34.642   2.515
37243W        W 7843  12.369   2.662   1.883
37244W        W 7844  10.597  25.755  11.992
37245W        W 7845  37.531  37.107   0.859
37246W        W 7846  42.816  42.352   4.965
37247W        W 7847  17.699  10.915  14.934
37248W        W 7848  35.989  24.962  11.096
37249W        W 7849  41.694  30.048   4.199
37250W        W 7850  42.534  37.998  10.658
37251W        W 7851  31.637   0.968  13.805
37252W        W 7852  38.987  12.745   0.248
37253W        W 7853  36.663  28.669   2.761
37254W        W 7854  21.295  28.469   2.847
37255W        W 7855  40.853  32.531  13.307
37256W        W 7856  19.491  23.065  14.960
37257W        W 7857  11.191  17.761  14.875
37258W        W 7858  10.688  34.432  12.659
37259W        W 7859  25.542  23.234  12.508
37260W        W 7860  30.690   5.654  12.641
37261W        W 7861  42.758  12.105  10.569
37262W        W 7862  29.834  17.137  13.866
37263W        W 7863  20.384  14.644  11.307
37264W        W 7864  40.875  25.992  12.900
37265W        W 7865  20.557  44.070   4.862
37266W        W 7866  27.457  16.777   0.832
37267W        W 7867   1.588  25.358  12.472
37268W        W 7868   1.260  12.366  14.961
37269W        W 7869  31.676  39.899  13.916
37270W        W 7870  23.026   0.546   3.811
37271W        W 7871  33.939  35.055   1.698
37272W        W 7872  14.077  22.604   1.802
37273W        W 7873  19.824   6.121   1.284
37274W        W 7874  13.571  34.945   2.208
37275W        W 7875  19.934  35.535  13.455
37276W        W 7876   3.431  13.189   1.737
37277W        W 7877  24.662   2.039   3.463
37278W        W 7878  32.861   5.883  13.900
37279W        W 7879  22.142   7.247   0.010
37280W        W 7880  11.944  43.378  13.410
37281W        W 7881  38.476   7.826  13.638
37282W        W 7882  32.579  32.587  13.408
37283W        W 7883   9.798  17.187  14.909
37284W        W 7884  19.882   0.308  11.293
37285W        W 7885  14.147  25.747  11.110
37286W        W 7886  32.573  42.769  14.353
37287W        W 7887  25.655  14.754  13.954
37288W        W 7888  27.390   2.309   1.717
37289W        W 7889   4.896  13.257  12.424
37290W        W 7890   3.988  42.358  11.460
37291W        W 7891  29.923  32.671   3.301
37292W        W 7892  11.833   0.233   4.511
37293W        W 7893  23.938  22.010   0.916
37294W        W 7894   2.971  21.076  13.104
37295W        W 7895   3.720   2.528  10.745
37296W        W 7896  21.667  14.218   4.683
37297W        W 7897  11.398  17.695   2.415
37298W        W 7898  19.753   2.459  12.160
37299W        W 7899  24.968  17.642   0.872
37300W        W 7900  10.307  10.473   5.028
37301W        W 7901  14.691  18.130  14.441
37302W        W 7902  18.159  25.053   3.802
37303W        W 7903  33.649  28.197  11.415
37304W        W 7904   9.368  44.389  10.871
37305W        W 7905  10.175  16.608  10.261
37306W        W 7906  18.048  11.631  11.224
37307W        W 7907  19.913  37.605   0.541
37308W        W 7908  15.255  41.904  14.861
37309W        W 7909   6.744  25.020   0.801
37310W        W 7910  40.471   0.078  10.886
37311W        W 7911  34.645  28.593   1.774
37312W        W 7912  24.391  27.501   3.056
37313W        W 7913  39.526   4.379   1.276
37314W        W 7914  36.379   1.266  11.611
37315W        W 7915  42.862  16.523   1.748
37316W        W 7916  36.629  21.277   0.352
37317W        W 7917   0.081  39.351  12.091
37318W        W 7918   1.572  44.513  14.546
37319W        W 7919  42.044   9.163   4.727
37320W        W 7920  14.706   2.361  12.359
37321W        W 7921  43.758  41.892  13.455
37322W        W 7922  23.629  26.382   4.487
37323W        W 7923  30.464  16.711   1.840
37324W        W 7924  31.807  20.485  11.043
37325W        W 7925  38.368   6.974   3.098
37326W        W 7926  39.951  17.315   4.606
37327W        W 7927  44.355   0.659   2.897
37328W        W 7928   5.317   2.693  12.347
37329W        W 7929  38.253  30.662   1.319
37330W        W 7930  29.386  14.653  12.902
37331W        W 7931  37.263  19.032   0.616
37332W        W 7932   3.873  36.204  11.179
37333W        W 7933  35.540  28.986  11.138
37334W        W 7934  11.275  21.566  11.129
37335W        W 7935  34.945  18.767   0.590
37336W        W 7936  12.231  17.405  14.337
37337W        W 7937  34.347  25.208   2.213
37338W        W 7938  38.992  12.369  13.830
37339W        W 7939   4.146   7.888   0.484
37340W        W 7940   4.591  32.847  14.765
37341W        W 7941   5.191  43.740  12.888
37342W        W 7942  33.462  18.986  12.100
37343W        W 7943  19.682   0.287   1.232
37344W        W 7944  40.973  23.481  14.780
37345W        W 7945   1.275  44.790  11.168
37346W        W 7946  39.806   6.703  13.627
37347W        W 7947  44.299   3.591  14.526
37348W        W 7948   7.490  44.218  11.593
37349W        W 7949  35.562   9.280  11.622
37350W        W 7950  37.807  19.722  12.477
37351W        W 7951  32.060  44.714  10.671
37352W        W 7952  43.262   2.832  11.591
37353W        W 7953  30.088  16.624   3.989
37354W        W 7954  38.354  15.609   4.093
37355W        W 7955  19.252  24.551   3.376
37356W        W 7956  44.729  32.772   3.637
37357W        W 7957  27.698  32.939  11.865
37358W        W 7958  24.652  15.173  14.944
37359W        W 7959  28.580   9.341   2.691
37360W        W 7960  24.087  26.673   3.160
37361W        W 7961  25.864  19.241  14.859
37362W        W 7962   3.038  18.544   4.959
37363W        W 7963  44.457  33.409   2.218
37364W        W 7964  44.724  20.550   1.686
37365W        W 7965  28.569  18.674   4.549
37366W        W 7966  19.234  40.497   4.380
37367W        W 7967  10.418  18.873  11.348
37368W        W 7968  32.121  31.906   1.465
37369W        W 7969  37.092  29.531   0.737
37370W        W 7970   0.622  22.929  11.157
37371W        W 7971  24.535  15.080   2.249
37372W        W 7972  23.201  14.046  14.507
37373W        W 7973   0.747  16.495   0.845
37374W        W 7974  44.331  40.849  13.385
37375W        W 7975  30.955   2.147   4.289
37376W        W 7976  23.620  31.662  14.114
37377W        W 7977  30.613  19.479   1.497
37378W        W 7978   7.246   4.817  10.050
37379W        W 7979   4.422  35.110  14.543
37380W        W 7980  23.101   3.825  11.695
37381W        W 7981   5.681   7.691  13.905
37382W        W 7982  18.117  27.667  10.876
37383W        W 7983  41.970  20.358  13.442
37384W        W 7984  44.707   3.248   3.677
37385W        W 7985   1.859   9.830   0.736
37386W        W 7986  40.848  33.566  13.436
37387W        W 7987   4.890  42.267  11.138
37388W        W 7988  21.050  15.555   2.552
37389W        W 7989  19.119  28.563   4.575
37390W        W 7990  29.901  37.784   4.156
37391W        W 7991   4.176  13.355  14.724
37392W        W 7992  37.913  10.688  14.984
37393W        W 7993  24.225  10.867   1.707
37394W        W 7994  30.134  28.590   2.227
37395W        W 7995  32.158  43.336  13.639
37396W        W 7996  35.803  36.028  14.417
37397W        W 7997  32.400  43.954   1.823
37398W        W 7998  34.544  28.137   3.025
37399W        W 7999   1.723  14.458  12.132
37400W        W 8000   3.826   0.488  12.832
37401W        W 8001  41.675  35.214   4.591
37402W        W 8002  11.132   7.670   2.680
37403W        W 8003   0.262  37.274   3.194
37404W        W 8004   4.224  27.497   3.697
37405W        W 8005   8.815  39.051   1.008
37406W        W 8006   6.845  27.736  11.326
37407W        W 8007  26.877  31.524  13.896
37408W        W 8008   5.897   2.692  14.551
37409W        W 8009  41.308  23.452  11.348
37410W        W 8010   1.960  22.660   2.770
37411W        W 8011  20.603  15.589  11.985
37412W        W 8012   0.338  27.203  10.518
37413W        W 8013   2.448  24.053   4.310
37414W        W 8014   8.311  17.253  13.527
37415W        W 8015   8.401  16.768   3.913
37416W        W 8016  20.027  39.322   3.962
37417W        W 8017  43.806   5.445  13.387
37418W        W 8018  35.359   7.248   1.799
37419W        W 8019  19.740  44.269  13.157
37420W        W 8020  34.430  29.687   0.541
37421W        W 8021  32.189  24.758  14.091
37422W        W 8022  30.010  15.825   1.204
37423W        W 8023  38.321  18.610  12.736
37424W        W 8024  38.502   2.634  14.415
37425W        W 8025   6.173   8.235  10.499
37426W        W 8026  15.077   7.507  12.470
37427W        W 8027   4.144  42.939  13.363
37428W        W 8028  41.572   6.354  14.266
37429W        W 8029  27.084  40.549   1.828
37430W        W 8030  26.160  39.824   2.620
37431W        W 8031   5.937  33.521   1.167
37432W        W 8032   0.318   4.276  13.806
37433W        W 8033   9.824  36.828   0.248
37434W        W 8034   3.817  29.427   3.064
37435W        W 8035  12.633  34.972  12.158
37436W        W 8036  12.396  11.109   4.230
37437W        W 8037  30.587  16.107   3.903
37438W        W 8038  11.898   2.984  13.103
37439W        W 8039   3.291   0.759  10.788
37440W        W 8040  40.543  44.235  10.421
37441W        W 8041   6.364  29.671  14.596
37442W        W 8042  35.010  43.159   3.855
37443W        W 8043  10.152  27.568   4.089
37444W        W 8044  28.679  26.169   4.535
37445W        W 8045  10.837  25.167   1.900
37446W        W 8046  15.565  27.994  13.363
37447W        W 8047  37.408   9.107  14.185
37448W        W 8048  27.144  11.828   4.793
37449W        W 8049  35.139  27.901   2.313
37450W        W 8050  23.066  43.725  11.479
37451W        W 8051  24.417  26.072  13.642
37452W        W 8052  44.326  10.383   3.578
37453W        W 8053  38.407   6.383  12.677
37454W        W 8054  39.665  22.109  13.000
37455W        W 8055   0.313  15.543  13.368
37456W        W 8056  14.628   1.281  12.470
37457W        W 8057  16.231  29.463   0.336
37458W        W 8058  16.249  27.986  13.977
37459W        W 8059  40.938  34.313  13.949
37460W        W 8060  33.096  16.458   0.872
37461W        W 8061  19.555  17.197  12.036
37462W        W 8062  31.136  39.356   2.301
37463W        W 8063  14.038  27.666  12.078
37464W        W 8064  36.984  30.151  11.121
37465W        W 8065   3.375  14.526  14.951
37466W        W 8066   3.448  44.410  14.398
37467W        W 8067   9.249  15.132  14.726
37468W        W 8068   3.954  27.527   1.883
37469W        W 8069  10.441  32.473   5.099
37470W        W 8070  30.394  41.564  10.743
37471W        W 8071  40.409   4.359   2.293
37472W        W 8072  18.667  32.508   0.402
37473W        W 8073   3.480  22.608   4.186
37474W        W 8074  26.693  11.555  13.414
37475W        W 8075  30.471  18.650   3.028
37476W        W 8076   0.747   3.765   4.357
37477W        W 8077  40.292   9.223  14.492
37478W        W 8078   6.541  20.628   0.330
37479W        W 8079  34.540  39.053   2.371
37480W        W 8080  10.284   4.335   2.802
37481W        W 8081  39.095  24.968   2.365
37482W        W 8082   9.232  25.018  11.639
37483W        W 8083   7.935  25.861   3.830
37484W        W 8084  33.460  42.702  13.126
37485W        W 8085  23.211   5.672   2.650
37486W        W 8086  41.566  32.442   3.479
37487W        W 8087   1.763  14.185  10.602
37488W        W 8088  43.434  26.402   0.203
37489W        W 8089  26.222  33.019  13.617
37490W        W 8090  22.436  21.268   0.702
37491W        W 8091   6.929   9.383   2.362
37492W        W 8092   6.913  28.398  12.366
37493W        W 8093  33.859  10.276  13.949
37494W        W 8094  43.939   3.879  14.814
37495W        W 8095  30.838  21.555  12.128
37496W        W 8096   6.888  27.666   1.331
37497W        W 8097   7.679  34.904   4.464
37498W        W 8098  43.499   6.759   0.882
37499W        W 8099  12.843  38.268   2.637
37500W        W 8100   4.362   1.346  10.748
37501W        W 8101  17.174  15.064  11.707
37502W        W 8102   4.605  26.623  11.690
37503W        W 8103  25.146  38.231   1.417
37504W        W 8104  37.257   4.915  12.378
37505W        W 8105  27.700  11.308   0.220
37506W        W 8106   6.260  14.007  14.783
37507W        W 8107  42.310   8.152  13.441
37508W        W 8108  25.203  23.431  11.533
37509W        W 8109  32.836  26.589  14.507
37510W        W 8110   8.910  24.059  11.142
37511W        W 8111  17.064  15.788  10.721
37512W        W 8112  23.203  21.191   1.404
37513W        W 8113   3.986  12.597  11.257
37514W        W 8114  25.497  11.927  10.455
37515W        W 8115   5.265  43.258   2.033
37516W        W 8116  44.629  44.368  13.626
37517W        W 8117  42.270  21.851   3.339
37518W        W 8118  28.616  10.799   3.929
37519W        W 8119   7.858  26.401  12.445
37520W        W 8120  18.925  24.679  11.943
37521W        W 8121   8.709  28.257  13.104
37522W        W 8122   5.885  30.709  10.925
37523W        W 8123   7.205  27.174  12.541
37524W        W 8124  33.457   3.842  11.049
37525W        W 8125  16.720  32.002  12.050
37526W        W 8126  25.475  44.837   0.672
37527W        W 8127  35.056  25.100  12.510
37528W        W 8128  15.680  14.164  14.860
37529W        W 8129  43.273  38.597  14.354
37530W        W 8130  35.019  31.408   1.804
37531W        W 8131   0.039  28.374  13.993
37532W        W 8132  26.596   6.094   4.509
37533W        W 8133   9.728  42.616   1.785
37534W        W 8134  44.041   3.824   1.806
37535W        W 8135  32.894  44.398   3.769
37536W        W 8136   3.814  16.413  13.828
37537W        W 8137   7.600  25.566  11.151
37538W        W 8138  38.435  29.752  11.103
37539W        W 8139  38.329   3.235  13.534
37540W        W 8140  16.306   2.790   0.649
37541W        W 8141  21.490  15.562   1.813
37542W        W 8142  43.645  14.146   3.328
37543W        W 8143   2.483  22.701   1.017
37544W        W 8144  35.891  17.856   0.692
37545W        W 8145   0.447  25.895   4.881
37546W        W 8146  22.005  18.569  11.389
37547W        W 8147  42.733  16.374  13.421
37548W        W 8148   7.544  23.288  11.281
37549W        W 8149  33.899  15.206  14.491
37550W        W 8150   4.277  40.049   1.472
37551W        W 8151  25.940  26.591   3.454
37552W        W 8152  17.315  40.192  13.495
37553W        W 8153   3.401  33.936  12.653
37554W        W 8154  28.627  40.033   0.912
37555W        W 8155   7.925  11.845   2.747
37556W        W 8156   2.375   2.404   2.035
37557W        W 8157  36.911  15.391  14.453
37558W        W 8158  22.582  33.755   1.033
37559W        W 8159  19.729   8.743  14.822
37560W        W 8160   0.681  41.622  14.173
37561W        W 8161  44.974  29.731  13.538
37562W        W 8162  36.037  28.805  13.837
37563W        W 8163  35.912  26.202   3.322
37564W        W 8164   2.988  30.202  13.841
37565W        W 8165  25.798  34.906   4.053
37566W        W 8166  31.992  43.788   4.602
37567W        W 8167  25.579  42.093  13.876
37568W        W 8168  10.784  21.028  11.098
37569W        W 8169  13.250  39.022  11.412
37570W        W 8170  21.032  14.530   4.542
37571W        W 8171  32.303  16.183  14.385
37572W        W 8172  44.513  26.501   4.102
37573W        W 8173  33.899   2.212   0.447
37574W        W 8174   7.798  24.767  11.609
37575W        W 8175  43.892  21.302  10.688
37576W        W 8176  43.011  35.381   1.795
37577W        W 8177  38.763  26.028  11.003
37578W        W 8178  32.638  18.653   1.627
37579W        W 8179  21.441  31.656  14.406
37580W        W 8180  30.657  15.366  14.836
37581W        W 8181   6.901  24.153   4.319
37582W        W 8182  21.314  26.632   4.461
37583W        W 8183  43.120   5.402   2.572
37584W        W 8184  31.371  17.142   2.205
37585W        W 8185  25.938  31.871  14.849
37586W        W 8186  43.366  21.262  13.411
37587W        W 8187  13.649  16.060   2.652
37588W        W 8188  12.553   0.820   3.313
37589W        W 8189  31.225  15.352   1.164
37590W        W 8190  28.547  16.354   0.504
37591W        W 8191  17.298  30.574  11.748
37592W        W 8192   3.903  38.921  13.898
37593W        W 8193  29.408   6.305   1.440
37594W        W 8194  25.617  22.240   1.238
37595W        W 8195   4.885  22.728  13.537
37596W        W 8196  38.591  13.103   4.696
37597W        W 8197   8.370   7.260  11.017
37598W        W 8198   3.309  43.405  14.070
37599W        W 8199  37.599  27.812  14.967
37600W        W 8200  23.529   5.119   3.227
37601W        W 8201   5.593  38.892   3.982
37602W        W 8202  26.894  19.747   4.657
37603W        W 8203  32.474  35.877  13.090
37604W        W 8204  40.762  28.049  14.525
37605W        W 8205  26.539  26.088   5.059
37606W        W 8206   4.288  31.823   4.559
37607W        W 8207  16.391  17.049  14.234
37608W        W 8208  10.149  38.234   1.916
37609W        W 8209  26.734  10.219   4.700
37610W        W 8210  29.063  40.762   3.054
37611W        W 8211  34.057  31.939   3.796
37612W        W 8212  32.126  27.145  13.467
37613W        W 8213  22.688   8.283   0.516
37614W        W 8214  19.266  14.833   3.181
37615W        W 8215  16.270  17.779  11.908
37616W        W 8216  25.723  17.725  14.500
37617W        W 8217  37.557   2.450  11.789
37618W        W 8218  37.975  14.837  12.612
37619W        W 8219  38.669   6.143  14.464
37620W        W 8220  10.642  16.399  12.861
37621W        W 8221  37.723  29.798   2.714
37622W        W 8222   3.556  11.082  10.441
37623W        W 8223  17.048  33.481  14.245
37624W        W 8224  17.619  40.465   2.279
37625W        W 8225  25.633  20.051   2.159
37626W        W 8226  13.868  40.605  13.347
37627W        W 8227  35.861  14.024   4.635
37628W        W 8228  38.361  41.266   3.245
37629W        W 8229  15.548  26.682  11.427
37630W        W 8230  35.664  23.023  11.712
37631W        W 8231  42.561   0.454   2.884
37632W        W 8232  27.695  27.786  11.029
37633W        W 8233  35.562   2.698   3.837
37634W        W 8234  43.893  32.150  11.506
37635W        W 8235   1.995  35.933  12.114
37636W        W 8236  26.114   6.504  11.895
37637W        W 8237  16.722  17.899   4.833
37638W        W 8238  38.863  39.596  12.339
37639W        W 8239  34.401  33.072  12.667
37640W        W 8240  44.266   5.106   4.292
37641W        W 8241  18.091  19.169   4.907
37642W        W 8242  34.671   0.003  10.978
37643W        W 8243  18.859  29.236  12.622
37644W        W 8244   1.671  15.831  13.466
37645W        W 8245  42.611   0.447   4.684
37646W        W 8246  11.035  30.178  11.958
37647W        W 8247  34.366  22.565  12.100
37648W        W 8248  32.111  16.811   3.256
37649W        W 8249  19.125  32.381   2.208
37650W        W 8250   8.340  35.969  10.353
37651W        W 8251   9.206  44.316  12.945
37652W        W 8252  23.949  23.467  11.589
37653W        W 8253  22.597  12.400   3.269
37654W        W 8254  44.748  31.350   1.390
37655W        W 8255  19.156  21.578  14.143
37656W        W 8256  35.374   2.841  11.655
37657W        W 8257  25.603  29.739   3.777
37658W        W 8258  15.424  23.995  11.159
37659W        W 8259  10.894  36.946  14.415
37660W        W 8260  14.561  26.422   2.188
37661W        W 8261   9.134  17.125   1.817
37662W        W 8262  44.354  11.399  14.274
37663W        W 8263  26.920  16.610   2.804
37664W        W 8264  16.735  31.520   1.806
37665W        W 8265  44.506  36.032   3.085
37666W        W 8266   8.911  30.466   2.896
37667W        W 8267   5.682  33.664   3.203
37668W        W 8268  12.287   2.525  13.866
37669W        W 8269  11.097  42.525   9.642
37670W        W 8270  26.802   9.108   1.790
37671W        W 8271  22.640   3.021   3.006
37672W        W 8272  30.130   1.394   0.439
37673W        W 8273   3.484   5.851   0.385
37674W        W 8274  39.912  16.625  12.487
37675W        W 8275  15.251  13.610  12.510
37676W        W 8276  35.980   1.253  14.868
37677W        W 8277  20.874  43.999  13.056
37678W        W 8278  11.235  36.552  11.534
37679W        W 8279   7.164   5.942   2.766
37680W        W 8280  36.162  11.353  13.304
37681W        W 8281  20.072  32.784  13.227
37682W        W 8282  42.510  17.147  13.093
37683W        W 8283  29.067  17.574   2.708
37684W        W 8284   3.480  14.058   0.891
37685W        W 8285  33.550  17.501   2.374
37686W        W 8286   4.437  39.967  14.351
37687W        W 8287   0.383   8.781  14.765
37688W        W 8288  18.975  27.160  12.014
37689W        W 8289   8.622  41.777  11.228
37690W        W 8290  10.634  23.130   1.163
37691W        W 8291  11.387  38.818   2.623
37692W        W 8292  18.903  38.194  10.540
37693W        W 8293   0.350   0.457  11.694
37694W        W 8294   9.286  25.625   3.841
37695W        W 8295  29.358  36.485  13.306
37696W        W 8296   6.102  35.048   0.332
37697W        W 8297  14.994   9.854   0.707
37698W        W 8298  33.612  22.208   2.393
37699W        W 8299   1.418  25.637  12.904
37700W        W 8300  10.237   3.075  13.892
37701W        W 8301   3.923   0.470   4.887
37702W        W 8302   6.659  30.557   1.503
37703W        W 8303  12.412  18.526   0.211
37704W        W 8304  38.861  18.076   0.276
37705W        W 8305  42.061  33.948   1.275
37706W        W 8306  30.180   0.031   2.335
37707W        W 8307  32.656  33.136   3.231
37708W        W 8308  30.572  31.350  11.889
37709W        W 8309   1.705  31.858  10.781
37710W        W 8310  17.651   2.452   0.444
37711W        W 8311  16.331  22.781  13.023
37712W        W 8312  13.371  17.829  12.950
37713W        W 8313  20.557  24.629   1.273
37714W        W 8314  43.454  34.754   2.494
37715W        W 8315   3.469  25.908   2.790
37716W        W 8316  26.022   4.499  10.993
37717W        W 8317  21.564  29.214   2.541
37718W        W 8318  15.661  12.025   4.968
37719W        W 8319  38.525  30.771   0.719
37720W        W 8320  14.872  22.382   3.857
37721W        W 8321  22.751   3.508  13.876
37722W        W 8322   3.486  20.279  12.916
37723W        W 8323  44.979  24.553   4.645
37724W        W 8324  34.497  25.582  11.659
37725W        W 8325   9.664  31.437  12.789
37726W        W 8326  24.827  25.463  13.114
37727W        W 8327  28.093  38.060   2.740
37728W        W 8328  42.587  27.695  11.089
37729W        W 8329  31.517  28.525  12.444
37730W        W 8330  37.565  39.749   0.288
37731W        W 8331   0.975  36.405   0.281
37732W        W 8332  42.859   1.635   0.429
37733W        W 8333  34.228  29.037   3.149
37734W        W 8334   2.549  38.358  11.925
37735W        W 8335  18.182  34.447  14.789
37736W        W 8336   1.220  10.683  14.502
37737W        W 8337  40.047  19.339   1.205
37738W        W 8338   9.881  25.284  10.631
37739W        W 8339  23.112   3.924  13.956
37740W        W 8340  16.376   4.963   3.032
37741W        W 8341  41.696  23.520   4.126
37742W        W 8342  24.600  10.660  10.739
37743W        W 8343  28.264  38.367  12.488
37744W        W 8344  33.352  44.764   3.084
37745W        W 8345  29.980  18.116   3.702
37746W        W 8346  23.673  22.991  13.361
37747W        W 8347  14.718   0.767  12.563
37748W        W 8348  17.268  17.690   3.437
37749W        W 8349  22.033   3.696  10.716
37750W        W 8350  41.243  34.216  12.647
37751W        W 8351   2.013  22.233   1.261
37752W        W 8352  39.019  17.217   0.879
37753W        W 8353   5.907  44.847  13.585
37754W        W 8354  19.807  38.569   1.496
37755W        W 8355   6.751   1.484  14.851
37756W        W 8356  20.379  27.108   4.260
37757W        W 8357  33.457  13.172   4.465
37758W        W 8358  44.129  43.246   4.077
37759W        W 8359  29.891  43.287  13.987
37760W        W 8360   5.742  24.507   0.965
37761W        W 8361   6.290   2.895  12.634
37762W        W 8362   6.275   8.826   3.281
37763W        W 8363  38.115   6.723  13.855
37764W        W 8364   8.521   1.580   2.626
37765W        W 8365  10.660  40.630   1.068
37766W        W 8366  36.331  22.558  14.830
37767W        W 8367   7.091  33.928  11.798
37768W        W 8368  41.960   9.756   0.251
37769W        W 8369  10.643  16.251  11.536
37770W        W 8370  25.905  20.774   2.032
37771W        W 8371  24.961  26.216   2.270
37772W        W 8372   4.734  44.326   3.353
37773W        W 8373   9.545  11.890   0.782
37774W        W 8374   0.965   5.939  14.496
37775W        W 8375  33.894  43.942   1.215
37776W        W 8376  34.002   3.684  11.017
37777W        W 8377  20.284  18.517   0.425
37778W        W 8378  16.530   7.444   4.205
37779W        W 8379  25.562  12.732  14.897
37780W        W 8380   3.025  36.494  10.379
37781W        W 8381  11.577   1.513  14.905
37782W        W 8382  14.609   9.634  12.579
37783W        W 8383  41.487  11.031  11.054
37784W        W 8384  41.031  44.387   0.233
37785W        W 8385   5.143  41.852   0.379
37786W        W 8386  41.900  24.495  13.382
37787W        W 8387   5.182   3.759  11.033
37788W        W 8388  31.053  23.769  12.904
37789W        W 8389   2.257  16.092   0.432
37790W        W 8390   9.346   7.637   3.184
37791W        W 8391  24.963  20.651   0.703
37792W        W 8392  23.330   4.227  12.939
37793W        W 8393  41.361  21.472  10.778
37794W        W 8394   4.329  27.232   0.348
37795W        W 8395  36.876  35.001   1.204
37796W        W 8396   5.759  26.909  12.299
37797W        W 8397  17.139  19.370  11.198
37798W        W 8398  37.348   3.965   2.302
37799W        W 8399  18.931  23.733   0.927
37800W        W 8400  16.184   3.947  12.832
37801W        W 8401  28.243  19.479   4.734
37802W        W 8402  19.122  28.035   5.166
37803W        W 8403  33.896  33.012  10.489
37804W        W 8404  23.439   0.191   3.842
37805W        W 8405   9.170   3.766   4.951
37806W        W 8406  17.793  26.125  14.919
37807W        W 8407   5.949  20.445  12.851
37808W        W 8408  15.440  36.901  11.177
37809W        W 8409   0.254  42.487   0.815
37810W        W 8410  29.376  28.155   2.225
37811W        W 8411  31.016  39.764  14.762
37812W        W 8412   6.993  36.579   1.432
37813W        W 8413   8.452   8.338   4.845
37814W        W 8414  29.171  32.066   0.759
37815W        W 8415   1.505  36.436  13.097
37816W        W 8416  37.290  43.540  13.292
37817W        W 8417  14.148  39.503   0.918
37818W        W 8418  11.220  20.634  10.630
37819W        W 8419  16.259   9.363  11.444
37820W        W 8420  40.908   1.413  12.032
37821W        W 8421  20.093   9.599  14.086
37822W        W 8422  28.799  24.933   2.207
37823W        W 8423  44.503  10.804  14.064
37824W        W 8424  40.890  37.686   4.636
37825W        W 8425  42.878  21.914   0.308
37826W        W 8426  44.709  14.639  13.381
37827W        W 8427   6.879   8.223   1.682
37828W        W 8428  31.381  24.067   2.313
37829W        W 8429  30.375   0.739   3.270
37830W        W 8430  27.933  41.326  12.933
37831W        W 8431  11.383  44.495   1.272
37832W        W 8432   6.221  30.976  12.028
37833W        W 8433  32.957  28.010   3.378
37834W        W 8434  35.082  33.570   2.168
37835W        W 8435  40.279  38.978  12.167
37836W        W 8436   9.274   2.827  14.330
37837W        W 8437  42.522  37.017  11.912
37838W        W 8438   4.184  39.852   4.379
37839W        W 8439  17.240  13.767  12.136
37840W        W 8440   2.138  25.277  14.009
37841W        W 8441   9.176   0.889  11.965
37842W        W 8442  34.584   8.053   4.540
37843W        W 8443  44.735  35.833  11.272
37844W        W 8444  42.011  42.105   3.887
37845W        W 8445  25.272   1.663  10.600
37846W        W 8446  38.614   2.875   0.550
37847W        W 8447  40.180  29.896  11.106
37848W        W 8448  24.751  38.981  11.486
37849W        W 8449  33.898  16.079   3.681
37850W        W 8450  18.361  18.138   4.690
37851W        W 8451  38.544   2.055   2.050
37852W        W 8452  34.929  38.182   0.008
37853W        W 8453  15.666   6.973   2.750
37854W        W 8454  20.178  33.633  10.960
37855W        W 8455  36.822  18.641  11.552
37856W        W 8456  27.452  41.245   0.705
37857W        W 8457  34.878  34.528   0.015
37858W        W 8458  15.677   7.135  12.998
37859W        W 8459  18.270  32.397   4.155
37860W        W 8460  19.614  19.359  14.122
37861W        W 8461  38.458  31.501   2.878
37862W        W 8462  40.964  34.684   4.417
37863W        W 8463  11.700  35.905  12.996
37864W        W 8464  33.867  29.632   0.113
37865W        W 8465  28.278  19.225   5.193
37866W        W 8466   3.242  32.424  12.665
37867W        W 8467  27.199  28.172  14.444
37868W        W 8468  40.131  25.520  14.473
37869W        W 8469  19.659  16.688   2.136
37870W        W 8470  26.758   5.313  13.543
37871W        W 8471  17.543  15.535  13.485
37872W        W 8472   6.346  38.362   4.343
37873W        W 8473  42.555  40.277   3.648
37874W        W 8474  12.368   0.719  14.830
37875W        W 8475  33.996  41.485   3.178
37876W        W 8476  31.719  10.827   3.110
37877W        W 8477  21.986  25.289   3.958
37878W        W 8478   3.878  25.134  12.869
37879W        W 8479  20.019  19.361   2.699
37880W        W 8480  38.863   3.192  13.430
37881W        W 8481   2.170  21.797   3.876
37882W        W 8482  37.124  20.143   1.338
37883W        W 8483   8.387   1.952   0.262
37884W        W 8484  33.068   6.055  10.721
37885W        W 8485  11.238  27.972  12.479
37886W        W 8486  37.595   2.721   0.879
37887W        W 8487  11.895  24.808  12.975
37888W        W 8488  40.830  28.574   2.688
37889W        W 8489  42.746  23.589   0.488
37890W        W 8490  44.099  37.447  10.952
37891W        W 8491  42.551   7.815   1.768
37892W        W 8492   2.641  42.861  11.564
37893W        W 8493  10.698  43.491  14.201
37894W        W 8494  24.690  32.550  14.506
37895W        W 8495   7.274  41.378  13.143
37896W        W 8496   5.853  32.400   4.466
37897W        W 8497  32.375  19.597   2.104
37898W        W 8498   9.826  12.529  11.892
37899W        W 8499  42.084  39.831  13.310
37900W        W 8500  39.994  31.185  10.964
37901W        W 8501   5.684  16.679  11.873
37902W        W 8502  11.697  11.143  10.773
37903W        W 8503  28.728  42.139   3.373
37904W        W 8504   7.773  24.547   4.672
37905W        W 8505  26.703  34.909   0.994
37906W        W 8506  41.554  10.733   0.205
37907W        W 8507  36.245  34.044  13.783
37908W        W 8508  26.482  25.323  13.877
37909W        W 8509  36.551   0.686  10.968
37910W        W 8510  28.020  37.563  13.043
37911W        W 8511   8.113  38.389  12.889
37912W        W 8512  40.478  26.673  13.333
37913W        W 8513  28.698   7.359   2.383
37914W        W 8514   7.310   9.802   0.745
37915W        W 8515  29.461   0.204  11.150
37916W        W 8516   4.381   4.933  11.355
37917W        W 8517  18.353  22.834   1.156
37918W        W 8518  18.210  39.130   4.513
37919W        W 8519   0.273  30.559   0.796
37920W        W 8520  42.556  13.129  12.504
37921W        W 8521  39.736  15.732   3.788
37922W        W 8522  19.813  34.353   3.273
37923W        W 8523  42.424  43.574   3.236
37924W        W 8524  21.610   1.356  10.726
37925W        W 8525   8.340   0.837   1.154
37926W        W 8526  43.834   8.397   0.318
37927W        W 8527  40.440  44.955   1.986
37928W        W 8528   6.472   5.805  13.840
37929W        W 8529  16.598  40.917  10.982
37930W        W 8530  37.524   8.737  12.450
37931W        W 8531  36.654   1.280  12.070
37932W        W 8532   6.786  12.292  14.376
37933W        W 8533  17.617  41.801  13.889
37934W        W 8534  12.445  33.592   2.739
37935W        W 8535  40.635   8.263  12.878
37936W        W 8536  42.348   4.971  12.067
37937W        W 8537  17.268  16.790   0.597
37938W        W 8538  31.132   1.270   1.951
37939W        W 8539  13.764  32.459  14.233
37940W        W 8540  34.913  16.225   3.336
37941W        W 8541  22.066  21.704  11.145
37942W        W 8542   3.264  39.544   0.382
37943W        W 8543   7.014  12.201   4.158
37944W        W 8544  37.269  27.180  13.555
37945W        W 8545  39.123   5.060   2.833
37946W        W 8546  31.978  10.267  13.702
37947W        W 8547  35.391  27.196  11.169
37948W        W 8548  33.984  16.871   0.662
37949W        W 8549  23.509   4.447   3.809
37950W        W 8550  24.429   6.905   2.265
37951W        W 8551  27.682  42.310  11.865
37952W        W 8552  38.013  30.595   4.153
37953W        W 8553   5.788  20.779  11.053
37954W        W 8554  37.874  20.151   0.803
37955W        W 8555  29.032  44.923  14.919
37956W        W 8556   7.323  29.009  14.018
37957W        W 8557  37.663  17.108  11.971
37958W        W 8558  24.106  34.699   3.199
37959W        W 8559   7.353  26.005   2.272
37960W        W 8560  11.896  31.878   4.179
37961W        W 8561  18.283  11.314   1.076
37962W        W 8562   4.718   5.076  10.805
37963W        W 8563   7.098  14.415  13.679
37964W        W 8564   4.226  32.541   1.438
37965W        W 8565  14.590  38.115   4.673
37966W        W 8566  14.036  43.879  11.493
37967W        W 8567  16.140  31.354  14.898
37968W        W 8568  23.001  24.500  13.981
37969W        W 8569  16.192  33.046   4.952
37970W        W 8570  19.761  29.601  12.896
37971W        W 8571  33.129  24.362  11.096
37972W        W 8572   2.999   0.896  13.106
37973W        W 8573  44.209  21.680  10.829
37974W        W 8574  29.075  24.556  11.628
37975W        W 8575  16.111  11.104   1.325
37976W        W 8576  18.761  38.737   2.601
37977W        W 8577  38.138  24.161  11.582
37978W        W 8578  31.985  15.531   2.891
37979W        W 8579  41.764  36.886   2.742
37980W        W 8580  36.177  23.081   1.339
37981W        W 8581   8.913  21.639   2.649
37982W        W 8582  11.909  10.078   0.326
37983W        W 8583  22.594  34.071   3.649
37984W        W 8584  36.814  25.710   4.663
37985W        W 8585   6.447  32.177   4.080
37986W        W 8586  22.529  36.049  12.028
37987W        W 8587  25.722   6.417  13.314
37988W        W 8588   8.919  12.803   1.628
37989W        W 8589   6.171  28.976  14.791
37990W        W 8590   4.510  42.882  14.822
37991W        W 8591  10.779  35.810   1.900
37992W        W 8592  34.030  34.738  12.015
37993W        W 8593  28.835  15.427  12.082
37994W        W 8594  44.964  27.231  14.513
37995W        W 8595  25.520  33.152   0.342
37996W        W 8596   9.719  24.795   4.535
37997W        W 8597  44.424  24.396   4.974
37998W        W 8598   5.926  10.692   3.367
37999W        W 8599  31.146  36.623   0.429
38000W        W 8600  41.833   8.740  11.471
38001W        W 8601  31.423  10.798  13.374
38002W        W 8602  13.273  44.450  12.113
38003W        W 8603   6.380  25.654  14.741
38004W        W 8604  25.020  22.262   1.780
38005W        W 8605  29.970  18.732   4.357
38006W        W 8606  28.511  31.227  10.893
38007W        W 8607  26.466  15.330  10.773
38008W        W 8608  41.779  18.297  12.083
38009W        W 8609  34.182  13.841  13.412
38010W        W 8610  21.106  42.898   2.767
38011W        W 8611   3.697  13.621   0.655
38012W        W 8612  28.578   5.304   2.584
38013W        W 8613  18.034  19.553   3.657
38014W        W 8614  20.828  10.285  11.578
38015W        W 8615  18.776   2.528  14.449
38016W        W 8616   1.502   6.361   4.109
38017W        W 8617  30.402  12.252   4.497
38018W        W 8618  41.244  29.987   0.832
38019W        W 8619  35.438  39.633  11.573
38020W        W 8620  32.968  30.456   4.209
38021W        W 8621   0.040   9.358   1.848
38022W        W 8622  36.535  35.502   4.618
38023W        W 8623  38.066  18.673   0.963
38024W        W 8624  34.791  43.356   2.907
38025W        W 8625  33.058  10.901  12.048
38026W        W 8626   7.320  29.120   0.451
38027W        W 8627  10.827  17.450  11.148
38028W        W 8628   7.392  42.688   5.133
38029W        W 8629  26.273  20.694  13.393
38030W        W 8630  14.782   1.791   2.233
38031W        W 8631  44.825  30.138   4.233
38032W        W 8632  35.987  24.120   4.196
38033W        W 8633  14.688  22.050   1.221
38034W        W 8634   1.931  24.413  11.397
38035W        W 8635   4.438  37.984  12.117
38036W        W 8636   4.052   2.315   3.971
38037W        W 8637  13.672   7.805  11.710
38038W        W 8638   3.166  23.928   1.816
38039W        W 8639  31.108   9.141   2.574
38040W        W 8640   1.433   5.005   2.750
38041W        W 8641  39.874  40.580   2.201
38042W        W 8642  33.556   5.357  11.686
38043W        W 8643  40.691  34.811   1.794
38044W        W 8644  17.277  26.710   0.451
38045W        W 8645  27.767  35.549  11.415
38046W        W 8646  24.168  30.279  14.514
38047W        W 8647  21.971  29.048  12.801
38048W        W 8648  40.560  22.174   0.963
38049W        W 8649  32.719  18.794   2.620
38050W        W 8650  33.361   8.283   0.528
38051W        W 8651  37.455  23.010   0.528
38052W        W 8652  20.765  34.561   1.248
38053W        W 8653  15.914  20.926  12.667
38054W        W 8654   2.362  42.086   1.098
38055W        W 8655  11.664   7.882  13.625
38056W        W 8656   4.253  29.049   2.188
38057W        W 8657  41.872  38.555  14.697
38058W        W 8658  14.902  32.341   4.976
38059W        W 8659  24.406  37.467  13.947
38060W        W 8660  27.283   6.136   1.574
38061W        W 8661  44.008   6.434   3.124
38062W        W 8662   5.852   0.557   0.759
38063W        W 8663  27.667  12.869  13.557
38064W        W 8664   4.386   2.229  13.981
38065W        W 8665  29.263   1.943  11.148
38066W        W 8666  16.844  29.923   3.538
38067W        W 8667  38.518  10.614  14.325
38068W        W 8668   7.315  19.131   1.389
38069W        W 8669  34.668  43.411   4.469
38070W        W 8670  14.400  39.349   0.378
38071W        W 8671   4.407  20.018  11.632
38072W        W 8672   6.426  43.032   1.112
38073W        W 8673   1.767  22.423   0.768
38074W        W 8674  23.995  29.480   1.781
38075W        W 8675  36.511  10.241  10.525
38076W        W 8676  26.093   5.928  14.451
38077W        W 8677   4.754  34.028  14.766
38078W        W 8678  18.559  40.886   1.412
38079W        W 8679  22.519  36.043   0.426
38080W        W 8680  19.933   8.681   3.632
38081W        W 8681  22.921   5.310  13.742
38082W        W 8682   1.033  42.516   3.294
38083W        W 8683  22.025  42.842  14.231
38084W        W 8684  39.694  41.786  11.200
38085W        W 8685  36.304   7.218   0.802
38086W        W 8686  14.141  36.043  11.921
38087W        W 8687  28.160  44.998  11.173
38088W        W 8688  19.074   0.723  12.142
38089W        W 8689   6.602  12.055  13.940
38090W        W 8690  30.136  42.541  12.592
38091W        W 8691  42.391  38.301  12.615
38092W        W 8692  27.061   7.973  14.338
38093W        W 8693  27.796  13.079   4.346
38094W        W 8694  32.006  38.331   2.790
38095W        W 8695  11.483  44.441  11.564
38096W        W 8696  26.703  13.026  11.174
38097W        W 8697  12.627  34.827   2.131
38098W        W 8698   5.768  35.504  11.640
38099W        W 8699   5.452  29.407  11.508
38100W        W 8700  18.348  34.049   1.547
38101W        W 8701  26.190   3.401  13.739
38102W        W 8702  32.148  41.972   4.402
38103W        W 8703  31.704   5.674  12.579
38104W        W 8704   9.823  34.254  14.392
38105W        W 8705  42.779  39.302   0.363
38106W        W 8706  19.125   2.912  12.870
38107W        W 8707   1.302  18.698   1.802
38108W        W 8708  41.734  42.920  10.226
38109W        W 8709   5.782  19.259  12.030
38110W        W 8710   7.338  29.016  12.657
38111W        W 8711   6.424  12.684  14.437
38112W        W 8712   9.925  14.623  12.521
38113W        W 8713  34.028  10.395   2.209
38114W        W 8714   3.006  31.409   4.176
38115W        W 8715  10.464  11.125   0.233
38116W        W 8716  23.146  27.085   1.687
38117W        W 8717  28.181  30.035  13.265
38118W        W 8718  15.548   6.235  13.524
38119W        W 8719   9.234   6.756   1.005
38120W        W 8720  44.711   6.356   9.795
38121W        W 8721  42.461  37.471   4.281
38122W        W 8722  11.700  34.388  14.913
38123W        W 8723  41.500  23.069  14.002
38124W        W 8724  37.342  24.490   0.223
38125W        W 8725  34.548  14.921   1.815
38126W        W 8726  17.131  28.459  12.219
38127W        W 8727   1.164  40.316  12.622
38128W        W 8728  37.353  27.521   3.801
38129W        W 8729  15.619  36.590  14.071
38130W        W 8730  23.573  39.824   1.618
38131W        W 8731  21.065  43.633   5.500
38132W        W 8732  15.054  32.934   2.013
38133W        W 8733  14.774  39.964   3.293
38134W        W 8734  20.206   4.929  11.190
38135W        W 8735  29.624   8.197   4.226
38136W        W 8736   9.136   6.699  10.709
38137W        W 8737  21.624   4.460   0.860
38138W        W 8738   1.206   2.438   4.143
38139W        W 8739  40.735  21.710   3.675
38140W        W 8740  23.014  27.570   1.778
38141W        W 8741  38.186  16.646  13.266
38142W        W 8742   5.302  12.820  14.112
38143W        W 8743   3.131  44.404  12.035
38144W        W 8744  40.781  15.738   2.396
38145W        W 8745  28.631  20.531   2.446
38146W        W 8746   4.663  37.713  13.395
38147W        W 8747  40.379  28.443  12.971
38148W        W 8748  27.017  39.572  12.019
38149W        W 8749  36.315   8.139  10.720
38150W        W 8750  42.879  26.873  13.707
38151W        W 8751   7.036  25.132  12.446
38152W        W 8752   8.972  37.931   0.323
38153W        W 8753  31.061  35.330   1.783
38154W        W 8754   1.487  14.937  14.756
38155W        W 8755  37.584  25.533   2.769
38156W        W 8756  21.555  36.873   3.783
38157W        W 8757  36.352  12.142   3.341
38158W        W 8758   6.397  26.138   2.497
38159W        W 8759  13.731  40.091  11.600
38160W        W 8760  37.630  21.129  10.764
38161W        W 8761  18.525  38.461  10.797
38162W        W 8762  39.639   5.443  11.151
38163W        W 8763  30.834  36.041  11.599
38164W        W 8764  14.838  15.693  11.278
38165W        W 8765  38.702  28.793  13.454
38166W        W 8766  15.400  37.525  14.937
38167W        W 8767  15.180  39.680   2.276
38168W        W 8768  44.659  24.257  12.383
38169W        W 8769  42.517  24.738   2.821
38170W        W 8770  38.009  39.775   3.185
38171W        W 8771  12.174  31.591   3.385
38172W        W 8772  18.600  42.985   0.804
38173W        W 8773  16.732  29.591   4.152
38174W        W 8774  22.256  44.073   2.760
38175W        W 8775  37.148   2.299  12.051
38176W        W 8776  21.012   6.557   2.151
38177W        W 8777  17.710  15.103   0.241
38178W        W 8778   4.361  20.834   1.647
38179W        W 8779   3.756  10.208   0.863
38180W        W 8780  18.280  29.506   4.571
38181W        W 8781  32.391  28.004  13.213
38182W        W 8782  26.708  28.111  11.644
38183W        W 8783   9.019  11.214  13.585
38184W        W 8784  14.582   7.235   4.138
38185W        W 8785  44.806   5.768  10.624
38186W        W 8786  43.539  13.887  14.725
38187W        W 8787  21.995  35.172  13.591
38188W        W 8788   1.155   6.834  12.510
38189W        W 8789  37.549  28.957   0.418
38190W        W 8790  24.481  33.289   0.380
38191W        W 8791  14.733  23.490  14.930
38192W        W 8792  42.815  42.583   0.952
38193W        W 8793  32.152  29.110   0.300
38194W        W 8794  20.643   9.303   1.417
38195W        W 8795  29.529  18.837  11.182
38196W        W 8796  34.862  16.802  11.123
38197W        W 8797  10.188  19.671   1.413
38198W        W 8798  34.490  36.056  14.725
38199W        W 8799   7.775  15.816   3.623
38200W        W 8800  17.603   2.098   3.600
38201W        W 8801  22.264   4.261   3.230
38202W        W 8802   0.252   6.832   3.911
38203W        W 8803  32.147  37.815   2.836
38204W        W 8804  30.874   1.651   4.150
38205W        W 8805  28.628  33.916  12.319
38206W        W 8806  27.573  29.056  14.212
38207W        W 8807  36.936  14.015   2.350
38208W        W 8808   0.126  32.783  13.848
38209W        W 8809  14.174   9.612   1.349
38210W        W 8810  10.703   1.221  12.846
38211W        W 8811  26.229   4.369   1.228
38212W        W 8812  15.835  23.032   0.223
38213W        W 8813   6.810   4.588   1.779
38214W        W 8814  14.149   3.736   2.928
38215W        W 8815  34.447   8.687  10.851
38216W        W 8816  26.142  25.917  14.960
38217W        W 8817  30.412  21.595  14.831
38218W        W 8818  17.083  15.378  13.331
38219W        W 8819  38.750   5.444  10.453
38220W        W 8820  16.404  30.489   1.943
38221W        W 8821  22.249  34.825   1.300
38222W        W 8822  21.060  22.140   3.418
38223W        W 8823  21.785  39.975  14.879
38224W        W 8824  40.263   0.722  14.869
38225W        W 8825  17.657  41.526   4.319
38226W        W 8826   2.848   4.997   3.146
38227W        W 8827  22.021   6.755   0.799
38228W        W 8828  22.736  41.050   3.612
38229W        W 8829  11.821  12.102  13.408
38230W        W 8830  10.811  41.886  10.625
38231W        W 8831   9.329   1.540  13.014
38232W        W 8832  42.353  13.062  14.371
38233W        W 8833   3.457   9.206   3.674
38234W        W 8834  21.143  44.481  14.281
38235W        W 8835  34.618   5.847  10.937
38236W        W 8836  25.990  15.736   9.862
38237W        W 8837  29.188  20.324   1.137
38238W        W 8838  37.552  30.851   4.170
38239W        W 8839  39.745  28.579  11.817
38240W        W 8840  28.904  38.949  11.946
38241W        W 8841  43.548  35.384   1.724
38242W        W 8842  25.351   7.624   5.048
38243W        W 8843  19.572  13.157  10.919
38244W        W 8844  26.418  14.732   3.237
38245W        W 8845  18.554  39.509   4.216
38246W        W 8846  37.489  28.655  12.037
38247W        W 8847  39.508   1.213   2.803
38248W        W 8848   0.107   9.301  11.560
38249W        W 8849  43.741  24.029   1.337
38250W        W 8850  14.210  41.900   1.059
38251W        W 8851  17.776  17.718  10.803
38252W        W 8852  29.215  30.595   3.076
38253W        W 8853   5.578  30.595  11.767
38254W        W 8854  40.958   1.840  13.076
38255W        W 8855  15.173  25.271  14.184
38256W        W 8856  33.936  36.376   2.792
38257W        W 8857  33.810   0.268  14.800
38258W        W 8858  27.204  19.750   2.883
38259W        W 8859  25.333  22.160   3.797
38260W        W 8860  21.606   6.661   3.791
38261W        W 8861  12.073  35.037   3.384
38262W        W 8862   4.898  24.143  12.541
38263W        W 8863  38.540   1.194  13.886
38264W        W 8864   0.939  10.267   1.402
38265W        W 8865  25.507  27.249   4.078
38266W        W 8866  40.702  18.666  13.851
38267W        W 8867   8.791  17.777  12.990
38268W        W 8868  31.495   2.748  13.623
38269W        W 8869   8.490   6.598   3.265
38270W        W 8870   7.808  31.588  10.730
38271W        W 8871   5.945  36.928  14.286
38272W        W 8872  25.495  42.980  13.564
38273W        W 8873  21.889   3.528   2.406
38274W        W 8874   9.779   8.802   4.221
38275W        W 8875   0.925  18.217   1.390
38276W        W 8876   0.297  25.675  14.902
38277W        W 8877  34.434  29.490   3.195
38278W        W 8878  38.587  28.437  14.268
38279W        W 8879  27.002  37.577  13.314
38280W        W 8880  19.294  10.700  12.360
38281W        W 8881  28.103  21.594   0.809
38282W        W 8882  22.796  31.193   3.633
38283W        W 8883   7.921  24.010  13.410
38284W        W 8884  25.954  33.862   1.810
38285W        W 8885  25.396  15.161   2.371
38286W        W 8886  42.432  16.219   1.850
38287W        W 8887  14.312  15.878   3.109
38288W        W 8888  27.133  13.399  12.055
38289W        W 8889   1.376  42.096   0.225
38290W        W 8890  20.720  23.622  12.600
38291W        W 8891  40.004  38.047  11.143
38292W        W 8892   3.118  35.013   3.171
38293W        W 8893  15.007  40.812   3.261
38294W        W 8894  33.633  30.668  11.822
38295W        W 8895   2.489   3.399  13.908
38296W        W 8896  41.802   1.636   0.624
38297W        W 8897   1.180  30.617  14.051
38298W        W 8898  18.275  18.267   0.389
38299W        W 8899  43.094  17.145  13.865
38300W        W 8900  41.402  14.730   2.681
38301W        W 8901  39.867  33.070   2.753
38302W        W 8902  26.195  40.949   0.929
38303W        W 8903   8.928  11.786   2.708
38304W        W 8904   5.768  11.717  11.361
38305W        W 8905  19.017  39.048  11.463
38306W        W 8906  27.708   3.205   5.159
38307W        W 8907  19.869   7.290  14.914
38308W        W 8908  36.133  29.126  12.127
38309W        W 8909  16.351  31.473   2.134
38310W        W 8910  41.638  36.376  12.456
38311W        W 8911  26.892  11.818   1.253
38312W        W 8912   4.361  12.115  12.042
38313W        W 8913  18.700  19.612   3.908
38314W        W 8914  29.039  37.103  12.380
38315W        W 8915  28.334  39.508   3.665
38316W        W 8916  25.428  30.544   3.340
38317W        W 8917  18.382   4.180  11.480
38318W        W 8918  42.901  28.702   4.824
38319W        W 8919  37.795   3.938   2.741
38320W        W 8920  27.225   5.169   0.252
38321W        W 8921   1.316   2.668  12.851
38322W        W 8922  35.655  27.990  12.843
38323W        W 8923   0.532  12.050  14.477
38324W        W 8924  36.137   6.214   0.430
38325W        W 8925  31.907  29.572   0.362
38326W        W 8926  32.398   1.363  13.597
38327W        W 8927  39.827  28.166  10.863
38328W        W 8928  16.845   8.222  13.325
38329W        W 8929  11.377   9.692   0.976
38330W        W 8930  22.103  35.549   4.564
38331W        W 8931  44.006  29.490  14.496
38332W        W 8932  23.849  15.170   2.865
38333W        W 8933  34.776  20.075   1.150
38334W        W 8934   8.641  24.900  11.136
38335W        W 8935  44.295  42.968  12.394
38336W        W 8936  37.868   4.514   1.911
38337W        W 8937  10.061  35.650  14.967
38338W        W 8938  15.677  40.117  13.114
38339W        W 8939  25.110  44.965  13.920
38340W        W 8940   4.227   1.264   1.178
38341W        W 8941  31.060  39.725  12.427
38342W        W 8942  14.733   1.284   2.853
38343W        W 8943  38.986  18.008   2.763
38344W        W 8944  25.142  10.261   4.268
38345W        W 8945   3.272  43.303  13.006
38346W        W 8946  15.735  30.637   0.867
38347W        W 8947  21.069  43.536  13.277
38348W        W 8948  30.703  13.336  11.104
38349W        W 8949  18.599   4.275  13.861
38350W        W 8950   3.446   2.486  14.404
38351W        W 8951  27.384  42.668  12.102
38352W        W 8952   4.831  32.146  12.932
38353W        W 8953  16.342  12.749  10.691
38354W        W 8954   3.486  12.559   3.741
38355W        W 8955  20.778  11.418  14.011
38356W        W 8956   2.456  32.057   0.102
38357W        W 8957  18.092   2.733  10.570
38358W        W 8958  21.833  17.009  14.051
38359W        W 8959  42.252  28.629   4.174
38360W        W 8960  22.101  17.677  11.854
38361W        W 8961  24.890  33.270  14.049
38362W        W 8962  29.137   0.785  12.678
38363W        W 8963   4.638  14.224  13.424
38364W        W 8964  14.264  19.217   3.083
38365W        W 8965  17.694  29.547   4.548
38366W        W 8966  24.722  28.592   4.105
38367W        W 8967  32.827  13.903  14.411
38368W        W 8968  23.611   8.604  13.826
38369W        W 8969  19.113  10.020  13.025
38370W        W 8970  20.366  35.499   1.447
38371W        W 8971  36.989  23.572  12.478
38372W        W 8972   3.913  18.034  11.903
38373W        W 8973   1.899  40.111   0.558
38374W        W 8974   7.228  13.931  12.456
38375W        W 8975  43.037  13.868  11.060
38376W        W 8976   6.814  13.760  12.073
38377W        W 8977   6.220  36.973  13.850
38378W        W 8978  33.103   9.365   3.715
38379W        W 8979   3.173  33.174  14.958
38380W        W 8980  12.669  32.847  11.564
38381W        W 8981  38.285   5.596   2.303
38382W        W 8982  41.032   9.696  11.681
38383W        W 8983  31.598  37.048  12.177
38384W        W 8984  21.741   1.909   3.088
38385W        W 8985   3.202   4.529   2.262
38386W        W 8986  42.004  37.535   4.520
38387W        W 8987  41.077   6.390   2.545
38388W        W 8988  43.665  19.790  13.344
38389W        W 8989   5.268   4.295  11.084
38390W        W 8990  20.586   2.869  13.870
38391W        W 8991  30.673   7.530   2.062
38392W        W 8992  41.023  36.895  14.434
38393W        W 8993   9.217  30.040  10.793
38394W        W 8994  23.942  31.789   0.339
38395W        W 8995  15.358  19.034   0.355
38396W        W 8996  31.654  17.615   3.121
38397W        W 8997  38.304  30.050  14.002
38398W        W 8998  30.016  41.496  14.440
38399W        W 8999  40.144  37.769   1.412
38400W        W 9000  37.976   5.009   1.946
38401W        W 9001  33.386  23.019  12.895
38402W        W 9002  13.564  44.804  12.614
38403W        W 9003  31.004  28.803   4.092
38404W        W 9004  37.603  27.534  11.953
38405W        W 9005   1.165  38.101   3.814
38406W        W 9006  24.653  15.676   0.788
38407W        W 9007   4.000  20.684  10.695
38408W        W 9008  28.386  10.244  12.823
38409W        W 9009  23.780   8.842   1.129
38410W        W 9010   6.432  14.606   4.128
38411W        W 9011  43.331   5.445  13.753
38412W        W 9012  37.419   5.257   1.734
38413W        W 9013  13.629  17.581  13.743
38414W        W 9014  29.635  21.876  12.992
38415W        W 9015  24.521  27.579   1.263
38416W        W 9016   0.709  15.599   0.951
38417W        W 9017  41.313  17.712   4.477
38418W        W 9018   2.218  28.675  13.282
38419W        W 9019   7.914  40.044   2.728
38420W        W 9020   1.608  17.628   4.170
38421W        W 9021  43.250  26.581   4.649
38422W        W 9022  36.481   8.739   4.676
38423W        W 9023  19.359  15.188  10.783
38424W        W 9024  40.925  26.832  14.842
38425W        W 9025  42.960   3.693   4.559
38426W        W 9026  18.229  28.977   3.783
38427W        W 9027  13.764  27.966  10.999
38428W        W 9028  10.674  12.407   3.024
38429W        W 9029  38.322  26.474   2.161
38430W        W 9030  41.427  35.216   0.460
38431W        W 9031  40.416  40.930   0.256
38432W        W 9032  30.061   3.689  14.338
38433W        W 9033  22.220   8.895  14.437
38434W        W 9034   2.206  32.130   1.174
38435W        W 9035  26.613  15.704  13.801
38436W        W 9036  11.141   4.247   0.562
38437W        W 9037  34.935  21.147  11.672
38438W        W 9038  16.136  13.896   2.177
38439W        W 9039  26.977  12.586   4.727
38440W        W 9040   4.831  22.600   3.325
38441W        W 9041   4.093   9.168  12.095
38442W        W 9042  22.272  39.890   1.998
38443W        W 9043  10.760  35.449  12.093
38444W        W 9044  41.895  24.098   2.727
38445W        W 9045  24.905  33.350  11.962
38446W        W 9046  39.914  28.696  10.802
38447W        W 9047  43.455  37.521   1.735
38448W        W 9048   5.470  28.401   3.521
38449W        W 9049  11.365  11.786   3.073
38450W        W 9050  31.658   8.687  11.524
38451W        W 9051   5.254  20.160  10.716
38452W        W 9052  38.862  43.511  12.521
38453W        W 9053  11.781   6.668  12.103
38454W        W 9054  22.400  19.604   2.182
38455W        W 9055   0.035  16.982   0.443
38456W        W 9056  19.393  35.109   2.938
38457W        W 9057  14.640  26.128   3.838
38458W        W 9058  31.938  42.890   4.091
38459W        W 9059   4.112  17.149  12.477
38460W        W 9060  42.576  42.787   0.049
38461W        W 9061  23.677   0.777   0.294
38462W        W 9062  41.086  44.967  10.759
38463W        W 9063  26.080  37.588  11.426
38464W        W 9064  21.509  32.176   0.297
38465W        W 9065  25.124  34.347   2.024
38466W        W 9066  26.730  38.420  12.527
38467W        W 9067  12.423  20.145  11.783
38468W        W 9068  18.716  21.519   1.801
38469W        W 9069  32.027  33.572  14.926
38470W        W 9070  12.619   4.952   4.217
38471W        W 9071  23.181  29.254   4.696
38472W        W 9072  28.113  44.042   1.429
38473W        W 9073  43.774  26.249  13.848
38474W        W 9074  10.224  21.675  11.144
38475W        W 9075   0.376   2.655  13.136
38476W        W 9076  27.640   4.780  11.119
38477W        W 9077  30.273  28.628  12.572
38478W        W 9078  14.754  19.609   2.704
38479W        W 9079  42.028  43.838  14.449
38480W        W 9080   5.653  36.784  13.844
38481W        W 9081  19.736   4.197  11.148
38482W        W 9082  24.900  12.120  13.452
38483W        W 9083  40.013  40.791   2.682
38484W        W 9084  20.028  40.939  13.253
38485W        W 9085   4.623  20.339  14.344
38486W        W 9086  11.286  23.273  10.965
38487W        W 9087  33.181  42.806   0.769
38488W        W 9088  33.470  44.223  13.443
38489W        W 9089  34.263  25.090  12.046
38490W        W 9090  24.447  43.586   2.777
38491W        W 9091   8.203  24.518  14.904
38492W        W 9092  40.346  20.651   2.389
38493W        W 9093  18.198  23.641   3.601
38494W        W 9094  24.412  38.656  13.020
38495W        W 9095  28.766   7.750  14.270
38496W        W 9096  16.586  12.214  12.910
38497W        W 9097  19.307  19.815   1.632
38498W        W 9098  34.923   1.229   1.402
38499W        W 9099  31.202   0.760   3.595
38500W        W 9100  17.511   5.084   4.203
38501W        W 9101  13.906   0.715  10.877
38502W        W 9102   4.266  44.346   0.009
38503W        W 9103  38.894  31.685   0.843
38504W        W 9104  14.850  30.928   4.778
38505W        W 9105  12.685  38.794   4.465
38506W        W 9106  26.714  24.550   4.151
38507W        W 9107  32.583  31.576  12.854
38508W        W 9108  37.520  33.652   2.803
38509W        W 9109  14.609  42.397  11.607
38510W        W 9110  37.433  19.595   4.702
38511W        W 9111  14.930  13.535   1.256
38512W        W 9112  40.961  13.887   1.453
38513W        W 9113   5.901  13.699   3.818
38514W        W 9114  26.135  21.757  13.465
38515W        W 9115  37.111   6.904   4.350
38516W        W 9116   1.337  43.809  10.468
38517W        W 9117  24.789  32.928  14.990
38518W        W 9118  17.153  38.558  10.787
38519W        W 9119  41.132  42.422   4.684
38520W        W 9120  11.009  21.178   2.120
38521W        W 9121  36.796  17.807   2.341
38522W        W 9122  32.109  37.474  14.490
38523W        W 9123  36.267  25.844   2.242
38524W        W 9124  25.617   0.883  14.980
38525W        W 9125  40.628  12.330  11.442
38526W        W 9126  10.944  12.198  11.343
38527W        W 9127  11.772  20.255   2.734
38528W        W 9128   2.427  21.152  13.041
38529W        W 9129  10.778   2.186  12.004
38530W        W 9130  23.287  37.311  12.575
38531W        W 9131   9.888  18.853  12.094
38532W        W 9132  21.435  23.632  11.526
38533W        W 9133  40.546  30.253   0.271
38534W        W 9134  20.068  25.873  14.004
38535W        W 9135  26.705   7.916  11.784
38536W        W 9136   4.829   5.928  13.448
38537W        W 9137  19.322  26.661   2.810
38538W        W 9138  25.980  41.312  13.926
38539W        W 9139   7.861   5.390  14.944
38540W        W 9140  34.620  11.086   4.246
38541W        W 9141  18.801   5.992   0.471
38542W        W 9142  20.896  27.176   4.231
38543W        W 9143   3.959  41.023  10.769
38544W        W 9144  19.533  39.515   4.625
38545W        W 9145  23.000   3.507   1.976
38546W        W 9146  11.078  25.839  11.154
38547W        W 9147  26.434  27.619  10.308
38548W        W 9148  21.396  28.529  11.460
38549W        W 9149   0.304  18.762   4.279
38550W        W 9150  40.061  21.184   4.136
38551W        W 9151  39.130  11.745  10.613
38552W        W 9152  16.601  14.682   2.724
38553W        W 9153  20.968  38.550  13.557
38554W        W 9154  21.999  28.532  11.591
38555W        W 9155  16.716   9.619   4.486
38556W        W 9156  25.039  16.124  10.792
38557W        W 9157  39.396  11.132  12.168
38558W        W 9158  19.330  23.501   3.627
38559W        W 9159  43.712   6.949   1.315
38560W        W 9160  25.636  20.643   3.813
38561W        W 9161  34.099  33.503   0.953
38562W        W 9162   7.803  18.961   2.760
38563W        W 9163  33.539  40.364  11.808
38564W        W 9164  39.496   9.825   0.675
38565W        W 9165  36.164  44.897  14.835
38566W        W 9166  36.488  33.581   2.672
38567W        W 9167  14.999  15.691  14.390
38568W        W 9168  39.355  22.972  10.761
38569W        W 9169  21.548   7.290   3.103
38570W        W 9170  12.843   4.388   1.915
38571W        W 9171  17.590  39.799  14.095
38572W        W 9172  31.453   3.717  12.544
38573W        W 9173  36.659  18.003  11.099
38574W        W 9174  37.818   7.647  14.897
38575W        W 9175  29.878  27.213   2.253
38576W        W 9176   8.694   1.433  11.948
38577W        W 9177  15.777  29.748   5.024
38578W        W 9178  26.302  29.442  13.753
38579W        W 9179  31.350  25.612  12.535
38580W        W 9180  22.133  12.699  11.063
38581W        W 9181   9.352  19.577  11.528
38582W        W 9182  29.760  31.086  13.295
38583W        W 9183  33.884  39.632   0.291
38584W        W 9184   3.813  35.658   3.126
38585W        W 9185  33.479  33.834  14.292
38586W        W 9186  18.502  30.979   1.915
38587W        W 9187  39.921   9.242   4.533
38588W        W 9188  16.594  19.630  12.419
38589W        W 9189   4.739  39.638   3.598
38590W        W 9190  11.165  26.410   0.379
38591W        W 9191  10.396  39.659  11.872
38592W        W 9192  32.676  30.994  14.247
38593W        W 9193  41.740   9.429  14.905
38594W        W 9194  34.867  10.850   3.322
38595W        W 9195  28.218  22.996  10.767
38596W        W 9196  34.903  12.528  14.893
38597W        W 9197  19.507  21.728   2.764
38598W        W 9198   8.638  43.449   0.509
38599W        W 9199  26.953   1.451   0.524
38600W        W 9200   2.842   4.136  12.017
38601W        W 9201  43.960  37.954   3.842
38602W        W 9202  31.152  33.655   2.439
38603W        W 9203  13.714  25.628  12.875
38604W        W 9204  38.549   6.307   2.829
38605W        W 9205  40.651  21.476   4.962
38606W        W 9206  39.736  36.972   2.688
38607W        W 9207  39.817  23.808   2.877
38608W        W 9208   1.350  36.166   2.186
38609W        W 9209  21.401  35.322   1.448
38610W        W 9210  21.529   6.285  10.910
38611W        W 9211  25.281  32.927  14.072
38612W        W 9212  36.006  33.325   2.610
38613W        W 9213  40.481  20.221  11.303
38614W        W 9214  10.071  21.656  14.409
38615W        W 9215   9.839  33.866   0.667
38616W        W 9216  18.872   8.282  12.679
38617W        W 9217  24.408  41.821   4.531
38618W        W 9218  36.543  27.630   0.905
38619W        W 9219  35.786  39.414  12.139
38620W        W 9220  35.571  24.298  13.524
38621W        W 9221   6.644  15.020  12.466
38622W        W 9222  37.346  11.932   0.411
38623W        W 9223  27.086  34.947   1.583
38624W        W 9224  35.665  28.483   3.689
38625W        W 9225  33.884  38.133  12.092
38626W        W 9226  40.795   2.595  12.082
38627W        W 9227  41.703   3.738   4.094
38628W        W 9228  14.195  34.443  12.170
38629W        W 9229  32.682   9.426  14.862
38630W        W 9230  29.800  19.131   4.626
38631W        W 9231  32.569   2.196   0.749
38632W        W 9232  22.293  40.563  12.937
38633W        W 9233   1.426   8.342   1.878
38634W        W 9234  30.110   0.059  12.884
38635W        W 9235  34.726  13.797  14.400
38636W        W 9236   3.585  10.137   2.862
38637W        W 9237  13.510   0.482   0.800
38638W        W 9238  28.639   3.446  14.772
38639W        W 9239  38.505  39.892  12.102
38640W        W 9240  41.726  41.831   1.729
38641W        W 9241  20.327  19.260   0.921
38642W        W 9242  40.426  24.985   1.852
38643W        W 9243  12.544   2.924  11.377
38644W        W 9244  12.250  31.182  13.634
38645W        W 9245   7.919  29.107   2.293
38646W        W 9246  15.305  14.619  12.321
38647W        W 9247   6.315  24.007  12.951
38648W        W 9248  43.747   8.275   2.737
38649W        W 9249  29.073   8.378   1.464
38650W        W 9250   3.810   9.079  14.118
38651W        W 9251  41.515  27.126  13.095
38652W        W 9252  10.086  24.698  13.143
38653W        W 9253  25.790  26.421  11.288
38654W        W 9254  14.679   0.265  11.651
38655W        W 9255  43.480   0.201   3.202
38656W        W 9256  27.066  17.084  12.422
38657W        W 9257  22.661  27.204   4.685
38658W        W 9258  18.244  17.356   1.325
38659W        W 9259  22.900  19.272  13.323
38660W        W 9260  38.506   6.800  14.212
38661W        W 9261  38.429  31.881   0.954
38662W        W 9262   0.478  37.148   2.671
38663W        W 9263  32.453  23.994  12.441
38664W        W 9264   0.508  38.917  13.814
38665W        W 9265  37.869  14.347  12.534
38666W        W 9266  20.552  25.035  13.779
38667W        W 9267  37.457   9.906   3.624
38668W        W 9268  21.265   6.868   3.253
38669W        W 9269  28.532  32.034   4.510
38670W        W 9270  42.517  37.807   2.239
38671W        W 9271  44.328  24.658  12.475
38672W        W 9272  15.223  25.253  10.943
38673W        W 9273  30.869  44.886   0.777
38674W        W 9274  21.493  35.520  14.812
38675W        W 9275  19.798  27.674  12.428
38676W        W 9276  26.732  19.966   2.115
38677W        W 9277  14.644   8.942   3.639
38678W        W 9278   4.909  35.142   5.120
38679W        W 9279  39.519  22.010   2.658
38680W        W 9280   6.970  18.159   2.811
38681W        W 9281  21.291  38.388  13.925
38682W        W 9282  25.183  16.950  14.249
38683W        W 9283  21.193  21.512  13.894
38684W        W 9284  44.280  36.339  13.966
38685W        W 9285  33.551   4.700   0.187
38686W        W 9286   0.425  36.377   3.884
38687W        W 9287  15.628  34.380   2.793
38688W        W 9288  11.356  16.103  12.420
38689W        W 9289   7.153  17.138   4.926
38690W        W 9290  20.517  22.425   3.741
38691W        W 9291  38.906  29.873  12.168
38692W        W 9292  41.544  30.953   3.682
38693W        W 9293  19.738  43.344  10.743
38694W        W 9294  20.296  31.647  14.639
38695W        W 9295   9.194  38.388  12.059
38696W        W 9296  27.590   7.113   0.848
38697W        W 9297  10.181  23.168  12.453
38698W        W 9298  37.336   3.458   1.463
38699W        W 9299   1.991   6.893   1.471
38700W        W 9300  39.830   0.708  12.562
38701W        W 9301  42.467   9.427   4.840
38702W        W 9302   6.402  30.171   4.165
38703W        W 9303  13.533  13.209  13.785
38704W        W 9304  43.511   5.063   3.808
38705W        W 9305   4.943  12.411   2.105
38706W        W 9306   9.332  42.375  14.028
38707W        W 9307  15.475  13.264   0.839
38708W        W 9308  32.203   8.314   1.430
38709W        W 9309  10.938  19.648  13.528
38710W        W 9310   9.278  37.100  13.396
38711W        W 9311   5.796  40.726   3.158
38712W        W 9312  42.356  18.103  13.592
38713W        W 9313   5.464  33.327   3.533
38714W        W 9314  18.646  26.847   0.408
38715W        W 9315  21.281  29.239   0.256
38716W        W 9316  29.579  18.373   0.848
38717W        W 9317  27.798   0.204   1.754
38718W        W 9318  21.160  28.514  14.012
38719W        W 9319  16.557   1.104  14.016
38720W        W 9320  28.191  15.586  12.070
38721W        W 9321   4.282  15.677   4.509
38722W        W 9322  38.492  35.198  13.416
38723W        W 9323  41.038  32.847   2.408
38724W        W 9324  27.559  21.579   1.296
38725W        W 9325  26.689  21.012   2.269
38726W        W 9326  38.407  31.349   0.824
38727W        W 9327  28.756   8.846   4.936
38728W        W 9328   8.150  22.524   4.576
38729W        W 9329  20.612  12.993   2.345
38730W        W 9330   6.171  11.795   4.224
38731W        W 9331   0.519  13.271   4.527
38732W        W 9332  32.645  27.540   4.698
38733W        W 9333   8.984  20.287  11.183
38734W        W 9334  29.031  19.857   1.367
38735W        W 9335   6.223  19.886   3.179
38736W        W 9336  43.333  33.557   1.257
38737W        W 9337  31.388  30.222   1.463
38738W        W 9338  28.179  23.657   1.522
38739W        W 9339  42.929  19.103   1.808
38740W        W 9340  13.916  15.033   1.778
38741W        W 9341  16.638  13.119   2.356
38742W        W 9342  37.023  29.725  14.926
38743W        W 9343   8.854  15.660  11.625
38744W        W 9344  15.853  37.223  11.261
38745W        W 9345   4.832  27.503   0.475
38746W        W 9346  13.758  10.731  12.321
38747W        W 9347   7.860   4.823   2.279
38748W        W 9348  13.595  25.887   0.249
38749W        W 9349  30.894  34.513   3.093
38750W        W 9350  11.441   3.366  13.017
38751W        W 9351  34.444   2.181  11.623
38752W        W 9352  18.144  34.108  13.853
38753W        W 9353  15.969  26.613  12.898
38754W        W 9354  21.053  34.985   1.224
38755W        W 9355  35.873  29.950  11.504
38756W        W 9356  12.733  42.819  13.135
38757W        W 9357  39.823   5.233   1.348
38758W        W 9358  23.720  17.137   2.464
38759W        W 9359  37.560  12.061  12.883
38760W        W 9360  33.868   0.668   0.403
38761W        W 9361  36.557   4.165  13.598
38762W        W 9362   1.897  14.132   2.806
38763W        W 9363  12.355  18.109  14.029
38764W        W 9364  31.390  21.211  13.368
38765W        W 9365  11.281  35.377   3.630
38766W        W 9366  40.891  27.715   4.521
38767W        W 9367  28.448   8.148   3.283
38768W        W 9368  11.751  30.922  10.358
38769W        W 9369  37.069   2.976   1.441
38770W        W 9370  36.414  36.940   3.296
38771W        W 9371  37.676  27.096   1.223
38772W        W 9372  25.630  31.564  13.008
38773W        W 9373  13.325  40.210  12.176
38774W        W 9374  14.208  41.858   4.922
38775W        W 9375  17.894  24.249  13.020
38776W        W 9376  11.893  44.414   4.020
38777W        W 9377  22.766  36.340   4.079
38778W        W 9378  22.118   3.439   1.935
38779W        W 9379  11.565   9.988  11.563
38780W        W 9380  34.592   8.901   2.770
38781W        W 9381  19.022  43.315  14.907
38782W        W 9382  29.329   9.514   0.735
38783W        W 9383  29.501  20.351  12.617
38784W        W 9384   0.314  39.824  12.031
38785W        W 9385  14.151  36.003  14.872
38786W        W 9386  41.963   1.679  14.069
38787W        W 9387  32.287   9.910   1.302
38788W        W 9388  15.281  35.526  12.985
38789W        W 9389  40.926  13.254  10.523
38790W        W 9390  20.798  38.875  12.522
38791W        W 9391   2.320  30.405   2.736
38792W        W 9392  35.855  26.226  13.553
38793W        W 9393  10.259   7.673   3.227
38794W        W 9394  35.619  12.793   4.653
38795W        W 9395  22.497   2.435   2.647
38796W        W 9396  42.093   5.710  13.840
38797W        W 9397  22.222  20.549   1.081
38798W        W 9398  38.860  12.252   0.017
38799W        W 9399   2.419   3.716  12.327
38800W        W 9400  19.238  43.087   2.855
38801W        W 9401  35.663   5.921   1.177
38802W        W 9402  33.081  31.874   2.221
38803W        W 9403  26.264  28.141  13.449
38804W        W 9404  33.072  41.845   3.799
38805W        W 9405  35.571  34.849   1.200
38806W        W 9406  36.945  43.328   0.591
38807W        W 9407   3.824  10.775   0.170
38808W        W 9408  39.555   5.360  13.965
38809W        W 9409   6.968  16.836  13.519
38810W        W 9410   8.350   4.317  14.530
38811W        W 9411  19.818  43.259   1.245
38812W        W 9412   7.530  39.296  12.787
38813W        W 9413   3.269  23.559   3.847
38814W        W 9414  11.124  43.497  14.493
38815W        W 9415  18.375   0.720   0.324
38816W        W 9416   5.253  13.309  14.898
38817W        W 9417  23.755  19.487   3.302
38818W        W 9418   0.955  13.355   1.778
38819W        W 9419  39.719   7.009  10.785
38820W        W 9420  19.732  39.957   1.289
38821W        W 9421  23.756  42.801  14.018
38822W        W 9422  20.020  21.544   0.952
38823W        W 9423   5.729  23.548  12.501
38824W        W 9424  31.459  29.864  11.578
38825W        W 9425   5.784   0.398   1.253
38826W        W 9426   0.913  24.030  12.550
38827W        W 9427  14.994  11.797  10.932
38828W        W 9428   7.778  40.995  13.317
38829W        W 9429  25.401  43.819  14.222
38830W        W 9430  16.197  38.013   1.154
38831W        W 9431  13.493  35.246   4.228
38832W        W 9432  41.623   3.827   4.982
38833W        W 9433  28.385  24.146  13.280
38834W        W 9434  20.672  19.794   1.513
38835W        W 9435   6.303  14.760  14.052
38836W        W 9436  14.713   8.247   1.775
38837W        W 9437  38.797  33.337  14.391
38838W        W 9438  10.737  42.059   1.671
38839W        W 9439  20.142   2.662  11.643
38840W        W 9440   4.757   1.281  10.420
38841W        W 9441   1.458  11.125  11.760
38842W        W 9442  36.984   5.993  13.391
38843W        W 9443  26.581   8.846   3.923
38844W        W 9444   6.953   4.850   1.351
38845W        W 9445  43.149  34.876   1.140
38846W        W 9446  23.955  38.555   2.298
38847W        W 9447  38.656  12.236  11.183
38848W        W 9448   9.723  21.427  12.505
38849W        W 9449  27.520  12.889   2.202
38850W        W 9450   4.047   1.757   5.078
38851W        W 9451   5.717  10.347  13.348
38852W        W 9452   2.445  18.022  13.991
38853W        W 9453   4.978  22.014   1.706
38854W        W 9454  22.559   4.020  12.469
38855W        W 9455   6.475  20.459  13.537
38856W        W 9456  44.824   3.603  13.915
38857W        W 9457  30.120  43.006   1.706
38858W        W 9458  14.509  42.781  10.679
38859W        W 9459  30.345  34.583   1.453
38860W        W 9460   5.926  38.966  13.454
38861W        W 9461   8.393  40.332  14.942
38862W        W 9462  41.779  20.156   0.479
38863W        W 9463  27.478   7.500   2.904
38864W        W 9464  35.913   6.850  10.520
38865W        W 9465  24.111  38.785  10.648
38866W        W 9466  28.433   7.365  14.965
38867W        W 9467  31.556  37.858  10.645
38868W        W 9468  10.418  24.384  11.283
38869W        W 9469  43.771  21.819   3.299
38870W        W 9470  13.398  29.945   1.351
38871W        W 9471   9.541  20.684   0.225
38872W        W 9472  29.966  33.362  13.581
38873W        W 9473  17.336   7.881   1.259
38874W        W 9474  34.484  29.047  13.273
38875W        W 9475  33.832  23.899  11.195
38876W        W 9476   5.041   0.002  12.446
38877W        W 9477  15.720  20.795  11.464
38878W        W 9478  40.874  41.390  11.542
38879W        W 9479  31.791  36.806  12.581
38880W        W 9480  37.876  20.980  13.271
38881W        W 9481  38.949  13.141  13.379
38882W        W 9482  27.156  36.563  10.714
38883W        W 9483  31.611  12.294   1.768
38884W        W 9484  22.690   9.949  11.690
38885W        W 9485   4.306  35.815  13.424
38886W        W 9486  32.611  12.473  14.097
38887W        W 9487  21.239  22.021   2.969
38888W        W 9488  13.475  10.693   0.819
38889W        W 9489  28.363  28.543   2.269
38890W        W 9490  21.452  34.032   2.858
38891W        W 9491   4.590  25.807  13.222
38892W        W 9492  41.405  41.424  11.142
38893W        W 9493  40.619   6.824  14.998
38894W        W 9494  44.241   3.372   1.378
38895W        W 9495  32.384  40.462   3.624
38896W        W 9496  27.093   6.981  13.032
38897W        W 9497  30.880  17.319   2.388
38898W        W 9498   1.997  27.375  12.501
38899W        W 9499  21.563  22.651  12.983
38900W        W 9500   0.808  19.101  14.478
38901W        W 9501  41.789  26.994   0.222
38902W        W 9502   2.655  17.283   0.100
38903W        W 9503  12.698  27.663  10.631
38904W        W 9504  11.094  13.217  13.785
38905W        W 9505  41.466  12.608   0.278
38906W        W 9506  29.294  15.947   0.270
38907W        W 9507  33.993  28.749   2.315
38908W        W 9508  19.086  30.140   2.789
38909W        W 9509   4.800  22.704  12.217
38910W        W 9510   1.781  25.938  11.166
38911W        W 9511  14.926  44.851   3.557
38912W        W 9512  15.248  10.327  14.961
38913W        W 9513  38.735  34.351  14.400
38914W        W 9514  19.564  20.503  12.956
38915W        W 9515  30.850  34.105  12.857
38916W        W 9516  37.056  36.149  14.409
38917W        W 9517  11.890  36.643  10.810
38918W        W 9518  19.637  13.992  11.591
38919W        W 9519  11.718  16.973  11.674
38920W        W 9520  15.054  32.994   3.353
38921W        W 9521  42.826   5.906   4.380
38922W        W 9522  39.315   3.307   2.337
38923W        W 9523  31.605   3.106   0.559
38924W        W 9524  31.668  37.967  14.568
38925W        W 9525  42.428  34.110  13.943
38926W        W 9526  34.082  28.102   1.274
38927W        W 9527  32.288   4.718  14.182
38928W        W 9528   4.894   5.193   4.484
38929W        W 9529  37.584  29.174   1.364
38930W        W 9530  19.688   5.645   0.374
38931W        W 9531  40.753  28.914  14.909
38932W        W 9532  31.404  33.010   0.044
38933W        W 9533  26.958  42.018  14.442
38934W        W 9534  24.911  40.370  14.838
38935W        W 9535  12.397  43.202  13.083
38936W        W 9536  10.780  33.462  12.973
38937W        W 9537  37.738  29.477   0.193
38938W        W 9538  13.777  38.475  14.546
38939W        W 9539  19.772  38.870   4.189
38940W        W 9540  25.886  20.962   2.560
38941W        W 9541  19.711   9.613   0.804
38942W        W 9542   8.951  21.729  12.918
38943W        W 9543  40.476   7.418   3.156
38944W        W 9544  17.516  11.854  13.785
38945W        W 9545   8.908   5.548   1.356
38946W        W 9546  37.468  40.731   1.466
38947W        W 9547   8.155   5.409  10.633
38948W        W 9548  43.942  15.750   3.228
38949W        W 9549  25.034  19.027  14.747
38950W        W 9550  16.014  12.528   4.311
38951W        W 9551  37.478  30.943  11.390
38952W        W 9552   6.106   3.641   1.222
38953W        W 9553  37.436   0.909   3.184
38954W        W 9554  28.672  36.620   4.149
38955W        W 9555  29.134   5.288  12.969
38956W        W 9556   5.308   6.894  11.691
38957W        W 9557  18.174  43.074  11.461
38958W        W 9558  13.789  19.280   3.323
38959W        W 9559  11.168  15.376  14.873
38960W        W 9560  33.311  31.001  11.098
38961W        W 9561  22.280   3.848   3.790
38962W        W 9562  31.750  29.936   3.708
38963W        W 9563   1.830  43.989  11.280
38964W        W 9564   5.492  37.296  12.560
38965W        W 9565  14.122  43.507  13.619
38966W        W 9566   5.026  40.509   3.714
38967W        W 9567  41.026  17.781  12.092
38968W        W 9568  40.822  17.292  10.000
38969W        W 9569  27.670  20.268   1.550
38970W        W 9570  21.400  39.455  13.883
38971W        W 9571  15.066  15.722   3.750
38972W        W 9572   9.180  12.685  13.839
38973W        W 9573  24.185   2.620  11.630
38974W        W 9574  26.675  16.776  11.608
38975W        W 9575  21.205  34.946  14.846
38976W        W 9576  14.571  23.868  12.652
38977W        W 9577  27.492   6.965  11.498
38978W        W 9578   2.759  29.378   4.475
38979W        W 9579  38.063  28.622  10.225
38980W        W 9580   8.135   8.436  12.166
38981W        W 9581  31.392  37.497  14.851
38982W        W 9582   3.894  43.422   1.963
38983W        W 9583  44.706  16.026   2.325
38984W        W 9584  37.583  41.964  12.504
38985W        W 9585  26.503  26.449  10.274
38986W        W 9586  21.539  44.900   2.800
38987W        W 9587   8.825  14.536   1.343
38988W        W 9588  43.929  32.189   2.874
38989W        W 9589  38.833  15.110   4.807
38990W        W 9590  31.177  22.480   0.183
38991W        W 9591  44.860  30.409  11.478
38992W        W 9592  26.083  20.804  10.802
38993W        W 9593  40.573  21.509  13.836
38994W        W 9594  14.699  40.260  14.962
38995W        W 9595  10.297  17.816   1.507
38996W        W 9596  11.719  42.210   1.828
38997W        W 9597  39.110  44.031   2.773
38998W        W 9598   3.126  44.999   2.940
38999W        W 9599  27.471  35.416   3.721
39000W        W 9600  25.507  13.367   1.943
39001W        W 9601   5.319  22.267  14.840
39002W        W 9602  10.573   2.784   4.141
39003W        W 9603  24.569  15.863  11.654
39004W        W 9604  41.448  30.062   3.722
39005W        W 9605  11.563  38.326   4.244
39006W        W 9606  28.394  13.340   2.029
39007W        W 9607  30.980  11.599  13.622
39008W        W 9608  34.883  15.724   4.550
39009W        W 9609  40.123  21.062   0.942
39010W        W 9610  18.690  37.901  14.512
39011W        W 9611  28.244   9.202   0.412
39012W        W 9612   4.243  19.035  14.242
39013W        W 9613  34.536  15.927   4.239
39014W        W 9614  13.573  11.361   2.331
39015W        W 9615  39.997  13.102  14.841
39016W        W 9616   4.693   2.309   1.255
39017W        W 9617   2.449   6.313  13.458
39018W        W 9618  33.141  34.159   3.110
39019W        W 9619  38.010  40.572   0.321
39020W        W 9620  23.965  36.471  12.023
39021W        W 9621  30.205  15.702  14.829
39022W        W 9622  16.729  28.082   0.479
39023W        W 9623   8.739  33.600  12.864
39024W        W 9624  25.128   4.236  14.531
39025W        W 9625  21.658  40.895   3.144
39026W        W 9626  39.587  36.890   3.790
39027W        W 9627  22.203  24.871  11.226
39028W        W 9628  19.316  16.173   0.297
39029W        W 9629  15.355   5.493   0.051
39030W        W 9630  34.423  42.035   4.632
39031W        W 9631  16.806  35.128  11.803
39032W        W 9632  12.270  36.448   0.841
39033W        W 9633  18.223  22.374   5.083
39034W        W 9634  12.908   6.215  14.434
39035W        W 9635  23.607  29.048   3.933
39036W        W 9636  34.168  28.140   3.993
39037W        W 9637  30.954  15.736  14.597
39038W        W 9638  22.009  36.776   1.097
39039W        W 9639   5.424  44.846  13.880
39040W        W 9640  25.694  14.687  10.751
39041W        W 9641   3.632  33.195   0.983
39042W        W 9642  21.646  28.699   2.397
39043W        W 9643  26.565  28.417   3.168
39044W        W 9644  25.218  23.108  10.674
39045W        W 9645  37.446   1.421  12.391
39046W        W 9646   7.415  21.596   2.839
39047W        W 9647  40.034  26.448  13.952
39048W        W 9648  12.849  18.164   4.245
39049W        W 9649  17.171  42.628  14.852
39050W        W 9650  15.183   7.229  12.028
39051W        W 9651  34.012  28.058   0.205
39052W        W 9652  36.049   8.288   4.179
39053W        W 9653  10.349  38.388   4.880
39054W        W 9654  38.595  25.161   2.324
39055W        W 9655   7.045  11.573   1.892
39056W        W 9656  24.641   2.424   0.298
39057W        W 9657   6.993  31.468   0.193
39058W        W 9658  23.289  37.068  12.089
39059W        W 9659  17.154  28.427   3.058
39060W        W 9660  34.841  18.275   1.272
39061W        W 9661   0.235  19.064   3.807
39062W        W 9662   0.887  38.457   4.665
39063W        W 9663   2.417  39.605   0.392
39064W        W 9664   4.162   4.754  14.843
39065W        W 9665  33.524  34.923  14.786
39066W        W 9666  42.579  29.476  13.878
39067W        W 9667  34.301  13.072  12.942
39068W        W 9668  39.692  28.165   1.233
39069W        W 9669  18.303  22.804  10.728
39070W        W 9670  44.731  21.170  11.378
39071W        W 9671  19.139  23.793   4.593
39072W        W 9672  38.805  42.972   1.184
39073W        W 9673  12.697  27.181   2.361
39074W        W 9674  29.604  35.905  10.281
39075W        W 9675  26.671   4.493  14.477
39076W        W 9676   7.991  35.594  14.930
39077W        W 9677  33.907  12.809  11.998
39078W        W 9678  43.524  27.040   0.791
39079W        W 9679   6.265  13.371  10.715
39080W        W 9680   2.528  13.910   3.140
39081W        W 9681  34.924  27.587   0.316
39082W        W 9682  29.831   4.207  12.050
39083W        W 9683   2.351  39.358  10.622
39084W        W 9684   8.743  42.510  12.487
39085W        W 9685  15.617   7.877  14.110
39086W        W 9686  34.853  42.725   4.179
39087W        W 9687  40.075  41.474   3.812
39088W        W 9688  28.949  25.246  14.032
39089W        W 9689   9.805  20.223   0.302
39090W        W 9690   8.116   5.937  14.955
39091W        W 9691  14.105   2.872  12.437
39092W        W 9692  18.752  13.704  11.674
39093W        W 9693  37.909  12.183  10.684
39094W        W 9694  44.898  18.184   4.624
39095W        W 9695  25.977  14.182   2.762
39096W        W 9696  42.762  21.292   2.363
39097W        W 9697  24.050  44.473  13.054
39098W        W 9698   2.635   5.215  13.799
39099W        W 9699   7.790  37.162   0.723
39100W        W 9700   8.862  19.779  11.284
39101W        W 9701   7.683  34.146  12.581
39102W        W 9702  18.270  19.756  10.672
39103W        W 9703   2.251   1.212   2.529
39104W        W 9704  13.275  41.589  12.655
39105W        W 9705  25.691  10.479  12.087
39106W        W 9706   0.794  35.035  11.535
39107W        W 9707  32.876  15.811   0.054
39108W        W 9708  27.655  44.360   3.834
39109W        W 9709  25.723  41.900   1.447
39110W        W 9710  20.000  28.489   1.661
39111W        W 9711   1.350  11.230   3.869
39112W        W 9712  25.912  37.979   0.636
39113W        W 9713  43.464   9.290  12.427
39114W        W 9714   8.310  36.049   3.292
39115W        W 9715   3.656  32.557  12.319
39116W        W 9716   0.401  12.883  12.046
39117W        W 9717   8.306  39.759  10.747
39118W        W 9718  31.679  20.485   4.629
39119W        W 9719  33.395  32.002   3.045
39120W        W 9720  41.149  12.815  10.807
39121W        W 9721   0.459  34.484   3.970
39122W        W 9722  18.535  23.963   3.218
39123W        W 9723   5.482   5.322   0.257
39124W        W 9724  10.868   7.855  10.667
39125W        W 9725  44.364   2.267   2.194
39126W        W 9726  32.048  14.393  14.482
39127W        W 9727  17.807  22.622  11.221
39128W        W 9728  35.668  42.047  14.888
39129W        W 9729  38.993  41.117  12.130
39130W        W 9730   5.685  43.023  13.913
39131W        W 9731  42.816  27.684   1.788
39132W        W 9732  44.757  14.187  10.804
39133W        W 9733   1.971  40.331  13.180
39134W        W 9734  18.639  12.164   0.661
39135W        W 9735   4.086  20.408  12.001
39136W        W 9736  27.929   5.888   1.752
39137W        W 9737  21.519  37.877  13.995
39138W        W 9738  10.739   0.145   1.217
39139W        W 9739   9.146  36.005   2.138
39140W        W 9740  29.556  28.065   2.854
39141W        W 9741  11.625  27.437  11.706
39142W        W 9742  24.084   7.680   2.285
39143W        W 9743  27.079  35.897   2.273
39144W        W 9744  41.348  14.788  11.169
39145W        W 9745   8.754  34.261  11.517
39146W        W 9746  32.891  42.352  12.093
39147W        W 9747   2.288  13.846   3.596
39148W        W 9748  10.125  14.627  12.043
39149W        W 9749  44.575  43.893  13.443
39150W        W 9750  37.707  23.467   3.188
39151W        W 9751  42.832   8.229   1.789
39152W        W 9752  28.958  42.276   0.437
39153W        W 9753   4.276  43.332  14.053
39154W        W 9754   1.523  35.196  12.026
39155W        W 9755   2.422   2.618   0.205
39156W        W 9756   8.727  32.543  14.721
39157W        W 9757  38.368  31.584  13.418
39158W        W 9758  30.373  21.254   1.152
39159W        W 9759   8.320  28.374   0.681
39160W        W 9760   8.674  29.162  10.499
39161W        W 9761   9.997  29.144  11.098
39162W        W 9762  39.303  27.906  12.510
39163W        W 9763  42.466  22.752  14.407
39164W        W 9764  11.655  43.951   2.839
39165W        W 9765  35.460  42.557   0.669
39166W        W 9766  29.432   6.262   0.535
39167W        W 9767  16.334  25.429   4.510
39168W        W 9768  31.628  42.063   2.323
39169W        W 9769  37.375   3.672  14.018
39170W        W 9770   6.206   4.968  13.312
39171W        W 9771  24.067  13.724   4.656
39172W        W 9772  11.652   2.749   1.195
39173W        W 9773  16.195  41.743   1.277
39174W        W 9774  25.971  22.538  13.943
39175W        W 9775  42.052   6.962   5.188
39176W        W 9776  20.712  10.458   2.695
39177W        W 9777  36.494  37.310  12.275
39178W        W 9778  34.296   5.287   3.767
39179W        W 9779  24.031  33.795  10.168
39180W        W 9780  29.717   1.451   1.326
39181W        W 9781  42.195  26.031   1.668
39182W        W 9782   9.401   3.553  13.092
39183W        W 9783  36.810  11.690  13.910
39184W        W 9784  37.963   9.458  12.103
39185W        W 9785  40.355  12.387  12.453
39186W        W 9786  26.050  27.944  12.453
39187W        W 9787   0.784  27.910   0.903
39188W        W 9788   8.045  32.156  12.994
39189W        W 9789  13.493  17.317   3.505
39190W        W 9790   4.529   4.419  13.520
39191W        W 9791  44.293  42.825  11.389
39192W        W 9792  11.023  36.930   4.234
39193W        W 9793   8.132  44.950  14.367
39194W        W 9794  42.170   1.776  11.210
39195W        W 9795   2.027  27.916  13.932
39196W        W 9796  26.199  30.081   2.000
39197W        W 9797  10.205  38.641  14.474
39198W        W 9798  32.826  39.411   4.227
39199W        W 9799  42.609  36.470  11.188
39200W        W 9800  22.815  11.066  13.444
39201W        W 9801  27.022  35.113   4.485
39202W        W 9802   6.599   9.542   1.416
39203W        W 9803  33.072  38.647  11.840
39204W        W 9804  27.949  15.156  14.442
39205W        W 9805  21.018   8.996   0.521
39206W        W 9806   7.295  11.347   3.167
39207W        W 9807  20.667  44.298   4.011
39208W        W 9808  13.561  37.747   1.396
39209W        W 9809  27.245  15.759  12.875
39210W        W 9810  17.120  16.316   2.401
39211W        W 9811  17.300  18.206  10.700
39212W        W 9812  23.255  31.577   4.493
39213W        W 9813  19.708  38.976  13.514
39214W        W 9814  39.255  30.041   2.399
39215W        W 9815  21.612  33.543  11.213
39216W        W 9816  43.054  37.582   2.715
39217W        W 9817   9.211  17.075  13.585
39218W        W 9818  19.825  40.257   0.165
39219W        W 9819  34.080  42.587   1.731
39220W        W 9820   5.172  30.627   4.258
39221W        W 9821  24.089  29.685  10.563
39222W        W 9822  23.718  16.742  14.510
39223W        W 9823  38.290   6.471   3.280
39224W        W 9824  43.931  11.617   3.169
39225W        W 9825  32.942  29.419  12.816
39226W        W 9826  15.763   6.606  13.037
39227W        W 9827  19.230   3.512  11.239
39228W        W 9828  19.410  31.126  11.150
39229W        W 9829  43.898  33.221  10.669
39230W        W 9830  11.728  31.038   3.892
39231W        W 9831  18.018  35.940   3.648
39232W        W 9832  43.749  13.123  14.497
39233W        W 9833  20.604  31.050  10.396
39234W        W 9834   3.838  36.351  12.874
39235W        W 9835  13.974  16.275  14.069
39236W        W 9836  27.170  27.452  12.588
39237W        W 9837  42.427   4.708   2.770
39238W        W 9838   6.196  34.165   2.669
39239W        W 9839  37.287  34.401  10.701
39240W        W 9840  33.702  11.296   4.288
39241W        W 9841  43.128  26.511  11.023
39242W        W 9842  40.946  24.978  12.948
39243W        W 9843   0.432  25.116   1.471
39244W        W 9844  20.836  10.358  11.046
39245W        W 9845  26.440  25.220  14.734
39246W        W 9846  43.586  36.040  10.282
39247W        W 9847  33.607  14.398   3.798
39248W        W 9848  10.796  33.106   2.887
39249W        W 9849  13.344  29.423  12.504
39250W        W 9850  32.427  37.357  13.075
39251W        W 9851   0.431  16.883   3.075
39252W        W 9852  39.324  25.027  14.412
39253W        W 9853  20.205   6.339   2.284
39254W        W 9854   8.269  11.907  12.510
39255W        W 9855  26.741  30.683   3.894
39256W        W 9856  15.631  15.983  11.108
39257W        W 9857  37.857  39.673  13.078
39258W        W 9858  38.582  35.955  12.950
39259W        W 9859  19.590  44.844   4.080
39260W        W 9860  14.587   4.524   2.730
39261W        W 9861  34.070  29.905  12.021
39262W        W 9862  36.341  35.004   1.139
39263W        W 9863  27.530  41.994   2.890
39264W        W 9864  36.832  34.385   2.453
39265W        W 9865  21.324   9.305  12.894
39266W        W 9866  43.743   6.857   0.426
39267W        W 9867  13.507   7.184   2.754
39268W        W 9868  10.252   2.339  10.745
39269W        W 9869   5.679  37.740  12.374
39270W        W 9870  16.245  39.732   0.287
39271W        W 9871   1.465   2.291   3.733
39272W        W 9872   8.384  14.840  14.667
39273W        W 9873  16.832   3.310   1.321
39274W        W 9874  22.617  26.756   0.375
39275W        W 9875  26.754  25.060  13.454
39276W        W 9876   9.061   1.780  14.523
39277W        W 9877   8.380  22.812   2.384
39278W        W 9878  38.023   6.112  11.438
39279W        W 9879  27.946  22.178   2.831
39280W        W 9880  12.666  12.817   3.614
39281W        W 9881  10.229   9.316   4.816
39282W        W 9882  39.912  21.688  11.643
39283W        W 9883  24.419   0.789   3.204
39284W        W 9884   6.707  33.338  11.122
39285W        W 9885  28.039  25.080   1.234
39286W        W 9886  34.150  42.843   0.861
39287W        W 9887   0.898  29.654   1.941
39288W        W 9888  33.550  37.772  11.957
39289W        W 9889   3.270  29.741   3.739
39290W        W 9890   3.359  19.265  14.306
39291W        W 9891  14.662  29.017   1.247
39292W        W 9892  37.307  39.416   2.787
39293W        W 9893  42.092  27.112  13.031
39294W        W 9894  38.315  14.242  14.254
39295W        W 9895  34.878  42.497   0.417
39296W        W 9896  10.202  44.911  12.366
39297W        W 9897  16.133  27.459  13.949
39298W        W 9898  23.248  38.118   3.559
39299W        W 9899  39.094  15.090   3.803
39300W        W 9900   8.186   2.714   3.370
39301W        W 9901  30.570   9.021   2.261
39302W        W 9902  19.972  43.773   0.652
39303W        W 9903  33.625  34.592   1.368
39304W        W 9904  32.437   2.342  12.871
39305W        W 9905  33.874  44.721   2.897
39306W        W 9906   4.360  11.597  11.870
39307W        W 9907  23.702  32.370  14.101
39308W        W 9908  11.192  36.533   4.546
39309W        W 9909  24.475  11.362  14.398
39310W        W 9910  11.761  29.808   0.835
39311W        W 9911  34.707  40.819  14.352
39312W        W 9912   1.785   5.902   2.931
39313W        W 9913  20.755  39.765   4.557
39314W        W 9914  28.189  30.890   1.674
39315W        W 9915  18.398  12.359   1.913
39316W        W 9916  15.229  19.518  14.455
39317W        W 9917  31.654  36.330  12.376
39318W        W 9918  30.714  10.988   3.184
39319W        W 9919  17.485  29.651   0.659
39320W        W 9920  14.868  21.986  10.770
39321W        W 9921  39.397  41.800   0.339
39322W        W 9922  36.441  18.556   4.533
39323W        W 9923  22.815   7.870  14.800
39324W        W 9924  12.480  14.839  13.552
39325W        W 9925  41.554  10.772  11.975
39326W        W 9926  25.090  16.779   2.263
39327W        W 9927  22.287  20.770   0.473
39328W        W 9928   5.660   9.930  14.811
39329W        W 9929  38.286   9.240  14.395
39330W        W 9930  14.084  39.418  14.003
39331W        W 9931  24.098   4.627   2.152
39332W        W 9932  25.042   9.316   3.211
39333W        W 9933  13.015  19.683   1.207
39334W        W 9934   0.289  27.649   2.317
39335W        W 9935  42.207  10.797   4.234
39336W        W 9936   4.379   5.873   0.375
39337W        W 9937  34.089  26.830   2.758
39338W        W 9938  36.213   7.370  13.257
39339W        W 9939  27.223   4.690  13.276
39340W        W 9940  44.252  17.643  14.175
39341W        W 9941   7.773  30.965   4.674
39342W        W 9942  28.286  20.941   2.732
39343W        W 9943  30.917  30.031  14.348
39344W        W 9944  26.450  41.035  14.270
39345W        W 9945  39.293  11.165  14.414
39346W        W 9946  17.654  31.920  13.480
39347W        W 9947  35.296  35.320   0.065
39348W        W 9948  19.772   3.964  12.361
39349W        W 9949  29.759  28.507  12.491
39350W        W 9950  15.659   7.060   1.734
39351W        W 9951  26.599   7.606   0.050
39352W        W 9952  42.375  19.651  11.774
39353W        W 9953  29.942  21.063  13.189
39354W        W 9954  26.437  39.689   3.782
39355W        W 9955  29.151  44.786  12.614
39356W        W 9956  34.409  11.721   0.421
39357W        W 9957  28.030  44.048   0.287
39358W        W 9958  18.784  33.052  11.582
39359W        W 9959   8.419  25.087   4.329
39360W        W 9960  31.989   7.223   2.270
39361W        W 9961   8.283  42.831  12.380
39362W        W 9962  24.039   0.921  13.058
39363W        W 9963  12.671  17.271   0.065
39364W        W 9964   6.728  23.815   2.193
39365W        W 9965  22.846  39.599  12.877
39366W        W 9966   4.997  18.316  14.445
39367W        W 9967  24.271  39.941  14.784
39368W        W 9968  42.837  32.180  13.399
39369W        W 9969  13.773   5.283  13.860
39370W        W 9970  15.995  13.213   0.860
39371W        W 9971   1.268  36.051   1.201
39372W        W 9972  27.227  42.987   2.770
39373W        W 9973  38.100  43.394   2.258
39374W        W 9974  17.391  24.431   1.492
39375W        W 9975   2.791  30.043   0.521
39376W        W 9976  30.602  32.579  10.192
39377W        W 9977  12.616  20.098  14.990
39378W        W 9978  26.283  26.573   0.454
39379W        W 9979  20.084   9.620  12.962
39380W        W 9980   6.782   3.770  11.508
39381W        W 9981  10.422  10.650  12.684
39382W        W 9982   5.257  39.792   4.183
39383W        W 9983   4.919  23.474   1.335
39384W        W 9984  10.529  20.592  11.186
39385W        W 9985  37.996  24.697   2.724
39386W        W 9986  18.500  11.655   4.709
39387W        W 9987  27.567  18.328  12.394
39388W        W 9988   6.879   0.823   4.956
39389W        W 9989  25.823  30.979   4.958
39390W        W 9990  23.634  22.590   0.664
39391W        W 9991   3.475  43.850   3.288
39392W        W 9992  34.435  29.418  11.054
39393W        W 9993  27.618  29.411  12.364
39394W        W 9994  12.433  21.925  13.792
39395W        W 9995  36.555  38.377  13.798
39396W        W 9996  33.513  17.958  12.056
39397W        W 9997  32.253  38.973   3.723
39398W        W 9998  17.164  27.845   0.661
39399W        W 9999   0.587  33.748   0.754
39400W        W10000  40.454  27.692  13.691
39401W        W10001  39.434  12.634  14.198
39402W        W10002  39.894  25.050   2.798
39403W        W10003  25.861  22.329  14.414
39404W        W10004  13.736  12.829  14.496
39405W        W10005  27.660  27.795   0.307
39406W        W10006  11.139  43.236  14.030
39407W        W10007  24.249  39.825  10.750
39408W        W10008  38.751  10.906  11.042
39409W        W10009  33.876  37.793  13.070
39410W        W10010  31.982   6.305  14.955
39411W        W10011  40.494  33.380   3.548
39412W        W10012   9.224  24.375  13.891
39413W        W10013   0.888  19.517   3.244
39414W        W10014  30.152   8.937  13.568
39415W        W10015  12.926  18.786  14.376
39416W        W10016   6.932  34.168  14.845
39417W        W10017  42.566  18.967   2.190
39418W        W10018  39.156  24.745  10.513
39419W        W10019  31.926  42.577   4.509
39420W        W10020   4.376  34.755  13.430
39421W        W10021   7.283  37.581   1.313
39422W        W10022  25.564  39.896  14.014
39423W        W10023  41.566   7.787   1.814
39424W        W10024  43.780  19.724   4.516
39425W        W10025  12.122  43.459   1.701
39426W        W10026   8.145  10.346  13.513
39427W        W10027  18.051  37.850  11.419
39428W        W10028   5.199   4.208  14.000
39429W        W10029  29.950  33.075  11.656
39430W        W10030   8.678   8.475  10.656
39431W        W10031  43.461  44.205  14.838
39432W        W10032  15.400  44.779  11.437
39433W        W10033  38.824  44.463  10.293
39434W        W10034  33.346  34.430   0.962
39435W        W10035  21.224  25.453   0.440
39436W        W10036   8.733  40.170  11.933
39437W        W10037   0.454  43.299  12.869
39438W        W10038  38.009  14.297  14.873
39439W        W10039  42.284  40.380   4.513
39440W        W10040  14.449   5.690  13.953
39441W        W10041  42.422  41.794   3.651
39442W        W10042   9.983  39.033   1.882
39443W        W10043  16.365  41.279   1.381
39444W        W10044  37.487  43.984  12.529
39445W        W10045  19.059  43.022  11.669
39446W        W10046  40.245  31.911   3.212
39447W        W10047  10.055  37.931   4.102
39448W        W10048  29.008  37.898  14.020
39449W        W10049  42.889   3.403   3.360
39450W        W10050  28.023   2.147   3.298
39451W        W10051  15.563  26.045   4.273
39452W        W10052  36.480   2.956  13.526
39453W        W10053  44.287  22.516  11.862
39454W        W10054   4.577  44.160   4.551
39455W        W10055  33.347  19.052   0.923
39456W        W10056  26.388  13.136   4.160
39457W        W10057   8.265  30.522   0.502
39458W        W10058  36.875  33.966   0.215
39459W        W10059  14.901   9.302  11.073
39460W        W10060  23.565  40.612  12.620
39461W        W10061  11.216  27.625  11.047
39462W        W10062   8.577  42.694  13.889
39463W        W10063  17.145  43.178  11.587
39464W        W10064  36.957  16.315  13.796
39465W        W10065  38.600  41.676   5.043
39466W        W10066  32.008  23.639   0.935
39467W        W10067   1.474  18.124  11.841
39468W        W10068   1.879  37.173   2.781
39469W        W10069  15.734  39.894   4.359
39470W        W10070  13.124  27.447   0.286
39471W        W10071  30.504   0.451  14.097
39472W        W10072  23.791  14.480  13.032
39473W        W10073   8.904  38.014  11.889
39474W        W10074   4.918  39.536  13.539
39475W        W10075  14.860   0.880  14.649
39476W        W10076  25.198   0.374   4.143
39477W        W10077  17.748  42.757  14.085
39478W        W10078  35.391  39.877  13.471
39479W        W10079  13.766  43.913  14.863
39480W        W10080  39.958  41.584  12.876
39481W        W10081  36.380   6.957  10.288
39482W        W10082  11.460  25.705  13.224
39483W        W10083   9.766  29.566  13.791
39484W        W10084   0.459  32.547  11.662
39485W        W10085  37.899  37.104   1.269
39486W        W10086  30.104  42.737  11.139
39487W        W10087  41.255  44.367   3.290
39488W        W10088  31.783  44.464   2.374
39489W        W10089  12.527  27.556  13.186
39490W        W10090   9.405   2.298   1.603
39491W        W10091  27.421   2.703   0.908
39492W        W10092  29.614  28.123  14.288
39493W        W10093  26.244  25.905   1.844
39494W        W10094   7.690  11.740   2.306
39495W        W10095   8.913   9.904  14.272
39496W        W10096  33.544  19.191  13.471
39497W        W10097  17.453  38.963   2.240
39498W        W10098  15.674  36.945  11.668
39499W        W10099  27.925  40.503  12.643
39500W        W10100  24.130  22.602  11.593
39501W        W10101  43.637   7.314  10.754
39502W        W10102   6.764  28.255   0.446
39503W        W10103  38.295   9.596   3.704
39504W        W10104   3.830   6.104  10.621
39505W        W10105  15.258  31.523   4.099
39506W        W10106  27.457  29.477  13.870
39507W        W10107  15.456  22.709   1.083
39508W        W10108  29.350  20.179   2.794
39509W        W10109  27.479   9.409   3.591
39510W        W10110  15.916   7.360   3.722
39511W        W10111  29.146  43.454  13.071
39512W        W10112   9.519  32.183  11.110
39513W        W10113  27.104  12.113   1.886
39514W        W10114  39.320  35.125   0.968
39515W        W10115  16.781   2.792   0.901
39516W        W10116  10.186  31.857   0.827
39517W        W10117  27.850  31.508  11.613
39518W        W10118  42.647  44.250  11.345
39519W        W10119  23.717   5.719   2.562
39520W        W10120  35.403  16.824  12.430
39521W        W10121  29.217  35.593   0.276
39522W        W10122  42.887   9.903  12.929
39523W        W10123  18.850  30.090   0.264
39524W        W10124  40.213  40.063   2.923
39525W        W10125  11.396  29.985  11.011
39526W        W10126   3.604  29.414  14.938
39527W        W10127   8.204  10.631   2.355
39528W        W10128  12.166  39.567  12.143
39529W        W10129  29.091  16.250   1.807
39530W        W10130   0.062  12.125   0.836
39531W        W10131  36.441   8.452   0.376
39532W        W10132  22.503  44.381  13.995
39533W        W10133  43.950   4.968   0.006
39534W        W10134  44.787  30.872  11.677
39535W        W10135  34.641   9.173   2.314
39536W        W10136  19.454  15.700  10.570
39537W        W10137  31.537  38.094   1.442
39538W        W10138  32.462  16.149   0.365
39539W        W10139   5.735  17.110  12.958
39540W        W10140  36.127  11.885   1.670
39541W        W10141  28.023  19.320  14.247
39542W        W10142  18.070  31.089   1.399
39543W        W10143  38.049  24.769  14.613
39544W        W10144  18.770  25.192   2.633
39545W        W10145  12.016  26.834   1.740
39546W        W10146  30.418  36.035   0.380
39547W        W10147  42.569   3.318   3.750
39548W        W10148   8.661  40.651   4.710
39549W        W10149  43.863  30.111   3.733
39550W        W10150  24.920  33.986  11.473
39551W        W10151  43.032  15.614   5.065
39552W        W10152  30.769  22.225   0.383
39553W        W10153  22.799  17.376  11.172
39554W        W10154   8.248   9.088  11.634
39555W        W10155   1.292  32.911  13.928
39556W        W10156  32.423  10.237   3.845
39557W        W10157  10.190  11.322   0.699
39558W        W10158  20.487  42.050  11.184
39559W        W10159  30.329  12.268   0.538
39560W        W10160  25.212  20.314  11.146
39561W        W10161  14.028  41.603   3.755
39562W        W10162  43.796  38.974  12.523
39563W        W10163  18.842  25.196  13.045
39564W        W10164  30.019   6.795  11.138
39565W        W10165   0.233  18.615   3.485
39566W        W10166  32.357  31.841   0.854
39567W        W10167  18.271   8.303  10.479
39568W        W10168  30.587  24.184  11.227
39569W        W10169   6.739  39.958   2.320
39570W        W10170  27.246   8.249   1.867
39571W        W10171   1.869  16.068   3.030
39572W        W10172   2.441  28.739   2.270
39573W        W10173   6.607   8.151  14.115
39574W        W10174  17.250   7.887   2.738
39575W        W10175  39.120  42.938   2.806
39576W        W10176  17.466   8.799  13.534
39577W        W10177  24.472  36.333  13.005
39578W        W10178  29.339  30.676  13.952
39579W        W10179  24.250   4.658   1.250
39580W        W10180  18.567   6.960  14.975
39581W        W10181   5.248   6.651  14.836
39582W        W10182  38.553  22.243   4.822
39583W        W10183  19.012  42.616  13.259
39584W        W10184  34.167  12.849  12.450
39585W        W10185  16.886  12.515  13.845
39586W        W10186  23.445  34.497  11.176
39587W        W10187  34.855  32.579   1.978
39588W        W10188  17.833  29.145  10.771
39589W        W10189   9.747  32.626  10.942
39590W        W10190  40.873  26.164  10.933
39591W        W10191  13.654  33.097   0.950
39592W        W10192  40.443  20.746  12.405
39593W        W10193  35.871  15.169  12.039
39594W        W10194   6.457   5.657   0.496
39595W        W10195   2.160  20.483  13.149
39596W        W10196  26.812  33.874  13.597
39597W        W10197  24.975  44.509   3.290
39598W        W10198  24.955  29.612   2.158
39599W        W10199   0.050  25.948   1.399
39600W        W10200  16.691  12.667  11.115
39601W        W10201  13.130  19.037  12.366
39602W        W10202  12.452  14.392  10.794
39603W        W10203  21.682  11.290   2.831
39604W        W10204  33.874  33.556  11.774
39605W        W10205  28.178  41.584   0.298
39606W        W10206   0.463  25.887   3.880
39607W        W10207  33.831  10.247  12.558
39608W        W10208  19.350   4.121  12.076
39609W        W10209  37.913  25.000   3.122
39610W        W10210  39.335  16.708   3.332
39611W        W10211   2.949  14.076   0.924
39612W        W10212  29.555  39.944  14.399
39613W        W10213  29.820   7.731  11.000
39614W        W10214  37.944  11.194   2.069
39615W        W10215  20.242   7.746   1.897
39616W        W10216  43.959  27.197   1.735
39617W        W10217  43.289   3.143  12.073
39618W        W10218  38.907  25.887   1.167
39619W        W10219  44.857   0.228   0.818
39620W        W10220  24.043  24.279   0.388
39621W        W10221  29.714  18.052  10.782
39622W        W10222  32.146   2.747   1.878
39623W        W10223  18.533  44.475   1.779
39624W        W10224  29.364  36.936   1.501
39625W        W10225  42.688  37.404   0.969
39626W        W10226  20.536   6.646  12.081
39627W        W10227   8.603  13.680  14.918
39628W        W10228   6.322   9.176   4.569
39629W        W10229  42.315  44.839  14.458
39630W        W10230  24.719  18.707   4.447
39631W        W10231  32.621   7.035   3.691
39632W        W10232   4.417  40.922  13.377
39633W        W10233  30.412  43.538   3.862
39634W        W10234   5.139  21.994  12.010
39635W        W10235  29.211   2.843   3.150
39636W        W10236  33.830  39.222  12.937
39637W        W10237   3.176   3.959  13.015
39638W        W10238  36.100  42.010   4.075
39639W        W10239  20.975  19.711   4.425
39640W        W10240  22.032  29.204  10.433
39641W        W10241   8.244  15.810   2.440
39642W        W10242  23.264  19.733  12.396
39643W        W10243  11.340  22.029   1.333
39644W        W10244  38.607  18.581  14.360
39645W        W10245  43.999   0.239   4.543
39646W        W10246   0.082  18.195   2.829
39647W        W10247  39.505  13.867   2.368
39648W        W10248  18.765  11.407  11.965
39649W        W10249  43.110   7.252   3.902
39650W        W10250  44.177  34.996   0.252
39651W        W10251  29.100  44.951  12.111
39652W        W10252  33.938  41.490  14.293
39653W        W10253   0.299  44.047  14.703
39654W        W10254   9.131  14.758   2.238
39655W        W10255   9.806  29.477   2.908
39656W        W10256  33.364   7.944  10.660
39657W        W10257  15.303  14.627  14.856
39658W        W10258   4.689  26.918   2.255
39659W        W10259  18.393  39.052   2.778
39660W        W10260  32.143   1.648  14.565
39661W        W10261  27.493  30.471  12.639
39662W        W10262  11.420   4.025   3.173
39663W        W10263  11.939  44.373  11.343
39664W        W10264  16.529  25.448   0.814
39665W        W10265  39.298  11.720   2.248
39666W        W10266  10.730  27.586  11.246
39667W        W10267  34.881   9.187   0.454
39668W        W10268  13.527   6.886  11.970
39669W        W10269  42.815  36.523  14.801
39670W        W10270  38.045   4.758   1.492
39671W        W10271  37.826  43.219  14.846
39672W        W10272   8.955  31.985  12.549
39673W        W10273  23.692  23.156   3.306
39674W        W10274  22.138  40.839   0.701
39675W        W10275  13.109  32.101  11.122
39676W        W10276  41.902  40.980   3.682
39677W        W10277  29.679   5.603   2.102
39678W        W10278  10.772  22.745  10.652
39679W        W10279  31.955  21.208  12.051
39680W        W10280  15.698   9.573  13.426
39681W        W10281   9.349  25.555  13.920
39682W        W10282   0.291  20.318   0.277
39683W        W10283  10.585  28.558   0.833
39684W        W10284  22.714  41.043   3.041
39685W        W10285  22.620  11.275  14.809
39686W        W10286   1.108   6.924   3.510
39687W        W10287  20.268   5.407   4.636
39688W        W10288  21.695   3.995   2.379
39689W        W10289  41.224  35.415  11.618
39690W        W10290  40.839   7.506  11.684
39691W        W10291   0.885  37.412   4.507
39692W        W10292   1.737  16.789  12.447
39693W        W10293  40.997  12.562  11.704
39694W        W10294   6.838   7.956  12.784
39695W        W10295  42.516  29.065  10.724
39696W        W10296  38.833  39.981  14.337
39697W        W10297  20.062  27.286  11.215
39698W        W10298  23.669  32.552   1.027
39699W        W10299  20.158   9.065   1.444
39700W        W10300  14.185  32.198   0.457
39701W        W10301  23.646   8.331  14.286
39702W        W10302  22.059  12.570   0.975
39703W        W10303  34.143  33.048  14.446
39704W        W10304   9.818  42.184  13.849
39705W        W10305   6.943  42.281  12.788
39706W        W10306  20.645   3.286  10.732
39707W        W10307  20.292   3.440   4.577
39708W        W10308  42.784   2.591   1.238
39709W        W10309  37.606  33.443   1.907
39710W        W10310  20.040  38.283   3.583
39711W        W10311  24.653  40.998   3.873
39712W        W10312  36.083  28.103   2.664
39713W        W10313  24.186   0.456  12.571
39714W        W10314  30.135  22.480   3.010
39715W        W10315  29.498  39.268  13.741
39716W        W10316  15.588  22.674   0.534
39717W        W10317  37.919  11.724   2.279
39718W        W10318  13.194  36.081  12.357
39719W        W10319  42.980  22.108   0.771
39720W        W10320  18.957  30.124  12.525
39721W        W10321   7.142  44.864  14.837
39722W        W10322   6.120  39.797   2.693
39723W        W10323  26.586  42.383  14.301
39724W        W10324  23.047  26.085   0.743
39725W        W10325  15.756   6.338   4.044
39726W        W10326  18.231  24.153   0.478
39727W        W10327  40.640   3.468   0.447
39728W        W10328   3.871  24.237  14.912
39729W        W10329  37.001  18.686  12.587
39730W        W10330   5.257  16.307  13.213
39731W        W10331  33.478  39.055  10.285
39732W        W10332  40.458  26.707   0.130
39733W        W10333  25.491   5.282   5.040
39734W        W10334  19.144  36.615   1.044
39735W        W10335  30.129  30.118  14.500
39736W        W10336   8.527  34.594   4.545
39737W        W10337   1.882  44.448  12.642
39738W        W10338   5.328  27.683  13.894
39739W        W10339   3.740  19.911   1.274
39740W        W10340  24.248  39.065  11.957
39741W        W10341   2.124  19.359   0.036
39742W        W10342  13.251   0.537   3.295
39743W        W10343  19.686  28.227  11.474
39744W        W10344  41.050  18.063   3.876
39745W        W10345  40.633  25.589   3.168
39746W        W10346   5.916  26.144   2.712
39747W        W10347  18.624   8.678   4.707
39748W        W10348  13.220  39.934  11.504
39749W        W10349  17.272  12.241  14.031
39750W        W10350  17.751  15.036  10.567
39751W        W10351  22.500  42.355   2.725
39752W        W10352  21.611  16.599   3.836
39753W        W10353  33.590  37.052   3.246
39754W        W10354  25.151  13.411   2.357
39755W        W10355   8.007  33.557  11.142
39756W        W10356  34.782  12.231  11.637
39757W        W10357  22.508  44.169  13.020
39758W        W10358  29.800  21.908   4.621
39759W        W10359  33.914   5.071   0.019
39760W        W10360  14.166  12.278  11.325
39761W        W10361  31.043  39.011  13.607
39762W        W10362  33.054   4.930  11.690
39763W        W10363  17.813  41.562  14.340
39764W        W10364  18.463   5.131   0.443
39765W        W10365  17.530   4.843   1.890
39766W        W10366   6.189  11.646  14.677
39767W        W10367  32.626  12.144  13.146
39768W        W10368  41.639   6.386  13.304
39769W        W10369  37.520  37.084  11.260
39770W        W10370  42.444  43.500  10.651
39771W        W10371  17.537  37.088  11.029
39772W        W10372  25.549  16.506   2.135
39773W        W10373  21.345  41.001  14.444
39774W        W10374   0.937  26.068   4.718
39775W        W10375  37.878   8.150   3.628
39776W        W10376  13.810   5.149  12.486
39777W        W10377  40.492  36.918   1.309
39778W        W10378  15.487  32.115  12.462
39779W        W10379  42.538  22.783  11.171
39780W        W10380   8.425  21.709  12.965
39781W        W10381  36.294  14.260  12.015
39782W        W10382  21.594  32.083   3.654
39783W        W10383   1.774  23.577   1.002
39784W        W10384  11.583  41.045  14.574
39785W        W10385  16.980  28.289  11.021
39786W        W10386  35.484  14.632  11.952
39787W        W10387   9.269  21.916   1.706
39788W        W10388  40.844  25.700   1.894
39789W        W10389   8.417  36.539   3.546
39790W        W10390   1.723  30.021   3.352
39791W        W10391  24.027  10.302  11.880
39792W        W10392  24.152  20.966   4.185
39793W        W10393  29.437  37.620  14.745
39794W        W10394  20.871   3.705  11.111
39795W        W10395  18.302  39.921  10.571
39796W        W10396  23.729  15.824  10.603
39797W        W10397  12.230  36.367  14.307
39798W        W10398   5.248  31.609  13.657
39799W        W10399  22.691   5.453   2.716
39800W        W10400  19.455  43.779   2.449
39801W        W10401   9.279  36.318   2.627
39802W        W10402  14.079   1.475   2.153
39803W        W10403  29.035  11.755  14.941
39804W        W10404  14.112  25.622   0.970
39805W        W10405  22.703  43.487   2.389
39806W        W10406  44.439  13.352  14.963
39807W        W10407  33.435   3.941   2.938
39808W        W10408   7.467  28.566   1.829
39809W        W10409   0.739  40.327   0.909
39810W        W10410  37.033  38.090  10.575
39811W        W10411  41.945  24.798  13.797
39812W        W10412   7.451  28.147  12.611
39813W        W10413  34.363   9.444  11.549
39814W        W10414   3.573  43.424   2.928
39815W        W10415  40.073  31.125   3.871
39816W        W10416   5.994  26.714  13.515
39817W        W10417   8.271  26.717  14.265
39818W        W10418  31.927  25.959   2.382
39819W        W10419  14.575  30.148   1.877
39820W        W10420   1.205   1.216   2.389
39821W        W10421  25.634  37.370   0.054
39822W        W10422  29.189  10.737  12.160
39823W        W10423  30.981  40.077  12.778
39824W        W10424   2.443  19.706  12.399
39825W        W10425   8.462  14.522  12.630
39826W        W10426   2.748  19.840   1.257
39827W        W10427   6.944  14.539   4.221
39828W        W10428  10.581  15.563  10.255
39829W        W10429  35.831  22.187  14.098
39830W        W10430   0.688  27.594  10.025
39831W        W10431  15.739  14.520  12.567
39832W        W10432  34.452  37.354   0.922
39833W        W10433  36.650  33.945  14.717
39834W        W10434  29.083  41.774  13.350
39835W        W10435  16.568  30.210  10.303
39836W        W10436  24.665  32.421   1.405
39837W        W10437  11.370  37.838  13.620
39838W        W10438  42.810  12.859  12.972
39839W        W10439  12.260  38.557   4.645
39840W        W10440  17.000  21.726   1.958
39841W        W10441   1.169  31.165   0.489
39842W        W10442  44.309   2.658   4.517
39843W        W10443  28.131  30.499  12.475
39844W        W10444  28.335  36.516   3.767
39845W        W10445   4.867  43.039  10.474
39846W        W10446  15.719   4.594   0.387
39847W        W10447  19.001  33.790   0.440
39848W        W10448   5.549  33.508   4.955
39849W        W10449  15.632   8.817  14.571
39850W        W10450  24.642  10.501  13.539
39851W        W10451  36.000  18.217  14.341
39852W        W10452   3.173   2.366  10.718
39853W        W10453  14.632  28.657   0.850
39854W        W10454  30.874  18.090  13.791
39855W        W10455  41.507  42.001   1.277
39856W        W10456   1.628  16.608  12.942
39857W        W10457  38.077  35.554   2.283
39858W        W10458  38.733  39.041  14.439
39859W        W10459  35.449  19.346   1.680
39860W        W10460  23.285  41.804   1.853
39861W        W10461  16.441  36.050  11.504
39862W        W10462  43.276   8.217   5.015
39863W        W10463  42.738  22.278   1.200
39864W        W10464  15.684   5.427   0.838
39865W        W10465  13.646  32.640  10.532
39866W        W10466  25.607  40.830  14.407
39867W        W10467  12.020  17.316  12.002
39868W        W10468  32.439  43.411  12.707
39869W        W10469  32.894  39.895   0.483
39870W        W10470  33.741   0.249  12.467
39871W        W10471  15.615  16.533   4.175
39872W        W10472  40.775  28.529   0.790
39873W        W10473   7.661  30.146   1.699
39874W        W10474   0.056   0.057   4.498
39875W        W10475  42.468   8.779   3.169
39876W        W10476  23.952  25.520   2.734
39877W        W10477   7.869  17.586  12.839
39878W        W10478  21.779  32.482  13.862
39879W        W10479  12.413   3.929   4.145
39880W        W10480  23.744  26.633   4.052
39881W        W10481  26.825  12.505  13.262
39882W        W10482  13.153  22.721  13.014
39883W        W10483  33.116  10.677   3.363
39884W        W10484  33.440  33.999   4.938
39885W        W10485  11.529  37.035   1.844
39886W        W10486  21.036  18.887  13.383
39887W        W10487   5.414  25.055  13.093
39888W        W10488  11.766   0.722  13.875
39889W        W10489  40.906  42.249   1.557
39890W        W10490  23.675  37.545  14.222
39891W        W10491  29.616  10.967  11.934
39892W        W10492  19.026   3.462   0.725
39893W        W10493  19.268  24.198  10.240
39894W        W10494  13.313  10.004   0.088
39895W        W10495  10.211  42.832   3.231
39896W        W10496   1.488  38.160  14.875
39897W        W10497  10.111  25.677  14.560
39898W        W10498  17.725  42.407  11.922
39899W        W10499  43.513  40.959   0.939
39900W        W10500  16.686  34.112  10.806
39901W        W10501  12.719  36.234  12.490
39902W        W10502   2.638  39.488   0.849
39903W        W10503  36.544  20.273   3.828
39904W        W10504  21.511  24.515  11.723
39905W        W10505  34.091  32.017   4.296
39906W        W10506  31.405   2.674   2.788
39907W        W10507  24.545  44.457   2.577
39908W        W10508  31.337  10.981   1.375
39909W        W10509  24.525  27.527  13.466
39910W        W10510  27.648  42.778   3.337
39911W        W10511   4.297  32.030   0.234
39912W        W10512  44.459  40.871   4.452
39913W        W10513   6.946  42.904   0.794
39914W        W10514  28.166  14.127   3.203
39915W        W10515  11.208   2.987   1.322
39916W        W10516  42.284  25.521   4.881
39917W        W10517  16.532  24.091   3.405
39918W        W10518  11.572  24.714  12.022
39919W        W10519  44.870  24.582  10.844
39920W        W10520   5.006  37.022  12.094
39921W        W10521  44.162  10.778  13.009
39922W        W10522  32.093  25.019   4.707
39923W        W10523  20.659  23.197  14.672
39924W        W10524   0.728  16.249  11.017
39925W        W10525  15.124   9.986   4.371
39926W        W10526   8.054  11.791  10.386
39927W        W10527  13.706  24.696   3.633
39928W        W10528   3.506  42.893  11.637
39929W        W10529  13.616  14.216  14.445
39930W        W10530  12.174  12.843  10.787
39931W        W10531  34.643  38.519   2.299
39932W        W10532  24.376  40.327  12.056
39933W        W10533  27.205  29.078   0.271
39934W        W10534  37.030  11.358   4.730
39935W        W10535  42.848  22.059   1.650
39936W        W10536  44.840  44.018   2.829
39937W        W10537  35.564  27.746   1.898
39938W        W10538  24.195  36.037  14.783
39939W        W10539  19.204   4.811   1.313
39940W        W10540  42.599  25.928  10.633
39941W        W10541   6.063   4.457   1.746
39942W        W10542  10.481   7.141   1.327
39943W        W10543  15.190  28.792  12.156
39944W        W10544   4.755  44.404   4.982
39945W        W10545  29.608  18.390  12.498
39946W        W10546  41.990  22.186  12.526
39947W        W10547  16.295   5.725  13.848
39948W        W10548  19.651  28.962  13.456
39949W        W10549   5.789  29.148   0.512
39950W        W10550  11.765  17.830  12.534
39951W        W10551  20.549  31.525   2.639
39952W        W10552  22.692  32.932  13.938
39953W        W10553  43.343   1.413   1.637
39954W        W10554  38.411  13.634   0.085
39955W        W10555  31.674  29.158   4.785
39956W        W10556  14.445  31.853  12.502
39957W        W10557   5.728  20.700  12.457
39958W        W10558   8.316   0.284   1.048
39959W        W10559  15.617  13.559   1.842
39960W        W10560  12.227   8.702  15.000
39961W        W10561  21.573   8.379   1.431
39962W        W10562  44.017   1.960  10.407
39963W        W10563   2.207  10.194   0.291
39964W        W10564  22.807  23.976  13.877
39965W        W10565   9.078  11.338  10.785
39966W        W10566  22.690  12.145   1.870
39967W        W10567   3.622   0.997  11.100
39968W        W10568  23.816  19.141  12.160
39969W        W10569  33.658  42.991   0.821
39970W        W10570  16.364   5.674   2.258
39971W        W10571  22.888  22.880   1.636
39972W        W10572  22.661  30.598   1.433
39973W        W10573   3.002  16.138  11.470
39974W        W10574  38.103  31.110   2.874
39975W        W10575   5.592  22.065  11.774
39976W        W10576  17.238  23.554   0.011
39977W        W10577  44.142  19.093   1.231
39978W        W10578   0.515   8.065  11.266
39979W        W10579  30.388  35.651   2.770
39980W        W10580  34.883  31.578  14.721
39981W        W10581  26.920  17.295   0.690
39982W        W10582  11.482  37.589   3.176
39983W        W10583   9.240  14.322  12.424
39984W        W10584   2.028  44.371   3.679
39985W        W10585  43.990  41.903   1.340
39986W        W10586  27.735  36.491   2.917
39987W        W10587  20.861  43.499   4.966
39988W        W10588  37.393   0.940  12.561
39989W        W10589  12.762  11.633   0.515
39990W        W10590  21.576  13.617   2.732
39991W        W10591  29.661   6.166   1.890
39992W        W10592  19.673  24.261   1.409
39993W        W10593  32.100   5.888   4.111
39994W        W10594  36.420  15.803   2.607
39995W        W10595  24.670  38.296  13.332
39996W        W10596   5.067  13.677   1.335
39997W        W10597  33.104   9.900  12.003
39998W        W10598  27.636   4.283   4.349
39999W        W10599  17.400  27.015  13.451
40000W        W10600  35.540  22.342   1.358
40001W        W10601  20.145  41.906  10.793
40002W        W10602  16.188   2.664  13.397
40003W        W10603  20.725  40.365  12.961
40004W        W10604   7.633  26.747  10.755
40005W        W10605  24.252   7.403  11.942
40006W        W10606  35.361  40.784  13.544
40007W        W10607  21.857  20.529  14.334
40008W        W10608   6.428  40.928  12.230
40009W        W10609  34.754  26.564   1.291
40010W        W10610   4.390  11.402  11.004
40011W        W10611  32.181  30.162  11.090
40012W        W10612  17.742  41.722  12.940
40013W        W10613  25.634  35.989   4.578
40014W        W10614  31.426   0.314   0.404
40015W        W10615  44.799   3.865   1.273
40016W        W10616  21.324  23.960  13.387
40017W        W10617  26.886  28.582  13.935
40018W        W10618  29.980  13.354  10.994
40019W        W10619  20.560  17.068  12.130
40020W        W10620  24.956  36.211  12.119
40021W        W10621  14.836   8.231  14.504
40022W        W10622  17.154  18.170   4.125
40023W        W10623   3.869   0.284  13.292
40024W        W10624  11.207  21.631   2.275
40025W        W10625  13.039   7.721  14.481
40026W        W10626  20.801  40.448   4.269
40027W        W10627  43.006  12.755   1.949
40028W        W10628  38.422  43.781  12.476
40029W        W10629  19.595  21.298  13.892
40030W        W10630  24.069   1.064   2.370
40031W        W10631  19.511  14.661  10.754
40032W        W10632   1.824  30.065   0.797
40033W        W10633  23.790  28.318  13.022
40034W        W10634  30.468   5.705   4.097
40035W        W10635   3.594  26.192   2.369
40036W        W10636  31.146  38.609  13.932
40037W        W10637  40.443  16.198  12.674
40038W        W10638  27.217  22.283   2.487
40039W        W10639  22.539  10.234  13.619
40040W        W10640  35.894  10.277  14.820
40041W        W10641  13.210  27.601  12.500
40042W        W10642  31.442  24.503  13.471
40043W        W10643  38.528  32.435   4.843
40044W        W10644  31.380  41.042  13.440
40045W        W10645   7.784  44.571   2.318
40046W        W10646   3.778  11.709  13.611
40047W        W10647  32.592  18.832   4.448
40048W        W10648  34.839  11.599  13.057
40049W        W10649  32.220  14.369   3.412
40050W        W10650   5.073  37.419  10.416
40051W        W10651  20.068  28.601  12.391
40052W        W10652  11.129  31.983   0.821
40053W        W10653   7.200   2.055   2.159
40054W        W10654   0.525  36.881  14.013
40055W        W10655  20.274  42.710   4.986
40056W        W10656  17.826   5.741   0.557
40057W        W10657  20.541   2.823  10.913
40058W        W10658   3.419   4.998  12.095
40059W        W10659   3.625  30.165  12.443
40060W        W10660  16.938  36.772   0.304
40061W        W10661  42.538   3.029   4.170
40062W        W10662  22.678   2.961   0.916
40063W        W10663  15.394  33.775  14.524
40064W        W10664   2.200  35.236  11.133
40065W        W10665  32.114  32.600  14.909
40066W        W10666  33.509  42.520   1.049
40067W        W10667  35.945  13.539   4.848
40068W        W10668  15.128  37.045  10.758
40069W        W10669  18.276  26.064  13.074
40070W        W10670  33.517  42.258  11.441
40071W        W10671   4.729  43.914  10.508
40072W        W10672  21.369  23.522  12.462
40073W        W10673  15.434  37.295   1.072
40074W        W10674  19.320  35.405   3.664
40075W        W10675  17.294  24.478  12.423
40076W        W10676  38.968  13.407  11.941
40077W        W10677  37.281  42.772   2.308
40078W        W10678  29.457  16.686   0.027
40079W        W10679   9.295  38.107  12.629
40080W        W10680   9.756   7.605  12.530
40081W        W10681  37.547   9.439   3.810
40082W        W10682   5.242   4.369   4.840
40083W        W10683  20.094   9.072  14.102
40084W        W10684  31.707  11.674   0.996
40085W        W10685  26.473  16.026  14.574
40086W        W10686  16.918   3.251  12.305
40087W        W10687  25.516  29.868  12.517
40088W        W10688  36.816  29.185   1.804
40089W        W10689   6.346  23.871  10.922
40090W        W10690  44.198  27.079   2.859
40091W        W10691  24.227   5.370   0.848
40092W        W10692  26.041   8.645  13.961
40093W        W10693  33.957  26.124   4.131
40094W        W10694  25.978  18.186  14.345
40095W        W10695   6.246   8.112   0.915
40096W        W10696   7.405  13.399  14.479
40097W        W10697  13.391  31.757   2.727
40098W        W10698  15.109  31.284  14.120
40099W        W10699  38.086   5.166   0.053
40100W        W10700  22.675  25.271   4.696
40101W        W10701  10.190  40.624   3.795
40102W        W10702   3.182  40.379   4.448
40103W        W10703  11.664  21.964  10.449
40104W        W10704  22.133  29.969  13.866
40105W        W10705  25.114  36.669   4.856
40106W        W10706  16.904  27.172   3.548
40107W        W10707  42.541  27.380   4.707
40108W        W10708   9.108  37.331  11.526
40109W        W10709   5.637  16.495   3.638
40110W        W10710   5.381  22.505   0.917
40111W        W10711  10.016   3.132   4.636
40112W        W10712  40.418  34.152  14.840
40113W        W10713  35.020  14.994   0.418
40114W        W10714  27.705  27.606  14.299
40115W        W10715  25.324  34.857   1.965
40116W        W10716   9.635  14.129  13.213
40117W        W10717  41.287  29.436   1.997
40118W        W10718   6.697   3.294   0.459
40119W        W10719  22.398  34.197   3.169
40120W        W10720  13.347  28.533  11.075
40121W        W10721  29.649  25.814   1.371
40122W        W10722   8.162  25.576   1.223
40123W        W10723  33.622  41.853   2.766
40124W        W10724  29.912   5.339  14.957
40125W        W10725   0.496  44.534   3.259
40126W        W10726  35.809  30.697  13.995
40127W        W10727  22.868   4.766   2.245
40128W        W10728  15.531  32.057   3.130
40129W        W10729  28.015  11.123  13.160
40130W        W10730   7.353  18.627   1.587
40131W        W10731  41.564  43.905   1.262
40132W        W10732   0.055  13.676  11.632
40133W        W10733  38.125  12.758  13.375
40134W        W10734  21.101  27.642   4.037
40135W        W10735  11.649  11.073   1.866
40136W        W10736  16.386   9.087   3.999
40137W        W10737  41.807   7.863  12.621
40138W        W10738  10.071  20.451  10.986
40139W        W10739  28.260  31.522   4.181
40140W        W10740  19.668   2.278  14.578
40141W        W10741   1.826  25.423   2.204
40142W        W10742  40.172  11.342  14.078
40143W        W10743  22.803  32.111   3.742
40144W        W10744  25.611  19.200   4.133
40145W        W10745  27.629   9.306   2.677
40146W        W10746  35.658  40.546  13.992
40147W        W10747  37.874   4.855   4.288
40148W        W10748  27.643   3.637  11.920
40149W        W10749   7.903  35.717   3.333
40150W        W10750   7.373  16.273  11.128
40151W        W10751  10.348  18.121  10.284
40152W        W10752  43.529   2.697   4.183
40153W        W10753  35.331  28.912  13.040
40154W        W10754  43.887  42.440   0.764
40155W        W10755  17.165  21.021  14.174
40156W        W10756  32.461  16.321  11.675
40157W        W10757  38.452   6.192  10.801
40158W        W10758  14.704  30.043  11.009
40159W        W10759  12.224  35.440   3.648
40160W        W10760  32.192   7.846  14.464
40161W        W10761  14.263   6.626   2.839
40162W        W10762  20.219  35.346  13.872
40163W        W10763  13.823  11.592  10.665
40164W        W10764  27.055  21.941  12.448
40165W        W10765  11.575   3.912   0.395
40166W        W10766  43.517  27.561  12.822
40167W        W10767  13.238   4.276  12.694
40168W        W10768   3.093  18.703   0.810
40169W        W10769  22.486  17.359   4.594
40170W        W10770   7.079   9.148   2.783
40171W        W10771   1.010  13.860  11.655
40172W        W10772  11.624   5.261  12.060
40173W        W10773  40.544  14.503   3.796
40174W        W10774  36.997  16.965  11.584
40175W        W10775  36.403   5.713  11.023
40176W        W10776   5.356  16.528   1.278
40177W        W10777  18.731  35.361  13.071
40178W        W10778  19.635  39.737  11.549
40179W        W10779  21.515  13.324   3.431
40180W        W10780  18.640  43.784   1.309
40181W        W10781  35.604  30.226   4.369
40182W        W10782  15.049  15.091  14.820
40183W        W10783  33.557  22.904  14.569
40184W        W10784  43.349  28.289   1.406
40185W        W10785  39.341  36.692  11.178
40186W        W10786  30.108  25.151   3.685
40187W        W10787  18.090  14.911   4.578
40188W        W10788   3.113  25.957   2.390
40189W        W10789   9.655  43.314   0.355
40190W        W10790  30.255  29.124  12.996
40191W        W10791  28.315  28.220   4.611
40192W        W10792  29.367   4.816   2.298
40193W        W10793  16.384  36.902  12.096
40194W        W10794  28.995  24.216   3.426
40195W        W10795  34.659  12.741  11.645
40196W        W10796  11.201  20.183  11.903
40197W        W10797  13.235  15.747  10.559
40198W        W10798  18.006  30.241   1.183
40199W        W10799  20.279  30.579  11.040
40200W        W10800   7.910  13.123  13.482
40201W        W10801   2.303  42.174  12.126
40202W        W10802  18.735  21.514  11.975
40203W        W10803  11.946  39.521   4.212
40204W        W10804  32.616  37.161  13.900
40205W        W10805  22.638  28.982   3.173
40206W        W10806   0.292   4.515  14.279
40207W        W10807  19.431  40.503  14.904
40208W        W10808  13.615  40.302   4.430
40209W        W10809  21.783  24.839   3.719
40210W        W10810  12.924  39.231   0.294
40211W        W10811  37.242  22.494   1.766
40212W        W10812  41.026   8.182  13.799
40213W        W10813  15.162  11.328   1.435
40214W        W10814  36.931  36.392  14.902
40215W        W10815  12.180  23.095   3.724
40216W        W10816  14.970  19.109   0.722
40217W        W10817  44.174  37.054  11.539
40218W        W10818   5.246  44.261  12.150
40219W        W10819  12.244  42.886  14.549
40220W        W10820  15.110  15.450   4.831
40221W        W10821  24.511   8.621  12.914
40222W        W10822  27.427   8.645   3.952
40223W        W10823  10.715  15.284  12.319
40224W        W10824  21.044   7.245   5.405
40225W        W10825  31.088  17.548   1.948
40226W        W10826  28.540  15.784   9.927
40227W        W10827  32.951  17.763  11.000
40228W        W10828  32.079  18.754  11.881
40229W        W10829  36.217  12.540  13.851
40230W        W10830  26.058  27.611   3.693
40231W        W10831   3.236  38.806  10.683
40232W        W10832  22.264  16.143   3.365
40233W        W10833  22.935  22.219   1.003
40234W        W10834  43.290  25.586   0.048
40235W        W10835   8.389  12.827   1.719
40236W        W10836  40.295  32.227   4.196
40237W        W10837  37.304  12.822  14.077
40238W        W10838  14.179  26.926  11.571
40239W        W10839  32.635  39.723  11.042
40240W        W10840  20.546  35.212   4.380
40241W        W10841  44.756  42.804   4.172
40242W        W10842  39.867  32.739   3.187
40243W        W10843  26.200   3.444   1.204
40244W        W10844  29.387  43.836  11.454
40245W        W10845  35.340  26.443  13.979
40246W        W10846  26.473  42.612  11.135
40247W        W10847  42.114  15.099  11.773
40248W        W10848  41.974   7.353  10.509
40249W        W10849  10.267  20.346   0.932
40250W        W10850  44.243  22.798  11.442
40251W        W10851  12.359  29.547   3.424
40252W        W10852   8.344   8.854  10.616
40253W        W10853  29.982   3.508   1.516
40254W        W10854  15.702  10.173  10.551
40255W        W10855  43.357  18.233   0.048
40256W        W10856  41.374  33.921   0.794
40257W        W10857  14.253   2.204  13.073
40258W        W10858  26.379  33.809  14.360
40259W        W10859   3.829  23.227  13.916
40260W        W10860  13.122  27.112  14.856
40261W        W10861   4.871  32.598  13.446
40262W        W10862   9.449  32.977   2.328
40263W        W10863   6.379  20.973   4.528
40264W        W10864  22.458  18.141  14.343
40265W        W10865  34.696  41.351  11.129
40266W        W10866  36.970  12.644  12.096
40267W        W10867   5.431  24.546  14.305
40268W        W10868  28.220   6.755  13.906
40269W        W10869  13.323  35.397  12.618
40270W        W10870   3.134  19.555   4.161
40271W        W10871  13.231  44.236  14.380
40272W        W10872  28.062   2.893  13.039
40273W        W10873  40.626  32.088  13.499
40274W        W10874  32.384  13.741   0.300
40275W        W10875  36.511  11.683  11.455
40276W        W10876  12.201  17.098  11.519
40277W        W10877  16.363  34.933   2.317
40278W        W10878  42.473  26.159   2.716
40279W        W10879   0.897  16.034   4.254
40280W        W10880  22.480  28.224   4.605
40281W        W10881  18.658  39.016  10.808
40282W        W10882  26.073  29.008  14.033
40283W        W10883  35.810   0.992   4.651
40284W        W10884  27.112  26.839  14.356
40285W        W10885   0.302  29.641   1.364
40286W        W10886  24.889   3.851  11.561
40287W        W10887   5.359  25.245   3.504
40288W        W10888  43.672  23.727  12.000
40289W        W10889  41.695  40.440   0.591
40290W        W10890   7.338   2.961  13.392
40291W        W10891   1.985  27.726   1.363
40292W        W10892   2.891  26.598   3.697
40293W        W10893  17.842  29.140   1.229
40294W        W10894   6.867  28.906   4.306
40295W        W10895   5.227   7.656  12.324
40296W        W10896   9.331  24.599  14.429
40297W        W10897  34.279   0.932  12.797
40298W        W10898  37.917  14.094   2.731
40299W        W10899  43.976  18.333  10.488
40300W        W10900   3.502   9.906   4.098
40301W        W10901  11.244  37.703   3.631
40302W        W10902  39.287  41.430  12.473
40303W        W10903   8.881   7.220  11.146
40304W        W10904  25.201  31.614   0.508
40305W        W10905  26.262  35.584  11.443
40306W        W10906  27.481  21.684  12.216
40307W        W10907  32.116  20.469   3.679
40308W        W10908  14.646  21.242  12.510
40309W        W10909  39.273   3.943   2.538
40310W        W10910  23.500  23.729  12.923
40311W        W10911  37.132  42.072   0.991
40312W        W10912  35.410   0.303   1.469
40313W        W10913  15.370   2.370   4.161
40314W        W10914   8.731   4.819   2.048
40315W        W10915  13.674  14.422   3.185
40316W        W10916  18.330  16.076  11.021
40317W        W10917  26.229  17.809   2.316
40318W        W10918   0.434  43.484   1.003
40319W        W10919  11.036  17.548  13.796
40320W        W10920  37.465  38.783  12.012
40321W        W10921  16.940  28.035  14.533
40322W        W10922  44.064  34.725   1.812
40323W        W10923   0.712  23.091   3.200
40324W        W10924  31.417   9.096   3.682
40325W        W10925  10.635   2.955   1.880
40326W        W10926  21.405   3.034  11.040
40327W        W10927  15.641  36.072   3.743
40328W        W10928  15.234  35.904  12.121
40329W        W10929  24.115   1.710   1.052
40330W        W10930   7.636  30.178   2.584
40331W        W10931  13.658  26.989  13.075
40332W        W10932   6.993  33.090  13.004
40333W        W10933  28.101  43.749  12.744
40334W        W10934  25.068  24.634   3.312
40335W        W10935  23.723   4.323   1.336
40336W        W10936  24.467  31.856   1.453
40337W        W10937  34.404  37.035  14.345
40338W        W10938   8.696   0.858   1.918
40339W        W10939  11.692  32.540   0.722
40340W        W10940  26.723  39.801  13.782
40341W        W10941  22.236   3.864  11.668
40342W        W10942  25.928  23.756  14.457
40343W        W10943  22.726   7.761  12.515
40344W        W10944  27.693  41.393  11.766
40345W        W10945  28.270  36.315  11.008
40346W        W10946   7.745  41.317  12.892
40347W        W10947  40.435   7.230   1.770
40348W        W10948  16.706  10.887  13.329
40349W        W10949  32.500  14.334   0.855
40350W        W10950  42.565  21.001  14.111
40351W        W10951  44.311  11.031   1.439
40352W        W10952  33.843  16.140  14.435
40353W        W10953  37.917  28.231  13.988
40354W        W10954  38.455  32.504   1.759
40355W        W10955  19.528  23.574   2.171
40356W        W10956  42.686  24.532  14.845
40357W        W10957  23.208  10.986  12.909
40358W        W10958  25.313  39.596   3.029
40359W        W10959  25.210  22.854  12.526
40360W        W10960  43.798  14.812   4.258
40361W        W10961  24.689   0.604   4.152
40362W        W10962  33.732  34.127  13.526
40363W        W10963  42.365   7.928   1.306
40364W        W10964  37.026  14.537   2.373
40365W        W10965  40.015  36.795   2.269
40366W        W10966   3.777  22.460   2.943
40367W        W10967   9.716  43.041  12.816
40368W        W10968  27.425   1.484   3.670
40369W        W10969  42.988  36.049  14.986
40370W        W10970   5.278  24.650  12.384
40371W        W10971  42.685  15.512   3.695
40372W        W10972   2.489  35.398   3.770
40373W        W10973   7.169  36.967  11.238
40374W        W10974  30.035  22.490  11.327
40375W        W10975   3.853  18.532  12.070
40376W        W10976  42.209  10.350  13.805
40377W        W10977  40.304  31.910   3.768
40378W        W10978  29.481  19.349  11.181
40379W        W10979  32.744  27.580   1.438
40380W        W10980  33.892   3.389   4.713
40381W        W10981  10.190   5.868   0.195
40382W        W10982  42.450  40.920  14.924
40383W        W10983  10.262  32.043   2.799
40384W        W10984   1.663  44.363   4.080
40385W        W10985  15.169   4.336   1.052
40386W        W10986  15.934  25.815  10.764
40387W        W10987   2.474  12.702  13.921
40388W        W10988  36.396  21.247   1.237
40389W        W10989  28.641  19.321  11.614
40390W        W10990  29.466  25.493  12.629
40391W        W10991  37.470  10.093   2.674
40392W        W10992  15.046  38.453  13.037
40393W        W10993  34.156  28.147  11.635
40394W        W10994   4.606  39.793   4.075
40395W        W10995   5.347  13.873   4.555
40396W        W10996  44.874  41.822   1.866
40397W        W10997  20.745  26.876   3.569
40398W        W10998  14.312  25.387   0.168
40399W        W10999  11.848  44.519  12.787
40400W        W11000   9.070  32.964   1.472
40401W        W11001  27.105  13.255   1.439
40402W        W11002  34.965  26.433   4.089
40403W        W11003   6.097  33.085   2.576
40404W        W11004  25.107  12.736  14.645
40405W        W11005  30.595   3.806  12.832
40406W        W11006  13.610  33.957   4.325
40407W        W11007  21.110  13.041   2.272
40408W        W11008  33.896   1.128   2.713
40409W        W11009  38.098  21.549  12.497
40410W        W11010  25.359  37.933  10.486
40411W        W11011   7.961  36.110   1.442
40412W        W11012  12.193  10.791   5.077
40413W        W11013  20.959  35.003   3.661
40414W        W11014  36.904   2.932  11.411
40415W        W11015  40.625  39.438  11.146
40416W        W11016   0.452  44.250   3.675
40417W        W11017  29.251  11.783  10.296
40418W        W11018   3.186  26.668  14.868
40419W        W11019  28.140  16.603   2.027
40420W        W11020  12.318  27.458   2.632
40421W        W11021  18.369  15.339   4.766
40422W        W11022   6.899  26.435   0.749
40423W        W11023  13.502   4.831  13.897
40424W        W11024  39.566  15.217   3.594
40425W        W11025  16.081   2.348   0.397
40426W        W11026  34.323   1.875   3.320
40427W        W11027  42.018  37.871   0.311
40428W        W11028   4.916  43.031  13.546
40429W        W11029  12.334  11.761  11.633
40430W        W11030  42.020  21.300  13.055
40431W        W11031  29.854  12.304   3.086
40432W        W11032  17.622  26.194  12.678
40433W        W11033  12.294  36.036   2.869
40434W        W11034  34.820  44.775  14.917
40435W        W11035  31.588   0.805  13.319
40436W        W11036  34.989  25.608  12.438
40437W        W11037  39.384   5.803   4.687
40438W        W11038   1.701  43.296   4.225
40439W        W11039  40.917  40.160  14.660
40440W        W11040  26.932  16.098   4.228
40441W        W11041  31.512  18.803  14.277
40442W        W11042  23.045  24.210   3.694
40443W        W11043   3.684  25.693  10.537
40444W        W11044  13.168  25.179   1.913
40445W        W11045  32.048  11.679  13.867
40446W        W11046   7.118  34.860   1.296
40447W        W11047  12.477   8.258  13.379
40448W        W11048  30.555  44.843  14.851
40449W        W11049  21.312  38.889  12.490
40450W        W11050   1.046  20.705   0.526
40451W        W11051   2.643  17.810  14.417
40452W        W11052   5.909  21.110   3.231
40453W        W11053  39.614   3.901  11.311
40454W        W11054  36.354  32.922  13.452
40455W        W11055  19.232  44.472   1.005
40456W        W11056  44.289   2.896  12.964
40457W        W11057  42.278  40.217   3.207
40458W        W11058  42.268  28.246  14.357
40459W        W11059   1.752  40.522  14.771
40460W        W11060  26.132  15.344   3.942
40461W        W11061  36.369  16.320  11.612
40462W        W11062  44.993  30.479   0.342
40463W        W11063   4.319   9.425  11.631
40464W        W11064  22.301  40.818   3.821
40465W        W11065  25.862  23.599   2.626
40466W        W11066  29.435  15.642   2.601
40467W        W11067  19.202  24.566   4.831
40468W        W11068  44.701  42.296  13.056
40469W        W11069  36.822  10.463   4.080
40470W        W11070  15.690  43.783   0.797
40471W        W11071  40.336  29.667   1.766
40472W        W11072  18.578  24.085   2.283
40473W        W11073  23.649   7.662   0.906
40474W        W11074  41.277   2.786   2.285
40475W        W11075  11.379  17.499   3.062
40476W        W11076  10.789  13.331  13.364
40477W        W11077  11.043  32.601  11.953
40478W        W11078   5.483   5.230  12.072
40479W        W11079   8.328  38.758   3.753
40480W        W11080  27.190  35.977   1.697
40481W        W11081   6.072  40.533  12.357
40482W        W11082  11.342  29.903   2.257
40483W        W11083  13.229  41.011   1.398
40484W        W11084   4.767  30.643  13.391
40485W        W11085  11.191  27.754   1.912
40486W        W11086  15.866  15.309   3.630
40487W        W11087  43.851  44.783   4.318
40488W        W11088  11.507  17.226   1.247
40489W        W11089  24.996  16.767   2.779
40490W        W11090   9.343  13.142  13.051
40491W        W11091  29.536  37.355  10.564
40492W        W11092  19.184  16.844   2.308
40493W        W11093  40.093  18.572   2.612
40494W        W11094  39.882  20.610   0.791
40495W        W11095  42.060   7.133  13.885
40496W        W11096  37.557  24.981   4.661
40497W        W11097  43.868  36.026  11.461
40498W        W11098  43.485  10.439  14.715
40499W        W11099  29.544   3.059   0.116
40500W        W11100  32.450  34.084  14.867
40501W        W11101  40.038  18.056   0.954
40502W        W11102  29.274  44.684   2.097
40503W        W11103  11.801   1.842  10.559
40504W        W11104  28.578  41.110   1.887
40505W        W11105  36.439  31.422   0.709
40506W        W11106  28.169  41.210  14.302
40507W        W11107  36.147  18.688  10.800
40508W        W11108   9.124  18.312   1.112
40509W        W11109  36.079  27.179   2.925
40510W        W11110  41.577  40.482  11.143
40511W        W11111  23.141  21.895  10.774
40512W        W11112  44.974  27.133   3.615
40513W        W11113  43.874  32.555   4.902
40514W        W11114  42.972  15.545   4.142
40515W        W11115  40.841  28.136   0.365
40516W        W11116   8.788  44.763  12.105
40517W        W11117   3.741  30.498  13.489
40518W        W11118  22.287  11.854   2.728
40519W        W11119   2.741  23.673  13.040
40520W        W11120  27.926  24.569  11.225
40521W        W11121  12.139   1.936   2.621
40522W        W11122  41.868  36.518  14.890
40523W        W11123   6.504  28.451   0.939
40524W        W11124  28.967  15.642  12.544
40525W        W11125   3.820   6.353  11.086
40526W        W11126  42.544   5.333  11.633
40527W        W11127  13.852  19.662  12.824
40528W        W11128  10.879   1.326   4.469
40529W        W11129  27.731  35.857   4.982
40530W        W11130  32.178   3.865  12.223
40531W        W11131  38.300  33.464  12.085
40532W        W11132  10.799   0.442  11.733
40533W        W11133  21.536  41.296  14.911
40534W        W11134  29.452  14.040   3.480
40535W        W11135  33.861   9.109   5.078
40536W        W11136  22.248  43.815   0.337
40537W        W11137  22.975   0.696   4.525
40538W        W11138  32.912   4.126  11.967
40539W        W11139  14.123  27.092  12.886
40540W        W11140  17.581  25.118   2.322
40541W        W11141   7.198  34.889   4.640
40542W        W11142  16.549   3.701  13.109
40543W        W11143  30.422  27.517   0.753
40544W        W11144  23.681   8.820  12.576
40545W        W11145   1.709  42.779   4.172
40546W        W11146  15.547  23.070  14.794
40547W        W11147  29.605  42.441  10.982
40548W        W11148  18.863  10.154   0.713
40549W        W11149  18.269  36.141  13.688
40550W        W11150   6.779  31.622  11.207
40551W        W11151  41.110  31.873  11.664
40552W        W11152  29.638  33.167  10.868
40553W        W11153  26.672  24.731   0.060
40554W        W11154  18.774  11.185   0.942
40555W        W11155   9.073  11.831  11.000
40556W        W11156  16.270  16.005   4.784
40557W        W11157  25.215  22.514   3.312
40558W        W11158   3.045  15.637   0.423
40559W        W11159  30.586  17.030   0.443
40560W        W11160  40.094  26.388   2.908
40561W        W11161  22.966  33.599   4.523
40562W        W11162   2.767  38.587  10.670
40563W        W11163  32.595   8.020   3.743
40564W        W11164   8.407  29.222   0.473
40565W        W11165  26.564  21.480  11.564
40566W        W11166  14.050  22.730  12.052
40567W        W11167  33.586  12.784  13.814
40568W        W11168  24.567  22.095   4.481
40569W        W11169  33.513  13.522  11.169
40570W        W11170   8.391  44.845  12.971
40571W        W11171  42.727   9.016  11.199
40572W        W11172   1.039  39.298  11.044
40573W        W11173  41.287  30.980  11.557
40574W        W11174   9.882   1.877   4.217
40575W        W11175  22.205  42.365   4.572
40576W        W11176  12.395  19.236  14.846
40577W        W11177  14.310  27.862  14.816
40578W        W11178  28.935  26.627   2.040
40579W        W11179  27.967   1.791  11.613
40580W        W11180  40.276   1.530  12.452
40581W        W11181  18.721  14.672   1.893
40582W        W11182  44.481   9.728  12.129
40583W        W11183  42.651  38.995   2.822
40584W        W11184  14.899   7.826   4.834
40585W        W11185  19.788  44.927   1.911
40586W        W11186   1.528  14.406   4.618
40587W        W11187  15.629  25.092   4.057
40588W        W11188  24.561  11.223   3.314
40589W        W11189  17.280  43.300   1.037
40590W        W11190  12.360   5.461   1.518
40591W        W11191   8.796  37.285  11.090
40592W        W11192   5.769  26.748  14.946
40593W        W11193  34.065  35.069  11.399
40594W        W11194  39.113  44.016  14.587
40595W        W11195   8.842  25.388  12.508
40596W        W11196  20.540  12.406  14.494
40597W        W11197  13.199  18.674   3.566
40598W        W11198   0.526  38.949   3.623
40599W        W11199  38.000  40.535   3.631
40600W        W11200  40.870  25.174  14.228
40601W        W11201  34.008  21.031  12.516
40602W        W11202  16.808  22.313  11.928
40603W        W11203  27.167   7.853  13.796
40604W        W11204  23.154   6.262   0.396
40605W        W11205  40.016  26.961  13.885
40606W        W11206  10.046  28.130   4.892
40607W        W11207   9.546  23.995  11.676
40608W        W11208  40.264  40.526   1.702
40609W        W11209  11.296  22.097   4.560
40610W        W11210   5.507  12.207   0.436
40611W        W11211   2.218   7.594  13.019
40612W        W11212   7.898   9.179  13.967
40613W        W11213   3.271  26.783  12.553
40614W        W11214  30.997  23.054   3.076
40615W        W11215  40.549  41.027   4.610
40616W        W11216  12.418   8.479   1.372
40617W        W11217  18.969   3.789  10.886
40618W        W11218  26.161  20.630   3.911
40619W        W11219  33.609  23.141   0.021
40620W        W11220  17.238  22.141  14.942
40621W        W11221   5.928  44.353   1.272
40622W        W11222  11.256   5.673  13.058
40623W        W11223   6.641   0.155   0.221
40624W        W11224  25.781  30.521  10.281
40625W        W11225  41.276   2.411   5.048
40626W        W11226  43.705   6.907  11.095
40627W        W11227  11.753  16.558   3.116
40628W        W11228  25.111  27.174   1.425
40629W        W11229   8.338  44.683   0.307
40630W        W11230  39.845  24.787  13.594
40631W        W11231  15.783   3.357   1.394
40632W        W11232   1.698  13.333  13.028
40633W        W11233  35.558  34.087   3.748
40634W        W11234  22.456   6.031  12.475
40635W        W11235  25.721  23.479   0.909
40636W        W11236  19.457   4.226  12.980
40637W        W11237  39.012  38.303   0.186
40638W        W11238  18.097   6.809  10.758
40639W        W11239   5.576  28.474  11.546
40640W        W11240  43.431  17.223  10.280
40641W        W11241  18.221  20.304  12.340
40642W        W11242  24.370  37.478   2.680
40643W        W11243  32.241  25.754   4.232
40644W        W11244  11.397  38.475   1.295
40645W        W11245  23.625  26.174  14.094
40646W        W11246  37.976   9.272  14.815
40647W        W11247  39.351  14.552   1.821
40648W        W11248  24.743  11.561  13.700
40649W        W11249  16.809  15.276   0.185
40650W        W11250  13.099  42.871   2.870
40651W        W11251   5.821  30.128   0.282
40652W        W11252  30.951  13.587  12.401
40653W        W11253  22.885  20.442   2.851
40654W        W11254  22.671   8.185   2.668
40655W        W11255  10.121  15.411  10.668
40656W        W11256  34.421   7.216  12.552
40657W        W11257  19.915   8.635   4.887
40658W        W11258  32.014  38.530   0.868
40659W        W11259  37.505  38.902   4.670
40660W        W11260  28.915  32.082  11.535
40661W        W11261   3.741  18.279   1.261
40662W        W11262  43.299   6.948   4.676
40663W        W11263  18.281  38.593   1.396
40664W        W11264  34.443  41.259  14.879
40665W        W11265  18.068  28.228  12.752
40666W        W11266  15.641  36.096   1.834
40667W        W11267   5.269   2.521   3.102
40668W        W11268  32.349  17.274  14.023
40669W        W11269   0.864  29.466   2.412
40670W        W11270   3.464  41.828   2.671
40671W        W11271  34.502  44.418   0.248
40672W        W11272  28.066   0.213   0.816
40673W        W11273  33.798  43.839  12.492
40674W        W11274   0.124  22.689  12.363
40675W        W11275   6.040  25.312  12.451
40676W        W11276  42.985   0.063  13.718
40677W        W11277  44.265  18.310  12.582
40678W        W11278   2.257  10.909  13.014
40679W        W11279  24.256  17.420   0.370
40680W        W11280  20.888   7.626   1.385
40681W        W11281  31.408  20.668   3.227
40682W        W11282  18.842  43.827  13.405
40683W        W11283   7.729  23.584   2.504
40684W        W11284  36.600  33.185  10.637
40685W        W11285  13.534   0.752   1.289
40686W        W11286  23.449   1.477  11.506
40687W        W11287  15.321   2.005   1.450
40688W        W11288   0.838  24.592   4.206
40689W        W11289  40.053  35.899   9.850
40690W        W11290  37.552  33.982  11.436
40691W        W11291  34.221  34.381   3.679
40692W        W11292  19.351  18.685  13.056
40693W        W11293  28.720   2.663   4.446
40694W        W11294  15.025  16.791  13.385
40695W        W11295  30.644   4.370   3.174
40696W        W11296  26.996  42.343  10.699
40697W        W11297  27.154   7.811   4.489
40698W        W11298  12.270  15.281   4.127
40699W        W11299   2.769  23.509   3.667
40700W        W11300  29.689  34.072   0.416
40701W        W11301  20.275  37.931   3.228
40702W        W11302  19.262  17.658  11.934
40703W        W11303  37.417  20.103  12.329
40704W        W11304  40.851  21.024   2.635
40705W        W11305  22.999  31.475  12.409
40706W        W11306   1.730   2.740   4.607
40707W        W11307  21.237  27.258  10.890
40708W        W11308   5.171  12.792   1.781
40709W        W11309  32.386  19.077   1.850
40710W        W11310   9.794   1.982   0.376
40711W        W11311  16.089   9.777  13.768
40712W        W11312  12.343  12.598  11.225
40713W        W11313  43.485  19.193  12.561
40714W        W11314   1.809  40.046   2.400
40715W        W11315  21.428  43.339   1.161
40716W        W11316   5.702  15.805  14.075
40717W        W11317  37.461  15.101  13.698
40718W        W11318  13.748  41.798  12.091
40719W        W11319  40.547  43.436  14.699
40720W        W11320  38.048  34.843   1.273
40721W        W11321  27.477   3.009   3.366
40722W        W11322   4.252  37.143  12.882
40723W        W11323   0.903  33.462  12.584
40724W        W11324  14.731  20.644  11.134
40725W        W11325  15.406  44.484  10.999
40726W        W11326   4.661   5.174  12.487
40727W        W11327  42.821  13.438  11.646
40728W        W11328  29.081  31.377   0.388
40729W        W11329  43.348  10.791   0.585
40730W        W11330  11.138  38.868  13.492
40731W        W11331  34.554  21.925  14.269
40732W        W11332   5.180  18.615   1.307
40733W        W11333   2.318   5.880   2.940
40734W        W11334  30.688   7.272  12.378
40735W        W11335  14.011  25.795   3.275
40736W        W11336   1.418   3.032   3.320
40737W        W11337  37.667  27.517  14.517
40738W        W11338  11.745  40.844   0.044
40739W        W11339   3.267   9.076   3.221
40740W        W11340   3.501  32.212   0.214
40741W        W11341  10.725   3.520  13.422
40742W        W11342  40.962   9.551  12.209
40743W        W11343  44.924  42.767   1.306
40744W        W11344   6.554  43.803   3.215
40745W        W11345  26.132  11.703  14.327
40746W        W11346  33.475  10.198   1.742
40747W        W11347  34.081  17.363   0.809
40748W        W11348  15.409  41.787   3.960
40749W        W11349  13.258  34.440  13.135
40750W        W11350  27.659  43.495  11.142
40751W        W11351  33.165  44.442  11.956
40752W        W11352  17.364  17.117   2.303
40753W        W11353  20.432   7.965  12.058
40754W        W11354  23.035  22.741   2.910
40755W        W11355  27.151  44.341   3.797
40756W        W11356  36.029  28.474   2.229
40757W        W11357  27.503  28.694  10.533
40758W        W11358  31.146  28.696  12.777
40759W        W11359  19.510  17.231   5.030
40760W        W11360  28.762  21.816   0.885
40761W        W11361  19.790  36.689   1.743
40762W        W11362  26.096   5.482   3.247
40763W        W11363  32.525  24.029   2.677
40764W        W11364  42.466  37.761  13.958
40765W        W11365   4.772  24.670   0.840
40766W        W11366   3.482  31.899  10.867
40767W        W11367  44.841  40.660  12.158
40768W        W11368  13.620   4.935   4.286
40769W        W11369   6.388  13.653  13.457
40770W        W11370  39.991  14.501   1.841
40771W        W11371  18.901  39.106  13.205
40772W        W11372  31.039  27.473   2.828
40773W        W11373  12.699  20.559  12.835
40774W        W11374  22.007  25.592   1.806
40775W        W11375  30.008  12.714   4.615
40776W        W11376  34.359  16.997  14.836
40777W        W11377  35.285  13.268   3.250
40778W        W11378   0.227   6.917   1.863
40779W        W11379  14.841  17.749  13.475
40780W        W11380  21.469   5.966   4.879
40781W        W11381  21.680   8.411  11.631
40782W        W11382   5.753  28.954  11.406
40783W        W11383  14.360   7.735   0.972
40784W        W11384  11.790   7.672   3.842
40785W        W11385   6.785  18.105  11.586
40786W        W11386  14.498  10.781  10.907
40787W        W11387  14.207  21.383  14.748
40788W        W11388  15.914  16.194   2.720
40789W        W11389  25.721  31.472   1.196
40790W        W11390  23.015  19.532   0.492
40791W        W11391  17.469  13.344  11.956
40792W        W11392  43.376   8.973   4.647
40793W        W11393  33.896  33.420   3.811
40794W        W11394  20.290  20.105  14.118
40795W        W11395  39.871  21.586  14.563
40796W        W11396  15.071  26.898  12.825
40797W        W11397   7.778  17.908   3.882
40798W        W11398  21.656  21.242   1.186
40799W        W11399  10.468  32.525   3.007
40800W        W11400   8.783  32.952   1.915
40801W        W11401  17.718  24.216   0.502
40802W        W11402  39.858  44.704   0.954
40803W        W11403   1.825  22.551   2.279
40804W        W11404  16.504  30.976  12.139
40805W        W11405  10.638   5.768  14.049
40806W        W11406   2.231  37.491   1.665
40807W        W11407   2.040   5.978   4.667
40808W        W11408  28.417  34.457  10.718
40809W        W11409  33.500  25.859   5.071
40810W        W11410  14.630  30.811  13.426
40811W        W11411  26.437  15.366   0.039
40812W        W11412  12.668  15.615   3.350
40813W        W11413  16.162  23.246  12.871
40814W        W11414   4.051  33.971   2.389
40815W        W11415   1.854  36.018  12.615
40816W        W11416   0.023  11.749   0.439
40817W        W11417   4.451  25.712  13.745
40818W        W11418   9.455  32.689  12.957
40819W        W11419  36.958   5.290  10.626
40820W        W11420  42.558  25.921  11.469
40821W        W11421  23.677  18.189   1.908
40822W        W11422   0.121  30.396   2.670
40823W        W11423   5.514  11.267   2.725
40824W        W11424  22.173  34.354  13.404
40825W        W11425  27.000  23.557  14.253
40826W        W11426  20.636  34.474  10.788
40827W        W11427  29.579  43.733   1.729
40828W        W11428  41.781   6.480  12.542
40829W        W11429  18.618  17.636   0.965
40830W        W11430  36.484  21.001   2.119
40831W        W11431  19.610  19.305  10.963
40832W        W11432  40.506   1.013  10.470
40833W        W11433  30.355  12.293   3.202
40834W        W11434  34.968   1.284   5.142
40835W        W11435  39.295  24.909  13.033
40836W        W11436  44.366  17.178   0.969
40837W        W11437  12.089  30.167  12.572
40838W        W11438  28.697  35.595   4.146
40839W        W11439   6.921  17.522   1.872
40840W        W11440  38.327   5.424   3.326
40841W        W11441  41.844  21.377   4.027
40842W        W11442  21.619  40.940   0.729
40843W        W11443   7.881  17.454  12.333
40844W        W11444  21.271  40.924   4.866
40845W        W11445   5.409   9.054  14.773
40846W        W11446   9.246  44.879  12.309
40847W        W11447  36.316  41.985  11.614
40848W        W11448  34.415  34.376  11.494
40849W        W11449   4.635  12.875   4.288
40850W        W11450  15.531  25.570   0.833
40851W        W11451  33.904  40.018  13.486
40852W        W11452  35.560   3.686  12.862
40853W        W11453  35.411  29.343  12.738
40854W        W11454  30.107   8.395   3.572
40855W        W11455  30.108  19.072  11.565
40856W        W11456  22.943   0.046   2.734
40857W        W11457  20.223  33.674   0.411
40858W        W11458  14.595  28.366   0.390
40859W        W11459   3.801  36.899  12.861
40860W        W11460  42.379  18.364  14.911
40861W        W11461  37.087  18.330  11.197
40862W        W11462  30.437  20.723  12.382
40863W        W11463  20.705  18.508   1.939
40864W        W11464  37.352  33.164   0.712
40865W        W11465  40.386  14.254   3.096
40866W        W11466  13.534   7.404  11.995
40867W        W11467  13.807   8.637   2.411
40868W        W11468  25.059  31.085   4.838
40869W        W11469  35.224  42.402  11.749
40870W        W11470  39.498   4.967  14.316
40871W        W11471  44.499   7.617   5.181
40872W        W11472   9.255  21.062  14.569
40873W        W11473  22.747  22.850  13.495
40874W        W11474  28.206  22.498   0.978
40875W        W11475  39.929  44.370  12.559
40876W        W11476  40.587   8.536  10.418
40877W        W11477  36.513  31.084   4.818
40878W        W11478  31.415   5.699   2.800
40879W        W11479   9.014  34.706   1.128
40880W        W11480  23.089  12.880   2.710
40881W        W11481  20.862  17.058   3.726
40882W        W11482  44.576  24.148  10.720
40883W        W11483  39.969  17.306   1.232
40884W        W11484   1.215  29.226   3.643
40885W        W11485  25.211   8.512   3.581
40886W        W11486  23.109  11.633   4.036
40887W        W11487  17.869   0.853  11.039
40888W        W11488  43.929  17.526  13.100
40889W        W11489  12.846  14.331  13.267
40890W        W11490  20.769   9.177   2.249
40891W        W11491  26.984  14.862   2.371
40892W        W11492   2.710  40.039  13.305
40893W        W11493  22.563  35.485   4.341
40894W        W11494  36.542  12.272   4.883
40895W        W11495  22.010  39.017  14.888
40896W        W11496  12.560   3.657   5.025
40897W        W11497   0.221  24.775  12.643
40898W        W11498  27.770  24.062   3.682
40899W        W11499  22.788  37.448   2.251
40900W        W11500   6.891  41.800  14.985
40901W        W11501   5.300  27.870   0.630
40902W        W11502  29.298  44.671  13.530
40903W        W11503  21.469  42.284  13.420
40904W        W11504  15.638  20.798   0.790
40905W        W11505  15.708  38.863   3.597
40906W        W11506   6.279  31.651   2.853
40907W        W11507   5.462   5.798   4.951
40908W        W11508  12.674  44.683   2.293
40909W        W11509  40.554  18.992  14.865
40910W        W11510  30.897  25.542  13.394
40911W        W11511  16.716  19.156  12.674
40912W        W11512  31.370  10.630  14.394
40913W        W11513  15.728  20.050   4.676
40914W        W11514  37.474   7.864  13.524
40915W        W11515  24.570  36.932  10.627
40916W        W11516  40.858  24.504  14.993
40917W        W11517  22.339  24.775   1.739
40918W        W11518   4.753  27.580   4.575
40919W        W11519  10.106  16.313  11.613
40920W        W11520   5.410  41.359   2.143
40921W        W11521  42.017  27.304   0.700
40922W        W11522   3.150   5.796  11.045
40923W        W11523   3.502  24.042  11.161
40924W        W11524  28.650  33.260  14.826
40925W        W11525  27.920  38.434   1.074
40926W        W11526  28.410  27.463  13.983
40927W        W11527  12.527  40.151   4.557
40928W        W11528  42.208  30.587  13.115
40929W        W11529   3.734   6.289   3.454
40930W        W11530   4.006  18.249   1.708
40931W        W11531  13.590   8.767   1.653
40932W        W11532   6.628  40.157  13.487
40933W        W11533  19.073  25.657  12.932
40934W        W11534  11.107   8.138  11.011
40935W        W11535  34.734  38.967   1.483
40936W        W11536  31.497   6.806   4.932
40937W        W11537  24.227   5.955  12.017
40938W        W11538  29.060  25.506  14.504
40939W        W11539  32.437   1.518   1.435
40940W        W11540  43.286  19.167  11.249
40941W        W11541  12.840  11.041  10.607
40942W        W11542   7.115   6.377  13.316
40943W        W11543  15.866  33.161   1.572
40944W        W11544  38.006  42.335   1.271
40945W        W11545  44.400  41.016  12.894
40946W        W11546  44.739  41.372   2.764
40947W        W11547  12.850   5.574   1.189
40948W        W11548  44.774  12.737  10.612
40949W        W11549   9.546  12.366   3.434
40950W        W11550  20.954  21.494  12.499
40951W        W11551   1.706   4.073   3.385
40952W        W11552  11.831  23.655  14.919
40953W        W11553  33.669  16.629   0.141
40954W        W11554  21.205  10.216  12.962
40955W        W11555   1.310   0.069  13.764
40956W        W11556  24.710   0.972  11.630
40957W        W11557  21.928  33.389   3.610
40958W        W11558  24.180  34.302  13.958
40959W        W11559  13.020  23.063  11.287
40960W        W11560   9.137  10.285  13.465
40961W        W11561  22.945   1.360  11.563
40962W        W11562  37.299  37.558   0.797
40963W        W11563  40.280  31.520  11.496
40964W        W11564  23.762   2.949  13.370
40965W        W11565  29.730  20.461   4.546
40966W        W11566  26.704   6.740  12.037
40967W        W11567   6.803  21.285  10.792
40968W        W11568  35.815  35.570   4.178
40969W        W11569   8.661  43.769  13.861
40970W        W11570  44.312   4.746   1.391
40971W        W11571  26.863  29.058   3.151
40972W        W11572  14.227  11.224   4.653
40973W        W11573  13.579  44.435   4.621
40974W        W11574  26.946  29.608   3.256
40975W        W11575  34.891  21.936   0.433
40976W        W11576  27.135  34.090   1.313
40977W        W11577  33.831  44.874   2.253
40978W        W11578  39.528  14.686  11.691
40979W        W11579  32.969  21.591   0.342
40980W        W11580   4.685  31.324   1.738
40981W        W11581   4.560  32.816  13.835
40982W        W11582   6.054  39.123   5.077
40983W        W11583  17.388  11.203   1.029
40984W        W11584  37.012  12.593   2.317
40985W        W11585  20.158   9.886   4.366
40986W        W11586  18.335  12.353  12.805
40987W        W11587   9.944  43.461  13.561
40988W        W11588   1.989  42.271  10.469
40989W        W11589  11.643  28.573  13.985
40990W        W11590  28.722  20.723   4.769
40991W        W11591  43.398  38.851  13.831
40992W        W11592  30.497  16.599  11.236
40993W        W11593  33.936  33.782   4.180
40994W        W11594  39.521  15.743   1.431
40995W        W11595  22.025  24.377  14.374
40996W        W11596  14.779  19.109  11.735
40997W        W11597  17.129   7.849  11.063
40998W        W11598  13.750  33.608   4.675
40999W        W11599   8.700  15.491  12.167
41000W        W11600   4.451  41.547  10.208
41001W        W11601   6.642  12.576  10.765
41002W        W11602  18.520  24.107   0.906
41003W        W11603   7.405  42.193   0.430
41004W        W11604  23.099  12.100  13.411
41005W        W11605  24.584  42.023  13.352
41006W        W11606  36.833  22.324   4.211
41007W        W11607  30.390  17.271  12.826
41008W        W11608  21.439  40.389   1.734
41009W        W11609  31.364  16.847   0.796
41010W        W11610   1.351  17.769   3.630
41011W        W11611  36.920  42.814   0.473
41012W        W11612  23.076  23.209  11.172
41013W        W11613  20.749  12.823  11.932
41014W        W11614  24.483   0.197  11.472
41015W        W11615  27.710  27.004  14.975
41016W        W11616  10.843   8.905   1.789
41017W        W11617  27.116   1.265   4.421
41018W        W11618  23.818  26.661   2.232
41019W        W11619  39.937   0.691   3.672
41020W        W11620  25.219  18.183  13.872
41021W        W11621  22.280  21.772   3.965
41022W        W11622   7.310  43.389   2.948
41023W        W11623   0.345   2.200  13.380
41024W        W11624  16.003  39.442   2.261
41025W        W11625  18.118   6.248   2.387
41026W        W11626   0.070   8.611  14.353
41027W        W11627  42.801  28.039   0.459
41028W        W11628   1.994  22.769  14.555
41029W        W11629  29.594   1.813   0.965
41030W        W11630  11.158  42.945   3.861
41031W        W11631  23.599  30.458   4.580
41032W        W11632  34.520  18.937  13.287
41033W        W11633  40.026  12.564  12.019
41034W        W11634   0.965  44.268   1.350
41035W        W11635  32.897  23.500   3.338
41036W        W11636  15.080   0.064   3.999
41037W        W11637  25.280   0.538   4.974
41038W        W11638  35.457  39.122  11.517
41039W        W11639  36.069  36.925   2.757
41040W        W11640  35.394  11.743  14.422
41041W        W11641  41.105  18.286  13.918
41042W        W11642  37.378  36.735  13.453
41043W        W11643  22.263  38.745   2.368
41044W        W11644  11.742   4.301   1.293
41045W        W11645  33.740  26.532  12.024
41046W        W11646  42.101  13.301   0.594
41047W        W11647  26.479  25.739  10.856
41048W        W11648   8.169  25.309  14.035
41049W        W11649   5.420   4.231  12.483
41050W        W11650  30.427   3.660  12.353
41051W        W11651  33.289  39.174  11.210
41052W        W11652  13.731  18.781  11.718
41053W        W11653  23.332   7.835  14.832
41054W        W11654  25.019   1.354  11.412
41055W        W11655  34.337  26.658  14.940
41056W        W11656  43.586  10.429   2.449
41057W        W11657   7.725  38.148   3.170
41058W        W11658  20.060   7.438   4.316
41059W        W11659  30.022   6.847   4.832
41060W        W11660  14.981   6.115  14.471
41061W        W11661  24.917  31.382  12.879
41062W        W11662  15.577  26.114   3.763
41063W        W11663  41.527   6.950   5.121
41064W        W11664  36.902  38.293  11.046
41065W        W11665  22.576  15.739   2.795
41066W        W11666  13.157   7.923   1.067
41067W        W11667   1.116  14.200   2.316
41068W        W11668  24.723  12.778  11.837
41069W        W11669  25.085  26.979   0.373
41070W        W11670  43.272  22.557   2.160
41071W        W11671  27.880  13.573   1.642
41072W        W11672  23.518  10.661  12.603
41073W        W11673   3.682   1.561   1.704
41074W        W11674  36.982  22.656  14.437
41075W        W11675  22.987  42.285   1.781
41076W        W11676  25.167  42.820   4.263
41077W        W11677  14.068  37.418   0.513
41078W        W11678  24.519  41.791  10.518
41079W        W11679  32.160  13.247   0.235
41080W        W11680  34.102  15.095  10.809
41081W        W11681  11.468   1.824   3.334
41082W        W11682  21.318  21.179   2.252
41083W        W11683   8.808  22.291   4.496
41084W        W11684  11.094  38.528   2.954
41085W        W11685   9.639   7.407   1.366
41086W        W11686  34.152   0.011  11.107
41087W        W11687  16.848  37.421   2.890
41088W        W11688  17.316   3.770   9.675
41089W        W11689  40.498  37.998   0.431
41090W        W11690  10.864  38.278  14.903
41091W        W11691  27.503  35.560   1.508
41092W        W11692  39.691  34.000  14.545
41093W        W11693  44.977  41.836   2.734
41094W        W11694  34.463   9.188   4.427
41095W        W11695  17.670  10.217  10.461
41096W        W11696   5.500  28.392  13.456
41097W        W11697  17.975  11.745   0.230
41098W        W11698  36.070  31.203   1.894
41099W        W11699  31.372   5.540  11.634
41100W        W11700   9.126  42.484  13.366
41101W        W11701  35.122  31.093  13.365
41102W        W11702  13.113  34.778  13.497
41103W        W11703  43.552  27.971  13.582
41104W        W11704  23.159   5.884  11.622
41105W        W11705   9.621  29.350   3.374
41106W        W11706  15.403   4.370   4.454
41107W        W11707  23.948  11.357   0.819
41108W        W11708  44.894   4.775  13.576
41109W        W11709   6.789   5.935   3.127
41110W        W11710  33.194   8.327   1.273
41111W        W11711  17.451  37.807  12.456
41112W        W11712  33.479  13.632  13.120
41113W        W11713  21.778  37.507   2.019
41114W        W11714  37.929   1.137   0.932
41115W        W11715  44.327  28.988   4.560
41116W        W11716   0.989  36.654  14.814
41117W        W11717  18.415  38.946   2.255
41118W        W11718  27.659  33.454  14.978
41119W        W11719   2.429   9.196   2.170
41120W        W11720  32.999  22.966  10.761
41121W        W11721  33.266  43.823  12.536
41122W        W11722  14.247   5.937   4.807
41123W        W11723   5.697  34.958  11.714
41124W        W11724  41.970  22.016  14.580
41125W        W11725  23.961   3.700   4.224
41126W        W11726  30.091  30.700  13.424
41127W        W11727   4.242   6.010   2.216
41128W        W11728  19.247  14.715   0.407
41129W        W11729  42.709   2.305  12.136
41130W        W11730  44.206  15.877   1.030
41131W        W11731  24.615  20.745   4.038
41132W        W11732  15.833   2.480  14.782
41133W        W11733  13.718  35.044  12.658
41134W        W11734  23.098  30.737   1.653
41135W        W11735  26.111   5.417   1.231
41136W        W11736  29.193  21.251  13.590
41137W        W11737  32.297  33.877  10.877
41138W        W11738  41.822  17.077   3.778
41139W        W11739  39.603   7.423  12.059
41140W        W11740  34.308  39.400   5.095
41141W        W11741  20.539  17.090  14.406
41142W        W11742  36.492  30.488   2.135
41143W        W11743  18.552  37.681  11.237
41144W        W11744  35.059  22.512  13.798
41145W        W11745  38.581  28.150   4.589
41146W        W11746  10.819   4.146  14.231
41147W        W11747  29.950  32.948   0.336
41148W        W11748  42.863  11.346   4.525
41149W        W11749  15.354  38.190   4.250
41150W        W11750   7.379   8.131  14.837
41151W        W11751  35.435   7.427  13.886
41152W        W11752  18.380  27.474  12.536
41153W        W11753  34.005  33.374  12.778
41154W        W11754   0.476  38.768   1.323
41155W        W11755  33.042   7.950  12.976
41156W        W11756  41.826  31.116  12.480
41157W        W11757   2.722   1.441  12.394
41158W        W11758  29.006   2.817   2.291
41159W        W11759  41.797  36.574   3.146
41160W        W11760  44.454  25.613  13.748
41161W        W11761  21.283   7.759  13.794
41162W        W11762  19.580   7.295   1.241
41163W        W11763  20.022  24.169   1.033
41164W        W11764  37.773  25.048   1.785
41165W        W11765   0.018  40.440   0.382
41166W        W11766  14.832  19.147  10.745
41167W        W11767  34.131   8.586  13.751
41168W        W11768  11.258   4.239  11.584
41169W        W11769  16.976  31.130  13.598
41170W        W11770   0.800  35.112   3.699
41171W        W11771  20.640  34.372   4.698
41172W        W11772  44.532  31.496   4.855
41173W        W11773  13.643  12.663   1.009
41174W        W11774  23.014  24.026   0.755
41175W        W11775  16.168  43.038  11.352
41176W        W11776  13.390  15.378  10.899
41177W        W11777  17.453   4.033   1.351
41178W        W11778  37.884  34.335   5.015
41179W        W11779  38.482  16.062  11.478
41180W        W11780  27.933  31.515  13.379
41181W        W11781  22.767   2.999   2.025
41182W        W11782  19.725  15.682   3.692
41183W        W11783  15.902  26.148  13.501
41184W        W11784  24.822  16.178  12.548
41185W        W11785   9.951  16.812   2.062
41186W        W11786  28.048  15.048  13.150
41187W        W11787  44.026   6.908  10.668
41188W        W11788  19.748  15.129  13.040
41189W        W11789  28.888  21.722  12.550
41190W        W11790  12.304  16.340   0.819
41191W        W11791   9.189  29.704   1.975
41192W        W11792   9.795   6.394   2.227
41193W        W11793  27.694  12.369   3.201
41194W        W11794  29.240  33.834  13.998
41195W        W11795  39.079  26.662  10.449
41196W        W11796   1.110   5.368   0.245
41197W        W11797   9.420  37.466   4.617
41198W        W11798  38.934   9.803  11.105
41199W        W11799  32.933   0.772   0.728
41200W        W11800  15.678  20.992   0.278
41201W        W11801  15.316  12.773   3.741
41202W        W11802  18.245  21.678  11.705
41203W        W11803  30.816  38.762  10.259
41204W        W11804  19.156   2.702  10.678
41205W        W11805   9.311  44.669  11.325
41206W        W11806  23.293  35.324   0.379
41207W        W11807  17.972  17.974   3.246
41208W        W11808  27.073  29.383  12.489
41209W        W11809   1.562  10.176  11.624
41210W        W11810  26.622  15.529   1.949
41211W        W11811  25.627   8.190   4.612
41212W        W11812  25.224   6.949  11.937
41213W        W11813  18.970  14.507   0.005
41214W        W11814   0.568  31.922  11.083
41215W        W11815  44.911  32.385  11.979
41216W        W11816  17.717  15.180   2.228
41217W        W11817   8.295   3.630   4.697
41218W        W11818  39.040   7.464   2.831
41219W        W11819   6.351  39.997   3.299
41220W        W11820  23.048  37.208   3.206
41221W        W11821  36.530  41.430   4.921
41222W        W11822   0.791  32.962   1.996
41223W        W11823   5.315  40.820  14.751
41224W        W11824  14.319  11.267   3.312
41225W        W11825  21.099  20.304  12.023
41226W        W11826  25.202  12.422  13.972
41227W        W11827  36.322  10.240  11.454
41228W        W11828  24.481  33.659  11.239
41229W        W11829  39.462  26.789  10.814
41230W        W11830  10.932  12.803  12.619
41231W        W11831   8.382  36.044  11.858
41232W        W11832   8.350  20.552  11.506
41233W        W11833  35.425  43.558   0.933
41234W        W11834  27.677  25.075  12.032
41235W        W11835   9.471  38.884   3.102
41236W        W11836  36.836  38.483   1.081
41237W        W11837   2.426  31.028   1.761
41238W        W11838  39.291   6.826   0.485
41239W        W11839  28.621  12.069   3.806
41240W        W11840   4.147  12.976   4.395
41241W        W11841  22.552  38.493   4.486
41242W        W11842  36.590  38.799  13.084
41243W        W11843  31.434   3.888   3.290
41244W        W11844  27.891   8.980  14.361
41245W        W11845  16.050   6.370   3.244
41246W        W11846  24.239  34.911  13.350
41247W        W11847   2.204  17.087   3.728
41248W        W11848  24.772  23.433  12.091
41249W        W11849   1.734  24.156   3.608
41250W        W11850   2.947  40.365   0.695
41251W        W11851  12.663  43.894   0.956
41252W        W11852  30.100  15.942   3.067
41253W        W11853  38.143  23.156   3.365
41254W        W11854   3.415  39.481  13.479
41255W        W11855  15.677  30.151  12.369
41256W        W11856  12.141  15.432   3.652
41257W        W11857  22.752   9.390  12.572
41258W        W11858  23.957  18.827   5.063
41259W        W11859  37.660  36.832  13.923
41260W        W11860  41.924  34.101   1.757
41261W        W11861  39.459  12.214  10.779
41262W        W11862  36.103  35.679   0.860
41263W        W11863  44.048  21.247  14.516
41264W        W11864  39.952  31.702  11.151
41265W        W11865  35.508   6.446   3.380
41266W        W11866  18.611  12.273  14.621
41267W        W11867  42.039   8.459   0.192
41268W        W11868  39.821  20.162  13.823
41269W        W11869  11.718  37.973   2.929
41270W        W11870   3.818   1.905   3.742
41271W        W11871  37.965  24.183   2.737
41272W        W11872  26.424  12.331   0.767
41273W        W11873  30.582  34.949  14.180
41274W        W11874  12.215  29.007  14.552
41275W        W11875   3.842  43.266  11.718
41276W        W11876  42.307   6.772  13.381
41277W        W11877  34.444  33.480  10.925
41278W        W11878  30.571  22.598   0.861
41279W        W11879  28.077  31.497   3.107
41280W        W11880  33.075  22.246   3.620
41281W        W11881   3.769  15.326  12.061
41282W        W11882   2.741  39.786   2.322
41283W        W11883  36.952   1.473   3.628
41284W        W11884  35.009  26.122   0.440
41285W        W11885  11.576  22.703   1.938
41286W        W11886  26.227  12.235   1.251
41287W        W11887  38.471   8.302   1.901
41288W        W11888  44.988  26.544  12.202
41289W        W11889  27.498  41.796   4.691
41290W        W11890  21.317  35.079  11.364
41291W        W11891  44.185  30.474  14.565
41292W        W11892  41.544  38.096   0.456
41293W        W11893   3.748  37.446   3.394
41294W        W11894   5.770   7.689  11.469
41295W        W11895  16.837  22.120  11.109
41296W        W11896  27.922  25.180  14.008
41297W        W11897   0.713  10.246   0.219
41298W        W11898  36.560   6.138  11.289
41299W        W11899   3.981  29.633   0.938
41300W        W11900   6.442  21.846   0.860
41301W        W11901  35.541   2.637  14.968
41302W        W11902  42.733   1.323  13.050
41303W        W11903  32.924  19.284  13.051
41304W        W11904  31.093  12.643   2.882
41305W        W11905  25.845  32.173  14.409
41306W        W11906  29.914  19.834   1.292
41307W        W11907  19.214   7.822   0.323
41308W        W11908  34.552  17.256   3.653
41309W        W11909  13.961  31.279   5.021
41310W        W11910  27.394   5.623  13.607
41311W        W11911  36.970  12.845   4.449
41312W        W11912  20.055  27.196  14.892
41313W        W11913   4.620  41.946   0.361
41314W        W11914  42.608  16.729   2.906
41315W        W11915  17.194  16.445   3.939
41316W        W11916   0.709  25.204   2.729
41317W        W11917  24.546  14.367  14.449
41318W        W11918   6.971  21.573   0.060
41319W        W11919  40.867  34.609  11.738
41320W        W11920   7.319  16.561   1.210
41321W        W11921  38.570  29.602  14.886
41322W        W11922   3.148   9.883   2.933
41323W        W11923  24.603  31.963   2.776
41324W        W11924  12.443  17.857   4.166
41325W        W11925   3.272  26.929   4.852
41326W        W11926  10.744   7.395   2.365
41327W        W11927  36.905  22.838   4.079
41328W        W11928   6.785  25.896  13.401
41329W        W11929  22.446  31.873   1.134
41330W        W11930  33.069  13.941   4.939
41331W        W11931  40.254  20.632   2.893
41332W        W11932  44.735  38.771   4.574
41333W        W11933  20.348  20.071   0.751
41334W        W11934   9.255  39.933  14.028
41335W        W11935  25.178  40.589  14.461
41336W        W11936  13.047  15.696  12.387
41337W        W11937   1.700  19.194   1.815
41338W        W11938  13.901  14.506  11.859
41339W        W11939  14.202  21.819  12.000
41340W        W11940  27.087  24.017   1.686
41341W        W11941  21.258   1.188  13.507
41342W        W11942   0.778   4.468  14.051
41343W        W11943   4.198   0.374  10.654
41344W        W11944   3.646   4.580  14.188
41345W        W11945   8.853  41.959   2.591
41346W        W11946  31.053  16.253   4.604
41347W        W11947  39.858  15.810   0.450
41348W        W11948  37.915  20.945  10.369
41349W        W11949  42.992  33.957   2.626
41350W        W11950   0.130  38.619  13.567
41351W        W11951  42.472  33.510  13.290
41352W        W11952   1.313  25.409  12.007
41353W        W11953  24.417  10.537   4.122
41354W        W11954  43.482  12.307  13.816
41355W        W11955   6.238  12.474  10.177
41356W        W11956  30.656   0.129  11.496
41357W        W11957  30.928  25.725   4.673
41358W        W11958  35.049  10.828   2.157
41359W        W11959   2.932  20.593  10.929
41360W        W11960  18.486   5.286   3.760
41361W        W11961  17.913  39.288   2.946
41362W        W11962  10.067  13.214  14.017
41363W        W11963  19.019  28.633   3.575
41364W        W11964  38.801   4.711  11.731
41365W        W11965  10.343  10.238  11.406
41366W        W11966   1.771  33.004   5.266
41367W        W11967   2.918   9.287  10.470
41368W        W11968  37.861  21.081   4.681
41369W        W11969  17.750  35.386  12.681
41370W        W11970  25.082  42.476   3.016
41371W        W11971   5.224  19.191   3.815
41372W        W11972  28.202  30.632  11.610
41373W        W11973  24.426  23.034  11.993
41374W        W11974  21.976  28.002  10.781
41375W        W11975  36.431   0.689   1.051
41376W        W11976  30.941  22.126   3.514
41377W        W11977   7.485  39.058   0.922
41378W        W11978  42.703  37.955   2.709
41379W        W11979  27.736  34.476   4.079
41380W        W11980   7.804  34.789  13.977
41381W        W11981  23.292  42.345   3.118
41382W        W11982   6.982  22.243   4.960
41383W        W11983  19.209  14.821   1.840
41384W        W11984  24.425  18.732  14.080
41385W        W11985  15.129   3.467  12.899
41386W        W11986  24.514  10.584   0.477
41387W        W11987   5.088  28.288  11.539
41388W        W11988  14.501  32.712   2.668
41389W        W11989  20.253  42.174  14.845
41390W        W11990  10.139  13.633   4.170
41391W        W11991   4.926  30.407  14.810
41392W        W11992  37.024  33.157   1.538
41393W        W11993  41.755  43.420   3.755
41394W        W11994  15.037  11.230   0.453
41395W        W11995   8.633  16.926  12.539
41396W        W11996  14.188  16.770   3.778
41397W        W11997  41.833  26.178  10.999
41398W        W11998  15.629  27.418   2.961
41399W        W11999  26.716   1.810   1.356
41400W        W12000   5.907  17.245  12.037
41401W        W12001   3.722   9.182   0.767
41402W        W12002   2.861  22.499  13.878
41403W        W12003  35.920  16.758  13.310
41404W        W12004   4.425  20.986   2.124
41405W        W12005  17.663  43.011   5.057
41406W        W12006  24.325  28.011   3.000
41407W        W12007  16.572  31.461  11.945
41408W        W12008  26.126  29.614   2.775
41409W        W12009  34.686  12.661  13.730
41410W        W12010   3.433  26.532   4.555
41411W        W12011  42.473  16.835   0.432
41412W        W12012   0.661  19.246  11.605
41413W        W12013  18.238   7.071   0.895
41414W        W12014  24.794   6.034  12.397
41415W        W12015   3.958  36.998   4.168
41416W        W12016  14.644  17.452  13.853
41417W        W12017  44.205  35.970   4.533
41418W        W12018  34.141  34.309  13.928
41419W        W12019  20.583  27.700   4.144
41420W        W12020  10.351  18.284   1.961
41421W        W12021  28.691  24.430   2.021
41422W        W12022  27.441  30.563  12.138
41423W        W12023  12.759  32.529   2.899
41424W        W12024   8.068  18.291   4.093
41425W        W12025   1.839  27.715  10.692
41426W        W12026  25.903  22.496   2.834
41427W        W12027  35.098  29.223   1.372
41428W        W12028  43.338  42.259   2.178
41429W        W12029  35.526  35.947   4.025
41430W        W12030  10.091  13.771   4.674
41431W        W12031  33.884   2.374   4.938
41432W        W12032  42.320  18.664  11.893
41433W        W12033  27.463   7.039   4.571
41434W        W12034  35.605  11.245  10.749
41435W        W12035  25.113  33.471   2.527
41436W        W12036  23.081  33.412   0.198
41437W        W12037  16.621  14.847  14.339
41438W        W12038  33.698  27.115   2.982
41439W        W12039   0.383   4.876   0.243
41440W        W12040  18.149  42.939   3.945
41441W        W12041  41.061  24.145   1.715
41442W        W12042   9.679   1.925  13.358
41443W        W12043   3.755  35.602  14.766
41444W        W12044  25.102   0.327  12.581
41445W        W12045  21.532  33.494   0.023
41446W        W12046  19.107  33.884  14.332
41447W        W12047  38.733   5.185  13.492
41448W        W12048   3.256  29.418  13.358
41449W        W12049  26.551   1.522   2.267
41450W        W12050  18.098  25.222   1.437
41451W        W12051  43.314  20.147   2.327
41452W        W12052  27.536  41.550   2.601
41453W        W12053  32.434  22.191   4.835
41454W        W12054  37.562  15.723   3.550
41455W        W12055  20.332  44.868   1.917
41456W        W12056   2.876  27.187  14.927
41457W        W12057   5.059  23.305  14.177
41458W        W12058  19.317  30.345   0.354
41459W        W12059  27.173  28.408   1.396
41460W        W12060  33.034  34.380  11.102
41461W        W12061   8.788  42.404   3.412
41462W        W12062   8.400  10.765  13.311
41463W        W12063   4.498  32.936   1.654
41464W        W12064  30.053   4.049  11.435
41465W        W12065  25.084  43.377  13.876
41466W        W12066   1.381  40.765   2.352
41467W        W12067  14.752  27.065   1.998
41468W        W12068   0.393  17.855   4.027
41469W        W12069  29.988  36.095  14.301
41470W        W12070   5.466  28.543   0.867
41471W        W12071  35.162  31.383  12.081
41472W        W12072  29.908  38.768   4.987
41473W        W12073  37.882  28.442   1.703
41474W        W12074   7.898  10.095   1.334
41475W        W12075   8.807   8.272   4.099
41476W        W12076  41.047  36.698  11.167
41477W        W12077  34.103  11.532  13.527
41478W        W12078  40.924  24.022   0.762
41479W        W12079  14.060  18.282   2.780
41480W        W12080  27.421  44.687   0.773
41481W        W12081   2.685  17.738  11.569
41482W        W12082  21.901  44.878   1.451
41483W        W12083   0.916  40.935  14.695
41484W        W12084  34.649  43.455  14.795
41485W        W12085   5.380  12.090   1.237
41486W        W12086  18.032  33.568   5.035
41487W        W12087  37.897  33.065  13.488
41488W        W12088  34.864  19.678  12.235
41489W        W12089  17.755  18.184   0.352
41490W        W12090   4.241   9.666  13.004
41491W        W12091  35.492   9.766   1.057
41492W        W12092  15.570   3.005  11.580
41493W        W12093  28.087  30.968   3.102
41494W        W12094   3.874  11.844  12.115
41495W        W12095  38.061  33.053   3.218
41496W        W12096   3.095  39.036   4.446
41497W        W12097  13.857  35.454   3.351
41498W        W12098  25.446  34.544  13.551
41499W        W12099  14.181  38.403   0.819
41500W        W12100  19.006   5.056   0.348
41501W        W12101  13.628  38.701  13.172
41502W        W12102  44.637  14.143  13.989
41503W        W12103  21.263  39.913  13.391
41504W        W12104   8.664  32.460   0.264
41505W        W12105  24.623  11.378  12.039
41506W        W12106  25.005  14.674  13.888
41507W        W12107  19.647  35.317  13.074
41508W        W12108  16.594  43.452  12.199
41509W        W12109  35.131   8.093   2.293
41510W        W12110   3.992  20.195  14.998
41511W        W12111  43.750  12.914  11.519
41512W        W12112   2.731  33.529  14.925
41513W        W12113  37.615  18.291  11.561
41514W        W12114   3.978   7.889  12.465
41515W        W12115  31.491  24.325   1.216
41516W        W12116   4.933   8.031  12.488
41517W        W12117  28.702  39.523  13.501
41518W        W12118  31.991  32.949   0.279
41519W        W12119  39.036  40.980  11.181
41520W        W12120  44.262  26.946   0.341
41521W        W12121  20.578  20.669   3.159
41522W        W12122  36.027  36.955   1.791
41523W        W12123  20.490  28.902  12.879
41524W        W12124  24.030  34.476   4.128
41525W        W12125   4.661  36.029   3.648
41526W        W12126  20.292  10.205   2.828
41527W        W12127  16.559   6.308   4.138
41528W        W12128  26.230  26.126   0.848
41529W        W12129  41.270  22.755   3.662
41530W        W12130  17.249   1.746  13.079
41531W        W12131  43.395   5.756  10.555
41532W        W12132  39.465   8.173  11.539
41533W        W12133  18.655  14.392  11.242
41534W        W12134  40.865  37.890   4.148
41535W        W12135  35.362  31.602  11.624
41536W        W12136  19.930  35.748  11.556
41537W        W12137  27.144  35.697   2.757
41538W        W12138  41.777  15.242   1.331
41539W        W12139   6.399   7.400  10.988
41540W        W12140  36.172  15.242   4.226
41541W        W12141  40.288   0.720  13.347
41542W        W12142  32.962  11.909   2.663
41543W        W12143  30.073  14.234  11.010
41544W        W12144  26.780  20.507  13.498
41545W        W12145  44.248  13.143  11.415
41546W        W12146   1.794  20.486  12.782
41547W        W12147  39.110  15.500  13.453
41548W        W12148  20.149  37.657   1.002
41549W        W12149   9.229  39.397   1.807
41550W        W12150  41.447   1.738   3.343
41551W        W12151   8.750  41.431  14.284
41552W        W12152  21.217  22.442   1.016
41553W        W12153  34.446  31.597   1.228
41554W        W12154  17.188  17.641   4.719
41555W        W12155  11.176  36.345   1.380
41556W        W12156  11.902  17.170  13.891
41557W        W12157  31.423  40.240   3.294
41558W        W12158  39.312   7.256  11.053
41559W        W12159  34.648  28.920  12.429
41560W        W12160  28.120   0.295   4.697
41561W        W12161  42.757  21.418   0.271
41562W        W12162   8.687  26.719   4.192
41563W        W12163  39.906   4.403  13.074
41564W        W12164  32.536  36.016  14.559
41565W        W12165  33.958  32.895  12.477
41566W        W12166   7.605  21.548  12.114
41567W        W12167  22.955   1.500   0.279
41568W        W12168  40.833  22.519   0.439
41569W        W12169  39.904  33.013  13.154
41570W        W12170  13.705  31.959   0.519
41571W        W12171   5.373  15.820  11.160
41572W        W12172  17.307   9.792  12.856
41573W        W12173  41.295  10.594   2.140
41574W        W12174  21.428   9.714  14.454
41575W        W12175  18.079   3.099   3.301
41576W        W12176  36.172  40.925  14.620
41577W        W12177  26.665   2.061  11.600
41578W        W12178  43.238  16.620  11.630
41579W        W12179   3.125  14.079   0.016
41580W        W12180  20.978  35.882   0.227
41581W        W12181  10.206  29.029  10.167
41582W        W12182  19.568  44.941  11.064
41583W        W12183  39.148  21.747  13.495
41584W        W12184  21.252  30.499  11.389
41585W        W12185  44.719  15.761   1.875
41586W        W12186  21.012  33.066   4.560
41587W        W12187  42.344  43.209  14.844
41588W        W12188   2.994  28.692   0.982
41589W        W12189  20.781  39.159  11.201
41590W        W12190  42.506  10.740   2.899
41591W        W12191  39.817  17.141  12.374
41592W        W12192   6.216  39.833  11.603
41593W        W12193  24.676  21.066   1.263
41594W        W12194  31.145   0.857   0.485
41595W        W12195   3.184   3.739  11.155
41596W        W12196  39.121  32.885   2.165
41597W        W12197   4.779  10.015  14.005
41598W        W12198   1.013  31.097  14.993
41599W        W12199  14.965  12.217   0.313
41600W        W12200   6.251  30.382  12.371
41601W        W12201  24.373  17.528  10.998
41602W        W12202  14.685  25.108  11.992
41603W        W12203  40.025  12.828   2.462
41604W        W12204  13.329   0.485   2.001
41605W        W12205  16.834  22.997   2.599
41606W        W12206  35.117  37.848   0.391
41607W        W12207  10.917   5.494   0.867
41608W        W12208  29.963   4.799  10.807
41609W        W12209   3.208   7.334  12.113
41610W        W12210  32.671  23.634   4.562
41611W        W12211  13.592  24.564   1.016
41612W        W12212  11.316  20.046  13.478
41613W        W12213   8.440  36.577  14.310
41614W        W12214  44.738   7.580  10.608
41615W        W12215  25.210  32.975  13.185
41616W        W12216  35.087  42.042   1.316
41617W        W12217   6.734   8.840  12.007
41618W        W12218   8.403  43.298   4.872
41619W        W12219   2.242   3.906   1.482
41620W        W12220  30.984  33.526   1.450
41621W        W12221  36.539  18.502  11.097
41622W        W12222  23.970  43.325   3.660
41623W        W12223  23.250  39.336  13.135
41624W        W12224  43.495  39.359  13.449
41625W        W12225  26.219  15.374  13.743
41626W        W12226  30.356  35.127   2.758
41627W        W12227   0.918  37.557  11.697
41628W        W12228  15.607  44.296   1.233
41629W        W12229   2.247  44.519  11.213
41630W        W12230  32.745  25.924   1.887
41631W        W12231   5.732  14.202   3.640
41632W        W12232  26.004  17.728   4.622
41633W        W12233  26.194  43.964   9.837
41634W        W12234   4.910   9.017  10.163
41635W        W12235  40.755  44.820  12.519
41636W        W12236   4.828  40.823  14.574
41637W        W12237   2.337  42.259  11.206
41638W        W12238  10.860   1.832  11.651
41639W        W12239  33.701  10.148   5.231
41640W        W12240   6.925  40.064   1.198
41641W        W12241   0.315   4.045   2.432
41642W        W12242  44.912   6.471  11.951
41643W        W12243  23.875  31.796   3.306
41644W        W12244  26.251  33.115  14.938
41645W        W12245  33.700   8.303  13.826
41646W        W12246   0.374  26.170  14.776
41647W        W12247  21.288  12.843  11.502
41648W        W12248  12.611  38.424  14.746
41649W        W12249  43.937  40.916   3.284
41650W        W12250   7.124  15.748  10.747
41651W        W12251   7.882  23.310   2.929
41652W        W12252   0.354  29.440  12.249
41653W        W12253  41.250  32.340  11.548
41654W        W12254  42.381  25.162  13.016
41655W        W12255  40.317  38.131   2.840
41656W        W12256  18.464  29.484  13.853
41657W        W12257   7.784  24.713   4.162
41658W        W12258  22.174  18.150  14.774
41659W        W12259   5.823  17.779  10.744
41660W        W12260  14.846  25.570   1.451
41661W        W12261   7.387   3.271   1.175
41662W        W12262  39.052  33.967   1.252
41663W        W12263  23.524  18.733   3.810
41664W        W12264  30.504  25.188  11.667
41665W        W12265  44.863  28.572  13.534
41666W        W12266  20.801  44.806  14.008
41667W        W12267  10.809  24.734   1.597
41668W        W12268   3.803  39.892  12.920
41669W        W12269   7.764  22.130   3.418
41670W        W12270  33.477  17.685  10.177
41671W        W12271  28.178   8.298   0.033
41672W        W12272  11.924   4.766   4.792
41673W        W12273   1.356   2.959  11.528
41674W        W12274  15.972   3.099   4.023
41675W        W12275  15.140   7.064  13.424
41676W        W12276  18.871   9.688   3.849
41677W        W12277   0.755  12.149  14.925
41678W        W12278  35.441  19.557   3.779
41679W        W12279  29.683  36.954   0.264
41680W        W12280  15.790  13.769   3.613
41681W        W12281   8.767  44.207   2.285
41682W        W12282  27.901  26.491   2.151
41683W        W12283  14.193  43.337  14.094
41684W        W12284  27.447  20.516  13.180
41685W        W12285   4.388  24.325   1.487
41686W        W12286  16.777  20.707   4.518
41687W        W12287   6.920  38.558   2.703
41688W        W12288  33.476  12.761  14.308
41689W        W12289  22.084  44.434  11.953
41690W        W12290  23.507  44.640   2.006
41691W        W12291  43.221  31.510  14.250
41692W        W12292  18.373  25.604   1.194
41693W        W12293   4.403  34.124  12.863
41694W        W12294  41.824  17.990   0.686
41695W        W12295  39.273  41.844  10.902
41696W        W12296  38.473  23.807   1.880
41697W        W12297   6.820   3.726   2.648
41698W        W12298  17.884  28.255  13.743
41699W        W12299  40.134  35.059   4.150
41700W        W12300  35.045   9.527   0.836
41701W        W12301  11.617   3.594  11.183
41702W        W12302   5.244  24.255  14.899
41703W        W12303  44.992  20.841  14.605
41704W        W12304   1.235  18.273  14.542
41705W        W12305  44.180  26.649  12.375
41706W        W12306  42.397  42.028   0.282
41707W        W12307  36.202   2.638   3.083
41708W        W12308  42.768  19.623   0.316
41709W        W12309  17.656  38.917   3.186
41710W        W12310  37.368  16.167  12.512
41711W        W12311  17.396  28.134  11.929
41712W        W12312  20.671  20.785   0.751
41713W        W12313  40.768  40.277   0.368
41714W        W12314   8.099   1.772  13.283
41715W        W12315  38.342  14.643  11.643
41716W        W12316  18.771  31.389  13.060
41717W        W12317  43.559  16.555  10.779
41718W        W12318  33.531   6.857  10.579
41719W        W12319  29.493  29.647  11.627
41720W        W12320   4.168   3.727  13.017
41721W        W12321  28.668  31.289   2.295
41722W        W12322  11.643   6.174   4.080
41723W        W12323  20.126   3.157  10.872
41724W        W12324  43.883  27.506   2.742
41725W        W12325  17.678  24.423   5.001
41726W        W12326  42.960   0.353   0.297
41727W        W12327   2.815  15.173   0.258
41728W        W12328  15.446  24.547  12.007
41729W        W12329   4.981  30.879   1.728
41730W        W12330   2.199   6.043  13.092
41731W        W12331  19.767  23.026  11.840
41732W        W12332  20.487  34.430   0.820
41733W        W12333  24.905  43.936  10.128
41734W        W12334  17.886   0.475  14.699
41735W        W12335  34.837  37.454   1.274
41736W        W12336   6.198  31.129   0.908
41737W        W12337  40.846  42.199  13.079
41738W        W12338  29.190   2.303   2.258
41739W        W12339  35.106  20.106  12.543
41740W        W12340  43.953  34.214   1.791
41741W        W12341  18.159  19.638   0.494
41742W        W12342  18.623   9.599   4.869
41743W        W12343  12.414  37.338  10.965
41744W        W12344  13.376  31.656   1.879
41745W        W12345  41.064  35.623   2.254
41746W        W12346   1.743  10.858  12.978
41747W        W12347  39.982  18.511  14.459
41748W        W12348  21.548  32.510   3.347
41749W        W12349  22.637   7.471   3.255
41750W        W12350  18.706  18.563   0.971
41751W        W12351  37.056  38.872  11.729
41752W        W12352  43.304  30.174  14.798
41753W        W12353  15.409   0.005  13.767
41754W        W12354  20.090  16.597   0.357
41755W        W12355  17.873  28.169   1.302
41756W        W12356   1.951  15.803  10.727
41757W        W12357   6.920   7.366  13.509
41758W        W12358  35.610  35.628   0.987
41759W        W12359  38.990  19.538  13.440
41760W        W12360  40.594  33.020  11.996
41761W        W12361  20.469  34.094   0.283
41762W        W12362  42.386  22.733  11.658
41763W        W12363  14.188  35.335   1.294
41764W        W12364  44.316  17.833  11.724
41765W        W12365  36.165  25.123  13.557
41766W        W12366  15.584  21.508   3.599
41767W        W12367  24.074   4.145  11.498
41768W        W12368  27.129  15.145   4.747
41769W        W12369  41.008   3.509  14.387
41770W        W12370  36.309  36.351   0.932
41771W        W12371  31.125   2.350  10.644
41772W        W12372  32.492  31.622   0.354
41773W        W12373  12.397  10.594   3.059
41774W        W12374  30.002  15.281   1.936
41775W        W12375  38.587   9.886   2.768
41776W        W12376  40.879  12.362  10.846
41777W        W12377   1.546  40.056   3.737
41778W        W12378  42.081  16.034  10.821
41779W        W12379   8.243  19.750  12.430
41780W        W12380  30.637  16.004   4.862
41781W        W12381   0.521   1.347  11.985
41782W        W12382  38.422  22.498  12.111
41783W        W12383  41.207  37.781   1.904
41784W        W12384  41.274  40.444   3.159
41785W        W12385  24.047  43.593   4.101
41786W        W12386  39.762  28.341   1.729
41787W        W12387   3.759  27.068  11.112
41788W        W12388  27.872  44.564  12.426
41789W        W12389   1.390  15.848  12.975
41790W        W12390  32.407  19.440  12.970
41791W        W12391   3.495   4.693  11.640
41792W        W12392  25.744   7.038  10.240
41793W        W12393  36.987  32.895  11.587
41794W        W12394  40.664  15.818  10.431
41795W        W12395   5.837  11.481  10.342
41796W        W12396  10.207  32.160   3.310
41797W        W12397  40.600  30.113  14.404
41798W        W12398  36.500  28.972  12.524
41799W        W12399  22.716   4.930  13.035
41800W        W12400  44.557   2.448  12.943
41801W        W12401  10.323  13.247  10.705
41802W        W12402  33.560  28.393  13.850
41803W        W12403  14.078  31.151  11.861
41804W        W12404  12.708  29.577   2.560
41805W        W12405  33.580  30.690  14.294
41806W        W12406   8.476  19.886   0.765
41807W        W12407  33.443   1.210  14.366
41808W        W12408   6.660   8.415  10.673
41809W        W12409  20.307  11.844   2.683
41810W        W12410  21.780  35.341  13.165
41811W        W12411  19.002   4.896  11.580
41812W        W12412  31.479  26.679  11.381
41813W        W12413  31.704  25.997   0.099
41814W        W12414   4.764  17.853  12.997
41815W        W12415  16.886  37.033   2.092
41816W        W12416  44.996  18.313  11.182
41817W        W12417  36.068  33.761   4.516
41818W        W12418  16.648   1.681  14.841
41819W        W12419  30.180   6.871   3.842
41820W        W12420  30.801  23.696  11.079
41821W        W12421  34.549  14.425  11.010
41822W        W12422  34.832  21.640   1.824
41823W        W12423  36.052  39.057   3.384
41824W        W12424  42.978   2.350   3.147
41825W        W12425   8.594  26.895   1.396
41826W        W12426  22.164   2.472  11.514
41827W        W12427   9.124   7.804  11.045
41828W        W12428   4.930  17.677   5.046
41829W        W12429  44.345   4.831  11.491
41830W        W12430  25.157  39.422  10.661
41831W        W12431  34.398  24.112   3.560
41832W        W12432  29.161  16.267  10.985
41833W        W12433  40.592  34.420   3.081
41834W        W12434  20.965   7.930  12.948
41835W        W12435  24.747  41.099  11.189
41836W        W12436  26.901  25.083   3.333
41837W        W12437  11.737  34.062   4.086
41838W        W12438  10.753  15.262   0.878
41839W        W12439  30.674   0.414   2.996
41840W        W12440  28.003  32.878  14.299
41841W        W12441  27.461  17.320  14.060
41842W        W12442  15.346  18.188  11.068
41843W        W12443   8.219  33.342  14.660
41844W        W12444  40.009  26.111   4.533
41845W        W12445  39.217  31.194   3.271
41846W        W12446  17.801  20.682   3.218
41847W        W12447  24.231  12.647   0.584
41848W        W12448  22.635  31.884  13.918
41849W        W12449  32.360  40.967  14.698
41850W        W12450  12.108  28.565   0.819
41851W        W12451  13.003   8.659  13.109
41852W        W12452  36.158  37.051  12.792
41853W        W12453  25.239  42.250   4.340
41854W        W12454  27.238   9.557   0.546
41855W        W12455  18.591   4.647  11.431
41856W        W12456  10.166  17.646   3.659
41857W        W12457   4.370  24.999   2.597
41858W        W12458  17.630  27.717   1.251
41859W        W12459  20.674  33.378  12.886
41860W        W12460  20.213  42.324  12.512
41861W        W12461  15.614  11.722  14.020
41862W        W12462  30.039  20.554  11.936
41863W        W12463   5.138  17.543  11.279
41864W        W12464  16.091  40.237  13.440
41865W        W12465  12.222  29.430   2.244
41866W        W12466  12.521  35.972  14.609
41867W        W12467  26.872  25.245  11.176
41868W        W12468  33.387  25.135  13.027
41869W        W12469  32.666  41.340  10.049
41870W        W12470  16.788  18.796   2.109
41871W        W12471  43.715   9.766  11.184
41872W        W12472  27.965  35.427   3.166
41873W        W12473   2.382  18.550   2.468
41874W        W12474  18.617  10.434   4.157
41875W        W12475  36.450  29.730   1.902
41876W        W12476  14.603  22.973  13.814
41877W        W12477   4.152  34.904  13.933
41878W        W12478   8.971  30.560   1.888
41879W        W12479  35.900  31.100   3.347
41880W        W12480   2.335  30.975   0.810
41881W        W12481   0.061  19.300   0.464
41882W        W12482  37.282  32.910  10.763
41883W        W12483  35.491  29.957  14.479
41884W        W12484   5.311   4.534   3.965
41885W        W12485  39.733   9.369   1.809
41886W        W12486  43.060  34.627   1.740
41887W        W12487  15.201  32.532  12.291
41888W        W12488   6.888  33.554   1.165
41889W        W12489  24.091  30.212  13.142
41890W        W12490  30.140  25.203   4.588
41891W        W12491  36.806   5.285   2.309
41892W        W12492  20.883  12.449   2.889
41893W        W12493  44.349  16.272   0.305
41894W        W12494  35.411   7.276   2.756
41895W        W12495  27.122  14.158   4.772
41896W        W12496  36.432  29.115  11.676
41897W        W12497  18.674  26.434  11.689
41898W        W12498   3.115  29.121   4.767
41899W        W12499  10.326  22.196  12.093
41900W        W12500  23.423  14.426   1.761
41901W        W12501  26.128  34.077   4.217
41902W        W12502   5.415  14.932  11.326
41903W        W12503   6.350  34.452   4.537
41904W        W12504  18.716  40.442   4.558
41905W        W12505  16.662   3.496   0.352
41906W        W12506  44.771   2.889   4.541
41907W        W12507  43.463  39.917  10.986
41908W        W12508  36.884  34.023   4.027
41909W        W12509  35.278  15.666   1.783
41910W        W12510  13.620   1.621  11.541
41911W        W12511  12.774   6.836  14.830
41912W        W12512  42.754  19.187   2.645
41913W        W12513   9.830  15.628  11.863
41914W        W12514   7.773  24.736  13.930
41915W        W12515  16.627  12.748  10.246
41916W        W12516  35.033   5.221   4.590
41917W        W12517   0.123  23.108   2.315
41918W        W12518  19.349   0.904   2.667
41919W        W12519  25.602  28.140  13.156
41920W        W12520  13.206  44.774   0.846
41921W        W12521   6.814  15.904  12.423
41922W        W12522   6.280  11.631  12.115
41923W        W12523  16.243  42.905   2.140
41924W        W12524  21.029  12.391  14.346
41925W        W12525  11.825  25.529  13.546
41926W        W12526  19.294  42.499  11.057
41927W        W12527   9.451  24.651   0.372
41928W        W12528  27.043  27.144   3.609
41929W        W12529  33.464  10.755  13.459
41930W        W12530   5.864  35.801  12.105
41931W        W12531  20.604   8.793   0.802
41932W        W12532   1.798  23.083   4.676
41933W        W12533  19.318  36.562  12.617
41934W        W12534  13.216  17.330  11.194
41935W        W12535  41.335  10.613   4.430
41936W        W12536  19.192  39.952  12.346
41937W        W12537  16.053  16.477   0.719
41938W        W12538  24.431  38.381  14.844
41939W        W12539  22.600  21.169   1.642
41940W        W12540  13.849  40.074  13.437
41941W        W12541   6.716  14.569   1.474
41942W        W12542  33.867  18.982  14.440
41943W        W12543  28.374   3.957   4.200
41944W        W12544   4.349  21.805   3.205
41945W        W12545  18.173  16.771   0.197
41946W        W12546   7.799  25.282  11.601
41947W        W12547   8.003  30.927  11.087
41948W        W12548   5.595   6.847   0.753
41949W        W12549  15.130   7.633  10.820
41950W        W12550   6.342  12.488   3.657
41951W        W12551  15.118   4.826  14.037
41952W        W12552  43.319  26.278   1.727
41953W        W12553   6.992  27.561  13.361
41954W        W12554  36.855  37.281   3.204
41955W        W12555  14.641   4.122   4.677
41956W        W12556  29.691   9.306   3.619
41957W        W12557  18.668  29.006   3.515
41958W        W12558  43.470   4.730   4.227
41959W        W12559  37.389  42.512  13.335
41960W        W12560  29.115  35.818  14.815
41961W        W12561  36.501  17.658   3.304
41962W        W12562  20.729  38.175   3.232
41963W        W12563  19.938   3.126   0.465
41964W        W12564  20.057  41.797   3.847
41965W        W12565  38.453   8.595  11.032
41966W        W12566  23.444   9.251   3.181
41967W        W12567   5.721  21.625  14.314
41968W        W12568  20.120   1.799  11.071
41969W        W12569  27.029  15.511  12.474
41970W        W12570  22.759  25.106  14.502
41971W        W12571   8.252  15.733   3.850
41972W        W12572   8.501   2.419   1.284
41973W        W12573   1.223  35.463   3.172
41974W        W12574  17.443  13.149   5.632
41975W        W12575  24.104  38.300   0.358
41976W        W12576  31.922  34.103  10.592
41977W        W12577  26.543  38.325   1.115
41978W        W12578  44.388  34.434  14.462
41979W        W12579  27.858  41.338  10.431
41980W        W12580  17.515  34.095  12.803
41981W        W12581  21.722  42.966  11.211
41982W        W12582  17.844   5.396   1.010
41983W        W12583   6.423  33.547   3.841
41984W        W12584  23.471  37.418   4.670
41985W        W12585  44.858  30.904  12.951
41986W        W12586   1.981   3.561   3.326
41987W        W12587  13.623   1.549  13.934
41988W        W12588  31.939  30.675  14.597
41989W        W12589  23.480  15.127  11.568
41990W        W12590   2.692   5.869   3.322
41991W        W12591  28.771   2.762   2.827
41992W        W12592  24.182  35.727   3.563
41993W        W12593   3.158  29.635   4.680
41994W        W12594  16.314  19.121   1.769
41995W        W12595  39.347  33.382  11.122
41996W        W12596  15.262   9.999  13.026
41997W        W12597  41.716  43.900   3.504
41998W        W12598  18.306   2.321   1.686
41999W        W12599  21.703  28.229   2.636
42000W        W12600  43.968  43.436  12.358
42001W        W12601  10.830  37.925  10.665
42002W        W12602  30.479  42.763   4.150
42003W        W12603  30.237  31.329  11.511
42004W        W12604  22.428  22.237   0.997
42005W        W12605  12.424  15.765  11.618
42006W        W12606  35.860  23.774   1.471
42007W        W12607   0.751  31.682   2.344
42008W        W12608  34.493  19.085   4.146
42009W        W12609  21.189  26.790  11.141
42010W        W12610  17.388  35.574  13.040
42011W        W12611   5.343  36.467   2.099
42012W        W12612  18.883  10.171   1.238
42013W        W12613  12.666   5.720   4.192
42014W        W12614  20.828  17.966  11.199
42015W        W12615  37.923   8.478   4.680
42016W        W12616   5.348   8.784  14.316
42017W        W12617   6.897   1.951  10.830
42018W        W12618  36.990  35.971   4.573
42019W        W12619  31.977   9.394   1.960
42020W        W12620  18.561  10.272  11.527
42021W        W12621  22.157  35.792   2.641
42022W        W12622   3.814  26.202   0.754
42023W        W12623  41.047  27.466  11.140
42024W        W12624  11.402   7.441  13.345
42025W        W12625   1.543  42.487  10.625
42026W        W12626   1.021  23.043  11.482
42027W        W12627   5.945  18.210   1.837
42028W        W12628  17.464  28.495  11.010
42029W        W12629  28.939  15.794  10.886
42030W        W12630   9.981  15.144  12.020
42031W        W12631  26.039  16.270  14.361
42032W        W12632  15.323  32.534   1.796
42033W        W12633  18.215  39.775   3.770
42034W        W12634  43.590  13.228   2.405
42035W        W12635  16.984  32.060   2.727
42036W        W12636  11.687  16.558  12.565
42037W        W12637  38.830  37.830  13.172
42038W        W12638  24.184  44.215  13.499
42039W        W12639  15.855  38.899   4.121
42040W        W12640  35.478  27.594  13.121
42041W        W12641  28.024  13.088  11.879
42042W        W12642  22.297  31.517   1.852
42043W        W12643   7.218  19.654  14.845
42044W        W12644  40.261  37.104   0.890
42045W        W12645  18.145   9.857   4.695
42046W        W12646  39.498  26.855  11.616
42047W        W12647  25.126  39.046  14.554
42048W        W12648  33.525  42.074   3.704
42049W        W12649  38.803   7.229  14.825
42050W        W12650   5.711  29.878  14.350
42051W        W12651  18.757  12.673  11.663
42052W        W12652  29.635   0.642  10.946
42053W        W12653  12.117  28.041   1.412
42054W        W12654   9.388   6.710  13.080
42055W        W12655  26.884  16.825  12.043
42056W        W12656  21.090   1.795   2.293
42057W        W12657  40.840  13.736  14.916
42058W        W12658  30.886  10.447   4.517
42059W        W12659   9.310  12.114   0.314
42060W        W12660   3.635  38.993  14.827
42061W        W12661  20.408  38.106  13.873
42062W        W12662  38.628  19.750  13.744
42063W        W12663  26.638  38.463   4.199
42064W        W12664  25.650  40.358   1.027
42065W        W12665  34.422  19.421  13.434
42066W        W12666  25.715  14.380  11.434
42067W        W12667  30.251  31.502   4.813
42068W        W12668  21.844   7.152   5.216
42069W        W12669  36.035  25.269  10.684
42070W        W12670   9.760  30.956  12.622
42071W        W12671  37.174   3.933   0.738
42072W        W12672  16.614  14.406  14.056
42073W        W12673  11.332  27.509   2.361
42074W        W12674  31.078  31.966   3.576
42075W        W12675  12.814  27.991   1.867
42076W        W12676  15.212  18.059   2.183
42077W        W12677  11.261  18.287  12.832
42078W        W12678   0.384  30.149   0.458
42079W        W12679  41.303  20.636   2.361
42080W        W12680  29.828  39.317   2.667
42081W        W12681  19.597  18.729  12.060
42082W        W12682  30.050  16.891  14.292
42083W        W12683  16.069  34.103   0.495
42084W        W12684   2.258  35.571  13.427
42085W        W12685   0.892   4.921   0.447
42086W        W12686  10.517  13.687  14.907
42087W        W12687  13.572  17.440   4.022
42088W        W12688  36.408  20.086   0.897
42089W        W12689  28.677  18.742  14.800
42090W        W12690  32.138  44.025   2.277
42091W        W12691  24.766   2.842   0.902
42092W        W12692  41.837  10.291  14.382
42093W        W12693   5.787  20.457  13.805
42094W        W12694  42.311  30.087   0.817
42095W        W12695  27.952  33.359  13.216
42096W        W12696  34.178  30.224  12.405
42097W        W12697   7.740  44.451  13.174
42098W        W12698  29.650  13.353  11.918
42099W        W12699  12.689  29.116   1.342
42100W        W12700  37.503  42.071   4.972
42101W        W12701  25.126  31.935   2.383
42102W        W12702  34.084  20.044  12.699
42103W        W12703  15.256  40.934   3.714
42104W        W12704  39.063   7.251   0.289
42105W        W12705  20.889  39.538   0.351
42106W        W12706  35.512   1.882  11.572
42107W        W12707  22.449   2.965   1.373
42108W        W12708   3.334   9.261  11.276
42109W        W12709  29.732  38.543   3.635
42110W        W12710  17.699  27.740   2.632
42111W        W12711  10.427  34.970  10.963
42112W        W12712   5.372  23.995   2.311
42113W        W12713  16.104  15.574  10.482
42114W        W12714  25.987  10.682  12.438
42115W        W12715  17.328   4.560   4.167
42116W        W12716  42.875  29.434   0.299
42117W        W12717  38.171  13.609  12.896
42118W        W12718  20.564  19.644   4.133
42119W        W12719   3.310  38.616   4.653
42120W        W12720  23.372   8.259   1.374
42121W        W12721  29.024  36.415   3.244
42122W        W12722  32.615  19.730  13.362
42123W        W12723   8.669  38.316   1.505
42124W        W12724  31.847  32.627  14.468
42125W        W12725  24.936  12.322   4.123
42126W        W12726   1.993   8.812  12.606
42127W        W12727  44.880  17.281  12.005
42128W        W12728  15.274  40.932   4.585
42129W        W12729  24.497  25.626   2.738
42130W        W12730   0.986  34.835   4.884
42131W        W12731  27.003  34.019  14.887
42132W        W12732  27.256  30.444   1.458
42133W        W12733  27.633   9.193   1.226
42134W        W12734  41.207  10.237  14.067
42135W        W12735  13.505   0.812  14.332
42136W        W12736   1.642  28.391  11.481
42137W        W12737  39.852  18.614   2.164
42138W        W12738  17.333  32.105   1.644
42139W        W12739  42.122  21.278  14.045
42140W        W12740  37.513   4.901  11.493
42141W        W12741  15.741  32.990   4.010
42142W        W12742  25.647  26.471   2.007
42143W        W12743  34.523  31.061  12.544
42144W        W12744  16.695   3.712  14.859
42145W        W12745   4.347  20.955   3.590
42146W        W12746  15.314  40.516  12.938
42147W        W12747  27.183  14.082   1.010
42148W        W12748   2.277   7.870   1.085
42149W        W12749  42.921  10.661   2.268
42150W        W12750  33.226  26.639  11.988
42151W        W12751  14.261   9.920  11.010
42152W        W12752  42.549  11.902  12.129
42153W        W12753  27.017  18.994   0.465
42154W        W12754  12.694  37.105   0.338
42155W        W12755  28.083   4.365   1.341
42156W        W12756  35.019  26.589   0.721
42157W        W12757  12.567  20.053  12.876
42158W        W12758  20.420  37.552   0.410
42159W        W12759  13.063  44.919  12.662
42160W        W12760  40.553  42.264   2.395
42161W        W12761  34.933  30.423   4.111
42162W        W12762   4.931   7.437   0.248
42163W        W12763  30.897  21.235  13.489
42164W        W12764  16.228  14.588   1.814
42165W        W12765   1.393  15.035   1.514
42166W        W12766  22.535  10.378  14.958
42167W        W12767  43.743  38.336   4.539
42168W        W12768  17.092   3.169  11.137
42169W        W12769  17.802  20.252   2.263
42170W        W12770   8.237  28.261   0.132
42171W        W12771  26.936   6.048  13.035
42172W        W12772   3.442   5.385   0.213
42173W        W12773   8.341  35.499   3.147
42174W        W12774  17.052  27.315   4.049
42175W        W12775  31.774  26.230  11.327
42176W        W12776  17.566   4.541   1.439
42177W        W12777  18.136  13.183   1.634
42178W        W12778  41.228  40.201   1.846
42179W        W12779  27.896  41.275   5.059
42180W        W12780   8.043  32.485   0.447
42181W        W12781  13.713  12.358  14.851
42182W        W12782  26.425  11.731  13.884
42183W        W12783   1.848   2.069  12.953
42184W        W12784  41.894  33.424  11.896
42185W        W12785  19.926  42.363   1.205
42186W        W12786  13.815   2.773  14.395
42187W        W12787  32.992   4.348  14.013
42188W        W12788  17.626  41.281   2.595
42189W        W12789  15.797  41.408   1.339
42190W        W12790   9.183   2.609   0.716
42191W        W12791   4.596  14.616  13.047
42192W        W12792  43.990  14.514   2.826
42193W        W12793  14.015  26.797   2.765
42194W        W12794   2.476  37.800  13.071
42195W        W12795  18.832  26.188  14.967
42196W        W12796  30.159  34.524   4.821
42197W        W12797  36.998   8.705  13.345
42198W        W12798   9.249  20.773  13.534
42199W        W12799  29.933  16.123  13.050
42200W        W12800  11.387  28.409   4.682
42201W        W12801  33.944  30.258   3.226
42202W        W12802  18.832  28.416  13.116
42203W        W12803   7.407   3.016   2.276
42204W        W12804  22.517  29.568  14.315
42205W        W12805   0.210  33.136   9.891
42206W        W12806  16.873   9.396   0.418
42207W        W12807  35.377  32.618   1.960
42208W        W12808  14.247  21.549  13.284
42209W        W12809   1.750  28.839   0.250
42210W        W12810  36.055  38.366   0.431
42211W        W12811  13.337  17.138  13.839
42212W        W12812   9.463   0.243   2.684
42213W        W12813  25.175   5.941  14.985
42214W        W12814  18.280  15.930  12.460
42215W        W12815  37.467  29.737   3.143
42216W        W12816  16.103  15.171  14.842
42217W        W12817  43.473  34.833  12.866
42218W        W12818  38.155  41.807  12.074
42219W        W12819  38.285  36.985   2.868
42220W        W12820  39.097  21.274  12.155
42221W        W12821  36.059  24.463  13.394
42222W        W12822  23.112  30.894   3.205
42223W        W12823   0.993  42.534  10.595
42224W        W12824  16.579  23.055  11.453
42225W        W12825  34.502  15.403   4.254
42226W        W12826  18.975  39.541   3.353
42227W        W12827  21.567  17.770   3.595
42228W        W12828  40.849  28.002   1.979
42229W        W12829  26.569  11.290   1.479
42230W        W12830   5.001  25.836  12.889
42231W        W12831   5.356  43.219   3.977
42232W        W12832  31.453   8.709  13.348
42233W        W12833   0.238  27.318   0.384
42234W        W12834  19.546  42.060  10.980
42235W        W12835  36.301  40.666   4.182
42236W        W12836   6.692  43.398   1.955
42237W        W12837   7.589  42.301  11.638
42238W        W12838   5.502  11.280  12.627
42239W        W12839  31.644  33.125   3.754
42240W        W12840  35.408  44.991  12.124
42241W        W12841  19.530  24.482  12.940
42242W        W12842  11.170  31.503   0.975
42243W        W12843   1.656  40.878   3.315
42244W        W12844  10.747  28.864  11.548
42245W        W12845  17.561  38.322  12.456
42246W        W12846  17.275  37.228   1.768
42247W        W12847  21.028  16.574   3.864
42248W        W12848  34.614   3.364   3.254
42249W        W12849  40.762  30.528   4.185
42250W        W12850   9.313   2.858  12.063
42251W        W12851  42.826  12.170  14.313
42252W        W12852  36.966  12.057  10.582
42253W        W12853   7.873  12.273   2.452
42254W        W12854  22.688  14.164   1.206
42255W        W12855  11.800  20.131  14.510
42256W        W12856  32.592  10.834   2.592
42257W        W12857  19.228   7.391  13.382
42258W        W12858  44.494  16.044   3.689
42259W        W12859  10.706  34.504  10.623
42260W        W12860  39.131  32.692   0.865
42261W        W12861  42.528  32.891   1.907
42262W        W12862   1.726  11.508   3.630
42263W        W12863  11.600  44.085   3.735
42264W        W12864   0.338  30.005   3.607
42265W        W12865  11.039  23.984   0.816
42266W        W12866  39.299  24.828   0.736
42267W        W12867  10.675  42.762   2.997
42268W        W12868   8.488   3.279  11.658
42269W        W12869  40.563  25.824   3.648
42270W        W12870   0.871  42.250  12.390
42271W        W12871   8.127  41.315   3.726
42272W        W12872   1.868  10.649  13.870
42273W        W12873   6.532  26.936   1.850
42274W        W12874  19.042  33.503  10.942
42275W        W12875  34.600  26.604   2.770
42276W        W12876  12.135  26.389   5.030
42277W        W12877   3.911   8.275   3.162
42278W        W12878   6.259  37.975   4.009
42279W        W12879  22.020  25.131   2.060
42280W        W12880   2.198  24.968   3.775
42281W        W12881  25.505   4.354   3.818
42282W        W12882  38.283   6.939   0.459
42283W        W12883  16.781   0.469   3.647
42284W        W12884  31.113   0.060   1.230
42285W        W12885   5.323   0.505   3.073
42286W        W12886  34.182  30.138   0.829
42287W        W12887   9.478  30.028   0.221
42288W        W12888   6.849  13.412  13.544
42289W        W12889  32.484  31.698  13.847
42290W        W12890  36.439  16.708   1.851
42291W        W12891  15.168   4.427  13.680
42292W        W12892  13.182   3.945  14.998
42293W        W12893  43.797   9.833   1.260
42294W        W12894  30.432  36.335  10.720
42295W        W12895   8.760  21.755   4.623
42296W        W12896  33.548  18.656   2.486
42297W        W12897  16.325   3.868  11.999
42298W        W12898   9.139  35.996  11.065
42299W        W12899  34.177  13.160   3.705
42300W        W12900  37.922  17.073   2.904
42301W        W12901  40.686  37.885   1.445
42302W        W12902   9.579   1.864  14.384
42303W        W12903   7.213  43.865   2.754
42304W        W12904   7.318   7.635   2.955
42305W        W12905   5.237  40.521   1.682
42306W        W12906  20.585  37.949   2.225
42307W        W12907  24.671   8.587   0.006
42308W        W12908  32.563  30.123   0.467
42309W        W12909   7.689  31.601   2.503
42310W        W12910  26.625  29.735   2.739
42311W        W12911  32.470  44.957   2.563
42312W        W12912  11.911  12.803  11.416
42313W        W12913  12.274  30.897  12.090
42314W        W12914  15.832  31.270  12.660
42315W        W12915  41.641   7.377  12.677
42316W        W12916  23.077  22.102  14.355
42317W        W12917  27.686  34.622   3.172
42318W        W12918   8.635  29.542  14.378
42319W        W12919  11.087  38.043  14.000
42320W        W12920  37.501  20.730  12.981
42321W        W12921  17.697  44.452  11.425
42322W        W12922  27.207  39.463  13.321
42323W        W12923   4.994  19.124  10.436
42324W        W12924  44.840   2.466  13.380
42325W        W12925  43.063  31.122   0.353
42326W        W12926  32.443  31.910  13.222
42327W        W12927  21.621   1.049   1.087
42328W        W12928  37.054  12.218  14.943
42329W        W12929  13.360  34.603   1.342
42330W        W12930  21.525   3.697  12.482
42331W        W12931  37.641  37.776  13.311
42332W        W12932  21.936  19.306  13.364
42333W        W12933  19.174  32.639   3.387
42334W        W12934  44.964  38.275  11.271
42335W        W12935  27.195  30.079   2.367
42336W        W12936   5.159   9.770  13.099
42337W        W12937  12.662  15.795   4.805
42338W        W12938  26.987  12.249  12.445
42339W        W12939   4.682   2.421  12.470
42340W        W12940  34.676  27.028   2.430
42341W        W12941  44.996  41.722   1.375
42342W        W12942  34.606  18.244   2.441
42343W        W12943  44.410  33.106   3.906
42344W        W12944  31.281   7.355  13.146
42345W        W12945  18.898  10.184   5.111
42346W        W12946  25.588  41.247   1.751
42347W        W12947   1.673   9.676   1.403
42348W        W12948  44.478   3.864  13.607
42349W        W12949  37.936   6.112   0.644
42350W        W12950  40.714  39.925   2.078
42351W        W12951  10.657   2.909  12.600
42352W        W12952   7.791   3.681   0.521
42353W        W12953   5.078   6.142   4.761
42354W        W12954  30.011  16.507  10.884
42355W        W12955   8.728  14.851  11.440
42356W        W12956  30.505  22.508   5.025
42357W        W12957  11.359  28.260   1.902
42358W        W12958   3.742  19.945  12.609
42359W        W12959  44.218  22.989   2.586
42360W        W12960  29.617  16.555   1.316
42361W        W12961  40.122  13.798  12.687
42362W        W12962   0.079  39.569  13.482
42363W        W12963   4.634  24.064  13.397
42364W        W12964  14.332  35.310   5.439
42365W        W12965   9.491  30.638  14.024
42366W        W12966  44.033  13.152  11.872
42367W        W12967   0.379   7.174   3.026
42368W        W12968  23.446  43.297  14.763
42369W        W12969  21.781   6.655   1.948
42370W        W12970  43.311  41.622   0.382
42371W        W12971  38.363  20.121  13.483
42372W        W12972  10.863   1.814  13.219
42373W        W12973   5.477   2.016   3.137
42374W        W12974  25.051  31.669  12.449
42375W        W12975  17.560  39.009   3.684
42376W        W12976  12.361  34.177   2.678
42377W        W12977   5.504  26.607  13.374
42378W        W12978  13.076   8.154  14.767
42379W        W12979   2.931  35.420   3.498
42380W        W12980   6.345  22.447   4.604
42381W        W12981  40.624  24.510  12.293
42382W        W12982  32.496   7.259  12.508
42383W        W12983  16.861   4.734  12.089
42384W        W12984  32.430  34.564   1.749
42385W        W12985   9.280  38.953  14.401
42386W        W12986  38.592  44.782  13.926
42387W        W12987  19.252  37.549  11.611
42388W        W12988  33.918   4.394  10.956
42389W        W12989  25.989   3.900   3.342
42390W        W12990  17.442  24.918  10.333
42391W        W12991  35.634   9.769   1.564
42392W        W12992  19.676  12.928   3.343
42393W        W12993   2.943   6.769   3.226
42394W        W12994  12.572  17.059   3.373
42395W        W12995  20.553   3.327   0.620
42396W        W12996  44.293  13.736   0.972
42397W        W12997   7.162  35.959   1.020
42398W        W12998  37.853  17.172  10.088
42399W        W12999   1.806  13.119  12.542
42400W        W13000  22.083  13.670  13.340
42401W        W13001   7.413   6.663  14.519
42402W        W13002  16.666  27.079  12.590
42403W        W13003  27.989  18.139  14.250
42404W        W13004   0.549  18.090  13.849
42405W        W13005  26.191  34.018  10.570
42406W        W13006  42.781   7.653  13.975
42407W        W13007  21.014   0.497  10.789
42408W        W13008  32.453   9.393   2.369
42409W        W13009  19.312   9.421   2.737
42410W        W13010  11.416  36.037   2.714
42411W        W13011  40.551  36.550  13.822
42412W        W13012  35.144   9.489  14.358
42413W        W13013  40.128  10.693  13.124
42414W        W13014  33.111  35.493  10.579
42415W        W13015  32.691  29.680  14.499
42416W        W13016  44.078   2.795   0.965
42417W        W13017  30.532   9.767  10.892
42418W        W13018  14.745  13.735   3.531
42419W        W13019   5.535  33.425  14.280
42420W        W13020  10.671  17.394  13.465
42421W        W13021  25.109   6.874  12.858
42422W        W13022   5.451  42.006  14.521
42423W        W13023  32.037  25.789  11.136
42424W        W13024   0.396  36.482  10.586
42425W        W13025  26.224  10.366   1.289
42426W        W13026   5.127  21.470  13.502
42427W        W13027   1.835  28.197   2.763
42428W        W13028  10.119  25.503   4.118
42429W        W13029  31.427  16.239   4.141
42430W        W13030  14.096  16.751  11.557
42431W        W13031  23.933   2.479  12.651
42432W        W13032   5.334  20.609   3.670
42433W        W13033  41.375   4.391   1.360
42434W        W13034  35.036   4.828   2.824
42435W        W13035  14.782  16.989  12.933
42436W        W13036  11.192  35.500   2.108
42437W        W13037  16.984   8.506  11.647
42438W        W13038   5.876  19.717   4.658
42439W        W13039  30.470  30.084   4.245
42440W        W13040  35.387   7.690  14.885
42441W        W13041  41.775  15.617   4.603
42442W        W13042  14.227  19.557  12.484
42443W        W13043  32.397  23.169  12.726
42444W        W13044  24.030   5.944   0.266
42445W        W13045   6.639   0.256  13.310
42446W        W13046  14.820  16.076  12.472
42447W        W13047  27.637   6.308   4.177
42448W        W13048  40.084  42.624  14.616
42449W        W13049  23.597  44.740  11.012
42450W        W13050  26.668   2.496  12.922
42451W        W13051  41.490  35.368   2.372
42452W        W13052   6.957  36.825   4.176
42453W        W13053  12.696  33.343  13.243
42454W        W13054  11.992  32.378  10.627
42455W        W13055  23.501  37.731   1.398
42456W        W13056  37.543   8.699   4.295
42457W        W13057  20.245  16.252   2.399
42458W        W13058  28.127   5.867  12.522
42459W        W13059   6.195  36.535   3.674
42460W        W13060  39.117  35.419  14.567
42461W        W13061  38.972  27.455   1.233
42462W        W13062  22.253  28.427   4.184
42463W        W13063  30.864  10.487  11.018
42464W        W13064  22.634  31.292  10.411
42465W        W13065  36.896  44.683   1.753
42466W        W13066  21.694  12.216   2.415
42467W        W13067  29.179  39.366  12.063
42468W        W13068  32.038  33.485   3.772
42469W        W13069  27.278  21.233  11.932
42470W        W13070   0.358  12.856  12.964
42471W        W13071   7.028  37.457  11.110
42472W        W13072  34.948  21.164   3.691
42473W        W13073  20.010   9.914   2.456
42474W        W13074  12.064  37.724   3.218
42475W        W13075  29.910  35.754  11.811
42476W        W13076  10.697   1.629   4.108
42477W        W13077  31.327  26.035  14.198
42478W        W13078  41.890  44.327   0.349
42479W        W13079  39.964  32.635   0.373
42480W        W13080  36.964  28.417   2.172
42481W        W13081   7.263  20.596  12.050
42482W        W13082  21.583   3.640  14.334
42483W        W13083   0.113   9.969  11.233
42484W        W13084  23.491   9.861   4.291
42485W        W13085  43.389  14.007   0.198
42486W        W13086  11.688   9.127   1.725
42487W        W13087  44.683   3.428  13.385
42488W        W13088  36.541  38.935  13.958
42489W        W13089  38.955   3.701  13.503
42490W        W13090  18.742  24.864   0.259
42491W        W13091  19.960  15.563  13.464
42492W        W13092  34.908  15.756  13.714
42493W        W13093   9.782  11.149  12.164
42494W        W13094  37.380  16.653   3.979
42495W        W13095  44.103  34.655  13.444
42496W        W13096  34.090  39.279   9.668
42497W        W13097  44.983  35.496   9.995
42498W        W13098  20.166  42.620  10.456
42499W        W13099   9.628  28.185  11.580
42500W        W13100  39.471  19.789  13.406
42501W        W13101  17.362  18.537   0.383
42502W        W13102  34.460  17.758  11.122
42503W        W13103  27.739  31.052  13.248
42504W        W13104  20.686  20.042  12.770
42505W        W13105  11.681   7.530  11.201
42506W        W13106   2.265  16.695  14.389
42507W        W13107  16.749  16.253  11.382
42508W        W13108  12.657  39.078  10.655
42509W        W13109  21.730   8.748  14.563
42510W        W13110   7.108  18.790   3.122
42511W        W13111   4.700  22.858  11.730
42512W        W13112  11.076  12.334  12.047
42513W        W13113  32.350  26.295  13.369
42514W        W13114  22.610   4.817  14.952
42515W        W13115  32.059  29.246   3.195
42516W        W13116  32.249   8.006   4.151
42517W        W13117   2.777  40.559  14.354
42518W        W13118  15.237   7.491   4.648
42519W        W13119  11.998  42.540  12.435
42520W        W13120  30.134  31.875   0.009
42521W        W13121  23.022  15.169  12.480
42522W        W13122  21.992  10.856  14.303
42523W        W13123  18.788  20.016   2.643
42524W        W13124  21.441  40.099  14.442
42525W        W13125  14.988  17.157   2.732
42526W        W13126  20.626  35.062   3.282
42527W        W13127  27.196  19.774  12.833
42528W        W13128  23.947  27.718   3.247
42529W        W13129  15.889  31.692   0.453
42530W        W13130  17.235  10.156  14.963
42531W        W13131   9.788  14.574   4.891
42532W        W13132  36.050  10.229  13.515
42533W        W13133  16.248  30.969  12.583
42534W        W13134  36.928  20.527   2.684
42535W        W13135   8.229  41.821   3.663
42536W        W13136   7.669  33.641  12.473
42537W        W13137  30.148   6.353  12.324
42538W        W13138  41.838  33.331   3.422
42539W        W13139  21.507  28.398  11.948
42540W        W13140  34.115   3.184  14.033
42541W        W13141  11.217  23.721  12.849
42542W        W13142  42.063   9.330  10.755
42543W        W13143  24.929  35.414  12.779
42544W        W13144  21.571  28.453   1.302
42545W        W13145   9.838  34.101  13.907
42546W        W13146  41.224  14.195  11.957
42547W        W13147  39.474   2.485  14.388
42548W        W13148   0.461   1.295   4.623
42549W        W13149  12.861  43.886  14.388
42550W        W13150  16.045  41.893   5.318
42551W        W13151   1.183  21.721   2.176
42552W        W13152  20.800   4.327  14.997
42553W        W13153  24.839  40.919   2.441
42554W        W13154  22.750  34.950   3.577
42555W        W13155  39.899  41.869   4.608
42556W        W13156  43.839  28.636  11.162
42557W        W13157   7.964  15.188  13.522
42558W        W13158  26.115  31.650   0.854
42559W        W13159  14.312  29.692  13.964
42560W        W13160  31.584  20.705  14.042
42561W        W13161  26.540  18.629  12.256
42562W        W13162  42.774  26.717  11.841
42563W        W13163  39.963  44.464   1.419
42564W        W13164  33.803  36.519   0.828
42565W        W13165  44.221  44.657   2.404
42566W        W13166  17.499   6.118   1.511
42567W        W13167  25.494  32.538  12.695
42568W        W13168  10.838  43.169  14.996
42569W        W13169  20.157  14.842   4.146
42570W        W13170  42.927   1.734   4.102
42571W        W13171  26.027  13.774   1.586
42572W        W13172  44.500  12.297   1.669
42573W        W13173   3.390   8.669   2.320
42574W        W13174   8.387  15.157   3.107
42575W        W13175   7.905  36.791  13.762
42576W        W13176  26.178   3.472  12.463
42577W        W13177  13.600  16.272   1.276
42578W        W13178  33.474  18.338   4.719
42579W        W13179  30.385  42.013  11.461
42580W        W13180  27.997  27.214  12.802
42581W        W13181  20.240   8.098  12.587
42582W        W13182  32.571  36.925  10.703
42583W        W13183  23.108  20.854  13.877
42584W        W13184  25.488  17.317  14.923
42585W        W13185  41.860  27.900   0.383
42586W        W13186  43.544  10.247  10.984
42587W        W13187  40.491   6.240   4.586
42588W        W13188  39.294   9.234  14.479
42589W        W13189   2.912   0.479   0.351
42590W        W13190  12.457  22.954  14.537
42591W        W13191  13.624  21.705  14.708
42592W        W13192   0.359   8.384  12.589
42593W        W13193  31.535  36.954   0.614
42594W        W13194   7.705   6.920  13.576
42595W        W13195  14.084  44.547   4.593
42596W        W13196   1.276  41.471   2.700
42597W        W13197   8.322   5.697   1.330
42598W        W13198  42.001   0.430   1.429
42599W        W13199  23.502  34.432  12.968
42600W        W13200  12.051  18.203   4.106
42601W        W13201   4.322  44.030  12.814
42602W        W13202  26.151  11.793   2.261
42603W        W13203   8.846  26.469  12.899
42604W        W13204  35.468  35.695  14.687
42605W        W13205  33.754  25.719  10.616
42606W        W13206  19.093  26.013   2.141
42607W        W13207  35.119  11.388  13.531
42608W        W13208  25.550  19.801  14.596
42609W        W13209  37.569  19.098   3.167
42610W        W13210  36.914   2.958  10.898
42611W        W13211  27.138  41.118   3.599
42612W        W13212  20.177  26.712  14.977
42613W        W13213  27.701   9.285   0.376
42614W        W13214  17.717   6.301  13.681
42615W        W13215  40.445  17.752   3.928
42616W        W13216  20.577   8.584   3.103
42617W        W13217  11.673  26.215   0.431
42618W        W13218  19.533   9.906   2.663
42619W        W13219  44.018  41.332   4.632
42620W        W13220  44.158   1.492   4.226
42621W        W13221  30.196  10.886   3.195
42622W        W13222   2.526   7.788  10.480
42623W        W13223  15.947  41.823   3.998
42624W        W13224  34.387  44.433   1.171
42625W        W13225  16.097  31.873   1.884
42626W        W13226  29.522  15.472   1.709
42627W        W13227   9.680  31.156   2.092
42628W        W13228  34.389  41.564   4.409
42629W        W13229  13.144  34.066   4.673
42630W        W13230   3.443  15.391   3.614
42631W        W13231   2.393  12.729  12.145
42632W        W13232   9.342  10.966  11.405
42633W        W13233  14.067   4.715  12.533
42634W        W13234  30.933  36.968   3.435
42635W        W13235  24.151  40.939   3.208
42636W        W13236  17.785   1.449   0.310
42637W        W13237   9.844   4.544  11.068
42638W        W13238  33.381  26.146  11.988
42639W        W13239  24.535  37.348  12.877
42640W        W13240  21.618  29.362  14.421
42641W        W13241  41.391   0.574  11.492
42642W        W13242  10.286   8.251  12.694
42643W        W13243  12.056  35.589  12.787
42644W        W13244  36.247  43.143   5.006
42645W        W13245   7.301   9.867   4.556
42646W        W13246  27.398  35.193   1.930
42647W        W13247  24.123  22.099  14.147
42648W        W13248  33.084  15.935   0.974
42649W        W13249  21.977  26.090   2.465
42650W        W13250   1.032   9.654  12.025
42651W        W13251  20.437  12.638  13.606
42652W        W13252   0.867  41.859   0.932
42653W        W13253  37.460  37.297  13.457
42654W        W13254  36.548  19.176   2.321
42655W        W13255  44.959  17.532  14.025
42656W        W13256  24.757  41.789   1.874
42657W        W13257   1.907  20.720   4.704
42658W        W13258  10.263   0.982  14.945
42659W        W13259  14.750  21.137   3.649
42660W        W13260   5.832  22.279  12.695
42661W        W13261  33.013   9.752   4.046
42662W        W13262   4.044  13.518  12.545
42663W        W13263   5.831  12.176   1.982
42664W        W13264  22.465  19.779   3.642
42665W        W13265   8.676  33.504  14.837
42666W        W13266  39.874  30.519  14.718
42667W        W13267   2.794  13.168   3.568
42668W        W13268   1.922   6.693   3.183
42669W        W13269  40.327  28.033   1.839
42670W        W13270  31.526  43.317   2.746
42671W        W13271  37.816  17.543  14.539
42672W        W13272  43.713  17.727   1.301
42673W        W13273  27.328  25.981   4.017
42674W        W13274  13.263   9.666  10.726
42675W        W13275  31.905  27.171  12.476
42676W        W13276  19.677   2.385  12.682
42677W        W13277   6.289  30.680   4.242
42678W        W13278  31.054  19.424  13.596
42679W        W13279   6.132   4.442  11.582
42680W        W13280   6.388  19.651   0.429
42681W        W13281  20.814   9.269  12.013
42682W        W13282  31.141   3.952  11.105
42683W        W13283  14.748  39.239   1.753
42684W        W13284  16.257  41.226   4.579
42685W        W13285   8.130  17.009  13.942
42686W        W13286   8.389  27.078   2.812
42687W        W13287  33.902  12.715  14.853
42688W        W13288  25.025  20.803  11.247
42689W        W13289   5.169  32.453   3.809
42690W        W13290  10.111  18.646   1.689
42691W        W13291  31.146  32.900   3.773
42692W        W13292  27.046  16.593   0.529
42693W        W13293  17.330  43.593   1.468
42694W        W13294  34.449  32.277   1.838
42695W        W13295  24.460   0.481   3.634
42696W        W13296  25.562  24.094   3.865
42697W        W13297  15.021  43.017  13.980
42698W        W13298  44.066  35.222  10.459
42699W        W13299  31.839  24.263  13.983
42700W        W13300   9.638  28.558   1.441
42701W        W13301  19.766  15.222   0.934
42702W        W13302  11.880  26.874  11.138
42703W        W13303  18.157  10.493  14.267
42704W        W13304  27.184  43.330   3.624
42705W        W13305  17.145   1.198   2.754
42706W        W13306  38.442  44.315  12.460
42707W        W13307  19.736  25.459  13.575
42708W        W13308   7.043  26.372  14.607
42709W        W13309  12.260  30.977   0.467
42710W        W13310  38.409  17.291   2.783
42711W        W13311  20.224  17.286  14.771
42712W        W13312  39.826  24.740   0.799
42713W        W13313   0.294  33.571   4.125
42714W        W13314  27.275   9.848   0.964
42715W        W13315  22.258   5.822   0.817
42716W        W13316  19.292   4.958  10.161
42717W        W13317  38.705  40.876   3.327
42718W        W13318  25.083  41.808  12.186
42719W        W13319  26.059  17.740  14.926
42720W        W13320  18.291  28.054   3.814
42721W        W13321  14.859  34.582   1.439
42722W        W13322  32.080  12.212   1.152
42723W        W13323  18.472  30.001  14.096
42724W        W13324  26.214  11.688  12.107
42725W        W13325  16.906  35.053   5.039
42726W        W13326   1.977  23.852  12.564
42727W        W13327  10.278  33.860   2.700
42728W        W13328  26.115   5.420  12.947
42729W        W13329  40.617   9.232   4.882
42730W        W13330   2.576  34.131   3.173
42731W        W13331  12.773  12.575  12.535
42732W        W13332  27.156  33.443   1.939
42733W        W13333  15.302   2.719  13.492
42734W        W13334  15.048  30.863  10.969
42735W        W13335   3.458  11.033  11.902
42736W        W13336   7.397   8.896  13.471
42737W        W13337  43.267   8.449  11.824
42738W        W13338  21.620  20.746  11.632
42739W        W13339  16.080   4.434   1.499
42740W        W13340   0.927   2.843   3.308
42741W        W13341  30.823  42.701  14.956
42742W        W13342   6.292  12.297  12.821
42743W        W13343  12.243  34.006  12.236
42744W        W13344  33.891   9.635  10.716
42745W        W13345  42.017  20.258   1.735
42746W        W13346  20.752  14.348   0.772
42747W        W13347  14.859  41.652   4.172
42748W        W13348  17.135  34.886  10.135
42749W        W13349  42.873  17.374   4.487
42750W        W13350  24.397  41.511  12.844
42751W        W13351  15.280   7.875   2.860
42752W        W13352  19.051  34.023  14.978
42753W        W13353  23.762  40.277   1.773
42754W        W13354  38.413  12.502   3.101
42755W        W13355  32.966   1.896  12.547
42756W        W13356  31.944  26.184   4.337
42757W        W13357  11.775  42.719   1.720
42758W        W13358  42.733  24.410   2.260
42759W        W13359  18.166   7.902   4.164
42760W        W13360  25.623  34.566   5.349
42761W        W13361   6.463  13.286   3.377
42762W        W13362   6.728  33.464   3.038
42763W        W13363   1.344   8.743   2.978
42764W        W13364  11.919  24.980   5.034
42765W        W13365  40.758  15.580  14.778
42766W        W13366  42.380  43.744  14.861
42767W        W13367  15.619  32.966   4.914
42768W        W13368  37.792   5.817   2.341
42769W        W13369  30.219  26.686   3.186
42770W        W13370   5.324  34.373   3.630
42771W        W13371  26.041  25.203  10.976
42772W        W13372  18.695   5.680  11.407
42773W        W13373  18.489  43.215   0.014
42774W        W13374  10.567  13.766  13.561
42775W        W13375   3.141  28.463   4.373
42776W        W13376  10.665   0.984  11.117
42777W        W13377  19.272  42.878   5.193
42778W        W13378   1.398   8.480  14.708
42779W        W13379  15.138  12.618  12.096
42780W        W13380  10.024  11.867   0.974
42781W        W13381   3.216  40.993   1.224
42782W        W13382  17.880  21.574   0.702
42783W        W13383  28.713  34.473   4.118
42784W        W13384   5.270  34.062   2.178
42785W        W13385  29.085   8.681   0.894
42786W        W13386  21.223  25.640   2.258
42787W        W13387  25.106  33.468  12.428
42788W        W13388  22.677  37.893   2.487
42789W        W13389  33.298  24.255  12.276
42790W        W13390   5.721  15.703  13.566
42791W        W13391   9.469  21.779  11.169
42792W        W13392  16.154   2.118  11.158
42793W        W13393  40.447  28.740   4.194
42794W        W13394  12.709   2.902   0.967
42795W        W13395  14.493   0.512   4.673
42796W        W13396  24.310  12.282  14.177
42797W        W13397  30.269  11.783  14.168
42798W        W13398  40.465  18.717  12.006
42799W        W13399  15.801  14.282  10.244
42800W        W13400  30.121  37.749  11.541
42801W        W13401  20.338  41.382   2.773
42802W        W13402   8.346  43.837   1.273
42803W        W13403  21.002  11.866   2.246
42804W        W13404  43.465  15.222   4.319
42805W        W13405  30.072  36.088  10.427
42806W        W13406  40.205  29.960   0.499
42807W        W13407  18.991  28.687  11.179
42808W        W13408  36.062  43.385   4.194
42809W        W13409  26.351  18.188  12.036
42810W        W13410  11.610   2.370  12.034
42811W        W13411  28.967  37.639  14.466
42812W        W13412  18.300  15.788   1.899
42813W        W13413  14.626  19.326   1.753
42814W        W13414  21.052  38.338   0.050
42815W        W13415  29.724  11.276   4.076
42816W        W13416  17.792  11.685  10.623
42817W        W13417  29.433  43.277  13.744
42818W        W13418  36.014  19.448  14.767
42819W        W13419  35.149  43.979  13.138
42820W        W13420  35.407  16.547   2.731
42821W        W13421  13.803   6.590   1.359
42822W        W13422   8.214  42.384   4.790
42823W        W13423  28.230  16.110  11.989
42824W        W13424  40.874   5.425   0.434
42825W        W13425  34.870   4.399  11.913
42826W        W13426   9.808  15.128  12.517
42827W        W13427  16.181  36.541  11.559
42828W        W13428   2.808  25.280  12.128
42829W        W13429  29.448  11.428   2.199
42830W        W13430  41.905  11.335   3.128
42831W        W13431  41.368  31.155  13.985
42832W        W13432  22.609   3.352   0.171
42833W        W13433  44.722   0.361  11.001
42834W        W13434  20.303  39.685   0.932
42835W        W13435   3.367  24.635  11.093
42836W        W13436  43.382  14.181   3.761
42837W        W13437  37.436  12.038   1.758
42838W        W13438  18.133   4.440  13.972
42839W        W13439   4.666  31.415  13.913
42840W        W13440  33.576  20.993  13.865
42841W        W13441  20.237  19.563  14.478
42842W        W13442  18.986  34.467   2.241
42843W        W13443  10.175  14.590   4.062
42844W        W13444  23.206  39.438  11.636
42845W        W13445  21.763  32.859  14.847
42846W        W13446  17.876  24.588   4.553
42847W        W13447  41.292   6.510   5.009
42848W        W13448  38.228   1.457  13.582
42849W        W13449  33.065  41.874  12.199
42850W        W13450  22.027  43.304   4.651
42851W        W13451  39.069  27.570   2.617
42852W        W13452   5.209  44.519   0.045
42853W        W13453  18.847  40.354  12.412
42854W        W13454  20.399  43.500  12.419
42855W        W13455   7.945  26.075  14.964
42856W        W13456  25.907  14.695   3.286
42857W        W13457  35.245   1.768   4.056
42858W        W13458  22.768   0.245   2.255
42859W        W13459  17.726  26.262   2.903
42860W        W13460  27.683  24.540  13.159
42861W        W13461   4.673   9.809  11.572
42862W        W13462  20.833  22.122  11.933
42863W        W13463  10.794  37.065   2.364
42864W        W13464  30.746  32.604   4.634
42865W        W13465   2.377  13.408   0.306
42866W        W13466   7.248  43.548  13.935
42867W        W13467  30.064  35.876  12.783
42868W        W13468   6.611  31.111  14.891
42869W        W13469  40.045  26.853  14.808
42870W        W13470   4.268  33.793   0.771
42871W        W13471  23.877  16.773   1.771
42872W        W13472  22.707  19.458  11.567
42873W        W13473  22.290  33.522   1.391
42874W        W13474  13.555  15.205  11.362
42875W        W13475  33.569  11.906   5.132
42876W        W13476  17.592  15.790  14.009
42877W        W13477   8.450  19.013   3.201
42878W        W13478  11.655  36.034   0.888
42879W        W13479  37.637  42.493  10.479
42880W        W13480   5.546  27.073   3.640
42881W        W13481  35.634  19.804   1.901
42882W        W13482  30.750  22.171  10.775
42883W        W13483  28.112  20.856  14.386
42884W        W13484  27.722  15.600   2.699
42885W        W13485  31.040  23.715  11.536
42886W        W13486  33.444   7.598  11.033
42887W        W13487  34.925   5.385   1.674
42888W        W13488   5.263  40.399   9.956
42889W        W13489   2.840   5.235  14.310
42890W        W13490  38.594  36.515  10.845
42891W        W13491  37.325  40.834  13.339
42892W        W13492  10.458  25.241   2.632
42893W        W13493  18.556  41.519   0.932
42894W        W13494   6.014  17.227   1.738
42895W        W13495  16.565   6.730   0.748
42896W        W13496   2.703   1.722   1.846
42897W        W13497  13.749  19.168   1.888
42898W        W13498   4.294  26.271   4.875
42899W        W13499  34.876  41.785   0.834
42900W        W13500  31.205  25.558   4.264
42901W        W13501  38.925   2.169  13.454
42902W        W13502   2.075  25.193  12.504
42903W        W13503  39.335  13.169  11.669
42904W        W13504   5.681  17.098  10.650
42905W        W13505  15.750  20.235   1.663
42906W        W13506  12.410  24.585   3.382
42907W        W13507  26.562  13.296   2.133
42908W        W13508   9.297  26.598  12.604
42909W        W13509  29.617  33.667  10.940
42910W        W13510  15.442   1.356   0.637
42911W        W13511  36.789  42.390  10.952
42912W        W13512  37.023  22.202  10.579
42913W        W13513  40.631  10.814  14.839
42914W        W13514  29.836  19.077   3.706
42915W        W13515  42.502  36.109  12.776
42916W        W13516  28.570  19.260  14.147
42917W        W13517  29.590  44.860  12.304
42918W        W13518   7.282   2.239   3.142
42919W        W13519   4.311  19.095   3.746
42920W        W13520  22.147  14.139  13.577
42921W        W13521  33.131  20.701  10.706
42922W        W13522   8.446  23.130   3.854
42923W        W13523  44.867  23.187  13.297
42924W        W13524  23.641  19.481  14.831
42925W        W13525   6.991  24.283   0.372
42926W        W13526  12.673   9.705  14.477
42927W        W13527   0.407  35.147   0.416
42928W        W13528  12.696  34.222   0.871
42929W        W13529   5.768  11.705   2.609
42930W        W13530  12.694  32.915   1.616
42931W        W13531  33.149  12.348   3.240
42932W        W13532  24.338  13.881   4.186
42933W        W13533   8.322  25.634  10.697
42934W        W13534   3.193  25.640   0.682
42935W        W13535   4.461  34.906   2.244
42936W        W13536  34.571  15.266   1.306
42937W        W13537  19.133  27.636   4.829
42938W        W13538  33.776  42.292   1.442
42939W        W13539   3.924  37.059   3.121
42940W        W13540  18.822  40.432   4.052
42941W        W13541  35.092   9.753   3.812
42942W        W13542  16.874  27.641  12.459
42943W        W13543  36.835  21.685   0.099
42944W        W13544  23.769  21.710  14.955
42945W        W13545  27.344  42.088  14.106
42946W        W13546  17.519  42.859   0.823
42947W        W13547  12.178  40.230   3.280
42948W        W13548   5.681   8.628   1.702
42949W        W13549  44.214  21.632   0.680
42950W        W13550  39.054  43.107  10.797
42951W        W13551  20.279  42.690  14.899
42952W        W13552  18.531  26.181  12.181
42953W        W13553   6.216  38.014   1.752
42954W        W13554  14.403  18.785   5.197
42955W        W13555  21.660  11.935  13.780
42956W        W13556  43.822  40.952  13.401
42957W        W13557   6.805  40.467  13.073
42958W        W13558  14.682  28.207   2.672
42959W        W13559   2.302  35.138   4.496
42960W        W13560  10.194  42.995  13.702
42961W        W13561   6.094  34.893  11.412
42962W        W13562  13.064   3.371  11.185
42963W        W13563  41.990  26.582  10.735
42964W        W13564  41.904  24.047   0.352
42965W        W13565  24.543  36.851  14.429
42966W        W13566  12.319  33.892   1.645
42967W        W13567   0.689  40.452   2.969
42968W        W13568  43.797  15.314   3.927
42969W        W13569   6.499  24.755   2.251
42970W        W13570  23.620   1.163   3.453
42971W        W13571  10.350  14.598   1.456
42972W        W13572  32.987   2.947  10.205
42973W        W13573  15.618  26.742  10.814
42974W        W13574  30.182  31.459   3.818
42975W        W13575  20.170  21.435  10.979
42976W        W13576  44.481   7.209   3.581
42977W        W13577  11.165  31.814   2.757
42978W        W13578  11.648  23.102   3.683
42979W        W13579  30.502  30.775   1.905
42980W        W13580  13.545  32.215   1.770
42981W        W13581  22.886  39.644   3.247
42982W        W13582   5.673   9.344   4.411
42983W        W13583  19.341  28.887  13.885
42984W        W13584  44.350  27.974   4.301
42985W        W13585  43.314  11.082   1.417
42986W        W13586  35.349  38.514   0.959
42987W        W13587  44.779  30.821   2.312
42988W        W13588  39.992  33.499  13.265
42989W        W13589   9.192   8.736  14.841
42990W        W13590   3.746  23.461   4.394
42991W        W13591  41.931   8.219  13.818
42992W        W13592   1.496  40.135  12.997
42993W        W13593  28.670  28.628   4.661
42994W        W13594   5.337  17.051   1.272
42995W        W13595  28.916  42.412   2.959
42996W        W13596  12.852  26.215  10.702
42997W        W13597  34.530   8.582   3.192
42998W        W13598   1.926   5.874   0.395
42999W        W13599  36.879   8.755   0.251
43000W        W13600  12.716  11.351   2.217
43001W        W13601  28.908  40.935  11.620
43002W        W13602  23.351  35.381  14.505
43003W        W13603  11.249   9.888  11.156
43004W        W13604  30.979  15.041   2.215
43005W        W13605  40.187   7.761  13.343
43006W        W13606  10.398  10.354  13.124
43007W        W13607  16.179  40.426   0.929
43008W        W13608   4.387  40.260  12.007
43009W        W13609  11.840  39.490  10.311
43010W        W13610   3.345  10.650  10.697
43011W        W13611  14.104  17.154  12.475
43012W        W13612  18.168  15.411   2.383
43013W        W13613   2.864  42.732  13.474
43014W        W13614   0.845   8.810   4.230
43015W        W13615  44.280  30.605   0.542
43016W        W13616  39.189  42.719  13.811
43017W        W13617  13.791  16.627  13.181
43018W        W13618  36.616  43.574   1.515
43019W        W13619  19.824   1.299  12.025
43020W        W13620  17.518  26.588   2.327
43021W        W13621  19.349   6.789   3.267
43022W        W13622  36.738  40.768   0.315
43023W        W13623  36.179  36.294   0.388
43024W        W13624   2.872  44.137   3.262
43025W        W13625  16.542   7.974   4.173
43026W        W13626  17.257  38.714   2.914
43027W        W13627  15.061  10.954  12.092
43028W        W13628  10.180   6.693   2.393
43029W        W13629  19.726   3.356   1.462
43030W        W13630   4.007  43.010   1.622
43031W        W13631  10.927  38.841   4.694
43032W        W13632   9.217  25.767   1.830
43033W        W13633   6.247  10.957   2.567
43034W        W13634   7.974  35.377   4.824
43035W        W13635  16.843  14.149  11.676
43036W        W13636   3.252   3.197  11.166
43037W        W13637   0.693  28.918   2.857
43038W        W13638   3.915  37.967  13.824
43039W        W13639   4.188  32.125   2.688
43040W        W13640  20.095  31.405   1.309
43041W        W13641  13.151   9.623  11.565
43042W        W13642  16.182  44.859  13.106
43043W        W13643   0.353  32.149  12.126
43044W        W13644   3.771  25.182  12.332
43045W        W13645  12.282  31.395  11.871
43046W        W13646  24.727  36.388  11.544
43047W        W13647  34.673  27.145  10.629
43048W        W13648  14.267  40.085   3.167
43049W        W13649  19.012  25.409  12.433
43050W        W13650  21.042  17.322   0.874
43051W        W13651  36.391  20.659   0.130
43052W        W13652   3.844  19.743  11.195
43053W        W13653  14.177  37.482  13.924
43054W        W13654  29.185  19.157   4.640
43055W        W13655  38.823  30.127  14.822
43056W        W13656  29.435  33.341   5.074
43057W        W13657   9.262   3.117  13.877
43058W        W13658  38.810  33.637   3.226
43059W        W13659  41.995  33.882   4.758
43060W        W13660  13.833  13.259  14.206
43061W        W13661   2.544  35.393   0.282
43062W        W13662  31.695  17.672  12.021
43063W        W13663   3.429  12.558   2.366
43064W        W13664  38.792   6.724  11.047
43065W        W13665  38.104  43.437   1.255
43066W        W13666  22.958  30.414  13.985
43067W        W13667  33.726  29.971  12.400
43068W        W13668  17.452  36.057  11.747
43069W        W13669  35.838  17.732  14.386
43070W        W13670   2.137  21.078   1.436
43071W        W13671  43.965  21.408   3.569
43072W        W13672  29.055   3.420   0.844
43073W        W13673  12.856  44.025   5.090
43074W        W13674  24.813  30.162  11.503
43075W        W13675   5.900  32.546   2.684
43076W        W13676  40.958  21.068   4.080
43077W        W13677  30.575  13.705  11.541
43078W        W13678   1.212   3.824   4.596
43079W        W13679  30.723  44.994  13.444
43080W        W13680  19.567  19.636   0.787
43081W        W13681  44.204  23.001  14.754
43082W        W13682  23.761  32.988   2.707
43083W        W13683  16.292   6.926  14.417
43084W        W13684  35.270  17.677  11.518
43085W        W13685  44.573  20.597   4.194
43086W        W13686   8.849  11.376   1.385
43087W        W13687  34.545  28.262   0.854
43088W        W13688  13.688  15.714   3.742
43089W        W13689  26.783  18.775  13.538
43090W        W13690   6.222  44.198  14.896
43091W        W13691  41.511  42.018  12.093
43092W        W13692  29.425  12.851  12.529
43093W        W13693   4.357   3.976  12.542
43094W        W13694   0.773  19.125   4.527
43095W        W13695  39.839  44.467  13.471
43096W        W13696  10.582  18.259  14.166
43097W        W13697  27.679  15.393  12.958
43098W        W13698   6.134  37.127   0.665
43099W        W13699  15.374  31.857  14.885
43100W        W13700  14.177  13.839   0.755
43101W        W13701  11.703  37.405   1.294
43102W        W13702  13.255   6.950  12.425
43103W        W13703  17.846  37.132   4.337
43104W        W13704  39.865  38.383  14.565
43105W        W13705  14.724  41.970  13.607
43106W        W13706  36.079  43.445  11.639
43107W        W13707  11.664  21.566   3.276
43108W        W13708  33.008  12.340  11.907
43109W        W13709  26.081  36.932  14.548
43110W        W13710  42.577  13.572  13.494
43111W        W13711  20.475  23.586   3.181
43112W        W13712  41.758   6.284   3.683
43113W        W13713   6.026  35.057  13.507
43114W        W13714   0.381  24.005  12.525
43115W        W13715  26.983  16.892   3.274
43116W        W13716  17.488  12.524   0.518
43117W        W13717   3.965  32.018  14.011
43118W        W13718  25.949  23.024   1.011
43119W        W13719  20.973   8.417   3.404
43120W        W13720   3.484  19.977  14.934
43121W        W13721  44.843   1.972  11.063
43122W        W13722   2.991  13.232  11.559
43123W        W13723  22.461  33.697   4.287
43124W        W13724  12.768   7.256   4.259
43125W        W13725  15.914  31.954   2.788
43126W        W13726   7.909  34.939   2.324
43127W        W13727  24.110  25.315   1.822
43128W        W13728  29.410  15.811  13.926
43129W        W13729  33.916  17.797  12.373
43130W        W13730  34.833   5.407  13.537
43131W        W13731   1.989  12.166  12.493
43132W        W13732  36.533  14.437   2.239
43133W        W13733  12.817  20.160   0.458
43134W        W13734  29.681  34.112  13.848
43135W        W13735  23.589  37.234   1.361
43136W        W13736  25.101  20.556   4.035
43137W        W13737  29.132  36.570  10.742
43138W        W13738  29.935  37.944   1.236
43139W        W13739  33.766  32.368  14.401
43140W        W13740  32.493   6.363  14.765
43141W        W13741  12.643  38.959  12.536
43142W        W13742   3.839   2.816  14.574
43143W        W13743  14.386   0.455   0.417
43144W        W13744  14.293  40.017  14.734
43145W        W13745  19.967  25.666   2.634
43146W        W13746  40.241   7.006  12.576
43147W        W13747  24.524  29.673   4.724
43148W        W13748  14.344  14.332   0.045
43149W        W13749  29.644  22.158  12.548
43150W        W13750   8.988   0.258  14.995
43151W        W13751  40.991  44.996  14.486
43152W        W13752  30.401   2.469  11.947
43153W        W13753   6.232  17.486  10.743
43154W        W13754   5.235  27.009   1.168
43155W        W13755  13.603   1.278   2.822
43156W        W13756  16.141  13.717  14.997
43157W        W13757  19.279   6.255   1.979
43158W        W13758  37.989  35.756   1.821
43159W        W13759   3.808  18.872  10.721
43160W        W13760  12.100  12.358  13.776
43161W        W13761  33.268  37.172   0.214
43162W        W13762  38.094  25.204   2.171
43163W        W13763  15.788  37.346   0.677
43164W        W13764  23.476  34.958  13.018
43165W        W13765  35.985  29.051   2.403
43166W        W13766  31.136  18.628  13.783
43167W        W13767   7.824  25.782  10.747
43168W        W13768  22.285  40.777   0.190
43169W        W13769  24.711  26.464  14.556
43170W        W13770  21.651  18.121  14.806
43171W        W13771   2.657  41.724   0.323
43172W        W13772  38.480  13.084  14.622
43173W        W13773   7.304  12.387  12.661
43174W        W13774  19.088  32.789   0.515
43175W        W13775  30.925  29.612   2.249
43176W        W13776   4.709   5.335   2.481
43177W        W13777  37.907  11.368   1.116
43178W        W13778  36.602  31.115  11.643
43179W        W13779  14.109   4.816  13.034
43180W        W13780   0.134   1.239  10.679
43181W        W13781  43.617  19.508   4.950
43182W        W13782   9.173  20.952   4.599
43183W        W13783  28.059   0.546   0.405
43184W        W13784  28.904  38.119   1.357
43185W        W13785  10.126   4.829  10.738
43186W        W13786   9.373  20.610   1.396
43187W        W13787  17.762  43.834  14.912
43188W        W13788  19.226  24.686  14.905
43189W        W13789  24.225  14.700   1.832
43190W        W13790  15.032  44.075   2.639
43191W        W13791   1.645  11.711  14.758
43192W        W13792  26.160  26.897  11.881
43193W        W13793  40.071  14.678   2.897
43194W        W13794  31.525   0.868   0.987
43195W        W13795   9.145   7.157   3.183
43196W        W13796  44.712   1.432   3.235
43197W        W13797  24.216  24.033  12.387
43198W        W13798  40.093   1.198   0.325
43199W        W13799  17.821  21.409  14.169
43200W        W13800  25.810  43.055   2.602
43201W        W13801  44.552  42.031  14.764
43202W        W13802  40.787  27.196   2.290
43203W        W13803   1.859  40.582   4.751
43204W        W13804  33.296  34.966   4.936
43205W        W13805  31.239  43.903  14.483
43206W        W13806  29.957  33.897  11.247
43207W        W13807  32.551  29.429   4.205
43208W        W13808  11.351  17.765   1.886
43209W        W13809  16.809  30.643  13.443
43210W        W13810  22.973   0.745   1.818
43211W        W13811   0.018  22.932  11.919
43212W        W13812  40.755   7.969   0.752
43213W        W13813  38.797  38.799  11.838
43214W        W13814   7.670  17.954   3.369
43215W        W13815  17.878  14.666   0.913
43216W        W13816  34.960   3.294   2.820
43217W        W13817  32.356  31.018  14.666
43218W        W13818   6.342   3.281   3.107
43219W        W13819  31.552  15.341  14.826
43220W        W13820   9.237  33.128   0.432
43221W        W13821  32.489  18.372  11.285
43222W        W13822  39.323   2.031  13.103
43223W        W13823   0.864  35.438  13.879
43224W        W13824  43.774   8.926   0.353
43225W        W13825  13.957   0.523  14.345
43226W        W13826  16.788  12.300   3.809
43227W        W13827  23.920   6.083   4.723
43228W        W13828   5.784  11.725  11.927
43229W        W13829   9.144  37.039  12.369
43230W        W13830  22.512  42.046   0.461
43231W        W13831   1.302  23.621  13.290
43232W        W13832  22.297  17.303  10.995
43233W        W13833  35.202  39.781   3.361
43234W        W13834  14.213  12.893  14.269
43235W        W13835  29.856  15.354   4.467
43236W        W13836  33.546  42.148   2.324
43237W        W13837  25.512  27.500   3.627
43238W        W13838  20.580  39.783   2.161
43239W        W13839  27.021  30.009   4.235
43240W        W13840  43.419   2.181   2.308
43241W        W13841  32.426  24.518  12.334
43242W        W13842  25.991  43.824   0.490
43243W        W13843  12.000  31.489  14.129
43244W        W13844  14.251   0.962   0.352
43245W        W13845   3.023  44.755  11.605
43246W        W13846  40.884  39.346  13.810
43247W        W13847  27.664  18.781  11.472
43248W        W13848  15.682  24.698  13.887
43249W        W13849  33.066  35.965  10.771
43250W        W13850  42.025  30.869   3.877
43251W        W13851  17.348  13.986  13.020
43252W        W13852  39.580   0.405   3.998
43253W        W13853   1.744  26.659  11.997
43254W        W13854  41.653  36.363   5.266
43255W        W13855  36.398  10.819  14.348
43256W        W13856   9.164   6.636  14.802
43257W        W13857   1.941  25.637  10.758
43258W        W13858  11.386  36.040  11.583
43259W        W13859  17.354  13.373  10.117
43260W        W13860   8.782   5.348  11.106
43261W        W13861  39.106  28.486   2.417
43262W        W13862  22.739  34.699   1.217
43263W        W13863  19.139  40.269   0.279
43264W        W13864  35.412  34.882   4.129
43265W        W13865   0.145  26.038   0.690
43266W        W13866  21.739  38.074   4.720
43267W        W13867   6.649  27.956   0.960
43268W        W13868   7.270   5.406   2.737
43269W        W13869  18.612  44.774  11.835
43270W        W13870  15.091  43.352   9.618
43271W        W13871  11.767  18.875  12.689
43272W        W13872   7.302  42.441   1.332
43273W        W13873  16.061   8.874  13.593
43274W        W13874  44.495   4.486   0.756
43275W        W13875  33.641   1.966   1.765
43276W        W13876  24.981   2.722  14.536
43277W        W13877  27.645  41.825  11.043
43278W        W13878  10.229  35.000  12.252
43279W        W13879  42.294   7.645  13.588
43280W        W13880  14.427  21.937   3.794
43281W        W13881  17.777   0.500   4.766
43282W        W13882  21.552   7.363   0.831
43283W        W13883  42.846  23.726  11.881
43284W        W13884  30.600   2.538  13.837
43285W        W13885  38.148  38.888   0.354
43286W        W13886  25.410  21.447  10.373
43287W        W13887  13.887  28.468  11.083
43288W        W13888  14.937  36.972  11.231
43289W        W13889  24.244  12.797   1.671
43290W        W13890   3.276  21.177   0.256
43291W        W13891   1.712  17.084  11.173
43292W        W13892  39.011  44.772   3.593
43293W        W13893  35.084  42.999   2.392
43294W        W13894  21.771  40.417   0.788
43295W        W13895  28.500  38.553   3.217
43296W        W13896   1.834  19.737  11.234
43297W        W13897   5.998   3.360  13.963
43298W        W13898   6.457  12.835   2.313
43299W        W13899  27.379  44.837   1.803
43300W        W13900  26.557  22.264   4.074
43301W        W13901  24.675  20.822  11.821
43302W        W13902   2.971  41.267  13.884
43303W        W13903  28.625  23.653   1.254
43304W        W13904  24.058  18.228   1.543
43305W        W13905   0.021  23.572   3.575
43306W        W13906   9.387   6.047   4.665
43307W        W13907   8.701   8.160   0.334
43308W        W13908  18.337  27.953  13.790
43309W        W13909  10.749  43.922   2.844
43310W        W13910  23.609  30.141  12.551
43311W        W13911  16.879   4.791  11.574
43312W        W13912  33.077  22.011   3.130
43313W        W13913  16.062  39.473  11.622
43314W        W13914  13.992  10.261   4.177
43315W        W13915  12.131  35.865  11.970
43316W        W13916  30.518  30.012  11.665
43317W        W13917   5.089  17.178   3.629
43318W        W13918  18.174  42.793   0.245
43319W        W13919   5.960  15.067   2.773
43320W        W13920  38.889   5.916  13.162
43321W        W13921  42.268  18.185  11.676
43322W        W13922  28.630  29.996   1.932
43323W        W13923  41.400  14.843   3.612
43324W        W13924  36.022  29.163  11.174
43325W        W13925  30.498   9.405   1.263
43326W        W13926  25.016  14.093  12.653
43327W        W13927  11.127   1.358   3.411
43328W        W13928   5.188   0.456   1.710
43329W        W13929  29.838  33.098   1.172
43330W        W13930  22.824  15.151   1.376
43331W        W13931   5.881  22.554  13.347
43332W        W13932   2.698  27.099  10.779
43333W        W13933  27.491  31.708   0.975
43334W        W13934  41.188  44.966   3.728
43335W        W13935  42.310  12.843  13.081
43336W        W13936   6.046  26.560  14.366
43337W        W13937  44.400  43.318   3.215
43338W        W13938  14.756  11.127  11.567
43339W        W13939  30.411  32.226   1.744
43340W        W13940  22.191   6.763   3.746
43341W        W13941  26.393  26.531  11.602
43342W        W13942  26.870   0.870  14.328
43343W        W13943   0.474  21.826  10.375
43344W        W13944  40.762  13.805  13.475
43345W        W13945   3.219  12.452   4.212
43346W        W13946   4.695  28.947  12.250
43347W        W13947  37.334  13.108  11.609
43348W        W13948  43.437  36.100   4.124
43349W        W13949  32.705  16.081  10.528
43350W        W13950  43.968  41.760  12.987
43351W        W13951   6.204   8.902   1.927
43352W        W13952  29.188  30.090   3.179
43353W        W13953  28.074  10.971  13.653
43354W        W13954   5.580  40.879  14.149
43355W        W13955  10.737   5.758  13.056
43356W        W13956  20.347  26.561   3.768
43357W        W13957  29.177   8.364   4.409
43358W        W13958  13.376  17.642   2.247
43359W        W13959  44.180  44.149  11.159
43360W        W13960  43.886  40.510   2.579
43361W        W13961  22.031   7.840   4.187
43362W        W13962  40.591   2.055   3.815
43363W        W13963  36.046  21.162   1.875
43364W        W13964  35.501   0.984  12.485
43365W        W13965  36.991  11.092  11.798
43366W        W13966  19.885  23.597   0.646
43367W        W13967  11.706  11.859   0.322
43368W        W13968  14.457   5.981   1.839
43369W        W13969   4.827  16.118  13.421
43370W        W13970  42.088  29.519  13.954
43371W        W13971   2.006  25.581   2.747
43372W        W13972  44.880  39.301  13.083
43373W        W13973  24.774  35.132  14.882
43374W        W13974  42.530  30.598   0.863
43375W        W13975  15.964   3.491   5.066
43376W        W13976  11.778   7.126   2.466
43377W        W13977   9.333   3.889   0.333
43378W        W13978  16.624  41.478  10.856
43379W        W13979  37.116  13.805   1.901
43380W        W13980  42.893   4.156  11.260
43381W        W13981  28.099  36.866   4.101
43382W        W13982  13.263  16.174   0.169
43383W        W13983  37.851  43.344   4.554
43384W        W13984  44.406  42.861   0.431
43385W        W13985  42.436   0.977   2.982
43386W        W13986  36.302  29.529  14.283
43387W        W13987  37.493  40.627   2.475
43388W        W13988  11.070  35.403  12.505
43389W        W13989  27.411   5.686   2.791
43390W        W13990  32.675  34.344  12.118
43391W        W13991  24.655  16.120  13.889
43392W        W13992  15.590  20.970   3.696
43393W        W13993  24.234  20.704  10.608
43394W        W13994  43.759  34.993  11.568
43395W        W13995   0.400  24.585  10.639
43396W        W13996  41.112  35.059   0.896
43397W        W13997   4.337  31.623   2.707
43398W        W13998  16.423  27.547   1.761
43399W        W13999  21.531  17.995   0.408
43400W        W14000  19.125  27.148   2.833
43401W        W14001   6.142  39.573   0.929
43402W        W14002  10.225   4.838   2.878
43403W        W14003  38.675  21.192   4.007
43404W        W14004  10.709  11.399   3.460
43405W        W14005  27.226  17.056  14.864
43406W        W14006  18.250   6.555  12.115
43407W        W14007   5.202  42.220  13.766
43408W        W14008  44.284   7.758  10.810
43409W        W14009  19.046  21.891   0.966
43410W        W14010   7.905  30.633   3.203
43411W        W14011  27.182  38.357   3.941
43412W        W14012  36.693  26.643   1.845
43413W        W14013  31.524  37.189  13.095
43414W        W14014   8.724   7.820   3.690
43415W        W14015  39.762   6.319   4.096
43416W        W14016  31.902   7.205   1.756
43417W        W14017  25.137   6.937  11.435
43418W        W14018  20.752  22.675  11.345
43419W        W14019  30.242  42.379   3.777
43420W        W14020  34.107   1.136  13.904
43421W        W14021  25.767  20.578   1.228
43422W        W14022  31.324  29.515  14.743
43423W        W14023  18.255   7.905   2.196
43424W        W14024  12.486  21.201   3.156
43425W        W14025  34.031   3.718  12.829
43426W        W14026  35.441  30.372  14.781
43427W        W14027  21.255   2.516   4.122
43428W        W14028  19.022   6.129  12.063
43429W        W14029  35.088   4.378   0.826
43430W        W14030   2.199  42.501   0.824
43431W        W14031  10.795  13.061   0.391
43432W        W14032  31.912   5.602   2.639
43433W        W14033  38.099  42.445   0.224
43434W        W14034   0.852  21.846   0.062
43435W        W14035  26.466  32.886   1.333
43436W        W14036  11.268   3.315  10.372
43437W        W14037  43.746  21.700   0.471
43438W        W14038  22.001  18.739   1.400
43439W        W14039   8.389   7.783   4.666
43440W        W14040  21.506   8.800   1.104
43441W        W14041  18.333  24.041  14.808
43442W        W14042  22.713   2.346   1.206
43443W        W14043  27.900  28.526   2.503
43444W        W14044  40.283  12.269   1.886
43445W        W14045  38.443  22.473   3.680
43446W        W14046   1.952  29.600   2.867
43447W        W14047  25.115  39.574  12.441
43448W        W14048   4.923  16.620  12.527
43449W        W14049  40.111   1.929   4.090
43450W        W14050   5.716  18.258   4.735
43451W        W14051  42.145  44.575   9.805
43452W        W14052  22.710  33.597   0.558
43453W        W14053   6.745  13.865  13.130
43454W        W14054  30.666  28.918   3.328
43455W        W14055   0.712  12.585   4.181
43456W        W14056  29.570  13.200   1.255
43457W        W14057   9.505  43.036   0.777
43458W        W14058  15.077   2.871  10.759
43459W        W14059  19.567  27.723   3.256
43460W        W14060  37.301  19.250   2.748
43461W        W14061   9.056   6.141  14.900
43462W        W14062   9.872   3.157  10.712
43463W        W14063   8.299  22.137   3.060
43464W        W14064   3.191  11.166   4.165
43465W        W14065   4.980   2.427  13.018
43466W        W14066  16.748  19.698  11.912
43467W        W14067  44.964  20.616   2.904
43468W        W14068  36.879  30.326   3.703
43469W        W14069  25.216  19.618   1.340
43470W        W14070  16.530  40.106   3.779
43471W        W14071  43.793  21.724  13.081
43472W        W14072  14.120  17.786   2.679
43473W        W14073  14.052  34.054  11.185
43474W        W14074  38.342  20.020   3.110
43475W        W14075  24.193  37.342  11.232
43476W        W14076  22.370  39.868   0.976
43477W        W14077  33.505  14.105   2.423
43478W        W14078  37.874  23.385  12.487
43479W        W14079  22.387   9.344   3.051
43480W        W14080   8.266  39.799  14.863
43481W        W14081   3.155  24.598  14.479
43482W        W14082   9.332  28.172   3.148
43483W        W14083  32.414  27.043   0.791
43484W        W14084  37.993  25.220   0.888
43485W        W14085  41.971  23.669   1.805
43486W        W14086  23.672  42.000  11.601
43487W        W14087  20.204  24.728  14.859
43488W        W14088  43.814  24.211   2.744
43489W        W14089  12.509  11.814  14.763
43490W        W14090  35.590  42.202  12.651
43491W        W14091  19.161  15.324   1.728
43492W        W14092  10.283  18.337  10.745
43493W        W14093  15.511  22.178   5.156
43494W        W14094  18.862  41.604  12.158
43495W        W14095  26.601  36.566   3.145
43496W        W14096  23.234  44.019   1.349
43497W        W14097  26.047  21.309  10.680
43498W        W14098  17.594  11.610  12.027
43499W        W14099  26.470   0.572   1.242
43500W        W14100   4.352  13.112   2.841
43501W        W14101  30.036  22.951   3.238
43502W        W14102  14.876  31.913  14.896
43503W        W14103  18.317  24.846   4.840
43504W        W14104  22.222   9.134   1.217
43505W        W14105  29.250   9.379  13.984
43506W        W14106  17.083  29.488   0.970
43507W        W14107   1.219  35.914  11.525
43508W        W14108  36.463  20.626   2.466
43509W        W14109  23.122  35.287  11.161
43510W        W14110  20.617  18.477   2.441
43511W        W14111  14.245  13.693   3.753
43512W        W14112   7.683  37.411  12.978
43513W        W14113   2.982  43.604   3.969
43514W        W14114  11.648  37.473   0.754
43515W        W14115  11.331  12.742  12.269
43516W        W14116  14.805   1.013   0.139
43517W        W14117  19.506  35.788   3.370
43518W        W14118  40.484  17.161   0.779
43519W        W14119  37.575  30.159   1.176
43520W        W14120  40.534  13.025   3.668
43521W        W14121  36.811  39.436  11.970
43522W        W14122  21.842  38.894  12.509
43523W        W14123  32.887  35.384  12.055
43524W        W14124  20.455   7.814  13.048
43525W        W14125  37.459   4.857   3.869
43526W        W14126  23.490  11.127  14.062
43527W        W14127  11.862  34.370  12.105
43528W        W14128  26.456  33.623   3.208
43529W        W14129  40.167  31.131  12.368
43530W        W14130  10.673  13.769   0.404
43531W        W14131  30.722  32.932  13.411
43532W        W14132  32.941  20.017   4.851
43533W        W14133  19.348   7.285  14.808
43534W        W14134   0.520   1.412  11.429
43535W        W14135  29.752   8.604   3.269
43536W        W14136  35.786  43.495  14.444
43537W        W14137   5.904  27.051  10.594
43538W        W14138  38.901   4.874  10.287
43539W        W14139   9.604  23.253  11.129
43540W        W14140  43.256   7.761  12.293
43541W        W14141  44.825  13.603  12.071
43542W        W14142  31.343  12.822   0.283
43543W        W14143  33.006  34.091   4.646
43544W        W14144   4.433  21.985   4.490
43545W        W14145  19.292  13.483   0.848
43546W        W14146  32.993  26.484   0.927
43547W        W14147  44.858  22.649   4.892
43548W        W14148  41.512  17.906  12.315
43549W        W14149  34.851   3.814  14.266
43550W        W14150  10.169  31.407  10.802
43551W        W14151   9.697  25.500  14.311
43552W        W14152  32.581   2.606   3.931
43553W        W14153  39.288  11.626  12.933
43554W        W14154  36.995  42.544  13.880
43555W        W14155   4.574  36.043   1.821
43556W        W14156  24.263  34.981   2.781
43557W        W14157  13.062  11.822  14.537
43558W        W14158  42.727  37.894  12.481
43559W        W14159  18.500   1.498   2.638
43560W        W14160  29.644  16.336  12.632
43561W        W14161   4.940  22.793   0.698
43562W        W14162   5.945   8.934   0.813
43563W        W14163  24.154   5.135   2.163
43564W        W14164  12.755  44.153   4.171
43565W        W14165   6.430  10.077   3.651
43566W        W14166  10.790  30.476   2.476
43567W        W14167   7.411  38.919   4.675
43568W        W14168  16.377   2.776   4.145
43569W        W14169  15.258  24.847   5.066
43570W        W14170  14.781  35.905   0.939
43571W        W14171   9.064  26.535  13.904
43572W        W14172  36.055   4.774  13.354
43573W        W14173  26.715   4.814   0.287
43574W        W14174  24.597   6.891  10.735
43575W        W14175  16.600  33.320   4.152
43576W        W14176  42.823  43.439  11.910
43577W        W14177  43.892   8.936  11.541
43578W        W14178  29.453  13.602  14.867
43579W        W14179   2.715   4.862   0.913
43580W        W14180  40.992  10.225  10.600
43581W        W14181   3.449  18.828   1.652
43582W        W14182  36.777  31.641   0.336
43583W        W14183  17.384   4.909  11.600
43584W        W14184  21.052   5.463  13.153
43585W        W14185   2.218  22.005   1.685
43586W        W14186  31.853  24.140   2.148
43587W        W14187  17.938  38.758   2.183
43588W        W14188   3.686  32.893  13.294
43589W        W14189  21.260  42.418   2.025
43590W        W14190  23.048   3.867   4.575
43591W        W14191  42.456  26.156  12.734
43592W        W14192   3.197  34.072  13.601
43593W        W14193   0.339  23.888   3.898
43594W        W14194  29.492  11.324   4.539
43595W        W14195  34.424  25.552  14.019
43596W        W14196   5.907  28.249  13.770
43597W        W14197   3.065  17.028   1.004
43598W        W14198  18.259  35.482   3.667
43599W        W14199  32.686  35.849  11.699
43600W        W14200   0.017  11.283   4.404
43601W        W14201  30.424  28.663   4.275
43602W        W14202  11.155  13.785   3.247
43603W        W14203  38.445   1.046   4.997
43604W        W14204  37.373  37.942  14.274
43605W        W14205  30.086  30.603   3.116
43606W        W14206  34.597   3.381   0.393
43607W        W14207  23.997  23.258   0.484
43608W        W14208   3.766  29.542   3.647
43609W        W14209  36.180  23.733   2.635
43610W        W14210  31.701   5.287  11.933
43611W        W14211  10.693  44.231  11.347
43612W        W14212   2.447  39.411  12.051
43613W        W14213  21.358  24.302  14.968
43614W        W14214  34.886  34.596  10.652
43615W        W14215  38.680  29.906   0.285
43616W        W14216  13.091  10.798   4.789
43617W        W14217  36.178   0.422  12.151
43618W        W14218  39.466   6.509  12.159
43619W        W14219  31.858  44.828  11.119
43620W        W14220  30.434  30.699   0.425
43621W        W14221  29.510  43.441  14.312
43622W        W14222  12.209  20.551   2.623
43623W        W14223   9.712  17.705  12.133
43624W        W14224  25.285  35.063  12.915
43625W        W14225   7.949  36.968   2.719
43626W        W14226  20.061  13.705   0.334
43627W        W14227  19.793  19.540  14.736
43628W        W14228  39.039  23.106  12.005
43629W        W14229  27.732  38.977  12.949
43630W        W14230   9.333  37.598  14.417
43631W        W14231  38.765  42.812  11.107
43632W        W14232  20.100  39.830   3.892
43633W        W14233  33.934  36.303   3.615
43634W        W14234  35.156  41.949  14.908
43635W        W14235   8.744  11.143   4.519
43636W        W14236  31.990  14.179   0.958
43637W        W14237  14.102  27.477   4.451
43638W        W14238  26.231  30.387  14.312
43639W        W14239  17.560   0.332  11.341
43640W        W14240  43.508  29.631   0.936
43641W        W14241  24.881  43.852   4.521
43642W        W14242  25.401  30.618   4.752
43643W        W14243  12.830  44.388   0.844
43644W        W14244  18.629  18.705  11.860
43645W        W14245  43.835   6.472   3.636
43646W        W14246  26.986  21.447   4.877
43647W        W14247  27.790  20.520  12.460
43648W        W14248  43.439  22.773   1.718
43649W        W14249  39.257   6.705   4.167
43650W        W14250   4.109  42.298   3.724
43651W        W14251  28.147  28.191   0.769
43652W        W14252  16.791  25.918   0.797
43653W        W14253   0.948  26.648  12.950
43654W        W14254  27.648  14.072  11.217
43655W        W14255  23.461  12.624  12.537
43656W        W14256   9.472   9.391   1.057
43657W        W14257  12.338   6.206  11.601
43658W        W14258  43.831  13.740   0.132
43659W        W14259  38.306   1.459   4.674
43660W        W14260  29.034  42.914  13.931
43661W        W14261  44.929  37.926   1.661
43662W        W14262  15.759  25.582  10.318
43663W        W14263  22.921   3.624   4.130
43664W        W14264  42.377  26.951   3.359
43665W        W14265   9.620  27.289   4.071
43666W        W14266  10.130  29.785   3.665
43667W        W14267   6.214   3.324  10.313
43668W        W14268  36.621  14.527  13.334
43669W        W14269  21.044  26.317  13.812
43670W        W14270  42.308   5.176   2.294
43671W        W14271  32.167  33.001   3.902
43672W        W14272   4.293   3.934  14.764
43673W        W14273  10.836  20.819  11.564
43674W        W14274   4.707  20.194   0.405
43675W        W14275  33.500  40.976  12.457
43676W        W14276  15.583  34.560  11.680
43677W        W14277  24.938  38.615  14.354
43678W        W14278   3.403  44.587  13.398
43679W        W14279  30.920  12.602  12.440
43680W        W14280   3.037  21.639   1.816
43681W        W14281   2.194  26.133   2.210
43682W        W14282  35.587  25.259   0.009
43683W        W14283   1.409  36.667   4.232
43684W        W14284  40.341  20.783   1.887
43685W        W14285  10.382  20.175   5.043
43686W        W14286   9.876  23.042   3.661
43687W        W14287  36.261   6.324  13.057
43688W        W14288  41.536  36.900  10.847
43689W        W14289  25.324  43.762   3.589
43690W        W14290  38.911  25.430  11.620
43691W        W14291   7.842  33.910   3.760
43692W        W14292  23.197   9.432   4.505
43693W        W14293  43.876  35.417   4.099
43694W        W14294  27.200  23.108  10.758
43695W        W14295  42.312  13.027   1.286
43696W        W14296  41.471  10.367   1.705
43697W        W14297  16.274  20.835  11.258
43698W        W14298  24.884   6.769   1.385
43699W        W14299  14.059  38.816   2.293
43700W        W14300  27.128  19.971  14.050
43701W        W14301  19.030   8.785   0.484
43702W        W14302  13.878  29.430   5.157
43703W        W14303  35.029  13.884   4.949
43704W        W14304  14.611   9.122  12.433
43705W        W14305  43.012  42.470  11.661
43706W        W14306  20.748   4.176  14.500
43707W        W14307  19.727  24.653   3.172
43708W        W14308  43.093  36.307  11.942
43709W        W14309  23.299  12.224   0.490
43710W        W14310   2.320  29.498   1.790
43711W        W14311  18.182   4.445   3.279
43712W        W14312  13.570  23.110   1.241
43713W        W14313   8.455   4.199  11.146
43714W        W14314   4.452  27.797   0.246
43715W        W14315   3.339   3.731  12.583
43716W        W14316  12.513  19.182   0.720
43717W        W14317   5.530  16.553  13.594
43718W        W14318  34.233   0.020   2.608
43719W        W14319  16.339   1.822  14.402
43720W        W14320  36.820   6.909   2.876
43721W        W14321  18.118   6.116   0.799
43722W        W14322  43.954  28.117  13.992
43723W        W14323  33.833   8.004  14.228
43724W        W14324   8.933  31.331  11.199
43725W        W14325  16.475  11.266  10.678
43726W        W14326  32.886   6.134   2.423
43727W        W14327   1.786   3.402   4.195
43728W        W14328   2.687  10.866  13.359
43729W        W14329  26.099  41.431   3.551
43730W        W14330  26.813  21.770   1.820
43731W        W14331  25.450   2.503  14.727
43732W        W14332  16.750  10.014   1.874
43733W        W14333  23.778  26.088   3.530
43734W        W14334  37.600  13.942  11.581
43735W        W14335  13.258  36.327   2.673
43736W        W14336   1.711   6.084  14.818
43737W        W14337  43.825  24.488  12.456
43738W        W14338  10.776  32.331   2.604
43739W        W14339  35.308  30.665   4.438
43740W        W14340  25.156  11.460  12.839
43741W        W14341  29.505   4.856  11.938
43742W        W14342   1.243  14.821   4.422
43743W        W14343  40.519  18.055  12.592
43744W        W14344  28.426   2.048  12.631
43745W        W14345  39.376  18.765   0.231
43746W        W14346   4.975  17.966   4.596
43747W        W14347  10.227  37.235  10.870
43748W        W14348  23.398  22.815  11.166
43749W        W14349  12.313  44.021   3.920
43750W        W14350  36.259   8.750   2.411
43751W        W14351  17.075  43.762   0.804
43752W        W14352  22.750   9.205   1.252
43753W        W14353  39.800   5.932   0.841
43754W        W14354  15.767  38.536  11.919
43755W        W14355   9.391  33.195  12.980
43756W        W14356  38.950  13.992  11.536
43757W        W14357   4.321  21.194   4.046
43758W        W14358   1.192   1.346   3.265
43759W        W14359   7.772  25.294   2.381
43760W        W14360  21.647  20.104   3.279
43761W        W14361   4.196   1.039  14.486
43762W        W14362  32.620  19.600  11.969
43763W        W14363  24.662  20.327   0.354
43764W        W14364  16.730  19.211  13.663
43765W        W14365  19.480  26.212   3.194
43766W        W14366  22.870  34.079   0.693
43767W        W14367  44.164  42.943  14.281
43768W        W14368  41.901  28.515  12.069
43769W        W14369  39.981  21.734   2.243
43770W        W14370  22.091  26.606  12.202
43771W        W14371  10.217   6.797   4.320
43772W        W14372  31.921  11.100   3.697
43773W        W14373  42.871  30.321  11.960
43774W        W14374  34.741  32.776  13.373
43775W        W14375  20.709  22.233   4.218
43776W        W14376   0.803   9.819   0.509
43777W        W14377  35.623   3.659   2.898
43778W        W14378   3.428  39.726   1.828
43779W        W14379   8.748   2.205  11.732
43780W        W14380  22.179  20.382  10.720
43781W        W14381  38.437  16.696   1.739
43782W        W14382   2.483  23.214  11.412
43783W        W14383  20.214  25.189  12.736
43784W        W14384  16.494   8.900  14.331
43785W        W14385  22.027   5.337  13.470
43786W        W14386  28.734  12.629  12.140
43787W        W14387  29.027  33.181   4.809
43788W        W14388  24.750   1.359   2.876
43789W        W14389  15.889  28.876   2.858
43790W        W14390  34.141   6.152  12.133
43791W        W14391  23.514  25.150  14.972
43792W        W14392   7.202  17.618   0.569
43793W        W14393   5.961   2.067   2.929
43794W        W14394  29.798   4.713  14.443
43795W        W14395  22.055   4.187   0.898
43796W        W14396  18.659  20.638   2.493
43797W        W14397  40.461   6.230   0.764
43798W        W14398   2.661   4.371  10.669
43799W        W14399  39.888  32.556  13.362
43800W        W14400  37.080  12.873   1.842
43801W        W14401   6.746   7.473   4.222
43802W        W14402  18.152  18.427   3.451
43803W        W14403   0.949   8.594  11.956
43804W        W14404  17.687  38.096   4.141
43805W        W14405  39.489  15.703  13.137
43806W        W14406   6.031  19.826   3.703
43807W        W14407   8.870  23.420   2.897
43808W        W14408   0.274  37.858   3.841
43809W        W14409  24.871   7.256  10.245
43810W        W14410  24.823  34.768   1.912
43811W        W14411  19.955  16.121   3.379
43812W        W14412  31.437  22.648   4.575
43813W        W14413   9.707  44.756  14.912
43814W        W14414  43.902  35.810  14.760
43815W        W14415   6.185  18.045  13.738
43816W        W14416   3.896  16.490  14.613
43817W        W14417  22.031  27.948   4.341
43818W        W14418   7.230  34.864  14.772
43819W        W14419  18.609  13.944   4.094
43820W        W14420  24.262   6.891   0.543
43821W        W14421  35.551  12.636  11.920
43822W        W14422  37.504  14.053  13.350
43823W        W14423  36.899   8.676  10.555
43824W        W14424  31.680  33.057  12.974
43825W        W14425  22.163   0.844   0.470
43826W        W14426  25.651  13.335  12.684
43827W        W14427  43.852   0.627  14.858
43828W        W14428   2.624  21.829  11.133
43829W        W14429  38.309  27.047  12.510
43830W        W14430  44.403  31.485   2.721
43831W        W14431  31.104   6.796   1.970
43832W        W14432  10.781  28.411   2.167
43833W        W14433  27.264   9.208  13.931
43834W        W14434  40.948  29.536  12.024
43835W        W14435  13.352  22.262  12.948
43836W        W14436  38.674  34.151   0.010
43837W        W14437  11.834  31.170  12.794
43838W        W14438  35.456  25.438   0.481
43839W        W14439  35.069   3.553  10.196
43840W        W14440  44.927   6.380  11.007
43841W        W14441  36.552   0.878  14.519
43842W        W14442  27.932  19.330   0.186
43843W        W14443   8.411  28.455   2.847
43844W        W14444  23.625  12.416   3.734
43845W        W14445   0.919  35.124   0.721
43846W        W14446  38.206  22.078   4.380
43847W        W14447   0.776  33.202  10.521
43848W        W14448  17.430   7.036   2.309
43849W        W14449  37.057  11.612   0.068
43850W        W14450  14.830  14.395   2.806
43851W        W14451  40.795  35.862   0.920
43852W        W14452  12.966  19.270  11.669
43853W        W14453  33.390  28.649  11.481
43854W        W14454   1.035  14.277   4.620
43855W        W14455   3.696  40.465   4.585
43856W        W14456  16.344  35.356  13.003
43857W        W14457  10.010  31.435  14.230
43858W        W14458  35.969  11.858   0.304
43859W        W14459  23.000  17.041  11.584
43860W        W14460  22.498   3.875  12.951
43861W        W14461   1.716  28.290   3.274
43862W        W14462  37.157  36.838  10.824
43863W        W14463   6.523  17.204   1.785
43864W        W14464  23.521  12.789  10.565
43865W        W14465  29.690   2.628   4.066
43866W        W14466  43.249  24.641  13.295
43867W        W14467   3.008  43.567   4.501
43868W        W14468  42.296  28.011  10.707
43869W        W14469  33.983  41.443   4.750
43870W        W14470  29.731  12.166   4.022
43871W        W14471  12.862  44.256  10.906
43872W        W14472  23.489  15.595   4.738
43873W        W14473  39.052   1.913   3.946
43874W        W14474   2.059   6.203   3.283
43875W        W14475  23.507  15.082   0.225
43876W        W14476   6.369  27.495  14.778
43877W        W14477  33.053   5.303  12.077
43878W        W14478  28.954  37.640   2.127
43879W        W14479  41.929  26.173  12.460
43880W        W14480  42.566  11.822  13.037
43881W        W14481  21.501   4.260   2.792
43882W        W14482  14.082   7.461  12.076
43883W        W14483  17.125  11.613  13.463
43884W        W14484  32.144   1.459  11.525
43885W        W14485  24.252  12.077   1.357
43886W        W14486  37.870  29.555  12.893
43887W        W14487   7.089   4.893  11.747
43888W        W14488  29.358  38.139  11.492
43889W        W14489  42.801   5.333  12.063
43890W        W14490  12.713  15.751  13.989
43891W        W14491  42.862  37.188  13.096
43892W        W14492   1.369  32.260  12.146
43893W        W14493  42.988  18.374   3.640
43894W        W14494   3.690  16.832  13.034
43895W        W14495  36.829  23.661  11.980
43896W        W14496  10.966  15.726   4.168
43897W        W14497  43.401  27.522  10.774
43898W        W14498  20.053  22.172  11.463
43899W        W14499   7.353  11.523  11.125
43900W        W14500  41.035  20.027   1.900
43901W        W14501  33.137   8.661   2.283
43902W        W14502  33.359  38.536  13.330
43903W        W14503  28.143  26.952   3.332
43904W        W14504   6.266  39.109   3.354
43905W        W14505  31.426   2.261   3.584
43906W        W14506   2.719  44.950   3.595
43907W        W14507  34.763  43.910  14.039
43908W        W14508   4.691   2.257  14.808
43909W        W14509   3.991  25.919  13.564
43910W        W14510  16.667  15.246   0.682
43911W        W14511  17.737   1.809  14.286
43912W        W14512  41.942  36.175  12.059
43913W        W14513  24.205   0.255   0.822
43914W        W14514  19.305  29.818   0.314
43915W        W14515   7.741  24.752  14.890
43916W        W14516  14.187  43.619  14.954
43917W        W14517  23.303  23.680   2.512
43918W        W14518  16.051  11.647  14.277
43919W        W14519  13.552   0.848  13.434
43920W        W14520   6.324  44.792   4.221
43921W        W14521  30.525  22.026   4.160
43922W        W14522   5.958  19.195  12.507
43923W        W14523  23.199  19.570  11.080
43924W        W14524  22.672  32.767  14.989
43925W        W14525  28.579  20.687  10.554
43926W        W14526  34.968  32.591  10.824
43927W        W14527  16.491   0.759   0.930
43928W        W14528  25.787  32.398   2.706
43929W        W14529  22.811   8.305  14.518
43930W        W14530  12.016  35.939  14.554
43931W        W14531  29.154  26.027  12.172
43932W        W14532  14.787  39.931  11.605
43933W        W14533  29.117  14.475  11.874
43934W        W14534  15.425  44.831   2.802
43935W        W14535  42.146  19.812   2.610
43936W        W14536   2.803   9.105  11.479
43937W        W14537   0.124  31.939  10.280
43938W        W14538  42.495  10.181  12.521
43939W        W14539  12.961  22.042   3.261
43940W        W14540  34.502   4.474   1.270
43941W        W14541  10.588  29.591   1.408
43942W        W14542  42.084  19.073  13.427
43943W        W14543  32.429   1.721   4.338
43944W        W14544  16.109  35.101  13.476
43945W        W14545   8.221   3.672  11.890
43946W        W14546  36.011  12.066  13.998
43947W        W14547  11.662  41.563   3.367
43948W        W14548   8.739  29.638   3.688
43949W        W14549  25.591  15.498   1.210
43950W        W14550  28.930  34.806  10.573
43951W        W14551   1.731  12.226   1.842
43952W        W14552   8.388  13.037   4.111
43953W        W14553   4.770   5.230   0.991
43954W        W14554  37.663   4.154   0.950
43955W        W14555  19.983   1.394  10.784
43956W        W14556  43.760  23.531   0.353
43957W        W14557  27.540  18.844  12.390
43958W        W14558  31.113  35.093  13.997
43959W        W14559   1.437  23.084   0.457
43960W        W14560   2.481  41.924  14.535
43961W        W14561  27.262  37.684   0.814
43962W        W14562  18.387  19.724  14.369
43963W        W14563  43.836  40.781  11.114
43964W        W14564  38.872  24.740  13.317
43965W        W14565  20.768   3.810   2.013
43966W        W14566  10.781   8.852   1.283
43967W        W14567  10.193  18.442  12.818
43968W        W14568  39.285  14.253  11.913
43969W        W14569  30.859  11.171  13.380
43970W        W14570  11.282   2.232  14.745
43971W        W14571   7.966  44.328   4.118
43972W        W14572  28.115   7.751   0.745
43973W        W14573  42.903  26.209   3.358
43974W        W14574   6.131  23.385   1.866
43975W        W14575  24.176  12.705   0.069
43976W        W14576  15.569  32.084   0.311
43977W        W14577   2.154   4.306  10.651
43978W        W14578  13.946   2.825  11.429
43979W        W14579  27.375  38.481  12.799
43980W        W14580  12.896  10.274   4.149
43981W        W14581  39.397  14.246   0.675
43982W        W14582  26.004  20.176   4.173
43983W        W14583  40.454  29.519  12.441
43984W        W14584  41.231  43.981  13.302
43985W        W14585  33.969   5.952   4.756
43986W        W14586  18.848  17.250   2.217
43987W        W14587  11.263  20.240   0.815
43988W        W14588   0.353  22.710   1.451
43989W        W14589  39.035  44.835   4.523
43990W        W14590   9.926  25.951  14.109
43991W        W14591  43.279  41.319   1.278
43992W        W14592  41.743  43.684   2.652
43993W        W14593  25.180  30.895   2.232
43994W        W14594   9.930  17.161  11.194
43995W        W14595   0.967   2.826  12.386
43996W        W14596   4.683  13.700  13.156
43997W        W14597  29.031  28.556   1.921
43998W        W14598  11.491  32.941  12.684
43999W        W14599   1.528  10.681   0.716
44000W        W14600  40.059  44.947   4.569
44001W        W14601  21.617  39.340  13.421
44002W        W14602  17.740   7.512  10.907
44003W        W14603  12.643  35.588   2.796
44004W        W14604  38.907  15.736  12.401
44005W        W14605  21.005  27.055  10.324
44006W        W14606  21.035  15.724   1.576
44007W        W14607  12.267   0.059   0.867
44008W        W14608  34.294  12.254  11.529
44009W        W14609  20.083  23.159   2.259
44010W        W14610   7.022  15.337  13.477
44011W        W14611  42.975  11.325  13.292
44012W        W14612  10.305  20.283  11.827
44013W        W14613  25.695  41.361   0.255
44014W        W14614   2.760   2.114   2.670
44015W        W14615   0.853  26.742  13.451
44016W        W14616  10.793   2.345   4.299
44017W        W14617  14.202   7.304   3.708
44018W        W14618  18.398   5.929   3.315
44019W        W14619  15.187  44.332  11.582
44020W        W14620  39.569  43.675  13.903
44021W        W14621  27.649  39.857  11.099
44022W        W14622  36.490   6.255   4.501
44023W        W14623   7.470  24.958   3.745
44024W        W14624  37.477  10.786  12.585
44025W        W14625  27.202   7.108   1.194
44026W        W14626  41.104   9.078  13.214
44027W        W14627  31.608  21.934   0.875
44028W        W14628  43.113  36.416  12.491
44029W        W14629  32.238  18.373  10.178
44030W        W14630  22.774  12.556  13.467
44031W        W14631  40.798  15.390   2.776
44032W        W14632  42.632  32.043  11.731
44033W        W14633   5.347  28.601  14.941
44034W        W14634  44.907  36.281  11.449
44035W        W14635   1.897  36.428   2.302
44036W        W14636  39.714  22.725  11.722
44037W        W14637  20.337   1.348  11.186
44038W        W14638  39.664  38.029  11.515
44039W        W14639  25.990   9.417  10.375
44040W        W14640  36.377  33.045  14.360
44041W        W14641  30.593  28.323  11.175
44042W        W14642  15.779  40.027  14.086
44043W        W14643  19.332  10.609   0.008
44044W        W14644  23.883   7.476   1.788
44045W        W14645  21.935  18.346   1.003
44046W        W14646  44.004  25.654   3.926
44047W        W14647  24.560  39.862  11.945
44048W        W14648  14.651  13.308   2.202
44049W        W14649  17.291   1.990   3.189
44050W        W14650  12.937  29.201   4.412
44051W        W14651  14.895  36.948   3.974
44052W        W14652  34.193  18.081  13.292
44053W        W14653  20.257   0.989  14.610
44054W        W14654  17.139  13.715   2.955
44055W        W14655  14.653  18.708  14.852
44056W        W14656  43.309   8.883   2.218
44057W        W14657  17.046  32.745   1.274
44058W        W14658  42.945  41.748   1.402
44059W        W14659  18.515   4.679   2.198
44060W        W14660   6.369  43.843  11.134
44061W        W14661  29.571  36.466  10.985
44062W        W14662  17.602  10.244   0.347
44063W        W14663   7.763  28.957  11.133
44064W        W14664   9.568  41.811  14.852
44065W        W14665  16.674  43.306   5.507
44066W        W14666  37.852  21.446   3.632
44067W        W14667  15.638  21.081  11.882
44068W        W14668  20.451  23.200  12.344
44069W        W14669  10.101  37.596   0.045
44070W        W14670  13.604  43.971   0.708
44071W        W14671  42.305  19.560   1.340
44072W        W14672  11.519  11.299   2.919
44073W        W14673  26.601  39.427  14.916
44074W        W14674  10.776  33.160   3.764
44075W        W14675   0.144   6.712   4.976
44076W        W14676  11.686   3.179   1.506
44077W        W14677  24.071   3.371  13.485
44078W        W14678  11.408  22.404  12.478
44079W        W14679   6.322  31.672  10.713
44080W        W14680  41.929  26.134   3.433
44081W        W14681   4.030   1.810   4.226
44082W        W14682  36.832  38.956   2.200
44083W        W14683  16.244  40.533  13.032
44084W        W14684  15.766  24.239   1.658
44085W        W14685  30.835  30.952  13.004
44086W        W14686   7.401  29.750   3.652
44087W        W14687   6.660  31.542  13.070
44088W        W14688  10.345  25.074  10.771
44089W        W14689  42.215  21.345  10.714
44090W        W14690  13.591  28.565  11.523
44091W        W14691  41.775  36.473  13.345
44092W        W14692  27.858  37.628  13.551
44093W        W14693   9.805  34.782   2.392
44094W        W14694  16.995  34.449  11.052
44095W        W14695  24.287  11.331  11.600
44096W        W14696  32.366   3.977   1.453
44097W        W14697  17.314  35.394   3.318
44098W        W14698  35.355   8.303   4.954
44099W        W14699  19.731   5.143  13.073
44100W        W14700  18.042  28.716  12.586
44101W        W14701  31.847  37.665   3.251
44102W        W14702  41.397  21.710   2.435
44103W        W14703  22.126   4.654  12.435
44104W        W14704  40.316  12.032  11.128
44105W        W14705  38.933   2.923  14.550
44106W        W14706  44.088  20.092  14.998
44107W        W14707  12.652  12.143   2.831
44108W        W14708  32.997  23.174   0.280
44109W        W14709  39.600  32.137  13.330
44110W        W14710  13.170  44.152  10.509
44111W        W14711  10.738  37.855   0.294
44112W        W14712  23.508  28.158   2.605
44113W        W14713  11.221  27.685  10.523
44114W        W14714   0.180  34.507  12.517
44115W        W14715  28.021   6.798   2.201
44116W        W14716   8.310  28.662  14.319
44117W        W14717   2.711   0.318  11.908
44118W        W14718  18.861  28.641   9.307
44119W        W14719  27.901  30.265  12.900
44120W        W14720  30.386   0.216  11.954
44121W        W14721  19.933  20.313  11.631
44122W        W14722  19.055   6.827  10.882
44123W        W14723  34.118  30.588  13.043
44124W        W14724  41.107  36.027   1.325
44125W        W14725   9.529   4.192   2.706
44126W        W14726  41.048  41.303   0.714
44127W        W14727   5.696  29.591   1.793
44128W        W14728  37.851  27.476   4.214
44129W        W14729   4.875  42.556  11.569
44130W        W14730  29.136  17.120  14.975
44131W        W14731  28.223   2.249  11.672
44132W        W14732   5.686  37.373   4.561
44133W        W14733  11.704  18.141   3.321
44134W        W14734  16.270  34.862   3.827
44135W        W14735  31.314  33.513   4.534
44136W        W14736  10.125  10.076  13.463
44137W        W14737  37.840  23.286   2.370
44138W        W14738  13.088  44.302   2.873
44139W        W14739  24.739  15.796   4.148
44140W        W14740  17.102  39.121  14.423
44141W        W14741  33.495  25.857   1.357
44142W        W14742   0.505   6.389  11.041
44143W        W14743  32.646  20.425   3.738
44144W        W14744  22.035   7.401  13.949
44145W        W14745  30.054  32.592  13.299
44146W        W14746  36.605  33.130  13.051
44147W        W14747  15.914   5.248  13.077
44148W        W14748  17.797  36.664  11.157
44149W        W14749  14.498  22.633  14.335
44150W        W14750  37.873  41.412   3.173
44151W        W14751  17.642  27.304   2.926
44152W        W14752   0.455  18.334  11.592
44153W        W14753  42.406  11.392  12.108
44154W        W14754  41.293  27.575   1.904
44155W        W14755   4.889   5.157   3.955
44156W        W14756  17.802  26.813   2.771
44157W        W14757   5.168  16.667  11.822
44158W        W14758  21.666  37.969  13.506
44159W        W14759  22.789  12.796   3.609
44160W        W14760   3.365  20.629   0.902
44161W        W14761  34.615  15.820   3.380
44162W        W14762  34.038  35.825  13.068
44163W        W14763  14.968  24.208  12.619
44164W        W14764  40.847   2.889  11.628
44165W        W14765  24.476  10.696   4.632
44166W        W14766  31.141  43.322   1.826
44167W        W14767  37.628  14.219   1.248
44168W        W14768   9.314  39.787   0.885
44169W        W14769   7.333  35.336   3.197
44170W        W14770  42.767  36.929   0.157
44171W        W14771   0.991  25.647   2.767
44172W        W14772  14.696  18.824   2.215
44173W        W14773  41.423  43.573   3.225
44174W        W14774  13.300  37.871  13.201
44175W        W14775  31.481  39.448   3.664
44176W        W14776  29.786   7.656  10.066
44177W        W14777  27.161   1.908  10.898
44178W        W14778  33.487  18.562  11.190
44179W        W14779  33.535  40.886   4.093
44180W        W14780  14.659  11.433   1.365
44181W        W14781  43.889  27.098  12.468
44182W        W14782  26.677  11.892  14.823
44183W        W14783   4.823  22.763  12.996
44184W        W14784  37.547  42.720  11.687
44185W        W14785  14.655  34.537  11.542
44186W        W14786  18.025  32.474  10.954
44187W        W14787  22.232  43.253   2.293
44188W        W14788  25.764  26.778  10.346
44189W        W14789  42.718  31.454   3.787
44190W        W14790   6.378  11.324   2.200
44191W        W14791  41.516  29.148  11.693
44192W        W14792  44.336   4.927  12.938
44193W        W14793  37.866  27.900   3.268
44194W        W14794  31.615   9.666   2.783
44195W        W14795  30.686   3.821   4.522
44196W        W14796  12.347  19.591  12.726
44197W        W14797   8.448  21.675   2.873
44198W        W14798  19.630  24.029   2.393
44199W        W14799  20.642   5.722  12.712
44200W        W14800  23.633  24.004  12.146
44201W        W14801  32.523  30.522   2.732
44202W        W14802  39.453  43.031  12.057
44203W        W14803  30.227  44.069   2.839
44204W        W14804  43.825  11.448  12.577
44205W        W14805   5.139  31.069  14.901
44206W        W14806  33.463   5.931  14.973
44207W        W14807  23.440  16.365  12.976
44208W        W14808  14.533  32.923   4.794
44209W        W14809   2.670  30.435  11.471
44210W        W14810  34.623   1.215   3.826
44211W        W14811  44.743  42.720  12.251
44212W        W14812  30.657  37.825   4.651
44213W        W14813  23.334  12.247  14.563
44214W        W14814  26.787  19.287  11.539
44215W        W14815   3.450  23.977   1.329
44216W        W14816  17.521   1.883   4.613
44217W        W14817  34.794   8.222  13.067
44218W        W14818  34.647  10.383  14.383
44219W        W14819  19.307  29.451  13.870
44220W        W14820   3.137  22.494   2.374
44221W        W14821  32.120  35.071  13.542
44222W        W14822  34.280   1.054  13.294
44223W        W14823  16.165   1.606  13.373
44224W        W14824  41.303   1.333   1.191
44225W        W14825  43.004  41.405  13.547
44226W        W14826   0.962   3.832  14.381
44227W        W14827   1.360  18.712   3.834
44228W        W14828  41.787  41.340   4.886
44229W        W14829  18.434  13.638   2.444
44230W        W14830  14.800  36.680   3.550
44231W        W14831  22.655  34.904   2.624
44232W        W14832   3.801  37.928   4.635
44233W        W14833  18.619  27.127   4.051
44234W        W14834  17.721  16.832  14.881
44235W        W14835  24.823  35.883  11.728
44236W        W14836   5.794  34.936   0.755
44237W        W14837  10.266  43.443  14.487
44238W        W14838  41.245  17.441   4.930
44239W        W14839   7.283   4.508  13.436
44240W        W14840  29.000  24.234  14.898
44241W        W14841  23.108  34.649   4.477
44242W        W14842  21.112   1.622  11.512
44243W        W14843   8.535  41.495   1.394
44244W        W14844  33.447  28.204  13.363
44245W        W14845  37.346  38.990   3.100
44246W        W14846  20.947  33.304   3.302
44247W        W14847  31.505  44.567  12.424
44248W        W14848  40.316  12.799  13.906
44249W        W14849  20.070  43.748   4.490
44250W        W14850   1.708  25.812   0.287
44251W        W14851   8.661  25.070   0.939
44252W        W14852   7.761  21.305  13.511
44253W        W14853   9.726  11.582   1.321
44254W        W14854   4.159  30.053  14.870
44255W        W14855  44.645  32.038   1.005
44256W        W14856  35.565   8.165  13.008
44257W        W14857  37.497  16.674  14.929
44258W        W14858  12.253  13.537   0.389
44259W        W14859   8.346   0.835  11.495
44260W        W14860  15.476  38.761  14.866
44261W        W14861  13.607  18.058   2.812
44262W        W14862   7.428  16.781   4.551
44263W        W14863  40.383  19.870   3.312
44264W        W14864  11.370  28.128  10.731
44265W        W14865  33.085  40.017  11.109
44266W        W14866  38.514  26.949  14.908
44267W        W14867  35.608  38.210   2.125
44268W        W14868  36.807  40.752   3.261
44269W        W14869  38.411   3.305   3.511
44270W        W14870  33.907   8.875   4.599
44271W        W14871  24.030  36.831  13.552
44272W        W14872   8.747   4.678  13.388
44273W        W14873  33.567  14.683   2.831
44274W        W14874   8.386  26.289  11.377
44275W        W14875   6.667  43.342   0.752
44276W        W14876  43.344  36.976  11.224
44277W        W14877  23.959  26.122   2.160
44278W        W14878  43.477  43.522   4.329
44279W        W14879  25.574  41.863  12.397
44280W        W14880   1.622  38.542  13.548
44281W        W14881  24.172  28.948   2.815
44282W        W14882   1.297  10.826   4.763
44283W        W14883  33.205  15.147   4.168
44284W        W14884  29.016   9.297   4.845
44285W        W14885  27.894  27.102  13.532
44286W        W14886  33.378   5.288  10.754
44287W        W14887  26.015   2.631  11.115
44288W        W14888  24.486  15.397  10.782
44289W        W14889  36.984  31.370  11.991
44290W        W14890  31.818  27.720  12.517
44291W        W14891  25.612  38.585  12.574
44292W        W14892   1.420  21.223   2.231
44293W        W14893  31.077  33.025   4.623
44294W        W14894   6.242  13.720  12.941
44295W        W14895   0.653  24.986   1.017
44296W        W14896  39.328   0.467  10.851
44297W        W14897   1.467  42.433   3.865
44298W        W14898  37.851  27.015  11.223
44299W        W14899  24.270   4.259  14.918
44300W        W14900   3.089  31.581  10.685
44301W        W14901  11.296  35.420   3.088
44302W        W14902  12.916  15.546  14.539
44303W        W14903  12.681  15.309  11.581
44304W        W14904  34.100  37.129   3.113
44305W        W14905  26.304  32.455   2.701
44306W        W14906  39.297  42.241  12.834
44307W        W14907  27.079  10.380  13.938
44308W        W14908   3.138  17.674  13.519
44309W        W14909  23.484   0.838   3.093
44310W        W14910  32.942  38.845  13.411
44311W        W14911  26.728   3.263  11.048
44312W        W14912  38.342  27.246  13.426
44313W        W14913  20.229  11.371   9.928
44314W        W14914  30.132  28.922  13.996
44315W        W14915  14.121  15.011  13.631
44316W        W14916  39.321   7.285  14.843
44317W        W14917  13.582  34.878  13.690
44318W        W14918  23.222  20.238  13.436
44319W        W14919   3.264  18.693  10.930
44320W        W14920   8.798   2.569   4.754
44321W        W14921  30.871  26.474  12.553
44322W        W14922   0.053  15.715  12.894
44323W        W14923  18.352  37.358  14.275
44324W        W14924   7.134  31.024   3.235
44325W        W14925  23.613  29.923  10.669
44326W        W14926  20.113  19.091   3.132
44327W        W14927   2.196  24.501   1.441
44328W        W14928  18.991  37.748  12.031
44329W        W14929  21.093  12.772   4.107
44330W        W14930  28.445  21.617   3.806
44331W        W14931  36.332   7.307  13.781
44332W        W14932   5.358  37.170   3.307
44333W        W14933  20.253  24.014   0.596
44334W        W14934   4.704  19.213  14.022
44335W        W14935  32.754  39.494  11.890
44336W        W14936  31.476  11.158   3.429
44337W        W14937  29.005  12.366   2.699
44338W        W14938   1.244  44.816   2.862
44339W        W14939  38.437  38.372   2.942
44340W        W14940  16.387  42.315  13.513
44341W        W14941  42.282  42.174  14.453
44342W        W14942   8.756   2.445   2.875
44343W        W14943  34.930   6.421  14.979
44344W        W14944  19.492  17.241  11.139
44345W        W14945  29.555  28.882   4.843
44346W        W14946   1.273  44.419   3.718
44347W        W14947  29.587  25.049   3.696
44348W        W14948  31.543  22.714  11.118
44349W        W14949  10.536  43.755  13.694
44350W        W14950  23.692  39.453  12.889
44351W        W14951   8.603  38.598  14.021
44352W        W14952  25.964  26.169   0.368
44353W        W14953  37.423  17.833  11.615
44354W        W14954   6.239  19.442  14.495
44355W        W14955   3.977  12.678   3.525
44356W        W14956  15.122  24.663   0.530
44357W        W14957  29.790  13.660   1.305
44358W        W14958   6.906  35.920  12.879
44359W        W14959  43.371  18.927  11.690
44360W        W14960  11.558  41.923  12.213
44361W        W14961   0.890  42.704   0.675
44362W        W14962  19.617  22.808   4.069
44363W        W14963  22.595  34.535   1.678
44364W        W14964  17.321   1.668   1.573
44365W        W14965  16.134   4.800  12.924
44366W        W14966  25.005   1.349   4.474
44367W        W14967  22.471  26.422  11.471
44368W        W14968  39.553  19.582   2.281
44369W        W14969  25.806  42.973   3.502
44370W        W14970  27.899  24.435  14.435
44371W        W14971   7.472   3.818  12.926
44372W        W14972  25.240  14.731  10.491
44373W        W14973  15.588  25.183  10.600
44374W        W14974  22.577   7.365  11.603
44375W        W14975  35.643  26.408   0.273
44376W        W14976  43.457  18.836   4.192
44377W        W14977  32.357  23.482   3.394
44378W        W14978  29.517  18.316  13.802
44379W        W14979  15.471  41.941  11.950
44380W        W14980  17.288  23.950   1.736
44381W        W14981  15.028  37.588  11.804
44382W        W14982  28.239   4.804  14.391
44383W        W14983   0.788  22.733  10.709
44384W        W14984   5.308  30.871  14.444
44385W        W14985  10.671   6.300   3.317
44386W        W14986  20.206   7.433  11.572
44387W        W14987  41.268  15.937  12.906
44388W        W14988  38.173  43.875   4.598
44389W        W14989  43.544  10.599  13.667
44390W        W14990  19.359  26.654  14.067
44391W        W14991  29.718  15.548   3.044
44392W        W14992  26.685  43.395  11.819
44393W        W14993  15.542  23.149   3.152
44394W        W14994  25.420   6.861  13.306
44395W        W14995   2.559  22.950   0.243
44396W        W14996  26.404   3.839  14.854
44397W        W14997   0.211  11.668  13.587
44398W        W14998  13.696  38.606  13.677
44399W        W14999  27.563  37.165  13.862
44400W        W15000  13.877  10.572  11.419
44401W        W15001  35.061  30.247  14.377
44402W        W15002  21.737  34.897  11.063
44403W        W15003  41.029  37.199   4.901
44404W        W15004  24.460  34.942  12.581
44405W        W15005  15.734  20.278  11.528
44406W        W15006  22.048  13.891   0.433
44407W        W15007  37.628  41.301   0.683
44408W        W15008  29.563  43.027   3.968
44409W        W15009  28.538  43.860  10.948
44410W        W15010  39.058  37.051   2.285
44411W        W15011   5.666  11.269   1.789
44412W        W15012   0.384  25.505   3.552
44413W        W15013  33.397  39.080  13.211
44414W        W15014   8.216  31.013   3.863
44415W        W15015  20.587  10.225  12.426
44416W        W15016  19.250   4.178   4.186
44417W        W15017   3.005  10.194  14.941
44418W        W15018   8.923  37.356   2.331
44419W        W15019  20.032  16.642   3.942
44420W        W15020  33.040  29.582  13.784
44421W        W15021  23.761  29.904   0.260
44422W        W15022  15.831  34.923   2.843
44423W        W15023   7.342  38.544  14.841
44424W        W15024  35.405  20.253  11.077
44425W        W15025  43.579  35.120  14.338
44426W        W15026  11.948  28.659   3.137
44427W        W15027  13.556   8.317  14.819
44428W        W15028  18.154   9.097  11.143
44429W        W15029  25.787   6.906   0.846
44430W        W15030   3.319  31.955  12.404
44431W        W15031  12.303  21.202  11.723
44432W        W15032  34.321  41.038   3.737
44433W        W15033  30.437  23.604  13.765
44434W        W15034  13.631   6.704  11.492
44435W        W15035  26.868  34.854   4.976
44436W        W15036  13.100   4.844   4.054
44437W        W15037   3.311  27.695   0.862
44438W        W15038  20.420  24.943  11.938
44439W        W15039   9.256  23.557   3.730
44440W        W15040  31.627  19.261   3.249
44441W        W15041   2.850  35.045  12.327
44442W        W15042  43.439  44.877   0.455
44443W        W15043   7.795  26.271   2.344
44444W        W15044  14.703  30.551   3.572
44445W        W15045   3.532  19.447  12.608
44446W        W15046  38.878   0.774   3.525
44447W        W15047  15.317  10.869   2.589
44448W        W15048  15.329  22.824   3.779
44449W        W15049  33.283  29.173   1.680
44450W        W15050  31.897  17.727  13.380
44451W        W15051  22.492  17.046  11.508
44452W        W15052   4.523   2.032   3.148
44453W        W15053   7.243   6.816   3.604
44454W        W15054  35.991   8.884  14.969
44455W        W15055  36.975  10.781   1.148
44456W        W15056  29.512  43.726   2.649
44457W        W15057  28.142  26.133   0.349
44458W        W15058  36.523  40.027   2.645
44459W        W15059  21.493  15.124  12.398
44460W        W15060  19.069  31.619  10.518
44461W        W15061  44.833  31.313  11.962
44462W        W15062  21.209  11.093  14.604
44463W        W15063   9.724  37.926   0.229
44464W        W15064  15.834  21.636   2.338
44465W        W15065  24.658  31.448   4.688
44466W        W15066  31.024   7.226   2.254
44467W        W15067  35.219  33.821  11.564
44468W        W15068  25.079  31.392   4.383
44469W        W15069  25.731   0.383  10.252
44470W        W15070  23.636  21.577   3.233
44471W        W15071  41.997   2.687   3.763
44472W        W15072  22.590  43.449  10.075
44473W        W15073   2.939  11.179   2.876
44474W        W15074  26.688  21.711  11.122
44475W        W15075  10.234   8.824  13.857
44476W        W15076  25.191  38.289  11.224
44477W        W15077  42.258  29.618  13.478
44478W        W15078  18.291  35.104  13.972
44479W        W15079  17.564  39.968   2.476
44480W        W15080  31.874  31.652   2.695
44481W        W15081   4.502  33.789  12.489
44482W        W15082  19.579  28.653   1.938
44483W        W15083  17.605  44.308  11.892
44484W        W15084   3.679  36.966   2.114
44485W        W15085   0.251  10.723   1.862
44486W        W15086   0.423  34.646  12.078
44487W        W15087   1.952  22.989   1.895
44488W        W15088  11.062  36.651  11.067
44489W        W15089  39.875   0.201  13.952
44490W        W15090  33.333  32.100  10.328
44491W        W15091  33.326  40.285  14.327
44492W        W15092  28.656   3.746   3.764
44493W        W15093   3.249  29.745  11.566
44494W        W15094  27.523  36.454  11.624
44495W        W15095  14.286  21.756   2.982
44496W        W15096  35.576  22.582  11.465
44497W        W15097  20.835  25.410   5.070
44498W        W15098   9.234  29.035  14.352
44499W        W15099   9.218  26.042   0.557
44500W        W15100   2.995  36.465   1.520
44501W        W15101   4.239  20.881  13.490
44502W        W15102  39.623  24.068  11.504
44503W        W15103   7.863  19.292   1.478
44504W        W15104  18.368  36.602  13.315
44505W        W15105  24.086  17.242   1.700
44506W        W15106  30.444  15.896  11.523
44507W        W15107  33.919  31.006   0.704
44508W        W15108  19.461  29.608   3.412
44509W        W15109   5.551  19.324   4.612
44510W        W15110  23.244   4.366   1.527
44511W        W15111  14.572  38.494  13.973
44512W        W15112  10.759  21.506   0.486
44513W        W15113  29.796  16.329   3.269
44514W        W15114  31.158  10.348  12.368
44515W        W15115  28.521   2.719  11.661
44516W        W15116  29.954   4.758  12.146
44517W        W15117  35.848   1.880  11.991
44518W        W15118  24.520  37.521   1.303
44519W        W15119  10.071   0.892   2.400
44520W        W15120  32.361  44.002  13.723
44521W        W15121  41.814   7.627   1.266
44522W        W15122  28.899  22.942  11.201
44523W        W15123  31.800  11.597  13.389
44524W        W15124  28.699  17.158   2.442
44525W        W15125  36.449   1.308   1.139
44526W        W15126  37.799  13.060   1.023
44527W        W15127   6.586  40.578  11.478
44528W        W15128   9.861  35.502  10.721
44529W        W15129  16.740  38.420   2.266
44530W        W15130  34.435  23.847   4.012
44531W        W15131   3.880   7.714  10.564
44532W        W15132  27.746  18.470  13.289
44533W        W15133  12.376  37.911   2.023
44534W        W15134  23.503   6.413   3.135
44535W        W15135  26.991  25.907  10.716
44536W        W15136  35.408  36.799  13.910
44537W        W15137  30.088  36.389  11.139
44538W        W15138  22.579   2.473   0.707
44539W        W15139   8.482  20.501  11.980
44540W        W15140  35.732  41.425   3.230
44541W        W15141  25.891   5.415   4.717
44542W        W15142  27.891  35.149  14.528
44543W        W15143  27.028   9.623   0.085
44544W        W15144  29.403   5.434   1.139
44545W        W15145  36.958  13.716   1.059
44546W        W15146   2.935   1.493   0.614
44547W        W15147   8.346   4.728   3.200
44548W        W15148  25.710   9.156  13.902
44549W        W15149  42.475   1.276   1.574
44550W        W15150   9.461  23.576  12.817
44551W        W15151  25.702  22.263   4.149
44552W        W15152  17.087  35.490   4.228
44553W        W15153   0.730  23.579  10.410
44554W        W15154  19.854  12.124  13.035
44555W        W15155   6.272  14.246   4.450
44556W        W15156   4.595  32.380  12.082
44557W        W15157  23.453   1.696  12.516
44558W        W15158   8.149  13.568  12.336
44559W        W15159  31.158   9.004   0.819
44560W        W15160  33.837  30.582   2.763
44561W        W15161  23.727   6.286  12.154
44562W        W15162  40.077  31.455   3.018
44563W        W15163  41.281  30.303  11.160
44564W        W15164   0.520  23.584   3.497
44565W        W15165  41.616  40.364  12.475
44566W        W15166  15.011  28.490  14.674
44567W        W15167   5.835  27.592   0.410
44568W        W15168  37.206  14.785  14.007
44569W        W15169  16.554   6.640   3.753
44570W        W15170  17.772  41.992   0.399
44571W        W15171  44.539  35.962   3.604
44572W        W15172  26.476  12.381  12.473
44573W        W15173  12.220  18.533  10.900
44574W        W15174  27.074  15.366   2.191
44575W        W15175   7.394  16.413  14.387
44576W        W15176  11.213  43.252   2.216
44577W        W15177  25.527  20.473  12.853
44578W        W15178  10.183  30.959  11.139
44579W        W15179  35.268   0.887  13.037
44580W        W15180  11.730  11.518   2.115
44581W        W15181  15.262  29.663   4.565
44582W        W15182  25.602  33.657   2.414
44583W        W15183  30.034  24.624  10.680
44584W        W15184  24.744  14.284   3.298
44585W        W15185   8.780  28.768  12.989
44586W        W15186  32.103  26.486  12.943
44587W        W15187  29.551  20.412   3.798
44588W        W15188  41.039  26.939   4.160
44589W        W15189  43.451  29.487   2.711
44590W        W15190  44.180   2.297  11.574
44591W        W15191  32.528  21.644   2.117
44592W        W15192  38.078   2.758   0.687
44593W        W15193  43.916  15.567   0.748
44594W        W15194   3.538  14.301  12.818
44595W        W15195  16.533  42.353   3.355
44596W        W15196  22.896  31.051   1.273
44597W        W15197  22.686  22.569   2.019
44598W        W15198   8.770  35.823   3.251
44599W        W15199  21.030  15.320   0.217
44600W        W15200  28.224  17.684  11.474
44601W        W15201   2.487  19.814   1.694
44602W        W15202   4.987   3.272   2.785
44603W        W15203  26.472  33.100   3.193
44604W        W15204  26.681   0.257   2.896
44605W        W15205   5.428  43.873  14.188
44606W        W15206  16.711  16.136  11.891
44607W        W15207  20.023   5.375   3.841
44608W        W15208  30.198   7.714  14.812
44609W        W15209   2.754  28.254   4.705
44610W        W15210   7.396   9.132   4.091
44611W        W15211  29.207   0.834  12.138
44612W        W15212  27.751   3.211  11.614
44613W        W15213   5.157  26.004   2.290
44614W        W15214   2.925  43.457  12.049
44615W        W15215  40.299  17.689   1.218
44616W        W15216  40.925   7.505   4.608
44617W        W15217  31.041  11.284  14.258
44618W        W15218  38.425  21.838  10.239
44619W        W15219   1.253  13.035  13.821
44620W        W15220  22.639  41.763  14.793
44621W        W15221  25.723  30.712   3.730
44622W        W15222   4.455   9.333   3.760
44623W        W15223  22.288  40.905   2.148
44624W        W15224   4.631   2.774   2.800
44625W        W15225   7.834  26.033   0.463
44626W        W15226  22.842   0.131  12.949
44627W        W15227   8.631  18.531   3.182
44628W        W15228   8.683   4.354   1.824
44629W        W15229  38.741  29.628  12.602
44630W        W15230   5.144   4.399   1.850
44631W        W15231   2.927   6.464  13.594
44632W        W15232   8.487  38.611   3.270
44633W        W15233  27.673  13.226  13.204
44634W        W15234   0.194  40.522   3.848
44635W        W15235  34.307   9.337   1.863
44636W        W15236  21.512   1.512   0.190
44637W        W15237  20.249  18.760  11.242
44638W        W15238  17.848   3.668   1.413
44639W        W15239   2.137  12.249   4.545
44640W        W15240   1.325   9.369   1.897
44641W        W15241  17.732   4.682  11.908
44642W        W15242   5.884  42.941  14.940
44643W        W15243   3.846  42.116   2.432
44644W        W15244  22.100  25.196   3.445
44645W        W15245   1.242  27.093  12.905
44646W        W15246  10.415  10.294  13.854
44647W        W15247  39.871  33.190  11.340
44648W        W15248  36.110  17.297  12.538
44649W        W15249   1.642  17.566  14.643
44650W        W15250  29.529  29.469  14.522
44651W        W15251  32.993  22.615  11.136
44652W        W15252   4.985  20.097  12.858
44653W        W15253  43.110  28.372   0.962
44654W        W15254   1.002   5.198  10.461
44655W        W15255  24.649  37.448  11.514
44656W        W15256  10.805   5.709  10.644
44657W        W15257   8.944  25.048   4.261
44658W        W15258  35.958  10.748  12.606
44659W        W15259  29.115  28.999   0.725
44660W        W15260  20.678  14.484   3.265
44661W        W15261  28.133  38.595   2.608
44662W        W15262   1.431   2.977  10.755
44663W        W15263  30.275  40.969  13.844
44664W        W15264  30.655  26.517  11.552
44665W        W15265  17.911   5.287   2.846
44666W        W15266  43.889  35.970   0.993
44667W        W15267  42.848  36.129  13.816
44668W        W15268  44.392   8.337   4.505
44669W        W15269  41.062  14.161  10.668
44670W        W15270   7.363  24.476   3.978
44671W        W15271  26.776  27.197  13.443
44672W        W15272   1.190  16.842  11.552
44673W        W15273  21.964  34.896   2.804
44674W        W15274  11.357   1.881  13.282
44675W        W15275   2.202  27.972  10.953
44676W        W15276  13.818  17.732   3.659
44677W        W15277   4.381  30.881  12.388
44678W        W15278  25.654  42.016   0.942
44679W        W15279  40.900   3.140   2.241
44680W        W15280  12.032  40.430   2.202
44681W        W15281  20.618  29.402  13.572
44682W        W15282  18.750  41.987   3.086
44683W        W15283  20.374  39.453   0.461
44684W        W15284   2.966  37.264   0.050
44685W        W15285  27.199  16.650   2.369
44686W        W15286  42.012   5.869  11.288
44687W        W15287  21.315  26.762   0.866
44688W        W15288  28.852  10.109  12.891
44689W        W15289  17.830  23.448  12.412
44690W        W15290   3.629  11.734   1.649
44691W        W15291  13.586  27.103  12.549
44692W        W15292  38.122   1.737  14.790
44693W        W15293   9.953   8.405  13.056
44694W        W15294  38.961  13.489  11.412
44695W        W15295  39.280  23.851  13.457
44696W        W15296  11.708  24.927   3.648
44697W        W15297   6.157  34.496  10.624
44698W        W15298  29.265   0.743   2.765
44699W        W15299  25.048  23.200   3.563
44700W        W15300   8.238   9.429   0.885
44701W        W15301  25.069  41.818   4.986
44702W        W15302  24.998  42.081  14.417
44703W        W15303  17.817  35.328  13.898
44704W        W15304  17.279  28.122   1.864
44705W        W15305  21.473  29.723   2.567
44706W        W15306  43.333  42.571   3.531
44707W        W15307   6.760   7.987   1.195
44708W        W15308  35.086  24.089   4.543
44709W        W15309  38.899   2.693  11.511
44710W        W15310  21.574  16.450   0.788
44711W        W15311  42.557  27.634  12.064
44712W        W15312  16.632  19.282  10.997
44713W        W15313  22.208   5.871  12.935
44714W        W15314  41.490  37.354  11.918
44715W        W15315   7.732  31.867  12.082
44716W        W15316   9.912  26.698   4.602
44717W        W15317  35.661  12.219   1.847
44718W        W15318  23.180  17.850   2.438
44719W        W15319  25.573  10.757   4.814
44720W        W15320  32.456  29.083  14.860
44721W        W15321   4.245   3.314   1.701
44722W        W15322  28.639  20.506  13.574
44723W        W15323   0.513   4.800   1.759
44724W        W15324   1.317  18.084  13.270
44725W        W15325  25.007   7.662   0.862
44726W        W15326  30.620  10.677   0.960
44727W        W15327   9.334   3.731  12.479
44728W        W15328  23.663  34.730   2.911
44729W        W15329  14.728  21.691  13.407
44730W        W15330  20.765  30.901  14.150
44731W        W15331  38.349  40.899   3.687
44732W        W15332   0.198  35.862  11.510
44733W        W15333  40.815   3.425  11.625
44734W        W15334  36.198  40.097  12.009
44735W        W15335   7.810  23.578   1.964
44736W        W15336  36.663  22.245  14.463
44737W        W15337  20.267  17.590  11.980
44738W        W15338  41.408  32.837  11.539
44739W        W15339  27.640  12.270  11.470
44740W        W15340  23.390  39.658  14.309
44741W        W15341  29.271  44.966   1.217
44742W        W15342   2.510  15.596   0.366
44743W        W15343   6.168  36.768  11.454
44744W        W15344  40.506  20.568  11.933
44745W        W15345  29.412  39.001  10.673
44746W        W15346  42.041  44.821   3.107
44747W        W15347  33.012  33.178  12.455
44748W        W15348  33.428   9.405  11.584
44749W        W15349  41.853  22.070  12.049
44750W        W15350  15.814  38.970   1.325
44751W        W15351   1.749  22.187  10.581
44752W        W15352   7.717  38.330   3.829
44753W        W15353   2.077  31.162  12.898
44754W        W15354  42.413  32.710   2.396
44755W        W15355  11.103  28.491   0.917
44756W        W15356  21.047  39.403   4.283
44757W        W15357  30.928  19.130   4.176
44758W        W15358  41.151   0.900  13.611
44759W        W15359  25.756  27.367  11.022
44760W        W15360  12.298  34.619  13.069
44761W        W15361  24.519  34.280  14.955
44762W        W15362  13.163  17.741   4.220
44763W        W15363   2.826  44.049  11.178
44764W        W15364  26.906   2.049   1.794
44765W        W15365  17.320  16.224  14.395
44766W        W15366   5.028  43.967  10.042
44767W        W15367   0.831  30.398  10.224
44768W        W15368   7.614  44.571   0.008
44769W        W15369  34.664   0.330   4.783
44770W        W15370  43.969  19.340   0.774
44771W        W15371   3.906   0.232   0.404
44772W        W15372  19.805  15.663   1.202
44773W        W15373  11.876  19.034  11.831
44774W        W15374  29.647  44.889  13.858
44775W        W15375  15.584  25.168   1.233
44776W        W15376  24.198  35.834  11.138
44777W        W15377  35.623  27.125  10.637
44778W        W15378  15.804  36.137  10.886
44779W        W15379   1.214  10.589  10.356
44780W        W15380  29.032  22.709   3.541
44781W        W15381  26.559  20.000  10.720
44782W        W15382  33.882  34.671   5.003
44783W        W15383  43.397  42.516   4.567
44784W        W15384   9.204   1.686  14.045
44785W        W15385  24.200   9.182  11.579
44786W        W15386  14.709  42.725   2.749
44787W        W15387  18.481  10.526   3.564
44788W        W15388  24.417  29.598  14.861
44789W        W15389  15.164  17.196   4.607
44790W        W15390  12.296   5.740   1.944
44791W        W15391  16.748  40.987   3.454
44792W        W15392  16.315  35.809  11.066
44793W        W15393  22.235  34.912   1.825
44794W        W15394  21.533  21.709  11.704
44795W        W15395  43.805  14.685   1.202
44796W        W15396  38.148  14.536  11.184
44797W        W15397  12.304  37.817  13.408
44798W        W15398   4.905  21.885   4.049
44799W        W15399  20.684  20.806  13.828
44800W        W15400   2.513   1.932  12.530
44801W        W15401  21.760  34.432   0.353
44802W        W15402  11.342  42.303  14.983
44803W        W15403  22.717  29.627   2.749
44804W        W15404  15.572   5.102   4.552
44805W        W15405  15.282   7.487  13.910
44806W        W15406  30.496  26.275  13.387
44807W        W15407  20.570  26.147  12.590
44808W        W15408   6.345   8.284   1.382
44809W        W15409   2.431  24.293  13.859
44810W        W15410  16.152  23.741  10.457
44811W        W15411  11.370  13.514   1.866
44812W        W15412   1.909  29.331  11.588
44813W        W15413   8.936  29.575  14.827
44814W        W15414   4.800   3.280   0.810
44815W        W15415  27.143  22.542   1.674
44816W        W15416  13.555  13.213   4.900
44817W        W15417  39.473  44.561   4.311
44818W        W15418  23.592  21.859  12.047
44819W        W15419   9.368  25.641   3.337
44820W        W15420  44.707  21.642   0.818
44821W        W15421   6.679  15.773  14.787
44822W        W15422  10.747  11.785   3.805
44823W        W15423  12.760  29.943   3.760
44824W        W15424  39.294  13.691   4.592
44825W        W15425   8.083   8.229   2.801
44826W        W15426   6.156  32.123  11.602
44827W        W15427   2.180  21.182  12.548
44828W        W15428   5.664  18.632  12.634
44829W        W15429  23.724  22.478  13.441
44830W        W15430   7.490  41.007   4.454
44831W        W15431  35.588  39.038   4.497
44832W        W15432   7.578   3.959  11.140
44833W        W15433  14.159  42.210  11.470
44834W        W15434  14.475  26.563  11.371
44835W        W15435   7.779  15.078   2.243
44836W        W15436  14.079  12.162  13.875
44837W        W15437   0.836  41.879   1.907
44838W        W15438  21.439  36.738   2.384
44839W        W15439   8.240   2.636   0.844
44840W        W15440  40.738  44.333   4.300
44841W        W15441  16.814  34.920  14.155
44842W        W15442  18.513  20.449   0.320
44843W        W15443  25.583  13.561   4.132
44844W        W15444   2.308  42.034   3.641
44845W        W15445   5.310   4.727  12.041
44846W        W15446  44.863  37.328   0.032
44847W        W15447  21.158  13.365  14.464
44848W        W15448  34.980  40.872   4.302
44849W        W15449   4.976  30.688   0.258
44850W        W15450  26.928  23.545  10.701
44851W        W15451  36.022  14.395  11.089
44852W        W15452  17.795   2.179   2.197
44853W        W15453  10.343  20.935  14.892
44854W        W15454  36.272   6.819   4.774
44855W        W15455  39.060  14.519   2.804
44856W        W15456  18.103  22.107  11.463
44857W        W15457  20.780  26.372  11.321
44858W        W15458  32.135  29.512   4.577
44859W        W15459  34.235   4.625   2.652
44860W        W15460  27.945   7.322   2.852
44861W        W15461   1.380  39.638  13.091
44862W        W15462  43.332   3.656  12.051
44863W        W15463  37.403  29.560  11.004
44864W        W15464  21.218   2.712   0.204
44865W        W15465  25.105  17.091   4.980
44866W        W15466   9.517  15.347  12.149
44867W        W15467   6.788  26.263  10.704
44868W        W15468  26.154  25.561  14.255
44869W        W15469  21.654  40.266  13.428
44870W        W15470  12.549  21.441  12.496
44871W        W15471  31.064   3.856   0.978
44872W        W15472  22.926  42.567  11.980
44873W        W15473  18.169  33.909  14.991
44874W        W15474   3.160  36.226  14.627
44875W        W15475   0.293   3.051   1.624
44876W        W15476  44.312  26.155  12.412
44877W        W15477  16.562  10.319  12.876
44878W        W15478   2.638  43.279   4.252
44879W        W15479  34.107  38.689  12.853
44880W        W15480  21.088  23.640   3.950
44881W        W15481  43.836  29.997  10.754
44882W        W15482   0.862   1.745  11.212
44883W        W15483  26.479  31.099  11.600
44884W        W15484   9.248  39.870  12.513
44885W        W15485  25.501   5.076  13.966
44886W        W15486  30.668   8.695   0.782
44887W        W15487   7.213  23.699  13.005
44888W        W15488  41.904  19.394  13.792
44889W        W15489  31.027   2.034   1.281
44890W        W15490   9.401  30.836   1.821
44891W        W15491  18.763  14.548   0.489
44892W        W15492  39.240   7.392   3.650
44893W        W15493   0.821  44.893  14.873
44894W        W15494  12.864   4.447  12.342
44895W        W15495  21.668   3.193   2.712
44896W        W15496   0.339   7.658   1.388
44897W        W15497   0.793  30.020   3.284
44898W        W15498  13.419  37.428  12.982
44899W        W15499  28.169   7.764   4.054
44900W        W15500  13.547  43.337  11.907
44901W        W15501  26.221  30.567   1.279
44902W        W15502  28.898   1.993  12.022
44903W        W15503  34.169  39.926  12.102
44904W        W15504   6.725   0.287   4.821
44905W        W15505   0.754  41.354  13.071
44906W        W15506  37.152  42.396  11.756
44907W        W15507  17.305  12.735   5.084
44908W        W15508  28.226  27.620   2.112
44909W        W15509  19.403  19.747  14.447
44910W        W15510  34.540  43.403   3.986
44911W        W15511   8.279  11.332   0.681
44912W        W15512  19.926  13.066  11.793
44913W        W15513   0.077  34.552   1.826
44914W        W15514  22.195  11.307  14.486
44915W        W15515  11.447   9.624   3.005
44916W        W15516   2.788  23.097   1.145
44917W        W15517  11.615  40.318   0.707
44918W        W15518  29.615  14.959   1.823
44919W        W15519  31.427   2.339  14.431
44920W        W15520  18.732  44.992   1.881
44921W        W15521  19.994  21.066   4.381
44922W        W15522  20.328  29.617  11.807
44923W        W15523  16.577   9.675   2.297
44924W        W15524  38.336  12.639   4.610
44925W        W15525  30.543   6.111   4.588
44926W        W15526   2.433  27.206  14.638
44927W        W15527  34.965   0.859   0.877
44928W        W15528  36.582   6.824   1.923
44929W        W15529  27.155   7.468   2.078
44930W        W15530  22.660  30.178   3.770
44931W        W15531  10.289   8.928   2.666
44932W        W15532  34.876   4.716  14.257
44933W        W15533   8.918  33.400   4.111
44934W        W15534  44.716  13.096   0.297
44935W        W15535  21.761  18.211  11.010
44936W        W15536  32.487   6.317  11.528
44937W        W15537  35.860  17.669   1.204
44938W        W15538  44.856  39.404  10.377
44939W        W15539   0.237  17.266  12.386
44940W        W15540   5.768  34.107   2.315
44941W        W15541  10.898  15.115   0.311
44942W        W15542  33.125  43.920   3.257
44943W        W15543  14.395  18.014   0.910
44944W        W15544  18.795  26.704   3.585
44945W        W15545   7.945  16.299  12.838
44946W        W15546   6.368  26.967  14.577
44947W        W15547   4.642  44.758  12.234
44948W        W15548   4.843  28.356   2.288
44949W        W15549  40.220  36.480  13.348
44950W        W15550  33.572  11.168   0.626
44951W        W15551  18.909  18.984  10.373
44952W        W15552   9.421  17.569   1.752
44953W        W15553  12.384   2.331  10.275
44954W        W15554  33.624  44.046   2.451
44955W        W15555  33.624  39.399   1.009
44956W        W15556  18.379   8.112  14.384
44957W        W15557  28.242  43.350  14.833
44958W        W15558   4.426  38.959   0.964
44959W        W15559  40.772  27.072   0.303
44960W        W15560  34.731  17.997  13.105
44961W        W15561  11.152   5.416  11.978
44962W        W15562   0.595  26.902   4.769
44963W        W15563  36.920  39.394   4.350
44964W        W15564  22.990   5.804  10.696
44965W        W15565  36.888   3.140   2.326
44966W        W15566  41.172   2.251  12.143
44967W        W15567  34.407   0.940   0.249
44968W        W15568  34.013  41.354  10.528
44969W        W15569  39.885  24.064  12.900
44970W        W15570   4.780  41.892  12.322
44971W        W15571  25.192  30.079  14.739
44972W        W15572  36.932  23.195  10.639
44973W        W15573  16.984  35.159   1.360
44974W        W15574   3.238  14.519   3.450
44975W        W15575  18.114   0.492   2.169
44976W        W15576  33.153  23.849  13.523
44977W        W15577   2.877   0.406   3.849
44978W        W15578  44.070  14.618  11.103
44979W        W15579   5.789  36.318  12.977
44980W        W15580   8.368  28.628   1.732
44981W        W15581  24.418  27.935  13.923
44982W        W15582   9.532   5.118   4.089
44983W        W15583  22.251  12.879   1.944
44984W        W15584  40.940  17.298  14.882
44985W        W15585  13.973  43.888   0.341
44986W        W15586  44.971  21.294   0.505
44987W        W15587  22.043  34.264  12.178
44988W        W15588   2.167  31.951  12.811
44989W        W15589  24.738  43.939   1.944
44990W        W15590  11.648  40.229  11.536
44991W        W15591  23.527  16.630   3.711
44992W        W15592  19.285  26.466   3.600
44993W        W15593   1.373  39.006  13.567
44994W        W15594  15.319   5.654   4.161
44995W        W15595  42.497   5.910  14.943
44996W        W15596  19.021  18.507  14.992
44997W        W15597  28.194   4.103  12.587
44998W        W15598  34.873  14.267  12.221
44999W        W15599  10.137   2.412   0.306
45000W        W15600  12.111  19.804  11.958
45001W        W15601  42.045  30.969   1.136
45002W        W15602  25.760  35.487  13.207
45003W        W15603  15.158   5.504   3.708
45004W        W15604  33.525  22.922  12.411
45005W        W15605  19.291  21.640  13.216
45006W        W15606   4.904   9.850   4.159
45007W        W15607  23.674   2.234   4.638
45008W        W15608  39.897  21.600  13.200
45009W        W15609   8.301  20.587   4.065
45010W        W15610  17.554   9.358  13.050
45011W        W15611  30.980  34.530  14.704
45012W        W15612  29.522   5.733  14.331
45013W        W15613  27.841  40.032  13.872
45014W        W15614   7.615  44.862  12.067
45015W        W15615   2.075  18.268  12.173
45016W        W15616  30.887  14.790   4.078
45017W        W15617  11.206  39.440  11.562
45018W        W15618  25.709  24.103   4.872
45019W        W15619   7.097  43.902   3.747
45020W        W15620  40.932  34.156  11.453
45021W        W15621  33.415  42.686   1.528
45022W        W15622  36.869  12.082   3.260
45023W        W15623  12.580  36.979   2.760
45024W        W15624   7.241  24.230  14.478
45025W        W15625  40.957  35.265   0.211
45026W        W15626  20.529   1.067   1.796
45027W        W15627  30.531  17.583  14.410
45028W        W15628   9.280  11.199  12.109
45029W        W15629  15.394  44.378  13.595
45030W        W15630  24.559  28.896   0.848
45031W        W15631  42.240   3.281  12.076
45032W        W15632   7.376  34.957   0.824
45033W        W15633  19.583   9.125   4.905
45034W        W15634  38.915  34.878  13.294
45035W        W15635  44.770  41.329  13.999
45036W        W15636  16.786   3.647  13.975
45037W        W15637  26.973  37.998   1.108
45038W        W15638  19.699  12.593   4.362
45039W        W15639  36.453  41.772  10.278
45040W        W15640  17.151   2.771  12.486
45041W        W15641  13.216  31.534  14.811
45042W        W15642  40.564  39.795   1.356
45043W        W15643  24.131   5.828  12.505
45044W        W15644  21.775  22.592  14.326
45045W        W15645  29.227  26.507  11.896
45046W        W15646  12.311   0.493   4.087
45047W        W15647  41.355   3.380   5.018
45048W        W15648  18.038  27.154   3.859
45049W        W15649  28.136  33.872   1.940
45050W        W15650  38.423   6.892  12.892
45051W        W15651  24.473  29.480   3.275
45052W        W15652  42.964  19.147  14.483
45053W        W15653  40.508  35.061  14.909
45054W        W15654  26.661  23.796  13.873
45055W        W15655  22.703  13.960   3.251
45056W        W15656  36.797  13.992  14.602
45057W        W15657  38.031   4.630  10.172
45058W        W15658  36.954  36.538  13.083
45059W        W15659  42.630  10.233   2.223
45060W        W15660  23.230  17.193  10.702
45061W        W15661  25.978   3.834   1.484
45062W        W15662  18.275  10.872   0.231
45063W        W15663   7.428   0.203   3.195
45064W        W15664   3.426   1.508  13.516
45065W        W15665  11.644  39.407   3.246
45066W        W15666  37.327  33.546   2.345
45067W        W15667  17.305  38.566   1.558
45068W        W15668  30.660  20.333   0.017
45069W        W15669  23.367   9.904   2.356
45070W        W15670  21.507  25.141   1.241
45071W        W15671  34.048  29.648  13.496
45072W        W15672  37.989  10.863   2.964
45073W        W15673  33.061  19.857  13.742
45074W        W15674   5.263  15.784  13.340
45075W        W15675  11.020  36.388  13.319
45076W        W15676   0.017  25.047   4.212
45077W        W15677   6.496  23.518  11.278
45078W        W15678   4.279  23.443  12.403
45079W        W15679  27.752  17.776   4.533
45080W        W15680  28.782   0.290  14.664
45081W        W15681  24.468  19.017   1.082
45082W        W15682  40.853  38.349   1.269
45083W        W15683   0.911  39.564  11.503
45084W        W15684  20.545  39.373  13.977
45085W        W15685  16.181   5.118  11.575
45086W        W15686  16.868  28.507   0.214
45087W        W15687   7.391  14.680   0.440
45088W        W15688  26.466  16.670   3.759
45089W        W15689  33.462  12.745   2.818
45090W        W15690  38.895  17.590  10.639
45091W        W15691  23.310  15.245   1.218
45092W        W15692   5.962  35.788  14.809
45093W        W15693   4.763  35.451   4.045
45094W        W15694   2.260   9.166   3.614
45095W        W15695   2.401   8.696   2.253
45096W        W15696  32.111  37.222   0.466
45097W        W15697  43.838   6.389  11.873
45098W        W15698  20.843   1.706  12.008
45099W        W15699  14.801  18.305   4.120
45100W        W15700  37.790  31.506   2.615
45101W        W15701  19.507  34.921   3.544
45102W        W15702  21.601  33.364  10.106
45103W        W15703   0.088  25.505  14.289
45104W        W15704  16.249  12.096  13.303
45105W        W15705  32.231   6.329   4.412
45106W        W15706  12.209  18.067  12.587
45107W        W15707  25.483  21.302   4.182
45108W        W15708  35.902  21.965   2.734
45109W        W15709  25.458  34.821   3.236
45110W        W15710  28.590  33.013  12.462
45111W        W15711  43.579  44.384  12.545
45112W        W15712   6.405  42.142  14.929
45113W        W15713  27.057  44.429   0.479
45114W        W15714   1.687   3.279   0.063
45115W        W15715  40.356  24.336   3.600
45116W        W15716   9.825  16.206   3.231
45117W        W15717  16.865   0.944   3.828
45118W        W15718  42.972   0.926  11.386
45119W        W15719   9.417  10.782  13.471
45120W        W15720  31.415  16.338  13.467
45121W        W15721  29.453  34.690   1.895
45122W        W15722  41.908   7.226  14.948
45123W        W15723  19.192  10.140  13.879
45124W        W15724  13.727  27.288  14.438
45125W        W15725  24.091  38.110   4.145
45126W        W15726  19.742   0.983  14.817
45127W        W15727  19.544  33.726  12.618
45128W        W15728  29.739  27.220  12.103
45129W        W15729   7.622  44.990  13.349
45130W        W15730  10.831  43.552   4.923
45131W        W15731  31.075   6.957   3.727
45132W        W15732  36.052  11.832  11.674
45133W        W15733  25.804   9.953  14.994
45134W        W15734  38.297   9.713  10.583
45135W        W15735  28.017  41.541  12.468
45136W        W15736  23.576  11.143   3.195
45137W        W15737  23.784   0.930   3.885
45138W        W15738  21.869  16.348   4.206
45139W        W15739  34.539  12.365   0.947
45140W        W15740  13.635  30.916   4.108
45141W        W15741  21.091  20.495  13.863
45142W        W15742  34.916  25.098   0.412
45143W        W15743  27.010  23.162  13.796
45144W        W15744  33.846  17.680   2.779
45145W        W15745   4.163   2.911   2.899
45146W        W15746  36.465  39.211  11.132
45147W        W15747  18.716   2.362   4.789
45148W        W15748  19.189   7.565   5.513
45149W        W15749  30.052  26.005  13.580
45150W        W15750   6.254  29.875  11.225
45151W        W15751  23.998  12.034  12.175
45152W        W15752   0.475  34.606   4.467
45153W        W15753   8.089  25.519   4.567
45154W        W15754  33.009  24.150  13.127
45155W        W15755   8.928  34.647  12.076
45156W        W15756  14.858   5.723   3.340
45157W        W15757  13.169   0.995   4.616
45158W        W15758   6.428   6.690  12.069
45159W        W15759  15.216  24.517  11.131
45160W        W15760  16.491   3.681   1.226
45161W        W15761   2.753  31.522  14.966
45162W        W15762   4.763  21.054  12.791
45163W        W15763  35.400   6.901  11.761
45164W        W15764  27.938   0.830   3.663
45165W        W15765   0.213  17.749  12.589
45166W        W15766  11.045  42.530   4.735
45167W        W15767   4.786  35.524  12.687
45168W        W15768  30.961   5.591  13.079
45169W        W15769   9.967  43.259  11.149
45170W        W15770  35.301  10.409  10.696
45171W        W15771   8.361  20.637   1.668
45172W        W15772  31.708  21.485  12.941
45173W        W15773  17.782  31.491   3.391
45174W        W15774  10.253   1.054   1.957
45175W        W15775  21.212  19.081   4.694
45176W        W15776  34.452  11.675  14.866
45177W        W15777   3.926  42.443   0.372
45178W        W15778  19.844  42.298   2.728
45179W        W15779  18.578  36.483   0.788
45180W        W15780  20.013  18.044   2.930
45181W        W15781  14.702  32.447  10.741
45182W        W15782   2.351  10.306   1.374
45183W        W15783  43.830  27.727   0.225
45184W        W15784   5.867  38.589   4.354
45185W        W15785  15.548  34.877  12.085
45186W        W15786  37.413   3.923  14.567
45187W        W15787  20.090   0.083   1.504
45188W        W15788  14.665  27.459   4.667
45189W        W15789  33.021   5.148   1.781
45190W        W15790  25.166  18.113  11.143
45191W        W15791  28.453  39.292  10.807
45192W        W15792  16.733  39.844   3.358
45193W        W15793  11.353   8.642   2.846
45194W        W15794  10.626  13.597   1.516
45195W        W15795  31.852  30.084   2.872
45196W        W15796  32.408  14.896  11.072
45197W        W15797  34.307  21.304   2.280
45198W        W15798  16.638   1.960  10.788
45199W        W15799  27.651  28.244   1.534
45200W        W15800   3.759   1.778   4.655
45201W        W15801  26.372   6.522  12.372
45202W        W15802   0.373  36.062   4.307
45203W        W15803  27.681  39.123   1.021
45204W        W15804  25.646  31.432   0.686
45205W        W15805  14.958   4.565   1.854
45206W        W15806  25.141  28.558   2.673
45207W        W15807  17.466  41.052  10.713
45208W        W15808   1.021  18.725   4.789
45209W        W15809  43.655  39.446  11.099
45210W        W15810   3.293  33.921   0.939
45211W        W15811  31.176   2.874   1.373
45212W        W15812   0.823   0.679   1.959
45213W        W15813  16.819  34.145  14.983
45214W        W15814  24.038  36.670  13.035
45215W        W15815  17.025  21.217  12.412
45216W        W15816  10.383   5.398   2.338
45217W        W15817   3.904   9.236  12.981
45218W        W15818  18.044  29.720   0.407
45219W        W15819   6.569   1.331  11.645
45220W        W15820  22.079   6.753   5.017
45221W        W15821  24.876   0.951  12.127
45222W        W15822  12.689  17.819   4.634
45223W        W15823  13.611  12.033   2.377
45224W        W15824  15.046  36.030  13.048
45225W        W15825  28.166   0.335  10.252
45226W        W15826  32.877  34.488   2.765
45227W        W15827  13.056  44.146   3.729
45228W        W15828  25.093   9.991  11.468
45229W        W15829  12.669  40.760  12.856
45230W        W15830   9.646  32.093   4.564
45231W        W15831  37.831  38.093   0.862
45232W        W15832  25.699  33.099  10.892
45233W        W15833  12.799  35.477   1.269
45234W        W15834   6.369  21.113   2.165
45235W        W15835   9.863   4.343  14.454
45236W        W15836  15.597  15.233   4.963
45237W        W15837  24.375  17.632  10.293
45238W        W15838   3.806   3.258  14.299
45239W        W15839  16.361  35.054  11.575
45240W        W15840   1.882  34.299   1.004
45241W        W15841  43.553  17.135  14.097
45242W        W15842   0.997  40.724  13.984
45243W        W15843  16.056  44.409  14.957
45244W        W15844  40.842  11.341   4.308
45245W        W15845  10.221  41.029  11.701
45246W        W15846   0.006  34.032   1.958
45247W        W15847  12.902  38.283   3.192
45248W        W15848  31.034  21.097   4.486
45249W        W15849   5.449  30.028   1.844
45250W        W15850  31.634  42.781   4.952
45251W        W15851   4.286  17.785   3.642
45252W        W15852   5.879  38.083   4.338
45253W        W15853  25.133  13.631   2.868
45254W        W15854  10.305  42.961   1.759
45255W        W15855  35.471  43.390  12.458
45256W        W15856  29.249  18.211  12.169
45257W        W15857  19.485  11.770  13.056
45258W        W15858  14.677   5.548   2.878
45259W        W15859  13.317   9.685   2.705
45260W        W15860  26.752  34.927   3.170
45261W        W15861  11.736   9.692  11.170
45262W        W15862  14.041  23.206   4.066
45263W        W15863  13.227  12.051   1.233
45264W        W15864  41.047  34.081   1.167
45265W        W15865  18.668  16.513   0.411
45266W        W15866   3.148  36.876  12.471
45267W        W15867  33.275   5.477  13.711
45268W        W15868  15.157  32.051   1.848
45269W        W15869  17.576  22.734   0.991
45270W        W15870  43.855  44.045   3.171
45271W        W15871  43.380  28.113   4.275
45272W        W15872   1.292  35.134   2.251
45273W        W15873  43.551  12.678  14.367
45274W        W15874  22.621  33.852  11.448
45275W        W15875  15.366  22.105  14.823
45276W        W15876  39.834  12.280  11.159
45277W        W15877  13.749   2.429  10.756
45278W        W15878   0.766   9.088  11.985
45279W        W15879  25.100  10.358   3.391
45280W        W15880  40.696  18.718   2.461
45281W        W15881  11.283  40.417  11.208
45282W        W15882  42.362   6.466   1.925
45283W        W15883  25.528  17.677  12.497
45284W        W15884  38.291  22.039  12.510
45285W        W15885   9.158  32.877  13.366
45286W        W15886  19.302  36.962   0.382
45287W        W15887   6.660  34.589  10.586
45288W        W15888  44.529  20.263   4.589
45289W        W15889  15.510  41.162   1.684
45290W        W15890   3.979  38.198   2.191
45291W        W15891  23.585  33.330  13.724
45292W        W15892  38.360  20.044  11.921
45293W        W15893  34.698  35.095  14.901
45294W        W15894  21.664   3.374   0.242
45295W        W15895   8.722  41.250   2.919
45296W        W15896  21.801  24.032  11.122
45297W        W15897  16.181  15.737   3.681
45298W        W15898  21.983  26.601  14.949
45299W        W15899  26.775  21.242  11.981
45300W        W15900  30.845  32.301   0.238
45301W        W15901   2.734  31.316  13.360
45302W        W15902  22.080  12.742  12.822
45303W        W15903  40.530  34.821  12.843
45304W        W15904  15.196  42.907   1.882
45305W        W15905  43.735   8.783  14.064
45306W        W15906  16.347  29.094  13.513
45307W        W15907  38.748  23.578   0.604
45308W        W15908  27.711  28.757   1.467
45309W        W15909  18.771  16.769   1.847
45310W        W15910  29.990  11.776   4.265
45311W        W15911  17.161  25.569   3.172
45312W        W15912  26.627   9.944   1.217
45313W        W15913   8.548  29.086  12.648
45314W        W15914  22.731   0.506   2.718
45315W        W15915  39.169  15.693   4.476
45316W        W15916  43.858  17.344   0.907
45317W        W15917  14.376  34.618   0.177
45318W        W15918   3.362   1.467   0.255
45319W        W15919  30.406  29.567   2.248
45320W        W15920   0.486  13.665   3.243
45321W        W15921   4.829  16.771  14.323
45322W        W15922   8.385  16.207   2.134
45323W        W15923  37.858  19.476  11.108
45324W        W15924   9.007  24.196  11.616
45325W        W15925   3.879  21.970   2.737
45326W        W15926   5.947  41.261   5.187
45327W        W15927  12.364  29.411   4.780
45328W        W15928   8.447   1.390  13.029
45329W        W15929   7.776  22.334  11.484
45330W        W15930   5.226  44.049   1.308
45331W        W15931   7.325  33.802   2.343
45332W        W15932  35.495  26.211  11.493
45333W        W15933  35.660  30.893   4.118
45334W        W15934  25.966  43.470   0.988
45335W        W15935  42.842  18.111  14.962
45336W        W15936   9.787   1.080   1.180
45337W        W15937   6.480  33.173  11.575
45338W        W15938  24.607  34.318   1.850
45339W        W15939  27.625  13.331   2.479
45340W        W15940  22.268  24.873   4.644
45341W        W15941  33.500  38.540  12.409
45342W        W15942  12.906   8.757   3.531
45343W        W15943  20.642  21.493  11.240
45344W        W15944  35.952  13.082  13.953
45345W        W15945  14.677  21.535   1.244
45346W        W15946  11.277  35.713   0.108
45347W        W15947  21.032  21.416   1.864
45348W        W15948   5.007  32.981   1.732
45349W        W15949  13.732   7.845  13.057
45350W        W15950   7.240  25.452   0.200
45351W        W15951  37.349  15.870   1.289
45352W        W15952  13.319   8.962   0.311
45353W        W15953   2.000  30.394   4.571
45354W        W15954  30.323  16.399   3.115
45355W        W15955  28.186  25.383  10.156
45356W        W15956   9.672  27.790   4.013
45357W        W15957  25.490   3.307  13.209
45358W        W15958  44.127  43.023   4.543
45359W        W15959  42.542  41.903  14.809
45360W        W15960   4.714  26.736   4.163
45361W        W15961  39.113  26.657   4.108
45362W        W15962  38.289  21.738   2.754
45363W        W15963   3.532  43.293   1.567
45364W        W15964  44.543  29.627  12.498
45365W        W15965  10.351  38.330   3.902
45366W        W15966  41.383   6.408   4.514
45367W        W15967  18.590  12.771  12.979
45368W        W15968  43.845   2.301   0.906
45369W        W15969  17.373  28.509   0.158
45370W        W15970  14.508  40.892  10.038
45371W        W15971  20.989  34.023   0.255
45372W        W15972   2.509  41.727   5.025
45373W        W15973   0.479  35.428  11.514
45374W        W15974  28.389   2.339   2.662
45375W        W15975   9.860   6.777  14.023
45376W        W15976  11.569   5.448   3.289
45377W        W15977   8.344  18.226   0.261
45378W        W15978  22.946   2.662   2.838
45379W        W15979  34.570  10.876   2.823
45380W        W15980  25.741  32.970  11.381
45381W        W15981  19.620  16.492   1.621
45382W        W15982  16.758  30.532   4.620
45383W        W15983  26.873  32.484  13.068
45384W        W15984  15.687  39.815   1.011
45385W        W15985  16.196  27.705   3.348
45386W        W15986  23.098   7.737   3.175
45387W        W15987  14.185  18.094  14.313
45388W        W15988   2.782  38.551   2.972
45389W        W15989  24.017  21.137   1.834
45390W        W15990   4.924   0.829   3.218
45391W        W15991  26.410  17.023  11.270
45392W        W15992  18.353  18.290  10.636
45393W        W15993   4.722  19.633   3.213
45394W        W15994   9.898  10.304  13.892
45395W        W15995   3.409  17.647  14.021
45396W        W15996  15.380   3.588  10.238
45397W        W15997  36.244   0.275   0.795
45398W        W15998  29.546  22.147   3.760
45399W        W15999  44.340  18.229  10.126
45400W        W16000   0.982  19.914   2.383
45401W        W16001   2.305   9.401   3.135
45402W        W16002  14.581  44.888  13.466
45403W        W16003  18.604  14.390  14.659
45404W        W16004  38.880   2.295   4.273
45405W        W16005   0.767  25.219   3.810
45406W        W16006  44.431  27.595   0.029
45407W        W16007  18.767  44.166  14.763
45408W        W16008   6.873  24.504  12.981
45409W        W16009   9.365  17.414   0.131
45410W        W16010   3.949  12.660   2.192
45411W        W16011   0.381  20.741   4.628
45412W        W16012  40.017  19.596   0.738
45413W        W16013  35.550  40.903  12.771
45414W        W16014  25.086  18.665  11.932
45415W        W16015   4.132  30.013  12.365
45416W        W16016   9.209  14.305  12.955
45417W        W16017   6.844   1.882   1.421
45418W        W16018  27.946  14.387   0.447
45419W        W16019  33.428  16.712  10.641
45420W        W16020  13.990  44.060   1.917
45421W        W16021  31.080   2.428  13.089
45422W        W16022  24.831  28.119  11.589
45423W        W16023  24.933  39.039  12.333
45424W        W16024  40.847  20.105  11.652
45425W        W16025  43.985  30.529  14.105
45426W        W16026  32.428  27.361   3.336
45427W        W16027  29.952  28.190   1.268
45428W        W16028  14.685  44.785   0.798
45429W        W16029  43.441   1.929   1.320
45430W        W16030   2.448   4.718   3.736
45431W        W16031   9.315  17.189   3.990
45432W        W16032  25.052  16.502  11.576
45433W        W16033  38.540   8.020  12.469
45434W        W16034   2.353   3.640   2.231
45435W        W16035  39.899  25.920  10.665
45436W        W16036  13.793  21.449   4.965
45437W        W16037   6.341  36.127  14.742
45438W        W16038  24.536  32.452   0.003
45439W        W16039   5.917  21.525   1.395
45440W        W16040  14.359  11.956  14.275
45441W        W16041  34.461  28.804   2.760
45442W        W16042  35.843   9.372   3.399
45443W        W16043  37.885   1.679   4.269
45444W        W16044  33.967  21.481  12.285
45445W        W16045   9.026  35.327  11.193
45446W        W16046  23.093  39.569   3.721
45447W        W16047  19.710  44.706   5.044
45448W        W16048   8.766  13.736   3.905
45449W        W16049   8.400   9.096   4.044
45450W        W16050  18.972  40.880  13.000
45451W        W16051  31.565  14.946  11.518
45452W        W16052  12.649  33.899   3.976
45453W        W16053   4.765  24.506   3.257
45454W        W16054  37.932  28.763   3.652
45455W        W16055  24.425  26.658   2.764
45456W        W16056   1.445  28.436  12.172
45457W        W16057  41.307  28.202  10.527
45458W        W16058   4.336  35.731   3.152
45459W        W16059   5.364   7.226   2.696
45460W        W16060  11.380   0.993   5.111
45461W        W16061  40.170  19.738  13.985
45462W        W16062  11.787  32.615   1.926
45463W        W16063  29.410  41.814  11.647
45464W        W16064   9.399  36.153   0.216
45465W        W16065  15.307  31.119   3.766
45466W        W16066  12.826  18.118   1.858
45467W        W16067  28.529  18.581  12.951
45468W        W16068   7.181  20.037  13.913
45469W        W16069   2.294   3.247  11.090
45470W        W16070  35.597   4.473  11.620
45471W        W16071  19.865  18.558   1.827
45472W        W16072  16.593   5.702   4.498
45473W        W16073  21.222  20.799  12.946
45474W        W16074   9.192  18.385  11.022
45475W        W16075  33.597   3.757   1.945
45476W        W16076  16.157  21.269  10.973
45477W        W16077   7.676   8.311  12.562
45478W        W16078  41.447  19.120   1.134
45479W        W16079  41.971  30.943  10.616
45480W        W16080   2.969   9.664  14.887
45481W        W16081  11.041   8.432   1.840
45482W        W16082  19.971  14.761  12.744
45483W        W16083  37.100  25.487   1.438
45484W        W16084  33.921   1.301  10.948
45485W        W16085   2.239  36.409   0.907
45486W        W16086  15.693  21.036  10.965
45487W        W16087   1.904  39.766  13.069
45488W        W16088  44.287  32.406  14.865
45489W        W16089  16.872  35.954   4.117
45490W        W16090  44.970  31.967   4.691
45491W        W16091  26.437   0.204  14.092
45492W        W16092   5.274   8.275   4.586
45493W        W16093  31.643  35.685   3.452
45494W        W16094  10.193   5.632   4.168
45495W        W16095  42.403  18.567  13.314
45496W        W16096   9.420  24.754   1.253
45497W        W16097  20.619  16.619   1.359
45498W        W16098  21.626   8.737   2.983
45499W        W16099   4.741   0.880   2.244
45500W        W16100  12.313  16.667   4.615
45501W        W16101  33.575  24.726  12.772
45502W        W16102  21.195  15.885   4.421
45503W        W16103  27.641  14.247  14.234
45504W        W16104  33.491  18.084  14.338
45505W        W16105  13.900  35.867   2.159
45506W        W16106   2.412   0.847  11.985
45507W        W16107  26.730  31.592   3.538
45508W        W16108  33.407   9.093   2.436
45509W        W16109   0.583  25.447  12.501
45510W        W16110   4.743  29.707   1.459
45511W        W16111  27.975  21.011  14.872
45512W        W16112  14.300  39.402  12.108
45513W        W16113  39.895  37.694  14.012
45514W        W16114  44.581  38.303   1.508
45515W        W16115  26.702  31.850  10.234
45516W        W16116  19.937  33.405  12.702
45517W        W16117  33.174  23.066   3.252
45518W        W16118  25.455  36.456  13.003
45519W        W16119  30.326  41.325   1.179
45520W        W16120  37.237  40.217  10.933
45521W        W16121   9.806  23.733  10.822
45522W        W16122  15.606  29.121   3.285
45523W        W16123   6.273   3.005  11.318
45524W        W16124  24.982   6.548  12.177
45525W        W16125  31.530   2.722  11.522
45526W        W16126  27.717  41.834  10.518
45527W        W16127  17.711   7.130  14.175
45528W        W16128  18.823   7.901   4.775
45529W        W16129  13.087  31.937   3.100
45530W        W16130   5.257  22.015  10.727
45531W        W16131  29.370  17.660   3.104
45532W        W16132  23.183   1.788   0.845
45533W        W16133  15.312   3.771   2.328
45534W        W16134  15.913  23.932   0.208
45535W        W16135  36.896   5.527  13.578
45536W        W16136  23.193  40.701  10.543
45537W        W16137   8.781  15.061  14.926
45538W        W16138  18.159   9.462  11.526
45539W        W16139  27.935  20.595   0.819
45540W        W16140  37.327  19.804  14.003
45541W        W16141  25.623  43.459   0.023
45542W        W16142   9.927  31.898  12.886
45543W        W16143  21.604  25.131   0.208
45544W        W16144  39.573  15.194   3.088
45545W        W16145  21.570  18.933  13.908
45546W        W16146  24.741  25.884  14.005
45547W        W16147  24.069   6.110   2.376
45548W        W16148  36.460  35.922   3.249
45549W        W16149  29.299  23.023  13.063
45550W        W16150  10.583   1.041   3.309
45551W        W16151  34.527  15.687   1.017
45552W        W16152  43.238  27.207  13.902
45553W        W16153  18.048  11.999   4.034
45554W        W16154  32.104   4.183   4.563
45555W        W16155  10.009  36.956   0.714
45556W        W16156  35.999  11.060  10.406
45557W        W16157   5.785  13.931  14.531
45558W        W16158  11.814  12.600  12.900
45559W        W16159  14.303  10.118  13.009
45560W        W16160  44.885  11.920  14.967
45561W        W16161  41.151  39.697  14.666
45562W        W16162  14.122   8.115  12.578
45563W        W16163  20.129   5.692   4.231
45564W        W16164  16.062  25.973   0.015
45565W        W16165  25.203  34.179  13.818
45566W        W16166  30.461   2.276   4.116
45567W        W16167   3.206  32.255   1.032
45568W        W16168  11.612  16.413  10.783
45569W        W16169   1.022  25.730  14.720
45570W        W16170  36.865   7.458  11.158
45571W        W16171  34.487  38.459  12.370
45572W        W16172   8.859   7.420   2.335
45573W        W16173   8.428  13.855  11.121
45574W        W16174  35.581   1.469  13.780
45575W        W16175  42.989  32.935  11.215
45576W        W16176  27.707  19.359  10.721
45577W        W16177   5.482  44.286  10.184
45578W        W16178  42.430   3.663  13.412
45579W        W16179  20.145  39.996   2.412
45580W        W16180  24.516  34.567  13.632
45581W        W16181  10.291  22.787   4.326
45582W        W16182   5.429   0.370  11.138
45583W        W16183   1.818  28.609   1.512
45584W        W16184  27.058  17.216   1.705
45585W        W16185  17.297   5.431  13.942
45586W        W16186  44.078  44.993   1.283
45587W        W16187   5.921  13.658  12.526
45588W        W16188  21.308  26.226   0.888
45589W        W16189  33.790  33.203   1.247
45590W        W16190  27.967  28.415  11.643
45591W        W16191  25.072  40.178  11.234
45592W        W16192   6.863   5.343  11.725
45593W        W16193  21.922   0.987   2.292
45594W        W16194  10.589   3.289  14.867
45595W        W16195   4.300  15.595  11.064
45596W        W16196  20.055  11.648  13.158
45597W        W16197  18.237  24.042  13.501
45598W        W16198   0.984  10.315   0.706
45599W        W16199  33.571  26.709  12.478
45600W        W16200   0.607  27.151   2.734
45601W        W16201  40.106  13.868  11.460
45602W        W16202  41.972  15.845  14.622
45603W        W16203  28.727  12.203  10.643
45604W        W16204   3.782   7.722   0.837
45605W        W16205  36.841   7.333   3.557
45606W        W16206  21.369   5.898   0.487
45607W        W16207  39.854  43.357  13.299
45608W        W16208  32.840   3.825   3.707
45609W        W16209  15.845  23.804   1.912
45610W        W16210  37.432  15.407   2.279
45611W        W16211  21.703  14.216  14.579
45612W        W16212  33.215  15.515   1.261
45613W        W16213  42.093  41.940  10.902
45614W        W16214  41.922  28.619   3.752
45615W        W16215   2.802  23.579  10.754
45616W        W16216  15.399  17.786   4.471
45617W        W16217  28.387  39.834  12.902
45618W        W16218   8.897  36.267  14.323
45619W        W16219  14.694   9.676   1.477
45620W        W16220  15.258  18.120  13.329
45621W        W16221   4.246  43.559  12.996
45622W        W16222  12.271   4.133  11.565
45623W        W16223   1.246   4.029   3.122
45624W        W16224  41.412  17.548  11.155
45625W        W16225  25.084  15.494   0.034
45626W        W16226  23.633  38.003   0.986
45627W        W16227   0.987  23.439  14.164
45628W        W16228  30.765   8.193   0.987
45629W        W16229  24.679  34.390   2.360
45630W        W16230   5.884  21.181  10.748
45631W        W16231  25.473  42.302  13.073
45632W        W16232  43.319  13.498   4.519
45633W        W16233  24.967   1.775   3.121
45634W        W16234  27.443  12.345   4.772
45635W        W16235  17.623  28.154   2.259
45636W        W16236  18.480   7.432   0.149
45637W        W16237   8.617  41.836  12.071
45638W        W16238  44.284  12.840   0.909
45639W        W16239  30.547  15.800  12.479
45640W        W16240  43.635   9.719  13.546
45641W        W16241  19.066  17.851  14.235
45642W        W16242  42.975  19.989  14.972
45643W        W16243  14.295  11.853  11.577
45644W        W16244  34.888   9.804  14.019
45645W        W16245  28.553  14.185   4.041
45646W        W16246  34.965  27.295  14.312
45647W        W16247  43.497  35.526  13.489
45648W        W16248  31.399  36.101  14.236
45649W        W16249  16.600  26.597   3.738
45650W        W16250  25.104  30.012  13.761
45651W        W16251  11.848  15.639  10.327
45652W        W16252  37.556  34.094   0.779
45653W        W16253  12.004   8.181   1.549
45654W        W16254  23.156  15.087  14.244
45655W        W16255  37.294   2.960  10.538
45656W        W16256  11.870  21.546  14.839
45657W        W16257  34.429  41.402   2.402
45658W        W16258  17.797  24.018  10.245
45659W        W16259  33.411   1.024   2.884
45660W        W16260  37.842  27.725   3.758
45661W        W16261   1.750  11.229  14.984
45662W        W16262  32.892  43.786  12.171
45663W        W16263  37.538  16.336   4.945
45664W        W16264   5.916  41.016   4.744
45665W        W16265   9.343  14.184   3.179
45666W        W16266  37.576  22.072  11.765
45667W        W16267   3.960  37.207   0.305
45668W        W16268  16.337  27.241  13.523
45669W        W16269  28.630   5.881   3.149
45670W        W16270  43.711  42.736  11.144
45671W        W16271  42.671   1.748  12.454
45672W        W16272   7.468  38.395   4.801
45673W        W16273  42.816  36.284   1.459
45674W        W16274  36.496  39.629   1.692
45675W        W16275  32.519   9.140  13.486
45676W        W16276  19.365   7.775   1.266
45677W        W16277  19.538   9.779  14.405
45678W        W16278  30.266   5.164  12.234
45679W        W16279   8.856  29.812   4.157
45680W        W16280  14.943  30.159   3.803
45681W        W16281  17.210  17.382  13.425
45682W        W16282  39.043   2.450  12.982
45683W        W16283  30.032  22.225   3.926
45684W        W16284  12.691  33.735  12.926
45685W        W16285  30.553   4.718  10.422
45686W        W16286   1.381   2.532  14.537
45687W        W16287  19.803   8.028  11.090
45688W        W16288  41.494  10.652  14.297
45689W        W16289  32.149   6.034  10.754
45690W        W16290  39.886  11.797   0.005
45691W        W16291  42.873  17.866   4.559
45692W        W16292  20.566  22.223  11.526
45693W        W16293  34.874   6.921   2.741
45694W        W16294   0.374   7.223   4.237
45695W        W16295  20.072  29.148  11.672
45696W        W16296  41.349   6.761   2.314
45697W        W16297  18.045  24.060   4.711
45698W        W16298  30.840   3.349  12.933
45699W        W16299  20.602  41.265   3.228
45700W        W16300   5.953   2.143  12.923
45701W        W16301  10.390  13.202   4.033
45702W        W16302  22.755  26.267   1.669
45703W        W16303  26.710   2.952  10.644
45704W        W16304  25.497  36.060   9.621
45705W        W16305  40.113   7.296  12.064
45706W        W16306  30.824  10.012   2.775
45707W        W16307  39.538  33.353   4.057
45708W        W16308  28.554   9.145   3.699
45709W        W16309  44.554   5.238  11.213
45710W        W16310  36.547  27.766  12.822
45711W        W16311  13.784  41.064   0.216
45712W        W16312  11.669   3.108  11.038
45713W        W16313  44.474   5.722   1.395
45714W        W16314  31.335  36.324  13.352
45715W        W16315  21.551   8.282  13.816
45716W        W16316   3.710   7.625  14.674
45717W        W16317  14.266  14.968  13.136
45718W        W16318  26.933  27.883  12.469
45719W        W16319  25.857  26.466   0.778
45720W        W16320  23.002   7.743  12.960
45721W        W16321   6.000  43.331  14.633
45722W        W16322  36.482  34.064   4.689
45723W        W16323  30.359   0.234   3.432
45724W        W16324  27.958  44.547  12.979
45725W        W16325  41.992  22.750   5.278
45726W        W16326  34.363   8.950  11.680
45727W        W16327  23.243  39.918  14.804
45728W        W16328  12.411  29.197   1.790
45729W        W16329  35.103   4.455  12.863
45730W        W16330  40.730  32.533   4.079
45731W        W16331  34.573   7.061   2.350
45732W        W16332  22.277  43.021  13.829
45733W        W16333  37.053   2.442   4.795
45734W        W16334  20.431  21.025  11.233
45735W        W16335  33.052  20.179  10.705
45736W        W16336  26.150   2.924   1.169
45737W        W16337  10.938  28.051  14.472
45738W        W16338  16.249  25.197  11.796
45739W        W16339   3.166  30.596  12.054
45740W        W16340  31.645  39.002   2.701
45741W        W16341   3.609   7.172  14.897
45742W        W16342  18.283  21.273  12.035
45743W        W16343  10.297  42.304  13.047
45744W        W16344  24.297  43.895   3.769
45745W        W16345  36.158  13.570  12.415
45746W        W16346  40.639  33.546   2.551
45747W        W16347  42.794  13.870  11.932
45748W        W16348  28.600  29.155   4.680
45749W        W16349  36.243  18.655  10.287
45750W        W16350  32.353  24.077   2.186
45751W        W16351  33.374  11.345  10.551
45752W        W16352  20.213  10.855  13.825
45753W        W16353  23.519  39.528   0.011
45754W        W16354  18.560  24.387  10.734
45755W        W16355  31.343   9.293  12.618
45756W        W16356  30.414  39.559   0.929
45757W        W16357  22.699  13.672  12.061
45758W        W16358  15.195  21.049  11.671
45759W        W16359   1.756  32.000   3.210
45760W        W16360   0.579  11.653  13.943
45761W        W16361  20.574  13.323  12.602
45762W        W16362  42.803  21.942  13.514
45763W        W16363  27.518  36.651  13.773
45764W        W16364  16.220  24.281   1.386
45765W        W16365   9.810   7.696   0.394
45766W        W16366  11.202  20.673  13.544
45767W        W16367  15.711  13.056  11.578
45768W        W16368  35.162  31.878  10.275
45769W        W16369  19.261  18.252  12.007
45770W        W16370  15.242  28.107   2.449
45771W        W16371   8.232   3.649   2.697
45772W        W16372  35.936  12.842  11.646
45773W        W16373  25.680   2.972   1.814
45774W        W16374  38.537   0.523  13.294
45775W        W16375  13.074  41.508   4.652
45776W        W16376  10.088  22.644  12.290
45777W        W16377  32.542   2.493  14.421
45778W        W16378   8.463  44.890   3.614
45779W        W16379   6.715  14.321   0.023
45780W        W16380  10.745  33.042   0.377
45781W        W16381  25.170   2.788  11.834
45782W        W16382  26.167   9.474   2.855
45783W        W16383   4.232  43.392   0.414
45784W        W16384  36.290  16.242  10.763
45785W        W16385  41.816   2.838   2.365
45786W        W16386  41.236  10.156   2.581
45787W        W16387  27.038  27.034  11.417
45788W        W16388  20.602  36.761  11.352
45789W        W16389  10.045  22.044   0.251
45790W        W16390  10.454  13.419   4.507
45791W        W16391  34.107  34.331   1.364
45792W        W16392  22.755   3.150  10.155
45793W        W16393  41.512  24.231   1.457
45794W        W16394  11.194  31.879   2.237
45795W        W16395  15.791  37.066  13.866
45796W        W16396   0.449  21.347  13.783
45797W        W16397   8.714   2.397   4.226
45798W        W16398  20.718  25.467   2.136
45799W        W16399  34.710  13.491   0.906
45800W        W16400  42.982  11.478   2.686
45801W        W16401  36.897  28.339  13.928
45802W        W16402   9.175  14.241   4.030
45803W        W16403  27.992  26.753  12.412
45804W        W16404  30.895  25.597  14.785
45805W        W16405  28.957  29.596  10.925
45806W        W16406  30.672  11.910   1.436
45807W        W16407  20.333  40.195   0.927
45808W        W16408  11.247  11.332   3.361
45809W        W16409  11.444  33.709  12.508
45810W        W16410  43.522   8.206  14.935
45811W        W16411  32.677  14.416   4.536
45812W        W16412  12.587  24.033   4.111
45813W        W16413  38.552  14.235   3.768
45814W        W16414   6.709  34.440   2.685
45815W        W16415  28.353  16.140   4.847
45816W        W16416  44.309  14.106   3.628
45817W        W16417  18.071  33.878  13.400
45818W        W16418  23.902  15.641  11.085
45819W        W16419   4.180  41.278   4.904
45820W        W16420  29.467   8.925  13.989
45821W        W16421  39.523  31.841   2.727
45822W        W16422  24.291  43.893   1.665
45823W        W16423  36.594  24.772   2.904
45824W        W16424   8.212  14.265   4.943
45825W        W16425   4.987  32.035  13.427
45826W        W16426  19.026  38.487   3.272
45827W        W16427   6.065  25.711   4.459
45828W        W16428  39.483  12.287   0.815
45829W        W16429  30.722  24.342  14.588
45830W        W16430  42.524  15.295  11.041
45831W        W16431  30.821  16.730  14.869
45832W        W16432   7.904  11.872   0.136
45833W        W16433  29.157  22.151   0.878
45834W        W16434  16.760  39.818  12.051
45835W        W16435  44.555  11.929   1.252
45836W        W16436  34.711  14.520  13.031
45837W        W16437   5.359   2.350  14.016
45838W        W16438  28.453   3.643  11.046
45839W        W16439  39.195  44.946  11.175
45840W        W16440  37.512   2.425   2.211
45841W        W16441  35.074  39.124   4.573
45842W        W16442  10.285  40.827  10.675
45843W        W16443   9.279   4.190  13.967
45844W        W16444  33.979   6.641  10.770
45845W        W16445  43.442   5.242  14.230
45846W        W16446  35.891   4.763  13.924
45847W        W16447   2.356  34.731  14.345
45848W        W16448  15.366  26.222  11.236
45849W        W16449  17.648  32.455   3.733
45850W        W16450   1.817  24.007  11.694
45851W        W16451  28.839  26.404   4.971
45852W        W16452  43.619  29.189  13.376
45853W        W16453  14.254  39.762   4.093
45854W        W16454  13.867  42.049  11.063
45855W        W16455  35.489  15.522   3.824
45856W        W16456  33.679  35.946   4.871
45857W        W16457   8.180  37.848   0.728
45858W        W16458  15.626  38.417   3.225
45859W        W16459  25.104   0.478  12.068
45860W        W16460  37.637  32.142   5.066
45861W        W16461  30.637  15.276  12.513
45862W        W16462   5.203  38.480   0.985
45863W        W16463  27.957  44.808  14.769
45864W        W16464  20.572  36.875   1.890
45865W        W16465  38.735  14.344   2.443
45866W        W16466  32.155  24.693  11.132
45867W        W16467  25.191  18.252  14.793
45868W        W16468  16.687  15.604   1.439
45869W        W16469   5.581  35.075  12.605
45870W        W16470  15.340  31.047   4.880
45871W        W16471  12.847   6.254  11.593
45872W        W16472   8.293  16.481   0.257
45873W        W16473  19.803  42.205  13.546
45874W        W16474  14.816  25.593  12.095
45875W        W16475  40.613  30.420   3.570
45876W        W16476  33.903  30.765   3.326
45877W        W16477  29.510   1.380   4.344
45878W        W16478  10.791  23.342  13.017
45879W        W16479  30.833  14.973  11.739
45880W        W16480  11.441  21.718  12.117
45881W        W16481  25.805  28.600  11.844
45882W        W16482   5.896   7.336  13.539
45883W        W16483   3.677  19.064   4.212
45884W        W16484   2.878  23.976   2.292
45885W        W16485  23.217  28.991  11.037
45886W        W16486  35.110  15.709  14.687
45887W        W16487  16.609  24.460   1.756
45888W        W16488   0.316  12.940   1.295
45889W        W16489  28.862   5.188   3.847
45890W        W16490  30.582  23.825   3.731
45891W        W16491  19.337  41.924  13.353
45892W        W16492  34.458  28.587  11.479
45893W        W16493  42.610   7.613   0.046
45894W        W16494  22.710  19.214   1.402
45895W        W16495   4.335  19.818   4.595
45896W        W16496  36.615  13.768   1.874
45897W        W16497  28.869  29.132   3.492
45898W        W16498  17.238  32.118  12.045
45899W        W16499  11.581   4.634   0.847
45900W        W16500  32.649  12.341  13.610
45901W        W16501  26.652   4.666   4.094
45902W        W16502   2.940  19.964  14.854
45903W        W16503   2.775  20.095  12.342
45904W        W16504  13.561  41.027  13.391
45905W        W16505  26.422   5.253  11.135
45906W        W16506  18.755  40.842  12.514
45907W        W16507  40.542  36.040  10.543
45908W        W16508  23.018  24.108   2.705
45909W        W16509  24.594  24.232   0.373
45910W        W16510  20.141  33.056   4.672
45911W        W16511  33.843  17.612  11.386
45912W        W16512  16.121   3.452  14.452
45913W        W16513  32.460  31.201   2.342
45914W        W16514  12.007   1.435  13.375
45915W        W16515  23.127  27.068   4.462
45916W        W16516  38.484  37.075  11.608
45917W        W16517  37.920   1.741  13.274
45918W        W16518  31.371  30.601  13.866
45919W        W16519  41.004  37.362   4.259
45920W        W16520   3.513  22.773   0.913
45921W        W16521  30.409  14.726   1.366
45922W        W16522  26.964  19.201  11.081
45923W        W16523  10.150   0.928  11.125
45924W        W16524  13.099  14.729   1.898
45925W        W16525  33.069   7.434  13.029
45926W        W16526  29.406  35.551   0.861
45927W        W16527  14.075  21.735   3.490
45928W        W16528  13.977  21.011   1.921
45929W        W16529  18.095  34.102   2.006
45930W        W16530  31.081  40.825   1.184
45931W        W16531  31.163  42.571   0.913
45932W        W16532   5.850   1.548   4.163
45933W        W16533  18.976  36.448  12.006
45934W        W16534  33.494  33.022  13.790
45935W        W16535  41.487   5.303   4.480
45936W        W16536  17.342  39.273  12.175
45937W        W16537  16.573  38.788   3.334
45938W        W16538   1.727  32.007   2.198
45939W        W16539   6.212  10.343  14.030
45940W        W16540  22.295  20.704  11.093
45941W        W16541  16.841  30.622  10.511
45942W        W16542  24.520  19.586   4.709
45943W        W16543   1.714  12.604  12.457
45944W        W16544  27.778  39.321  12.440
45945W        W16545  34.572  16.767   1.958
45946W        W16546   7.995   7.763   2.993
45947W        W16547  20.684  41.612  12.042
45948W        W16548  35.059  23.331  12.330
45949W        W16549  22.053  11.786   3.581
45950W        W16550  25.062  34.423  12.124
45951W        W16551  26.281  42.492   4.829
45952W        W16552  15.888  23.626   4.333
45953W        W16553  44.370  29.271  12.155
45954W        W16554  11.860  30.616  14.129
45955W        W16555  38.057  16.814  12.798
45956W        W16556  26.629  18.421   4.967
45957W        W16557  32.394  11.219   3.444
45958W        W16558  24.395  34.100   2.690
45959W        W16559   5.391  16.028  10.643
45960W        W16560  25.029   5.268   1.659
45961W        W16561  41.776  34.933   9.790
45962W        W16562  12.935  29.731  11.602
45963W        W16563  34.430  33.920   3.196
45964W        W16564  42.111  16.593   0.085
45965W        W16565  17.660  11.595   2.263
45966W        W16566  36.746   6.947  14.505
45967W        W16567  21.571   6.162   3.982
45968W        W16568  30.881  44.016  11.951
45969W        W16569  44.800  13.821  14.787
45970W        W16570   7.231  22.500   4.553
45971W        W16571   7.101  37.926  10.824
45972W        W16572   0.390  23.357  14.863
45973W        W16573  13.665  29.543   4.681
45974W        W16574   8.211  44.461   3.425
45975W        W16575  19.188   5.375   1.966
45976W        W16576   0.985  25.731   0.463
45977W        W16577  33.933  34.843   4.111
45978W        W16578  15.790   0.272   1.482
45979W        W16579  31.635  14.899  10.759
45980W        W16580  24.705  25.626  13.574
45981W        W16581   9.256  23.744   2.226
45982W        W16582   6.170  36.041   3.822
45983W        W16583  18.711  15.009  12.955
45984W        W16584  43.565  44.709  14.982
45985W        W16585  21.143  28.950   2.738
45986W        W16586  11.805  26.448  13.664
45987W        W16587   5.148  26.230  12.095
45988W        W16588   8.871  16.529   3.806
45989W        W16589  33.650  16.698  11.885
45990W        W16590  12.103   7.446   4.183
45991W        W16591  33.509   7.618  14.422
45992W        W16592   1.901  19.775  14.270
45993W        W16593  30.021  40.758   1.448
45994W        W16594  42.632  19.010   0.934
45995W        W16595   9.366   6.945  12.009
45996W        W16596  28.058  17.339  14.715
45997W        W16597  18.450   8.383   2.181
45998W        W16598  42.220  16.283  13.008
45999W        W16599  38.533  11.769   0.843
46000W        W16600  18.580  33.488   1.661
46001W        W16601   8.163  32.838   1.360
46002W        W16602  25.168  41.502   1.936
46003W        W16603   2.160  28.066   3.153
46004W        W16604   3.878   0.936   4.632
46005W        W16605  43.436   5.504   2.157
46006W        W16606  26.171  42.753  10.743
46007W        W16607  38.725  18.100   1.894
46008W        W16608   9.222  42.300  12.546
46009W        W16609  32.872   7.092   2.900
46010W        W16610  27.499  36.147   0.366
46011W        W16611  41.599  21.629  11.947
46012W        W16612   8.301   7.623  14.731
46013W        W16613   5.402  42.784   1.892
46014W        W16614   7.704  25.111   3.299
46015W        W16615  21.270  14.066   2.234
46016W        W16616  34.503   8.690   4.574
46017W        W16617  35.681  15.518  14.972
46018W        W16618   6.009  11.169  10.705
46019W        W16619  22.669  36.479   2.254
46020W        W16620  31.891  30.208  11.564
46021W        W16621  38.886   8.390  12.379
46022W        W16622  34.328  24.481  12.455
46023W        W16623  42.060  25.172  14.821
46024W        W16624  33.564  17.163  14.389
46025W        W16625  15.252  10.366   1.833
46026W        W16626  16.158  17.500  14.336
46027W        W16627  27.528  11.313  11.505
46028W        W16628  30.013  43.549  11.776
46029W        W16629  20.005  44.660   2.307
46030W        W16630  19.970  41.984  11.267
46031W        W16631  30.379  28.897   0.910
46032W        W16632   2.856  35.541  10.787
46033W        W16633   6.466  12.287   1.296
46034W        W16634  42.425   3.131   0.203
46035W        W16635  33.271  25.826   2.662
46036W        W16636  22.199  42.924   3.765
46037W        W16637  11.240   9.713  13.003
46038W        W16638  18.221  42.078  11.199
46039W        W16639  12.586  31.086   2.690
46040W        W16640  13.717   0.421   1.674
46041W        W16641  14.167  28.513  14.063
46042W        W16642  23.493  17.605  14.933
46043W        W16643   3.345  23.434  12.320
46044W        W16644  19.676  14.161   2.127
46045W        W16645  30.642  44.461  13.558
46046W        W16646  38.494  25.481   2.740
46047W        W16647  39.673   8.198   4.237
46048W        W16648  12.520   9.672   3.297
46049W        W16649  10.208   9.654  11.529
46050W        W16650   7.926  15.989  11.878
46051W        W16651   5.306  18.347  13.740
46052W        W16652   0.480  16.151   4.534
46053W        W16653   7.260   5.374   1.797
46054W        W16654  30.618  14.503   2.831
46055W        W16655   5.319  33.584  13.830
46056W        W16656  35.608  24.006  12.687
46057W        W16657  28.165  20.559  13.297
46058W        W16658  23.179  37.581   1.015
46059W        W16659   1.241  16.123   3.639
46060W        W16660  10.722  30.618   3.875
46061W        W16661  36.610  11.230  14.083
46062W        W16662   7.709  22.222   2.469
46063W        W16663   8.357  44.270  14.449
46064W        W16664  39.402   5.821   4.168
46065W        W16665  14.926  11.432   4.121
46066W        W16666  44.970  19.627  12.183
46067W        W16667  41.472  37.007   1.367
46068W        W16668  31.377   8.256  11.671
46069W        W16669  31.854   6.792   2.544
46070W        W16670  19.697   9.077   1.725
46071W        W16671  15.817  33.667  12.479
46072W        W16672  10.319  34.658  14.946
46073W        W16673  25.924   5.333  11.179
46074W        W16674  18.360  42.502   0.928
46075W        W16675  39.485  30.078   4.268
46076W        W16676  14.685  30.395  14.086
46077W        W16677  42.656   4.199   0.830
46078W        W16678  32.452   0.990  11.620
46079W        W16679  19.525   7.885   3.689
46080W        W16680   0.670  30.455  13.356
46081W        W16681  14.043  17.984   4.543
46082W        W16682  11.104  31.250  11.894
46083W        W16683  32.553   2.887  14.077
46084W        W16684  40.287  42.718   3.563
46085W        W16685  41.522   3.251   4.155
46086W        W16686  25.145  19.019   2.836
46087W        W16687  32.808  14.919  12.957
46088W        W16688   0.293  43.533   3.256
46089W        W16689  34.581  28.638  11.974
46090W        W16690  21.837  11.505   1.837
46091W        W16691  31.997  16.395  11.926
46092W        W16692  22.026  14.246   0.010
46093W        W16693  17.539  19.647   4.091
46094W        W16694   9.812  36.349  13.550
46095W        W16695  17.758  16.526  14.444
46096W        W16696   6.708  18.122  13.812
46097W        W16697   2.624  14.791   1.637
46098W        W16698  16.589  31.817  13.032
46099W        W16699   8.828   9.103  12.127
46100W        W16700  26.545  14.196   3.911
46101W        W16701  34.966   8.995  13.593
46102W        W16702  32.552   5.001  11.138
46103W        W16703  20.500  28.103  13.978
46104W        W16704  43.024   0.704  14.304
46105W        W16705  26.881   2.691  14.041
46106W        W16706  13.273   5.279   1.274
46107W        W16707   1.772   9.920  14.429
46108W        W16708  31.259  12.224   4.096
46109W        W16709  31.427   6.999   0.138
46110W        W16710   0.336  21.784   3.127
46111W        W16711  26.521  25.079  10.859
46112W        W16712  13.748   0.650  13.883
46113W        W16713  30.928  42.112   2.180
46114W        W16714  11.578  16.080   1.261
46115W        W16715   7.942  18.826   3.684
46116W        W16716  29.926  28.188  12.852
46117W        W16717  43.342  21.489  12.936
46118W        W16718  20.197  12.742   3.095
46119W        W16719  21.646  43.553   3.405
46120W        W16720   0.506  39.618  10.188
46121W        W16721  24.473  33.008  14.474
46122W        W16722  27.597  17.161   3.840
46123W        W16723  32.720  27.039  11.590
46124W        W16724  41.055   6.090   4.801
46125W        W16725   6.246   4.218   4.295
46126W        W16726   5.706   9.504  10.903
46127W        W16727  29.484  24.484  14.273
46128W        W16728  40.864  13.490   0.367
46129W        W16729  43.498  20.164   4.534
46130W        W16730  42.564  34.436  11.287
46131W        W16731  31.671   5.833   0.803
46132W        W16732   4.821  27.017  14.269
46133W        W16733  35.074  21.329   2.729
46134W        W16734  37.897  30.840   3.712
46135W        W16735   9.728  43.075   3.135
46136W        W16736   9.692  40.230   3.092
46137W        W16737  12.683   5.341   4.570
46138W        W16738  36.010  15.363  11.594
46139W        W16739   9.566  24.490   4.140
46140W        W16740  24.087  32.662   4.320
46141W        W16741  39.752  15.288   1.342
46142W        W16742  39.994  35.995   4.637
46143W        W16743  11.729  16.581   0.387
46144W        W16744   5.590  36.929   2.156
46145W        W16745   4.729   3.862   4.193
46146W        W16746  17.784  23.640   4.594
46147W        W16747  16.696  15.282  11.639
46148W        W16748  36.118  22.199  14.529
46149W        W16749  10.676  10.680   0.443
46150W        W16750  31.650  26.571  13.919
46151W        W16751  28.963  38.405  13.924
46152W        W16752  13.996  38.935  10.412
46153W        W16753  36.003  38.987  11.551
46154W        W16754  32.468  42.981   0.281
46155W        W16755  32.861   3.338   1.743
46156W        W16756  13.273  42.037  12.929
46157W        W16757  11.925  42.041   0.797
46158W        W16758  12.977  14.857   1.393
46159W        W16759  39.422  41.242   2.992
46160W        W16760  44.762  22.450  12.079
46161W        W16761  25.591  11.661  14.301
46162W        W16762  17.077  21.720  12.554
46163W        W16763  41.048  44.838  13.985
46164W        W16764  29.975   5.793   1.711
46165W        W16765  10.726  25.411   4.904
46166W        W16766  12.344   1.533   2.350
46167W        W16767  36.368   6.399  13.896
46168W        W16768  29.383  36.977  13.139
46169W        W16769  40.400  31.051  11.246
46170W        W16770   3.718  14.692   2.955
46171W        W16771  17.722   0.722   3.855
46172W        W16772  39.037  39.266  11.842
46173W        W16773  24.584  29.166   3.665
46174W        W16774  40.120  29.695   0.045
46175W        W16775  18.063  42.425   4.849
46176W        W16776  32.524  26.397   4.425
46177W        W16777  40.515  32.076  10.865
46178W        W16778  34.661  22.859  13.780
46179W        W16779  41.394   8.945  13.810
46180W        W16780  33.747  30.420   3.696
46181W        W16781  26.099  30.114   4.799
46182W        W16782  43.240   6.267   1.094
46183W        W16783  26.445  44.492  14.888
46184W        W16784  13.878   7.199  13.406
46185W        W16785  12.051  10.455   2.683
46186W        W16786  15.777  25.676  13.640
46187W        W16787  18.066  16.083   1.509
46188W        W16788  27.128  41.051   1.944
46189W        W16789  38.760   1.636   1.718
46190W        W16790  36.063  21.141   4.631
46191W        W16791  41.901  22.518   1.415
46192W        W16792  13.821  14.146  13.085
46193W        W16793  34.818  24.526   2.799
46194W        W16794  34.452  34.852  11.693
46195W        W16795  14.556   6.725   3.255
46196W        W16796  35.113  32.584  13.825
46197W        W16797  28.152  28.811   3.991
46198W        W16798  15.394  23.452  11.103
46199W        W16799  38.265  13.212  12.535
46200W        W16800  34.092  31.549   0.779
46201W        W16801   9.927  42.992  10.704
46202W        W16802   1.471   5.893  14.399
46203W        W16803  38.744  38.671   1.686
46204W        W16804  26.714   7.488   4.122
46205W        W16805  29.961  19.464  11.939
46206W        W16806  39.003   4.583  10.727
46207W        W16807  20.203   3.333   3.675
46208W        W16808   6.500  33.523  14.444
46209W        W16809  13.639  43.312  12.795
46210W        W16810  43.304   4.329  12.932
46211W        W16811  18.817  14.047  12.659
46212W        W16812  34.008  10.364  12.056
46213W        W16813   2.573  26.931   1.080
46214W        W16814  35.144  21.749   3.245
46215W        W16815  35.135  34.863  14.726
46216W        W16816  33.225   9.897  13.292
46217W        W16817  10.697  10.130   4.973
46218W        W16818  33.171  42.330  13.469
46219W        W16819   9.202  37.023  12.883
46220W        W16820  20.649   6.708   4.662
46221W        W16821   4.325  18.541   2.466
46222W        W16822  30.387  23.070   0.714
46223W        W16823  44.881  10.792  12.563
46224W        W16824   4.889  25.486   3.523
46225W        W16825  17.124   3.871   1.768
46226W        W16826  31.417  16.691   1.848
46227W        W16827  14.555  41.170  14.516
46228W        W16828  42.285  10.188   0.444
46229W        W16829  19.229   3.986   3.073
46230W        W16830  41.236   3.133   4.585
46231W        W16831  15.143   5.410   1.936
46232W        W16832   7.385  21.572   1.368
46233W        W16833   1.704  21.061  13.474
46234W        W16834  14.552  28.967  10.617
46235W        W16835   1.309   7.255  10.811
46236W        W16836  40.155  42.558  10.334
46237W        W16837   5.803   6.370   2.623
46238W        W16838  23.144   0.304   4.250
46239W        W16839  11.123  39.383   2.355
46240W        W16840  43.992  22.064  11.122
46241W        W16841  28.528  15.705   4.597
46242W        W16842  10.749  40.057  13.328
46243W        W16843  12.231  16.681   1.223
46244W        W16844  37.319  33.649  11.134
46245W        W16845  19.721  11.154  12.454
46246W        W16846   6.349  36.033   4.351
46247W        W16847  38.204  14.834   4.255
46248W        W16848  30.303  20.256  11.630
46249W        W16849  18.587   6.715   3.999
46250W        W16850  32.488  14.922  12.473
46251W        W16851  22.345  41.103  14.313
46252W        W16852  13.554  27.609   0.553
46253W        W16853  28.974  19.614  11.945
46254W        W16854  28.405  20.749  14.944
46255W        W16855  33.491  23.416  14.513
46256W        W16856  27.995  22.619   2.395
46257W        W16857   4.468  31.504   2.198
46258W        W16858  27.102  35.526  12.325
46259W        W16859   2.956  25.691   3.726
46260W        W16860  22.602  37.458  10.364
46261W        W16861  15.716  22.552   0.028
46262W        W16862   7.996  17.086   4.208
46263W        W16863  38.748  22.098   3.496
46264W        W16864  14.166  24.949  10.731
46265W        W16865  23.974   2.970  12.386
46266W        W16866  32.209  42.254  11.581
46267W        W16867   3.895   0.568  11.073
46268W        W16868  26.074  36.316   3.796
46269W        W16869   6.228  17.636  12.069
46270W        W16870  38.659  30.421   0.349
46271W        W16871   1.805  41.034   1.550
46272W        W16872  30.540  43.243  10.712
46273W        W16873  41.884   3.722   3.597
46274W        W16874  21.271  19.980   0.738
46275W        W16875  31.785  13.683  12.769
46276W        W16876  20.261  36.010   4.046
46277W        W16877  14.897  20.112   2.690
46278W        W16878  23.572  34.598  14.852
46279W        W16879   5.329   7.729   4.458
46280W        W16880  13.970  15.739  11.578
46281W        W16881  30.911  23.232  14.067
46282W        W16882  26.261   9.384  13.068
46283W        W16883  17.615  28.208  10.608
46284W        W16884  36.564  33.424  12.483
46285W        W16885  11.131   8.848   2.422
46286W        W16886  35.473   0.681  10.872
46287W        W16887  26.480   5.909  10.471
46288W        W16888   2.879  43.127   3.812
46289W        W16889  41.379  23.040   4.418
46290W        W16890  14.871   5.292  11.753
46291W        W16891  30.237  19.191   4.873
46292W        W16892  35.798  34.654   0.765
46293W        W16893  14.815   4.775   0.539
46294W        W16894  24.191   2.949   4.621
46295W        W16895  40.516  27.251  13.963
46296W        W16896  29.405   3.122  12.912
46297W        W16897   8.166  44.887   1.796
46298W        W16898  36.442   9.555   2.272
46299W        W16899  40.735  15.529  11.249
46300W        W16900  40.854  13.354  14.382
46301W        W16901  38.849  18.316   4.028
46302W        W16902  40.823   6.867   2.414
46303W        W16903  25.073   0.173   2.503
46304W        W16904  21.598  44.581  13.039
46305W        W16905  40.036  14.994  13.347
46306W        W16906   4.762  18.737  12.214
46307W        W16907  40.066   6.808   3.697
46308W        W16908  39.675   8.387  12.067
46309W        W16909  31.489   9.174  14.458
46310W        W16910  34.576  34.916  11.195
46311W        W16911  24.530  43.320  10.702
46312W        W16912  29.545  23.471  10.809
46313W        W16913   9.695  33.358  11.628
46314W        W16914  35.998   8.194   0.242
46315W        W16915  24.692  38.271  12.816
46316W        W16916   4.214  43.875   2.259
46317W        W16917  20.254  18.002   0.336
46318W        W16918  28.202  20.966  13.607
46319W        W16919  31.316  29.726  14.275
46320W        W16920  21.134   4.031  14.140
46321W        W16921   4.257  10.496  14.285
46322W        W16922   7.440  18.596  11.106
46323W        W16923   0.968   8.596   3.769
46324W        W16924  16.288  28.946  12.500
46325W        W16925   7.293  40.321   0.259
46326W        W16926   3.195  40.014   2.215
46327W        W16927  28.508   0.072   2.467
46328W        W16928  43.791  32.819  14.219
46329W        W16929  43.434   8.471  11.317
46330W        W16930  31.652  10.212  12.403
46331W        W16931   6.169  20.223  14.103
46332W        W16932  43.519  31.404   2.814
46333W        W16933  16.455  44.843   4.574
46334W        W16934   3.425  37.090  14.839
46335W        W16935  21.812  10.736   2.301
46336W        W16936  37.105  11.317  12.242
46337W        W16937  25.854  34.656  12.434
46338W        W16938   6.141  44.871   3.731
46339W        W16939  41.507  20.256   1.405
46340W        W16940   6.944  43.017  12.531
46341W        W16941   5.137  32.902  11.297
46342W        W16942  10.835  37.175  13.370
46343W        W16943  17.215   4.745  12.595
46344W        W16944  27.144  25.485  14.582
46345W        W16945  43.290  41.262  12.065
46346W        W16946  39.386   3.597   3.681
46347W        W16947   7.965   9.625   4.618
46348W        W16948  16.071   2.834  11.647
46349W        W16949  15.812  12.848  13.353
46350W        W16950   6.696   5.224  13.484
46351W        W16951  28.067  28.000  13.359
46352W        W16952   0.442  28.535  12.024
46353W        W16953  10.225  23.700   2.636
46354W        W16954  36.133  42.166  14.688
46355W        W16955  27.878  44.311  14.379
46356W        W16956  28.717  29.177   2.985
46357W        W16957  44.814  24.844  12.315
46358W        W16958  19.792  43.326   0.349
46359W        W16959  33.599   7.773   0.408
46360W        W16960  26.637  40.315   1.996
46361W        W16961   8.912   1.329  14.291
46362W        W16962  34.069  43.353  12.527
46363W        W16963   2.412  32.179   3.844
46364W        W16964   7.243  31.813  11.567
46365W        W16965  11.596  36.817   2.689
46366W        W16966  15.128  35.459  14.338
46367W        W16967  24.812   1.879  11.380
46368W        W16968  34.228  22.715  14.020
46369W        W16969  14.894   1.937  13.380
46370W        W16970   8.861   0.549   3.633
46371W        W16971  39.908  20.329   2.357
46372W        W16972  27.589   1.823   1.020
46373W        W16973  36.958  39.247  10.961
46374W        W16974   3.837  14.818   0.017
46375W        W16975   0.306  13.175   3.128
46376W        W16976  28.131  25.604   2.560
46377W        W16977  44.278  30.437   3.626
46378W        W16978  15.293  20.514   4.092
46379W        W16979  26.586  24.570  10.698
46380W        W16980   3.932   6.354   2.467
46381W        W16981  17.540  23.824  14.216
46382W        W16982  17.501  39.795  11.032
46383W        W16983  25.918  42.586   2.765
46384W        W16984  22.949   3.124   3.991
46385W        W16985  31.662  21.181  13.812
46386W        W16986  11.647  31.265   0.966
46387W        W16987  30.604   1.310   1.784
46388W        W16988   1.043  10.286  11.557
46389W        W16989  34.628   4.861  13.409
46390W        W16990  25.423  31.906  14.746
46391W        W16991  23.673  30.991   0.724
46392W        W16992  43.005  15.879   0.446
46393W        W16993  23.454  25.037   2.780
46394W        W16994  14.333  22.270  11.196
46395W        W16995  36.021  30.220   4.673
46396W        W16996  13.999  29.908   2.286
46397W        W16997  33.703   1.534  11.624
46398W        W16998  28.752  33.232   3.678
46399W        W16999   7.108  39.320   1.684
46400W        W17000  32.398  25.542   1.887
46401W        W17001  17.835  16.306   4.664
46402W        W17002  32.684   1.777  11.126
46403W        W17003   2.809  20.929  12.134
46404W        W17004  18.271  43.245   4.392
46405W        W17005  34.491   8.370   4.138
46406W        W17006  30.172  19.714  12.821
46407W        W17007   3.833   5.215   0.998
46408W        W17008  19.467  23.644   1.627
46409W        W17009  43.821  39.377  11.595
46410W        W17010  26.747  13.107   3.773
46411W        W17011  17.755  27.905  14.522
46412W        W17012  24.519  41.454  14.714
46413W        W17013  32.158  10.458   1.173
46414W        W17014   4.169  28.578   4.683
46415W        W17015  38.539   2.873   1.471
46416W        W17016   2.798  39.619  10.727
46417W        W17017  24.843   7.921   0.002
46418W        W17018   8.951  23.004  12.307
46419W        W17019  13.589   4.311  14.973
46420W        W17020  30.432  38.535  11.210
46421W        W17021   3.353  28.310  10.438
46422W        W17022   0.831   7.281  14.615
46423W        W17023  26.396  22.661  10.552
46424W        W17024  24.342  26.991  12.002
46425W        W17025  43.081   0.776  11.876
46426W        W17026  25.724  10.976   2.251
46427W        W17027  44.040  29.658  12.498
46428W        W17028  25.535  14.038  14.352
46429W        W17029   5.045  41.916  11.875
46430W        W17030   6.828  33.058   3.866
46431W        W17031  43.123  34.012   1.166
46432W        W17032  30.495  16.028   0.432
46433W        W17033   2.804  18.384   2.732
46434W        W17034   3.453  43.620   4.170
46435W        W17035  25.330  14.553  12.568
46436W        W17036   3.923  27.227  14.793
46437W        W17037   8.872   8.963  10.689
46438W        W17038  39.497  15.783   4.884
46439W        W17039  33.511   9.758   3.861
46440W        W17040  13.244  11.803  13.536
46441W        W17041  41.863  18.864  12.041
46442W        W17042  22.243  23.256  11.227
46443W        W17043   4.151   1.008  11.088
46444W        W17044  11.799  20.921   1.879
46445W        W17045  10.176  22.618  11.807
46446W        W17046   8.045  15.777  10.427
46447W        W17047  30.441  37.658  11.049
46448W        W17048  42.313   0.330  10.493
46449W        W17049  34.434  19.153  10.912
46450W        W17050   6.218  37.604  10.607
46451W        W17051  29.325   4.351  11.932
46452W        W17052  17.297  14.049   3.745
46453W        W17053  13.611   2.240   3.671
46454W        W17054  44.393  27.465   4.568
46455W        W17055   1.177  41.622   4.091
46456W        W17056  21.092   6.519  10.720
46457W        W17057   4.814   1.298  12.929
46458W        W17058  33.123  18.101   0.967
46459W        W17059  23.968  39.831  14.359
46460W        W17060   1.680  44.360  13.094
46461W        W17061  29.605  19.738  12.233
46462W        W17062  17.149  41.324   4.560
46463W        W17063   5.670   9.641  13.860
46464W        W17064  16.890  12.660  14.353
46465W        W17065   7.306  35.953  13.909
46466W        W17066  37.079  26.166   0.766
46467W        W17067  12.200  22.822   4.169
46468W        W17068  29.507  32.386   0.986
46469W        W17069  25.112   6.201  13.574
46470W        W17070  27.777  17.019   2.875
46471W        W17071  25.753  17.845   3.623
46472W        W17072  30.119  25.879   1.692
46473W        W17073   8.892  16.028   1.975
46474W        W17074  42.062  34.636  11.228
46475W        W17075  40.480  42.811  13.540
46476W        W17076  43.843  35.714   0.519
46477W        W17077  32.538  18.568  14.251
46478W        W17078  20.871  23.722  13.586
46479W        W17079  39.849  10.367   2.939
46480W        W17080  36.847  40.532  12.514
46481W        W17081  36.924  28.044  14.586
46482W        W17082  13.579  21.010   4.100
46483W        W17083  23.266   3.416  13.950
46484W        W17084  28.027  31.285  12.886
46485W        W17085  31.533   1.095  10.793
46486W        W17086  33.971  21.573   2.608
46487W        W17087  38.559  32.556   2.675
46488W        W17088  34.432  19.709  12.534
46489W        W17089  34.581   2.718   3.764
46490W        W17090   9.786  28.631   3.683
46491W        W17091  41.599  44.911   3.370
46492W        W17092   9.026  11.625   1.825
46493W        W17093  19.090  17.122  13.771
46494W        W17094  22.965   6.633   1.328
46495W        W17095  15.727  11.088   0.857
46496W        W17096  18.586  42.745  11.579
46497W        W17097   1.861  29.029   0.711
46498W        W17098  43.269  19.849  12.118
46499W        W17099   1.002   5.052  12.299
46500W        W17100   6.211   3.383  12.821
46501W        W17101  26.592  41.614  11.189
46502W        W17102  16.090  19.337  11.609
46503W        W17103   4.779  25.381  12.999
46504W        W17104  26.387  32.564   0.459
46505W        W17105  42.134  41.314   4.501
46506W        W17106  36.599   7.869  14.430
46507W        W17107  17.634  42.588   2.246
46508W        W17108  21.774  31.566   1.796
46509W        W17109  20.500  13.651  14.477
46510W        W17110  35.704  41.545  14.010
46511W        W17111  20.091  19.785   4.334
46512W        W17112  22.861  39.235   1.839
46513W        W17113   4.261  28.571   3.217
46514W        W17114  39.602  23.584  14.055
46515W        W17115  41.516  16.997  12.069
46516W        W17116  40.379  36.523   3.748
46517W        W17117   6.309   1.348   1.996
46518W        W17118  40.372   6.450  13.756
46519W        W17119  16.861   6.780   0.330
46520W        W17120  35.144  10.182  12.969
46521W        W17121  22.645  39.477  10.482
46522W        W17122  34.518  38.352   3.258
46523W        W17123  41.629  29.058  10.815
46524W        W17124  31.972  22.603  10.358
46525W        W17125  42.199   5.806   1.569
46526W        W17126  23.316  26.511   2.030
46527W        W17127   5.651  15.612  10.394
46528W        W17128   3.984  35.064   4.450
46529W        W17129  32.065  37.879  13.688
46530W        W17130  44.263   2.774   2.257
46531W        W17131  23.776   0.433   1.756
46532W        W17132  19.511  41.544   4.068
46533W        W17133  11.254  22.239  13.329
46534W        W17134  10.111  38.553   0.384
46535W        W17135   3.944  24.753  10.634
46536W        W17136   0.478  23.218   4.520
46537W        W17137   5.217   8.921   3.729
46538W        W17138  28.650  17.663  11.968
46539W        W17139   0.907   7.272  14.053
46540W        W17140  12.897  23.151  12.629
46541W        W17141  26.906  29.433   0.035
46542W        W17142  42.624  29.074   1.027
46543W        W17143  22.242   0.703  14.432
46544W        W17144   8.709  12.632   2.436
46545W        W17145  38.764  41.762  11.630
46546W        W17146  10.298  21.335   4.209
46547W        W17147  21.690  39.264  14.321
46548W        W17148   7.436  26.998   4.636
46549W        W17149  14.156  34.530   3.701
46550W        W17150  43.571  18.104   0.514
46551W        W17151  25.418   9.815   4.181
46552W        W17152  24.899  15.137  14.107
46553W        W17153  33.984  28.435  14.384
46554W        W17154  39.296  14.230   3.153
46555W        W17155   7.013  40.266  11.115
46556W        W17156  10.938  26.663   0.755
46557W        W17157  11.227   8.868   0.479
46558W        W17158   3.423  18.666  11.472
46559W        W17159   3.870   5.765  14.313
46560W        W17160  37.341  20.147  13.301
46561W        W17161  35.314  40.378   4.133
46562W        W17162   0.809  20.013  13.471
46563W        W17163   4.728  14.119  14.791
46564W        W17164  19.293  42.805   3.707
46565W        W17165  24.665   9.676  13.900
46566W        W17166  44.466  37.525   0.406
46567W        W17167  18.699   2.039   2.107
46568W        W17168  12.072  42.323   9.707
46569W        W17169  24.678  12.973   1.365
46570W        W17170  10.279  31.672  13.848
46571W        W17171  39.266  14.099   4.926
46572W        W17172  16.354   1.783  11.521
46573W        W17173  30.651  20.184   3.103
46574W        W17174  17.387   2.288  10.693
46575W        W17175  44.677  26.182   0.896
46576W        W17176  40.099  13.739   0.936
46577W        W17177  32.915  17.568  11.476
46578W        W17178   5.927  14.354  11.246
46579W        W17179   9.228  33.998  10.945
46580W        W17180  26.136   5.912  11.104
46581W        W17181  38.058  40.774   4.101
46582W        W17182  15.782  44.335   1.726
46583W        W17183  44.950  10.294  12.543
46584W        W17184  22.138   5.190   4.620
46585W        W17185  22.592  24.764   2.197
46586W        W17186  10.643   0.640   1.193
46587W        W17187  23.118  32.533   2.237
46588W        W17188  32.891  11.132   3.272
46589W        W17189  11.377  37.587   0.145
46590W        W17190  23.074  34.851   0.326
46591W        W17191   1.010  16.722  12.035
46592W        W17192   3.423  38.994   3.994
46593W        W17193  36.019  42.495   3.858
46594W        W17194  18.681  12.164   4.701
46595W        W17195  32.112   1.136  14.378
46596W        W17196   1.484  37.841  11.443
46597W        W17197   8.723  31.430   2.213
46598W        W17198  43.808   3.425   3.274
46599W        W17199  18.162  35.445  11.337
46600W        W17200  43.894  26.059  14.357
46601W        W17201  31.817  17.977  14.310
46602W        W17202  42.288   1.324   1.089
46603W        W17203  36.097  17.273  11.629
46604W        W17204  16.629  29.455  12.012
46605W        W17205  40.541  23.891   4.958
46606W        W17206   2.277  20.723   0.277
46607W        W17207  25.665  23.498   0.411
46608W        W17208   2.360  27.000   0.109
46609W        W17209  28.989  33.153   0.741
46610W        W17210   7.448  18.247   3.012
46611W        W17211  30.521  36.103  11.992
46612W        W17212  16.152  20.695  11.748
46613W        W17213  19.113   1.482  14.950
46614W        W17214  17.939  13.765  14.574
46615W        W17215   4.799   6.444  14.357
46616W        W17216  20.455  33.475   1.798
46617W        W17217  11.075  28.681   2.856
46618W        W17218  40.555   5.458   1.420
46619W        W17219  30.394   1.258   3.234
46620W        W17220  10.133  24.836  11.186
46621W        W17221   3.563  37.946   0.729
46622W        W17222   6.237  29.094  14.311
46623W        W17223  10.516  23.956  14.903
46624W        W17224  37.709   6.865  13.465
46625W        W17225  21.605  25.679  12.001
46626W        W17226  13.365  14.823   4.081
46627W        W17227  13.647  30.007  14.938
46628W        W17228  44.518  39.182   3.701
46629W        W17229  19.108  10.445  13.352
46630W        W17230  23.186  13.333  10.529
46631W        W17231  28.097  29.408  14.349
46632W        W17232   4.950   8.876  14.619
46633W        W17233  19.019  12.906   1.667
46634W        W17234  10.283   5.288  12.887
46635W        W17235  27.015   6.238  10.951
46636W        W17236   7.922   1.762  14.013
46637W        W17237  42.267  17.151  11.512
46638W        W17238  37.425  33.117   1.216
46639W        W17239  16.802  29.204  13.282
46640W        W17240  36.968  32.122  12.677
46641W        W17241  13.137  21.622  13.366
46642W        W17242  31.881  21.104  14.320
46643W        W17243  36.089   5.329  12.633
46644W        W17244  12.492   6.426   1.302
46645W        W17245  23.617  16.566   2.685
46646W        W17246   0.318  41.985  13.513
46647W        W17247  43.398   5.871  11.088
46648W        W17248  10.993  21.852  11.732
46649W        W17249   1.442  44.352   1.030
46650W        W17250  19.780  25.747   1.194
46651W        W17251  14.679  40.091   4.154
46652W        W17252  44.347  36.133  10.610
46653W        W17253  13.784  33.449   0.039
46654W        W17254  41.034  32.286  11.089
46655W        W17255  13.944  37.393  11.141
46656W        W17256  26.078  32.116  13.399
46657W        W17257  39.948  30.869   0.086
46658W        W17258  32.604  18.984  12.717
46659W        W17259  28.833  36.596  14.445
46660W        W17260  14.182  33.527  11.133
46661W        W17261  22.731  37.316   4.011
46662W        W17262  31.219   0.211  11.616
46663W        W17263  17.055  22.515  14.212
46664W        W17264  18.695   6.467  10.714
46665W        W17265  11.330  27.581  12.121
46666W        W17266  28.214  13.206   3.380
46667W        W17267  35.471  40.952   1.660
46668W        W17268   9.256   7.840   3.637
46669W        W17269  12.272  32.100   3.589
46670W        W17270  37.633  44.313   1.543
46671W        W17271  19.717  42.329  12.726
46672W        W17272   5.205   7.884   3.644
46673W        W17273  25.881  27.841   4.996
46674W        W17274  20.495  33.577   3.301
46675W        W17275  43.124   3.959   0.859
46676W        W17276  23.767  21.957   0.412
46677W        W17277  10.710   7.852  12.186
46678W        W17278  38.351  15.537   2.091
46679W        W17279  33.435  23.998  10.883
46680W        W17280  15.002  40.018   3.769
46681W        W17281  11.455  30.661  13.315
46682W        W17282   7.022   0.104   1.409
46683W        W17283  26.862  14.282   1.865
46684W        W17284  32.937  32.396  10.643
46685W        W17285  16.856  11.269   1.889
46686W        W17286  16.822  43.862  10.564
46687W        W17287  32.714  31.552   4.054
46688W        W17288  21.039  15.793  12.152
46689W        W17289  38.304  12.719  12.256
46690W        W17290  38.381   5.439  12.915
46691W        W17291  36.549   3.667   0.972
46692W        W17292   7.195  23.481  14.057
46693W        W17293  18.242  17.269  11.614
46694W        W17294   2.768  43.498  14.979
46695W        W17295  27.161  39.436   4.851
46696W        W17296  35.891  17.187  13.937
46697W        W17297   8.728  17.554  10.615
46698W        W17298   3.883  35.575   4.459
46699W        W17299  10.583   4.850   0.905
46700W        W17300  10.750  15.789   0.931
46701W        W17301  18.129  20.777  12.100
46702W        W17302  32.330  29.540   0.045
46703W        W17303  20.811  32.572  14.992
46704W        W17304  44.516  37.588  10.674
46705W        W17305   7.845  20.490  11.450
46706W        W17306   1.426  31.572   0.793
46707W        W17307  39.112   3.674   1.043
46708W        W17308  44.415  21.643   4.617
46709W        W17309  12.856  15.045  14.340
46710W        W17310  22.632  11.847   3.977
46711W        W17311  35.532  19.133   2.150
46712W        W17312  43.137   4.915  14.516
46713W        W17313   5.994  16.759  11.463
46714W        W17314  15.729  18.266   0.725
46715W        W17315  38.297  22.501  11.135
46716W        W17316   6.400  32.084   3.219
46717W        W17317  13.255  25.147   3.271
46718W        W17318   4.285  16.752  13.896
46719W        W17319  37.692   4.353   1.444
46720W        W17320  34.588   8.257  14.975
46721W        W17321  24.181  33.418  14.539
46722W        W17322  40.373  22.004  10.719
46723W        W17323  23.797  20.366  14.334
46724W        W17324  20.623  15.597   4.859
46725W        W17325  32.653   3.118   3.732
46726W        W17326  15.196  25.427  12.967
46727W        W17327  11.892  11.979   3.593
46728W        W17328  11.887  28.284   1.839
46729W        W17329  35.896  35.874   1.874
46730W        W17330   2.398   6.192  10.433
46731W        W17331   7.289  29.114   4.544
46732W        W17332   9.070  44.408   4.867
46733W        W17333  14.838  36.574  13.868
46734W        W17334  43.402   8.583   0.559
46735W        W17335  28.148  31.865   2.716
46736W        W17336   0.376  39.497  13.050
46737W        W17337  33.580  35.982   0.406
46738W        W17338   9.611  15.584  10.665
46739W        W17339  39.553  18.737  14.265
46740W        W17340  12.133  19.981  14.087
46741W        W17341  18.827  10.578   0.143
46742W        W17342  44.424  28.400   4.687
46743W        W17343  40.771  37.394  13.520
46744W        W17344  24.930  43.290   4.162
46745W        W17345  27.290  18.703  14.314
46746W        W17346  32.563   4.353   4.834
46747W        W17347  27.023  38.815  10.624
46748W        W17348  39.719  44.923   1.421
46749W        W17349  22.230  25.067  13.316
46750W        W17350   5.331   4.896   0.848
46751W        W17351   5.944   0.128   4.162
46752W        W17352  14.080  22.974   2.176
46753W        W17353  14.867  24.935  11.141
46754W        W17354  43.384  32.887   1.913
46755W        W17355   5.566   7.465  14.834
46756W        W17356  26.641  14.711   3.695
46757W        W17357   0.334  27.723  10.435
46758W        W17358  22.469  41.244   0.816
46759W        W17359  35.670  16.024   4.862
46760W        W17360  12.861  18.079  13.882
46761W        W17361  15.869  20.104   0.328
46762W        W17362  25.465  20.291  12.364
46763W        W17363  27.494  22.648  10.731
46764W        W17364  44.774   4.994  11.725
46765W        W17365  39.869  36.764   4.276
46766W        W17366  29.303  36.786  14.453
46767W        W17367  29.291   4.668  13.764
46768W        W17368  34.550  30.506   0.761
46769W        W17369  11.099  11.255  13.112
46770W        W17370  20.265  36.870   3.169
46771W        W17371  42.947   5.963  10.367
46772W        W17372  10.703  17.479   0.170
46773W        W17373  34.449  14.298  12.594
46774W        W17374  12.604  31.945  11.163
46775W        W17375   3.207   5.132  11.640
46776W        W17376  20.147  15.312   1.865
46777W        W17377  20.987  43.654   1.786
46778W        W17378  37.673  27.919   2.468
46779W        W17379  33.668  31.542   3.144
46780W        W17380  27.196   4.802  10.080
46781W        W17381  38.004  19.833   4.614
46782W        W17382  25.504  16.113   0.368
46783W        W17383  11.695   8.742  13.530
46784W        W17384   9.739  32.296  13.142
46785W        W17385  26.061  27.752  11.947
46786W        W17386  21.678   6.440   1.084
46787W        W17387  19.268  19.143  13.366
46788W        W17388  33.437  26.707  13.264
46789W        W17389  37.286  41.348  12.442
46790W        W17390  12.617  14.194  14.354
46791W        W17391  18.034  30.966   0.019
46792W        W17392  27.478  20.033   3.239
46793W        W17393  12.839  16.568   1.796
46794W        W17394  30.967  39.054  13.066
46795W        W17395  28.511   0.437  12.685
46796W        W17396  33.354  43.864  14.910
46797W        W17397   5.769  33.881   0.025
46798W        W17398  19.024  23.518  11.413
46799W        W17399  33.989  16.107   2.815
46800W        W17400  20.454  35.973   4.982
46801W        W17401  17.193  36.649   3.293
46802W        W17402  38.051  27.705   0.801
46803W        W17403   0.870  14.656  14.149
46804W        W17404  43.070   4.325   4.519
46805W        W17405  14.340  21.764   0.462
46806W        W17406  31.180   2.394   0.513
46807W        W17407  43.329  29.175  12.425
46808W        W17408  14.633  19.266  12.663
46809W        W17409   7.380  29.276   2.731
46810W        W17410  27.642  16.677  13.451
46811W        W17411  16.736  24.012   4.251
46812W        W17412  14.156  14.127  14.358
46813W        W17413  12.313  17.187  11.030
46814W        W17414  43.617  28.249  12.412
46815W        W17415  21.541  31.496   3.595
46816W        W17416  34.566  37.874  14.116
46817W        W17417  39.302   9.045   1.840
46818W        W17418  33.426  12.887   1.218
46819W        W17419   3.304  33.330  12.057
46820W        W17420  31.532  15.975  11.571
46821W        W17421   6.109   9.281  12.438
46822W        W17422  41.017  38.931  12.508
46823W        W17423  34.886  29.783   4.708
46824W        W17424   9.289   9.713  12.947
46825W        W17425  29.977   5.756   2.885
46826W        W17426  42.450   9.478  11.181
46827W        W17427  16.824  27.630   0.239
46828W        W17428  32.990  18.074   4.067
46829W        W17429  28.369   9.451  13.555
46830W        W17430  10.435  19.874   4.149
46831W        W17431   2.359  33.583  12.385
46832W        W17432   4.189  35.838  11.084
46833W        W17433  11.707  37.138  13.360
46834W        W17434  25.227  44.557  12.026
46835W        W17435  11.584  30.193   1.898
46836W        W17436  23.989  31.017   1.725
46837W        W17437  16.840  24.481   0.000
46838W        W17438  34.507  43.221  12.070
46839W        W17439  29.263   7.367  12.431
46840W        W17440  30.909  41.826   2.989
46841W        W17441  31.021  35.878  11.144
46842W        W17442  22.039  37.084  14.138
46843W        W17443  19.597  27.208   3.092
46844W        W17444  19.389   5.317   4.724
46845W        W17445  17.191  35.269  14.296
46846W        W17446  32.953  11.712   1.277
46847W        W17447  10.628  15.092   1.361
46848W        W17448   6.584  35.675  14.867
46849W        W17449  28.094  11.803  12.008
46850W        W17450  41.891   2.796  10.042
46851W        W17451   7.439  34.007   1.099
46852W        W17452  42.344   1.217  10.769
46853W        W17453  38.006  21.052   1.071
46854W        W17454  34.461  41.524  14.398
46855W        W17455  37.003  10.427   2.762
46856W        W17456  39.866  39.747   1.857
46857W        W17457   8.456  27.722  12.467
46858W        W17458   8.791  21.008  13.379
46859W        W17459  24.150  27.469  14.032
46860W        W17460  11.274   1.954   0.213
46861W        W17461  10.385  20.090  10.803
46862W        W17462   4.093  12.325  10.742
46863W        W17463   5.161  39.674   2.707
46864W        W17464   0.786  13.695   0.969
46865W        W17465  24.521  18.485  10.627
46866W        W17466  13.760   2.706   2.365
46867W        W17467  42.874   1.663  13.918
46868W        W17468  12.696  24.984   2.106
46869W        W17469  28.761  22.194   2.101
46870W        W17470  43.095  42.048  11.169
46871W        W17471  44.361   9.737   4.124
46872W        W17472   1.161   1.856   3.733
46873W        W17473  34.240   3.398  13.572
46874W        W17474  42.013  42.545  11.661
46875W        W17475  16.645  29.709  10.429
46876W        W17476  34.903  42.131   3.579
46877W        W17477   3.951  40.233  12.504
46878W        W17478  39.281  18.968   2.740
46879W        W17479  32.878  14.598   0.521
46880W        W17480  19.644   6.429   1.648
46881W        W17481  42.841  34.181  12.584
46882W        W17482  15.732   0.986  11.639
46883W        W17483   6.193   7.650   3.541
46884W        W17484  42.438  16.745   1.939
46885W        W17485  38.870  32.407   3.062
46886W        W17486   5.456  33.074  13.912
46887W        W17487  31.103  30.682  11.528
46888W        W17488   6.124  30.983   3.831
46889W        W17489  30.113  31.091   2.160
46890W        W17490   5.439   9.206  10.594
46891W        W17491  21.024   4.483  11.535
46892W        W17492  44.505   6.451   2.304
46893W        W17493  23.741  29.528   3.687
46894W        W17494  33.671  40.145  13.932
46895W        W17495  33.559   8.951   3.390
46896W        W17496  23.157   2.317   4.471
46897W        W17497  43.833   2.727  14.266
46898W        W17498  16.995   5.433  12.052
46899W        W17499  24.286  30.381  13.607
46900W        W17500  10.353  31.585  11.656
46901W        W17501  38.485  26.020   2.673
46902W        W17502  20.964  32.782  12.083
46903W        W17503  31.638  25.031  13.441
46904W        W17504   0.593  12.157  10.332
46905W        W17505   1.663  34.175  14.472
46906W        W17506   2.236  12.338  10.758
46907W        W17507  38.537  25.554   1.374
46908W        W17508  31.893   9.248   3.816
46909W        W17509  23.684   6.690  10.858
46910W        W17510  44.526  43.454  10.640
46911W        W17511   8.669  25.380   0.332
46912W        W17512   8.234  22.008   0.368
46913W        W17513  41.353  34.994   4.205
46914W        W17514  44.566   6.225   0.433
46915W        W17515   3.385  42.769   1.541
46916W        W17516  18.019  41.402  14.895
46917W        W17517  27.704  26.527   4.889
46918W        W17518  19.648  23.353   4.048
46919W        W17519  35.262  12.199  11.788
46920W        W17520  19.269  43.375   0.372
46921W        W17521  44.563  34.572   1.836
46922W        W17522  32.448  26.740   1.787
46923W        W17523  35.882  23.528  13.332
46924W        W17524   4.950  27.102   2.676
46925W        W17525  40.635  13.781   4.155
46926W        W17526  24.567  22.599   0.681
46927W        W17527  37.479  42.123   2.272
46928W        W17528   7.559  19.206   4.200
46929W        W17529  24.667  42.635  14.084
46930W        W17530  42.248  26.441  11.187
46931W        W17531   9.027  27.763  10.548
46932W        W17532  40.941  26.677  13.542
46933W        W17533  43.375  13.037  13.032
46934W        W17534  25.407  35.963   1.866
46935W        W17535  24.754  41.920  14.906
46936W        W17536   6.697  23.497  12.947
46937W        W17537  26.545   0.722  13.320
46938W        W17538  32.546  35.235  13.826
46939W        W17539  22.199   3.694   2.825
46940W        W17540  32.505  24.486  11.496
46941W        W17541  28.272  43.033   2.780
46942W        W17542  16.283  35.839   2.470
46943W        W17543  14.352  17.578  13.339
46944W        W17544   9.048  28.994  12.565
46945W        W17545  17.163  35.278   2.819
46946W        W17546  31.220  41.929   3.944
46947W        W17547  11.565   5.543   1.385
46948W        W17548  12.711   3.950  12.873
46949W        W17549   3.815   7.774   3.331
46950W        W17550  18.273  33.750  14.513
46951W        W17551  16.732  43.384   1.921
46952W        W17552   2.655  29.655   1.193
46953W        W17553   8.339  25.116   4.858
46954W        W17554  34.199  18.408   4.766
46955W        W17555  11.663  38.621   2.248
46956W        W17556  13.680  19.695   1.740
46957W        W17557   1.961  38.867  11.072
46958W        W17558  22.516  10.875   0.176
46959W        W17559  25.484  25.973   0.335
46960W        W17560  15.198  31.960  10.044
46961W        W17561   5.999  24.003   0.335
46962W        W17562   8.212  11.779  13.405
46963W        W17563  31.771  18.569   3.625
46964W        W17564  38.592   9.842   4.609
46965W        W17565   4.173  15.324  10.555
46966W        W17566   1.839   2.226  13.440
46967W        W17567  37.906  19.168  13.327
46968W        W17568   3.789  20.725  13.750
46969W        W17569   2.376  31.068   0.295
46970W        W17570   5.781  32.481   0.163
46971W        W17571  27.958  11.574   5.102
46972W        W17572   9.327  42.016   1.677
46973W        W17573  27.241   8.830   1.143
46974W        W17574  44.773  28.498   1.351
46975W        W17575  42.576  19.609   3.988
46976W        W17576  40.785   1.443  10.652
46977W        W17577  10.158  19.436  14.881
46978W        W17578  43.485  25.987   1.306
46979W        W17579  35.827  18.608   1.376
46980W        W17580   8.178   9.710   2.229
46981W        W17581  29.826  23.122  13.032
46982W        W17582  22.138  31.993  14.865
46983W        W17583   6.281  20.539  10.777
46984W        W17584  43.538  32.576  12.800
46985W        W17585  41.526  12.111   4.224
46986W        W17586  22.954  38.022  13.439
46987W        W17587  17.602   8.341  13.258
46988W        W17588  39.410  40.917   3.885
46989W        W17589  29.558  30.635  13.449
46990W        W17590  13.740   5.728  11.078
46991W        W17591  33.434  26.483   4.666
46992W        W17592  11.143  13.980   0.852
46993W        W17593  37.605  22.628  13.019
46994W        W17594   2.328   7.559  12.129
46995W        W17595  11.827  11.668  12.906
46996W        W17596  36.839  30.381  13.824
46997W        W17597  24.451  14.028   2.908
46998W        W17598  34.877  23.145   0.968
46999W        W17599  36.272  12.833  14.538
47000W        W17600  25.514  35.908  13.395
47001W        W17601  43.728  24.489   3.182
47002W        W17602   1.287  30.155   0.789
47003W        W17603   4.256  37.815   3.752
47004W        W17604   6.378  14.062   1.254
47005W        W17605  23.030  37.053   1.050
47006W        W17606   8.314  25.062  10.760
47007W        W17607   3.426   8.710   4.379
47008W        W17608  23.628  38.843   1.243
47009W        W17609   0.621  25.521   3.114
47010W        W17610   4.949  15.829  11.578
47011W        W17611  33.144   4.220   2.083
47012W        W17612  42.437  11.635  12.561
47013W        W17613  25.380   3.354  10.880
47014W        W17614  39.815  38.210  14.080
47015W        W17615  29.884  34.231   3.875
47016W        W17616  21.094  44.333   1.348
47017W        W17617   4.789   0.717   4.663
47018W        W17618  36.831  36.359   0.850
47019W        W17619  12.600  13.736   0.046
47020W        W17620  32.244  30.080   3.751
47021W        W17621  41.319  13.300   3.044
47022W        W17622  20.087   4.111  11.525
47023W        W17623  42.241  12.208  10.460
47024W        W17624  13.711  34.833   0.475
47025W        W17625  36.842  26.984   3.298
47026W        W17626  43.382  27.574   3.477
47027W        W17627  42.630  36.557  12.537
47028W        W17628   7.385   7.108  14.806
47029W        W17629  12.198   8.721   2.768
47030W        W17630  29.933  37.281   2.314
47031W        W17631  41.770  13.525  11.556
47032W        W17632   5.098  15.249  14.926
47033W        W17633  32.541  15.675   3.568
47034W        W17634  19.724  28.156   1.933
47035W        W17635  13.815   5.657  12.483
47036W        W17636  27.032  20.429  14.843
47037W        W17637  37.456  43.034  12.583
47038W        W17638  23.120  35.832   1.829
47039W        W17639  38.009  36.792   2.473
47040W        W17640  17.478   3.179  11.634
47041W        W17641  10.311  17.747  14.377
47042W        W17642  26.047  29.591  13.308
47043W        W17643  36.128   9.595  14.105
47044W        W17644  42.219  20.700   0.308
47045W        W17645  40.326   5.264   1.987
47046W        W17646  17.160   5.953  14.862
47047W        W17647  32.660  41.173  10.548
47048W        W17648  33.561  27.735  14.199
47049W        W17649  28.660  28.862  10.991
47050W        W17650  13.792   9.798  10.781
47051W        W17651  30.301  26.839  14.545
47052W        W17652  31.569  44.898  12.835
47053W        W17653  37.360  25.839  14.802
47054W        W17654  43.228  44.751  13.400
47055W        W17655  35.934  30.596  14.862
47056W        W17656   9.969  34.611  14.044
47057W        W17657  10.220  30.147   3.284
47058W        W17658  16.091  15.675   2.812
47059W        W17659  23.723  29.528   1.328
47060W        W17660   3.269  27.081   4.320
47061W        W17661   7.321  38.024   4.406
47062W        W17662  30.228  38.539   3.760
47063W        W17663  18.092   2.525  14.762
47064W        W17664  22.286  16.071  13.901
47065W        W17665  38.257  24.958  11.093
47066W        W17666  40.999  30.016  11.505
47067W        W17667  35.624  44.749   2.339
47068W        W17668  10.720   6.834   3.199
47069W        W17669  26.005   9.713   0.445
47070W        W17670  44.406  32.577  12.617
47071W        W17671  38.314  16.386   3.804
47072W        W17672  34.090  29.242   2.244
47073W        W17673  25.623  38.251   0.304
47074W        W17674   4.369  40.036  13.001
47075W        W17675  38.874  42.381  14.052
47076W        W17676  11.112  40.461   0.817
47077W        W17677  12.853  18.302  11.647
47078W        W17678  19.991   1.881  10.556
47079W        W17679  25.965  41.276  10.752
47080W        W17680  42.973  26.078   1.373
47081W        W17681  38.560   6.242   0.358
47082W        W17682  44.914  43.999   0.043
47083W        W17683  17.360  24.596   4.599
47084W        W17684   8.854  31.798   5.048
47085W        W17685   3.882  34.325   1.458
47086W        W17686  33.581  35.437   1.714
47087W        W17687  25.040  13.185   0.418
47088W        W17688  16.835  28.010  14.009
47089W        W17689  38.495  34.158  11.221
47090W        W17690  20.669  40.925   1.702
47091W        W17691   3.626  35.654  12.022
47092W        W17692  41.328  21.156   2.423
47093W        W17693  18.976  34.885   1.361
47094W        W17694  11.919  22.026   3.290
47095W        W17695  26.701  29.886   2.202
47096W        W17696  36.021  31.186   4.667
47097W        W17697  21.582  33.723   4.541
47098W        W17698  20.192  24.474   4.499
47099W        W17699   8.311  26.676   0.453
47100W        W17700   2.028   8.868  10.689
47101W        W17701  27.819   6.299  12.432
47102W        W17702   4.444   7.229  13.298
47103W        W17703  41.226  15.803   0.928
47104W        W17704  16.667  23.720   0.867
47105W        W17705  28.585  30.598   1.302
47106W        W17706  27.356   7.877   1.391
47107W        W17707  24.324  32.182   0.437
47108W        W17708  10.532   8.136  11.021
47109W        W17709  24.045  29.943   1.371
47110W        W17710  30.317  25.452   1.939
47111W        W17711  23.263  31.595   2.831
47112W        W17712  14.805  22.470  12.987
47113W        W17713  13.069  37.525   3.812
47114W        W17714  43.269  23.353   2.666
47115W        W17715  27.300  33.015   0.190
47116W        W17716  12.354   2.265  12.104
47117W        W17717  22.736  17.261  13.869
47118W        W17718  31.447  36.010   3.076
47119W        W17719   1.772  34.287  11.180
47120W        W17720  22.163   1.862   1.968
47121W        W17721   8.669   6.925  10.743
47122W        W17722  19.082  36.668   3.356
47123W        W17723  35.137  28.969  12.551
47124W        W17724  29.708  25.092   0.386
47125W        W17725  29.404   4.605  10.939
47126W        W17726  16.050  43.550  13.072
47127W        W17727  41.555  13.758   4.340
47128W        W17728  43.483  42.750   1.867
47129W        W17729  16.195  15.814   1.341
47130W        W17730  40.204   2.254  14.802
47131W        W17731   0.849  26.768   3.520
47132W        W17732   6.381   5.895   4.758
47133W        W17733  26.926  36.228   3.900
47134W        W17734  21.162  36.561   4.557
47135W        W17735  23.675  13.490  11.204
47136W        W17736   7.419  31.744  10.393
47137W        W17737  35.602  25.385  13.038
47138W        W17738  30.637  21.807   4.607
47139W        W17739  26.474  41.320   1.181
47140W        W17740  11.230  33.324   1.012
47141W        W17741  14.481  33.331   4.181
47142W        W17742  39.867   9.073  11.574
47143W        W17743  33.165  21.690  12.538
47144W        W17744   5.432   0.760  11.934
47145W        W17745  12.123  43.994   1.821
47146W        W17746  12.292   4.300   1.735
47147W        W17747  25.850   3.777   2.850
47148W        W17748  27.828  29.693   5.043
47149W        W17749  16.493   3.497   4.238
47150W        W17750  42.453  26.632  12.523
47151W        W17751  22.710  18.112  10.681
47152W        W17752  33.706  19.162  10.390
47153W        W17753  22.123   5.620  14.375
47154W        W17754  16.182  15.357  13.418
47155W        W17755  18.327  24.435  13.873
47156W        W17756   6.003  12.177  12.421
47157W        W17757   7.410  20.598   1.346
47158W        W17758   1.445  19.007   2.221
47159W        W17759  19.871  37.386  12.809
47160W        W17760  29.811  39.737  11.518
47161W        W17761  20.812  36.160  10.671
47162W        W17762   4.724   6.208   3.122
47163W        W17763   3.926   8.725   2.207
47164W        W17764   4.343  26.648   3.497
47165W        W17765  10.312  26.402  11.259
47166W        W17766   9.885  38.855  14.095
47167W        W17767  19.576   1.100  10.954
47168W        W17768   1.704   2.376  12.573
47169W        W17769  33.649  21.019   1.846
47170W        W17770  33.100   8.465  12.968
47171W        W17771   0.775  41.804   3.783
47172W        W17772  40.533  16.067  13.485
47173W        W17773  15.653  23.312   4.650
47174W        W17774  27.491  30.459   0.844
47175W        W17775   5.124  30.881  11.023
47176W        W17776  41.436   7.520  10.271
47177W        W17777  14.788   1.320   4.451
47178W        W17778  23.413   8.267   2.221
47179W        W17779  44.197  21.485   4.153
47180W        W17780  36.790  38.846   0.707
47181W        W17781  12.320  39.445  10.558
47182W        W17782  40.295  28.177  13.626
47183W        W17783  12.843  17.239   1.045
47184W        W17784  10.609  21.613   3.275
47185W        W17785  43.141   8.871  13.531
47186W        W17786   7.680  16.723  13.028
47187W        W17787  39.186  39.985   0.995
47188W        W17788  31.605   7.423   4.136
47189W        W17789  11.349  35.089   1.791
47190W        W17790  19.579  14.532  11.674
47191W        W17791  17.847   3.898   2.284
47192W        W17792  22.701  21.479   4.146
47193W        W17793  34.577  27.261   0.579
47194W        W17794   7.105  26.064   3.249
47195W        W17795  31.756  12.331   4.106
47196W        W17796  14.790  27.507  13.415
47197W        W17797  28.338  22.588   4.169
47198W        W17798  29.115   9.842   3.201
47199W        W17799  42.289  31.784  14.326
47200W        W17800  15.944  36.656  12.011
47201W        W17801  24.696  31.176  11.171
47202W        W17802  13.495  29.444   4.181
47203W        W17803   0.866   2.313   3.769
47204W        W17804  22.214  31.445  13.069
47205W        W17805  28.471  22.680  11.080
47206W        W17806   3.417  38.680  13.448
47207W        W17807  23.924  27.474   2.763
47208W        W17808   3.219  39.985   1.413
47209W        W17809  43.763  16.254   3.205
47210W        W17810  33.727  12.221   0.165
47211W        W17811  20.739  31.488   0.766
47212W        W17812   8.330  34.158   3.711
47213W        W17813  30.138   4.049   4.607
47214W        W17814   6.340  35.511  13.590
47215W        W17815  35.577   7.806   3.598
47216W        W17816   2.394   3.481   1.229
47217W        W17817  25.579  25.140   3.605
47218W        W17818   3.946   2.354   3.481
47219W        W17819  36.128  24.201   2.827
47220W        W17820  39.194  18.029  12.972
47221W        W17821  17.830  23.175   1.305
47222W        W17822  44.299  12.630  12.637
47223W        W17823  41.808  39.508   0.721
47224W        W17824  35.061  25.670   4.715
47225W        W17825  30.616  16.115  11.053
47226W        W17826   6.868  26.216   2.252
47227W        W17827  10.541  31.587   3.089
47228W        W17828  33.944  20.960  11.143
47229W        W17829  23.533  27.361   3.288
47230W        W17830  30.256  14.656  13.149
47231W        W17831  19.431  39.385   0.493
47232W        W17832   8.818   5.288   0.914
47233W        W17833  32.029  16.465   1.115
47234W        W17834  21.981  31.503   0.021
47235W        W17835   1.288   1.789   1.108
47236W        W17836  36.343  16.596  11.136
47237W        W17837  40.967  24.151  10.980
47238W        W17838  23.145  38.633   4.084
47239W        W17839  29.355  33.140   3.776
47240W        W17840   1.216  15.590   0.905
47241W        W17841  20.990  22.747  14.335
47242W        W17842  40.531  43.886  11.493
47243W        W17843  40.319  26.189   1.402
47244W        W17844  21.199  32.505  11.657
47245W        W17845   5.192  13.769  13.132
47246W        W17846  27.498  41.469   4.256
47247W        W17847  27.559  25.581   3.806
47248W        W17848  34.929  37.498  10.798
47249W        W17849   6.670  18.520   3.094
47250W        W17850  24.636  25.958   3.203
47251W        W17851  44.704  22.296  14.484
47252W        W17852  33.929  39.990   3.462
47253W        W17853  14.280  38.605   2.836
47254W        W17854   4.405  42.073  12.661
47255W        W17855  36.051  29.721   3.221
47256W        W17856   5.343  10.609   2.265
47257W        W17857   6.302  12.769  13.953
47258W        W17858  27.594  21.161   1.940
47259W        W17859  11.784  27.766   1.854
47260W        W17860   6.273  40.392  14.308
47261W        W17861  39.373  10.070  13.788
47262W        W17862  26.875   8.920  10.957
47263W        W17863  28.847  33.543  14.440
47264W        W17864  17.952   2.267   1.290
47265W        W17865  33.196  35.086  11.736
47266W        W17866  16.818  21.637   2.432
47267W        W17867   5.208   9.086   1.115
47268W        W17868  32.358  10.209   1.717
47269W        W17869  30.076  41.135   2.821
47270W        W17870   4.683   8.248   1.955
47271W        W17871   7.230  24.949   4.222
47272W        W17872  36.757   8.628  13.794
47273W        W17873  11.349  11.331  11.172
47274W        W17874  21.212  43.808   1.321
47275W        W17875  38.882  29.485  13.067
47276W        W17876   6.831  29.660  13.814
47277W        W17877  22.921  30.631  14.842
47278W        W17878   2.269  25.222  10.873
47279W        W17879   7.883  18.090  11.821
47280W        W17880  39.005  11.975  14.619
47281W        W17881  43.524  18.614  14.737
47282W        W17882  29.987  33.596  11.681
47283W        W17883   7.267  25.585  14.697
47284W        W17884  33.134  42.182   4.601
47285W        W17885  17.809   9.057  10.677
47286W        W17886  24.585  36.422  10.678
47287W        W17887  31.910  26.714   4.108
47288W        W17888  42.845   7.479  12.430
47289W        W17889   0.889  24.053  11.250
47290W        W17890  26.071  28.389   3.234
47291W        W17891   7.923  15.743   1.396
47292W        W17892  31.929   2.321   1.598
47293W        W17893  13.341  41.589   9.950
47294W        W17894  21.587  40.571   0.340
47295W        W17895   8.820  38.028   3.358
47296W        W17896  40.166  28.023   3.611
47297W        W17897  25.135   1.039   2.299
47298W        W17898   0.430  34.960  13.968
47299W        W17899  20.581   2.921   4.086
47300W        W17900  24.190   1.875   3.617
47301W        W17901  20.118  22.149   3.457
47302W        W17902  33.622  15.633  14.353
47303W        W17903  26.457  36.063   0.978
47304W        W17904   5.744  19.603  14.744
47305W        W17905  33.947   4.073  11.359
47306W        W17906  26.533  39.371   1.537
47307W        W17907  41.990  30.542  12.109
47308W        W17908  25.766  39.008   4.043
47309W        W17909  28.346  31.432   0.931
47310W        W17910  20.247  15.295   4.387
47311W        W17911   8.953  29.269   2.183
47312W        W17912  33.920  28.023  14.700
47313W        W17913  43.397  11.318  12.292
47314W        W17914  29.407  44.711   4.964
47315W        W17915   7.811  19.232  14.461
47316W        W17916  40.908  11.582  11.421
47317W        W17917  20.031  39.447   4.460
47318W        W17918   6.425  32.512  13.382
47319W        W17919   5.873  44.415  12.790
47320W        W17920  43.821  40.256  12.948
47321W        W17921  22.218   0.515  14.956
47322W        W17922   8.900  18.561  13.473
47323W        W17923  12.976  22.856  14.518
47324W        W17924  23.972  30.629  11.589
47325W        W17925  21.530  32.534   1.440
47326W        W17926  26.958   7.884   3.544
47327W        W17927   2.894  24.051  14.039
47328W        W17928  19.539  40.610   0.438
47329W        W17929  32.567   5.518  12.094
47330W        W17930  40.372  43.559   2.769
47331W        W17931  23.508  32.968   1.429
47332W        W17932  40.334  35.073   2.755
47333W        W17933  32.628  11.388   2.449
47334W        W17934  13.340  15.038  13.049
47335W        W17935  17.675  19.152  12.705
47336W        W17936   3.430  10.946  14.882
47337W        W17937   9.713   8.875  13.030
47338W        W17938  18.564  43.478  12.997
47339W        W17939  40.930  26.151   3.790
47340W        W17940   1.271  20.128   3.691
47341W        W17941  24.470  35.903  13.369
47342W        W17942   6.275  14.350   0.818
47343W        W17943   6.337  39.097   0.708
47344W        W17944  10.789  21.729   0.015
47345W        W17945  18.960  23.016  10.990
47346W        W17946  25.256  37.579  14.250
47347W        W17947  42.809  42.305  14.532
47348W        W17948  38.760   8.198   3.649
47349W        W17949  41.501  31.613   2.421
47350W        W17950  42.791  14.814  12.899
47351W        W17951  35.401  20.230   4.188
47352W        W17952   2.957  22.146  14.293
47353W        W17953  10.265  34.521  12.394
47354W        W17954   4.702  10.962   1.410
47355W        W17955   9.347   3.046  12.932
47356W        W17956  10.906  30.396   2.972
47357W        W17957  15.594  39.403  12.535
47358W        W17958  21.623  20.554   2.194
47359W        W17959   9.383   3.466  12.017
47360W        W17960  33.788   2.836  11.155
47361W        W17961   5.409   1.983   2.115
47362W        W17962  15.931  36.099  11.387
47363W        W17963  38.611  19.784  11.560
47364W        W17964  10.222   8.797  12.865
47365W        W17965  40.764  41.328   0.229
47366W        W17966  35.021  25.136   4.620
47367W        W17967  42.905  44.068  14.758
47368W        W17968  20.952  37.633   4.492
47369W        W17969  33.660  37.032  10.436
47370W        W17970  11.814   8.640   4.975
47371W        W17971   1.395  39.918   2.694
47372W        W17972  20.172   5.884  13.513
47373W        W17973  40.551  30.521  11.641
47374W        W17974  13.337  43.742  14.179
47375W        W17975  30.905  10.337  14.377
47376W        W17976   4.405  21.276   3.129
47377W        W17977  20.544  38.989  12.071
47378W        W17978  33.098  43.712   2.378
47379W        W17979  35.828   0.834  13.186
47380W        W17980  42.255  35.047  14.453
47381W        W17981  15.762  24.947  11.908
47382W        W17982  10.290   0.248  10.534
47383W        W17983  19.163  32.646  12.137
47384W        W17984   0.167  37.114  11.121
47385W        W17985  33.264  28.691  13.483
47386W        W17986  34.632   1.886   2.089
47387W        W17987  24.233  24.119   2.595
47388W        W17988  32.391  12.618   1.370
47389W        W17989  14.050  37.093  11.575
47390W        W17990   7.821   2.892  12.295
47391W        W17991  32.230  43.953   1.309
47392W        W17992   4.691  38.262  12.477
47393W        W17993   4.838  44.974   1.714
47394W        W17994  42.777   6.156   0.922
47395W        W17995  41.412  13.768  14.747
47396W        W17996  43.758   4.091  11.355
47397W        W17997  24.417  27.201   2.650
47398W        W17998  29.725  17.511  14.596
47399W        W17999   8.334  42.425   0.852
47400W        W18000  42.862  23.008  13.517
47401W        W18001  17.793   8.441  13.731
47402W        W18002   6.308  15.807   4.857
47403W        W18003  10.367  32.608   4.579
47404W        W18004   5.651  21.757   3.511
47405W        W18005  24.006  12.684  14.063
47406W        W18006   6.329   1.929   4.616
47407W        W18007  11.006  20.199   4.101
47408W        W18008  18.076  37.270  13.831
47409W        W18009  13.094  13.909  11.571
47410W        W18010  44.508  34.057   3.924
47411W        W18011  28.227  32.933  14.764
47412W        W18012  10.344  40.329   4.209
47413W        W18013  16.232  37.858   3.970
47414W        W18014  17.760  29.145   2.538
47415W        W18015   8.322   2.635   4.602
47416W        W18016   7.412  39.520   4.095
47417W        W18017   1.799   2.460   2.588
47418W        W18018   2.900   9.566  14.001
47419W        W18019  30.111   8.737   0.868
47420W        W18020  15.599  18.592  12.065
47421W        W18021   8.248   5.470  13.564
47422W        W18022   9.157  34.784  14.877
47423W        W18023  18.162  15.804   0.538
47424W        W18024  35.683  11.746  10.868
47425W        W18025   2.612  25.142   4.978
47426W        W18026  41.553  44.861  10.959
47427W        W18027   7.780   7.144   0.419
47428W        W18028  31.089  24.536   2.478
47429W        W18029   7.168  30.888  11.520
47430W        W18030  14.149  25.065  12.093
47431W        W18031  38.616  22.226   0.934
47432W        W18032  20.642  28.908  13.371
47433W        W18033  35.549  38.634   1.854
47434W        W18034  30.625  42.464   9.845
47435W        W18035  14.597  12.564  11.183
47436W        W18036   7.274  38.396   3.343
47437W        W18037   3.538  21.136   0.725
47438W        W18038  16.281  40.451   1.953
47439W        W18039  15.607  21.170  13.380
47440W        W18040   7.308   6.406   4.282
47441W        W18041  28.353  25.477   4.713
47442W        W18042   5.271  42.293  12.117
47443W        W18043  43.547   2.787  11.158
47444W        W18044  12.608  24.783  11.906
47445W        W18045  32.511  11.754   2.867
47446W        W18046  28.524  44.297  11.208
47447W        W18047  15.150   7.976  13.828
47448W        W18048  12.944   1.898   3.753
47449W        W18049  23.214  18.427   4.523
47450W        W18050   4.333  28.933  13.143
47451W        W18051  36.224  44.887  13.845
47452W        W18052  42.498  24.960  12.153
47453W        W18053  27.920  22.561  10.419
47454W        W18054  14.615  39.775  12.472
47455W        W18055  20.588  37.280  11.569
47456W        W18056  22.985  36.324  11.160
47457W        W18057  33.588  14.164  13.902
47458W        W18058  13.877  36.762  13.161
47459W        W18059  44.393  30.241  10.745
47460W        W18060   9.174  29.711  14.374
47461W        W18061  13.215   9.663  13.936
47462W        W18062  34.726  44.717   2.543
47463W        W18063  42.230  12.302   1.938
47464W        W18064  24.070  34.821   3.731
47465W        W18065  28.249  32.384   0.888
47466W        W18066   3.932  34.342   3.279
47467W        W18067   1.300  14.732   0.721
47468W        W18068  13.690   0.601  11.696
47469W        W18069  11.258  41.414  14.241
47470W        W18070  32.667  12.140   0.396
47471W        W18071  20.795  18.975   1.739
47472W        W18072  34.298  37.554  14.429
47473W        W18073  16.310  10.806  10.380
47474W        W18074  18.620  22.973  11.743
47475W        W18075  15.838  24.150  11.499
47476W        W18076  42.191  33.468  14.770
47477W        W18077  38.065   5.734  10.448
47478W        W18078  15.085  21.528   3.400
47479W        W18079   0.869  11.643  11.162
47480W        W18080   2.938  15.814  13.850
47481W        W18081   2.518  23.669  12.126
47482W        W18082  36.147  24.352  12.851
47483W        W18083  39.755  20.489   3.151
47484W        W18084  34.442  22.561  13.441
47485W        W18085  19.093  22.105   0.445
47486W        W18086   7.201   4.599   0.357
47487W        W18087   8.013   7.621  12.117
47488W        W18088  37.373  36.366   2.210
47489W        W18089  29.676  29.181  11.413
47490W        W18090   4.207  42.012  12.190
47491W        W18091  11.671  14.868  12.069
47492W        W18092  33.088  14.232   2.908
47493W        W18093  30.809  34.201   3.657
47494W        W18094  35.951   1.464   2.945
47495W        W18095  13.855  11.088  12.669
47496W        W18096  22.242   4.690  10.710
47497W        W18097  19.723  14.578   1.266
47498W        W18098  38.367   5.935   3.155
47499W        W18099   6.184  24.766   0.830
47500W        W18100  31.975   8.570   4.985
47501W        W18101  27.261  31.472   2.784
47502W        W18102   0.612  27.557  12.875
47503W        W18103   4.766  43.389   0.411
47504W        W18104   3.417   9.023   4.812
47505W        W18105  39.353  43.572  13.445
47506W        W18106  27.129   0.383   0.553
47507W        W18107  35.007   5.202  13.993
47508W        W18108  32.474  39.061   0.399
47509W        W18109   2.119   1.536   2.148
47510W        W18110  42.381  19.438   2.298
47511W        W18111  32.033  19.342  11.692
47512W        W18112  21.635  28.429   4.875
47513W        W18113  16.230  10.347  12.476
47514W        W18114  27.121  28.106  12.037
47515W        W18115   4.535  23.641   0.416
47516W        W18116  43.278   8.995   0.259
47517W        W18117   8.515   4.329   1.316
47518W        W18118  36.651  26.569  13.295
47519W        W18119  12.049  31.640  12.676
47520W        W18120   9.429  31.167   3.821
47521W        W18121  31.671  32.825   2.130
47522W        W18122  34.578  32.930  14.153
47523W        W18123  32.506  40.188   2.939
47524W        W18124  44.419  16.487  12.642
47525W        W18125  41.057  35.938  14.049
47526W        W18126  19.022  35.053   2.251
47527W        W18127   8.390  13.671  12.799
47528W        W18128  22.007  10.898   4.562
47529W        W18129  16.066  28.339   1.623
47530W        W18130   5.422  12.616  13.318
47531W        W18131  11.935  28.224   4.110
47532W        W18132  36.467   1.956  10.401
47533W        W18133  17.953  37.007   0.286
47534W        W18134  11.273  37.190   0.471
47535W        W18135  23.610  34.564   3.775
47536W        W18136  15.158  40.596  10.928
47537W        W18137  20.257  37.260  14.009
47538W        W18138  14.489  11.515  12.135
47539W        W18139  28.522  33.424   4.112
47540W        W18140  28.350  26.670   3.725
47541W        W18141  16.004   6.012  12.002
47542W        W18142  10.224  11.322  13.852
47543W        W18143   0.930  15.121  13.023
47544W        W18144  44.768  21.867   0.327
47545W        W18145  15.555   7.062  13.918
47546W        W18146  38.264  38.770  14.446
47547W        W18147   2.587  16.770  12.990
47548W        W18148  34.490  19.582  13.923
47549W        W18149  37.804  18.637   4.917
47550W        W18150  19.556  19.568  13.257
47551W        W18151   5.962  27.941   4.510
47552W        W18152  28.572  32.656   2.923
47553W        W18153   4.260  30.789  11.355
47554W        W18154  26.659   3.840  10.826
47555W        W18155  21.596  10.964   3.802
47556W        W18156   5.835  22.178   2.281
47557W        W18157   1.367  40.733  11.177
47558W        W18158  19.375  43.400  11.139
47559W        W18159  37.412  29.478   1.763
47560W        W18160  26.575  22.030   2.733
47561W        W18161  17.695  37.752   3.730
47562W        W18162  42.022  43.468   2.274
47563W        W18163  38.536  11.037  11.945
47564W        W18164   1.454   1.325   2.820
47565W        W18165  17.558  39.402  11.575
47566W        W18166   6.298   5.904   1.767
47567W        W18167  16.240  15.966   4.254
47568W        W18168  32.305  12.930  13.548
47569W        W18169  39.795  19.055   0.236
47570W        W18170  25.707  25.507   0.467
47571W        W18171   5.009  17.970  11.001
47572W        W18172  39.817   3.285   2.477
47573W        W18173   6.305  26.197   4.361
47574W        W18174   5.935  33.638  12.449
47575W        W18175   0.902  36.601  10.400
47576W        W18176   0.483  42.789  14.931
47577W        W18177  10.916  23.147   0.731
47578W        W18178   3.157  25.013   3.614
47579W        W18179  22.445  28.581  11.906
47580W        W18180  43.299  37.778  11.296
47581W        W18181  33.430  33.688   2.328
47582W        W18182  44.971  41.935   0.728
47583W        W18183  28.172  34.911  11.254
47584W        W18184  33.824  34.062  11.440
47585W        W18185  42.441  43.095  11.025
47586W        W18186  14.719  29.037   3.988
47587W        W18187  34.563   1.291  12.180
47588W        W18188  40.103  12.071  12.104
47589W        W18189  11.917  25.096  10.890
47590W        W18190  18.872  34.565   9.892
47591W        W18191  17.691  43.420  10.899
47592W        W18192  42.086  12.602  11.167
47593W        W18193   4.426  38.547  12.136
47594W        W18194   7.879  36.339   0.971
47595W        W18195  40.269  22.871   2.883
47596W        W18196  15.212  10.602   3.563
47597W        W18197  17.433  29.886  13.234
47598W        W18198   0.231  15.095   0.204
47599W        W18199  35.491  18.815   3.324
47600W        W18200  44.205  26.510   3.689
47601W        W18201  11.034  24.096  14.903
47602W        W18202  20.457  18.708   3.185
47603W        W18203   4.473  40.750   2.802
47604W        W18204  34.852  19.210   0.903
47605W        W18205   3.265  26.578  11.790
47606W        W18206  35.608   4.493   3.207
47607W        W18207  17.755   7.718   0.345
47608W        W18208  26.389   8.304  11.608
47609W        W18209  29.150  15.791   0.991
47610W        W18210  26.106  34.012   1.318
47611W        W18211  18.476  17.046   4.075
47612W        W18212   4.993  33.482   3.670
47613W        W18213  11.470   8.888  11.552
47614W        W18214   6.226  29.895   4.649
47615W        W18215  27.888   5.754  13.531
47616W        W18216  13.830  38.862   2.751
47617W        W18217   7.308   1.221   0.843
47618W        W18218  13.781   0.234  10.730
47619W        W18219  21.979  37.552  13.949
47620W        W18220  41.594   3.593  14.781
47621W        W18221  15.601   9.348   3.687
47622W        W18222  24.381  23.749   1.352
47623W        W18223   0.138  16.305  11.910
47624W        W18224  35.240   4.958  12.751
47625W        W18225  18.980   7.205   2.741
47626W        W18226  40.121  40.161   3.570
47627W        W18227  35.126   3.964   1.749
47628W        W18228   7.521  11.725   3.668
47629W        W18229  30.556  41.157  11.062
47630W        W18230   2.676  36.868   1.639
47631W        W18231   1.392  19.071   2.735
47632W        W18232  21.677  23.649   3.677
47633W        W18233  16.903  36.908  10.481
47634W        W18234  10.618   9.402  12.460
47635W        W18235  21.060  14.514   3.647
47636W        W18236  29.428  21.030  13.178
47637W        W18237  38.778  41.555  14.513
47638W        W18238  36.118  41.231  12.028
47639W        W18239  20.512  32.498   1.745
47640W        W18240  14.725  20.228  10.782
47641W        W18241  27.928  13.338  11.461
47642W        W18242  27.767  15.102  11.865
47643W        W18243  44.944   0.110  13.989
47644W        W18244  33.095  41.881   2.778
47645W        W18245  23.084   3.573  11.216
47646W        W18246  23.007  15.277   0.792
47647W        W18247  34.198  33.434   4.933
47648W        W18248  43.696   9.287   2.834
47649W        W18249  15.318  20.181   2.401
47650W        W18250  26.692  14.165  12.497
47651W        W18251  33.467  31.608  14.029
47652W        W18252  34.887  19.215  11.980
47653W        W18253  33.162  23.667  14.013
47654W        W18254  21.922  39.209  11.675
47655W        W18255  10.637   8.864   2.265
47656W        W18256  24.666   9.393   1.913
47657W        W18257   4.812  39.962  12.136
47658W        W18258  28.988  27.534   1.849
47659W        W18259  26.943  19.930  14.768
47660W        W18260  23.943   2.726  13.868
47661W        W18261  38.068   7.134   2.675
47662W        W18262  12.348  25.096   1.042
47663W        W18263  27.781  26.455  12.020
47664W        W18264  20.292  36.480   3.779
47665W        W18265  22.464   8.946   2.743
47666W        W18266  24.784  21.563   1.763
47667W        W18267   1.738   0.757  13.018
47668W        W18268  34.594  16.566   0.545
47669W        W18269  44.718  25.207  14.026
47670W        W18270  28.998  25.639  12.499
47671W        W18271   5.198   1.693   4.759
47672W        W18272  23.266  13.753  12.494
47673W        W18273  14.903  15.485   4.308
47674W        W18274  39.261   2.826  10.748
47675W        W18275  14.010  23.500  11.112
47676W        W18276  19.435  24.048  13.630
47677W        W18277  26.605   3.993   1.269
47678W        W18278   7.223   1.727   0.873
47679W        W18279  25.529  39.958  11.200
47680W        W18280  40.963   1.156   1.955
47681W        W18281  35.646  18.593   3.770
47682W        W18282  37.389  34.901  11.494
47683W        W18283   0.818  34.357  14.550
47684W        W18284  25.512  17.978  13.415
47685W        W18285  27.114  41.692  11.120
47686W        W18286  14.095  36.142   1.695
47687W        W18287  35.394  38.055  13.585
47688W        W18288  35.296  32.781   4.173
47689W        W18289  17.138  36.807  10.930
47690W        W18290  44.136  26.462  11.879
47691W        W18291  17.256  25.284   3.626
47692W        W18292   1.246  15.871  12.468
47693W        W18293   2.342   8.575  12.958
47694W        W18294   6.714   4.272  13.042
47695W        W18295  14.692  39.408  10.408
47696W        W18296  42.940  15.367  13.533
47697W        W18297  44.003  30.640   2.739
47698W        W18298  38.460   1.950   1.418
47699W        W18299  22.964   9.839   4.281
47700W        W18300  43.066  44.393  12.568
47701W        W18301  16.649  38.432  10.925
47702W        W18302  38.253  33.558   3.166
47703W        W18303  32.235  24.154  11.978
47704W        W18304  38.640  36.452   1.088
47705W        W18305  32.658   3.154  12.795
47706W        W18306  16.845  38.551  14.046
47707W        W18307   2.299  27.021   0.644
47708W        W18308   6.139   3.768  12.488
47709W        W18309   4.844  29.264   4.340
47710W        W18310  29.627  15.506  14.286
47711W        W18311   8.776  25.318   4.651
47712W        W18312  18.202  28.466   2.560
47713W        W18313  39.434  30.666  12.537
47714W        W18314   6.372   8.265   1.908
47715W        W18315  35.379  27.657   2.712
47716W        W18316  39.007  17.771  13.866
47717W        W18317  35.917  32.383  12.859
47718W        W18318  16.531  11.680   4.563
47719W        W18319  33.071  21.662  14.447
47720W        W18320  17.175  18.343  11.170
47721W        W18321  41.374  35.439   1.784
47722W        W18322  30.124  43.266  11.064
47723W        W18323  34.927  11.873   0.918
47724W        W18324  39.042  10.559   3.428
47725W        W18325  41.129  41.040   3.363
47726W        W18326   3.690   3.932   4.126
47727W        W18327  35.941   9.210   0.469
47728W        W18328  15.078  33.803   0.470
47729W        W18329  16.413  32.059  14.393
47730W        W18330  35.943  30.095  14.737
47731W        W18331  20.119   3.173  12.937
47732W        W18332  24.067  26.769   0.896
47733W        W18333  33.423  28.112  14.941
47734W        W18334  30.013  29.588  14.755
47735W        W18335  29.223  32.396  11.803
47736W        W18336  30.975  14.059  12.593
47737W        W18337  13.902  39.875   4.470
47738W        W18338  36.922   5.514   2.800
47739W        W18339   8.928  33.861   2.049
47740W        W18340  19.541  36.528  11.158
47741W        W18341  34.801  27.481  11.337
47742W        W18342  28.357  36.512  14.312
47743W        W18343  35.353  17.780   1.906
47744W        W18344  19.467  31.067   2.433
47745W        W18345  42.576  10.885  12.107
47746W        W18346  34.440   1.753   0.849
47747W        W18347   0.180  21.808   2.134
47748W        W18348  43.004  30.396   0.954
47749W        W18349  14.158  34.741  12.607
47750W        W18350   7.451  44.329   1.993
47751W        W18351  27.841  29.080  14.692
47752W        W18352  11.072  16.776   0.020
47753W        W18353  20.416  20.203  10.940
47754W        W18354  18.093  27.888   2.282
47755W        W18355  13.621  29.377   3.414
47756W        W18356   2.971  22.812   4.250
47757W        W18357  20.578  37.525  14.903
47758W        W18358  20.673  17.701  13.578
47759W        W18359  29.934  39.146  14.501
47760W        W18360  15.043  32.186   0.294
47761W        W18361  29.838  32.128  13.270
47762W        W18362  44.437  19.512   3.437
47763W        W18363  26.225  24.722  11.052
47764W        W18364  42.479  10.570   3.377
47765W        W18365  11.216   6.969   0.393
47766W        W18366  20.262  37.399   3.223
47767W        W18367  26.743  23.626   1.675
47768W        W18368  19.091  44.695   0.323
47769W        W18369  13.715  30.824   2.749
47770W        W18370  25.004  42.428   3.916
47771W        W18371  41.986  26.153  12.971
47772W        W18372  31.977   9.313  14.482
47773W        W18373   5.395   8.331   2.798
47774W        W18374  40.434  37.444   9.885
47775W        W18375   4.969   8.223   2.376
47776W        W18376   6.479   6.222  10.433
47777W        W18377   3.960   8.667  10.290
47778W        W18378  23.122  19.817  14.019
47779W        W18379  27.494  15.031  14.944
47780W        W18380   1.838  10.814  11.978
47781W        W18381  16.154  41.524  14.806
47782W        W18382  35.170  21.834  11.038
47783W        W18383   6.229   8.540   2.853
47784W        W18384   8.848  37.110   2.816
47785W        W18385  16.912  23.094  14.450
47786W        W18386  41.748  26.660  12.976
47787W        W18387  35.419  32.946   3.291
47788W        W18388  26.558   6.597   4.601
47789W        W18389  19.068  41.401  11.498
47790W        W18390  15.449  41.080   2.456
47791W        W18391  30.115  14.380   4.282
47792W        W18392  17.650  33.202   5.077
47793W        W18393  13.530  31.054   0.744
47794W        W18394  42.384  21.747   0.471
47795W        W18395   2.760   7.662  12.980
47796W        W18396  42.365   8.731  11.431
47797W        W18397  30.873  21.042  14.233
47798W        W18398  36.413  12.500   2.424
47799W        W18399  38.000   0.677   1.840
47800W        W18400  36.427  39.087   0.419
47801W        W18401  34.139  23.006   2.292
47802W        W18402  22.110  32.465   4.845
47803W        W18403  16.645   2.942  10.997
47804W        W18404  32.850  22.652   2.326
47805W        W18405  24.955  18.204  14.339
47806W        W18406  16.860  13.769   1.230
47807W        W18407   7.828  27.398   1.347
47808W        W18408  18.333  27.534   0.254
47809W        W18409  29.687  38.111   1.718
47810W        W18410   3.206  37.042  14.328
47811W        W18411  20.232  14.689   0.134
47812W        W18412  37.331  15.060   4.600
47813W        W18413  37.503   1.902  13.548
47814W        W18414  44.506  38.906   2.422
47815W        W18415  18.512  28.330   0.470
47816W        W18416  19.965  33.433   3.888
47817W        W18417  18.081  22.610   2.572
47818W        W18418   7.017  22.899   2.230
47819W        W18419  10.505  11.881  10.946
47820W        W18420   0.296  28.774   4.569
47821W        W18421  15.103  17.251  13.659
47822W        W18422  30.377  36.365  13.569
47823W        W18423  20.257  42.808  12.681
47824W        W18424  39.329  13.702  11.720
47825W        W18425  27.153  34.348   0.354
47826W        W18426  24.670   1.262  10.632
47827W        W18427   4.907  11.174   5.050
47828W        W18428   8.231  17.723   3.616
47829W        W18429  22.074  13.346  14.561
47830W        W18430  17.742  18.296  12.018
47831W        W18431  20.165   4.985  14.810
47832W        W18432   1.134   0.467  10.558
47833W        W18433  26.742  41.446  14.344
47834W        W18434  31.361  36.581  13.932
47835W        W18435  36.505  44.282   2.385
47836W        W18436  40.302  19.858  12.410
47837W        W18437   1.881  20.603   0.740
47838W        W18438  10.583  32.059  14.096
47839W        W18439  12.863   9.779   2.908
47840W        W18440  25.812  25.975  11.557
47841W        W18441  22.723  27.098  13.594
47842W        W18442  23.141  43.708   4.080
47843W        W18443  44.555   8.659  14.325
47844W        W18444  18.335  28.451  13.938
47845W        W18445  11.369   9.338  14.242
47846W        W18446  42.729  41.529  10.368
47847W        W18447  37.393  14.298  12.883
47848W        W18448   4.771  30.153  14.306
47849W        W18449  31.572   4.864  13.038
47850W        W18450  39.074  42.321   0.455
47851W        W18451  24.929  41.379  10.765
47852W        W18452  35.551  23.536  12.440
47853W        W18453  38.589  27.784   1.279
47854W        W18454  28.796  41.828  12.467
47855W        W18455  17.186  43.368  10.702
47856W        W18456   2.800   4.873  10.796
47857W        W18457  18.135   4.341   2.268
47858W        W18458   5.874  16.874   1.305
47859W        W18459  19.611   7.256   4.538
47860W        W18460  16.142  19.721   4.022
47861W        W18461  32.509  26.669   4.889
47862W        W18462  40.334  28.144  10.684
47863W        W18463   7.350   3.857   2.634
47864W        W18464  34.144  43.111  13.005
47865W        W18465  12.642  30.009  11.985
47866W        W18466  41.013   1.463   4.270
47867W        W18467  38.339   1.960  11.966
47868W        W18468   1.347   4.234  11.914
47869W        W18469  10.163  33.611   1.754
47870W        W18470  33.949  27.373   3.609
47871W        W18471  27.073  21.009   4.524
47872W        W18472  29.931  28.628   4.085
47873W        W18473  23.160  32.682  11.925
47874W        W18474  43.921  18.119   1.619
47875W        W18475  23.533  28.454   0.757
47876W        W18476  11.612   8.257   3.072
47877W        W18477  18.145  22.985  11.184
47878W        W18478  42.380  36.400   3.711
47879W        W18479  30.732  11.014  10.902
47880W        W18480  44.271   8.776  10.728
47881W        W18481   1.817  28.487   4.647
47882W        W18482  40.502  29.463   2.200
47883W        W18483  27.478  32.614  11.257
47884W        W18484  25.004  19.136  14.241
47885W        W18485  30.525  15.711   4.350
47886W        W18486  23.168  43.328   2.186
47887W        W18487  15.715   8.662  11.829
47888W        W18488  34.362  18.683   1.826
47889W        W18489  33.923   6.878   1.722
47890W        W18490  31.131  24.002  13.449
47891W        W18491  44.287  42.262   4.700
47892W        W18492  13.709  41.524  11.212
47893W        W18493  40.878  15.690   1.904
47894W        W18494  34.573  32.835   2.336
47895W        W18495   3.010  21.669  10.667
47896W        W18496  19.196  24.557  13.760
47897W        W18497  28.028  16.812  14.723
47898W        W18498   5.942  16.303   1.931
47899W        W18499  29.616   8.649   4.456
47900W        W18500   0.027  44.312  11.010
47901W        W18501  43.312  38.011   4.543
47902W        W18502  25.809  32.863  14.858
47903W        W18503  28.557   8.758   4.092
47904W        W18504  37.293  38.078   0.820
47905W        W18505   8.607  22.709  14.960
47906W        W18506  22.514  22.812  13.955
47907W        W18507  42.507  42.331  11.698
47908W        W18508  24.705  34.088   3.119
47909W        W18509   7.214   9.641  12.961
47910W        W18510  24.213  42.788  11.405
47911W        W18511   3.026  32.431  10.304
47912W        W18512  29.984  11.721  10.762
47913W        W18513  19.667  21.623  12.203
47914W        W18514  36.445  14.078  13.063
47915W        W18515   3.378  39.023  11.170
47916W        W18516  10.409  39.964   9.795
47917W        W18517  36.846  27.375  10.736
47918W        W18518  39.481  44.445   1.239
47919W        W18519  29.705   2.988   3.710
47920W        W18520  25.531   5.728  11.853
47921W        W18521  34.059  31.221   1.184
47922W        W18522  33.458   0.937  12.886
47923W        W18523  11.614  39.283   4.549
47924W        W18524  15.250  15.110   2.340
47925W        W18525  24.898   7.788  13.099
47926W        W18526  10.593  41.608  11.022
47927W        W18527   7.549  29.992  10.442
47928W        W18528   4.458  37.096  14.693
47929W        W18529  40.483  38.567   1.917
47930W        W18530   7.570  44.674   4.075
47931W        W18531  25.440   4.801   2.266
47932W        W18532  26.067  33.073  14.461
47933W        W18533  37.142   8.968  13.786
47934W        W18534  32.290  29.194   2.354
47935W        W18535  25.166  20.549   4.544
47936W        W18536   8.391  28.899   2.181
47937W        W18537  27.068  22.822  13.412
47938W        W18538  28.693  32.245   0.652
47939W        W18539  31.633  13.699  11.145
47940W        W18540  16.327  32.395   4.175
47941W        W18541  23.179   0.357  10.702
47942W        W18542  23.245  42.921  10.193
47943W        W18543  35.493  19.302   4.226
47944W        W18544  12.729  30.994  12.339
47945W        W18545  40.139  32.856  12.211
47946W        W18546  24.058  41.968  10.669
47947W        W18547  43.521   0.381   4.375
47948W        W18548  32.356   5.416   1.452
47949W        W18549  29.421  15.172   2.834
47950W        W18550  11.143  30.855   2.331
47951W        W18551  23.324  42.492  14.651
47952W        W18552  18.344  19.237   3.936
47953W        W18553  28.901  22.477  10.925
47954W        W18554  39.819   5.777  14.111
47955W        W18555  26.359   9.892  12.410
47956W        W18556  14.588  37.559   2.319
47957W        W18557  24.194  22.504   0.010
47958W        W18558  38.104  42.404   3.567
47959W        W18559  33.166  31.613  11.044
47960W        W18560  10.447  36.974  12.106
47961W        W18561  42.570  19.613  12.918
47962W        W18562  37.763  34.075   2.281
47963W        W18563  35.489  36.542  12.563
47964W        W18564  35.849  19.202   3.894
47965W        W18565  36.882  13.752  13.585
47966W        W18566  14.592   8.554   4.206
47967W        W18567   8.646   1.230   2.261
47968W        W18568  28.555  21.752  11.603
47969W        W18569  35.867  24.423   0.839
47970W        W18570  34.628  25.305   4.086
47971W        W18571  33.955  39.522  11.562
47972W        W18572  27.719   7.957  11.555
47973W        W18573  39.489   8.845   0.799
47974W        W18574  25.603  26.478   3.041
47975W        W18575  15.082  26.538  13.570
47976W        W18576  31.321   3.759   1.419
47977W        W18577   2.353  29.143   0.830
47978W        W18578  28.068  33.887  11.028
47979W        W18579  36.249  35.051   4.508
47980W        W18580  36.171  14.762  13.316
47981W        W18581   5.723   9.666   0.261
47982W        W18582  36.339  12.086  13.579
47983W        W18583  36.036   1.619   0.233
47984W        W18584  15.000  20.073  13.011
47985W        W18585  15.261  13.093   3.305
47986W        W18586   5.551  33.208   4.417
47987W        W18587  26.500  30.866  14.347
47988W        W18588  12.197  43.634  10.701
47989W        W18589  25.596  39.408  12.465
47990W        W18590  15.397  39.276   3.427
47991W        W18591   1.655  30.000   2.032
47992W        W18592  29.836  30.604  13.858
47993W        W18593  37.782  11.884   4.647
47994W        W18594  38.302  35.017   0.293
47995W        W18595  24.895   4.394  14.049
47996W        W18596   6.862  32.135  14.884
47997W        W18597  12.718  27.468   3.295
47998W        W18598   9.030   8.699  11.102
47999W        W18599  16.290  37.424   3.672
48000W        W18600  28.495   9.122  12.036
48001W        W18601  36.843   3.347   4.635
48002W        W18602   2.721  24.201   1.859
48003W        W18603  15.813   8.639   1.503
48004W        W18604   9.212  37.546  10.196
48005W        W18605   6.370  28.505  12.467
48006W        W18606  38.827  29.556  10.780
48007W        W18607  22.970  43.164   0.002
48008W        W18608  13.133  39.549   1.048
48009W        W18609   8.179   8.292   0.388
48010W        W18610  43.854  39.514  12.493
48011W        W18611  41.579  22.163   0.883
48012W        W18612  38.494  13.276   3.743
48013W        W18613  42.990  32.870   0.746
48014W        W18614  21.046  32.211  13.880
48015W        W18615   4.827  35.972   4.147
48016W        W18616  24.196   9.822   2.556
48017W        W18617  28.672  39.413   4.615
48018W        W18618  32.977  34.758  12.066
48019W        W18619   7.923  39.539  10.460
48020W        W18620  19.201  30.572  12.521
48021W        W18621  22.684   6.460   4.359
48022W        W18622   4.885  14.854   4.230
48023W        W18623  12.452  15.325  14.409
48024W        W18624   5.125  29.023  10.690
48025W        W18625  34.685  13.830  13.526
48026W        W18626  15.815  35.609   2.491
48027W        W18627  33.008  38.439   0.727
48028W        W18628  41.360  15.994  10.979
48029W        W18629  16.045   9.655   0.863
48030W        W18630  14.207  20.164  11.767
48031W        W18631  30.072  42.298   4.256
48032W        W18632  30.266  10.311   0.835
48033W        W18633   7.636  18.407   3.626
48034W        W18634  39.430   3.562   4.618
48035W        W18635  19.600  12.653  11.673
48036W        W18636   4.338  34.939   0.028
48037W        W18637  34.560  36.515  12.404
48038W        W18638  34.033  43.569  11.204
48039W        W18639  14.706  34.215  12.115
48040W        W18640  36.031  13.350  13.467
48041W        W18641  43.833  32.670   1.751
48042W        W18642  34.979  41.953   2.322
48043W        W18643   1.747  35.486   3.265
48044W        W18644  15.024  15.694   0.288
48045W        W18645   3.365   7.870   1.791
48046W        W18646   4.230  43.834  10.591
48047W        W18647   7.351   5.897   4.572
48048W        W18648   8.935  34.002   2.914
48049W        W18649  21.596  13.300  12.831
48050W        W18650  23.496  30.790   4.974
48051W        W18651   5.426   5.897   3.869
48052W        W18652  33.131  32.651  11.047
48053W        W18653   7.004  26.777   0.337
48054W        W18654  38.902  36.292  11.201
48055W        W18655   5.365  33.897  13.078
48056W        W18656  27.145   6.545   2.756
48057W        W18657  17.738  17.225  10.998
48058W        W18658  35.036  19.124  14.746
48059W        W18659  40.859  16.505  12.595
48060W        W18660  41.479  17.611   2.286
48061W        W18661  44.983  26.675  11.192
48062W        W18662  30.013  14.469  14.198
48063W        W18663  23.095   4.789  12.733
48064W        W18664  36.493  44.106   0.673
48065W        W18665  25.274  39.160   0.679
48066W        W18666   1.682  13.366  11.040
48067W        W18667  25.115  31.711   3.228
48068W        W18668  43.350   3.922  10.149
48069W        W18669  18.540  41.703  12.546
48070W        W18670  29.418  24.978  11.051
48071W        W18671   1.687  13.043   5.058
48072W        W18672  30.641  15.764  10.669
48073W        W18673  38.150  26.536   4.204
48074W        W18674  23.725   9.706   3.215
48075W        W18675  25.721  40.469   3.309
48076W        W18676  17.694  34.276  14.112
48077W        W18677  17.726  25.524  13.372
48078W        W18678   4.820   2.927   0.434
48079W        W18679   8.845   9.438  12.985
48080W        W18680  33.058  17.246  11.110
48081W        W18681  15.568   3.449   3.789
48082W        W18682  37.673  36.733  10.904
48083W        W18683  15.845  12.577  10.721
48084W        W18684  38.800  17.616  11.508
48085W        W18685  12.455  31.363   0.775
48086W        W18686  25.559  27.681  11.812
48087W        W18687   8.796  17.497  13.426
48088W        W18688  16.047   1.021   3.342
48089W        W18689   9.120  43.199  11.575
48090W        W18690  20.489   4.503  11.435
48091W        W18691   4.472  38.863  13.138
48092W        W18692  14.382  14.511  12.074
48093W        W18693  40.004  44.651   3.743
48094W        W18694  37.972  15.119   2.846
48095W        W18695  19.164   0.769  10.778
48096W        W18696  11.881  31.990  13.382
48097W        W18697  10.641  25.093  13.414
48098W        W18698  25.220   0.518   1.630
48099W        W18699   4.111   5.944   4.632
48100W        W18700  38.213  29.672   0.289
48101W        W18701  10.341  12.093  14.692
48102W        W18702  20.762  19.057  12.719
48103W        W18703  22.091  35.329   1.186
48104W        W18704  30.252   7.406   2.398
48105W        W18705  23.692  14.594  11.619
48106W        W18706   6.872  11.118  12.717
48107W        W18707  15.662   1.998   3.202
48108W        W18708  23.317  36.210   3.417
48109W        W18709  35.301  43.380   3.129
48110W        W18710   6.216  38.310  11.619
48111W        W18711  18.010   0.393  11.776
48112W        W18712   4.160  39.512  13.002
48113W        W18713  34.897  27.498  14.794
48114W        W18714  26.632  25.669  11.332
48115W        W18715  38.035  22.467  10.638
48116W        W18716  37.370   6.041   4.267
48117W        W18717  21.637  31.849  13.065
48118W        W18718  25.179  38.944  14.047
48119W        W18719  10.725  22.228   0.802
48120W        W18720  36.310  27.088  10.376
48121W        W18721  26.971  11.354   4.652
48122W        W18722  25.539  21.685   2.925
48123W        W18723  27.103  27.778  10.876
48124W        W18724   0.939  36.491   4.047
48125W        W18725   8.965  41.932   4.663
48126W        W18726   3.854  28.736  14.364
48127W        W18727  12.695   3.156  14.771
48128W        W18728  43.459  33.108   1.455
48129W        W18729   3.287   0.709   3.116
48130W        W18730  23.304  40.804  13.014
48131W        W18731  28.753  42.567  13.618
48132W        W18732   2.889  17.831   4.967
48133W        W18733   7.839  11.341   2.662
48134W        W18734   3.861  39.872  14.831
48135W        W18735   5.241  43.945  10.508
48136W        W18736   9.159   5.893  11.638
48137W        W18737  11.100  30.887   2.847
48138W        W18738  31.343  25.190  12.986
48139W        W18739  11.259  41.543   2.776
48140W        W18740  24.746  35.479  13.265
48141W        W18741   8.923  16.682  14.307
48142W        W18742   7.752  43.346   1.818
48143W        W18743  26.161   9.445   4.970
48144W        W18744  17.288  29.826   3.283
48145W        W18745   8.986   1.842   4.138
48146W        W18746  42.905  35.575  11.568
48147W        W18747  38.911  11.875   3.775
48148W        W18748  18.829  32.520  12.547
48149W        W18749  18.437   4.947   1.756
48150W        W18750  25.560  32.454  13.983
48151W        W18751  20.700   7.405  10.485
48152W        W18752   4.820  40.293  10.299
48153W        W18753  21.580  43.749   1.693
48154W        W18754   0.995   2.869  13.259
48155W        W18755  35.120  10.478  13.405
48156W        W18756  11.176  36.508   2.746
48157W        W18757  14.850  41.560  13.285
48158W        W18758  38.131   6.173  14.399
48159W        W18759  39.086  44.258  12.965
48160W        W18760   7.942  31.148  11.542
48161W        W18761  44.807   8.147  14.261
48162W        W18762  39.545  23.220   1.999
48163W        W18763  15.002  10.461   4.185
48164W        W18764  16.585  29.382   1.162
48165W        W18765  38.925  27.170  14.079
48166W        W18766  25.101  20.943  14.772
48167W        W18767  27.680  29.974  13.397
48168W        W18768  10.605  37.163  12.634
48169W        W18769  17.764  43.409  11.411
48170W        W18770   6.733   0.944  12.118
48171W        W18771  27.034   6.155  10.453
48172W        W18772  41.300  31.845   0.887
48173W        W18773  13.714  39.532  10.912
48174W        W18774  27.475   4.907   0.816
48175W        W18775  11.993   6.314   0.656
48176W        W18776  12.539   1.380  13.528
48177W        W18777  21.245  25.406   3.892
48178W        W18778  37.965  35.601   4.107
48179W        W18779  36.871  15.749   2.847
48180W        W18780   7.985  30.688  12.732
48181W        W18781  28.760  37.538   3.232
48182W        W18782   7.905  29.954   3.569
48183W        W18783  42.486  14.631   2.407
48184W        W18784  34.663  16.082  12.467
48185W        W18785  37.413  42.096  13.031
48186W        W18786  14.080  21.021   4.826
48187W        W18787  31.628   3.284   4.463
48188W        W18788  40.037  11.767   1.923
48189W        W18789  44.332  13.685   2.333
48190W        W18790  11.874  42.783  10.618
48191W        W18791  26.732  32.374  14.542
48192W        W18792  37.635  33.880   4.979
48193W        W18793  24.383  24.176   1.712
48194W        W18794   2.403  11.785   4.323
48195W        W18795  23.787  38.320   4.580
48196W        W18796  18.035  22.672   3.115
48197W        W18797   7.853  15.605  12.216
48198W        W18798   4.670  10.358   0.816
48199W        W18799  13.624  21.229  12.175
48200W        W18800   2.154  37.914  12.661
48201W        W18801  41.704  39.256  13.482
48202W        W18802  35.325   2.025  14.501
48203W        W18803  43.284  23.971   4.427
48204W        W18804  38.489   2.661   1.006
48205W        W18805   6.815  15.883   0.799
48206W        W18806  29.158  41.884   0.179
48207W        W18807  28.131  22.115  10.634
48208W        W18808  30.662  38.796   0.892
48209W        W18809  22.782  10.659  13.787
48210W        W18810  32.563  20.571  13.097
48211W        W18811  39.414  11.716  10.151
48212W        W18812  43.439   1.339  13.890
48213W        W18813  24.807  38.769  14.870
48214W        W18814  36.354  25.341   2.332
48215W        W18815  32.102  43.419   2.719
48216W        W18816  24.797  24.434   0.832
48217W        W18817  35.620  22.567  10.956
48218W        W18818  28.381   9.859   3.582
48219W        W18819  18.746  19.663   4.814
48220W        W18820  29.754   1.716   3.572
48221W        W18821  41.907  13.051   4.881
48222W        W18822  32.613  22.123   3.374
48223W        W18823  44.027  42.603  13.915
48224W        W18824  18.504   6.980  11.931
48225W        W18825  14.592  25.238  10.786
48226W        W18826   5.273  35.744  14.265
48227W        W18827   0.631  24.465  12.593
48228W        W18828  35.976  12.831  13.471
48229W        W18829  36.612  19.483   3.396
48230W        W18830  18.616  43.739   2.670
48231W        W18831  42.419   8.835   0.195
48232W        W18832  31.131   4.638  14.561
48233W        W18833  18.282   8.581   0.852
48234W        W18834   8.921  29.838  12.039
48235W        W18835   9.698  10.256  14.357
48236W        W18836   7.237   1.733   3.112
48237W        W18837   0.965   5.414  13.826
48238W        W18838  18.262  42.361  11.861
48239W        W18839  28.771   1.565   2.085
48240W        W18840  23.563   6.537  12.576
48241W        W18841  43.345  35.844   0.769
48242W        W18842  12.237  31.002  10.565
48243W        W18843  28.218  27.709   4.735
48244W        W18844  15.265  21.965  11.141
48245W        W18845  36.697  14.129   0.472
48246W        W18846  23.543  28.967  10.597
48247W        W18847   9.260  11.585   2.317
48248W        W18848  36.916  33.108   0.070
48249W        W18849  44.607  29.493  11.705
48250W        W18850  34.571   8.246  11.114
48251W        W18851   7.374  12.912   4.889
48252W        W18852  13.262  44.335  14.925
48253W        W18853  20.248   9.124  12.887
48254W        W18854   8.138  14.269  11.058
48255W        W18855  31.547  31.529   4.062
48256W        W18856  26.686  39.588   2.946
48257W        W18857  18.582   2.544  12.215
48258W        W18858  28.410  32.555   1.720
48259W        W18859  35.494  27.829   3.192
48260W        W18860  41.570   3.759  11.346
48261W        W18861  22.122  30.622   4.460
48262W        W18862  23.169  40.111   1.796
48263W        W18863  17.212  18.996   1.326
48264W        W18864  23.106  18.948   3.055
48265W        W18865   3.379  12.417  12.926
48266W        W18866  11.927  15.578  11.687
48267W        W18867   4.866  18.685  11.727
48268W        W18868  35.775  36.929  14.261
48269W        W18869  11.836  11.743  11.438
48270W        W18870  44.416  24.193  14.405
48271W        W18871  40.490   8.670  10.936
48272W        W18872  15.684  30.331   4.250
48273W        W18873  32.185  17.757   0.251
48274W        W18874  36.000  13.366   0.466
48275W        W18875  12.741  22.186   3.717
48276W        W18876   5.026   8.862   0.680
48277W        W18877  20.621  14.817  14.029
48278W        W18878   8.276  17.814   4.120
48279W        W18879   9.714   8.114  13.494
48280W        W18880   8.689  21.185   0.458
48281W        W18881  37.285  25.930   1.643
48282W        W18882   9.740  22.446  11.504
48283W        W18883  35.402   7.890   1.317
48284W        W18884  37.390  37.511   3.610
48285W        W18885  24.487  14.757   3.343
48286W        W18886  14.568  35.606  11.619
48287W        W18887  21.718  38.997  10.705
48288W        W18888   6.899  26.607   3.685
48289W        W18889  25.011   1.460   0.349
48290W        W18890  27.258  14.745   2.833
48291W        W18891  35.842  25.062  12.029
48292W        W18892  37.459  23.001  11.416
48293W        W18893   9.862  26.249  11.931
48294W        W18894  35.997  32.525  13.923
48295W        W18895  26.253  28.448  11.561
48296W        W18896  19.600  33.232  13.887
48297W        W18897  22.629  24.032  12.475
48298W        W18898  14.831  28.194   0.803
48299W        W18899  17.555  23.828   0.928
48300W        W18900  30.264  22.088   4.853
48301W        W18901  13.665   3.708  11.944
48302W        W18902  10.154  41.801   0.279
48303W        W18903   3.585  23.439   1.258
48304W        W18904  30.388  29.311  14.287
48305W        W18905   0.266   1.142  12.411
48306W        W18906   9.256  40.962   3.580
48307W        W18907  13.120  44.899  11.202
48308W        W18908   5.492  44.465   1.542
48309W        W18909   5.479  31.843  10.271
48310W        W18910  40.730  41.938   0.809
48311W        W18911  44.074  36.084  12.413
48312W        W18912  35.062  21.081   4.646
48313W        W18913  17.928  28.651  11.242
48314W        W18914  25.588  34.870   2.390
48315W        W18915  16.233  29.613   4.320
48316W        W18916  29.428  15.174   3.350
48317W        W18917  38.739  25.455   3.757
48318W        W18918  28.595  10.619  11.066
48319W        W18919   6.865   7.843  13.280
48320W        W18920  39.570  34.282  12.858
48321W        W18921  36.931   7.064  11.477
48322W        W18922  15.572   2.706  12.903
48323W        W18923  11.612   0.768   1.542
48324W        W18924   7.856   2.238  13.084
48325W        W18925  32.820  23.069   1.482
48326W        W18926  29.883   7.870  12.354
48327W        W18927  22.434  21.620  12.487
48328W        W18928   1.670  18.588   0.707
48329W        W18929  37.444  42.788  13.992
48330W        W18930  15.950  24.425   0.082
48331W        W18931  19.889  43.635  11.124
48332W        W18932  26.858  23.861  11.373
48333W        W18933   0.794  11.814   1.765
48334W        W18934  23.050  16.842   1.240
48335W        W18935  22.187   2.217  10.484
48336W        W18936  22.736  40.534   3.669
48337W        W18937  18.183   9.739  12.155
48338W        W18938   0.670   2.844   3.784
48339W        W18939  14.391   9.436  12.111
48340W        W18940  28.620   0.279  14.172
48341W        W18941   1.347  17.586  13.046
48342W        W18942   5.242  31.688  13.146
48343W        W18943   4.651  23.120   0.411
48344W        W18944   7.852  37.082  14.222
48345W        W18945  15.454  15.163  10.790
48346W        W18946  27.612  37.747  12.080
48347W        W18947  11.613  18.188   2.389
48348W        W18948  30.112   7.716   4.312
48349W        W18949  44.714   5.979   3.358
48350W        W18950  35.841  19.177  10.997
48351W        W18951  17.954  33.380  13.419
48352W        W18952  40.965  28.653   1.253
48353W        W18953  13.579   4.692   4.745
48354W        W18954  38.884  41.373   3.259
48355W        W18955  33.273  29.387  10.360
48356W        W18956   5.593  16.898  10.036
48357W        W18957  19.079  13.651  12.503
48358W        W18958   9.736  33.613  10.725
48359W        W18959   8.459  39.337   0.738
48360W        W18960  23.680  29.374   4.644
48361W        W18961  31.033  22.721  11.221
48362W        W18962   6.473  27.014   2.667
48363W        W18963  29.340  33.968  13.116
48364W        W18964   2.915   8.631   4.507
48365W        W18965  22.537  21.617   0.251
48366W        W18966  22.526  34.937  12.771
48367W        W18967  41.568   7.609  11.199
48368W        W18968  30.615   3.723   3.731
48369W        W18969  20.548  36.245   0.985
48370W        W18970  21.240   8.114  11.708
48371W        W18971  24.124  20.607   1.906
48372W        W18972  22.060  28.176  13.030
48373W        W18973  19.832  31.108   0.384
48374W        W18974  13.678   2.724   1.402
48375W        W18975  31.310  38.007  13.087
48376W        W18976  19.821  29.033   2.221
48377W        W18977  39.780  29.797  12.553
48378W        W18978  17.329   8.624   0.499
48379W        W18979  18.523   0.409   4.517
48380W        W18980  35.138  37.292  11.225
48381W        W18981  14.060   6.862   3.423
48382W        W18982   2.207  10.668   1.748
48383W        W18983   3.838  20.256  10.442
48384W        W18984  30.339  19.129   3.834
48385W        W18985   6.151   5.385   0.858
48386W        W18986   0.160  36.830   2.960
48387W        W18987  10.395  10.222   0.360
48388W        W18988  13.815  36.860   2.351
48389W        W18989   4.568  16.305  10.676
48390W        W18990  10.904  42.997  12.786
48391W        W18991  23.267  27.526   4.197
48392W        W18992  10.304   3.163  10.102
48393W        W18993  20.189  20.552  14.848
48394W        W18994  20.982   2.504  13.848
48395W        W18995  42.070  41.379   0.860
48396W        W18996  22.133  20.768  13.970
48397W        W18997  21.532  29.322  11.157
48398W        W18998   4.729  23.183   0.950
48399W        W18999  38.384  31.104   2.164
48400W        W19000  18.114  11.252  13.497
48401W        W19001  34.899  43.841   0.041
48402W        W19002  17.266  10.373   4.582
48403W        W19003  25.221  25.953   0.826
48404W        W19004  14.841  34.382  14.990
48405W        W19005  26.932  15.561  11.604
48406W        W19006  20.099  44.436  13.913
48407W        W19007  21.163  18.247   4.723
48408W        W19008  19.334  23.634   5.054
48409W        W19009  11.317  17.212   2.634
48410W        W19010  19.267   7.351  12.024
48411W        W19011   4.906  41.571   0.751
48412W        W19012  36.423  33.688   1.239
48413W        W19013   4.867   6.038   0.339
48414W        W19014   4.246  20.457   4.302
48415W        W19015  36.297  31.362  14.711
48416W        W19016  38.346  10.346  13.409
48417W        W19017  34.458  17.649  12.842
48418W        W19018   0.725  18.599  13.942
48419W        W19019  25.424  16.306  13.943
48420W        W19020  32.643  39.016   0.879
48421W        W19021  11.153  19.260  13.245
48422W        W19022  18.060  17.583  14.172
48423W        W19023   1.068  16.837  13.864
48424W        W19024  31.382   6.846  11.079
48425W        W19025  26.851   6.375  12.400
48426W        W19026  19.822  11.927  14.032
48427W        W19027   5.716  10.373   4.462
48428W        W19028  19.437  14.389  14.066
48429W        W19029  43.464  15.262  12.503
48430W        W19030  36.191  10.881  13.082
48431W        W19031  18.310  38.044   1.447
48432W        W19032  34.105  42.277  12.578
48433W        W19033  24.974  26.070   0.376
48434W        W19034  28.435  16.309   2.719
48435W        W19035  33.016  44.008   1.325
48436W        W19036   0.479  21.736  13.330
48437W        W19037  40.470  20.687  13.374
48438W        W19038   7.660   7.495   1.340
48439W        W19039  10.836  43.353   0.968
48440W        W19040  17.483  18.735  13.559
48441W        W19041   4.369  17.213   0.916
48442W        W19042  34.981  39.955   2.278
48443W        W19043   1.730  29.112  11.142
48444W        W19044  43.375  32.356   1.876
48445W        W19045  38.557  22.600  12.600
48446W        W19046  22.159  34.123  12.924
48447W        W19047  23.484  29.496  13.946
48448W        W19048  42.520   9.351   1.035
48449W        W19049  25.978   4.730  12.633
48450W        W19050  20.057  11.778   1.289
48451W        W19051   6.126  13.543  13.899
48452W        W19052  44.255  37.544   4.546
48453W        W19053   2.673  35.498  12.532
48454W        W19054   5.004  38.071  13.498
48455W        W19055  25.580  21.047  10.693
48456W        W19056  44.547  25.413   1.429
48457W        W19057  30.630  22.503  12.054
48458W        W19058  26.413  25.328   2.629
48459W        W19059  18.635   8.256  13.954
48460W        W19060   5.960  11.279  14.973
48461W        W19061  19.284  39.805   1.113
48462W        W19062   2.533  39.994  14.782
48463W        W19063  27.505  39.837  11.953
48464W        W19064   3.847  12.680   4.711
48465W        W19065  30.643  39.221  12.491
48466W        W19066   6.411  23.672  10.443
48467W        W19067   8.762   9.681   3.083
48468W        W19068  39.838  35.805  11.005
48469W        W19069  10.255  21.688  12.514
48470W        W19070  17.074   9.700  12.413
48471W        W19071  29.097  33.594   3.759
48472W        W19072  28.635  37.634   0.984
48473W        W19073  25.090  11.367  11.159
48474W        W19074  41.406  13.305  14.492
48475W        W19075   9.206  26.967   3.341
48476W        W19076  11.157  28.602   4.253
48477W        W19077   4.951  21.535   2.609
48478W        W19078  29.756  33.404   2.772
48479W        W19079  35.542  37.579  14.238
48480W        W19080   4.867  30.691   2.240
48481W        W19081  41.398  14.096   3.168
48482W        W19082  12.028  33.643   0.763
48483W        W19083   6.172   0.496  11.382
48484W        W19084  11.532  29.130  11.208
48485W        W19085   2.511  29.973   1.800
48486W        W19086  21.969   9.429  13.599
48487W        W19087  11.303  26.994  13.568
48488W        W19088  22.940  44.154  13.832
48489W        W19089  17.822  42.390   0.888
48490W        W19090  16.753  23.859   0.318
48491W        W19091  31.673   1.822   3.747
48492W        W19092  43.455   1.731  11.591
48493W        W19093  32.632   8.707   2.176
48494W        W19094  18.551   8.706  12.603
48495W        W19095  10.744  33.152   4.605
48496W        W19096  19.021   0.241   4.398
48497W        W19097   3.326  40.694   0.810
48498W        W19098  32.743  26.249   2.644
48499W        W19099  12.837  24.360   3.188
48500W        W19100  44.487   4.847  14.438
48501W        W19101  12.303  36.432   0.323
48502W        W19102  28.662  20.349  11.502
48503W        W19103  15.815   6.841  12.579
48504W        W19104  22.815  28.307  13.460
48505W        W19105   4.995  27.817   1.285
48506W        W19106  17.774  37.653   2.425
48507W        W19107  11.145  29.452   4.433
48508W        W19108  25.020   7.969   2.627
48509W        W19109  15.353  39.918   4.734
48510W        W19110  15.340  12.054   5.421
48511W        W19111   8.624   3.259  13.106
48512W        W19112   8.885  38.177  13.864
48513W        W19113  14.119   1.285  11.540
48514W        W19114  39.799  42.082  13.012
48515W        W19115  10.665  15.033  12.762
48516W        W19116   5.790   6.815  10.950
48517W        W19117  25.738  25.956   1.825
48518W        W19118   2.549  10.269  13.398
48519W        W19119  16.614  27.808  12.857
48520W        W19120  14.897  18.055   1.093
48521W        W19121  29.530  31.243   3.381
48522W        W19122   2.834  33.609   2.738
48523W        W19123  42.963  15.501   2.340
48524W        W19124  43.486   7.963   4.531
48525W        W19125  24.199  29.491   2.792
48526W        W19126  19.034  13.391   1.839
48527W        W19127  37.880  44.358  12.907
48528W        W19128  23.709  43.747   1.545
48529W        W19129  17.569  21.547  10.894
48530W        W19130  28.854  41.881  14.764
48531W        W19131  42.801  19.362   1.369
48532W        W19132  11.697  31.960  12.354
48533W        W19133  18.525   0.888   5.028
48534W        W19134  13.989  15.176  11.077
48535W        W19135   8.488  27.799   2.059
48536W        W19136  34.538  24.738  11.144
48537W        W19137  41.419  11.034   3.853
48538W        W19138  25.244  42.275  10.789
48539W        W19139  30.004  37.137  10.539
48540W        W19140  24.479  15.233   3.128
48541W        W19141  41.781  17.259   2.565
48542W        W19142  25.161  33.471  14.876
48543W        W19143  15.889   6.330  14.376
48544W        W19144   8.642  10.313  13.511
48545W        W19145  34.618  13.938   1.843
48546W        W19146   3.806  11.740  13.099
48547W        W19147  11.671   8.182  11.976
48548W        W19148   8.626  42.309  13.374
48549W        W19149  22.015  23.811  14.456
48550W        W19150  34.156   3.007   1.247
48551W        W19151  36.043  38.820   0.178
48552W        W19152  40.139  35.923  14.776
48553W        W19153  39.524   4.909   3.151
48554W        W19154  32.174   0.517  11.826
48555W        W19155  15.157   7.073   1.597
48556W        W19156  11.017  33.421  12.471
48557W        W19157  15.143   1.118   0.981
48558W        W19158  24.073  27.054  10.768
48559W        W19159  21.300  11.669   2.664
48560W        W19160  16.562  33.877  13.013
48561W        W19161  35.385  41.844  11.688
48562W        W19162  40.856  31.212   0.318
48563W        W19163  14.217  14.045   1.944
48564W        W19164  41.310  22.299   2.235
48565W        W19165  11.113   5.694   2.061
48566W        W19166  23.595   6.670  14.810
48567W        W19167  26.914   3.340  11.852
48568W        W19168  18.037  14.190   0.992
48569W        W19169   0.338  25.554  12.049
48570W        W19170  44.075  34.472   3.787
48571W        W19171  18.274  27.138  13.391
48572W        W19172  35.957  16.211   1.111
48573W        W19173   4.801  22.233  13.782
48574W        W19174   4.140   0.876  14.967
48575W        W19175   3.228  23.693  14.369
48576W        W19176  17.121  36.364   4.832
48577W        W19177  15.044   3.510   3.175
48578W        W19178  33.875  35.517   2.465
48579W        W19179  29.181   8.834   4.648
48580W        W19180  40.921  12.147  14.857
48581W        W19181  35.810   2.200  14.447
48582W        W19182   4.622   8.666  13.006
48583W        W19183  19.802  19.145   2.270
48584W        W19184  27.905  37.491   4.832
48585W        W19185  44.902  37.897  14.884
48586W        W19186  41.299  16.782   4.606
48587W        W19187  24.154  41.397   0.884
48588W        W19188  36.867  27.069  14.600
48589W        W19189  18.180  37.512   1.610
48590W        W19190  14.996  13.078   0.986
48591W        W19191  19.266  23.958   0.389
48592W        W19192  25.598  14.815  14.783
48593W        W19193  36.361  37.073   0.127
48594W        W19194  18.216  13.593  10.149
48595W        W19195  19.015  25.874  11.514
48596W        W19196   7.639  27.702   0.951
48597W        W19197  18.320  24.054  11.965
48598W        W19198   5.463   0.324  12.489
48599W        W19199  31.651   9.334  13.974
48600W        W19200  29.089   0.247   4.235
48601W        W19201  13.309  31.074   3.108
48602W        W19202  13.132  15.306  12.686
48603W        W19203  24.746   3.134   1.681
48604W        W19204   7.440  17.507  12.584
48605W        W19205  11.303  24.501  11.624
48606W        W19206  20.048  37.620   2.797
48607W        W19207  33.762   2.432  14.007
48608W        W19208   7.654   9.404  13.529
48609W        W19209   2.870  11.791   3.768
48610W        W19210  36.593  28.051  13.252
48611W        W19211  25.208  23.831   2.687
48612W        W19212   9.571  18.116  14.340
48613W        W19213  38.150  19.967   1.235
48614W        W19214  39.239  29.570  10.436
48615W        W19215  35.014   5.621  11.274
48616W        W19216  38.304   4.994  13.804
48617W        W19217  17.294  43.595   4.284
48618W        W19218   8.239  32.545   2.346
48619W        W19219  22.974  28.982   2.762
48620W        W19220  15.243   8.847   1.940
48621W        W19221  22.904  16.826  14.934
48622W        W19222   4.950   2.943   3.180
48623W        W19223  31.124  23.554   0.203
48624W        W19224  26.511  44.325  13.120
48625W        W19225  15.248   3.834   0.975
48626W        W19226   3.811  20.028   2.942
48627W        W19227  14.302  18.944  10.492
48628W        W19228  14.030  16.660  12.402
48629W        W19229   1.097  18.224   2.609
48630W        W19230   6.043  43.939  12.946
48631W        W19231  23.783   4.257   0.119
48632W        W19232   3.430  21.135  13.903
48633W        W19233   5.317  28.245   2.126
48634W        W19234  30.519  39.866  12.954
48635W        W19235   8.250  12.248   0.663
48636W        W19236  31.602  27.042  14.527
48637W        W19237  14.266  40.544  11.954
48638W        W19238  28.041  17.148  10.625
48639W        W19239  42.786   6.778   4.593
48640W        W19240  24.060   7.704  11.102
48641W        W19241  39.401  20.756   4.168
48642W        W19242  37.415  21.549  11.107
48643W        W19243  14.242  42.260   0.669
48644W        W19244   8.372   1.808  13.732
48645W        W19245  18.095  17.326   3.121
48646W        W19246  22.931   4.314   2.522
48647W        W19247  10.166  26.963   3.800
48648W        W19248  40.066  12.317  13.733
48649W        W19249  12.159  34.373  12.612
48650W        W19250   5.260  44.326   4.844
48651W        W19251  22.283  43.084  11.113
48652W        W19252  29.092   6.425  10.785
48653W        W19253  26.076  12.394  12.823
48654W        W19254  21.083   6.292  11.652
48655W        W19255  42.391  27.188  14.443
48656W        W19256  41.420  26.158   3.587
48657W        W19257  21.564  36.460  13.983
48658W        W19258  34.951  13.060  14.888
48659W        W19259  41.389  39.531   4.527
48660W        W19260   2.743   9.849  12.276
48661W        W19261  29.898  30.948  11.399
48662W        W19262   4.214  44.615  11.028
48663W        W19263  28.876  37.064   1.383
48664W        W19264   9.800  22.072   4.561
48665W        W19265  10.278  11.117  11.999
48666W        W19266  22.822  39.328  11.983
48667W        W19267  30.939  28.114   2.192
48668W        W19268   1.124   6.187   4.660
48669W        W19269  22.719   8.756  14.257
48670W        W19270  44.933  20.933   1.421
48671W        W19271  42.525   8.206  10.693
48672W        W19272   4.616  34.084  11.912
48673W        W19273  24.120  38.026   0.815
48674W        W19274  22.631  17.334   3.363
48675W        W19275   8.174   8.615  13.156
48676W        W19276  44.766  11.828  12.553
48677W        W19277  28.966  11.662   2.300
48678W        W19278   8.623  19.296  13.328
48679W        W19279  34.513  12.915   2.837
48680W        W19280   4.241  26.452   0.876
48681W        W19281  17.727   2.808  14.488
48682W        W19282  44.235  37.844   0.753
48683W        W19283   9.352  14.485   4.516
48684W        W19284  43.942  31.626  11.620
48685W        W19285  19.680  16.165  11.694
48686W        W19286  35.916  22.919   1.746
48687W        W19287  22.870   2.556  12.930
48688W        W19288  34.313   7.429  10.603
48689W        W19289  16.807   1.886  12.202
48690W        W19290  21.663  32.250   4.155
48691W        W19291  28.926  13.337   2.004
48692W        W19292  27.002  41.550   0.687
48693W        W19293  43.656  31.587  11.194
48694W        W19294   9.588  28.667   0.929
48695W        W19295  29.933  33.561   4.343
48696W        W19296  35.923  27.227   4.814
48697W        W19297  41.333  12.183  13.336
48698W        W19298   2.977   2.211  13.224
48699W        W19299  27.212  32.092  13.020
48700W        W19300  36.344  26.755  12.908
48701W        W19301   3.315  22.754  11.567
48702W        W19302   3.204  20.688   0.402
48703W        W19303  41.035  12.524   1.185
48704W        W19304  27.582  39.550   4.519
48705W        W19305  14.363  18.738   1.237
48706W        W19306  41.615  39.493  12.085
48707W        W19307  33.813  43.821   0.709
48708W        W19308   2.223  20.551   4.279
48709W        W19309  41.568  35.642  11.288
48710W        W19310  30.353  18.944   0.360
48711W        W19311  11.117  27.479  11.565
48712W        W19312  20.788  23.966   1.400
48713W        W19313  30.499   9.449   4.209
48714W        W19314  36.104  15.970   4.534
48715W        W19315   9.688  37.030   3.872
48716W        W19316  20.491  22.755  14.248
48717W        W19317  20.765  19.776   2.633
48718W        W19318   7.344  37.135   1.918
48719W        W19319  29.662   1.271  10.639
48720W        W19320  23.724  21.600   3.752
48721W        W19321  22.209  30.620  14.311
48722W        W19322   1.350  20.350   3.167
48723W        W19323   1.283  36.414  14.416
48724W        W19324  10.795  40.048   4.175
48725W        W19325  44.302  21.047  14.953
48726W        W19326  11.722   0.756   4.544
48727W        W19327   4.284   6.703   4.454
48728W        W19328  37.365  21.694  13.103
48729W        W19329   0.405  29.988   0.953
48730W        W19330  28.634   8.201  12.926
48731W        W19331   4.763  27.146   1.811
48732W        W19332  29.971  30.602  12.106
48733W        W19333   3.362  41.803  10.975
48734W        W19334  20.020   7.925   2.317
48735W        W19335   0.774  27.938   4.640
48736W        W19336  43.796  14.197   0.944
48737W        W19337  39.357  33.366   2.260
48738W        W19338  23.812  10.598  14.630
48739W        W19339  42.214  35.480   3.824
48740W        W19340  29.225   8.642   2.289
48741W        W19341  24.703  19.602  12.500
48742W        W19342  26.365  20.102  12.418
48743W        W19343  21.479  35.100  13.544
48744W        W19344  34.459  41.808   2.071
48745W        W19345  30.882  18.492  10.337
48746W        W19346  31.576  10.040  11.527
48747W        W19347  18.894   6.807   1.858
48748W        W19348   4.797  40.180   0.445
48749W        W19349  29.924   4.358  13.963
48750W        W19350  42.047   6.980  11.949
48751W        W19351  25.884   8.855  11.019
48752W        W19352   2.004   5.254  14.655
48753W        W19353   6.659  37.033  11.328
48754W        W19354  43.306  34.127  14.296
48755W        W19355  32.227   4.266  10.668
48756W        W19356  24.837  43.353  11.795
48757W        W19357  21.696  23.004   1.350
48758W        W19358  10.291  38.727   0.896
48759W        W19359  13.243  26.999   3.591
48760W        W19360  38.074  36.241   1.648
48761W        W19361  10.786   3.845  11.014
48762W        W19362  12.989  11.852   4.775
48763W        W19363  11.188  10.693   0.290
48764W        W19364  27.946  28.243  10.724
48765W        W19365  36.317  36.673  12.471
48766W        W19366  12.682  27.008   1.218
48767W        W19367  43.451   0.396   0.453
48768W        W19368  34.383  25.471   3.656
48769W        W19369   7.673  31.626   2.996
48770W        W19370  24.982   9.580  12.148
48771W        W19371  23.652  34.274  14.399
48772W        W19372  26.117   6.877  13.051
48773W        W19373  31.657  40.246   1.644
48774W        W19374  16.719  36.137  10.899
48775W        W19375  21.044  31.996   0.663
48776W        W19376  33.049  36.906  14.813
48777W        W19377  26.538  18.562   2.745
48778W        W19378  16.819  42.419  13.842
48779W        W19379  12.390  16.404   4.193
48780W        W19380   5.489  42.849  11.377
48781W        W19381  15.874   4.671  14.332
48782W        W19382  17.362  40.582   4.139
48783W        W19383  18.772  42.483  11.106
48784W        W19384   8.736  29.966   3.284
48785W        W19385  20.316  18.326  12.917
48786W        W19386  20.791  21.409   2.314
48787W        W19387  19.225  31.620  11.950
48788W        W19388   7.333  20.804   1.810
48789W        W19389  36.345  34.678  11.516
48790W        W19390  39.996  14.468  13.157
48791W        W19391  23.698  19.768   3.718
48792W        W19392   2.843  31.971  14.739
48793W        W19393  25.091   9.486  11.560
48794W        W19394   4.990  13.841  11.144
48795W        W19395   5.329  29.477   4.352
48796W        W19396   6.723  13.117  10.689
48797W        W19397  20.306   9.701  14.984
48798W        W19398  19.116   1.962  14.021
48799W        W19399  19.278  25.310   2.685
48800W        W19400  12.759  21.028   1.829
48801W        W19401   3.420  36.590   2.364
48802W        W19402  20.153   1.142  11.607
48803W        W19403  41.273  20.846   3.752
48804W        W19404  20.213  17.870   2.501
48805W        W19405  22.671  35.831   3.994
48806W        W19406  10.677  24.067  13.533
48807W        W19407   9.649  13.497  13.990
48808W        W19408   5.927  43.313  13.421
48809W        W19409  28.479  12.589   3.878
48810W        W19410  22.467   5.153  11.572
48811W        W19411   9.291  25.304   2.136
48812W        W19412  24.007   7.325   0.731
48813W        W19413  43.527   0.738   0.825
48814W        W19414   5.906  44.366   1.822
48815W        W19415  14.755  44.365   1.807
48816W        W19416  41.614   5.546  13.895
48817W        W19417  40.676  43.055   0.360
48818W        W19418  13.119  22.199   0.960
48819W        W19419   0.869  35.688  10.607
48820W        W19420  31.954  44.476  13.556
48821W        W19421   6.690  40.754   1.446
48822W        W19422   7.883  28.655   3.625
48823W        W19423   9.451   2.293  12.199
48824W        W19424  22.582  11.413   0.365
48825W        W19425  38.162  21.248  10.735
48826W        W19426  35.509  27.044   3.576
48827W        W19427   8.030  17.351  14.877
48828W        W19428  19.238  44.978  12.456
48829W        W19429   7.249   6.668   3.129
48830W        W19430   6.640  36.579  11.562
48831W        W19431   7.439   1.035  12.469
48832W        W19432  42.051  42.908   3.160
48833W        W19433  41.352  37.318   0.937
48834W        W19434  22.225  31.565   4.630
48835W        W19435   9.357   4.151   4.123
48836W        W19436   8.733  18.866  12.181
48837W        W19437  10.819  32.774  13.804
48838W        W19438   5.937  16.239  14.817
48839W        W19439  40.406  18.601  11.414
48840W        W19440  21.242   8.638  11.785
48841W        W19441  23.094  14.245  12.377
48842W        W19442  27.666  42.245   1.910
48843W        W19443  37.084  35.282  13.308
48844W        W19444  38.341  14.948  13.422
48845W        W19445   9.525  32.381   0.447
48846W        W19446  13.586  39.703   1.319
48847W        W19447  35.388  40.532  13.096
48848W        W19448  21.808  30.058   2.346
48849W        W19449  32.673  39.989   3.711
48850W        W19450   3.497  16.722   2.248
48851W        W19451   0.026  28.827   2.289
48852W        W19452   4.219  42.029  11.107
48853W        W19453  12.025  38.613   4.184
48854W        W19454   2.848  21.655  14.454
48855W        W19455  24.527   9.158  12.897
48856W        W19456  31.533  10.701  12.467
48857W        W19457  44.802   3.143   0.282
48858W        W19458  25.119  32.078  13.342
48859W        W19459   6.224  25.026  13.987
48860W        W19460   8.831   5.821   2.364
48861W        W19461  14.092   7.966   1.345
48862W        W19462  18.557  43.299   3.942
48863W        W19463  10.934  33.232  11.170
48864W        W19464  20.265  28.804   2.868
48865W        W19465  33.009  24.134   0.460
48866W        W19466   5.208  21.974   3.377
48867W        W19467  22.854  16.676   0.779
48868W        W19468  36.400   8.654  10.750
48869W        W19469  43.294  10.444   3.686
48870W        W19470  15.600  23.111   0.797
48871W        W19471   5.422  30.532  12.656
48872W        W19472  26.456   2.501   4.606
48873W        W19473  11.146  42.894  13.627
48874W        W19474  32.135  22.280  12.965
48875W        W19475  25.419   6.413  14.848
48876W        W19476  36.335   0.866   3.229
48877W        W19477  27.223  33.886  12.074
48878W        W19478   7.156  23.037  11.487
48879W        W19479   8.210  12.137  11.165
48880W        W19480  23.068  28.206   3.434
48881W        W19481   0.995  37.655   2.690
48882W        W19482  30.643  35.074   4.554
48883W        W19483  40.948  42.647   0.156
48884W        W19484   4.728  35.267  14.957
48885W        W19485   6.880  20.048   3.357
48886W        W19486   1.924   8.288  12.037
48887W        W19487  35.961  13.360   3.534
48888W        W19488  18.763  21.823  13.907
48889W        W19489  24.522  16.055   0.445
48890W        W19490  37.272  16.192  14.768
48891W        W19491  18.192   7.628   2.643
48892W        W19492  37.417  42.939   0.548
48893W        W19493  26.467  27.211  13.856
48894W        W19494  31.216   6.332   1.779
48895W        W19495   3.991  19.091  14.746
48896W        W19496  10.326  13.388   3.188
48897W        W19497  19.265  18.504  13.883
48898W        W19498  33.356  22.677  14.978
48899W        W19499  12.692   2.769   3.300
48900W        W19500  15.286   6.384   2.822
48901W        W19501  24.160   0.445  13.951
48902W        W19502  21.579   0.960   3.318
48903W        W19503   8.475  44.650  12.507
48904W        W19504  37.284  35.644  12.589
48905W        W19505  23.555   2.144   3.204
48906W        W19506  24.616  23.689   1.833
48907W        W19507  21.243  10.593  11.881
48908W        W19508  21.008   4.417   4.816
48909W        W19509   2.161  15.937  13.334
48910W        W19510  12.327  40.572   1.343
48911W        W19511  16.206  43.385   0.798
48912W        W19512   9.367  42.737   3.366
48913W        W19513  12.096   3.779  11.140
48914W        W19514  42.287  21.177   4.188
48915W        W19515  26.454  19.789  14.966
48916W        W19516  14.123  28.095   2.728
48917W        W19517  41.423   1.860   0.360
48918W        W19518  34.860   8.317   2.674
48919W        W19519  15.585  20.230   3.299
48920W        W19520  13.707  24.408   3.185
48921W        W19521  41.939   2.902   1.861
48922W        W19522  19.688  29.043   0.842
48923W        W19523  21.398   8.526  12.514
48924W        W19524  10.911   5.927  12.544
48925W        W19525  40.080  27.113   4.151
48926W        W19526   8.889   3.013   1.395
48927W        W19527  35.850  43.469  12.109
48928W        W19528  31.135   6.736  11.515
48929W        W19529  31.075   7.240  14.741
48930W        W19530   3.727   9.691  10.681
48931W        W19531  31.808  38.814  11.628
48932W        W19532   4.906  43.774  14.951
48933W        W19533  38.215  44.183   3.525
48934W        W19534  41.679   1.168   3.589
48935W        W19535   0.987  33.966   3.627
48936W        W19536  38.954  26.602  13.026
48937W        W19537  38.835  19.952  14.209
48938W        W19538  15.545  22.269  14.329
48939W        W19539  40.212  14.704   4.168
48940W        W19540  34.636  28.154  11.293
48941W        W19541  13.781  38.352   2.783
48942W        W19542   5.452  36.578   1.092
48943W        W19543  10.619  24.182  14.025
48944W        W19544   5.298   9.549  14.817
48945W        W19545  22.822   1.913   4.358
48946W        W19546  10.190  19.661  11.036
48947W        W19547  35.979  32.576  10.475
48948W        W19548   9.815  28.069   1.826
48949W        W19549  29.920  21.697  10.655
48950W        W19550  41.271  36.442  13.364
48951W        W19551  38.501   0.293  11.406
48952W        W19552  17.379  44.171  14.908
48953W        W19553  34.460  12.791  14.703
48954W        W19554   6.702  18.314   1.335
48955W        W19555  41.545  20.369   5.667
48956W        W19556   5.452  20.606  14.600
48957W        W19557   2.859  30.025   2.535
48958W        W19558  41.310  15.267   2.724
48959W        W19559   0.401   5.840   3.929
48960W        W19560  20.951  32.011   4.627
48961W        W19561  20.141  31.083  11.139
48962W        W19562  19.922   7.960  14.368
48963W        W19563  17.256   8.664   4.706
48964W        W19564  39.865  34.459  14.738
48965W        W19565  23.674   5.781  11.232
48966W        W19566   4.234   1.682   0.326
48967W        W19567  26.160  28.982  10.654
48968W        W19568  36.981   2.911  13.339
48969W        W19569  18.034  16.711   4.193
48970W        W19570  34.600  44.233  14.776
48971W        W19571  29.391   0.911   4.145
48972W        W19572   5.374   2.662   4.056
48973W        W19573  20.936  42.061   3.790
48974W        W19574  43.343   9.193   1.279
48975W        W19575  41.534   5.065  13.680
48976W        W19576  37.417  19.206  14.701
48977W        W19577  22.166  32.445   4.266
48978W        W19578   6.502  43.337  12.459
48979W        W19579  14.998  17.927  11.659
48980W        W19580  33.413  41.747  11.504
48981W        W19581   6.866  27.982  12.676
48982W        W19582  12.678  28.298  13.779
48983W        W19583  19.298  11.285  14.007
48984W        W19584  13.056  18.657  10.673
48985W        W19585  35.201  11.820  10.994
48986W        W19586  38.837   8.119   2.301
48987W        W19587  35.396  34.626  14.329
48988W        W19588  40.750  18.310  12.165
48989W        W19589  44.976  32.514  10.450
48990W        W19590  41.594   9.075  11.045
48991W        W19591   6.230  43.829  10.624
48992W        W19592  31.177  15.751   3.302
48993W        W19593  18.525  39.582  12.046
48994W        W19594   8.570  11.310   0.238
48995W        W19595   8.548  27.479   2.474
48996W        W19596  39.916  36.661  12.947
48997W        W19597  39.574  26.532  13.692
48998W        W19598  34.207  11.363   4.088
48999W        W19599  40.845  39.921  11.013
49000W        W19600  40.969   1.877   2.026
49001W        W19601  36.660   0.326  13.182
49002W        W19602   5.666  14.121  11.646
49003W        W19603  21.604   5.615   0.065
49004W        W19604  36.159  39.132   2.887
49005W        W19605   0.240  15.703   1.876
49006W        W19606  24.531   2.012  13.400
49007W        W19607  28.044  37.778   4.072
49008W        W19608  16.367  21.522   0.450
49009W        W19609  20.371  15.008  13.610
49010W        W19610  19.699   6.014  13.280
49011W        W19611  36.586  38.847  11.455
49012W        W19612  22.080   3.656  12.528
49013W        W19613  37.408  44.567   3.329
49014W        W19614  29.191  42.871   4.271
49015W        W19615  39.551  17.832  12.616
49016W        W19616  39.062  30.136   2.896
49017W        W19617  35.985  26.691   2.703
49018W        W19618  32.613  36.881  12.927
49019W        W19619   3.513  42.098  12.315
49020W        W19620  23.823  17.235  13.895
49021W        W19621  42.538  35.614   4.200
49022W        W19622  29.355  41.428   1.414
49023W        W19623  34.175  24.335  11.151
49024W        W19624  44.300  43.809  11.528
49025W        W19625  21.439  23.512  14.262
49026W        W19626  15.097   7.781  14.311
49027W        W19627  18.138   3.817   0.261
49028W        W19628  35.479  28.626  12.440
49029W        W19629   9.938  31.458   2.396
49030W        W19630  15.235  40.210   2.267
49031W        W19631  40.430  21.001   1.387
49032W        W19632  14.562  38.667   4.686
49033W        W19633  11.619  24.670  10.730
49034W        W19634  24.640  16.179  14.949
49035W        W19635  27.960  38.503  11.106
49036W        W19636  18.793  30.519  13.396
49037W        W19637  40.054  13.412   1.359
49038W        W19638  31.182   7.962  12.545
49039W        W19639  34.515  10.220  11.042
49040W        W19640  15.764  22.761   4.631
49041W        W19641   3.803  26.921   2.830
49042W        W19642   4.338  42.548  11.786
49043W        W19643   3.131  28.086  10.856
49044W        W19644  32.837   6.640   2.607
49045W        W19645  41.926  15.694  11.941
49046W        W19646   8.275   4.170   4.596
49047W        W19647  33.673  35.999  10.354
49048W        W19648  32.668  25.390   2.308
49049W        W19649   3.872  27.143  13.776
49050W        W19650  39.961  26.096  12.973
49051W        W19651   1.488  42.960  12.406
49052W        W19652  39.166   5.196  11.134
49053W        W19653   1.780  18.114  10.730
49054W        W19654  36.567  21.999   0.421
49055W        W19655   8.109  38.547  11.922
49056W        W19656  19.595  33.397  14.733
49057W        W19657  25.318   0.481  10.546
49058W        W19658  20.150   7.264  13.598
49059W        W19659  35.851  38.393  14.955
49060W        W19660   1.430  14.582  11.710
49061W        W19661  28.024   8.000  10.705
49062W        W19662   1.576  27.010  14.383
49063W        W19663  30.609  39.520  13.325
49064W        W19664  29.032  16.549  14.746
49065W        W19665  26.224  43.866   2.693
49066W        W19666   7.878  31.657  11.632
49067W        W19667  41.312  11.473  10.837
49068W        W19668  20.255  41.939  13.555
49069W        W19669  18.230  32.075   3.688
49070W        W19670  12.818  34.021  10.642
49071W        W19671   0.610  23.155   5.044
49072W        W19672  24.579  13.802   4.651
49073W        W19673  24.028  24.566  14.328
49074W        W19674  40.501  10.563  14.397
49075W        W19675  39.368  43.861  11.802
49076W        W19676  21.820  20.026  14.370
49077W        W19677  23.977  31.267   0.355
49078W        W19678  40.481  44.460   3.804
49079W        W19679   1.192   9.619  13.605
49080W        W19680   4.971   4.948   2.263
49081W        W19681  36.439  32.959   4.663
49082W        W19682  34.461  10.593   4.327
49083W        W19683  37.922   0.445  10.729
49084W        W19684  42.025  11.764   5.080
49085W        W19685  20.097  35.962   1.689
49086W        W19686  42.215  31.556  12.988
49087W        W19687   1.365  16.179   4.472
49088W        W19688  23.394  19.591   2.402
49089W        W19689  34.445  28.447   1.338
49090W        W19690   2.674  36.022   4.855
49091W        W19691  14.838  20.883   2.135
49092W        W19692  22.783  42.792  13.862
49093W        W19693  29.463  12.035  12.175
49094W        W19694   3.138  34.502  13.313
49095W        W19695   7.176  11.261   0.466
49096W        W19696  40.000  35.620  14.390
49097W        W19697   2.693  16.551   1.818
49098W        W19698  15.279  15.832   4.543
49099W        W19699  15.119  31.667   3.075
49100W        W19700  39.961  30.059  11.533
49101W        W19701  30.480  44.456   3.769
49102W        W19702  11.707  27.957  13.278
49103W        W19703   7.236  40.511   3.188
49104W        W19704  28.093  19.286  11.086
49105W        W19705  44.114  40.258  11.582
49106W        W19706  29.943  24.209   3.889
49107W        W19707   1.434  12.729  11.122
49108W        W19708  34.875   0.019  12.243
49109W        W19709  27.501  18.179  14.387
49110W        W19710  40.577  17.834  10.827
49111W        W19711  11.513  40.157  12.502
49112W        W19712  27.107   7.313  11.599
49113W        W19713  38.711  22.698  13.562
49114W        W19714  39.251  29.599   1.244
49115W        W19715  33.732  34.614   3.688
49116W        W19716  44.061   2.494   4.934
49117W        W19717  17.788  33.350   0.827
49118W        W19718   5.744  24.742   4.534
49119W        W19719  30.046   7.124  13.981
49120W        W19720  35.402  26.039  14.340
49121W        W19721   1.204  30.383  14.821
49122W        W19722   3.459  29.278  10.776
49123W        W19723   9.927  24.662  11.632
49124W        W19724   6.045   0.503   2.521
49125W        W19725  17.243  43.687  10.280
49126W        W19726   3.910   0.546   1.819
49127W        W19727  10.314  27.792  12.185
49128W        W19728  43.934  14.194  14.898
49129W        W19729  26.869  39.479  11.157
49130W        W19730  13.224  27.733  10.563
49131W        W19731   5.030  16.298  10.404
49132W        W19732  19.781  41.975  13.094
49133W        W19733  27.385  44.739   3.553
49134W        W19734  37.847   5.685   0.944
49135W        W19735   3.471  28.532  12.803
49136W        W19736  39.304   1.482   4.079
49137W        W19737  24.495   3.798   1.516
49138W        W19738  41.942  15.610   3.179
49139W        W19739  14.861   4.866  13.572
49140W        W19740   3.256  31.065  10.909
49141W        W19741   1.667   2.250  14.221
49142W        W19742  14.743  28.397   4.894
49143W        W19743  21.031  32.000  11.698
49144W        W19744  16.771  14.372   0.077
49145W        W19745  22.408   9.563  12.953
49146W        W19746  40.703  37.065  11.176
49147W        W19747  22.382  39.383   0.753
49148W        W19748  20.324  44.583  11.192
49149W        W19749  27.692  30.521   4.756
49150W        W19750  25.696  15.470  11.130
49151W        W19751  33.973   1.443  14.341
49152W        W19752  34.275  14.805   4.338
49153W        W19753  42.108  36.085  13.385
49154W        W19754   1.336  43.872  12.423
49155W        W19755  39.315  30.424   4.887
49156W        W19756  20.193  10.750   1.363
49157W        W19757  13.838   9.752   2.762
49158W        W19758   3.398  16.633   0.880
49159W        W19759  10.923  39.069   0.389
49160W        W19760  34.125  10.708  13.931
49161W        W19761  36.965   7.220  12.477
49162W        W19762  33.746  29.652   9.978
49163W        W19763  12.720  35.060  10.627
49164W        W19764  32.532  10.936  13.583
49165W        W19765  21.623  19.095  10.789
49166W        W19766  39.939  22.995  14.676
49167W        W19767  33.167  36.116   4.834
49168W        W19768  32.575  20.751   1.454
49169W        W19769   6.383  25.453  10.727
49170W        W19770  13.070  14.407  11.642
49171W        W19771  35.089  27.098  13.305
49172W        W19772   2.424  22.427   1.470
49173W        W19773   6.857  19.071   3.472
49174W        W19774  27.472  44.727   0.120
49175W        W19775  34.298  35.017   4.899
49176W        W19776  42.166  25.400  13.434
49177W        W19777  43.101  42.275   1.275
49178W        W19778   3.704  44.717   3.290
49179W        W19779  29.918   8.245   0.891
49180W        W19780  44.712   6.812   4.669
49181W        W19781  11.599  32.864   3.324
49182W        W19782   1.348  26.163   1.237
49183W        W19783  39.369  34.746   2.720
49184W        W19784  42.649   4.700   0.876
49185W        W19785  21.534  40.980  13.899
49186W        W19786  14.906  27.999  12.497
49187W        W19787  26.628  13.817   2.068
49188W        W19788  20.708   1.044  13.739
49189W        W19789  28.421  17.418  13.881
49190W        W19790   0.732  29.356  11.108
49191W        W19791  29.522  10.839   1.441
49192W        W19792  25.573  39.813  14.523
49193W        W19793  44.770  21.308   4.914
49194W        W19794   0.804  20.922  12.309
49195W        W19795  30.765  24.927   3.233
49196W        W19796   3.494  43.182  14.912
49197W        W19797  18.795  34.569   3.991
49198W        W19798  33.169  30.446  11.109
49199W        W19799  37.408  18.702   4.571
49200W        W19800  19.068  31.765   3.722
49201W        W19801  33.364  40.048  12.586
49202W        W19802  38.989   5.859   0.342
49203W        W19803  23.690  17.340  10.486
49204W        W19804  31.501  37.278   3.903
49205W        W19805  30.734  11.667  12.746
49206W        W19806   4.509  38.419  13.440
49207W        W19807  24.355  22.182   3.486
49208W        W19808   4.644   9.856   4.626
49209W        W19809  32.180   7.713   4.626
49210W        W19810  22.613  33.352  11.610
49211W        W19811  22.019  37.216   3.185
49212W        W19812  32.634   3.963   2.903
49213W        W19813  42.566   7.803  14.523
49214W        W19814  28.695  13.648   0.325
49215W        W19815  13.836  40.929   2.323
49216W        W19816  14.264  33.526   3.775
49217W        W19817  40.107  21.259   1.966
49218W        W19818  20.755   9.932   2.744
49219W        W19819  36.274  10.835   4.573
49220W        W19820   3.747  44.971   1.008
49221W        W19821  16.101  43.346  14.354
49222W        W19822  34.375  24.874   2.765
49223W        W19823  21.693  24.059   2.366
49224W        W19824  12.798  24.310  11.937
49225W        W19825  32.907  12.472   3.681
49226W        W19826  24.992   4.853  10.726
49227W        W19827  23.507  15.990   0.157
49228W        W19828  27.205  26.964   2.592
49229W        W19829  10.684  39.547  13.143
49230W        W19830  40.202  14.301   1.399
49231W        W19831  32.134  23.666   2.876
49232W        W19832  43.237  23.404  11.897
49233W        W19833  18.944   1.170  14.524
49234W        W19834  32.227  11.971  12.459
49235W        W19835  29.092  42.265  12.520
49236W        W19836   7.444  30.990   2.395
49237W        W19837  27.522  29.010  13.663
49238W        W19838   8.622  38.337  14.467
49239W        W19839  15.696  28.055   1.833
49240W        W19840  40.544   9.480   2.191
49241W        W19841  26.361  16.637   2.730
49242W        W19842  42.379  43.473   4.543
49243W        W19843  19.749   2.345  10.618
49244W        W19844  27.572   1.855   3.347
49245W        W19845  17.565  11.223   2.683
49246W        W19846  40.413   2.632  10.905
49247W        W19847  17.677  38.394   1.881
49248W        W19848  26.058  35.100  11.485
49249W        W19849  40.574  44.507   2.917
49250W        W19850  23.929  16.194  12.228
49251W        W19851   5.372  28.140  13.012
49252W        W19852   0.564  13.539  11.663
49253W        W19853  41.519  22.822  12.823
49254W        W19854  43.990  22.149   0.633
49255W        W19855   2.553  33.646  11.567
49256W        W19856   6.876  18.292  12.912
49257W        W19857  36.497   2.799   2.313
49258W        W19858   6.753  37.106   0.009
49259W        W19859  19.949  20.826  11.664
49260W        W19860   5.830  19.185   5.043
49261W        W19861  21.970   6.775  13.010
49262W        W19862  31.850   0.604   2.182
49263W        W19863  27.185  41.879   3.279
49264W        W19864  13.308  34.217   2.859
49265W        W19865  31.485  31.508   0.394
49266W        W19866  30.970  35.135  12.691
49267W        W19867  23.076  39.813   0.329
49268W        W19868  39.033  27.097  13.101
49269W        W19869   2.415  41.506  10.413
49270W        W19870   8.422  44.923   2.259
49271W        W19871  32.352  24.983  12.900
49272W        W19872  44.054   7.307   3.882
49273W        W19873  43.441  10.242   0.199
49274W        W19874  10.420   2.436  13.120
49275W        W19875   2.193   0.064  13.890
49276W        W19876   9.732  26.570  13.898
49277W        W19877  26.298  31.316   1.810
49278W        W19878  41.098  41.621   2.924
49279W        W19879   8.233  26.524  14.934
49280W        W19880  10.773  37.941  14.404
49281W        W19881  13.584  20.630   3.708
49282W        W19882  44.306  42.401   0.000
49283W        W19883   8.695  40.232   2.684
49284W        W19884  14.668  31.054   2.506
49285W        W19885  28.179  24.598  13.120
49286W        W19886  17.525  41.075   4.093
49287W        W19887   9.262   0.340   1.329
49288W        W19888  39.620  41.936  10.490
49289W        W19889  21.375  30.389   4.055
49290W        W19890  22.868   0.988   4.099
49291W        W19891   2.476  38.005  14.935
49292W        W19892  28.556  10.221  14.609
49293W        W19893   1.774  11.666   0.252
49294W        W19894  32.988  29.560  11.860
49295W        W19895  32.943   5.563  10.650
49296W        W19896  27.448   0.177  14.831
49297W        W19897  10.083  37.663   1.817
49298W        W19898  44.739  31.868  11.971
49299W        W19899   0.493   6.702  12.016
49300W        W19900  28.677  13.227   2.453
49301W        W19901   7.954   9.880  13.326
49302W        W19902  40.998  36.573  12.096
49303W        W19903   0.492  26.684  11.451
49304W        W19904  36.948  23.414   2.346
49305W        W19905  12.708  19.088  12.060
49306W        W19906  33.043  29.964  14.130
49307W        W19907  34.702   2.396  12.603
49308W        W19908  27.208  24.689   0.894
49309W        W19909  29.474  23.083   3.137
49310W        W19910   2.291  27.700   2.263
49311W        W19911  36.453  40.552   1.258
49312W        W19912  15.091  30.080  10.655
49313W        W19913  27.133  19.230   2.292
49314W        W19914  23.661  12.322   1.860
49315W        W19915  19.655  14.147   4.699
49316W        W19916  22.029  14.639  13.415
49317W        W19917   1.896   6.182  11.114
49318W        W19918   9.590  38.417   0.396
49319W        W19919  33.122  22.790   2.761
49320W        W19920   6.666   5.907   0.918
49321W        W19921  28.023   1.626   3.249
49322W        W19922  35.948  21.251   0.966
49323W        W19923  19.122   0.995  12.581
49324W        W19924   4.351  37.630  11.147
49325W        W19925  21.802  18.835   2.761
49326W        W19926   4.150   4.512  10.158
49327W        W19927   5.003  11.160  12.691
49328W        W19928  21.160  29.977  13.844
49329W        W19929   8.611  40.874  11.652
49330W        W19930   8.263  31.941  14.249
49331W        W19931  42.834   6.230   1.894
49332W        W19932  30.608  31.606  14.980
49333W        W19933  14.807  29.866  13.770
49334W        W19934  23.541   3.807   2.970
49335W        W19935   2.511  37.970   4.079
49336W        W19936   8.627  18.314   2.381
49337W        W19937  18.987   0.869   1.737
49338W        W19938  38.449  25.885  12.137
49339W        W19939   9.434  43.433  13.463
49340W        W19940  38.978   3.841  14.593
49341W        W19941   2.742   4.775   4.336
49342W        W19942  10.398  31.167  13.956
49343W        W19943   5.689  39.802  12.001
49344W        W19944  19.319   0.388   0.856
49345W        W19945  30.811  25.988  10.552
49346W        W19946   1.465  24.138   2.088
49347W        W19947  25.205  22.208  11.063
49348W        W19948  29.488  34.881  13.117
49349W        W19949   0.413  37.445   4.160
49350W        W19950  23.778  39.726   4.644
49351W        W19951  34.360  23.857   0.375
49352W        W19952  35.394  15.685  13.508
49353W        W19953  17.840   6.838   0.326
49354W        W19954  17.679  43.030  14.519
49355W        W19955   5.363  14.703  10.870
49356W        W19956  38.553  26.949   1.764
49357W        W19957   8.276  25.053  11.698
49358W        W19958  22.544  33.964  13.397
49359W        W19959  29.092  20.517  11.801
49360W        W19960   2.418  23.260   2.774
49361W        W19961   4.117  35.970  14.764
49362W        W19962   2.370  13.690  14.595
49363W        W19963  34.335   7.899  10.360
49364W        W19964  43.054  13.777  13.445
49365W        W19965   9.268  16.285  11.115
49366W        W19966  24.849  43.097   0.271
49367W        W19967   9.749  37.308   3.320
49368W        W19968  24.066  41.443   2.876
49369W        W19969  18.498  26.597   3.168
49370W        W19970   0.766   6.160   3.770
49371W        W19971  31.589  37.563   1.376
49372W        W19972  37.992  39.569  10.642
49373W        W19973  38.404  17.546   3.244
49374W        W19974  28.095  18.790   3.487
49375W        W19975  44.764  31.630  14.719
49376W        W19976  43.320  38.268  11.237
49377W        W19977  21.075  18.662   4.395
49378W        W19978  17.508  38.542  11.680
49379W        W19979   5.308  39.827  11.497
49380W        W19980  16.954  10.401   4.131
49381W        W19981   3.943  43.746  11.615
49382W        W19982   4.537   3.900  13.413
49383W        W19983  43.041   1.643  10.328
49384W        W19984  42.547  23.045  13.086
49385W        W19985  17.033   5.806  12.744
49386W        W19986  36.055  39.115  13.947
49387W        W19987  17.134  43.595   3.757
49388W        W19988  33.147  22.044  12.084
49389W        W19989  16.724  41.535  13.739
49390W        W19990   3.851  23.102  12.891
49391W        W19991   7.907  30.729  14.005
49392W        W19992  34.183  20.611  10.800
49393W        W19993  21.521  19.304  11.264
49394W        W19994  22.105  15.145   2.988
49395W        W19995  30.449   6.693  14.840
49396W        W19996  33.936  19.110  10.850
49397W        W19997  37.837  24.962   0.458
49398W        W19998  10.645  19.797   3.170
49399W        W19999  14.677  17.196  13.384
49400W        W20000   6.394  33.275  14.000
49401W        W20001   0.382  42.993   1.485
49402W        W20002   8.351  11.625   2.882
49403W        W20003  38.513   2.309  13.099
49404W        W20004  35.370  15.199  11.178
49405W        W20005  12.784  25.383   3.249
49406W        W20006  41.500  21.946   1.894
49407W        W20007  33.920  42.037  11.705
49408W        W20008  38.846  16.656  12.479
49409W        W20009   4.742  28.696  13.341
49410W        W20010   6.687  33.657  11.519
49411W        W20011  12.238  32.789   0.416
49412W        W20012   8.688  11.148   0.955
49413W        W20013  17.648  15.536   0.978
49414W        W20014  40.046  32.490  14.377
49415W        W20015  40.388  39.040  10.305
49416W        W20016  31.034   4.934   1.781
49417W        W20017  15.716  29.095   2.410
49418W        W20018  20.566  36.020   1.471
49419W        W20019   9.801  43.277   4.345
49420W        W20020  26.185   3.867  13.960
49421W        W20021  39.814  29.564  13.385
49422W        W20022  16.678  15.507   1.955
49423W        W20023  26.104  25.676  11.204
49424W        W20024  38.165  23.794  10.749
49425W        W20025   9.892  18.091  14.751
49426W        W20026   6.671   8.330  12.082
49427W        W20027  38.424  24.835  13.066
49428W        W20028  27.217  31.420   1.787
49429W        W20029  24.462  28.783   2.255
49430W        W20030   1.386  33.932  11.412
49431W        W20031  26.201   0.862  11.661
49432W        W20032  15.741  43.567  11.346
49433W        W20033  40.070  25.158  11.665
49434W        W20034   6.300  39.855   1.362
49435W        W20035  11.358  19.321  14.057
49436W        W20036  16.664  28.637   3.844
49437W        W20037   8.345  40.964  12.084
49438W        W20038   2.415  26.561   0.420
49439W        W20039   5.399  19.207  13.287
49440W        W20040  32.567  40.185   1.488
49441W        W20041  11.199  41.458   1.816
49442W        W20042  34.342  19.257   1.068
49443W        W20043   4.728  19.117   1.872
49444W        W20044  38.043  40.183  12.882
49445W        W20045   0.427  35.350  10.674
49446W        W20046  42.505   0.088   0.308
49447W        W20047  23.796  14.647   0.388
49448W        W20048  39.468  44.860  14.058
49449W        W20049  27.437  12.838   1.266
49450W        W20050  33.791  21.564   1.611
49451W        W20051   7.812  36.195   3.172
49452W        W20052   9.894   6.082  12.468
49453W        W20053  18.822  11.720  10.809
49454W        W20054  26.351  33.547  12.557
49455W        W20055  41.139  24.236  13.466
49456W        W20056  17.648  12.944  10.674
49457W        W20057  41.037  44.825   1.449
49458W        W20058   2.211   7.244   0.359
49459W        W20059  38.756  31.487   2.387
49460W        W20060   9.162  24.922  12.642
49461W        W20061   8.833  35.319   3.253
49462W        W20062  39.733  39.425   3.870
49463W        W20063  35.211  41.354   4.211
49464W        W20064  42.300  17.232  12.467
49465W        W20065   9.189  39.882  10.604
49466W        W20066   8.848  17.529   1.276
49467W        W20067  41.406   7.281   0.104
49468W        W20068  17.942   0.431  14.140
49469W        W20069   1.013  31.178   1.855
49470W        W20070  40.287  35.677  13.349
49471W        W20071  42.446  33.634  14.317
49472W        W20072  30.033   5.478  11.355
49473W        W20073  21.086  15.497  12.702
49474W        W20074   1.503  31.945   3.681
49475W        W20075  20.593   2.001  11.670
49476W        W20076   9.236  21.114   2.274
49477W        W20077   5.154  34.466  12.069
49478W        W20078  35.257  26.657   1.217
49479W        W20079  41.813  24.957   0.211
49480W        W20080  17.237  43.325   2.899
49481W        W20081  29.737  25.212  11.956
49482W        W20082  11.405  10.833   3.285
49483W        W20083  40.432   4.907   2.990
49484W        W20084  26.491   7.261  14.342
49485W        W20085  21.983  39.105   5.090
49486W        W20086   4.292   8.721   1.524
49487W        W20087  36.875  11.107   3.404
49488W        W20088  10.097   9.622  10.624
49489W        W20089  44.686  44.388  14.465
49490W        W20090  26.281   6.091  11.591
49491W        W20091  29.473  28.973  14.415
49492W        W20092   1.514  14.030   1.957
49493W        W20093   3.506  12.093   3.944
49494W        W20094  30.079  21.180  12.677
49495W        W20095  42.247   2.102   1.867
49496W        W20096  41.529  32.584   2.450
49497W        W20097  15.685   1.401  13.286
49498W        W20098  13.070   9.816   3.367
49499W        W20099  41.343  30.597   0.414
49500W        W20100  31.514  20.529   2.270
49501W        W20101  40.896  25.651   4.711
49502W        W20102   5.218   5.464   3.654
49503W        W20103   3.893   8.780   4.160
49504W        W20104  20.335  40.596   4.040
49505W        W20105  33.599  41.817   1.365
49506W        W20106  44.419  14.731   3.089
49507W        W20107   1.985   2.048   2.889
49508W        W20108  20.780   6.889   3.375
49509W        W20109  18.166  37.280   3.685
49510W        W20110   1.074   2.210  12.834
49511W        W20111   0.005  19.662  11.687
49512W        W20112   5.842   1.976   2.417
49513W        W20113  30.226  20.213  12.654
49514W        W20114  28.475  32.095  11.844
49515W        W20115  16.717  22.326   4.674
49516W        W20116  10.884  38.998  14.123
49517W        W20117  39.771   0.303  14.490
49518W        W20118  36.008  13.974  10.777
49519W        W20119   9.264   9.370  12.554
49520W        W20120  41.178  18.794  14.042
49521W        W20121  27.577  42.566   2.346
49522W        W20122  27.162  13.361  11.108
49523W        W20123  33.089  15.124  13.878
49524W        W20124   4.999   1.827   3.117
49525W        W20125  16.528  16.642   0.762
49526W        W20126  36.587   5.293  11.826
49527W        W20127  19.129  13.256   1.293
49528W        W20128   0.438  29.372   1.786
49529W        W20129  14.956  11.223   2.362
49530W        W20130  22.549  44.826   3.632
49531W        W20131  44.224  38.020  12.509
49532W        W20132   4.648  19.439  10.647
49533W        W20133  27.812  24.610   1.973
49534W        W20134  43.189   0.797  12.419
49535W        W20135  12.292  40.855  12.500
49536W        W20136  16.990  31.945   4.545
49537W        W20137  38.479   6.229  11.720
49538W        W20138  28.560  15.342   0.254
49539W        W20139  38.296   6.940   1.407
49540W        W20140  23.140  35.064   2.266
49541W        W20141  30.654  24.743  12.881
49542W        W20142   4.341  37.346  13.555
49543W        W20143  32.524   5.778   3.274
49544W        W20144  32.618  21.567  13.564
49545W        W20145  26.114  43.113  12.327
49546W        W20146  43.781  12.725  13.908
49547W        W20147  23.595  43.816   0.285
49548W        W20148   9.438  11.765  11.527
49549W        W20149  10.917  41.652  10.167
49550W        W20150  42.965   9.362   4.228
49551W        W20151   9.096  14.900   3.152
49552W        W20152   8.439  13.335  11.959
49553W        W20153  16.932  16.278  10.898
49554W        W20154  11.709   8.148   4.043
49555W        W20155  18.607   2.971   0.412
49556W        W20156   8.842  16.225   0.982
49557W        W20157  36.106  38.551   3.182
49558W        W20158   4.160  24.865  12.499
49559W        W20159   6.232  43.019   2.341
49560W        W20160  14.135  13.355   0.988
49561W        W20161  39.099   7.699   3.264
49562W        W20162  37.514   9.834   1.108
49563W        W20163  28.613  33.185   2.670
49564W        W20164  38.107   3.760  10.180
49565W        W20165   1.558  18.176  14.929
49566W        W20166  42.557  40.557  10.584
49567W        W20167   3.792  38.704   2.163
49568W        W20168   0.284  11.600   1.800
49569W        W20169  24.072  20.571   2.859
49570W        W20170   3.914  15.691  14.900
49571W        W20171   0.022  24.124   0.459
49572W        W20172  34.420   7.234   4.152
49573W        W20173  28.980  22.812  14.908
49574W        W20174  27.825  19.049   2.715
49575W        W20175  37.534  41.853  10.746
49576W        W20176  18.273  16.719   0.697
49577W        W20177  25.567  37.550  12.487
49578W        W20178   1.973  44.052   1.311
49579W        W20179  26.049  25.036  14.069
49580W        W20180  44.397   8.402  12.082
49581W        W20181   3.473  16.077   1.807
49582W        W20182  36.057  34.580   4.096
49583W        W20183   4.772  32.231  11.558
49584W        W20184   9.394  31.612   4.162
49585W        W20185  30.348   6.270  11.654
49586W        W20186  13.814  19.710  13.336
49587W        W20187  28.889   2.387   3.170
49588W        W20188   1.487  10.208   2.440
49589W        W20189  37.880  29.468  12.376
49590W        W20190   6.657  27.210  11.194
49591W        W20191  14.815  37.529  14.131
49592W        W20192  16.237  22.228   3.942
49593W        W20193   3.379   0.879  12.731
49594W        W20194  18.529  32.080  12.571
49595W        W20195   3.025  35.149   4.480
49596W        W20196   4.062  32.896  14.767
49597W        W20197  35.503  32.805   2.428
49598W        W20198  16.324  28.703  11.637
49599W        W20199  30.910  16.626   0.808
49600W        W20200  38.519  22.262  13.768
49601W        W20201  27.764  13.189   0.758
49602W        W20202   1.659  26.305   0.385
49603W        W20203   1.885  12.914  12.058
49604W        W20204  40.402  12.525  11.036
49605W        W20205   5.809   4.876  12.212
49606W        W20206  29.089  38.146   2.734
49607W        W20207   7.730  25.024  12.941
49608W        W20208  18.658   0.015   4.106
49609W        W20209  13.497  30.834   2.257
49610W        W20210  17.670  37.139  10.132
49611W        W20211  25.448  39.386  12.994
49612W        W20212  28.591  20.676  14.471
49613W        W20213   6.795   2.937  12.506
49614W        W20214  36.254  37.449   1.933
49615W        W20215  40.520  27.665   2.270
49616W        W20216   7.274  40.388   4.554
49617W        W20217  16.908  18.730   0.728
49618W        W20218  18.443  35.024   0.256
49619W        W20219  24.639   6.307  13.356
49620W        W20220  35.325  38.989   0.748
49621W        W20221   3.788  28.869   2.964
49622W        W20222  20.781  27.948  14.844
49623W        W20223  31.761  18.973   4.724
49624W        W20224  28.753   2.828   3.387
49625W        W20225  11.788  42.255  11.445
49626W        W20226  19.689  18.618   0.919
49627W        W20227   5.667  13.581   0.324
49628W        W20228   5.129  42.787   2.333
49629W        W20229  24.038   6.975   1.920
49630W        W20230  18.229  34.035  10.755
49631W        W20231  40.995  36.439   2.625
49632W        W20232   9.847  14.812   2.678
49633W        W20233  23.466  15.711   3.794
49634W        W20234  27.482  43.175  12.095
49635W        W20235   9.191  19.407   5.014
49636W        W20236  10.506  39.590  13.627
49637W        W20237  33.526   0.334   0.624
49638W        W20238  17.071  38.825   3.825
49639W        W20239   6.233  18.318   3.215
49640W        W20240   5.708  17.993  14.011
49641W        W20241  35.945  35.921  11.178
49642W        W20242   0.796  24.739  14.516
49643W        W20243  36.864  38.089   4.542
49644W        W20244  12.410   7.660  12.554
49645W        W20245  30.169  22.708  13.098
49646W        W20246  31.555  37.189  13.852
49647W        W20247  34.050  15.348   2.319
49648W        W20248  24.464  21.661  12.271
49649W        W20249   2.763  18.873  13.478
49650W        W20250  18.599  11.869   3.414
49651W        W20251   0.262  23.337   3.116
49652W        W20252  22.982  42.075  12.146
49653W        W20253  41.109   2.858  12.443
49654W        W20254  33.550   5.256   2.736
49655W        W20255   7.275  21.625  11.206
49656W        W20256   2.200  41.785   4.566
49657W        W20257   5.888  25.992   0.458
49658W        W20258   9.801  21.562   0.825
49659W        W20259  35.123  39.292   1.686
49660W        W20260  42.282  25.765  12.451
49661W        W20261  12.833  36.051   4.667
49662W        W20262  21.243  23.566   2.718
49663W        W20263   8.257   6.142  14.495
49664W        W20264  23.694   1.848  14.790
49665W        W20265   5.905  17.796   2.620
49666W        W20266  14.303  31.977   2.694
49667W        W20267   8.156   9.406  13.533
49668W        W20268   5.778   6.831  13.574
49669W        W20269  10.389  32.980   4.961
49670W        W20270  22.204  21.448  10.720
49671W        W20271   2.304  30.752  12.519
49672W        W20272  13.376   1.425  11.991
49673W        W20273  22.481  35.893  10.363
49674W        W20274  10.831  29.355  10.776
49675W        W20275   6.890   7.941   2.925
49676W        W20276  28.009  26.944   2.366
49677W        W20277  16.943  28.447  13.718
49678W        W20278  22.976  18.842   1.776
49679W        W20279  25.345  43.188   0.365
49680W        W20280  35.370  19.042   3.776
49681W        W20281  32.816  28.499   4.159
49682W        W20282  28.111  35.071   3.689
49683W        W20283  38.030  18.659   0.449
49684W        W20284   1.456  10.147   0.844
49685W        W20285  22.470   9.060   4.642
49686W        W20286  11.877  19.893   1.766
49687W        W20287  43.281  29.064   4.843
49688W        W20288  15.045  34.131  14.567
49689W        W20289  24.903  40.394  12.160
49690W        W20290  20.174   6.473   4.636
49691W        W20291  43.922  39.935   3.722
49692W        W20292  30.917  21.520  14.929
49693W        W20293  35.349  19.072   2.888
49694W        W20294  40.381  19.077  13.503
49695W        W20295  28.006  18.846   0.416
49696W        W20296  44.427  35.571  10.593
49697W        W20297  30.038  18.617   3.833
49698W        W20298   2.892   8.785  10.646
49699W        W20299   0.537  16.355  13.325
49700W        W20300   2.461   9.202   0.351
49701W        W20301  16.514   2.316   1.764
49702W        W20302  24.668   4.218  10.765
49703W        W20303  43.482  38.510  12.543
49704W        W20304  29.115  36.026   1.035
49705W        W20305   7.189  23.819  12.494
49706W        W20306   9.315  27.471   0.195
49707W        W20307  26.116  44.492  12.259
49708W        W20308   1.801  24.415   4.201
49709W        W20309   4.709  16.916   4.543
49710W        W20310  33.649  23.889  12.420
49711W        W20311  25.477   3.349   0.022
49712W        W20312  33.966  38.868  14.765
49713W        W20313  20.037   8.949   0.436
49714W        W20314  13.733  12.007   3.884
49715W        W20315  36.402  25.277   4.140
49716W        W20316   8.221  36.477  11.121
49717W        W20317  29.556   3.893  14.459
49718W        W20318  31.308  30.464   0.994
49719W        W20319  40.100  34.786   2.230
49720W        W20320  38.157  26.895  11.613
49721W        W20321  10.275  29.936   4.150
49722W        W20322  34.893  32.550  14.303
49723W        W20323  39.355  26.772   2.310
49724W        W20324  23.843  20.988  11.176
49725W        W20325  25.143  12.362  13.028
49726W        W20326  22.446  36.547   4.424
49727W        W20327  27.061   3.807   4.805
49728W        W20328  24.331  19.312  13.512
49729W        W20329   7.351  18.724  12.513
49730W        W20330  37.048  15.233  12.937
49731W        W20331  39.407  25.652  11.935
49732W        W20332  17.793  34.087  14.654
49733W        W20333   9.256  23.945  12.507
49734W        W20334  32.924   1.517   1.693
49735W        W20335   9.310  40.945   4.096
49736W        W20336   1.746  11.316  14.437
49737W        W20337   4.262  33.011   3.247
49738W        W20338  23.311  23.649   0.612
49739W        W20339   0.258   1.810  13.032
49740W        W20340  22.708   4.349   1.704
49741W        W20341  31.489   4.938   1.177
49742W        W20342  22.595  25.668  14.456
49743W        W20343  35.839   5.681  13.896
49744W        W20344  13.339  23.586  14.970
49745W        W20345  10.382  14.807   2.732
49746W        W20346  31.040   6.604  13.794
49747W        W20347  34.402  21.795   0.196
49748W        W20348  22.955  26.612   3.678
49749W        W20349   8.922  14.202   2.196
49750W        W20350  41.919  34.328   0.391
49751W        W20351  33.268  36.632  13.498
49752W        W20352  44.885  18.560  10.730
49753W        W20353  12.428  40.395   4.118
49754W        W20354  23.556  37.307   3.273
49755W        W20355  12.292  36.342  10.675
49756W        W20356  29.885   5.363  13.534
49757W        W20357  13.218  36.728  11.517
49758W        W20358  38.118  19.246  11.507
49759W        W20359  20.979  10.117  13.890
49760W        W20360  34.420  25.257   3.153
49761W        W20361  13.237  34.312   4.244
49762W        W20362  38.869   0.983  13.527
49763W        W20363  12.237   9.575  14.758
49764W        W20364   9.846  38.382  13.541
49765W        W20365  39.757  27.721  11.159
49766W        W20366  43.904  11.116  14.280
49767W        W20367  35.815  44.503  13.000
49768W        W20368  17.354  11.312  11.668
49769W        W20369  31.946  28.105   0.332
49770W        W20370  29.942  21.346   1.410
49771W        W20371  44.595  16.084  13.367
49772W        W20372  21.581  35.474  12.255
49773W        W20373  16.055  36.825   1.763
49774W        W20374  18.861  14.013  14.925
49775W        W20375  37.656  17.433   1.272
49776W        W20376  43.730  27.933  14.406
49777W        W20377  12.853  24.581  14.811
49778W        W20378  35.084  24.117  13.559
49779W        W20379  15.677   9.241  14.231
49780W        W20380   6.316  40.465  13.792
49781W        W20381  23.920  42.013   4.624
49782W        W20382  14.388  31.553   1.737
49783W        W20383  33.411  11.256  13.855
49784W        W20384  20.327  26.546  11.527
49785W        W20385  28.297  16.943  11.073
49786W        W20386  27.013  42.034  12.433
49787W        W20387  36.212  26.449  14.358
49788W        W20388  14.281  41.479  12.474
49789W        W20389  11.684  39.871   0.436
49790W        W20390  35.483  29.212   4.936
49791W        W20391  35.044  10.644   1.662
49792W        W20392  17.406   9.535   4.178
49793W        W20393   1.826  21.111  14.078
49794W        W20394  14.298  15.684   1.049
49795W        W20395  34.679  30.012   0.897
49796W        W20396  36.903  20.958  10.008
49797W        W20397  28.744  34.001  11.817
49798W        W20398  25.781  17.582  11.021
49799W        W20399   8.061  27.414   0.834
49800W        W20400   0.035  12.680   0.236
49801W        W20401  26.487   8.773  14.312
49802W        W20402  18.047   5.824  12.773
49803W        W20403   1.962  16.282  14.389
49804W        W20404  44.555  44.503  11.147
49805W        W20405   6.903  21.061   0.200
49806W        W20406   7.144  44.337  14.962
49807W        W20407  22.193  13.508   3.640
49808W        W20408  37.902  34.834   3.633
49809W        W20409  20.287  10.567  12.146
49810W        W20410  23.734  40.785   1.811
49811W        W20411   0.841  39.776  11.968
49812W        W20412  19.195  40.905   2.104
49813W        W20413  29.523  30.651  14.976
49814W        W20414   9.857  33.492   4.436
49815W        W20415  20.747  17.497   4.655
49816W        W20416  44.253  15.632  12.411
49817W        W20417   3.385  15.009   3.230
49818W        W20418  16.606  23.225   0.748
49819W        W20419  23.292  10.643   1.219
49820W        W20420  25.260  33.815   4.354
49821W        W20421  36.968  25.936   1.209
49822W        W20422   5.717  28.920  14.383
49823W        W20423   7.087  21.179   2.797
49824W        W20424  29.176  21.173  11.647
49825W        W20425  30.309  19.027   2.745
49826W        W20426  26.349  39.157  10.420
49827W        W20427  38.920  42.473   1.251
49828W        W20428  16.122  21.714   0.028
49829W        W20429   6.589   4.227  11.527
49830W        W20430  16.173  44.686  12.129
49831W        W20431  22.183   7.622  13.406
49832W        W20432  19.352  41.981   0.971
49833W        W20433  41.112  37.924  11.402
49834W        W20434  15.310   3.467  13.742
49835W        W20435  30.011  11.363   4.571
49836W        W20436  42.003   3.308  14.968
49837W        W20437   1.843  22.011  11.520
49838W        W20438  41.768  32.857  13.005
49839W        W20439  15.025  29.676   2.323
49840W        W20440   9.914  17.996  10.619
49841W        W20441  41.845  31.187   1.744
49842W        W20442  21.562  38.425   1.981
49843W        W20443   7.649   7.811   0.886
49844W        W20444  34.140  44.817  13.583
49845W        W20445  43.036  40.970   2.367
49846W        W20446  42.860  33.001  10.314
49847W        W20447  37.978  33.297   1.578
49848W        W20448   7.638   1.923   1.863
49849W        W20449  33.331  19.999   3.961
49850W        W20450   7.320  24.510  11.554
49851W        W20451  26.013  17.113  10.963
49852W        W20452  33.988  22.225   2.729
49853W        W20453  18.749  14.452   4.146
49854W        W20454  32.556   9.678   0.748
49855W        W20455  12.311   4.893   0.286
49856W        W20456  15.591   7.598   1.686
49857W        W20457  40.123  27.782  12.794
49858W        W20458  17.579  29.057  12.109
49859W        W20459  22.953  30.914  13.007
49860W        W20460   4.561  21.291  13.361
49861W        W20461  37.363  28.440  13.554
49862W        W20462  31.145  37.340  13.419
49863W        W20463  20.002   4.730   3.147
49864W        W20464   7.328  14.786  14.531
49865W        W20465  26.430  17.359  14.983
49866W        W20466   6.673  20.582   3.339
49867W        W20467  22.452  29.891   0.211
49868W        W20468   5.505  18.266   0.930
49869W        W20469  14.668  36.153   4.501
49870W        W20470  27.640  28.111   0.716
49871W        W20471   8.288  41.459  12.140
49872W        W20472  32.211  35.103   1.795
49873W        W20473  14.145  32.148   3.194
49874W        W20474  30.144   7.644  11.400
49875W        W20475  24.699  11.060   0.421
49876W        W20476   9.419  43.840  12.908
49877W        W20477  28.475  30.632  14.906
49878W        W20478  14.602  35.436   0.999
49879W        W20479  15.260  31.184   0.387
49880W        W20480   4.568  41.813  14.426
49881W        W20481  13.584  14.722   2.083
49882W        W20482  30.075  10.187  13.044
49883W        W20483  32.280  44.115  11.530
49884W        W20484   0.318   9.074  13.400
49885W        W20485  32.271  35.969   0.751
49886W        W20486  39.483  40.516  13.519
49887W        W20487  24.823  26.599  11.239
49888W        W20488  43.541  18.222   2.888
49889W        W20489  44.222  27.823  11.161
49890W        W20490  22.743  20.720   3.672
49891W        W20491  18.952  21.725   3.600
49892W        W20492  19.703   7.520  14.495
49893W        W20493  24.155  10.224   4.486
49894W        W20494  21.011  33.082  13.811
49895W        W20495  28.461  30.160   3.766
49896W        W20496   9.470  20.143   2.214
49897W        W20497  39.839  23.221  11.574
49898W        W20498  30.674   4.767  11.433
49899W        W20499   8.176   5.396   1.735
49900W        W20500  22.976  42.360  11.250
49901W        W20501   5.295  29.168  13.029
49902W        W20502  24.262  35.830  12.555
49903W        W20503   5.948  22.110   1.767
49904W        W20504  27.627  23.498   2.326
49905W        W20505   7.860  14.100   3.223
49906W        W20506  37.689  22.627   0.818
49907W        W20507   6.296  10.852   1.991
49908W        W20508  44.787  39.528   4.066
49909W        W20509   5.382  16.639  12.297
49910W        W20510  36.371  41.919  13.830
49911W        W20511   8.984  22.565  11.057
49912W        W20512  19.587  37.897   0.874
49913W        W20513  12.658  42.963   0.923
49914W        W20514   3.309  29.078   1.191
49915W        W20515  10.467  14.894  14.389
49916W        W20516  25.996  34.665  12.977
49917W        W20517  22.835  43.011  11.643
49918W        W20518   0.886  14.780   3.614
49919W        W20519   9.333  17.415  12.855
49920W        W20520  12.076  19.268   4.076
49921W        W20521  12.232  27.547   4.184
49922W        W20522  20.649   0.957  14.253
49923W        W20523  42.457  13.420  12.084
49924W        W20524   2.438   6.243  11.917
49925W        W20525  30.823   9.914  12.416
49926W        W20526  16.131  25.650  14.482
49927W        W20527   8.320   6.278  12.749
49928W        W20528  34.432   4.790   2.217
49929W        W20529  12.072  16.602  11.693
49930W        W20530  28.616   3.356   0.313
49931W        W20531  36.415   3.044  11.574
49932W        W20532  34.271  26.461   4.922
49933W        W20533  10.241   7.979   0.297
49934W        W20534  25.630  42.362  12.582
49935W        W20535  23.683  20.160   0.829
49936W        W20536  40.770   8.617   0.424
49937W        W20537   2.609  28.069  13.476
49938W        W20538  30.838   6.812  14.512
49939W        W20539  19.596  34.016   2.476
49940W        W20540  26.612  28.504   4.544
49941W        W20541   4.593  11.288  12.407
49942W        W20542  16.831  13.777   3.691
49943W        W20543  44.156  26.127   4.081
49944W        W20544  22.575  39.029  10.725
49945W        W20545  34.506  32.218   0.462
49946W        W20546  18.400  28.963  13.938
49947W        W20547  37.951  39.848  14.572
49948W        W20548  30.873  14.122   4.647
49949W        W20549  37.132  40.318   0.349
49950W        W20550   8.574  16.073  11.499
49951W        W20551  10.602   9.356   1.902
49952W        W20552  14.494  18.088  11.611
49953W        W20553  35.193  29.931   0.982
49954W        W20554  23.125   3.466  12.524
49955W        W20555  27.435  28.208  10.776
49956W        W20556  39.261  39.281   4.018
49957W        W20557   7.846  18.845  11.273
49958W        W20558  41.241  19.807  14.933
49959W        W20559  17.680  23.302   2.244
49960W        W20560  11.521   1.251   1.761
49961W        W20561   7.654  42.397  14.839
49962W        W20562  10.546  41.851   1.214
49963W        W20563  18.725  13.252  13.033
49964W        W20564  13.538  44.986   3.995
49965W        W20565  41.447  24.977   1.922
49966W        W20566   8.971  21.130  12.485
49967W        W20567  11.162   5.668  13.932
49968W        W20568   4.189  37.712  12.543
49969W        W20569  41.768  13.285   1.911
49970W        W20570  27.773  23.586   3.324
49971W        W20571  24.456  24.980   0.871
49972W        W20572  18.290  31.526  11.656
49973W        W20573  19.750  40.082  12.382
49974W        W20574  41.278  21.211  11.997
49975W        W20575  30.440  10.196  11.155
49976W        W20576  42.374  24.486  13.818
49977W        W20577  42.277  41.750  13.020
49978W        W20578  12.746  10.762   2.688
49979W        W20579  38.059  27.936   1.757
49980W        W20580   7.389  13.122  13.630
49981W        W20581  37.825  41.767  13.011
49982W        W20582  36.803  36.088   3.767
49983W        W20583   0.440  15.495  11.562
49984W        W20584   4.111   1.411   4.594
49985W        W20585  23.283  20.138  14.425
49986W        W20586   0.906  31.874   4.558
49987W        W20587   2.175  18.719  14.469
49988W        W20588  25.205   7.750   3.471
49989W        W20589  22.972  12.348  10.128
49990W        W20590  16.142  37.072   4.587
49991W        W20591  43.992  42.983   0.721
49992W        W20592  40.415  30.849  13.318
49993W        W20593  18.235  20.926   4.586
49994W        W20594  15.120  23.685  11.454
49995W        W20595  26.368  21.020   2.781
49996W        W20596  30.941  38.469  11.125
49997W        W20597  32.930  34.879  13.960
49998W        W20598  21.547  41.385  11.952
49999W        W20599  27.639  20.855  12.822
50000W        W20600   6.187  33.585  11.422
50001W        W20601  33.814  31.666  13.568
50002W        W20602   9.673   8.964   2.259
50003W        W20603  23.060  20.196  12.507
50004W        W20604  35.114   0.756   1.536
50005W        W20605  17.571  23.748   3.225
50006W        W20606  29.426  12.211  13.196
50007W        W20607  39.590  19.194   3.976
50008W        W20608  37.272  26.157  10.228
50009W        W20609   0.853  17.754  13.005
50010W        W20610  32.825  29.347   1.384
50011W        W20611  42.551  29.128   4.176
50012W        W20612   8.819  40.684   0.114
50013W        W20613  29.163   1.772  14.869
50014W        W20614  16.564  30.136  14.305
50015W        W20615  43.354   9.713   4.144
50016W        W20616  10.148  15.405  12.876
50017W        W20617  43.409   8.193   0.981
50018W        W20618  12.822  20.526  14.781
50019W        W20619  38.428   3.701  13.318
50020W        W20620  17.132  22.670  14.691
50021W        W20621  35.722  33.380   3.315
50022W        W20622  16.821  28.062   0.998
50023W        W20623  16.030   3.917  11.604
50024W        W20624  40.773   2.406   5.207
50025W        W20625  41.492  41.551   4.003
50026W        W20626  18.688  44.210   2.263
50027W        W20627   6.952  22.392   2.351
50028W        W20628  35.587  14.693   4.546
50029W        W20629  24.116  14.904  12.039
50030W        W20630  30.713   0.890   3.753
50031W        W20631   9.598  22.357   1.584
50032W        W20632  30.864   7.294  13.466
50033W        W20633   2.645  28.704   0.290
50034W        W20634   7.447   4.795   3.704
50035W        W20635  21.331  34.592   2.780
50036W        W20636  11.190  16.870   1.451
50037W        W20637  25.619  23.632   4.097
50038W        W20638  33.656  29.920   2.938
50039W        W20639  13.211   0.395   1.508
50040W        W20640  20.860  15.567   1.132
50041W        W20641   9.048  35.528  12.874
50042W        W20642  34.496   2.919  11.104
50043W        W20643  36.601  23.792  11.525
50044W        W20644  20.709  12.713   1.911
50045W        W20645  28.531  12.210   0.176
50046W        W20646  39.360  23.529   3.768
50047W        W20647  21.981   6.601   4.564
50048W        W20648  32.486  41.909  12.859
50049W        W20649  42.606   2.103  13.094
50050W        W20650  24.272  40.003  11.226
50051W        W20651  25.206  44.298   0.874
50052W        W20652  40.580   2.107  12.240
50053W        W20653  28.591  18.653   3.650
50054W        W20654  12.091  34.636  14.704
50055W        W20655  32.475  22.051   0.692
50056W        W20656  35.498   4.162  13.031
50057W        W20657  35.791  42.027  11.943
50058W        W20658  41.977  43.471   4.217
50059W        W20659  23.193  32.442  12.380
50060W        W20660  36.012  43.779  12.491
50061W        W20661   4.361  39.625  10.676
50062W        W20662  23.533  34.547  12.060
50063W        W20663  21.284  40.404   4.072
50064W        W20664   7.868  27.206  10.683
50065W        W20665  23.510   1.377   4.050
50066W        W20666  41.760   3.269  10.238
50067W        W20667   7.718  14.620  11.587
50068W        W20668  17.174  26.995  12.555
50069W        W20669  12.668   0.457  12.799
50070W        W20670  19.388  37.932   0.374
50071W        W20671   6.398  41.618  14.806
50072W        W20672   5.584  36.075  13.433
50073W        W20673   2.459  13.323   4.777
50074W        W20674   8.085  22.540  10.077
50075W        W20675   7.281  26.038   4.636
50076W        W20676  13.260   9.129  10.677
50077W        W20677  30.386  18.782  13.509
50078W        W20678  14.790   9.250   3.270
50079W        W20679  18.576  19.105  12.646
50080W        W20680  22.536  38.928   3.615
50081W        W20681  27.492  26.988  11.186
50082W        W20682  29.373  34.656   5.034
50083W        W20683  13.242   3.188   1.670
50084W        W20684  38.105  16.001   3.228
50085W        W20685  29.528  20.787  11.695
50086W        W20686  11.697   4.763  12.055
50087W        W20687  33.399  29.836   0.774
50088W        W20688   4.027  25.044   1.583
50089W        W20689  29.910   1.528   3.106
50090W        W20690  25.299  15.091  13.785
50091W        W20691  23.503  19.076  11.210
50092W        W20692  28.729  19.781  12.910
50093W        W20693  20.020  22.231  12.392
50094W        W20694  10.173  40.861   1.041
50095W        W20695  20.650  39.988   0.177
50096W        W20696  21.735  38.572  14.969
50097W        W20697  26.720  43.914  14.513
50098W        W20698  38.103  22.649  14.426
50099W        W20699  23.060   6.372   0.898
50100W        W20700  20.059  19.051  10.820
50101W        W20701  35.683  44.179  10.970
50102W        W20702   4.433  20.147  12.922
50103W        W20703   7.066  18.333   3.357
50104W        W20704  29.958  41.202  13.502
50105W        W20705  42.360  43.007   1.400
50106W        W20706  26.554   7.682   3.290
50107W        W20707  13.141  10.670  10.826
50108W        W20708  36.489  11.146  10.615
50109W        W20709  20.705  13.848  14.895
50110W        W20710  36.033  41.017   1.722
50111W        W20711  25.182  13.048  12.627
50112W        W20712  31.063  34.359   0.191
50113W        W20713  13.043  34.248  13.562
50114W        W20714  43.474  30.165   3.315
50115W        W20715   7.937  32.287  14.009
50116W        W20716  43.129  35.291  12.886
50117W        W20717  36.986  28.092   3.177
50118W        W20718  18.171  42.953   4.928
50119W        W20719  16.529  26.305  14.327
50120W        W20720  13.389   3.045   5.091
50121W        W20721   3.685  13.526   1.167
50122W        W20722  20.740   7.842   1.832
50123W        W20723   4.534  22.080   0.485
50124W        W20724  18.167  41.209  11.724
50125W        W20725   8.884   8.421   5.072
50126W        W20726   6.174  38.293   0.453
50127W        W20727  38.361   1.542   0.233
50128W        W20728  37.811  22.802  10.223
50129W        W20729  30.261  32.428   4.497
50130W        W20730   3.011  16.084   0.908
50131W        W20731  40.276  31.927   0.833
50132W        W20732  25.950  19.508   0.880
50133W        W20733  13.081  43.575   1.772
50134W        W20734  21.608  12.869   4.171
50135W        W20735   9.631   0.557  13.011
50136W        W20736   2.291  21.484  14.302
50137W        W20737  29.833  13.974   4.193
50138W        W20738  36.466  25.106  13.998
50139W        W20739  43.372  15.145   1.631
50140W        W20740  18.158  23.164   3.370
50141W        W20741   6.224  28.298  13.111
50142W        W20742  42.912  36.738   3.245
50143W        W20743  38.258  33.987   2.361
50144W        W20744  16.121  39.053   1.752
50145W        W20745  14.124  12.301  11.848
50146W        W20746  28.548  10.602  12.478
50147W        W20747  40.889   3.681  12.056
50148W        W20748   7.336  30.509   3.177
50149W        W20749   4.249   2.053  14.544
50150W        W20750  33.338  28.583   4.135
50151W        W20751  42.970   2.454  10.695
50152W        W20752  11.900  16.478  13.064
50153W        W20753  22.078  26.154  14.697
50154W        W20754  40.231  18.093  10.534
50155W        W20755   8.187  27.906   4.465
50156W        W20756  26.853  26.131   3.805
50157W        W20757  35.146  16.312  12.488
50158W        W20758  16.078  12.245  12.812
50159W        W20759  17.080  11.191   3.709
50160W        W20760   5.233   1.953   3.589
50161W        W20761  28.176  33.407  14.963
50162W        W20762  22.197  42.363   2.318
50163W        W20763  20.737  30.931  11.889
50164W        W20764  23.253  37.629  11.479
50165W        W20765  31.939  23.615  13.455
50166W        W20766  30.302  11.599  11.146
50167W        W20767  44.823  41.955   3.358
50168W        W20768  32.005  11.317  14.600
50169W        W20769  26.257   1.079   3.866
50170W        W20770  36.557  20.649   3.473
50171W        W20771   6.353  31.552   1.670
50172W        W20772  30.039   0.956   2.318
50173W        W20773  32.826   5.089   2.259
50174W        W20774   7.313  22.179  14.382
50175W        W20775  39.110  31.467  12.924
50176W        W20776  17.618  20.044  12.058
50177W        W20777  32.369   3.398  14.241
50178W        W20778  38.178  17.598  14.165
50179W        W20779   1.773   6.523   1.158
50180W        W20780  26.103  31.964   3.427
50181W        W20781  42.611  39.362  11.966
50182W        W20782   9.609  13.849   2.853
50183W        W20783   9.102  15.298  11.858
50184W        W20784  41.244  33.518   0.249
50185W        W20785   7.377  21.482  13.811
50186W        W20786  26.953  41.254  11.319
50187W        W20787  30.107  30.565  14.265
50188W        W20788  32.162  35.032  11.563
50189W        W20789  30.530   8.921   4.208
50190W        W20790   3.292  25.518  14.744
50191W        W20791  35.779  44.205  11.516
50192W        W20792  22.026  38.684  12.945
50193W        W20793  31.981  30.250   4.167
50194W        W20794  32.893   0.420  12.879
50195W        W20795  10.616   0.668  13.390
50196W        W20796  20.661  43.249  14.111
50197W        W20797  24.598   5.468   3.739
50198W        W20798  33.405  12.618  12.998
50199W        W20799  33.851   9.794  13.737
50200W        W20800   2.825  25.781  12.288
50201W        W20801  25.966  13.429  14.042
50202W        W20802  43.719   9.308  12.916
50203W        W20803  27.682  43.566  13.011
50204W        W20804  22.225  44.931  12.052
50205W        W20805   6.979   9.390   3.214
50206W        W20806  21.739  27.502   4.638
50207W        W20807  38.156  41.432   4.915
50208W        W20808   8.716  16.205   3.428
50209W        W20809   9.876  39.318  13.031
50210W        W20810  44.806  44.094  14.057
50211W        W20811  32.925  24.233   3.836
50212W        W20812  34.981  16.627   4.489
50213W        W20813  13.803  44.385  13.456
50214W        W20814  12.555  33.626  11.993
50215W        W20815   3.531  35.132   4.677
50216W        W20816  35.337  20.249   1.907
50217W        W20817  25.049  16.035  14.214
50218W        W20818  21.170  20.996  13.912
50219W        W20819   6.248  26.113  14.509
50220W        W20820   8.447  23.212  12.325
50221W        W20821  11.275  19.717   0.774
50222W        W20822   7.513  27.809   2.278
50223W        W20823  11.605   8.933  13.997
50224W        W20824   1.042  14.857  10.877
50225W        W20825  26.553  19.966  12.874
50226W        W20826  39.316  38.109   1.323
50227W        W20827   2.851  43.986   1.362
50228W        W20828   0.405  44.408  12.549
50229W        W20829  16.700  18.975  14.586
50230W        W20830  42.608  26.074   0.968
50231W        W20831  36.347   9.488   0.273
50232W        W20832   7.310   6.965   4.603
50233W        W20833  23.840  41.932   1.855
50234W        W20834  28.526  24.938  13.010
50235W        W20835   4.856   5.412  13.453
50236W        W20836  35.224  33.406   3.166
50237W        W20837  31.227  13.043  11.589
50238W        W20838  26.567  20.009   1.281
50239W        W20839  20.959  11.662  10.819
50240W        W20840  27.695  35.852  14.889
50241W        W20841  38.832  39.441   9.957
50242W        W20842  41.122  31.027   2.758
50243W        W20843  41.899   7.477   4.322
50244W        W20844  43.244   6.506   2.115
50245W        W20845   1.391   9.833  14.079
50246W        W20846  26.069  43.809   1.353
50247W        W20847  16.666  17.702   0.838
50248W        W20848  11.609  26.309  11.140
50249W        W20849   7.663  10.882   1.763
50250W        W20850  31.073   7.826   2.682
50251W        W20851  33.553  22.133   0.808
50252W        W20852  22.963  38.308   3.147
50253W        W20853  41.874  20.834   1.169
50254W        W20854  43.747  10.305   1.486
50255W        W20855  22.815  10.435  10.793
50256W        W20856   8.675  35.155  12.999
50257W        W20857  35.204  38.156  12.051
50258W        W20858  41.123   4.435  12.273
50259W        W20859   9.119  12.327  14.866
50260W        W20860  28.930  21.681   3.719
50261W        W20861  30.032  20.108   3.625
50262W        W20862  29.512  13.717   3.896
50263W        W20863  10.821  14.359  10.650
50264W        W20864   0.788  34.970  12.883
50265W        W20865  24.960   3.216   2.136
50266W        W20866   9.974  31.708   4.271
50267W        W20867  21.721  37.643   4.057
50268W        W20868  15.743  19.637   4.330
50269W        W20869  33.258   3.370   1.412
50270W        W20870  15.845  14.795   3.622
50271W        W20871  25.181  32.484   2.527
50272W        W20872  41.043  25.369   4.284
50273W        W20873  10.605  37.056   3.953
50274W        W20874   8.268   3.954   3.671
50275W        W20875  27.153   0.499   3.226
50276W        W20876   0.822  27.378   0.941
50277W        W20877  28.935  12.165  12.013
50278W        W20878   4.172  12.960  12.619
50279W        W20879  29.076  20.326   3.241
50280W        W20880  32.083  31.367  10.568
50281W        W20881  30.231  22.954  11.150
50282W        W20882  42.966   8.171   4.541
50283W        W20883  25.178  42.111   1.144
50284W        W20884  39.943   8.799   1.045
50285W        W20885   6.785  37.889  13.868
50286W        W20886  20.529  24.526  12.997
50287W        W20887   4.137  14.908  12.997
50288W        W20888   0.756   8.709  13.844
50289W        W20889   4.262  18.547  13.505
50290W        W20890  12.573   6.432  13.433
50291W        W20891  10.770  40.810  11.588
50292W        W20892  41.931   3.001   0.422
50293W        W20893  20.467  43.903  12.742
50294W        W20894  35.319  28.137  12.482
50295W        W20895  44.616  19.983  10.968
50296W        W20896  24.140  18.292  11.505
50297W        W20897   8.754   3.302   1.901
50298W        W20898  13.092  22.285  12.500
50299W        W20899  18.885  27.418  12.448
50300W        W20900  40.101  34.125   1.556
50301W        W20901  13.147  35.823   3.689
50302W        W20902  25.139  18.650   4.140
50303W        W20903  33.641  11.409   1.106
50304W        W20904  10.679  31.971  11.458
50305W        W20905  21.562  31.158  14.261
50306W        W20906  12.689  17.534   2.419
50307W        W20907  18.778   0.238   3.607
50308W        W20908   6.938   9.718  12.031
50309W        W20909  17.673  11.215  11.236
50310W        W20910  26.064  20.093   1.464
50311W        W20911  14.634  31.965   3.096
50312W        W20912   3.239  37.884   4.661
50313W        W20913  30.689  23.927  14.268
50314W        W20914  36.620  37.353  11.213
50315W        W20915  18.773  32.009   0.308
50316W        W20916  40.722   3.216  11.183
50317W        W20917  37.849  35.426  11.251
50318W        W20918  33.561  20.780  13.368
50319W        W20919  21.549  15.195   4.728
50320W        W20920  10.892  32.413  12.416
50321W        W20921  10.811  19.252  11.437
50322W        W20922  17.572   5.140   1.440
50323W        W20923  17.740  34.582  14.513
50324W        W20924  23.947  21.956  12.750
50325W        W20925  25.564   0.794  12.103
50326W        W20926  39.185   1.987   0.255
50327W        W20927  17.451  42.431  10.578
50328W        W20928   2.457  32.526  13.526
50329W        W20929   0.799  16.046  12.637
50330W        W20930  32.396   5.301   2.478
50331W        W20931  43.079   1.283  12.075
50332W        W20932  44.049  33.137  14.972
50333W        W20933  17.053  38.307  11.223
50334W        W20934   5.671  11.735   3.545
50335W        W20935  35.636   8.175   2.265
50336W        W20936  13.065  25.661   0.992
50337W        W20937  27.487  44.694  14.591
50338W        W20938  27.583   3.647   0.509
50339W        W20939  30.481   6.032  13.947
50340W        W20940  28.053  39.544  11.033
50341W        W20941  27.713  36.453   1.362
50342W        W20942  43.202   1.648   3.572
50343W        W20943   5.377  41.754  13.935
50344W        W20944   7.147   9.769   0.237
50345W        W20945  21.479  27.065   3.147
50346W        W20946  32.435  33.137   1.353
50347W        W20947  30.968  30.112  10.663
50348W        W20948  22.392  44.908   2.098
50349W        W20949  16.730  12.739   3.201
50350W        W20950  26.932  25.037  13.923
50351W        W20951  27.880  31.693   0.329
50352W        W20952  42.735  28.921   2.892
50353W        W20953  20.547  22.793  13.742
50354W        W20954  35.184   6.611  11.188
50355W        W20955   5.620   8.347  10.441
50356W        W20956  12.682  15.629   1.946
50357W        W20957  34.838   2.620   1.138
50358W        W20958  10.042  40.972   3.406
50359W        W20959   7.945  15.083  14.970
50360W        W20960  11.618  39.800   4.482
50361W        W20961  12.897   8.165  13.037
50362W        W20962  17.508  31.574   5.194
50363W        W20963   1.736   4.038  12.874
50364W        W20964  16.840  36.576   3.657
50365W        W20965  20.699  26.616  12.882
50366W        W20966  34.590   3.042  13.407
50367W        W20967  14.691  24.729  10.699
50368W        W20968  11.863  26.603   5.425
50369W        W20969  20.529  26.806   1.297
50370W        W20970  33.403  15.135  14.325
50371W        W20971  15.134  10.497  13.810
50372W        W20972  12.241   0.815  11.222
50373W        W20973   3.291  14.407  13.258
50374W        W20974   2.004  22.043   0.471
50375W        W20975  26.752  12.196   3.333
50376W        W20976  18.518  19.755   2.268
50377W        W20977  38.263  41.961   3.770
50378W        W20978  32.200  33.399  11.011
50379W        W20979   7.758  12.761   2.663
50380W        W20980  24.202   4.112   1.226
50381W        W20981  32.515  40.643   1.244
50382W        W20982   0.054   9.872   3.322
50383W        W20983  27.079  19.710  10.426
50384W        W20984  37.366  23.346   1.558
50385W        W20985   5.976   3.958   3.654
50386W        W20986   6.499  12.292  12.318
50387W        W20987   4.042  11.762   1.275
50388W        W20988   6.265  23.769   4.298
50389W        W20989  21.139  27.182   4.700
50390W        W20990   0.892   7.853   4.472
50391W        W20991  16.594   8.605   4.620
50392W        W20992  19.778  42.790   4.678
50393W        W20993  15.683  27.168  11.593
50394W        W20994  30.358   1.699   4.145
50395W        W20995  19.470   5.925  11.955
50396W        W20996  12.029   3.892   2.931
50397W        W20997   2.280  28.741  14.897
50398W        W20998  35.797  13.752  11.186
50399W        W20999  23.656  13.786   3.905
50400W        W21000  39.986   4.149   1.423
50401W        W21001  39.327  24.485  13.351
50402W        W21002  28.447  20.751  13.996
50403W        W21003  19.632  22.455   1.495
50404W        W21004   0.265  34.838  12.909
50405W        W21005  33.612  16.358   4.533
50406W        W21006  16.665  20.261   2.139
50407W        W21007  31.421  12.150  14.805
50408W        W21008  11.247  10.896  14.393
50409W        W21009  32.014   3.383   0.723
50410W        W21010   8.650  30.029  14.881
50411W        W21011  17.571  31.915   3.104
50412W        W21012   7.693  42.477   4.735
50413W        W21013  43.698   2.394  10.392
50414W        W21014  10.312  20.050  10.036
50415W        W21015   2.038   5.452  13.109
50416W        W21016  23.157   8.474  14.176
50417W        W21017  20.251  38.986   4.310
50418W        W21018  17.608   2.814   2.741
50419W        W21019  30.890  39.496   1.846
50420W        W21020  10.786  16.316   0.905
50421W        W21021  18.147  29.379   3.326
50422W        W21022  29.662  34.090  10.667
50423W        W21023  19.283  12.951   0.850
50424W        W21024   3.229  38.060  14.447
50425W        W21025  11.240   2.472   1.416
50426W        W21026   4.715   8.852   3.578
50427W        W21027  29.525  31.917  14.337
50428W        W21028  18.483  35.538   0.272
50429W        W21029  43.417   2.810  13.288
50430W        W21030  21.715  19.267   4.895
50431W        W21031  39.585  11.382  12.572
50432W        W21032  30.396  35.184  13.367
50433W        W21033  39.390  37.550  13.013
50434W        W21034  38.971  15.135   0.746
50435W        W21035  42.196  11.607  14.401
50436W        W21036  27.967  30.651  14.950
50437W        W21037  16.186  37.945  11.609
50438W        W21038  27.713  36.592  10.738
50439W        W21039  35.406  13.740   0.227
50440W        W21040  29.460  38.516   4.085
50441W        W21041  41.798  30.589   1.438
50442W        W21042   0.367  28.593   2.623
50443W        W21043  29.251  26.417   2.367
50444W        W21044  22.588  42.324  14.052
50445W        W21045  11.444  13.718   4.512
50446W        W21046  17.726  41.064   3.051
50447W        W21047  12.623  10.203  12.577
50448W        W21048  14.008  19.172  12.775
50449W        W21049  36.032   2.869  11.150
50450W        W21050   3.964  19.633  13.879
50451W        W21051  23.074  33.943   0.229
50452W        W21052  37.643  12.580  14.362
50453W        W21053   7.792  27.972   0.303
50454W        W21054  42.401  35.457  10.862
50455W        W21055  26.769  16.034  12.990
50456W        W21056  21.651  23.754  10.611
50457W        W21057  25.119  40.098  12.556
50458W        W21058  42.338  20.457  12.373
50459W        W21059   0.787   7.769   3.143
50460W        W21060   4.932  23.752  13.103
50461W        W21061   0.169  28.203   2.879
50462W        W21062  13.152   2.847  11.962
50463W        W21063  26.104  13.143   4.594
50464W        W21064  38.407  34.473   4.457
50465W        W21065  32.488  33.136  12.491
50466W        W21066  37.758   3.217  11.393
50467W        W21067  31.999  28.729   2.250
50468W        W21068  32.064  43.375  12.344
50469W        W21069  40.260  15.735   2.593
50470W        W21070   6.971   3.993   0.915
50471W        W21071  14.490   1.925   5.069
50472W        W21072  37.809  34.410  12.490
50473W        W21073  25.519   1.299  12.670
50474W        W21074   4.637   7.621   0.636
50475W        W21075   3.484  39.500  14.865
50476W        W21076  17.672  22.195  12.112
50477W        W21077  19.387   3.719   2.173
50478W        W21078  31.146  38.936   2.642
50479W        W21079  10.656  42.698  12.387
50480W        W21080   0.263  31.770  14.535
50481W        W21081   1.191  40.598  12.119
50482W        W21082  40.957  38.974   1.114
50483W        W21083   1.480   7.958   0.053
50484W        W21084  38.581  35.592   2.169
50485W        W21085  28.511  13.376  13.305
50486W        W21086  21.111   5.834   0.936
50487W        W21087  30.626   4.463   2.663
50488W        W21088  22.540  11.930   3.473
50489W        W21089  41.559  40.251  13.357
50490W        W21090  39.915  33.950  13.569
50491W        W21091  26.158  39.397   4.719
50492W        W21092   9.171  22.731  11.764
50493W        W21093  20.815  39.570   3.243
50494W        W21094  27.219   5.509  11.675
50495W        W21095  30.419   2.172  11.121
50496W        W21096   5.324  10.861  12.364
50497W        W21097   4.415  14.277  14.276
50498W        W21098   0.978  20.114   4.283
50499W        W21099  16.585  26.208   1.223
50500W        W21100  23.131  42.327   4.555
50501W        W21101  23.283  11.276   2.234
50502W        W21102  43.262  21.285  12.449
50503W        W21103  15.214   0.786   0.408
50504W        W21104  25.457  25.187  13.800
50505W        W21105  30.180  35.906   1.054
50506W        W21106   4.227  42.480   1.361
50507W        W21107   8.923  43.976  14.753
50508W        W21108  31.405  20.952  11.571
50509W        W21109  11.308   9.182   2.772
50510W        W21110  33.042  20.261  11.211
50511W        W21111  17.149  26.935   1.279
50512W        W21112   5.081  14.752  12.894
50513W        W21113   8.155  29.087   4.938
50514W        W21114  14.575  12.689  10.475
50515W        W21115  18.673  40.482  13.551
50516W        W21116  34.045  41.909   4.962
50517W        W21117  32.928  23.978   3.111
50518W        W21118  39.767  16.444   3.175
50519W        W21119  37.042  43.764   2.341
50520W        W21120  26.840  42.667   2.561
50521W        W21121  32.527  16.954  10.668
50522W        W21122  36.022  11.179  14.718
50523W        W21123  22.160  26.935   4.718
50524W        W21124  35.324  31.342   1.360
50525W        W21125  18.287  18.390   1.322
50526W        W21126  40.037  39.861   1.331
50527W        W21127  34.891   4.800   4.353
50528W        W21128  36.144  29.831  11.939
50529W        W21129  17.027  20.368  14.332
50530W        W21130   7.540   0.440   2.703
50531W        W21131   1.266  17.702   4.607
50532W        W21132   4.767   6.749  12.467
50533W        W21133  27.998  25.490   2.074
50534W        W21134  28.450   9.974   1.682
50535W        W21135  37.150  38.952   2.619
50536W        W21136  35.420  33.528  11.940
50537W        W21137  17.315  19.979  12.482
50538W        W21138  30.644  22.908  14.403
50539W        W21139  39.030   7.869  14.360
50540W        W21140  15.819   7.195  11.169
50541W        W21141  22.718  14.860   0.687
50542W        W21142  10.834  33.704   4.576
50543W        W21143  13.641  29.938   4.058
50544W        W21144   5.863   8.591   0.250
50545W        W21145  12.586  42.970  11.678
50546W        W21146  22.648  39.483  11.516
50547W        W21147  21.836  26.108  12.135
50548W        W21148  39.983  10.575  14.423
50549W        W21149  14.133  38.349   4.656
50550W        W21150  40.207   3.322   4.073
50551W        W21151  20.913  24.535   0.895
50552W        W21152  27.067  31.887   1.547
50553W        W21153  22.709  29.661  14.818
50554W        W21154  35.743  15.207  14.091
50555W        W21155  20.785   2.813  14.917
50556W        W21156  19.298  41.275  10.742
50557W        W21157  15.109   4.303  13.191
50558W        W21158  27.972  10.782   0.126
50559W        W21159  13.044  20.251  13.096
50560W        W21160  13.579  18.203   3.718
50561W        W21161  19.712   4.220   3.138
50562W        W21162  34.463  22.582   1.765
50563W        W21163   2.808  35.348  11.910
50564W        W21164  22.114  32.480   3.287
50565W        W21165  18.147   4.706   4.593
50566W        W21166  10.086  27.492  11.842
50567W        W21167  43.364  15.563  10.674
50568W        W21168  27.949  25.134  14.836
50569W        W21169  13.075  11.562   9.839
50570W        W21170   9.887  41.600   1.939
50571W        W21171  18.792  28.060   5.558
50572W        W21172  44.019  31.437  12.576
50573W        W21173  27.686  44.804   4.558
50574W        W21174  28.971  11.837   4.141
50575W        W21175  20.518  25.413  13.416
50576W        W21176  27.587  18.797   3.667
50577W        W21177  40.432  18.556   3.405
50578W        W21178  20.277   0.607  11.485
50579W        W21179   5.820  33.937  12.009
50580W        W21180  43.607  34.200   0.950
50581W        W21181  40.395  40.303  11.974
50582W        W21182  38.406  32.138  14.312
50583W        W21183   3.726  29.916   3.991
50584W        W21184  17.184  40.850  11.272
50585W        W21185  16.448  33.862  14.382
50586W        W21186  35.852  31.555  11.542
50587W        W21187  18.604  24.389   4.115
50588W        W21188  31.042  36.965  14.756
50589W        W21189  31.382   8.262  10.762
50590W        W21190  29.450  26.630   1.823
50591W        W21191  42.868  40.307   1.252
50592W        W21192  18.331  40.505   4.189
50593W        W21193  36.603  36.606   3.691
50594W        W21194   8.662   0.701   2.410
50595W        W21195  14.572  31.445  14.122
50596W        W21196  41.074   2.222  13.947
50597W        W21197  43.359  22.506  12.765
50598W        W21198   5.457  14.128  13.738
50599W        W21199   7.388  29.212   1.366
50600W        W21200   9.140   0.440  11.705
50601W        W21201  24.089  18.169   4.735
50602W        W21202   8.800  41.875   4.105
50603W        W21203  10.651  26.960  14.281
50604W        W21204  11.055  31.389   1.466
50605W        W21205   6.220  23.585  12.673
50606W        W21206  32.122   9.778   3.695
50607W        W21207  39.604  17.611  12.075
50608W        W21208  16.579   7.705  12.050
50609W        W21209   5.361  26.162  11.620
50610W        W21210  14.878  28.025  14.447
50611W        W21211  42.113  24.657  11.966
50612W        W21212  38.267  22.514   1.689
50613W        W21213  30.544  16.817  13.483
50614W        W21214   2.994   3.743   0.440
50615W        W21215  26.405  33.640   0.414
50616W        W21216  14.404  34.925  14.359
50617W        W21217  32.965  20.874  12.927
50618W        W21218  18.731  26.707   1.612
50619W        W21219   2.680   3.297  12.475
50620W        W21220  26.085   8.934  10.550
50621W        W21221  13.826  26.663   0.303
50622W        W21222  11.483  10.642   0.746
50623W        W21223  36.338   1.408   1.644
50624W        W21224   9.190   8.199  12.713
50625W        W21225  20.956  34.054  11.526
50626W        W21226  21.000   0.251   2.252
50627W        W21227  34.330  32.584   3.837
50628W        W21228  29.415  35.043  10.583
50629W        W21229  21.969   0.482   0.819
50630W        W21230   0.959  11.906   0.800
50631W        W21231  29.579  35.060  11.703
50632W        W21232   6.725  11.653  10.930
50633W        W21233  33.046   9.363   1.320
50634W        W21234   3.866  11.550  11.114
50635W        W21235  11.952  36.815  12.577
50636W        W21236  23.853  24.815  12.557
50637W        W21237  36.459  29.422   1.490
50638W        W21238  21.052  39.042  12.076
50639W        W21239  25.044  29.859  12.781
50640W        W21240   4.691  30.131   3.684
50641W        W21241   1.684  19.144  12.545
50642W        W21242   5.707  31.646   4.497
50643W        W21243   6.335  31.923   1.306
50644W        W21244  40.950  10.352   4.218
50645W        W21245  15.399   9.164  12.808
50646W        W21246  23.616  42.878   0.499
50647W        W21247   6.173  39.212  13.050
50648W        W21248  23.478  21.169  14.098
50649W        W21249   1.865  43.532   4.671
50650W        W21250   9.486   0.361  13.488
50651W        W21251  29.383  31.364  14.397
50652W        W21252  42.200  23.141   1.848
50653W        W21253   5.913  19.991   4.179
50654W        W21254  25.927  20.926   3.090
50655W        W21255  40.308  38.092   1.789
50656W        W21256  38.002  36.817  11.313
50657W        W21257   7.272  27.511  13.811
50658W        W21258   5.302  25.503   0.340
50659W        W21259  35.395   9.452   0.212
50660W        W21260  24.605  40.015  12.428
50661W        W21261  39.524  28.280   4.208
50662W        W21262  34.274   1.466   4.199
50663W        W21263  26.145  41.553   4.452
50664W        W21264  40.318  17.048  12.343
50665W        W21265   8.150  32.659  11.177
50666W        W21266  40.845  10.059  13.651
50667W        W21267  21.183  20.971  10.749
50668W        W21268  14.390  18.277  12.098
50669W        W21269   1.483  27.518  11.077
50670W        W21270  35.550  42.751   1.569
50671W        W21271  42.072   0.299   3.828
50672W        W21272  20.405   3.145  14.740
50673W        W21273  20.198   2.504  12.404
50674W        W21274  44.990   8.287   2.377
50675W        W21275   5.944  38.055  10.684
50676W        W21276   4.232   5.320  11.699
50677W        W21277   7.885  20.797  11.875
50678W        W21278  25.064  26.971   4.223
50679W        W21279  29.510  40.728  13.970
50680W        W21280   7.204  13.835  10.641
50681W        W21281  24.565  28.913  14.302
50682W        W21282  12.574  36.759   1.469
50683W        W21283   0.323  41.875  10.676
50684W        W21284   9.084   3.547   2.268
50685W        W21285  28.710   5.174  10.902
50686W        W21286  39.102  24.307   4.090
50687W        W21287   8.410  41.440   3.314
50688W        W21288   6.742  25.222  14.007
50689W        W21289   1.425  12.774   1.271
50690W        W21290  13.187   4.686  13.032
50691W        W21291   0.894   7.751  13.811
50692W        W21292   1.012  20.552   2.726
50693W        W21293  29.145  36.011  13.301
50694W        W21294   6.939  11.893  11.347
50695W        W21295  31.260  24.769   3.251
50696W        W21296  23.289  28.548   3.787
50697W        W21297  39.992  11.097   1.224
50698W        W21298  43.023  16.026  10.707
50699W        W21299  35.585  32.703  13.077
50700W        W21300  32.899  43.987   2.799
50701W        W21301  37.663   9.355   4.594
50702W        W21302  29.025   1.757   2.936
50703W        W21303  32.703   6.328   4.653
50704W        W21304  39.417   8.166   9.925
50705W        W21305  28.594  30.249  13.459
50706W        W21306  18.041  24.056   3.347
50707W        W21307  44.760   0.854   2.376
50708W        W21308  14.521  32.138  12.927
50709W        W21309  34.733  23.379   1.384
50710W        W21310  44.053  21.128   3.151
50711W        W21311   8.428  39.742  11.638
50712W        W21312   5.453  25.002  14.507
50713W        W21313  42.230  23.688  14.401
50714W        W21314  26.203  27.224  14.310
50715W        W21315  11.250  33.527  12.019
50716W        W21316   8.428  42.025  13.781
50717W        W21317  18.261  34.827   1.009
50718W        W21318   6.751  42.500   1.698
50719W        W21319  11.918   2.405   2.740
50720W        W21320  37.303   3.977   1.362
50721W        W21321  40.541  19.336  11.213
50722W        W21322   2.408  39.588  13.188
50723W        W21323  33.950  17.790  12.886
50724W        W21324  35.526  43.446  12.978
50725W        W21325  25.597  15.057   0.254
50726W        W21326  14.774  25.192   5.226
50727W        W21327  23.165  20.389  11.666
50728W        W21328  29.152   3.128   2.674
50729W        W21329   0.385  26.454   4.553
50730W        W21330  14.721  42.421   3.778
50731W        W21331   3.379  33.527  10.626
50732W        W21332  24.598  25.693  12.107
50733W        W21333   1.937  12.934  11.220
50734W        W21334   2.191  14.306   3.228
50735W        W21335  41.895  30.712   4.896
50736W        W21336   7.738  35.474  12.793
50737W        W21337  30.494  11.930  11.960
50738W        W21338  35.806   3.341  14.846
50739W        W21339  35.407  14.330  14.521
50740W        W21340   2.898  25.408   1.347
50741W        W21341  22.788  17.596   4.953
50742W        W21342  25.504   0.888  14.455
50743W        W21343  20.785  18.066   1.673
50744W        W21344  44.040  21.983  14.743
50745W        W21345  39.332  43.478   4.164
50746W        W21346  38.962  25.582  11.147
50747W        W21347  14.571  33.432  10.790
50748W        W21348  43.884   1.965  12.497
50749W        W21349  33.845  16.804  10.357
50750W        W21350  16.119  31.344   4.026
50751W        W21351  41.943   6.610  13.721
50752W        W21352   3.522  20.532   3.795
50753W        W21353  18.219  44.188   1.314
50754W        W21354  36.117  32.908  11.668
50755W        W21355   0.550   2.599   1.723
50756W        W21356  40.885  38.980  11.179
50757W        W21357   9.662  36.854  10.715
50758W        W21358  15.622  38.918   4.631
50759W        W21359  36.091  42.403  12.608
50760W        W21360  39.842  30.531   0.643
50761W        W21361  28.148   4.421  10.527
50762W        W21362  42.147  35.170   0.815
50763W        W21363  31.156  17.222  10.603
50764W        W21364  28.783  12.133   4.530
50765W        W21365   0.482  10.976   3.806
50766W        W21366  36.084  22.614  13.880
50767W        W21367  26.991  25.434  12.179
50768W        W21368  34.793  38.790  11.551
50769W        W21369   7.432  38.538  11.361
50770W        W21370  18.033  23.749  14.362
50771W        W21371  39.179  16.553  13.560
50772W        W21372  36.363  13.865  14.928
50773W        W21373  23.213  29.452   2.784
50774W        W21374   3.694   0.297  11.988
50775W        W21375  39.392  25.002  13.527
50776W        W21376  39.042  40.169   1.439
50777W        W21377   2.430   1.343   0.467
50778W        W21378   7.793  16.848   2.736
50779W        W21379  40.481  25.495  14.078
50780W        W21380   4.844  21.200   3.455
50781W        W21381  23.649  17.179   1.972
50782W        W21382  36.845  43.804  14.586
50783W        W21383   9.443  27.372   2.155
50784W        W21384  17.305  42.556   4.355
50785W        W21385   6.481  40.923  13.086
50786W        W21386  40.397  40.833  11.057
50787W        W21387  18.290  24.200  14.321
50788W        W21388  39.312  11.188  11.676
50789W        W21389  37.852  22.446  14.900
50790W        W21390  31.201   2.211   2.860
50791W        W21391   5.836   5.343  14.878
50792W        W21392  32.782  31.597  13.457
50793W        W21393  22.728  32.949   1.930
50794W        W21394   0.780  18.146   3.581
50795W        W21395  15.368  20.051   2.886
50796W        W21396  32.511   6.933  13.382
50797W        W21397  21.757  21.257  11.557
50798W        W21398  42.621  31.599   0.352
50799W        W21399  31.149  31.727   3.122
50800W        W21400  44.213   5.952   3.222
50801W        W21401  13.067  35.041   1.273
50802W        W21402  30.638  41.249   2.124
50803W        W21403  15.689   6.757   1.317
50804W        W21404   4.125  36.551  12.034
50805W        W21405  16.636  30.107   4.255
50806W        W21406   6.398  20.935  13.362
50807W        W21407  10.735  12.866  13.631
50808W        W21408   4.650  16.228  12.339
50809W        W21409  30.544  42.468  12.245
50810W        W21410   9.353  13.080  12.534
50811W        W21411   2.352  21.111  13.936
50812W        W21412   6.416  25.546  11.561
50813W        W21413   9.820  17.579  14.548
50814W        W21414  39.100  34.392  11.153
50815W        W21415  16.550  35.115   0.008
50816W        W21416   0.609  13.668  13.438
50817W        W21417  21.114  34.049   4.484
50818W        W21418   2.514  20.159   2.914
50819W        W21419  39.874  34.490  11.605
50820W        W21420   3.294  25.621   3.176
50821W        W21421  25.631  42.865  12.418
50822W        W21422   1.341  20.293   2.279
50823W        W21423  40.927  18.513   3.613
50824W        W21424  25.959   6.881  14.424
50825W        W21425   0.174  37.508   0.966
50826W        W21426  24.637  24.581   4.620
50827W        W21427  35.591   5.675   0.752
50828W        W21428   2.706   0.870  11.557
50829W        W21429  41.294   1.750  12.071
50830W        W21430  14.339  22.284  12.124
50831W        W21431   9.074  42.769  13.814
50832W        W21432  30.679  37.815  14.034
50833W        W21433   0.207   2.046  12.437
50834W        W21434  39.113   1.080   0.493
50835W        W21435  19.610  32.193  13.806
50836W        W21436   8.161  19.168  11.558
50837W        W21437  22.370  16.763   0.869
50838W        W21438   6.741  29.648   1.628
50839W        W21439  19.600  32.583   3.747
50840W        W21440  20.098  23.684  10.498
50841W        W21441  11.894  18.646  11.271
50842W        W21442  21.613   3.775  14.864
50843W        W21443  33.932  40.332   2.788
50844W        W21444  20.505  24.283   3.297
50845W        W21445  10.733   6.262  13.782
50846W        W21446  13.151   0.543   0.043
50847W        W21447   0.994  23.369   0.589
50848W        W21448  26.162  22.268   3.255
50849W        W21449   5.331   5.822  12.548
50850W        W21450  32.321  26.454   3.953
50851W        W21451  40.838  39.322  11.608
50852W        W21452  33.913   2.924   3.784
50853W        W21453   6.733   6.108   0.450
50854W        W21454  42.037  33.445  13.570
50855W        W21455   9.692  39.139   0.513
50856W        W21456  16.757  11.550  12.490
50857W        W21457  32.320   8.779  13.810
50858W        W21458  10.758  25.969   4.350
50859W        W21459   0.395   0.792  13.843
50860W        W21460   0.759  34.905   1.331
50861W        W21461  20.932  26.126  12.951
50862W        W21462  37.526  40.859  10.763
50863W        W21463  12.098   0.853   1.323
50864W        W21464   5.753  27.901  14.158
50865W        W21465   3.868  36.928  10.712
50866W        W21466  22.723  29.526  12.879
50867W        W21467  21.834   9.148  14.858
50868W        W21468  18.717   8.290   0.656
50869W        W21469  13.640  38.487   4.585
50870W        W21470   9.143  15.030  12.338
50871W        W21471  28.342  31.615  11.630
50872W        W21472  38.405  24.436   2.885
50873W        W21473  33.119  36.420  10.526
50874W        W21474  27.749   6.695  11.074
50875W        W21475   8.624  15.020   1.252
50876W        W21476  34.622  32.349  14.955
50877W        W21477   8.218  32.890  12.446
50878W        W21478  37.673   7.317   2.327
50879W        W21479  28.161  23.304  12.411
50880W        W21480   0.434  32.044  14.958
50881W        W21481  18.127  37.582  10.979
50882W        W21482  39.137  34.937   4.180
50883W        W21483  12.365   9.088  14.645
50884W        W21484  21.087   0.355   1.361
50885W        W21485  41.220   1.076   4.043
50886W        W21486  32.027  19.066  13.575
50887W        W21487  43.086   3.365  10.776
50888W        W21488  42.362  40.852  10.987
50889W        W21489  23.562  11.934  12.969
50890W        W21490  14.819  35.805  13.439
50891W        W21491   9.871  12.091  12.150
50892W        W21492   4.940  33.187  13.874
50893W        W21493  19.859  27.286   9.798
50894W        W21494   2.597  11.195  12.390
50895W        W21495  44.208  32.187  10.637
50896W        W21496  34.797  14.268   2.592
50897W        W21497   3.004   6.733   2.334
50898W        W21498  15.727  11.562   1.914
50899W        W21499  19.752  29.847   4.200
50900W        W21500  36.777  41.749  11.689
50901W        W21501  21.234   1.917  13.006
50902W        W21502  36.414  29.341   4.614
50903W        W21503   7.192  34.624   2.691
50904W        W21504  36.427  32.651  10.740
50905W        W21505  34.824  35.113  13.323
50906W        W21506  34.417  21.678  12.101
50907W        W21507  24.155  41.723  13.481
50908W        W21508  27.780  42.076   5.566
50909W        W21509  27.628   5.809   3.269
50910W        W21510  41.660  14.605   4.352
50911W        W21511  36.567  13.956  11.655
50912W        W21512  19.626   2.826   2.552
50913W        W21513   0.640   8.159   0.313
50914W        W21514   6.851  43.223  13.413
50915W        W21515   4.356  27.258  14.032
50916W        W21516  20.929  34.192  12.631
50917W        W21517  17.386  11.756   0.010
50918W        W21518  15.129  34.489   2.753
50919W        W21519  40.452  34.081   3.832
50920W        W21520   3.823  36.242   1.138
50921W        W21521   2.151  38.615  13.406
50922W        W21522  15.080  12.598   1.739
50923W        W21523  13.063  42.336   2.797
50924W        W21524   2.305   7.655   2.477
50925W        W21525  16.289  32.204   3.697
50926W        W21526  17.104  29.280  11.198
50927W        W21527  34.033  14.820   3.205
50928W        W21528   2.497  10.886   2.149
50929W        W21529   1.415  13.600  14.538
50930W        W21530  34.189  30.417  10.436
50931W        W21531  14.380  19.118  10.990
50932W        W21532   6.393  24.041   3.597
50933W        W21533  22.752  36.000  10.814
50934W        W21534   3.843  16.874   0.551
50935W        W21535  30.823  36.186  13.370
50936W        W21536  22.444  21.683   2.861
50937W        W21537  16.124  29.981  14.037
50938W        W21538  24.677  39.967  10.451
50939W        W21539  41.385  11.919  10.510
50940W        W21540  20.254  23.915  10.940
50941W        W21541  17.369  32.001  14.425
50942W        W21542   6.529  18.074  13.289
50943W        W21543  33.327  15.137  12.034
50944W        W21544  13.846   7.788   4.456
50945W        W21545  44.856  35.568   2.685
50946W        W21546  10.223  35.372   4.069
50947W        W21547   0.941  36.428   1.439
50948W        W21548   8.893  35.585   3.696
50949W        W21549  32.626  13.922  11.076
50950W        W21550  15.044  42.962   1.365
50951W        W21551   2.103   4.392   1.372
50952W        W21552  40.932  26.769  12.444
50953W        W21553  14.609  43.682  12.134
50954W        W21554  19.111  25.045  10.792
50955W        W21555  24.594  44.983  14.351
50956W        W21556  16.036   0.106   0.962
50957W        W21557  24.161  13.633  13.083
50958W        W21558   5.964  17.212  11.113
50959W        W21559   5.371  10.262  12.981
50960W        W21560  39.055  11.710   4.265
50961W        W21561  26.247   6.979  12.107
50962W        W21562  13.035   2.057  13.909
50963W        W21563  15.801  10.859   0.359
50964W        W21564  27.482   9.381  14.906
50965W        W21565   5.740  27.953   3.460
50966W        W21566   6.399  32.865   2.203
50967W        W21567  15.160  10.209  14.451
50968W        W21568  44.581  44.352   2.208
50969W        W21569  17.133  26.931  13.895
50970W        W21570   4.576   7.435   3.623
50971W        W21571  41.322  27.476  13.531
50972W        W21572  23.578  35.284  11.564
50973W        W21573  29.386  11.625  12.523
50974W        W21574   8.884   6.890   2.337
50975W        W21575   5.687  16.782   1.787
50976W        W21576  17.406   5.179   2.832
50977W        W21577  34.386  36.669   2.157
50978W        W21578  17.955  23.673   4.090
50979W        W21579  40.249  10.635   0.342
50980W        W21580   0.690   0.840   4.733
50981W        W21581  29.072  36.281   1.877
50982W        W21582  26.291  29.485   4.405
50983W        W21583  37.648  38.062  11.074
50984W        W21584  36.302  19.055   1.724
50985W        W21585  21.145  40.400  12.604
50986W        W21586  29.148  31.706  13.004
50987W        W21587   0.382  38.150  13.467
50988W        W21588  35.651  37.397  11.200
50989W        W21589  42.330  21.497   0.003
50990W        W21590  43.981  39.513   3.449
50991W        W21591  28.895  36.827   2.921
50992W        W21592   8.862  42.625  14.795
50993W        W21593  25.382   1.487   1.690
50994W        W21594  16.708   9.044  12.500
50995W        W21595  22.945   1.996   4.840
50996W        W21596  26.606  34.281   4.319
50997W        W21597   1.779  20.180  14.542
50998W        W21598   8.726  24.419   2.818
50999W        W21599   9.713  39.820  14.217
51000W        W21600  37.479  14.534  14.412
51001W        W21601  28.301  24.737   2.161
51002W        W21602  43.521  36.392  11.650
51003W        W21603  15.056  43.816  12.839
51004W        W21604   9.303  37.009   0.244
51005W        W21605  16.642  44.785  10.753
51006W        W21606  21.259  27.761  14.746
51007W        W21607  32.357  14.422  12.539
51008W        W21608  35.569  37.880   3.754
51009W        W21609  25.453  23.011  12.965
51010W        W21610  19.513  35.597   4.173
51011W        W21611  37.126  26.136   3.499
51012W        W21612   6.623  15.878  10.714
51013W        W21613  24.725  16.559  12.920
51014W        W21614  25.835   0.146   5.050
51015W        W21615  25.203  17.381   1.278
51016W        W21616  21.891  43.920  12.572
51017W        W21617  12.280  37.086  11.652
51018W        W21618  37.996  22.730   3.663
51019W        W21619  36.289   2.333   1.319
51020W        W21620  15.127  27.946  11.707
51021W        W21621  23.657   8.186   0.033
51022W        W21622  17.929  17.664  13.669
51023W        W21623   4.157  37.790   1.799
51024W        W21624  41.046  38.379   4.219
51025W        W21625  31.518  26.862  12.651
51026W        W21626  35.769  18.935  10.542
51027W        W21627  26.093   7.905  14.406
51028W        W21628   1.204  18.700  12.990
51029W        W21629  17.625  24.686  12.760
51030W        W21630  37.244   1.332   4.043
51031W        W21631  17.683  17.454   4.630
51032W        W21632   5.981  23.331  10.417
51033W        W21633   3.273  13.407   4.866
51034W        W21634  20.185  26.116   2.461
51035W        W21635  17.485   5.322   3.725
51036W        W21636   9.165  14.061   2.687
51037W        W21637   8.641  36.957   3.787
51038W        W21638  23.158   9.831   1.838
51039W        W21639  30.623   9.190   4.646
51040W        W21640  38.027  25.058   4.466
51041W        W21641  34.803  23.140   0.457
51042W        W21642  31.447   4.348   3.704
51043W        W21643  32.498  11.298  10.389
51044W        W21644  17.364  11.247   3.188
51045W        W21645  33.834  31.139  11.961
51046W        W21646  33.490  37.667  14.014
51047W        W21647   9.393  36.873  11.488
51048W        W21648   7.831  21.320   4.864
51049W        W21649  27.804  32.673   0.955
51050W        W21650  20.211   3.378  13.858
51051W        W21651  16.199  20.157   2.324
51052W        W21652  34.666  20.528   1.839
51053W        W21653  27.656   6.617   0.789
51054W        W21654   9.745   5.416   4.451
51055W        W21655  38.843  39.343   2.697
51056W        W21656  13.676   3.004   1.906
51057W        W21657  25.469  16.657   2.613
51058W        W21658   4.207  15.289  11.507
51059W        W21659  31.463  14.179  11.941
51060W        W21660  24.922  27.160   2.832
51061W        W21661  29.909   0.529   3.360
51062W        W21662   5.170  18.438  10.920
51063W        W21663  38.093  21.007  12.015
51064W        W21664  31.454   6.693   3.449
51065W        W21665  26.641  25.926   2.214
51066W        W21666  43.498  32.027   0.428
51067W        W21667   1.527  18.199   2.894
51068W        W21668   8.341   4.487   0.520
51069W        W21669  17.629  10.201   5.043
51070W        W21670   6.175  26.926   2.241
51071W        W21671  31.115  42.084  14.340
51072W        W21672  39.793  35.430   3.961
51073W        W21673  41.321  25.162   1.433
51074W        W21674  23.396  33.971   3.245
51075W        W21675  16.252  10.288  10.641
51076W        W21676  44.919  33.097   4.059
51077W        W21677  43.697  33.579   4.086
51078W        W21678  29.702   7.247   3.329
51079W        W21679   2.374   5.730   2.430
51080W        W21680  17.075  44.545   1.158
51081W        W21681  41.936  29.576   0.655
51082W        W21682  13.258  42.522  13.163
51083W        W21683  26.426  16.564  12.104
51084W        W21684  12.865  39.578   3.329
51085W        W21685  10.192  19.812  11.683
51086W        W21686  41.216  15.622  14.989
51087W        W21687  12.620   9.973   3.742
51088W        W21688  33.437  15.736   1.686
51089W        W21689   7.451  20.242  11.171
51090W        W21690  10.478   6.042  10.383
51091W        W21691   7.933   2.935   4.458
51092W        W21692  43.618  29.698   3.473
51093W        W21693  27.087  28.766  13.477
51094W        W21694  36.998   5.476   4.572
51095W        W21695  37.395   2.662  10.950
51096W        W21696   5.395   7.207  13.455
51097W        W21697  29.912   5.238   3.775
51098W        W21698   8.779  38.814  14.535
51099W        W21699  18.105  29.031  14.408
51100W        W21700  26.113  24.551   4.750
51101W        W21701  26.021   2.129   1.925
51102W        W21702  29.887  35.950  11.314
51103W        W21703  27.472  42.294   3.340
51104W        W21704  38.403   5.417  12.090
51105W        W21705   1.538  24.019  13.507
51106W        W21706  39.600  17.100  12.840
51107W        W21707  38.310   9.414  11.557
51108W        W21708  18.753   6.291  13.076
51109W        W21709  31.071  28.524   0.742
51110W        W21710  39.885   4.289  12.161
51111W        W21711  15.055   0.411  11.967
51112W        W21712  40.748   6.001  13.062
51113W        W21713  14.836  32.166  12.071
51114W        W21714   1.918  18.054   0.378
51115W        W21715  29.824  37.577   4.657
51116W        W21716  36.477  20.427  13.896
51117W        W21717  32.714  36.773  12.114
51118W        W21718  20.220  11.735   0.795
51119W        W21719   4.843   6.302  14.868
51120W        W21720  22.544   8.706   0.806
51121W        W21721  26.912   0.497  12.984
51122W        W21722  30.329  26.147   0.817
51123W        W21723  20.638   3.946  12.327
51124W        W21724  27.177  18.534  10.631
51125W        W21725   5.480   2.894  11.915
51126W        W21726  35.968  15.816   3.664
51127W        W21727  29.879  35.578   2.704
51128W        W21728  24.780  43.896   1.431
51129W        W21729  35.999   3.595   0.317
51130W        W21730  19.091   8.473   2.741
51131W        W21731   3.001  31.946   4.198
51132W        W21732   2.045  22.663   3.284
51133W        W21733  16.310  12.143  14.838
51134W        W21734  32.836  20.093  12.060
51135W        W21735  42.173  30.990  13.427
51136W        W21736  12.605  40.378   0.872
51137W        W21737  22.469  27.693  11.174
51138W        W21738  44.483  20.751  11.140
51139W        W21739  16.538  16.217  12.949
51140W        W21740  20.300  43.953  10.966
51141W        W21741  17.568  26.042   0.381
51142W        W21742  22.146  42.819   4.779
51143W        W21743  40.039  31.525   3.542
51144W        W21744  29.476  43.933  12.433
51145W        W21745  35.933  37.441  10.267
51146W        W21746  34.078  30.121   2.724
51147W        W21747   3.773  27.998  12.027
51148W        W21748  41.847   4.912  11.918
51149W        W21749   2.424  41.276  14.011
51150W        W21750  42.873   5.927   0.438
51151W        W21751   1.712  43.813   1.697
51152W        W21752  23.732  42.414  12.419
51153W        W21753   4.569  21.154   2.616
51154W        W21754  21.940  37.301  13.042
51155W        W21755   8.754  24.909  11.867
51156W        W21756  41.700  12.750   2.772
51157W        W21757  31.328  36.162  11.571
51158W        W21758  23.633  25.397  14.522
51159W        W21759  20.037  12.759   0.523
51160W        W21760   7.776  32.919  11.984
51161W        W21761  15.671  35.854   0.132
51162W        W21762   6.447  12.251  13.469
51163W        W21763  12.646  11.502   4.634
51164W        W21764  36.807  17.569   0.870
51165W        W21765   7.323  38.974  13.582
51166W        W21766   5.841  20.522   1.379
51167W        W21767  21.588  23.250  10.543
51168W        W21768  27.731   3.902  14.610
51169W        W21769  37.261  12.296   0.793
51170W        W21770  27.129  39.050   0.854
51171W        W21771  27.938  38.084   1.448
51172W        W21772  24.726  30.626  11.231
51173W        W21773  36.626  38.950  11.959
51174W        W21774  21.173  39.172  14.395
51175W        W21775  35.601  28.187   2.836
51176W        W21776   5.343  30.082  12.416
51177W        W21777  28.875  27.664   0.779
51178W        W21778  39.298  42.965   0.441
51179W        W21779  23.586   8.139   3.762
51180W        W21780  33.110   0.922   1.194
51181W        W21781  15.072  12.297  12.997
51182W        W21782   0.504  32.177   3.642
51183W        W21783  35.027  27.078   0.389
51184W        W21784   9.758  38.884  14.595
51185W        W21785  22.862   8.854  13.410
51186W        W21786  27.867   2.290   2.651
51187W        W21787  37.618  33.761   3.615
51188W        W21788  26.962  18.842   2.672
51189W        W21789   4.774  13.359   5.154
51190W        W21790  40.851   0.186   2.248
51191W        W21791  42.053  30.607  11.489
51192W        W21792  32.920  23.400  12.020
51193W        W21793  41.934  12.390  12.591
51194W        W21794  42.364  16.154  14.808
51195W        W21795  25.000  13.773  12.175
51196W        W21796  15.025  29.418  13.620
51197W        W21797  12.159  41.587  11.070
51198W        W21798   7.408  10.744  13.585
51199W        W21799  20.138   1.432  14.054
51200W        W21800  24.508   0.799   0.748
51201W        W21801  23.464  36.106  14.212
51202W        W21802  41.334  34.198  11.141
51203W        W21803  33.157  37.244   4.166
51204W        W21804  31.095  18.215  14.938
51205W        W21805   6.700  37.010  13.644
51206W        W21806  34.551  25.506  12.177
51207W        W21807  11.740  31.325   3.266
51208W        W21808  29.253   8.976   0.497
51209W        W21809  38.861  35.991  14.301
51210W        W21810   1.570  13.291   4.554
51211W        W21811  40.873  33.417  14.296
51212W        W21812   1.743  32.157   4.092
51213W        W21813  15.771   3.754   3.366
51214W        W21814  13.106  40.481   3.193
51215W        W21815  25.616   1.432  14.468
51216W        W21816  36.775  22.236  13.027
51217W        W21817   4.751  27.105   3.320
51218W        W21818  26.253  31.641   2.643
51219W        W21819  41.315  14.498  13.553
51220W        W21820  26.139  29.938   0.113
51221W        W21821   6.291   6.156   3.107
51222W        W21822  17.492  28.719  14.652
51223W        W21823   8.095   7.771  13.823
51224W        W21824   6.664   0.334  12.796
51225W        W21825  12.168  42.791  13.345
51226W        W21826  34.066  12.217   1.861
51227W        W21827  20.770  21.562   4.803
51228W        W21828  24.076   6.276   1.342
51229W        W21829  35.472  10.957  12.616
51230W        W21830   5.544   7.438   4.855
51231W        W21831  33.008  36.183   4.359
51232W        W21832  15.640   5.623   4.552
51233W        W21833  39.201   9.008   0.382
51234W        W21834  18.635  25.549   0.753
51235W        W21835  16.600  17.946  10.623
51236W        W21836  40.542  43.964   1.327
51237W        W21837  19.670   2.287   1.741
51238W        W21838  10.289  24.603   0.800
51239W        W21839  39.392  35.148  13.223
51240W        W21840  25.443  15.199  11.494
51241W        W21841  12.838   3.413   4.657
51242W        W21842  26.553   2.222  13.365
51243W        W21843  14.540  30.752   3.125
51244W        W21844  33.462  24.681  10.164
51245W        W21845  38.126   4.479  12.492
51246W        W21846  22.741  19.933   0.245
51247W        W21847  29.182  33.102   3.314
51248W        W21848  29.253   5.899   2.117
51249W        W21849  39.878   2.290  12.535
51250W        W21850  44.981  42.335  13.846
51251W        W21851  15.434  13.337   1.382
51252W        W21852  17.812  44.273   4.475
51253W        W21853   1.448  10.773   4.148
51254W        W21854  23.209   7.000  14.544
51255W        W21855   8.432  22.061  14.539
51256W        W21856  37.196   6.470  13.498
51257W        W21857  10.853  17.818  14.191
51258W        W21858  31.555  14.943   1.274
51259W        W21859  17.738  29.636   3.114
51260W        W21860  16.815  27.237   2.503
51261W        W21861  44.471  44.239  14.933
51262W        W21862  24.940  29.668   1.637
51263W        W21863   3.676  25.924   3.767
51264W        W21864   5.543  41.348   4.157
51265W        W21865  17.778  19.965   2.716
51266W        W21866  20.189   8.044   1.476
51267W        W21867  30.563  32.439   2.212
51268W        W21868  29.629  32.538  12.589
51269W        W21869  11.299  36.240  10.795
51270W        W21870  43.085  21.475   2.738
51271W        W21871  15.546   2.754  12.024
51272W        W21872   2.334   9.931   3.162
51273W        W21873  14.002  25.714   4.409
51274W        W21874  38.622  10.716   3.149
51275W        W21875   7.452  19.404   1.797
51276W        W21876  37.767  25.335  14.379
51277W        W21877  19.888   7.730   1.173
51278W        W21878  18.116  18.719  11.964
51279W        W21879  20.509  14.140  11.270
51280W        W21880   5.796   2.961   0.916
51281W        W21881  18.462  41.227  14.137
51282W        W21882  11.087  15.090  10.665
51283W        W21883  15.777   2.406   4.465
51284W        W21884   7.849  17.468   3.254
51285W        W21885  12.125  39.026  14.837
51286W        W21886  28.548   4.271   1.929
51287W        W21887  43.135   9.833  10.275
51288W        W21888  30.454  14.684  11.553
51289W        W21889  38.425  25.474  11.418
51290W        W21890  23.753  25.148  12.957
51291W        W21891  15.226  35.870   1.193
51292W        W21892  14.818  25.396   0.288
51293W        W21893  42.883   8.413  13.622
51294W        W21894  35.812  35.889   1.378
51295W        W21895  39.789  42.883   0.744
51296W        W21896   1.441  30.831  12.089
51297W        W21897  34.367   4.149  12.619
51298W        W21898   2.501   2.738   2.817
51299W        W21899  44.930  17.117  13.667
51300W        W21900  20.558  15.085   4.744
51301W        W21901  33.397  30.029   2.249
51302W        W21902   5.977  34.054   1.007
51303W        W21903   8.796  12.845   3.891
51304W        W21904  27.168  30.058   0.779
51305W        W21905   2.110  17.669   4.241
51306W        W21906   4.337  13.313   4.048
51307W        W21907  38.940  24.265   5.134
51308W        W21908  42.426  29.644   1.882
51309W        W21909  26.672  20.260   4.595
51310W        W21910   0.911   9.244  14.805
51311W        W21911   1.726  32.919   1.588
51312W        W21912   2.332  18.613  13.428
51313W        W21913   6.282  38.803  11.526
51314W        W21914  40.846  15.607   3.246
51315W        W21915   7.133   4.238   4.529
51316W        W21916  35.926  16.831   4.458
51317W        W21917  29.962  30.544   0.245
51318W        W21918   5.086  23.630   1.832
51319W        W21919  37.126  13.135  11.124
51320W        W21920  30.242  35.030   4.929
51321W        W21921  15.798  19.512  12.976
51322W        W21922  22.865  10.756  14.793
51323W        W21923  26.146  22.972   4.430
51324W        W21924  20.752  28.961   0.768
51325W        W21925  26.418  40.835   1.398
51326W        W21926  12.798  28.977   3.431
51327W        W21927  27.513  27.840   3.855
51328W        W21928  18.561  39.850   3.395
51329W        W21929  27.970  30.323  11.271
51330W        W21930  11.326  13.577  10.661
51331W        W21931  24.607  40.836  10.781
51332W        W21932  38.594   4.220   3.339
51333W        W21933  27.125   3.589  11.093
51334W        W21934  19.268  11.399  12.606
51335W        W21935   0.833  41.113   3.231
51336W        W21936  36.465   1.448  14.845
51337W        W21937  36.759  27.922   1.272
51338W        W21938  31.883  33.160   4.295
51339W        W21939  36.350  30.433   3.666
51340W        W21940   6.848  14.381  14.541
51341W        W21941   8.128  42.444  13.864
51342W        W21942  13.977  37.114   0.946
51343W        W21943  11.778  39.085   2.422
51344W        W21944   0.840  39.613  13.306
51345W        W21945  35.951  24.150   0.391
51346W        W21946   5.785  18.235   2.329
51347W        W21947  10.320  39.815   4.221
51348W        W21948  23.582  30.450   4.063
51349W        W21949  33.650   5.210   4.351
51350W        W21950  38.812  44.845   2.589
51351W        W21951   4.272  17.643  13.078
51352W        W21952   5.968  41.621   1.361
51353W        W21953   5.750  40.471   1.841
51354W        W21954  23.130  32.027   1.682
51355W        W21955  34.653  34.645   3.754
51356W        W21956  12.097  31.845  11.161
51357W        W21957  26.729  43.749  14.025
51358W        W21958  21.259  23.050   2.685
51359W        W21959  19.708  12.672  11.178
51360W        W21960  19.816  16.774   0.781
51361W        W21961  10.762   5.468  11.629
51362W        W21962  36.394   3.217   2.848
51363W        W21963   7.682   3.899  14.104
51364W        W21964  30.443   1.305  14.244
51365W        W21965  29.166  37.339   1.763
51366W        W21966  25.133  24.695  11.137
51367W        W21967  18.691  40.813   3.423
51368W        W21968   6.787  41.362   0.669
51369W        W21969  15.295   2.484  14.859
51370W        W21970   6.334  12.149   1.784
51371W        W21971  29.765  11.707  11.244
51372W        W21972  32.386  13.595  14.302
51373W        W21973   6.316  14.669   2.764
51374W        W21974  37.425   2.958   2.264
51375W        W21975  32.892  25.673  11.943
51376W        W21976   9.740  33.092  11.170
51377W        W21977  23.744   4.915   3.899
51378W        W21978  18.796  30.536   1.409
51379W        W21979   2.757  22.126  10.712
51380W        W21980  38.405  35.724   0.306
51381W        W21981   6.858  32.739   2.906
51382W        W21982  31.666  18.744  14.783
51383W        W21983  23.445  27.912  13.036
51384W        W21984  25.512  10.677   1.205
51385W        W21985   0.260  33.440  12.615
51386W        W21986  33.065  12.267  10.333
51387W        W21987   6.764  12.493   0.724
51388W        W21988  28.438  10.419   1.937
51389W        W21989   5.420   8.223   1.003
51390W        W21990  31.576  28.707   2.819
51391W        W21991  31.971  32.468  13.536
51392W        W21992  23.041   7.642   0.277
51393W        W21993  15.863   2.854  12.446
51394W        W21994   5.130  30.289   3.876
51395W        W21995  32.159  22.363   3.627
51396W        W21996   7.784   0.860  12.984
51397W        W21997  35.147  16.422  10.512
51398W        W21998  28.579  10.682   1.309
51399W        W21999  35.883  37.884   4.750
51400W        W22000  38.522   0.040   4.551
51401W        W22001  17.756  25.076  14.277
51402W        W22002  12.035  19.323   3.200
51403W        W22003  28.816  17.604  14.214
51404W        W22004   2.692  27.620  14.496
51405W        W22005  22.485  14.838  13.556
51406W        W22006  15.336  18.381   1.160
51407W        W22007  14.095  16.283   1.314
51408W        W22008   9.223  30.119   3.162
51409W        W22009  15.288  29.403   1.944
51410W        W22010  16.311  14.633   0.946
51411W        W22011  39.922  25.579  13.966
51412W        W22012  36.338   6.336   2.283
51413W        W22013  11.573   7.517   0.949
51414W        W22014  29.458  28.013  10.787
51415W        W22015  22.005   1.723  10.800
51416W        W22016  24.647   5.654  12.066
51417W        W22017  37.529  29.686  14.751
51418W        W22018  18.603  20.515  12.020
51419W        W22019   3.231  29.222  13.825
51420W        W22020   4.549  23.072   4.602
51421W        W22021  12.495  20.991   0.921
51422W        W22022   5.944  17.233   4.263
51423W        W22023  12.191  40.941  13.016
51424W        W22024  20.619   8.532  13.404
51425W        W22025  41.756   7.887  11.621
51426W        W22026  42.493  44.040   3.043
51427W        W22027  11.383  26.899   0.360
51428W        W22028   7.815  20.569   1.665
51429W        W22029  11.309  16.557  14.074
51430W        W22030  18.933  20.029   3.703
51431W        W22031  36.497  34.159  12.935
51432W        W22032   5.342  13.384   2.712
51433W        W22033  24.442  29.828  14.320
51434W        W22034  26.321  37.933  14.354
51435W        W22035   5.580  38.984   2.998
51436W        W22036  26.521  37.175  11.181
51437W        W22037  13.715  43.267  13.415
51438W        W22038   5.672   1.694  12.947
51439W        W22039  30.605  41.624  10.245
51440W        W22040  24.155   0.924   1.454
51441W        W22041  14.217  13.250  12.814
51442W        W22042  11.856  11.917  13.936
51443W        W22043  39.485  28.467   4.697
51444W        W22044  14.140   1.423  14.532
51445W        W22045  25.401  44.894   2.804
51446W        W22046  20.214  32.466   1.322
51447W        W22047  19.463  18.584  10.773
51448W        W22048  16.438  13.075   1.785
51449W        W22049  31.379  21.963  11.649
51450W        W22050   8.662  21.559   3.330
51451W        W22051  29.117  20.699   3.716
51452W        W22052  40.521   6.671   1.883
51453W        W22053   5.362  11.319   0.855
51454W        W22054  19.039  10.483  12.797
51455W        W22055   2.525  23.914  12.599
51456W        W22056  24.863  23.246   1.791
51457W        W22057  43.951  25.597   2.348
51458W        W22058   6.077  24.858   4.927
51459W        W22059  24.284  17.743   1.635
51460W        W22060  38.365   5.344   2.769
51461W        W22061  17.069   5.011  13.014
51462W        W22062  24.869   3.873   0.879
51463W        W22063  22.593  44.972   0.226
51464W        W22064  23.002  42.053  10.325
51465W        W22065   6.354   8.469  14.448
51466W        W22066  26.082  14.126  13.447
51467W        W22067  43.783  14.033  12.121
51468W        W22068  13.603  19.855  11.439
51469W        W22069   6.640   0.449   1.439
51470W        W22070  34.836  32.660   0.460
51471W        W22071  40.178  20.558  11.528
51472W        W22072   7.240   7.068  11.036
51473W        W22073  19.251  41.435   3.624
51474W        W22074   1.275  16.440   4.037
51475W        W22075   9.584  38.889   1.346
51476W        W22076  30.845   3.870   0.090
51477W        W22077  40.779   5.875   3.799
51478W        W22078  40.713  21.450   1.414
51479W        W22079  33.074  41.837   2.239
51480W        W22080  11.919  39.470   1.193
51481W        W22081  37.969  44.671   2.339
51482W        W22082  29.469   4.167  13.745
51483W        W22083  10.803  38.065   2.438
51484W        W22084  15.575  16.104   2.339
51485W        W22085  39.833  42.753   3.836
51486W        W22086  12.081  10.812  12.390
51487W        W22087  33.207  40.788  14.422
51488W        W22088  15.610  25.256   3.565
51489W        W22089   4.001  23.665  14.912
51490W        W22090   2.808  37.546  14.245
51491W        W22091  19.212  30.443   1.750
51492W        W22092  29.059  16.355  11.473
51493W        W22093  33.360  31.000   2.444
51494W        W22094  13.922  25.970   0.643
51495W        W22095  40.874   0.461  10.781
51496W        W22096  23.129  17.571   3.972
51497W        W22097  28.521  33.773  14.854
51498W        W22098  12.368  20.936  13.947
51499W        W22099  32.406  31.900  14.534
51500W        W22100   9.091  31.764   0.874
51501W        W22101  26.963  31.120  11.798
51502W        W22102  32.116  18.072  11.122
51503W        W22103   1.673   1.711  14.263
51504W        W22104  36.094  23.084  14.451
51505W        W22105  19.042   5.241   1.053
51506W        W22106   5.751  42.134  10.963
51507W        W22107  16.626  36.430   4.108
51508W        W22108  27.115  10.294  14.942
51509W        W22109  41.435  13.923   0.680
51510W        W22110  38.383  14.701   3.799
51511W        W22111  32.764  38.966  10.370
51512W        W22112  19.511  17.706  13.090
51513W        W22113  20.035   6.783  10.674
51514W        W22114  30.980   0.743   2.748
51515W        W22115   9.150  16.496   0.244
51516W        W22116  31.305  32.636  11.481
51517W        W22117  42.636  12.353  11.912
51518W        W22118  44.901   9.145   2.380
51519W        W22119  12.356  41.692  12.795
51520W        W22120  17.845  11.131   3.349
51521W        W22121  31.926  18.787  11.399
51522W        W22122   1.914  28.769  10.736
51523W        W22123  27.786  40.263  14.358
51524W        W22124  44.184   4.572  14.780
51525W        W22125  21.259  15.052  10.345
51526W        W22126  35.596  40.480   4.573
51527W        W22127   2.424  13.101   4.313
51528W        W22128  35.958  17.876   3.657
51529W        W22129  25.471  22.318  14.876
51530W        W22130  31.860   8.058  10.603
51531W        W22131  31.834  41.384  11.709
51532W        W22132  16.693  36.483  11.572
51533W        W22133  30.764  37.957   5.123
51534W        W22134  17.052   5.540   2.744
51535W        W22135  11.342  25.559  11.571
51536W        W22136  26.326  13.806   3.436
51537W        W22137  39.351  28.551  12.945
51538W        W22138  36.896  27.569  11.218
51539W        W22139  25.917  40.727   1.333
51540W        W22140  15.273  11.319   1.940
51541W        W22141  27.333  17.295  11.158
51542W        W22142  41.415   8.901  12.800
51543W        W22143   6.801  43.516   2.881
51544W        W22144  25.002  21.504   4.301
51545W        W22145   2.807  34.094   1.056
51546W        W22146  17.016  35.030  13.286
51547W        W22147  23.152  13.343   0.833
51548W        W22148  37.936   9.346   4.140
51549W        W22149  22.472  22.208   2.776
51550W        W22150   7.715  12.761   2.130
51551W        W22151   9.763   4.259  12.039
51552W        W22152  30.793   4.566  14.936
51553W        W22153   0.844  23.922  14.019
51554W        W22154  41.210  18.095   1.292
51555W        W22155   9.136  11.372  11.653
51556W        W22156  44.016   0.033  13.831
51557W        W22157  33.432  33.185   3.903
51558W        W22158  39.116  26.165  14.932
51559W        W22159  31.434  34.491  11.999
51560W        W22160  14.828   1.505  12.054
51561W        W22161  14.110  32.563   4.758
51562W        W22162  11.875  41.445  13.591
51563W        W22163  10.249  26.214  12.936
51564W        W22164  19.087  39.058   3.546
51565W        W22165  30.220  39.059   0.797
51566W        W22166  17.579  21.131   1.797
51567W        W22167   3.510  17.370   0.401
51568W        W22168  15.727   4.255   3.291
51569W        W22169  42.281  33.574   3.653
51570W        W22170  44.088  24.801   5.116
51571W        W22171  41.785  23.314  11.438
51572W        W22172  10.868   9.361  11.977
51573W        W22173  31.449  38.918  13.301
51574W        W22174  25.018  43.490  10.615
51575W        W22175   1.279  27.395  10.626
51576W        W22176  22.277   1.543  14.826
51577W        W22177  29.654  31.042   2.425
51578W        W22178  37.776   1.273   3.969
51579W        W22179  41.871  29.683   2.732
51580W        W22180   7.269   4.880  14.422
51581W        W22181  21.851  12.039   0.290
51582W        W22182  29.556   9.071   3.185
51583W        W22183  14.251  37.626  12.895
51584W        W22184   1.461  15.110   3.687
51585W        W22185   2.753  44.845   0.818
51586W        W22186   8.950   8.729   0.814
51587W        W22187  34.388  16.691   2.850
51588W        W22188   9.609  32.658   0.876
51589W        W22189  43.257  21.569   0.313
51590W        W22190  36.349  42.270   2.885
51591W        W22191  24.775  22.266  13.423
51592W        W22192   0.495  10.251  10.961
51593W        W22193  32.530  12.314   1.999
51594W        W22194  30.579   2.491   4.574
51595W        W22195   5.246  10.564   4.649
51596W        W22196  25.382  24.842  13.418
51597W        W22197  16.736  44.895  13.562
51598W        W22198  32.507  29.658  12.109
51599W        W22199   8.390  16.008  12.845
51600W        W22200  44.669  31.224  13.358
51601W        W22201  20.550  25.848  11.205
51602W        W22202   5.416  32.538   0.529
51603W        W22203   5.676  23.977  14.929
51604W        W22204  39.151  10.845   5.128
51605W        W22205  10.294  15.003  12.391
51606W        W22206  18.095  10.356   0.178
51607W        W22207   3.454  29.645  14.032
51608W        W22208  36.880   1.793  12.383
51609W        W22209  25.968  38.389   3.835
51610W        W22210  29.888  25.607   3.790
51611W        W22211  10.808  23.193  11.599
51612W        W22212  42.447  19.313   1.793
51613W        W22213  34.633  14.548   3.801
51614W        W22214   9.995  23.948  14.853
51615W        W22215  39.719   0.895   4.115
51616W        W22216  20.639   5.779   2.871
51617W        W22217  33.125  37.938  11.662
51618W        W22218   2.983  22.652  12.927
51619W        W22219  11.101  11.924  13.471
51620W        W22220  16.592  30.327   1.379
51621W        W22221  36.432  36.501  12.969
51622W        W22222  11.753  19.510  12.142
51623W        W22223  33.539  23.670   4.335
51624W        W22224   5.253  30.202  13.039
51625W        W22225  11.330  20.884  13.993
51626W        W22226  39.491  34.878   1.441
51627W        W22227  34.676   0.430  11.999
51628W        W22228   3.879  21.310  12.801
51629W        W22229  27.993   3.738  10.607
51630W        W22230  17.058  15.678   4.196
51631W        W22231   9.272  18.723  13.116
51632W        W22232   3.382   0.179   0.093
51633W        W22233  11.351  29.133  12.015
51634W        W22234  25.102  43.188   2.311
51635W        W22235  18.935   1.218   2.692
51636W        W22236  25.863   7.866   2.703
51637W        W22237  24.748  10.989  10.369
51638W        W22238   7.800  31.185   2.100
51639W        W22239  34.775  26.324  12.075
51640W        W22240  20.061  32.953   2.410
51641W        W22241  14.057  27.416  14.857
51642W        W22242   4.517  15.708   2.282
51643W        W22243  12.168  36.386  14.819
51644W        W22244   2.722   2.471  12.856
51645W        W22245  15.762  20.345  12.488
51646W        W22246  26.429   4.649   4.560
51647W        W22247  30.344  27.454   3.631
51648W        W22248  37.065  13.240   0.837
51649W        W22249  41.007  11.111  14.615
51650W        W22250  11.803   1.070  12.134
51651W        W22251  32.058  17.362  12.223
51652W        W22252  40.420   9.688  12.088
51653W        W22253   7.658  35.878   0.850
51654W        W22254  13.326  18.458   2.588
51655W        W22255  11.376  31.192  13.044
51656W        W22256  25.667  36.842   2.360
51657W        W22257   0.998  41.348  11.633
51658W        W22258  14.100  31.205  11.362
51659W        W22259   4.283  19.534   3.474
51660W        W22260  26.376  26.604   4.958
51661W        W22261  36.834  19.970  11.617
51662W        W22262  10.301  26.511  11.748
51663W        W22263  22.953  29.496  14.044
51664W        W22264  33.578  40.677   3.007
51665W        W22265  13.750  21.196   2.738
51666W        W22266  37.717  20.980   3.789
51667W        W22267   0.242  26.351  13.327
51668W        W22268   1.250  37.444   1.713
51669W        W22269  28.660   0.792  14.029
51670W        W22270  21.755  40.924   2.160
51671W        W22271  14.223  26.241  12.619
51672W        W22272  10.271  13.220   5.241
51673W        W22273  18.536  12.324   3.130
51674W        W22274  37.971  15.565  13.109
51675W        W22275  38.785  37.813   0.083
51676W        W22276   1.938  30.722   1.614
51677W        W22277  24.624  36.550   3.621
51678W        W22278  42.481  40.245  12.039
51679W        W22279   6.696   2.501   0.017
51680W        W22280  27.700  19.627  11.172
51681W        W22281  12.183  10.790  11.625
51682W        W22282  14.813  11.924  14.885
51683W        W22283  13.880  20.541  13.420
51684W        W22284  21.101  30.699   3.629
51685W        W22285  15.036  41.557  13.754
51686W        W22286  10.118  30.318  11.814
51687W        W22287  38.191  17.636  13.168
51688W        W22288   8.161  44.024  13.959
51689W        W22289  35.367  40.511   0.595
51690W        W22290  43.823  28.003  12.809
51691W        W22291  43.584  16.313   0.925
51692W        W22292  20.628  24.971   0.887
51693W        W22293  23.063   3.944  12.214
51694W        W22294  30.502  38.452   0.059
51695W        W22295  38.554   7.640  11.132
51696W        W22296  35.504  11.379   1.308
51697W        W22297   4.963   8.967  12.276
51698W        W22298  12.653  22.048   0.107
51699W        W22299  35.811  35.047  12.153
51700W        W22300  16.682  22.999   2.105
51701W        W22301  17.659   0.500  12.623
51702W        W22302  28.166  44.092  13.128
51703W        W22303  13.530   5.769  13.839
51704W        W22304  21.831  14.843   4.065
51705W        W22305  29.731   5.507   0.412
51706W        W22306  17.724  19.445   1.269
51707W        W22307  17.198  17.289  14.337
51708W        W22308  44.321   7.660   1.273
51709W        W22309  40.008   5.827  13.523
51710W        W22310  18.367  37.043   1.419
51711W        W22311  33.741  41.155   0.204
51712W        W22312   8.715  28.889   3.139
51713W        W22313  36.726   8.702  11.528
51714W        W22314  43.507  39.844   4.035
51715W        W22315  21.205  21.517  14.764
51716W        W22316  35.466  11.539   2.352
51717W        W22317  40.508  35.996   1.914
51718W        W22318   9.101   3.851  14.356
51719W        W22319  42.259  40.124   4.046
51720W        W22320  44.005  37.465   4.023
51721W        W22321  15.671  24.209   4.426
51722W        W22322  31.217  40.342   2.841
51723W        W22323  11.690   3.320  12.163
51724W        W22324  31.464  15.420   4.701
51725W        W22325   7.629  38.106  13.455
51726W        W22326   6.711  12.007   0.924
51727W        W22327   6.705  16.775   0.667
51728W        W22328  20.499  31.558  12.495
51729W        W22329  41.707   4.752   2.268
51730W        W22330  20.276  18.107  11.987
51731W        W22331  29.338  12.079   0.705
51732W        W22332  24.456   3.809   4.417
51733W        W22333  13.316  15.854   1.429
51734W        W22334  24.524  22.603  14.201
51735W        W22335  12.131  10.498   1.783
51736W        W22336  11.345  19.351  14.848
51737W        W22337   6.797   3.925   4.867
51738W        W22338  41.235  21.686   1.499
51739W        W22339  44.289   6.751   4.327
51740W        W22340  41.375  37.626  12.878
51741W        W22341  28.470  14.632   1.279
51742W        W22342  34.413  44.838   2.150
51743W        W22343  10.263  38.874  11.203
51744W        W22344   7.218  29.627   0.251
51745W        W22345  29.866  37.370  14.948
51746W        W22346  20.937  17.688   0.000
51747W        W22347  44.445  19.255  12.874
51748W        W22348  14.752  14.761   1.746
51749W        W22349   7.777  28.282  14.876
51750W        W22350  34.977   3.882   3.372
51751W        W22351  16.774  34.696   1.422
51752W        W22352  37.156  12.461   1.548
51753W        W22353  22.308  27.739   2.677
51754W        W22354  44.872  30.214  13.428
51755W        W22355  39.518  27.709  10.707
51756W        W22356  22.632  41.082  11.670
51757W        W22357  19.124  26.753  14.852
51758W        W22358  27.209  20.835  13.542
51759W        W22359   2.968  41.464  13.207
51760W        W22360  24.636  32.792  14.012
51761W        W22361   2.347  16.896   9.845
51762W        W22362  39.089   0.164   2.302
51763W        W22363  11.823   6.771  13.061
51764W        W22364  43.539  17.258   1.947
51765W        W22365  12.929  37.949  14.949
51766W        W22366  18.097  27.233   2.629
51767W        W22367  17.035  38.497  12.551
51768W        W22368   6.788  20.881  12.491
51769W        W22369  17.823  32.007  11.201
51770W        W22370  40.903  42.602  14.613
51771W        W22371   5.228  42.542   0.830
51772W        W22372  41.859  23.785   3.166
51773W        W22373  42.805  20.748   1.080
51774W        W22374   7.373  40.639  11.055
51775W        W22375  18.264  18.958  14.806
51776W        W22376  24.184  17.051  11.073
51777W        W22377   7.423   0.196   2.069
51778W        W22378  14.130  25.131   1.179
51779W        W22379   9.352  10.618  13.971
51780W        W22380  30.756  17.780  12.884
51781W        W22381  40.589  39.553   0.382
51782W        W22382  37.892  42.188   4.629
51783W        W22383  29.543  10.564   4.916
51784W        W22384  40.397   2.236   4.395
51785W        W22385   6.683  17.236  10.750
51786W        W22386  43.266   3.101  13.726
51787W        W22387  38.896  22.037  10.322
51788W        W22388  11.807  25.078   4.534
51789W        W22389  24.399  26.527  12.525
51790W        W22390  15.902  21.217   5.123
51791W        W22391  43.538  18.046  14.038
51792W        W22392  33.581  29.035  12.767
51793W        W22393  42.980   8.201  11.471
51794W        W22394  10.157  39.820  13.927
51795W        W22395  36.162   9.161   1.362
51796W        W22396  40.538  20.177   2.927
51797W        W22397   6.800  35.624   1.208
51798W        W22398  22.969   2.240   3.994
51799W        W22399   1.329  36.352  11.722
51800W        W22400  15.530   1.898  12.434
51801W        W22401  17.977  16.299  10.654
51802W        W22402   7.441   6.627  11.711
51803W        W22403  38.830  11.260  11.577
51804W        W22404  26.134  11.446  11.627
51805W        W22405  39.435  36.457  12.115
51806W        W22406  43.269   9.335  13.914
51807W        W22407  12.591  19.487   4.932
51808W        W22408  42.005  40.518  10.796
51809W        W22409  28.064  35.461   1.332
51810W        W22410   3.398  26.122   1.891
51811W        W22411  11.106  35.981   4.202
51812W        W22412  36.038  43.967   2.292
51813W        W22413  16.182  25.356  12.314
51814W        W22414  37.891   6.151   3.618
51815W        W22415   1.970  44.811  14.335
51816W        W22416  24.002  25.613   3.637
51817W        W22417  12.772  18.298  13.428
51818W        W22418  39.629  12.291   4.440
51819W        W22419  44.064  34.908   0.880
51820W        W22420   7.134  23.311  12.629
51821W        W22421  27.749  18.382   0.489
51822W        W22422  15.156  33.273   5.026
51823W        W22423   7.746   6.643  12.121
51824W        W22424  11.145  32.082  14.975
51825W        W22425   3.281  17.130  13.183
51826W        W22426   9.812  35.594  11.221
51827W        W22427  17.121  31.070  11.586
51828W        W22428  10.193  10.112   1.398
51829W        W22429  29.444  23.283  13.899
51830W        W22430  42.960  30.434  11.070
51831W        W22431  27.248  44.463  10.666
51832W        W22432  17.926   8.391   2.242
51833W        W22433   2.187  27.633  14.401
51834W        W22434  12.238  16.620  12.171
51835W        W22435  38.378   3.764  12.494
51836W        W22436  39.970  22.106  14.471
51837W        W22437  41.639  16.069  14.301
51838W        W22438   5.527  19.018   4.207
51839W        W22439  38.506   3.281   0.233
51840W        W22440  33.516  41.615   3.388
51841W        W22441  36.849  40.204  11.275
51842W        W22442  38.430  23.416   2.683
51843W        W22443  12.281   5.677  14.704
51844W        W22444   9.468  14.616   0.420
51845W        W22445  13.306  27.494   3.876
51846W        W22446  18.582  44.724  11.270
51847W        W22447   1.470  12.172  12.655
51848W        W22448  21.974  29.481  13.791
51849W        W22449  14.526  32.823  11.640
51850W        W22450  32.190   3.959   2.630
51851W        W22451   7.793  34.996  12.012
51852W        W22452  10.138  26.015   4.580
51853W        W22453  23.932  33.125   2.220
51854W        W22454  12.274  25.758  13.529
51855W        W22455  19.654  39.596   3.700
51856W        W22456  29.970  15.510  10.041
51857W        W22457  33.857  21.895  10.580
51858W        W22458  36.409  17.733  11.641
51859W        W22459   1.892   1.267  13.345
51860W        W22460  12.606  41.874  14.766
51861W        W22461  21.287  27.662   2.250
51862W        W22462  33.559  17.830  13.765
51863W        W22463  10.290  16.464   2.264
51864W        W22464  27.183  34.391   3.181
51865W        W22465  10.604  23.592   1.879
51866W        W22466  17.349  14.167   2.820
51867W        W22467  12.117  43.998   3.098
51868W        W22468  34.031  12.270   1.009
51869W        W22469   5.845  12.287  11.078
51870W        W22470  38.426  12.191  10.713
51871W        W22471  23.578  27.488  13.988
51872W        W22472  42.385  37.839  11.696
51873W        W22473  21.016   7.272  11.958
51874W        W22474  25.698   7.192  13.007
51875W        W22475   9.938  13.017  10.286
51876W        W22476  21.839  16.030   3.782
51877W        W22477  15.461  42.468   0.704
51878W        W22478   8.871  37.369   3.570
51879W        W22479  44.956  16.281  11.431
51880W        W22480   1.859  26.390   3.353
51881W        W22481  14.136  39.327   2.266
51882W        W22482   5.843   4.295   0.365
51883W        W22483  38.260  30.626  13.515
51884W        W22484  14.774  12.488   2.681
51885W        W22485  30.576  16.838  12.609
51886W        W22486  10.797  43.715   4.043
51887W        W22487   2.590  25.007  12.519
51888W        W22488  43.900  36.442  12.047
51889W        W22489   3.802  37.456  12.889
51890W        W22490  10.731  28.162  12.434
51891W        W22491  38.885   2.979  11.070
51892W        W22492  24.699  20.641  14.863
51893W        W22493   6.290  36.342   3.197
51894W        W22494  42.050  11.806   0.764
51895W        W22495   9.105  41.549   5.089
51896W        W22496  11.364   4.787  10.735
51897W        W22497  32.656  25.673  12.900
51898W        W22498  39.068  17.562  13.415
51899W        W22499  24.291   1.335   0.158
51900W        W22500  15.504   6.859   3.562
51901W        W22501  10.217  19.769   2.313
51902W        W22502  21.557  10.821  12.862
51903W        W22503  16.569  31.018   1.947
51904W        W22504  44.539  28.971   1.398
51905W        W22505  33.578  21.571  14.590
51906W        W22506  32.607  33.107   4.183
51907W        W22507   5.648   9.221   3.886
51908W        W22508   4.997  30.373   0.695
51909W        W22509   3.150  12.737   0.333
51910W        W22510  11.814  14.940  12.956
51911W        W22511   8.234  25.675   0.308
51912W        W22512  19.429  27.080   2.076
51913W        W22513  13.114  31.039  10.567
51914W        W22514  43.058  14.855   1.922
51915W        W22515  35.710  43.537   2.750
51916W        W22516  41.828  24.469   0.013
51917W        W22517   8.146  11.608  12.072
51918W        W22518  10.367  31.107   0.094
51919W        W22519  18.185  26.087   3.168
51920W        W22520  20.237  31.413  10.724
51921W        W22521   7.019   1.403   2.757
51922W        W22522   0.933  24.877   2.382
51923W        W22523   2.185  30.379  13.369
51924W        W22524  17.713  21.698   1.187
51925W        W22525   4.247  42.952   1.166
51926W        W22526  13.571   1.639   5.449
51927W        W22527  42.030  21.499  11.172
51928W        W22528  13.154  44.561  13.963
51929W        W22529   4.851   4.098  10.730
51930W        W22530  13.459  13.347   3.111
51931W        W22531   1.900   9.674   3.309
51932W        W22532  42.617  23.332   3.229
51933W        W22533   6.026  39.420  11.990
51934W        W22534  21.982  13.310  12.495
51935W        W22535  39.279  29.860  14.749
51936W        W22536  20.348  14.362  13.411
51937W        W22537   1.924  17.558  11.120
51938W        W22538  18.814  32.208  13.434
51939W        W22539  20.623  26.230   0.338
51940W        W22540   3.300  27.774  11.596
51941W        W22541   3.403  41.120   4.113
51942W        W22542  13.846  20.211   3.544
51943W        W22543  28.952  34.544   1.155
51944W        W22544  33.451  38.298   2.762
51945W        W22545   3.438  38.442  10.111
51946W        W22546  31.064  13.267   0.931
51947W        W22547   8.706  27.865  14.423
51948W        W22548  27.050  29.216   3.618
51949W        W22549   8.185  43.799   2.830
51950W        W22550   9.591  18.193   4.170
51951W        W22551  20.446   0.555  14.809
51952W        W22552  25.689   8.928   3.410
51953W        W22553   9.710   5.906   2.308
51954W        W22554  17.567  19.806  14.796
51955W        W22555   8.758  24.804  12.372
51956W        W22556   3.283   3.807   1.466
51957W        W22557  41.502   3.820  13.921
51958W        W22558   6.435   3.312  12.355
51959W        W22559  42.468  25.442  11.670
51960W        W22560   2.077  34.213   3.111
51961W        W22561  31.496  23.533   0.781
51962W        W22562  10.935   8.376   2.340
51963W        W22563  28.719  42.362  12.150
51964W        W22564   1.662  30.029   4.370
51965W        W22565  34.907  35.364   1.850
51966W        W22566   8.874  36.890  11.423
51967W        W22567  16.970  38.014  12.389
51968W        W22568  31.035  44.492   2.298
51969W        W22569  12.267   2.016   4.682
51970W        W22570  28.518   8.541   3.637
51971W        W22571  39.020  38.052  14.198
51972W        W22572  38.554   1.946   3.806
51973W        W22573  11.296  34.357  11.484
51974W        W22574  16.082  19.572  12.530
51975W        W22575  27.146  26.960  14.890
51976W        W22576  42.515   8.801   1.735
51977W        W22577  14.404   7.539  13.991
51978W        W22578  19.369   2.996   1.655
51979W        W22579  20.084  25.208  14.996
51980W        W22580   7.272  32.111  14.496
51981W        W22581  43.015  35.798   4.171
51982W        W22582  25.413  36.899  13.286
51983W        W22583  44.171  15.213   3.199
51984W        W22584  29.618  24.307  12.282
51985W        W22585  30.985   3.025   2.559
51986W        W22586  21.571  26.018   2.115
51987W        W22587  40.116  34.995   0.236
51988W        W22588  32.771   3.845  12.363
51989W        W22589  21.016   5.825   1.584
51990W        W22590  27.014   4.844  11.103
51991W        W22591   1.355  42.362  14.312
51992W        W22592  26.011  16.889   0.487
51993W        W22593  21.550  23.811  12.068
51994W        W22594  39.983  41.859   0.388
51995W        W22595  32.499  38.604  14.069
51996W        W22596  41.405  24.469  11.240
51997W        W22597  15.996  14.078   1.726
51998W        W22598  29.773   0.856   1.824
51999W        W22599  21.432  17.653  10.529
52000W        W22600  38.801  10.982   2.673
52001W        W22601   5.758   0.106   2.373
52002W        W22602  40.308  20.699  14.858
52003W        W22603  41.457  43.530  13.394
52004W        W22604  29.600  10.286   3.615
52005W        W22605   6.799   0.908  13.857
52006W        W22606  20.170  11.136  14.548
52007W        W22607  22.405   9.784  14.480
52008W        W22608  37.062   4.417  14.458
52009W        W22609  34.513  18.941  12.246
52010W        W22610   8.312  17.067   2.094
52011W        W22611   9.883   2.230  11.956
52012W        W22612   7.763  11.078   3.095
52013W        W22613  35.527  10.464  11.694
52014W        W22614   5.779  28.428   1.390
52015W        W22615  14.070   6.405  12.128
52016W        W22616  18.982  13.128  14.822
52017W        W22617   2.906   4.423   3.993
52018W        W22618  29.566  12.880   2.388
52019W        W22619   7.316  15.171  13.009
52020W        W22620   6.067  16.055   4.489
52021W        W22621   4.642  22.095  12.822
52022W        W22622  12.797  16.006  11.164
52023W        W22623  43.266   5.714  11.840
52024W        W22624  30.018   7.172   2.849
52025W        W22625  30.997  37.371   0.690
52026W        W22626  15.164   7.833  14.995
52027W        W22627  20.904  19.437   2.273
52028W        W22628  41.396   1.123   1.651
52029W        W22629  30.316  23.461  11.108
52030W        W22630   0.163  40.889  11.856
52031W        W22631  26.899  25.591   3.189
52032W        W22632  29.842   5.244   2.916
52033W        W22633  20.527  22.322   0.982
52034W        W22634   7.663  37.660   0.800
52035W        W22635  42.616   3.709  11.199
52036W        W22636  12.296  33.919   4.827
52037W        W22637  30.490  15.672   3.333
52038W        W22638  37.401  29.849   0.321
52039W        W22639   5.851   8.067   3.585
52040W        W22640  31.831  41.521  12.637
52041W        W22641  16.065   6.334  10.670
52042W        W22642  12.631  18.777  14.806
52043W        W22643  28.007  41.273  14.781
52044W        W22644  14.749  22.490  13.876
52045W        W22645  21.119  27.516  12.525
52046W        W22646   0.920  17.685  11.131
52047W        W22647   9.912  22.141   2.170
52048W        W22648   9.775  27.218   1.191
52049W        W22649   3.265  18.031   3.713
52050W        W22650  13.758  15.741  12.146
52051W        W22651  16.758  37.641   4.282
52052W        W22652  13.793  22.258  14.815
52053W        W22653  25.115  18.324   5.101
52054W        W22654   1.398   5.933  10.645
52055W        W22655  20.185  30.894   1.337
52056W        W22656  12.193  25.691   1.545
52057W        W22657   5.102  19.775   5.160
52058W        W22658  31.987  24.088   1.238
52059W        W22659   6.729   3.967  14.989
52060W        W22660  37.905   1.575  12.139
52061W        W22661  24.205   8.231   0.661
52062W        W22662  19.996  21.664   3.643
52063W        W22663  34.575   3.301   1.811
52064W        W22664  30.584  17.810   4.626
52065W        W22665   3.831  10.591   2.735
52066W        W22666  30.726  13.316   1.328
52067W        W22667  28.964  35.450   3.059
52068W        W22668  24.128  15.790  13.011
52069W        W22669  41.203  32.376   4.112
52070W        W22670  32.785   8.453   2.622
52071W        W22671  35.788   4.381  11.073
52072W        W22672  39.580   6.360   2.572
52073W        W22673  11.253   0.677  14.805
52074W        W22674  43.543   3.139   0.992
52075W        W22675  26.941   4.065  11.243
52076W        W22676  17.266  16.396  13.507
52077W        W22677   4.440  27.787  13.984
52078W        W22678  17.213  25.545  14.285
52079W        W22679  17.279  40.087  10.652
52080W        W22680  26.589  15.778  12.574
52081W        W22681  36.468   6.011   1.193
52082W        W22682  44.835  33.146  12.490
52083W        W22683  10.754  35.007  10.571
52084W        W22684   9.945  19.693  13.612
52085W        W22685   9.336  25.560  10.902
52086W        W22686  44.004  29.650   4.628
52087W        W22687  14.918  36.036  11.046
52088W        W22688  33.894  10.357   3.253
52089W        W22689  13.989  17.812   1.416
52090W        W22690  24.777   0.907  10.260
52091W        W22691  13.824   3.421   0.471
52092W        W22692  23.231  18.746  11.574
52093W        W22693  42.502  28.169   4.187
52094W        W22694  24.586   5.108  12.070
52095W        W22695   5.912  17.769   3.712
52096W        W22696  25.093  38.938   3.589
52097W        W22697  14.793   4.222  12.433
52098W        W22698   2.384   8.769   4.995
52099W        W22699  41.203  41.841   1.701
52100W        W22700  20.340   1.290  12.060
52101W        W22701  33.357  38.810   2.703
52102W        W22702  42.575  44.956  14.023
52103W        W22703  35.964  18.282  11.537
52104W        W22704  30.616  24.052  13.596
52105W        W22705  34.850  33.531  11.757
52106W        W22706  34.179  25.661   4.082
52107W        W22707  36.050   5.684  13.420
52108W        W22708  26.534  15.845  10.671
52109W        W22709  21.543  43.355   4.826
52110W        W22710  43.712  31.846   2.198
52111W        W22711  20.740  21.766  14.994
52112W        W22712  21.746   2.369   0.499
52113W        W22713  34.149  38.680   2.346
52114W        W22714  28.409  30.103  14.884
52115W        W22715  43.760  12.160   0.342
52116W        W22716  42.437   1.374  14.036
52117W        W22717  16.608   4.900   3.859
52118W        W22718  18.655   1.436   3.116
52119W        W22719   7.243   8.217  13.393
52120W        W22720  44.936   0.981  13.569
52121W        W22721  37.840  37.569   0.830
52122W        W22722  29.113  44.223   0.495
52123W        W22723  39.596   2.442  12.952
52124W        W22724  29.631  17.576   2.592
52125W        W22725  20.297   6.029  14.685
52126W        W22726  33.960   6.716   3.153
52127W        W22727   2.826  42.437   1.660
52128W        W22728  26.188  44.371   2.826
52129W        W22729   3.409   0.835   4.411
52130W        W22730  15.805  32.952   2.424
52131W        W22731  24.951  28.630  14.611
52132W        W22732   3.191   2.773  12.076
52133W        W22733  11.750  31.554  13.126
52134W        W22734  18.221  22.341   1.247
52135W        W22735  36.600   5.231  14.848
52136W        W22736  13.147  18.590   4.499
52137W        W22737  30.344  41.985   1.661
52138W        W22738  43.396   8.910  11.646
52139W        W22739  19.661  19.574   3.574
52140W        W22740  12.112  18.748  10.445
52141W        W22741  29.220  42.873   1.537
52142W        W22742  34.457  37.309   3.825
52143W        W22743  25.083  28.279   0.007
52144W        W22744  20.596  20.293  11.918
52145W        W22745  23.053  38.346  10.791
52146W        W22746  38.284  40.849   4.584
52147W        W22747   0.874  29.136   1.970
52148W        W22748  38.446   6.338  14.004
52149W        W22749  27.740   7.166   4.159
52150W        W22750   1.157  17.476  10.729
52151W        W22751   3.347  15.454   5.019
52152W        W22752  22.959  31.169   2.734
52153W        W22753  12.168  39.781  14.351
52154W        W22754   1.176  23.947   1.225
52155W        W22755  43.173   7.034   2.208
52156W        W22756  14.802  33.677  12.844
52157W        W22757  38.853  27.498  13.354
52158W        W22758  18.482  37.600   3.387
52159W        W22759  33.793   5.231   3.193
52160W        W22760   8.814  39.978  12.792
52161W        W22761  43.969   9.309  12.428
52162W        W22762  19.740  15.688   3.181
52163W        W22763  19.142  36.364   2.375
52164W        W22764  20.222  22.129   2.338
52165W        W22765  40.521  44.782  12.047
52166W        W22766   1.550  37.736   4.629
52167W        W22767   7.907  36.530   3.546
52168W        W22768  36.832  20.168   2.319
52169W        W22769  21.679  20.803   3.729
52170W        W22770  42.818  41.532   2.733
52171W        W22771  14.892  29.181  11.568
52172W        W22772  44.591  42.213   4.164
52173W        W22773  25.618  39.425   0.983
52174W        W22774  32.851  30.965  12.027
52175W        W22775   9.197  12.756  14.354
52176W        W22776  23.007   7.156   3.842
52177W        W22777  36.173  43.982   0.292
52178W        W22778  43.732  28.626   1.250
52179W        W22779  22.708   9.109  13.864
52180W        W22780   4.666  41.335   1.799
52181W        W22781  28.993  30.840   0.006
52182W        W22782   4.737   1.838   2.675
52183W        W22783  20.564  29.370   1.037
52184W        W22784  26.671  40.571  12.028
52185W        W22785  18.744  18.448   4.127
52186W        W22786  31.371   6.935   2.490
52187W        W22787  34.248  17.453  14.210
52188W        W22788   1.416   5.567  13.968
52189W        W22789   1.536  41.597   1.867
52190W        W22790  44.368   0.238   0.055
52191W        W22791   0.765  18.637   0.833
52192W        W22792  10.256  43.910  11.396
52193W        W22793  23.517   5.346   3.719
52194W        W22794  11.874  15.822  14.932
52195W        W22795  35.427  42.272   1.817
52196W        W22796   4.831   6.652   1.748
52197W        W22797  25.488   5.742   2.711
52198W        W22798  34.609  17.970  13.604
52199W        W22799  18.382  13.555   4.949
52200W        W22800   9.360   1.696  11.526
52201W        W22801   5.496  34.294  11.727
52202W        W22802  15.338  36.317   1.384
52203W        W22803  24.309   2.240  13.978
52204W        W22804  21.919   8.763   1.421
52205W        W22805  16.787  25.941   3.188
52206W        W22806   6.441  27.929  11.751
52207W        W22807  13.348  12.620  14.253
52208W        W22808  13.436  14.917  12.512
52209W        W22809  20.045  33.324   0.847
52210W        W22810  15.631  26.164   4.779
52211W        W22811   8.498   8.977   0.884
52212W        W22812  18.575  33.507   0.352
52213W        W22813  34.437  10.328   0.799
52214W        W22814   4.744  39.763   0.815
52215W        W22815  29.697  34.044   1.326
52216W        W22816  13.163  24.461  12.303
52217W        W22817  35.463  14.001   1.357
52218W        W22818  15.112  22.066   1.869
52219W        W22819  12.309  23.297  10.659
52220W        W22820  18.118  30.900   3.261
52221W        W22821  33.061  40.992  11.149
52222W        W22822  37.932   3.250   4.296
52223W        W22823  16.492  18.659  13.887
52224W        W22824  28.115  15.531   4.299
52225W        W22825  10.406  40.539  11.802
52226W        W22826  21.138   2.018   2.966
52227W        W22827  41.271  18.678  13.552
52228W        W22828   1.133  10.416  13.321
52229W        W22829  17.691  23.236   3.172
52230W        W22830  22.723  44.683   2.441
52231W        W22831  17.128  30.574   3.629
52232W        W22832  28.417  11.327  12.290
52233W        W22833  18.368  26.699  11.350
52234W        W22834  19.635   8.223  14.022
52235W        W22835  13.854  44.688  13.033
52236W        W22836  38.903  12.667  11.208
52237W        W22837   8.741   6.417  13.005
52238W        W22838  34.056  36.749   1.232
52239W        W22839  36.837   4.518   1.832
52240W        W22840   2.946  27.466  11.415
52241W        W22841  22.070  14.644   0.996
52242W        W22842  31.003  33.364  13.814
52243W        W22843   5.408  14.058   1.429
52244W        W22844  38.065  12.861  14.321
52245W        W22845  21.989  44.817  12.515
52246W        W22846  21.677  12.598  12.116
52247W        W22847  43.915  21.168   1.335
52248W        W22848  10.357  34.313   1.260
52249W        W22849  40.757  39.872  10.497
52250W        W22850  40.386  12.191  13.324
52251W        W22851  28.130   8.071  13.001
52252W        W22852  35.023  43.508   2.163
52253W        W22853   9.371  41.452   3.699
52254W        W22854   6.945  39.748  13.511
52255W        W22855  24.267  22.285   1.401
52256W        W22856  43.701  29.218  14.846
52257W        W22857  42.827  29.494  10.736
52258W        W22858  19.818   0.101   0.127
52259W        W22859  14.845  19.938   0.412
52260W        W22860   4.753  32.298  13.872
52261W        W22861  41.309  14.105   2.406
52262W        W22862  21.348  24.129  11.398
52263W        W22863  44.036  31.438   3.095
52264W        W22864   2.577  11.720  14.601
52265W        W22865  15.372  19.372  10.027
52266W        W22866  26.250   7.411   1.452
52267W        W22867  42.540  29.105   0.513
52268W        W22868  42.463  12.870   4.602
52269W        W22869  36.604  24.559  11.932
52270W        W22870   6.895  37.409  11.989
52271W        W22871  10.286  36.915   1.196
52272W        W22872   6.202  30.621  14.233
52273W        W22873   4.558  30.434   3.171
52274W        W22874  11.900  21.360  10.576
52275W        W22875   6.258   5.987  13.409
52276W        W22876  32.386   4.792   2.309
52277W        W22877  30.666   6.486   2.834
52278W        W22878  17.073  44.438  11.917
52279W        W22879  43.107   4.137  12.141
52280W        W22880   9.815   4.867   4.473
52281W        W22881  38.332   8.707   1.027
52282W        W22882   6.296  14.019   3.725
52283W        W22883  41.295   8.821   1.094
52284W        W22884  35.728  40.677   0.245
52285W        W22885  37.837  20.493   4.701
52286W        W22886  28.183  16.574  14.290
52287W        W22887  17.566  39.415  10.694
52288W        W22888  23.187  21.303   3.185
52289W        W22889  32.341  13.947   3.709
52290W        W22890  19.023  18.843  12.703
52291W        W22891   8.843  31.430  14.785
52292W        W22892  36.534  38.532  14.285
52293W        W22893  27.337   7.591  11.215
52294W        W22894  18.088  17.208   4.378
52295W        W22895  43.417  23.531   4.161
52296W        W22896  19.624   7.067   4.060
52297W        W22897  33.829   6.045  14.163
52298W        W22898  22.584  20.714  12.677
52299W        W22899  37.589   5.192  14.920
52300W        W22900  28.122   4.988  13.055
52301W        W22901  35.847   9.321   1.746
52302W        W22902  25.063  41.385   2.437
52303W        W22903  13.151  33.221  13.449
52304W        W22904   9.968   8.907   5.060
52305W        W22905  27.230   0.002  12.006
52306W        W22906   5.642   9.616  12.974
52307W        W22907   0.805  40.490   3.472
52308W        W22908  24.080  15.617  14.385
52309W        W22909  25.514  24.624   1.307
52310W        W22910  38.957  27.137   2.873
52311W        W22911  31.979   4.704  10.766
52312W        W22912   8.468  13.041   2.208
52313W        W22913  28.648   6.426  14.974
52314W        W22914  40.672  37.860  11.745
52315W        W22915  35.635  39.403   0.794
52316W        W22916   0.896  29.374   4.108
52317W        W22917  43.490  17.223   0.457
52318W        W22918  39.799  23.474   0.439
52319W        W22919  24.093  16.876   4.036
52320W        W22920  35.986  27.175   3.420
52321W        W22921  21.090  41.508   0.546
52322W        W22922  44.754  14.742   4.771
52323W        W22923  11.919  15.164   2.446
52324W        W22924  31.979  28.214  12.531
52325W        W22925   3.175  37.538  11.915
52326W        W22926   0.419  10.358  12.301
52327W        W22927  15.392  34.899   2.533
52328W        W22928  18.746   9.639  13.392
52329W        W22929  12.371  42.224   1.470
52330W        W22930  39.281   1.651  14.874
52331W        W22931  18.078  22.768   4.094
52332W        W22932  17.684  15.289  13.915
52333W        W22933  30.596  32.220   3.664
52334W        W22934  22.757   7.859  11.546
52335W        W22935   2.231   3.873  11.472
52336W        W22936  15.894   0.132  14.539
52337W        W22937   4.770  31.869   0.075
52338W        W22938  18.624  43.275  11.588
52339W        W22939  14.317  30.437  14.878
52340W        W22940  36.046  27.098   1.963
52341W        W22941   4.893   0.705   3.727
52342W        W22942  31.605  31.933  12.858
52343W        W22943  30.963   1.770  10.283
52344W        W22944   3.670  27.079   1.738
52345W        W22945  14.706  44.704  10.758
52346W        W22946   6.721  17.754   2.310
52347W        W22947  12.337  18.745   1.664
52348W        W22948  12.183  41.505   3.274
52349W        W22949  22.671  16.239   2.757
52350W        W22950  20.566  23.654  14.416
52351W        W22951  29.592  44.444   4.543
52352W        W22952  43.863   0.226   4.018
52353W        W22953   0.910  35.751  13.451
52354W        W22954  15.229  19.027   2.358
52355W        W22955  31.161  32.544   4.317
52356W        W22956  14.279  27.601  12.847
52357W        W22957  27.167  17.069   4.170
52358W        W22958  28.483  39.008  13.448
52359W        W22959  19.573   5.162   2.264
52360W        W22960   0.482  37.344   0.368
52361W        W22961  38.893  24.482   2.352
52362W        W22962  11.587  29.756  10.104
52363W        W22963  24.479  25.671   4.517
52364W        W22964  15.162  13.538   3.075
52365W        W22965  44.918  15.177   0.779
52366W        W22966  13.683  36.616  10.944
52367W        W22967  23.260  31.086  13.389
52368W        W22968  13.802  12.381  12.466
52369W        W22969  34.190  36.665   0.468
52370W        W22970  34.050  26.487  12.631
52371W        W22971   4.471  19.226  14.653
52372W        W22972  28.399  10.308  11.566
52373W        W22973  30.280   5.459   0.459
52374W        W22974  24.175  20.072  11.966
52375W        W22975  30.177  38.587   4.540
52376W        W22976  15.767   8.566  13.273
52377W        W22977   2.197  29.205   2.186
52378W        W22978  38.914   1.481  13.679
52379W        W22979  28.583  38.585   2.310
52380W        W22980  24.294   7.162  13.051
52381W        W22981  27.186  32.352  13.924
52382W        W22982  41.378   4.900  12.170
52383W        W22983   7.725   0.905  11.975
52384W        W22984  31.971  37.239  12.845
52385W        W22985  12.395  44.278  11.588
52386W        W22986  29.110  42.277   1.933
52387W        W22987  12.520  27.492  11.116
52388W        W22988   1.011  16.838   1.120
52389W        W22989  10.445  22.127   2.147
52390W        W22990  16.873  19.822   2.772
52391W        W22991  28.057   6.279   0.879
52392W        W22992  38.896   3.923  11.981
52393W        W22993  35.958  19.443  11.832
52394W        W22994  41.142  10.791  13.262
52395W        W22995  28.348  28.940  13.803
52396W        W22996  43.178  20.965   2.797
52397W        W22997  20.661  12.051  12.975
52398W        W22998   6.359  29.061  12.504
52399W        W22999  24.688  13.116  12.466
52400W        W23000  32.554  38.849   1.448
52401W        W23001  30.914  23.967  12.422
52402W        W23002  19.426  30.930   3.450
52403W        W23003   5.497  34.557   3.167
52404W        W23004  44.879   5.542  11.494
52405W        W23005  44.251   1.076   0.414
52406W        W23006   9.343   4.669  11.205
52407W        W23007  16.341   6.019   1.875
52408W        W23008  19.836  37.737  11.045
52409W        W23009  43.628  33.958   1.409
52410W        W23010  40.262  37.271  14.769
52411W        W23011   3.978  44.751  11.468
52412W        W23012  37.065  10.073  11.962
52413W        W23013   9.871  15.774  14.817
52414W        W23014  42.067  23.307   3.149
52415W        W23015   8.760  14.241   4.630
52416W        W23016  33.571  24.506  13.751
52417W        W23017  30.378  19.626   1.028
52418W        W23018  17.387  43.297  13.773
52419W        W23019   4.908  36.552  11.908
52420W        W23020  17.032  43.864   1.815
52421W        W23021   6.780  43.995   4.354
52422W        W23022  22.276   0.849  10.796
52423W        W23023  12.357  38.688   3.330
52424W        W23024  15.966  10.096   4.051
52425W        W23025  18.246  35.979   0.453
52426W        W23026   4.382  38.575   5.204
52427W        W23027   4.728  14.667  14.417
52428W        W23028  44.927  36.309  12.439
52429W        W23029   0.719   6.404  10.395
52430W        W23030  29.453  42.689   1.982
52431W        W23031  13.132   0.817  13.128
52432W        W23032  10.827  27.697  12.192
52433W        W23033  37.580  43.140  13.089
52434W        W23034  22.226  10.420   2.476
52435W        W23035  23.249  31.049  14.820
52436W        W23036  22.258   0.325   0.426
52437W        W23037  25.578  43.835  12.544
52438W        W23038  26.152   8.307  11.147
52439W        W23039  23.079  43.413  10.233
52440W        W23040  18.614   6.451   0.243
52441W        W23041  33.266  18.280   0.177
52442W        W23042  18.205  29.245  11.522
52443W        W23043  15.005   2.092   0.666
52444W        W23044  26.297   5.419   4.354
52445W        W23045  33.047  35.827   4.010
52446W        W23046   9.936  33.314   1.406
52447W        W23047  24.690  27.726   3.902
52448W        W23048  15.636  37.000   3.423
52449W        W23049  19.114  10.210  12.328
52450W        W23050   8.854  40.827  12.982
52451W        W23051   9.856  17.514   0.895
52452W        W23052  38.046  25.603  14.014
52453W        W23053   7.674  31.059  10.681
52454W        W23054  39.909  11.272  10.529
52455W        W23055   8.847  10.894   3.719
52456W        W23056  16.476  25.623   4.981
52457W        W23057  19.241   5.445   3.296
52458W        W23058  24.456  18.301   2.846
52459W        W23059  35.762   2.154   1.296
52460W        W23060  21.922  40.734  11.158
52461W        W23061  36.107  25.173  11.581
52462W        W23062  11.664   5.806   2.721
52463W        W23063  34.093  42.520  14.992
52464W        W23064  27.896  32.210   0.457
52465W        W23065   8.342  22.567  13.374
52466W        W23066  11.862  35.161   1.755
52467W        W23067  41.520  15.045  12.450
52468W        W23068  13.653  39.096  13.500
52469W        W23069  35.834  42.252   0.912
52470W        W23070  39.842  39.155   0.174
52471W        W23071  14.362  37.736  14.341
52472W        W23072  32.606   9.976   2.130
52473W        W23073   5.660  35.728   3.065
52474W        W23074   3.599  13.041   3.589
52475W        W23075  44.536  13.913  10.423
52476W        W23076  17.486   7.364   0.630
52477W        W23077   7.371  38.831   2.759
52478W        W23078  38.572  30.635  11.616
52479W        W23079  38.646  42.885   4.525
52480W        W23080  18.649  13.068   0.219
52481W        W23081  31.094  13.699  14.717
52482W        W23082  14.841  10.329   0.912
52483W        W23083  19.249   6.431  12.975
52484W        W23084  29.817   3.776  13.494
52485W        W23085  29.487   4.464   0.237
52486W        W23086  26.395  14.129   1.700
52487W        W23087  20.010  40.866   3.575
52488W        W23088  38.533  16.699   1.229
52489W        W23089  32.666  38.962   4.462
52490W        W23090   5.824  35.028   2.466
52491W        W23091  15.158   1.039  12.442
52492W        W23092   1.756  19.744   4.624
52493W        W23093  33.660  28.114   4.089
52494W        W23094   1.172  40.745   3.211
52495W        W23095  18.793  13.781   1.431
52496W        W23096  32.659  28.520   1.862
52497W        W23097  21.867   9.300   3.882
52498W        W23098  40.949  44.150  14.064
52499W        W23099  20.138  19.616   3.312
52500W        W23100   5.933  13.866  12.046
52501W        W23101  11.055  40.516   2.712
52502W        W23102  31.844  29.974   4.593
52503W        W23103   8.604  38.429  13.010
52504W        W23104  22.475   6.680   1.465
52505W        W23105  39.931  22.531  12.990
52506W        W23106  32.715  14.128  11.698
52507W        W23107  16.291  33.666  10.965
52508W        W23108  24.662  15.157   4.155
52509W        W23109   3.227   5.810  14.911
52510W        W23110   8.404   0.801   3.741
52511W        W23111  17.840   9.769   0.373
52512W        W23112  11.259  33.958   2.815
52513W        W23113  36.572  19.919  13.870
52514W        W23114   3.922  16.769  10.164
52515W        W23115  19.247  15.935  11.005
52516W        W23116  30.009  17.552  12.612
52517W        W23117  22.601  19.034  14.402
52518W        W23118  37.812  26.024   1.884
52519W        W23119  12.361  19.185  11.674
52520W        W23120   9.759   9.932  10.350
52521W        W23121  36.325   9.786  11.714
52522W        W23122   9.747  37.145   2.412
52523W        W23123  32.173  20.002   2.444
52524W        W23124  30.711  30.831  11.065
52525W        W23125  43.195  22.054   3.673
52526W        W23126  21.095   1.245  13.994
52527W        W23127  35.999  23.656  10.681
52528W        W23128  32.600  42.093  12.414
52529W        W23129  15.781  34.093   3.275
52530W        W23130  10.945  43.905  13.982
52531W        W23131  42.401   7.095   0.139
52532W        W23132  21.873   7.945   1.466
52533W        W23133   3.332  42.702   2.828
52534W        W23134  35.655  27.146   2.627
52535W        W23135  34.504   3.877   3.148
52536W        W23136  41.500   5.255  11.709
52537W        W23137  31.539  19.724  12.090
52538W        W23138  13.093   9.669  14.782
52539W        W23139   3.925  17.639  12.599
52540W        W23140  40.557  16.596   4.092
52541W        W23141   4.304  35.442   0.814
52542W        W23142  22.224  43.860   3.894
52543W        W23143  41.716  15.053  13.000
52544W        W23144  26.150  39.978   1.751
52545W        W23145   1.115   4.403   1.259
52546W        W23146  31.189  11.126  13.782
52547W        W23147  16.135  22.215   0.925
52548W        W23148   5.984  43.319   1.192
52549W        W23149  22.184  10.558   1.964
52550W        W23150  32.724   1.471   2.562
52551W        W23151  29.641  33.539  14.728
52552W        W23152   9.385  14.240  14.902
52553W        W23153  17.968  10.480  11.686
52554W        W23154  19.086  26.496   0.379
52555W        W23155  44.706  30.759  10.644
52556W        W23156  21.059  43.805  14.964
52557W        W23157  16.160  38.375   4.050
52558W        W23158  10.206   4.444  11.781
52559W        W23159  32.475  24.682   3.789
52560W        W23160   0.037  23.232  10.589
52561W        W23161  16.288  40.452  12.535
52562W        W23162  24.346   8.758  11.862
52563W        W23163  19.981  36.133  14.758
52564W        W23164  24.982  28.489   1.483
52565W        W23165   8.182  10.701  11.921
52566W        W23166  25.216  40.999   2.072
52567W        W23167  36.827  31.421  12.501
52568W        W23168  18.647   4.658   0.256
52569W        W23169   7.781  10.251  14.277
52570W        W23170  28.170   5.847   3.396
52571W        W23171   2.954  14.780  13.080
52572W        W23172  21.721  35.041  14.825
52573W        W23173  29.218  34.496   0.247
52574W        W23174  38.691  41.935  12.104
52575W        W23175   8.472  22.539  11.063
52576W        W23176  44.187   3.908  13.172
52577W        W23177  11.273  24.605   3.656
52578W        W23178   9.959  24.566   3.815
52579W        W23179  10.779  28.253  13.996
52580W        W23180  27.634  20.727   0.288
52581W        W23181  14.693  36.932  14.875
52582W        W23182  36.033  15.901   0.212
52583W        W23183  36.841   7.560  12.099
52584W        W23184  18.860   6.844   3.134
52585W        W23185  22.085  42.532  12.650
52586W        W23186   2.416  14.236   0.705
52587W        W23187  24.223  14.163  13.037
52588W        W23188   6.323  42.239   1.811
52589W        W23189  29.200  25.541   1.447
52590W        W23190  18.525  32.667   1.235
52591W        W23191  34.875  40.489   2.301
52592W        W23192  17.881   2.336  10.806
52593W        W23193  16.708  27.602   0.741
52594W        W23194  36.892  27.489  13.722
52595W        W23195  21.070   7.192   2.848
52596W        W23196  32.218  14.660  14.887
52597W        W23197  37.165  32.054   2.793
52598W        W23198  21.404   3.582   1.399
52599W        W23199  36.624  31.765  13.897
52600W        W23200   2.176  24.685  12.440
52601W        W23201  10.242  35.471  12.009
52602W        W23202   7.980   8.237  11.709
52603W        W23203   9.709  29.021   1.707
52604W        W23204  26.919  14.983  12.489
52605W        W23205  43.382   1.196   2.103
52606W        W23206   1.966  41.484   1.313
52607W        W23207   6.422   0.229   3.970
52608W        W23208  19.069   7.349   1.421
52609W        W23209   9.089  21.704   4.240
52610W        W23210  39.597  28.874   0.965
52611W        W23211  17.277  37.340   5.006
52612W        W23212  17.743  39.461  13.317
52613W        W23213  30.570  31.213  13.855
52614W        W23214   7.745   8.638   1.322
52615W        W23215  24.989  17.737   2.330
52616W        W23216  15.650  16.579   3.276
52617W        W23217  10.344  37.597  12.820
52618W        W23218  40.843   5.316   1.849
52619W        W23219  33.699  35.941   1.777
52620W        W23220   5.811  16.387   1.445
52621W        W23221  22.227   2.048  14.879
52622W        W23222  17.754  14.321   3.923
52623W        W23223   7.616   9.639  13.997
52624W        W23224   4.948  31.937   3.154
52625W        W23225  16.707  21.291   2.834
52626W        W23226  30.014  19.583   3.709
52627W        W23227  21.026  32.499   1.570
52628W        W23228  30.973   4.732   1.304
52629W        W23229  33.189  40.436   3.229
52630W        W23230  14.715  31.599   4.277
52631W        W23231  24.425   6.996  12.579
52632W        W23232  16.368   7.803   1.188
52633W        W23233  42.424  10.572   0.754
52634W        W23234   0.715  16.657  14.817
52635W        W23235   9.693  19.193   2.941
52636W        W23236  20.181  31.319   4.991
52637W        W23237  21.518  19.686  13.462
52638W        W23238  21.250  24.505   2.961
52639W        W23239  37.504   4.749   0.739
52640W        W23240  37.069  13.215   0.326
52641W        W23241  26.196  29.819   3.286
52642W        W23242   6.480  30.419  10.282
52643W        W23243  40.576   5.928   1.206
52644W        W23244  16.755  37.321   3.885
52645W        W23245  25.667  44.360  12.503
52646W        W23246   7.440  43.027   0.655
52647W        W23247  12.740   5.788  11.339
52648W        W23248  21.198  20.310   1.739
52649W        W23249   5.412  29.406   1.348
52650W        W23250  21.935  34.428   2.177
52651W        W23251   5.790  40.447  13.415
52652W        W23252  34.415  17.577  10.647
52653W        W23253   3.434  27.969   0.438
52654W        W23254  30.095  12.743   3.258
52655W        W23255  10.751  36.155  13.676
52656W        W23256   7.968  26.378   4.695
52657W        W23257  10.454  36.298   4.997
52658W        W23258   8.756  18.021  12.536
52659W        W23259   0.898   1.238   0.839
52660W        W23260  33.809   7.052   2.807
52661W        W23261  24.436  26.056   1.308
52662W        W23262  23.422  15.587  10.927
52663W        W23263  24.919  38.040   0.101
52664W        W23264   0.489  28.015  12.144
52665W        W23265  41.690  12.159   0.586
52666W        W23266   4.976  31.876  10.583
52667W        W23267  44.274  31.808   4.491
52668W        W23268  11.322   8.503  10.722
52669W        W23269   2.418  28.973   4.370
52670W        W23270  19.147  37.579   4.649
52671W        W23271  32.344  41.162   2.598
52672W        W23272  44.751  26.242   2.327
52673W        W23273   6.898  39.249  13.435
52674W        W23274  35.210  41.444  13.895
52675W        W23275   7.864  16.550   3.176
52676W        W23276  28.708   7.294   0.409
52677W        W23277  30.437  33.715  12.429
52678W        W23278  18.686  43.799  11.592
52679W        W23279  17.898  33.002   4.379
52680W        W23280  27.299  18.255  11.084
52681W        W23281  40.506  24.736  13.051
52682W        W23282  33.675  10.703   2.591
52683W        W23283  37.523  39.077   1.638
52684W        W23284  10.185  17.107   1.694
52685W        W23285  24.241  11.793   0.886
52686W        W23286  12.532   4.082   1.329
52687W        W23287  26.910  22.042   3.682
52688W        W23288  10.492  29.170   2.947
52689W        W23289  18.815  20.914   3.392
52690W        W23290  15.079  41.031  12.685
52691W        W23291  20.640  37.955  14.315
52692W        W23292  11.651  25.962  11.522
52693W        W23293  32.495  15.086   0.315
52694W        W23294  11.716  26.428   4.705
52695W        W23295   8.943  36.589  13.023
52696W        W23296   4.674  29.339   2.637
52697W        W23297  20.490   9.209  11.580
52698W        W23298  20.689  37.121   3.335
52699W        W23299  30.648  30.035   2.331
52700W        W23300  16.559  20.910  10.817
52701W        W23301   7.329  13.795   2.316
52702W        W23302  43.887   5.014   1.374
52703W        W23303  27.123   5.631   0.454
52704W        W23304  13.609  28.095   0.401
52705W        W23305   3.452  20.129   4.135
52706W        W23306  38.340   2.081   0.106
52707W        W23307   2.185   4.365  14.892
52708W        W23308   8.158  41.730  13.454
52709W        W23309  36.381   9.695   4.378
52710W        W23310  38.309   2.277   4.113
52711W        W23311  13.096  18.073   2.827
52712W        W23312  24.674  22.592   3.275
52713W        W23313  14.094  20.781   1.251
52714W        W23314   1.059  37.957  12.968
52715W        W23315  12.549  44.790   1.812
52716W        W23316  27.493  17.657   1.730
52717W        W23317  29.627  36.563  12.864
52718W        W23318  15.944  15.563   4.086
52719W        W23319  16.787  36.459   1.368
52720W        W23320  20.836  11.932   2.764
52721W        W23321  37.132   8.266  13.644
52722W        W23322  17.600  21.471  10.386
52723W        W23323  19.258   9.075   2.348
52724W        W23324  27.717  23.130  10.788
52725W        W23325  10.365  15.157  13.730
52726W        W23326  25.741  23.007   2.310
52727W        W23327  41.862  32.059  14.735
52728W        W23328  29.942  34.322   0.803
52729W        W23329  10.291  21.336   0.862
52730W        W23330  12.634  23.823  14.328
52731W        W23331  27.371  38.863  14.534
52732W        W23332   2.451   0.338   0.141
52733W        W23333  18.173  18.516  14.539
52734W        W23334  10.863   0.408   0.759
52735W        W23335  34.880  30.534  11.029
52736W        W23336   5.054   4.286  12.123
52737W        W23337   8.852  20.836  13.863
52738W        W23338   0.015  44.685  11.349
52739W        W23339   5.745   8.620   4.996
52740W        W23340   3.126  30.202   3.497
52741W        W23341  20.538   6.792  10.808
52742W        W23342  29.698  33.608  12.935
52743W        W23343  29.613  23.701   2.767
52744W        W23344   7.366  35.111   2.708
52745W        W23345   2.799  27.117   4.755
52746W        W23346  35.704  29.393  11.905
52747W        W23347  18.221  40.972  12.397
52748W        W23348  11.782   4.460  12.905
52749W        W23349  40.331  34.598  12.440
52750W        W23350  15.803  22.731  14.477
52751W        W23351   1.433   3.337  11.191
52752W        W23352  35.361  17.573  13.526
52753W        W23353  29.593  27.284  13.624
52754W        W23354  44.496  15.990   4.833
52755W        W23355  10.720   9.052  11.131
52756W        W23356   7.120  23.101   4.130
52757W        W23357  38.883  20.402   4.116
52758W        W23358  18.166  34.603  12.438
52759W        W23359  10.656  25.607  11.001
52760W        W23360   6.691   7.677   3.765
52761W        W23361  28.489  44.792   0.807
52762W        W23362   1.036  38.402   1.930
52763W        W23363  43.316  21.008  11.531
52764W        W23364  42.563  35.157   4.484
52765W        W23365  19.163  36.530  13.127
52766W        W23366  17.225  13.252   2.754
52767W        W23367   7.492  26.959   1.867
52768W        W23368  32.000  30.177  14.701
52769W        W23369  17.202  12.701  14.763
52770W        W23370   1.917  21.531  14.698
52771W        W23371  13.989  11.117   5.107
52772W        W23372   6.426  29.668   4.222
52773W        W23373  11.099  31.417  11.061
52774W        W23374  10.732   2.172   1.362
52775W        W23375   3.426  44.207  14.883
52776W        W23376   7.996  40.381  13.970
52777W        W23377  28.620  18.589  11.481
52778W        W23378  40.649  35.003  14.400
52779W        W23379  19.607  30.188   2.727
52780W        W23380  22.310  16.158  11.656
52781W        W23381  32.104  34.776  14.423
52782W        W23382  27.661  31.821   5.028
52783W        W23383  28.663  13.554  11.855
52784W        W23384  28.226   7.278   3.281
52785W        W23385   4.986   7.856   1.790
52786W        W23386  17.235  40.415   3.320
52787W        W23387   1.697  42.754  11.848
52788W        W23388  13.188   0.580   4.937
52789W        W23389  37.916   3.526  13.398
52790W        W23390  34.431   3.996  11.119
52791W        W23391   5.127   9.381   0.708
52792W        W23392  26.156  35.869  11.043
52793W        W23393  16.789  44.275   2.032
52794W        W23394  41.558  41.328   0.877
52795W        W23395   5.536  24.203  13.928
52796W        W23396  26.585   0.678   2.610
52797W        W23397  38.549  27.451  14.980
52798W        W23398   9.822  26.744  10.595
52799W        W23399  39.576  35.453  11.273
52800W        W23400   1.581  44.309   1.522
52801W        W23401  14.189  13.923   3.276
52802W        W23402  11.161  34.170   2.165
52803W        W23403  40.799  32.629  12.290
52804W        W23404   4.956   9.929  11.130
52805W        W23405  43.783  43.514   0.508
52806W        W23406  14.344  12.606  13.870
52807W        W23407  41.242   8.745   2.042
52808W        W23408  28.732   2.386   0.889
52809W        W23409  34.587  38.401  14.249
52810W        W23410  39.106   5.402   3.844
52811W        W23411  40.649  21.088  13.039
52812W        W23412  13.513  17.369  14.854
52813W        W23413  40.883  42.435   0.813
52814W        W23414  23.916  43.821   0.687
52815W        W23415  41.731  19.199  12.446
52816W        W23416  38.971  40.430   3.274
52817W        W23417  36.861   3.913  11.003
52818W        W23418  36.448  28.843  11.182
52819W        W23419  34.049  15.239   4.450
52820W        W23420  33.606  44.020  12.951
52821W        W23421  38.337  37.935   2.219
52822W        W23422  40.112  33.550   2.714
52823W        W23423  41.914   0.647  14.719
52824W        W23424  44.495  37.344  14.019
52825W        W23425  21.924  26.997  14.527
52826W        W23426   7.611  26.046   3.107
52827W        W23427  18.535  28.774   1.350
52828W        W23428  24.191  42.717   1.268
52829W        W23429   8.442  29.993  13.459
52830W        W23430  26.626  33.879  11.557
52831W        W23431  25.806   7.844  11.960
52832W        W23432   6.338   4.680  14.297
52833W        W23433   9.677  22.507   3.537
52834W        W23434  27.346  27.903   4.789
52835W        W23435  27.900  18.551   4.378
52836W        W23436  43.302  37.392  14.017
52837W        W23437  38.403  33.920  14.639
52838W        W23438  27.552  26.195   1.282
52839W        W23439  26.244   0.689   0.455
52840W        W23440  41.340  29.271  13.539
52841W        W23441  19.368  24.976  13.098
52842W        W23442  20.635  42.755   1.252
52843W        W23443  14.208   3.308  14.662
52844W        W23444  38.460  27.685  11.360
52845W        W23445   6.391  10.674   1.506
52846W        W23446   3.657  15.864   4.931
52847W        W23447  31.169   1.382   3.380
52848W        W23448   0.366  26.291   0.274
52849W        W23449  14.698   6.931  11.091
52850W        W23450  36.968   5.918   0.924
52851W        W23451   0.274   7.173   4.769
52852W        W23452  23.707  43.151  12.834
52853W        W23453  33.254  23.453  13.155
52854W        W23454   5.852  30.337   1.239
52855W        W23455   8.038  43.066   4.563
52856W        W23456   3.389   9.126   0.389
52857W        W23457  44.258  39.374   2.392
52858W        W23458  42.916  23.611   4.349
52859W        W23459  32.046  32.226  11.682
52860W        W23460  37.868   1.013   3.544
52861W        W23461  11.682  43.577   3.800
52862W        W23462   1.373  37.874   0.388
52863W        W23463  26.112  16.889  12.445
52864W        W23464   8.232  26.215  14.428
52865W        W23465   1.931   9.323  14.957
52866W        W23466   5.710  17.131  14.843
52867W        W23467  37.022  31.615   3.256
52868W        W23468  23.131  27.971  11.464
52869W        W23469  21.148  23.551   4.471
52870W        W23470  30.071  21.427  13.570
52871W        W23471  10.185  10.669   0.199
52872W        W23472  36.899  10.344  13.349
52873W        W23473  26.551  42.866  12.511
52874W        W23474  23.480   0.631   3.576
52875W        W23475   9.826  34.030   2.926
52876W        W23476  16.199  11.297   4.490
52877W        W23477  28.434  27.459   4.137
52878W        W23478  23.162  11.046   5.110
52879W        W23479  12.997   7.709   2.366
52880W        W23480   5.447  21.843  11.176
52881W        W23481  28.378   1.489  11.179
52882W        W23482  36.590  11.374   3.734
52883W        W23483  18.313  22.473  11.143
52884W        W23484   3.450  17.150   4.211
52885W        W23485   6.770   8.876  14.914
52886W        W23486  30.520  20.140   0.960
52887W        W23487  43.289  20.201   0.351
52888W        W23488  14.239  39.274   3.588
52889W        W23489  16.091  43.836  12.375
52890W        W23490  28.675  26.835   3.354
52891W        W23491  32.985   2.235  11.135
52892W        W23492  18.175   8.689  10.825
52893W        W23493  39.404  39.170   1.334
52894W        W23494   2.142  12.690   4.228
52895W        W23495  21.264  39.501  12.075
52896W        W23496   3.976  30.035  13.598
52897W        W23497   8.153  38.734  13.317
52898W        W23498  39.630  23.634  13.063
52899W        W23499  23.650   3.684   4.674
52900W        W23500   5.514  35.113  13.496
52901W        W23501   6.343  40.050  13.034
52902W        W23502   5.333  27.444   0.303
52903W        W23503  14.673  38.923  10.075
52904W        W23504  15.564   5.911   2.599
52905W        W23505  41.880  38.918   4.585
52906W        W23506  31.581  27.684   2.786
52907W        W23507   8.451  23.527   0.444
52908W        W23508  25.525  15.578   0.298
52909W        W23509  34.004   8.483  14.259
52910W        W23510  38.392  35.635   1.549
52911W        W23511  18.189  36.843  14.304
52912W        W23512  14.826  34.452   3.179
52913W        W23513  10.231  13.211   1.726
52914W        W23514  15.118   7.559  11.567
52915W        W23515  22.140  10.001   2.798
52916W        W23516  14.283  26.129   4.218
52917W        W23517  11.757   6.183  10.813
52918W        W23518  22.779  30.180   1.731
52919W        W23519   1.333  11.770  10.496
52920W        W23520  42.871  29.843  12.948
52921W        W23521  27.535  10.350   0.263
52922W        W23522   5.256   0.742   4.082
52923W        W23523  37.470   8.257  11.916
52924W        W23524  14.688   6.173   4.631
52925W        W23525  31.606  40.772  12.182
52926W        W23526  42.545  39.971  14.875
52927W        W23527  44.885  32.060  14.293
52928W        W23528  14.047  24.966   0.307
52929W        W23529  28.505   0.285  11.498
52930W        W23530   9.115  11.705  14.350
52931W        W23531  42.189  10.319  14.792
52932W        W23532  39.045  15.046   2.844
52933W        W23533  38.904  14.617  14.474
52934W        W23534  34.153  38.060   0.504
52935W        W23535  25.031  31.559  14.912
52936W        W23536  17.014  17.109  13.034
52937W        W23537  29.621  35.604  12.877
52938W        W23538  19.265  32.664   2.893
52939W        W23539  39.041  26.750   9.836
52940W        W23540   9.104  33.106   3.442
52941W        W23541   8.483  24.668   1.264
52942W        W23542  33.468  36.065   1.318
52943W        W23543  28.823  44.284  14.381
52944W        W23544  26.010   1.279  10.948
52945W        W23545  38.356  10.553   1.690
52946W        W23546  18.000  38.491  10.961
52947W        W23547   9.828  20.739  12.855
52948W        W23548  17.105  44.966  11.946
52949W        W23549  34.893  12.334  14.411
52950W        W23550   2.283  35.855  11.647
52951W        W23551  21.406  35.383   2.317
52952W        W23552  41.552  38.903  10.508
52953W        W23553  32.203  18.761   2.652
52954W        W23554  13.619   6.466   4.234
52955W        W23555   3.575  35.232   5.177
52956W        W23556  21.632  13.067   0.358
52957W        W23557  35.080   8.748   2.819
52958W        W23558  22.596  24.681  13.402
52959W        W23559  22.866  41.216  12.146
52960W        W23560  24.566  29.726  13.577
52961W        W23561  21.194  19.074   2.614
52962W        W23562  16.294  44.307   1.874
52963W        W23563  28.923   0.454  12.339
52964W        W23564  44.797  39.241   0.789
52965W        W23565  31.679  15.293  13.965
52966W        W23566  41.200  10.852  12.367
52967W        W23567  20.121  44.857  12.157
52968W        W23568  29.439  18.167   3.714
52969W        W23569  33.448   8.814   0.432
52970W        W23570  36.269  43.032   3.175
52971W        W23571  24.519   0.707  12.976
52972W        W23572  35.710  11.096  13.094
52973W        W23573  40.012  12.620   0.077
52974W        W23574   3.820   4.124  13.032
52975W        W23575  35.595  25.296  11.596
52976W        W23576   3.654  27.510   0.530
52977W        W23577  42.356   9.819  12.905
52978W        W23578  21.662   2.479   3.816
52979W        W23579   6.688  37.918  12.425
52980W        W23580  25.529  27.662  13.847
52981W        W23581   0.893  25.704   3.653
52982W        W23582   6.637   1.416   1.316
52983W        W23583  10.740  20.145   0.767
52984W        W23584  44.322  35.479   0.433
52985W        W23585  36.874  10.640  12.526
52986W        W23586  34.887  15.894   2.587
52987W        W23587  11.383  22.137  14.467
52988W        W23588  41.872  39.051  12.147
52989W        W23589  44.732  19.768   0.490
52990W        W23590  17.562  15.700  12.401
52991W        W23591  33.187  26.368  12.419
52992W        W23592   7.262  12.760  10.512
52993W        W23593  32.775  39.224  11.173
52994W        W23594  43.590  19.435  12.118
52995W        W23595  17.411  11.100   0.514
52996W        W23596   6.451  38.861   4.213
52997W        W23597  22.311   8.671   3.594
52998W        W23598  41.216   0.292  14.830
52999W        W23599  25.519   2.510  13.357
53000W        W23600  35.979  38.372  13.559
53001W        W23601  14.739   2.743   1.315
53002W        W23602  40.360   7.787   0.405
53003W        W23603   3.329  19.203   3.813
53004W        W23604   7.222  22.264  12.487
53005W        W23605  25.264   8.733  10.127
53006W        W23606   7.170   8.741  13.025
53007W        W23607   8.885  25.953   3.970
53008W        W23608   3.794  28.009   1.396
53009W        W23609  29.584   5.332  13.982
53010W        W23610  39.939  22.783  13.853
53011W        W23611   5.323  42.756   4.175
53012W        W23612   4.569   5.845  14.895
53013W        W23613   9.246  25.498  10.403
53014W        W23614  15.545  40.769   4.154
53015W        W23615  43.699  43.257  11.961
53016W        W23616   3.474  11.450  14.991
53017W        W23617  26.100  40.259   1.301
53018W        W23618   3.263  29.063   0.195
53019W        W23619  25.537  40.010  11.982
53020W        W23620  15.549  25.165  14.973
53021W        W23621  19.179   6.449  11.663
53022W        W23622   5.817  32.488  10.720
53023W        W23623  38.467  30.505   4.817
53024W        W23624  13.755  26.598  10.751
53025W        W23625  10.220  21.244   2.382
53026W        W23626  39.881   6.126  12.772
53027W        W23627  30.390  34.195  14.918
53028W        W23628  16.035  27.429  11.311
53029W        W23629   4.505  30.430   0.122
53030W        W23630   1.745   9.184   4.217
53031W        W23631  19.028  11.591   2.242
53032W        W23632  15.881  23.174  14.202
53033W        W23633  18.100   6.389   3.235
53034W        W23634  21.974  15.305  12.453
53035W        W23635   0.471  27.230  11.419
53036W        W23636  17.043  22.959  11.146
53037W        W23637  11.467   9.324   3.608
53038W        W23638  24.895  42.518   4.610
53039W        W23639   1.527  26.533  11.168
53040W        W23640  32.534  10.470   2.126
53041W        W23641  22.980  28.100   3.927
53042W        W23642   7.724  34.986  12.540
53043W        W23643   3.875   6.671   0.639
53044W        W23644  19.537  24.854   1.395
53045W        W23645  10.147  17.030   4.092
53046W        W23646  37.631  10.338   0.969
53047W        W23647   9.610   2.738   1.840
53048W        W23648   5.245  42.747  13.816
53049W        W23649   3.824  44.599   0.643
53050W        W23650  18.096  37.320   3.175
53051W        W23651  13.772  26.146   2.612
53052W        W23652  36.704  23.207   1.386
53053W        W23653  41.555   5.186  14.757
53054W        W23654   6.862   7.335   0.944
53055W        W23655  29.129   1.390  10.614
53056W        W23656  33.217  14.996   2.651
53057W        W23657  26.035  12.578  10.651
53058W        W23658  28.707  13.391   3.354
53059W        W23659  21.194  15.805   0.136
53060W        W23660   2.871  31.317   1.787
53061W        W23661  25.710  10.861  14.677
53062W        W23662  44.976  28.689   0.912
53063W        W23663  19.371  17.507  13.954
53064W        W23664  11.038  40.791   3.198
53065W        W23665  18.038  17.254  12.938
53066W        W23666  29.203  17.535  12.320
53067W        W23667  20.630  10.716  13.432
53068W        W23668  11.857   5.561   4.182
53069W        W23669  28.176   3.266   2.606
53070W        W23670  24.472  38.293   3.739
53071W        W23671  25.483   9.677   0.329
53072W        W23672  34.417  30.005   3.267
53073W        W23673   0.018   8.115   3.808
53074W        W23674  16.645  43.869  13.832
53075W        W23675   0.941  28.885  14.845
53076W        W23676  16.160  43.794   2.313
53077W        W23677  16.377  16.265   0.327
53078W        W23678  15.127  12.211  11.664
53079W        W23679  41.551  11.901  10.987
53080W        W23680  14.049  39.034  12.475
53081W        W23681  26.847  13.373   4.213
53082W        W23682  25.451  25.660   5.056
53083W        W23683  24.487  25.559  14.790
53084W        W23684  27.490  23.632   3.736
53085W        W23685  37.394  18.351   4.173
53086W        W23686   7.347  26.562   0.007
53087W        W23687   6.754  13.359   2.835
53088W        W23688  29.071  35.907   2.796
53089W        W23689  28.246  44.834   4.967
53090W        W23690  25.487  42.840  13.040
53091W        W23691   1.333  27.283  14.009
53092W        W23692  44.059  22.837  12.217
53093W        W23693  35.575   6.504  11.493
53094W        W23694  25.018   2.859  14.041
53095W        W23695   7.333  35.555   1.783
53096W        W23696   5.873  21.489  13.847
53097W        W23697  29.585  41.996  13.407
53098W        W23698  20.697  43.406  11.997
53099W        W23699  16.200   4.390  10.742
53100W        W23700  34.615  33.284  14.525
53101W        W23701  44.696  44.911  13.577
53102W        W23702   7.677   6.282   3.958
53103W        W23703  10.894  14.143  14.307
53104W        W23704  10.053   7.936  11.091
53105W        W23705  34.397   6.419   3.009
53106W        W23706  16.347  36.317  12.885
53107W        W23707  32.084  44.963  12.987
53108W        W23708  35.809   6.458  14.832
53109W        W23709   2.268   1.893   3.697
53110W        W23710  18.068   1.357   0.795
53111W        W23711  33.390  33.694   3.079
53112W        W23712  24.683  18.342   3.334
53113W        W23713   5.743  20.983  13.913
53114W        W23714  34.508  13.160   3.313
53115W        W23715  16.597  38.138   4.224
53116W        W23716  29.485  20.088   1.491
53117W        W23717  35.155   6.811  10.720
53118W        W23718  41.084   7.835   2.018
53119W        W23719  31.301  33.477  12.338
53120W        W23720  20.171  20.573  11.227
53121W        W23721  19.799  10.833   2.713
53122W        W23722  39.109  28.908  11.194
53123W        W23723  27.734   0.121  14.384
53124W        W23724  41.518  25.631   1.322
53125W        W23725  29.538  25.674  12.103
53126W        W23726   5.446   1.788   0.719
53127W        W23727  35.908  40.274  10.993
53128W        W23728  11.682  34.489  14.389
53129W        W23729   4.033  21.679   1.886
53130W        W23730  17.840  44.402  10.961
53131W        W23731  38.571  32.382   0.098
53132W        W23732  32.372  19.093   4.021
53133W        W23733  34.903  34.530   1.059
53134W        W23734   3.705  22.503   0.482
53135W        W23735  25.700  27.257  11.535
53136W        W23736  19.006  34.665   0.882
53137W        W23737  33.477  36.290  13.065
53138W        W23738  29.573  10.103   3.147
53139W        W23739  31.010  37.548   2.156
53140W        W23740  22.279   4.922   1.006
53141W        W23741  12.361   3.870  12.459
53142W        W23742   1.124  24.393   2.399
53143W        W23743  11.705  36.315   1.341
53144W        W23744  29.566  20.625  13.490
53145W        W23745  18.664  35.282   3.133
53146W        W23746   8.849   8.020   1.478
53147W        W23747  18.118  44.168  10.607
53148W        W23748   0.494  15.687   3.228
53149W        W23749   5.425  43.033  14.749
53150W        W23750  33.712  14.462  11.497
53151W        W23751  18.197  20.064   0.201
53152W        W23752  22.266  34.502  12.572
53153W        W23753  25.546  26.793  11.699
53154W        W23754  30.599  40.993  12.078
53155W        W23755   3.740  28.219  14.556
53156W        W23756   8.865  17.061   3.727
53157W        W23757   0.209  26.464   4.078
53158W        W23758  31.387  26.959   4.191
53159W        W23759  12.374  43.409   0.870
53160W        W23760  26.757  31.555   2.758
53161W        W23761  18.568   5.923   1.477
53162W        W23762  29.534  22.066  10.593
53163W        W23763   3.365   2.469   2.377
53164W        W23764   7.450  27.004  11.602
53165W        W23765  32.377  13.798  11.520
53166W        W23766  22.181  25.985  10.610
53167W        W23767   3.281  38.289   0.988
53168W        W23768  17.935  31.523   1.654
53169W        W23769   9.743  31.232   4.219
53170W        W23770  15.190   4.607  14.654
53171W        W23771  23.170  10.873  14.398
53172W        W23772  21.434  37.293  11.633
53173W        W23773  20.507   7.175   4.180
53174W        W23774   4.924  41.391   2.280
53175W        W23775   7.950  24.972   5.219
53176W        W23776   4.141  22.209  12.429
53177W        W23777  37.436  12.202   4.922
53178W        W23778   6.767   8.931  10.692
53179W        W23779   5.096  11.648  14.320
53180W        W23780  29.007  31.850   2.882
53181W        W23781  13.903  18.658   0.396
53182W        W23782  20.137  31.662   2.949
53183W        W23783  38.146  21.325  11.617
53184W        W23784   3.967  43.453  14.954
53185W        W23785  43.863  25.142  14.628
53186W        W23786  29.188  25.423  11.213
53187W        W23787  13.574  32.066   3.238
53188W        W23788  38.365  15.188  11.190
53189W        W23789  20.298  23.948   3.627
53190W        W23790   6.450  18.640   4.165
53191W        W23791  34.376  41.998   4.113
53192W        W23792  15.296  33.493  12.920
53193W        W23793  21.949   3.714   4.181
53194W        W23794  23.595  14.057   2.206
53195W        W23795  33.466  38.899   0.307
53196W        W23796  44.366  10.379  14.358
53197W        W23797  11.119  25.712  12.016
53198W        W23798  28.057  29.489   1.031
53199W        W23799  22.516  13.212  10.949
53200W        W23800  39.926  20.444   0.272
53201W        W23801  29.378  44.388   3.613
53202W        W23802  33.002  30.622   2.850
53203W        W23803  23.495  29.413  11.635
53204W        W23804  41.926   1.974   0.262
53205W        W23805  40.807  34.344   3.550
53206W        W23806  17.877  36.227   2.703
53207W        W23807   7.223  10.764   0.413
53208W        W23808   8.702  32.304   5.049
53209W        W23809  23.042  32.548   3.667
53210W        W23810   8.172  35.182  12.367
53211W        W23811   5.428  24.575  12.878
53212W        W23812  16.673  15.690   3.454
53213W        W23813  29.445  39.003  14.493
53214W        W23814  30.810   3.184  11.618
53215W        W23815  30.439  21.788   2.848
53216W        W23816   2.010   8.611  14.424
53217W        W23817  11.639  33.783  13.096
53218W        W23818  25.560  25.456   3.162
53219W        W23819   9.880  39.441  12.530
53220W        W23820  26.997   9.394   1.001
53221W        W23821  14.570  28.695  12.838
53222W        W23822  30.253  24.046  13.989
53223W        W23823  13.420  29.067   2.660
53224W        W23824  26.487  10.488  13.498
53225W        W23825  13.172  16.538   3.663
53226W        W23826   2.408   8.790   4.479
53227W        W23827  22.466  17.180  14.308
53228W        W23828  43.170  12.517   2.424
53229W        W23829   2.305   2.223  14.465
53230W        W23830  18.758  14.197  13.127
53231W        W23831  28.919   0.855   4.895
53232W        W23832  42.117  26.055   1.157
53233W        W23833   7.423  17.629  11.100
53234W        W23834   9.558  14.152   1.257
53235W        W23835  43.789  37.192   1.109
53236W        W23836   0.890   3.798  10.507
53237W        W23837   2.046  43.611  11.570
53238W        W23838  28.054  27.002   0.387
53239W        W23839  25.935  33.631   3.108
53240W        W23840  41.027   6.931   0.875
53241W        W23841  34.567   6.627   1.991
53242W        W23842  44.851   2.711  10.618
53243W        W23843   2.608   6.373  14.924
53244W        W23844  33.610  29.013   1.288
53245W        W23845  22.409   3.418   2.352
53246W        W23846  39.275  18.987   3.547
53247W        W23847   5.123  40.834  13.917
53248W        W23848  11.282  41.308  10.648
53249W        W23849  35.914  12.854   3.379
53250W        W23850  38.599  37.596  13.596
53251W        W23851  39.007  24.125   4.583
53252W        W23852  12.335   9.146   4.678
53253W        W23853  24.007  19.824  11.520
53254W        W23854  43.354  11.153   2.861
53255W        W23855  16.836   0.319  10.655
53256W        W23856  41.902   8.430  13.346
53257W        W23857   5.280  39.400   3.148
53258W        W23858   2.472  25.671   3.884
53259W        W23859  25.197  41.907   3.153
53260W        W23860  17.488  43.931  13.507
53261W        W23861  14.751  36.465  11.256
53262W        W23862  28.076  36.622  14.973
53263W        W23863  23.976  18.592   1.931
53264W        W23864  28.597  31.476   3.305
53265W        W23865  44.889   4.919   4.664
53266W        W23866   6.963   4.793   4.487
53267W        W23867  33.434   4.212   1.644
53268W        W23868   1.416  22.708  13.931
53269W        W23869  25.046   1.700   4.105
53270W        W23870  35.493   9.103  11.133
53271W        W23871  40.420   6.698   4.844
53272W        W23872  28.589  40.714  13.104
53273W        W23873   8.683  20.161   4.137
53274W        W23874  23.760  24.406  11.145
53275W        W23875  21.187  38.818  11.153
53276W        W23876  44.300  17.738  12.537
53277W        W23877  14.641  32.983   3.076
53278W        W23878  19.586  19.030  10.538
53279W        W23879  15.158  19.593   3.608
53280W        W23880  35.352  26.887  11.955
53281W        W23881  35.381  44.453   1.406
53282W        W23882  14.635  40.477  14.482
53283W        W23883  14.483   8.145   3.308
53284W        W23884  34.489  36.874   4.078
53285W        W23885  41.400  35.617  10.749
53286W        W23886  34.856  29.912  11.618
53287W        W23887  12.464  12.658   4.870
53288W        W23888  37.064   2.712   0.957
53289W        W23889  12.699   5.703   3.672
53290W        W23890  40.817  14.235   2.298
53291W        W23891   8.728   7.733   1.916
53292W        W23892  30.436  20.516   3.407
53293W        W23893  27.688  40.432  13.092
53294W        W23894  18.081   4.399  13.454
53295W        W23895  19.632  44.782   1.415
53296W        W23896   1.204  10.093   0.294
53297W        W23897  36.120   9.661   1.410
53298W        W23898  10.653  18.663  12.653
53299W        W23899  43.444  15.786   0.828
53300W        W23900  40.487  36.587  11.192
53301W        W23901   5.766  35.314   1.119
53302W        W23902   1.356  19.292  14.473
53303W        W23903  14.999  42.278   3.359
53304W        W23904  23.746  11.502  13.834
53305W        W23905  25.183  42.688   0.257
53306W        W23906  38.366  38.098   1.734
53307W        W23907  33.049   2.814  10.697
53308W        W23908  10.323  11.836  11.439
53309W        W23909  21.007  41.359   3.944
53310W        W23910  24.084  16.116  11.245
53311W        W23911  44.852  10.858  11.661
53312W        W23912  23.175  25.997  12.886
53313W        W23913   4.963  28.984   4.731
53314W        W23914  21.176  39.966   1.816
53315W        W23915  12.373  16.196  12.385
53316W        W23916  37.449  41.804   4.017
53317W        W23917   6.417  44.363   1.830
53318W        W23918  12.397  41.048   1.151
53319W        W23919  36.342  32.705  12.950
53320W        W23920  17.733  21.991  14.885
53321W        W23921  36.437  37.569  14.296
53322W        W23922  14.548   3.676   3.263
53323W        W23923  40.192  13.442   0.494
53324W        W23924   8.446  31.198  11.122
53325W        W23925  27.595  37.449   0.139
53326W        W23926  27.772  17.747  10.445
53327W        W23927  18.129   3.792   1.833
53328W        W23928  22.779  24.654   2.677
53329W        W23929   0.491  21.293  14.301
53330W        W23930  21.609  34.375  13.143
53331W        W23931  10.589  31.287  11.103
53332W        W23932  19.384  41.193   1.238
53333W        W23933  44.018   3.854   0.868
53334W        W23934   4.970  15.801   2.523
53335W        W23935  18.085  20.700  10.710
53336W        W23936   7.626  23.768  14.962
53337W        W23937  43.987  23.073   0.204
53338W        W23938  22.399  14.708   0.315
53339W        W23939  41.462  31.870   3.647
53340W        W23940  30.187  14.313  10.527
53341W        W23941  32.838  30.238  10.776
53342W        W23942  17.534  24.410  11.031
53343W        W23943  17.654   1.930  13.376
53344W        W23944  12.603  13.225  13.787
53345W        W23945  14.572  20.391  12.973
53346W        W23946  15.888  27.374   9.775
53347W        W23947  40.329  44.083   4.151
53348W        W23948  18.140  33.921   0.539
53349W        W23949  20.566  29.475   4.909
53350W        W23950  37.561  40.658   3.857
53351W        W23951  38.590   4.639  14.229
53352W        W23952  26.526   3.981   2.164
53353W        W23953  37.002  25.156  12.556
53354W        W23954  34.145  12.894   2.477
53355W        W23955  18.219  24.497   5.689
53356W        W23956  11.220   9.929   4.363
53357W        W23957   8.772  35.046  13.934
53358W        W23958  44.834  16.156  14.012
53359W        W23959  27.850   5.747   0.877
53360W        W23960  19.507  15.274   3.396
53361W        W23961  34.072  44.328  13.810
53362W        W23962  25.941  33.065   2.161
53363W        W23963   7.204  42.553   4.568
53364W        W23964  24.754  26.562   0.301
53365W        W23965  15.008  24.394   4.919
53366W        W23966  26.540  26.748  10.716
53367W        W23967  37.876   5.632  14.882
53368W        W23968   1.347   9.430   3.857
53369W        W23969  39.623  10.136   4.541
53370W        W23970  22.636  14.052  11.049
53371W        W23971   7.472  20.753  14.335
53372W        W23972  40.257  24.504   1.792
53373W        W23973  39.403  32.430  12.145
53374W        W23974  29.215  25.634  11.686
53375W        W23975  12.702  43.775  12.931
53376W        W23976  17.887   9.892   0.875
53377W        W23977  24.899  22.574  10.874
53378W        W23978   3.304   1.866   3.747
53379W        W23979  33.161  18.593   0.711
53380W        W23980  24.821  38.481   4.636
53381W        W23981  39.510  12.686   1.329
53382W        W23982  29.934   7.652   3.120
53383W        W23983   6.145  41.811  10.915
53384W        W23984  30.408   5.444  14.770
53385W        W23985  10.363   9.757   1.040
53386W        W23986  14.705   7.738  13.610
53387W        W23987  22.054  33.885  11.207
53388W        W23988   8.853   4.306   2.320
53389W        W23989   9.696  19.724   3.620
53390W        W23990   7.623   7.408  11.754
53391W        W23991   0.780   4.305   3.188
53392W        W23992   5.397  37.257   2.738
53393W        W23993  43.110  44.436   3.630
53394W        W23994   4.028  43.293   4.615
53395W        W23995  38.318  30.039  14.863
53396W        W23996   4.235  18.122   2.160
53397W        W23997  23.326  43.373  11.732
53398W        W23998  28.762  22.919  10.705
53399W        W23999  38.955   7.420   1.978
53400W        W24000  39.708  19.978   4.871
53401W        W24001  31.782  43.839   2.667
53402W        W24002  12.554   7.772  12.093
53403W        W24003  11.134  22.287   2.745
53404W        W24004  31.451  18.159   0.355
53405W        W24005  19.218  32.997   1.962
53406W        W24006  41.619  31.772  13.499
53407W        W24007   5.697  12.036  13.857
53408W        W24008  41.574  36.764   4.068
53409W        W24009  38.339  39.432  14.914
53410W        W24010  14.803  29.611  11.302
53411W        W24011   6.538  16.170  12.073
53412W        W24012   7.197  19.008  10.709
53413W        W24013  19.589   0.715   2.240
53414W        W24014  22.817  21.788  12.134
53415W        W24015   2.044  30.730  10.401
53416W        W24016  33.835  12.354  11.340
53417W        W24017  32.086  36.022   3.813
53418W        W24018  39.673  38.645  13.827
53419W        W24019  27.117   4.536   1.728
53420W        W24020  40.405   2.325  14.323
53421W        W24021  11.800  41.519   2.887
53422W        W24022  35.413  36.825   1.156
53423W        W24023   8.135  40.049   0.317
53424W        W24024  42.475  28.901   2.408
53425W        W24025  20.555  17.573   1.597
53426W        W24026   5.665  31.024  14.786
53427W        W24027  42.821  41.086  11.889
53428W        W24028  43.847  19.103   3.112
53429W        W24029  40.101   9.237   0.324
53430W        W24030  22.236  32.844   0.329
53431W        W24031  42.730   1.704   2.700
53432W        W24032  34.935  33.969  14.260
53433W        W24033  38.973  33.896  13.302
53434W        W24034  44.561  25.024   3.856
53435W        W24035  38.611  35.005   2.315
53436W        W24036  20.717  20.538  11.241
53437W        W24037   6.423  41.039  11.726
53438W        W24038  37.973  23.010   1.015
53439W        W24039  20.528   1.793   4.119
53440W        W24040  23.839  29.551   4.184
53441W        W24041  41.968  31.575   2.736
53442W        W24042  43.282  17.730   0.318
53443W        W24043  38.897  26.090   5.058
53444W        W24044  21.124  10.609   2.954
53445W        W24045  44.447   1.911  11.787
53446W        W24046   6.359   6.746   5.019
53447W        W24047  24.211  37.475  14.940
53448W        W24048   8.426  18.600  13.903
53449W        W24049   0.815  44.942   2.537
53450W        W24050   9.056  19.187   0.879
53451W        W24051  38.601  14.752  10.683
53452W        W24052  15.658   9.689  12.926
53453W        W24053  44.320  10.370  13.846
53454W        W24054  37.010  19.717  12.089
53455W        W24055  29.520  41.588   3.970
53456W        W24056   8.434  14.246   3.258
53457W        W24057  44.872  16.498   2.274
53458W        W24058   9.620  36.274   3.318
53459W        W24059  40.094  17.146  14.276
53460W        W24060   3.329  22.232  11.515
53461W        W24061  27.065  41.030  12.523
53462W        W24062  42.429  14.418  10.745
53463W        W24063  10.950  41.522  13.336
53464W        W24064  18.797  14.084  10.840
53465W        W24065   1.219  18.784  14.368
53466W        W24066   4.379  27.725   2.778
53467W        W24067  43.590   8.633  13.550
53468W        W24068  43.454  35.424  12.094
53469W        W24069  17.841   9.414   3.213
53470W        W24070  26.688  12.655   5.138
53471W        W24071  26.382   4.233   4.006
53472W        W24072   4.508  27.592   1.921
53473W        W24073  36.930   8.276   1.674
53474W        W24074  41.997  20.557   0.738
53475W        W24075  32.490  44.968  13.987
53476W        W24076  15.310  43.488   3.052
53477W        W24077  10.673  40.116   0.995
53478W        W24078  22.697  25.977  13.067
53479W        W24079  32.171  11.244   2.271
53480W        W24080  33.050  25.978  11.033
53481W        W24081  31.868   7.591   3.718
53482W        W24082  32.696  20.604   0.950
53483W        W24083  30.162  24.420   2.617
53484W        W24084  37.103   3.189  14.314
53485W        W24085   5.563  10.849   0.738
53486W        W24086  36.444  19.006   1.234
53487W        W24087   3.557  41.850  11.829
53488W        W24088  30.147  38.420   1.291
53489W        W24089  30.532  13.763   1.785
53490W        W24090   3.213  21.669  14.041
53491W        W24091  40.817  35.096  11.506
53492W        W24092  14.073  35.856   0.354
53493W        W24093  11.745  21.290   2.741
53494W        W24094  34.570  36.001  13.246
53495W        W24095   7.420  16.744  11.363
53496W        W24096   7.753  33.959   2.094
53497W        W24097  30.223  17.757   0.433
53498W        W24098  33.080  42.411   1.844
53499W        W24099  21.159  44.509  14.795
53500W        W24100   9.573  17.115   3.387
53501W        W24101  12.093  30.370   4.376
53502W        W24102  40.939  12.534   0.236
53503W        W24103  30.835  32.910   4.189
53504W        W24104  13.167   2.805   1.291
53505W        W24105  25.799  38.213   4.749
53506W        W24106   1.799  18.721   1.637
53507W        W24107  30.335  15.649   3.872
53508W        W24108  25.283  26.482   0.241
53509W        W24109  27.264  22.150  12.020
53510W        W24110  21.984  43.912  14.898
53511W        W24111  24.734  23.515   0.893
53512W        W24112  15.038  35.359  11.606
53513W        W24113  37.948  40.784   1.220
53514W        W24114  39.918  18.018  14.618
53515W        W24115  21.426  31.738   9.863
53516W        W24116   1.880  15.575  13.878
53517W        W24117  27.424   2.213   0.239
53518W        W24118  19.504  28.248   3.311
53519W        W24119  26.059  10.822  11.929
53520W        W24120  41.332  35.524   4.393
53521W        W24121  38.788  23.609   2.349
53522W        W24122  40.037  37.674   3.991
53523W        W24123  40.815  19.168   1.849
53524W        W24124   9.869  12.669   3.759
53525W        W24125  30.289  24.039   3.086
53526W        W24126  30.583  40.993   2.706
53527W        W24127   1.066  10.750   3.188
53528W        W24128  18.830  36.953   4.123
53529W        W24129  38.151  15.884  10.235
53530W        W24130   1.655   5.663  12.152
53531W        W24131   9.756  30.414   3.261
53532W        W24132  11.423  39.442  11.108
53533W        W24133  38.647   4.365   0.858
53534W        W24134  16.372   7.780   0.196
53535W        W24135  40.825   2.850   3.189
53536W        W24136   8.322  31.111  12.882
53537W        W24137  30.800   1.315  11.077
53538W        W24138  30.563  25.863  11.004
53539W        W24139  14.148  17.104  11.159
53540W        W24140  37.459   9.341   3.321
53541W        W24141  10.438  13.901  13.070
53542W        W24142  18.582  39.593  13.734
53543W        W24143  33.954  13.206  11.221
53544W        W24144  14.105  25.105  14.796
53545W        W24145  42.781  10.661  10.709
53546W        W24146  32.076  26.143   3.255
53547W        W24147  25.642  26.499   2.519
53548W        W24148   0.972  13.364   3.721
53549W        W24149  16.202  19.258  10.705
53550W        W24150  33.630  11.776  13.510
53551W        W24151  13.590  23.426   2.835
53552W        W24152  14.461  26.944   1.145
53553W        W24153  12.675   4.889  11.415
53554W        W24154  43.025   4.889   3.071
53555W        W24155  34.352  29.684  13.069
53556W        W24156  43.426  28.346  11.165
53557W        W24157  34.939  12.857  14.430
53558W        W24158  21.089   4.203  10.670
53559W        W24159   1.028   3.917  12.418
53560W        W24160  42.549  40.776  12.935
53561W        W24161   1.935  16.590   3.797
53562W        W24162   0.773  11.399   5.107
53563W        W24163  21.524   2.131   0.941
53564W        W24164  24.090  43.223  14.813
53565W        W24165   2.191  44.401  10.361
53566W        W24166  36.255  12.677   1.295
53567W        W24167  34.574  17.132   2.648
53568W        W24168   3.822   8.723  12.163
53569W        W24169  22.649  31.696   4.906
53570W        W24170   8.002   0.343  13.397
53571W        W24171  30.875  19.218   1.894
53572W        W24172  31.657   0.516   3.276
53573W        W24173   9.396   6.354   1.859
53574W        W24174  12.676  17.351  14.564
53575W        W24175  27.565  19.198   4.036
53576W        W24176   8.770  36.086   4.607
53577W        W24177  21.213  13.571  11.004
53578W        W24178   3.413  37.977  12.043
53579W        W24179  41.891  39.192   3.287
53580W        W24180  37.643   1.667   1.715
53581W        W24181  16.167  10.835   0.813
53582W        W24182  44.627  13.351  11.687
53583W        W24183  34.924  19.810  14.802
53584W        W24184  27.348  15.869   0.974
53585W        W24185  19.128  14.731  13.847
53586W        W24186  17.597  17.960   1.705
53587W        W24187  29.505   1.260  12.189
53588W        W24188  31.358  35.597  12.881
53589W        W24189  43.726  33.878   3.621
53590W        W24190   5.568  22.874   2.695
53591W        W24191  39.839  18.046   0.474
53592W        W24192  30.509   8.405   4.190
53593W        W24193  37.983  17.814   3.341
53594W        W24194  35.191  23.147   1.367
53595W        W24195  10.864   6.731  12.119
53596W        W24196  29.635   5.910  12.497
53597W        W24197  29.489  11.740   4.213
53598W        W24198   0.377  40.523  13.251
53599W        W24199  34.412  21.054   0.564
53600W        W24200  30.488  32.506  13.593
53601W        W24201  24.533  37.717  11.102
53602W        W24202  39.854  17.555   0.367
53603W        W24203   6.478  38.081  10.737
53604W        W24204  20.775  41.626   3.571
53605W        W24205  23.650  37.898   3.885
53606W        W24206  43.851  21.805   1.004
53607W        W24207  21.199  40.876   4.300
53608W        W24208  25.165   7.157  13.637
53609W        W24209  44.952   0.839   0.972
53610W        W24210   8.926   3.362  10.866
53611W        W24211  15.299  24.075  13.505
53612W        W24212  11.840  44.041   2.266
53613W        W24213  41.876  39.718   1.241
53614W        W24214  13.804  27.516  13.976
53615W        W24215  13.601  30.505   4.785
53616W        W24216  21.762   6.954  12.570
53617W        W24217  36.944  26.424   2.832
53618W        W24218  39.748  33.043   4.443
53619W        W24219   1.430   7.947   4.473
53620W        W24220  32.567  41.454  14.649
53621W        W24221  35.445  17.078   0.837
53622W        W24222  30.129  16.515  13.329
53623W        W24223  44.780  23.688  10.600
53624W        W24224  38.902  42.642  10.631
53625W        W24225  24.196  30.997  14.948
53626W        W24226  25.725   9.498   9.943
53627W        W24227  28.986  16.791  13.276
53628W        W24228   2.116   3.843   4.171
53629W        W24229  29.564  41.909  11.156
53630W        W24230  16.063  28.787   4.041
53631W        W24231   7.803  35.231   3.476
53632W        W24232  36.858  41.271   3.192
53633W        W24233  43.854   2.481  12.436
53634W        W24234  30.950  41.299  13.491
53635W        W24235  28.462  26.132  14.939
53636W        W24236  43.688  18.963   1.021
53637W        W24237  11.134  44.971   1.965
53638W        W24238  10.275   3.194   4.166
53639W        W24239  42.520  14.398  12.163
53640W        W24240  34.157  33.452  13.789
53641W        W24241  34.409  13.682   0.350
53642W        W24242  30.894  15.740  11.246
53643W        W24243  43.412   1.255  12.479
53644W        W24244   6.082  10.540   2.343
53645W        W24245  27.214  13.144  12.499
53646W        W24246   1.647  36.992  12.412
53647W        W24247  14.914  44.470  11.174
53648W        W24248   5.678   6.311   4.162
53649W        W24249  34.157  29.951   4.245
53650W        W24250  28.108  18.153   4.654
53651W        W24251  17.049  16.670  11.495
53652W        W24252  25.044   1.377  12.419
53653W        W24253  20.947  28.757  11.597
53654W        W24254   1.704   3.584  13.140
53655W        W24255  19.613  41.228  13.358
53656W        W24256   0.721   0.639   0.591
53657W        W24257  41.629   7.680  14.846
53658W        W24258   9.438   9.054  11.140
53659W        W24259  22.085  28.985  11.903
53660W        W24260   5.265  32.221  13.801
53661W        W24261  36.398  43.495   4.656
53662W        W24262  20.508  43.582  14.532
53663W        W24263   4.412  12.897   3.319
53664W        W24264   5.432  41.235  13.796
53665W        W24265  40.426   0.087  11.473
53666W        W24266  43.810  32.318   3.465
53667W        W24267  13.270  22.760  12.530
53668W        W24268  38.992  25.208  14.774
53669W        W24269   4.357  14.137   4.483
53670W        W24270  40.002  20.126   1.884
53671W        W24271   7.398   0.328  14.928
53672W        W24272  23.456   3.930  12.543
53673W        W24273  33.373   1.346   0.952
53674W        W24274   6.273  13.896  10.720
53675W        W24275  28.994   7.133   3.802
53676W        W24276  27.277  26.184   3.505
53677W        W24277  13.085  25.746  11.728
53678W        W24278  33.027  35.400   0.915
53679W        W24279   5.780  26.155   4.489
53680W        W24280  34.736  36.839   2.627
53681W        W24281  10.866   5.938  14.942
53682W        W24282  43.228  11.708  14.507
53683W        W24283  34.297  42.735   3.512
53684W        W24284  44.465  18.988   3.346
53685W        W24285  35.462  41.225  12.390
53686W        W24286   0.817  35.631  12.943
53687W        W24287  41.735  15.642   0.051
53688W        W24288   1.963   2.921   4.179
53689W        W24289  42.478  11.114  12.561
53690W        W24290  44.204  25.659   0.490
53691W        W24291   5.234  37.013  13.566
53692W        W24292  29.645   1.767  14.390
53693W        W24293  20.956  26.408   3.603
53694W        W24294   6.890  22.098   1.886
53695W        W24295  34.592   1.610   1.628
53696W        W24296   8.362  31.852   2.297
53697W        W24297  26.915   9.340  11.915
53698W        W24298   2.640  26.886   3.373
53699W        W24299   7.707  25.084   0.388
53700W        W24300  10.748  28.101   0.014
53701W        W24301   7.967  39.183   0.807
53702W        W24302  42.469   6.061   2.260
53703W        W24303   0.048  37.893  13.092
53704W        W24304  41.338   5.006   3.604
53705W        W24305   5.585  32.961   2.571
53706W        W24306   0.664  42.714  12.193
53707W        W24307  15.171   9.194  13.613
53708W        W24308  30.389  41.970  13.844
53709W        W24309   3.799   6.699   1.711
53710W        W24310  10.969  23.866   1.632
53711W        W24311   2.813  14.268   0.378
53712W        W24312   0.287  41.519   4.228
53713W        W24313  33.340  41.447   2.624
53714W        W24314  28.430   9.342  10.712
53715W        W24315  30.230  36.854   2.300
53716W        W24316  15.647  19.430  13.566
53717W        W24317  18.249  25.165   2.777
53718W        W24318  44.326  21.628  11.343
53719W        W24319  41.097   6.329  13.307
53720W        W24320   5.786   5.402   1.263
53721W        W24321  11.296  33.867   3.764
53722W        W24322  21.856   8.837  12.601
53723W        W24323  23.049  33.700  14.774
53724W        W24324  19.407  28.086   0.962
53725W        W24325  25.766  14.550   1.406
53726W        W24326   7.967  10.243  12.579
53727W        W24327  22.564  33.486   0.086
53728W        W24328  27.963   1.897  12.920
53729W        W24329   1.516  35.044   3.176
53730W        W24330   2.310   1.382   1.677
53731W        W24331  29.627  37.195   4.960
53732W        W24332  17.591  26.819  14.097
53733W        W24333   0.270  44.997  14.879
53734W        W24334  28.495  21.178  10.326
53735W        W24335   1.680  31.610  11.906
53736W        W24336   1.375  15.440  13.761
53737W        W24337  17.081  30.849   2.333
53738W        W24338  17.310  15.268  10.815
53739W        W24339   9.636  26.034   0.927
53740W        W24340  32.894  21.474   4.563
53741W        W24341  13.550  13.407  10.216
53742W        W24342  13.852  35.666  11.064
53743W        W24343   2.993  31.904  11.078
53744W        W24344  25.795  37.298  12.119
53745W        W24345  37.012  38.911   3.890
53746W        W24346  37.314  40.367  12.666
53747W        W24347  37.774   1.090  13.347
53748W        W24348  24.073   7.382  12.548
53749W        W24349  27.379   8.306  11.409
53750W        W24350  21.983   5.919   1.895
53751W        W24351   7.139  13.656   1.360
53752W        W24352   3.378  21.591  14.535
53753W        W24353  13.589  14.740  14.295
53754W        W24354  41.968  43.229  13.527
53755W        W24355  25.104  28.125  14.474
53756W        W24356  41.795  19.236  11.691
53757W        W24357  16.058   9.794  10.623
53758W        W24358  25.673   8.976   2.152
53759W        W24359   7.309  32.684   4.404
53760W        W24360  13.749   6.692  12.500
53761W        W24361   9.739  20.656  10.674
53762W        W24362  29.523   4.644   4.349
53763W        W24363  16.821  42.022  13.467
53764W        W24364  36.568  35.855   4.216
53765W        W24365  22.618  32.238   5.134
53766W        W24366  25.861  13.879  10.226
53767W        W24367  22.545  33.458  13.596
53768W        W24368   9.836  40.856   4.841
53769W        W24369  27.739  23.683  14.955
53770W        W24370  18.381   7.037  13.584
53771W        W24371  12.414  18.767  14.335
53772W        W24372   1.488   9.892   3.598
53773W        W24373  43.353   9.672   1.499
53774W        W24374   9.612   2.173   4.879
53775W        W24375  11.628  43.470  14.543
53776W        W24376  41.313   8.302   3.427
53777W        W24377  16.526   5.862  12.827
53778W        W24378  13.604   2.976  13.934
53779W        W24379  36.097  27.985   0.703
53780W        W24380  11.269   0.273  11.912
53781W        W24381  43.980   0.724   1.670
53782W        W24382  20.704  27.155  12.480
53783W        W24383  10.363  24.675  13.614
53784W        W24384  39.694  14.721   3.301
53785W        W24385  19.992  33.765  11.775
53786W        W24386   4.636  32.942   2.880
53787W        W24387  33.841  19.482  14.307
53788W        W24388  40.429   4.810   0.799
53789W        W24389  30.176   6.672   0.971
53790W        W24390  17.032  16.821   1.787
53791W        W24391  22.864  32.669  11.016
53792W        W24392  31.687  17.074   3.167
53793W        W24393   1.066   0.221  11.013
53794W        W24394   2.238  11.872   0.291
53795W        W24395  13.916  16.097  12.467
53796W        W24396  13.784  32.707  13.353
53797W        W24397   5.848  39.028   0.536
53798W        W24398  17.948   3.290   4.178
53799W        W24399  33.839  40.132   0.182
53800W        W24400  38.099  24.078   0.290
53801W        W24401  13.547   6.341   3.332
53802W        W24402  29.392  36.953  13.939
53803W        W24403  36.510  24.950  12.544
53804W        W24404  10.804  23.581   1.012
53805W        W24405  40.743  37.838  14.766
53806W        W24406   9.542  25.489   2.858
53807W        W24407  40.349  16.759   0.329
53808W        W24408  29.178  33.056  13.615
53809W        W24409  27.152   1.420  14.700
53810W        W24410  29.075  40.708  14.256
53811W        W24411  33.675  32.932  11.825
53812W        W24412  25.180   6.151  14.479
53813W        W24413  34.010   2.072  12.049
53814W        W24414  29.166  34.622  14.344
53815W        W24415  13.088  19.156  12.899
53816W        W24416   7.897  18.502  10.864
53817W        W24417  25.477  23.014   0.467
53818W        W24418   8.108  16.281  11.507
53819W        W24419   0.964  28.452   0.806
53820W        W24420  29.396  16.033   4.099
53821W        W24421  21.632   8.728  12.121
53822W        W24422   9.157  19.255  10.581
53823W        W24423  33.171   9.337  11.165
53824W        W24424  37.185  27.241   1.329
53825W        W24425  41.822   7.846  10.341
53826W        W24426  15.712  38.377  10.964
53827W        W24427   0.476  14.139  12.469
53828W        W24428   3.334  32.892   9.781
53829W        W24429  29.876  11.927  12.484
53830W        W24430  38.145   1.324  13.082
53831W        W24431   6.097  16.714   3.320
53832W        W24432   6.958   4.408  10.645
53833W        W24433  28.637  37.511  14.043
53834W        W24434  39.260  26.674  12.115
53835W        W24435  44.707   1.926  12.257
53836W        W24436  40.520  10.373  11.870
53837W        W24437  34.662  15.773  12.023
53838W        W24438  21.252  10.583  13.904
53839W        W24439  23.078  43.146   4.119
53840W        W24440  35.445  28.294   4.135
53841W        W24441  24.419  40.331  10.742
53842W        W24442  15.173  19.778  11.067
53843W        W24443  35.932  35.607   2.316
53844W        W24444   4.491  34.770   1.732
53845W        W24445  13.207  19.676   4.606
53846W        W24446  35.343  14.345   1.723
53847W        W24447  30.436  43.804   2.038
53848W        W24448  26.862   6.425   1.727
53849W        W24449  18.714  17.604   1.459
53850W        W24450   3.294   4.008   0.755
53851W        W24451   8.292   3.654  12.965
53852W        W24452  33.311  29.846   4.662
53853W        W24453   9.439  36.505   3.735
53854W        W24454  28.292   8.197   2.472
53855W        W24455  27.081  23.439  11.176
53856W        W24456  29.734  43.389  13.031
53857W        W24457  15.759   8.750  12.788
53858W        W24458  43.341  37.550  10.555
53859W        W24459  15.261  16.111   4.106
53860W        W24460  41.230   0.457   2.882
53861W        W24461   8.165  40.005   3.180
53862W        W24462  17.854  28.106   4.105
53863W        W24463  41.098  30.538   3.794
53864W        W24464   4.206  35.040  13.016
53865W        W24465   0.024  13.385   0.015
53866W        W24466  18.795  23.437  13.893
53867W        W24467   3.306  18.003   1.392
53868W        W24468  14.270  27.023  10.678
53869W        W24469  32.719  29.391  10.476
53870W        W24470  35.717  40.852  14.414
53871W        W24471  33.636   4.926  13.759
53872W        W24472  20.782  33.976   3.180
53873W        W24473   3.370  13.716  10.661
53874W        W24474  35.145  17.286  11.156
53875W        W24475  37.769  16.239  14.899
53876W        W24476   4.923  26.121  10.861
53877W        W24477  36.876  28.676   1.732
53878W        W24478  42.162  25.788  13.958
53879W        W24479  29.128  20.630   2.139
53880W        W24480   8.446  15.189   4.880
53881W        W24481  12.987  13.570  13.536
53882W        W24482  32.348  14.244  13.354
53883W        W24483  22.715  25.976   3.205
53884W        W24484  19.085   5.609  12.010
53885W        W24485  11.848   1.431   4.199
53886W        W24486  42.393  32.238   0.994
53887W        W24487  43.013  18.843   3.887
53888W        W24488  16.577  33.593   1.605
53889W        W24489  26.292  30.023  11.571
53890W        W24490  43.731   4.062   3.772
53891W        W24491   8.779  30.636  11.827
53892W        W24492  22.030  13.186  13.588
53893W        W24493  42.547  44.370   4.663
53894W        W24494   9.256  43.110   5.051
53895W        W24495  18.819   8.703  13.050
53896W        W24496  18.831  22.012   1.649
53897W        W24497  11.563  20.207   1.354
53898W        W24498  31.481  30.410  13.373
53899W        W24499  14.882  16.546  11.164
53900W        W24500  43.195  14.720  11.643
53901W        W24501  38.518  32.601  14.116
53902W        W24502   6.450  37.156  10.535
53903W        W24503  16.126  39.147  14.412
53904W        W24504   1.473  40.540  13.915
53905W        W24505  36.770  12.349  13.593
53906W        W24506  36.583   9.648  13.868
53907W        W24507   0.687   5.805  14.048
53908W        W24508  19.722  42.930  14.992
53909W        W24509  28.062   4.884  10.764
53910W        W24510  34.028  43.407   5.106
53911W        W24511  16.814  39.880  14.352
53912W        W24512   0.776  28.175   3.638
53913W        W24513  14.350  41.680  14.392
53914W        W24514  29.982   1.126  12.043
53915W        W24515  18.183  10.187  10.233
53916W        W24516  20.775  41.214   1.275
53917W        W24517  41.375   7.414   2.118
53918W        W24518  36.531  11.342   4.573
53919W        W24519  13.654  42.992  14.544
53920W        W24520   4.214  22.532  14.105
53921W        W24521   7.624  25.246  14.832
53922W        W24522   0.799  16.545  12.512
53923W        W24523  39.373  11.721   2.753
53924W        W24524  31.936   3.476  12.463
53925W        W24525   3.688  20.743  12.067
53926W        W24526   7.382  33.313   2.226
53927W        W24527   8.377  37.559  13.568
53928W        W24528  39.298  35.148   1.857
53929W        W24529  10.317   1.363   2.362
53930W        W24530  37.044  33.620  13.851
53931W        W24531  20.030  20.146   4.717
53932W        W24532  39.956  33.144   0.054
53933W        W24533   6.897   7.230  14.973
53934W        W24534  19.805  43.407   3.133
53935W        W24535   2.619  20.352   1.172
53936W        W24536  25.688   4.856  11.191
53937W        W24537  29.066  26.056   2.729
53938W        W24538  33.002  27.615   4.212
53939W        W24539  18.613  37.411  10.781
53940W        W24540   8.673  10.799  12.828
53941W        W24541  38.844  42.432  12.534
53942W        W24542  16.775  10.834  10.651
53943W        W24543   9.404  41.494   1.819
53944W        W24544  34.870   1.708   1.185
53945W        W24545  41.305  31.637  14.129
53946W        W24546  22.048  40.083  12.888
53947W        W24547  10.732  10.420   3.826
53948W        W24548  35.590  22.717  12.947
53949W        W24549  40.758  28.079   2.502
53950W        W24550  36.479  36.641  14.091
53951W        W24551   6.254   5.482  13.407
53952W        W24552  20.371  18.894   2.702
53953W        W24553  37.360   2.615   3.596
53954W        W24554  30.285  11.285  10.745
53955W        W24555  12.147  18.692   4.603
53956W        W24556  40.338  43.135  11.977
53957W        W24557  43.011  33.518   3.347
53958W        W24558   5.722  44.825   1.224
53959W        W24559  12.247  24.711  11.546
53960W        W24560  28.348  16.082  14.783
53961W        W24561  15.677  18.032  10.692
53962W        W24562  41.420  13.377   1.164
53963W        W24563  16.058  25.414   4.069
53964W        W24564  37.400   1.506  14.781
53965W        W24565  18.130  36.352  11.404
53966W        W24566  15.773  29.869   1.367
53967W        W24567  21.177   6.281   4.557
53968W        W24568  20.219   2.303  10.333
53969W        W24569  17.431  31.262   4.312
53970W        W24570  30.785  42.625  13.195
53971W        W24571  18.623  11.071   1.447
53972W        W24572  38.447  32.012   3.522
53973W        W24573  35.425  34.327   2.387
53974W        W24574  39.021  32.463   1.310
53975W        W24575  17.773  23.921   5.121
53976W        W24576   1.403  19.778  12.508
53977W        W24577  11.594   3.320   4.944
53978W        W24578  28.758  39.839   0.083
53979W        W24579  10.182  17.990  13.748
53980W        W24580   6.186  32.021   1.880
53981W        W24581  13.547  38.056  10.484
53982W        W24582   1.852   6.207  12.376
53983W        W24583  39.433  40.527   3.497
53984W        W24584  18.204   3.482  12.110
53985W        W24585  35.478  38.812   3.992
53986W        W24586   2.487  19.071   3.265
53987W        W24587  26.134  23.733   4.093
53988W        W24588  15.198  11.626  14.665
53989W        W24589  22.530  41.082   2.553
53990W        W24590  37.965  15.634   2.652
53991W        W24591  30.970  37.932   4.270
53992W        W24592  33.602  32.445   3.208
53993W        W24593  40.322  24.761  11.886
53994W        W24594  25.684  21.522   0.355
53995W        W24595   1.728   1.796  11.548
53996W        W24596  17.578   5.924  11.880
53997W        W24597  25.911  24.277  14.455
53998W        W24598  11.189  15.592   0.378
53999W        W24599  27.115  39.785   4.229
54000W        W24600  26.525  34.739   1.872
54001W        W24601  12.237   9.962   5.150
54002W        W24602   9.787  27.491   1.738
54003W        W24603  29.243  14.188   1.710
54004W        W24604   4.684  12.874   4.995
54005W        W24605  43.710  14.674  11.547
54006W        W24606  27.716   3.521  14.992
54007W        W24607   5.297  17.850  13.091
54008W        W24608  33.344  35.549   4.871
54009W        W24609   4.120  37.486  10.692
54010W        W24610  44.432   7.289   4.672
54011W        W24611   2.770  25.914   0.471
54012W        W24612  21.114  31.422   4.236
54013W        W24613  10.903   7.974  14.654
54014W        W24614  14.642   5.852  13.053
54015W        W24615  42.395   9.288  13.501
54016W        W24616   9.844  20.939   1.660
54017W        W24617  21.013  31.556   1.264
54018W        W24618  27.994  44.417   5.144
54019W        W24619  11.069   5.458   1.601
54020W        W24620   0.709  16.600   1.733
54021W        W24621   1.387  26.149   2.168
54022W        W24622  22.934  21.431   0.537
54023W        W24623  24.142  30.098   1.871
54024W        W24624  30.975  15.991  10.294
54025W        W24625   4.258  25.495  11.847
54026W        W24626  38.013  26.214   3.770
54027W        W24627  23.919  11.218   3.607
54028W        W24628  36.905  36.382   1.879
54029W        W24629   7.864   5.468   3.142
54030W        W24630  29.851  38.062  10.730
54031W        W24631   9.228   5.910   1.048
54032W        W24632  37.068  22.725   0.339
54033W        W24633  40.582  34.539  13.640
54034W        W24634  21.113  23.928  11.812
54035W        W24635  23.673  44.676   2.495
54036W        W24636  24.236  40.141   1.628
54037W        W24637  36.991  13.662   2.734
54038W        W24638  14.058  31.367  14.833
54039W        W24639  12.803  32.623   0.308
54040W        W24640  20.273  10.472   3.305
54041W        W24641  42.796  25.091   1.406
54042W        W24642  30.875  33.030  12.713
54043W        W24643  33.522  28.710  14.254
54044W        W24644  43.214  24.592  14.878
54045W        W24645  20.090   6.578  14.334
54046W        W24646  23.257  34.462  12.492
54047W        W24647  14.145  32.481  13.038
54048W        W24648  13.066  38.514   2.224
54049W        W24649  41.335  23.100   0.451
54050W        W24650  39.446  34.630   0.049
54051W        W24651   4.826  11.942  11.103
54052W        W24652   7.512  26.075   3.609
54053W        W24653  15.221  18.166   0.701
54054W        W24654  26.264  21.243  12.020
54055W        W24655  15.754  32.281   2.275
54056W        W24656  37.060   8.438  11.130
54057W        W24657   1.744  22.192  12.485
54058W        W24658  44.490   6.373   4.911
54059W        W24659  20.674  11.420  11.177
54060W        W24660  16.341  44.631   4.118
54061W        W24661  38.012   3.469   0.307
54062W        W24662  43.354  23.061  11.498
54063W        W24663  18.304  33.189  11.650
54064W        W24664  34.442  12.225   4.581
54065W        W24665  24.999  16.596   3.807
54066W        W24666  36.734  39.347   3.879
54067W        W24667  27.720  11.219   3.284
54068W        W24668  19.441  14.833  13.352
54069W        W24669  15.696  14.798  13.580
54070W        W24670   0.395  40.604   4.938
54071W        W24671  39.550   1.741  14.431
54072W        W24672  23.246  22.730   2.430
54073W        W24673  32.532   1.838  11.933
54074W        W24674  31.365  27.496  12.546
54075W        W24675   8.285   8.663   2.600
54076W        W24676  23.660  13.275  10.721
54077W        W24677  34.310   1.330   0.567
54078W        W24678  41.813  29.857   2.225
54079W        W24679  25.580  19.493  12.911
54080W        W24680   1.022  19.299   0.850
54081W        W24681  19.215   2.469   3.908
54082W        W24682  42.438   5.487   1.226
54083W        W24683   6.298   4.827  10.167
54084W        W24684   6.724  16.718  10.799
54085W        W24685  36.880  36.095   2.386
54086W        W24686   0.351  35.369   3.628
54087W        W24687  16.598  29.071   3.183
54088W        W24688   5.673  19.554  12.978
54089W        W24689  17.225  17.231   5.065
54090W        W24690  22.117   3.955   1.791
54091W        W24691  22.591  11.865   2.311
54092W        W24692  11.834  13.330   0.646
54093W        W24693  37.864  13.052   2.784
54094W        W24694   3.131  20.126  13.944
54095W        W24695  20.304  34.928   2.574
54096W        W24696  35.944  24.691   4.531
54097W        W24697   4.216  23.114   1.900
54098W        W24698  21.081  37.983  12.391
54099W        W24699   2.612   1.986   0.392
54100W        W24700  12.819   8.628  11.584
54101W        W24701  35.613  26.686  13.585
54102W        W24702  21.373   8.279   2.269
54103W        W24703   5.765  28.132   1.875
54104W        W24704  36.106  39.783  12.931
54105W        W24705  27.701  40.130   0.230
54106W        W24706  33.860  27.462  10.495
54107W        W24707   0.654  13.868   0.487
54108W        W24708  33.666  18.221  13.446
54109W        W24709  19.465   0.347  13.860
54110W        W24710  26.547  28.705   4.072
54111W        W24711  15.213   3.824   0.465
54112W        W24712  17.514  18.765   3.831
54113W        W24713  34.489   5.115   1.823
54114W        W24714  26.066  32.826  12.084
54115W        W24715  16.523  37.755   2.378
54116W        W24716  36.129  26.639  12.104
54117W        W24717  13.385  18.766  13.116
54118W        W24718   2.540  31.562   2.137
54119W        W24719   5.015  21.129   4.367
54120W        W24720  34.631  19.340   2.492
54121W        W24721  26.393   3.449  12.945
54122W        W24722  13.085  20.972   3.968
54123W        W24723  14.620  43.842   4.867
54124W        W24724  26.753  37.598  14.333
54125W        W24725  21.973  40.127   1.164
54126W        W24726  27.585   1.339   4.150
54127W        W24727   5.380  18.594  11.886
54128W        W24728  29.110  19.338  14.329
54129W        W24729  43.391   2.910   0.133
54130W        W24730  30.691  26.428   3.204
54131W        W24731  34.839  21.088  11.165
54132W        W24732  28.425  24.109   2.713
54133W        W24733  24.014   6.620   2.389
54134W        W24734   8.363  36.039  11.359
54135W        W24735  26.164  43.865   4.115
54136W        W24736  12.610  10.729  12.402
54137W        W24737  16.923   9.829   0.695
54138W        W24738  23.808  18.694   2.899
54139W        W24739  32.114  14.149   0.465
54140W        W24740  15.211  39.738  13.481
54141W        W24741  28.659  20.664   3.468
54142W        W24742   8.426  39.501   0.249
54143W        W24743  23.463  32.927  13.409
54144W        W24744   0.028  23.666   0.117
54145W        W24745   0.260   7.264  12.977
54146W        W24746   0.476  37.421  13.953
54147W        W24747   6.487  30.079   1.869
54148W        W24748  37.708  39.880   1.462
54149W        W24749  11.453  18.454   1.188
54150W        W24750  21.991  10.691   5.053
54151W        W24751  17.109  12.337  11.941
54152W        W24752  34.940  26.198   4.867
54153W        W24753  11.998   5.287   1.840
54154W        W24754  42.977  37.418   4.152
54155W        W24755   6.986  25.140   3.763
54156W        W24756  26.201  15.201  13.265
54157W        W24757  27.547  17.338  10.691
54158W        W24758  26.885  24.749  14.596
54159W        W24759  40.373   3.719   1.666
54160W        W24760  11.561   4.973  11.229
54161W        W24761   0.753  10.804  11.548
54162W        W24762  28.988  14.531   2.440
54163W        W24763  11.412  15.125   0.363
54164W        W24764  34.613  10.780  14.835
54165W        W24765  35.300  19.030  14.271
54166W        W24766  21.084  32.631  13.509
54167W        W24767  10.601  38.510   4.443
54168W        W24768  21.138   8.237   1.163
54169W        W24769   5.707  43.326   0.731
54170W        W24770   0.465   4.762   2.802
54171W        W24771   1.478  17.810  13.911
54172W        W24772  35.510  44.056   4.671
54173W        W24773  13.745  15.265   2.200
54174W        W24774  23.516  33.069   3.487
54175W        W24775  19.008  11.798  12.829
54176W        W24776  34.778  12.848   0.757
54177W        W24777  36.993  24.963  14.816
54178W        W24778  20.128  32.039   0.591
54179W        W24779   5.004  19.516   2.801
54180W        W24780  22.379   8.139  12.391
54181W        W24781  22.901  20.062   4.252
54182W        W24782  23.738  22.224   1.373
54183W        W24783  13.301  38.876   3.711
54184W        W24784  26.557  32.818   4.430
54185W        W24785  20.062   7.877   3.244
54186W        W24786  16.335  28.854   4.827
54187W        W24787   1.485  44.986  14.242
54188W        W24788  19.458  24.517   2.235
54189W        W24789  11.848  44.821   1.283
54190W        W24790  17.773  22.540  10.725
54191W        W24791  24.549  16.542   2.915
54192W        W24792  27.514  40.474   4.053
54193W        W24793  26.571  41.837   0.660
54194W        W24794  13.866  29.010   0.697
54195W        W24795   3.874  15.790  10.270
54196W        W24796   8.209  39.410   1.584
54197W        W24797   8.793  38.902   4.486
54198W        W24798  32.164  34.413  12.883
54199W        W24799  14.485  23.521  10.934
54200W        W24800  31.382  39.792  13.053
54201W        W24801   0.775  21.377   3.721
54202W        W24802   7.434  32.036   3.257
54203W        W24803   2.206  34.632   2.305
54204W        W24804  35.550  26.006  10.560
54205W        W24805  43.224  24.450   4.654
54206W        W24806  43.858  31.851   1.345
54207W        W24807   5.347  12.800  14.970
54208W        W24808  39.030  29.934   3.793
54209W        W24809   0.251   0.549  11.184
54210W        W24810   9.762  44.555   1.313
54211W        W24811  42.460  39.865  11.227
54212W        W24812  26.138  21.953   4.115
54213W        W24813  11.425   7.305  12.483
54214W        W24814  30.219  13.697   0.413
54215W        W24815  11.689  24.670   2.258
54216W        W24816  34.820  22.867  13.291
54217W        W24817  38.563   3.665  11.630
54218W        W24818  24.115  16.835   2.664
54219W        W24819  17.622  16.283  13.102
54220W        W24820   5.783  20.109   3.345
54221W        W24821  31.109  23.048   0.398
54222W        W24822  10.227   2.917  12.922
54223W        W24823   2.961  21.269   4.015
54224W        W24824  15.355  30.410   5.023
54225W        W24825   3.692  19.534  14.753
54226W        W24826  24.265  18.555  11.062
54227W        W24827  27.479   9.923  14.937
54228W        W24828  14.433  28.017  14.197
54229W        W24829  18.623  39.112  12.267
54230W        W24830  29.167   9.855  11.560
54231W        W24831  44.312  32.941  13.609
54232W        W24832   8.834  37.346  13.464
54233W        W24833  30.551  10.470   4.085
54234W        W24834  20.351   5.771  11.043
54235W        W24835  31.121  41.082   4.031
54236W        W24836   8.304  14.392   1.888
54237W        W24837   0.910  29.820   2.816
54238W        W24838   9.883   5.256  13.575
54239W        W24839  14.183  15.692   0.539
54240W        W24840  17.229   6.235  12.539
54241W        W24841  31.418  19.053  12.988
54242W        W24842   5.217   5.516   2.766
54243W        W24843  40.430  23.690  14.660
54244W        W24844  39.141  19.101  13.181
54245W        W24845   9.719   4.736  12.419
54246W        W24846   2.362  32.504  11.217
54247W        W24847   1.227  18.676  13.852
54248W        W24848  14.363  20.588  12.542
54249W        W24849  23.031  24.393   0.376
54250W        W24850   6.262   6.173   3.627
54251W        W24851  34.495  41.010   2.725
54252W        W24852  39.045  40.354  12.907
54253W        W24853  18.110  39.890  12.138
54254W        W24854  34.916   9.509  13.607
54255W        W24855  16.334  42.867   4.993
54256W        W24856  44.987  28.059  12.107
54257W        W24857  37.426  37.468  12.959
54258W        W24858  26.697   2.076   0.914
54259W        W24859  43.561  18.335   4.233
54260W        W24860   4.716   6.714  12.985
54261W        W24861  27.038  29.772  13.675
54262W        W24862   0.625  23.165   2.180
54263W        W24863  10.264  35.631  11.521
54264W        W24864   5.049  19.721   3.861
54265W        W24865  31.870  21.289  10.030
54266W        W24866   7.917  39.015  12.028
54267W        W24867  38.600  21.317   0.365
54268W        W24868  26.401  19.849   4.388
54269W        W24869   4.435  34.424  13.864
54270W        W24870  42.212  39.795   0.458
54271W        W24871  23.025   8.669   0.574
54272W        W24872   3.611  36.076   1.936
54273W        W24873  28.171  35.441   0.358
54274W        W24874  35.664  36.375   1.297
54275W        W24875  28.664  43.467   1.474
54276W        W24876  36.556  43.959  10.690
54277W        W24877  41.804  39.106  11.647
54278W        W24878  31.007  36.889  11.153
54279W        W24879   2.487  30.446  14.194
54280W        W24880  27.466  33.562   3.147
54281W        W24881  17.552   7.867   4.204
54282W        W24882  25.923   8.279   0.480
54283W        W24883  31.545   4.729  12.045
54284W        W24884  12.139   8.167  13.788
54285W        W24885  11.391  22.957   3.263
54286W        W24886  18.169   8.572   3.605
54287W        W24887  43.262  38.443  13.499
54288W        W24888  38.912   5.946  11.535
54289W        W24889  20.548  27.369   1.000
54290W        W24890  44.362   4.024   4.961
54291W        W24891  25.019  22.003  14.752
54292W        W24892  40.363  38.175  10.801
54293W        W24893  34.645  38.011   2.894
54294W        W24894  41.283   3.333  12.145
54295W        W24895  42.261  10.836  11.534
54296W        W24896  19.700  21.022   1.757
54297W        W24897  32.505  10.310   3.338
54298W        W24898  43.584  37.922  13.254
54299W        W24899   7.273   5.245  11.415
54300W        W24900  35.603   7.174  10.803
54301W        W24901  42.776  33.530   4.328
54302W        W24902  24.039  10.604   2.157
54303W        W24903  19.580  21.785   4.177
54304W        W24904  18.122  23.494  11.152
54305W        W24905  30.582  41.986  12.412
54306W        W24906  32.426  37.452   0.871
54307W        W24907  32.033  39.882   1.522
54308W        W24908  15.805  39.391  11.162
54309W        W24909  32.538  37.813  12.835
54310W        W24910  10.833  43.548   2.414
54311W        W24911  42.192   2.372  12.184
54312W        W24912  37.997  18.637   3.519
54313W        W24913  22.720  32.484   4.149
54314W        W24914   7.502  18.305  12.101
54315W        W24915   2.249  25.731   1.085
54316W        W24916   1.980  37.054  14.886
54317W        W24917  44.379   9.886   3.597
54318W        W24918  31.637  34.122   1.432
54319W        W24919  20.970  23.220  12.373
54320W        W24920  29.379  17.628  10.699
54321W        W24921  42.996  30.851  14.079
54322W        W24922   5.363  30.740   0.808
54323W        W24923  21.953  12.631   3.890
54324W        W24924   1.254  28.649   0.196
54325W        W24925  19.544  27.080   2.578
54326W        W24926   3.409   7.602   3.097
54327W        W24927   1.582  34.715  12.395
54328W        W24928  27.088  41.698   2.800
54329W        W24929  37.723  44.718  13.825
54330W        W24930  44.491  37.961  13.011
54331W        W24931   4.777  21.785  13.273
54332W        W24932  36.924  19.518  14.790
54333W        W24933   6.428  42.437  14.293
54334W        W24934   2.928  36.190  12.059
54335W        W24935  17.767  20.135  13.473
54336W        W24936  32.563  25.812  11.158
54337W        W24937   1.311   0.996  10.574
54338W        W24938  26.703  42.370   0.631
54339W        W24939  43.033  15.219  11.723
54340W        W24940  38.078  43.811  12.903
54341W        W24941  36.872  19.786  14.304
54342W        W24942  18.605  13.674   1.923
54343W        W24943  23.177  41.272   3.839
54344W        W24944  20.685   2.589  12.519
54345W        W24945  35.108  18.889   5.147
54346W        W24946  28.590  44.323  10.699
54347W        W24947  41.555  33.423   0.676
54348W        W24948  31.563  34.673   0.478
54349W        W24949   0.511  43.855  11.545
54350W        W24950  43.462  38.568   2.690
54351W        W24951   0.502  28.355   1.705
54352W        W24952  17.964  18.956   2.672
54353W        W24953  24.638  12.561   0.266
54354W        W24954   8.432  10.931  11.504
54355W        W24955   5.192   0.172  12.917
54356W        W24956  13.854  35.577  14.951
54357W        W24957  40.306  17.804   0.252
54358W        W24958  32.856  41.363   4.532
54359W        W24959  39.450  26.573   0.709
54360W        W24960  43.322  30.399   1.496
54361W        W24961  26.041  42.341  13.980
54362W        W24962   7.150  12.782   0.942
54363W        W24963  42.250   4.920  11.567
54364W        W24964  44.150  44.315   5.164
54365W        W24965  19.972   5.445   2.484
54366W        W24966   0.608  10.430  13.364
54367W        W24967  41.867  25.609   0.898
54368W        W24968  36.559   1.964  13.440
54369W        W24969  37.581   7.223   2.848
54370W        W24970  18.554   3.978   4.140
54371W        W24971  27.232  41.989  12.965
54372W        W24972   4.443  23.955  12.345
54373W        W24973  11.184  32.839   3.688
54374W        W24974  30.617  31.743  13.853
54375W        W24975  44.828  34.503  12.118
54376W        W24976   0.890  30.381   4.205
54377W        W24977   4.643  36.493   0.449
54378W        W24978  11.752  15.139   1.969
54379W        W24979  20.416  22.614   0.310
54380W        W24980  18.281  19.317   2.956
54381W        W24981  31.926  27.217  11.455
54382W        W24982   5.407   9.186  13.907
54383W        W24983   8.036  11.234   1.690
54384W        W24984  15.339  23.318   3.589
54385W        W24985  11.722  12.888  10.056
54386W        W24986  30.909  32.911   0.299
54387W        W24987   0.191   6.903  14.042
54388W        W24988  13.595  41.952   0.097
54389W        W24989   8.414  18.816  13.426
54390W        W24990  38.468  23.288   4.568
54391W        W24991  32.004   7.584   0.418
54392W        W24992  28.977  11.724  10.746
54393W        W24993  21.187  22.542  14.757
54394W        W24994   9.313   6.354   1.323
54395W        W24995  28.697   4.951   1.209
54396W        W24996  31.845  35.512  13.556
54397W        W24997  26.912  24.089   4.059
54398W        W24998  32.889  21.235  14.221
54399W        W24999  21.156  37.492  12.553
54400W        W25000   3.217   1.698  14.500
54401W        W25001   5.848  31.009   3.236
54402W        W25002  31.607  25.420   3.067
54403W        W25003   2.072  30.472  14.688
54404W        W25004  14.312  43.832   5.293
54405W        W25005  23.073  29.134  12.896
54406W        W25006   2.429   4.699   0.488
54407W        W25007  35.928   8.409  14.782
54408W        W25008  38.798  27.589   3.589
54409W        W25009  24.535  40.558  12.488
54410W        W25010  36.073  12.514   4.784
54411W        W25011  23.159  35.883  14.579
54412W        W25012   0.160  39.354  14.006
54413W        W25013  27.095  22.449  12.434
54414W        W25014  38.524  23.190  13.780
54415W        W25015  37.085  14.224   2.793
54416W        W25016  15.421  16.606   5.418
54417W        W25017  42.215  24.693  14.739
54418W        W25018  29.729   5.921   1.249
54419W        W25019  25.095  18.291  12.523
54420W        W25020  39.164  23.295   4.203
54421W        W25021  21.461  32.595  12.076
54422W        W25022  12.288  33.465  11.215
54423W        W25023   8.920  14.883  13.773
54424W        W25024  38.118  10.361   0.767
54425W        W25025  24.628  34.543  10.761
54426W        W25026  39.894  33.732   3.186
54427W        W25027  17.008  41.839  10.630
54428W        W25028  11.148  44.070  11.713
54429W        W25029  30.150   0.525  13.116
54430W        W25030  28.535  23.900  10.674
54431W        W25031  13.477  39.738  11.928
54432W        W25032  39.081  25.324  12.523
54433W        W25033  12.261  13.678  13.789
54434W        W25034  32.907  24.021   1.328
54435W        W25035   3.709  41.102  14.410
54436W        W25036  39.073   5.793   1.425
54437W        W25037  41.352  40.738  10.752
54438W        W25038  32.072  43.656  11.354
54439W        W25039  32.631  35.159   2.152
54440W        W25040  40.696  21.980   5.000
54441W        W25041  21.703   6.425  14.303
54442W        W25042  30.456  43.811   4.303
54443W        W25043  31.040  29.540  13.042
54444W        W25044  24.253  28.213   0.621
54445W        W25045  33.378  24.235  12.779
54446W        W25046  13.819  36.299   0.141
54447W        W25047  36.019  26.227   2.461
54448W        W25048  20.722   5.133   2.190
54449W        W25049   1.698  14.780  13.511
54450W        W25050  23.999  40.955   2.720
54451W        W25051  22.300  10.936  10.324
54452W        W25052  32.575  26.900   2.283
54453W        W25053  23.848  28.427   0.334
54454W        W25054  42.378  15.099   3.589
54455W        W25055  27.569  12.070  13.966
54456W        W25056  34.256  17.957  11.538
54457W        W25057   7.865  36.604   0.531
54458W        W25058   6.123  16.087   0.432
54459W        W25059  32.586  27.893  14.186
54460W        W25060  14.421  12.450  14.386
54461W        W25061  38.483  13.577  14.439
54462W        W25062  12.864  40.057  14.928
54463W        W25063  15.249  26.632   3.175
54464W        W25064  37.026  29.324   4.159
54465W        W25065   3.179  43.175   4.225
54466W        W25066  20.209   0.600   1.458
54467W        W25067  19.969  35.115   0.404
54468W        W25068   6.094  24.330  12.145
54469W        W25069  10.825  25.619  11.533
54470W        W25070  37.072  24.446  13.905
54471W        W25071  38.086  42.861   1.945
54472W        W25072  44.974   2.897  12.431
54473W        W25073   7.216  13.574   2.773
54474W        W25074  27.138  33.036   0.740
54475W        W25075   4.370  37.045  10.690
54476W        W25076  35.974  26.098  13.059
54477W        W25077  27.189  14.694   1.657
54478W        W25078  25.999   9.211  11.386
54479W        W25079  32.072  19.584  13.434
54480W        W25080   9.745  34.033  11.059
54481W        W25081  16.833   6.769  14.406
54482W        W25082  11.495  14.655  13.235
54483W        W25083  33.254  25.983   1.808
54484W        W25084  20.167  18.150  14.034
54485W        W25085  25.484  43.351   4.243
54486W        W25086  19.236   3.251  11.970
54487W        W25087   7.645  23.767   3.003
54488W        W25088  35.388  31.589   0.475
54489W        W25089  27.622  33.349   0.972
54490W        W25090   7.726  37.286   4.638
54491W        W25091  22.023  19.789  13.172
54492W        W25092  42.515  24.945  11.654
54493W        W25093  18.123  19.738  12.166
54494W        W25094   3.965   2.293   0.291
54495W        W25095  17.606  27.213   2.420
54496W        W25096  33.850  44.764  14.939
54497W        W25097  23.037   0.767   3.347
54498W        W25098  12.770   9.918   0.811
54499W        W25099  43.676  30.082   1.240
54500W        W25100  17.618  24.290   1.945
54501W        W25101  33.244  11.281   4.043
54502W        W25102  30.074  16.719   0.402
54503W        W25103  34.804  30.371  13.959
54504W        W25104  16.597  21.548  12.454
54505W        W25105  21.663   2.709   2.010
54506W        W25106  38.425  14.774  12.941
54507W        W25107  14.778  24.651  13.873
54508W        W25108   3.130  43.418  11.146
54509W        W25109   7.429  27.008   2.682
54510W        W25110  22.757   7.269  13.262
54511W        W25111  39.712  13.531  11.422
54512W        W25112   5.426  34.902   3.630
54513W        W25113  13.327  13.330  12.658
54514W        W25114  40.833  39.062  12.061
54515W        W25115  10.837  15.876  13.396
54516W        W25116   2.986  26.927  12.121
54517W        W25117  40.780   4.423   3.993
54518W        W25118  35.934   0.285   1.432
54519W        W25119  17.754   3.967   0.622
54520W        W25120   2.998  22.766  13.431
54521W        W25121  38.076  18.524  14.417
54522W        W25122  30.118  40.457   0.819
54523W        W25123  37.634   8.083   2.823
54524W        W25124  40.415  39.574   2.860
54525W        W25125  38.899  24.184  13.265
54526W        W25126  12.392   0.285   1.832
54527W        W25127  19.538  36.930   3.592
54528W        W25128  41.073  16.330   3.695
54529W        W25129  12.721  43.736   3.735
54530W        W25130   9.164  11.623   3.177
54531W        W25131  33.077  10.780   3.870
54532W        W25132   9.243  28.370   2.173
54533W        W25133  26.752  44.015  11.221
54534W        W25134  16.125  20.306  13.145
54535W        W25135   2.126   6.715  14.232
54536W        W25136  28.664  23.088   4.778
54537W        W25137  33.102  39.547  10.922
54538W        W25138  30.192  17.284   0.217
54539W        W25139  42.779   3.216  12.068
54540W        W25140   3.614  38.693   0.252
54541W        W25141   4.785  16.226  12.861
54542W        W25142  38.144  38.392   0.278
54543W        W25143   5.566   6.261   4.685
54544W        W25144  18.092  25.935  12.023
54545W        W25145  11.844  21.039  10.142
54546W        W25146   8.888  11.216   2.124
54547W        W25147  43.511   2.868  12.430
54548W        W25148   0.466  28.773  14.635
54549W        W25149  29.218  17.688   4.099
54550W        W25150  30.665  32.254  13.993
54551W        W25151   3.307   8.448  10.628
54552W        W25152  22.599   4.900  13.888
54553W        W25153  22.064   0.741  13.375
54554W        W25154  25.633  44.287   9.685
54555W        W25155  31.834   3.931   1.350
54556W        W25156  40.188  29.581  11.558
54557W        W25157  44.865  14.870   2.788
54558W        W25158   1.775  17.880  12.976
54559W        W25159  23.665  36.517   1.747
54560W        W25160  19.880  19.336   0.442
54561W        W25161  29.210   1.424   1.226
54562W        W25162   5.936  36.513  13.450
54563W        W25163  19.576  41.494   0.849
54564W        W25164  43.949  19.119  12.268
54565W        W25165  40.108  24.238  11.469
54566W        W25166  24.156  42.437   0.300
54567W        W25167   1.233  20.642   3.588
54568W        W25168   1.337  15.968  11.971
54569W        W25169   8.779  31.387   0.679
54570W        W25170  41.827   5.633  10.659
54571W        W25171  12.071   2.839  14.975
54572W        W25172  17.479  18.190  12.472
54573W        W25173  33.631  32.474  12.546
54574W        W25174   2.460   0.894  13.418
54575W        W25175  22.720   7.303  12.754
54576W        W25176   2.828  30.592   2.355
54577W        W25177   0.357   4.072   4.148
54578W        W25178  31.368  42.299  13.825
54579W        W25179   0.901   4.443  11.640
54580W        W25180  43.891  21.452  14.052
54581W        W25181   9.622  44.263   2.743
54582W        W25182  32.987  14.073  12.540
54583W        W25183   6.381  27.616   1.290
54584W        W25184  24.336   4.849  12.456
54585W        W25185  34.171  39.844   3.937
54586W        W25186  28.919  42.601   3.438
54587W        W25187  34.640  35.061   3.460
54588W        W25188   3.519  26.560  13.487
54589W        W25189   8.264  14.774  11.726
54590W        W25190  31.689  44.474   4.809
54591W        W25191  24.768  10.126  12.607
54592W        W25192   3.271  32.478  14.552
54593W        W25193  35.099  39.481  12.463
54594W        W25194  19.600  13.524   4.296
54595W        W25195   7.464  33.976  12.151
54596W        W25196  16.720  26.731   1.735
54597W        W25197  42.475  43.334  12.596
54598W        W25198  18.872  11.989   1.709
54599W        W25199   7.864  39.744   4.269
54600W        W25200  31.937  18.843   3.199
54601W        W25201  10.809  29.815  11.668
54602W        W25202  10.728   7.852  13.632
54603W        W25203   9.359  27.874   2.095
54604W        W25204  37.224  34.942   0.791
54605W        W25205  10.933  22.546  12.480
54606W        W25206  30.489   4.242   0.218
54607W        W25207  32.466  15.146   1.229
54608W        W25208   2.465  34.976  10.752
54609W        W25209  39.478  27.498   1.070
54610W        W25210   0.282  20.891  14.001
54611W        W25211  37.931  11.637  14.950
54612W        W25212  13.049  35.572   4.642
54613W        W25213  42.804  35.057  12.485
54614W        W25214  17.556  31.095   0.243
54615W        W25215  27.575  40.408   1.170
54616W        W25216  12.565   6.604  14.379
54617W        W25217  28.560  42.749  11.377
54618W        W25218  32.553  19.723   1.262
54619W        W25219  20.913  20.104  11.067
54620W        W25220  42.824   6.365   5.138
54621W        W25221  41.492   0.372   3.848
54622W        W25222  24.124  37.740   0.381
54623W        W25223  44.887  21.669  11.596
54624W        W25224  39.292  39.282  12.322
54625W        W25225  32.069  17.520  11.167
54626W        W25226  12.271  21.154   1.880
54627W        W25227  26.319  16.053   2.280
54628W        W25228  26.769  15.031   1.856
54629W        W25229  42.232  23.554   1.383
54630W        W25230  25.776  29.394  12.644
54631W        W25231  44.734  30.720  13.439
54632W        W25232  34.468   6.200   3.987
54633W        W25233  32.995  34.613  11.569
54634W        W25234  33.840  40.852   1.243
54635W        W25235  14.327  22.248  14.799
54636W        W25236  15.132   5.710  12.915
54637W        W25237  40.088  16.327  11.905
54638W        W25238   7.402   1.051  13.342
54639W        W25239  25.476  37.956   3.398
54640W        W25240  43.057  37.938   4.090
54641W        W25241  17.994  40.856   4.380
54642W        W25242  29.091  32.881  11.651
54643W        W25243   4.678  31.369  14.910
54644W        W25244  15.416   1.781   3.611
54645W        W25245  29.872  42.992   2.178
54646W        W25246  18.498  39.981  12.457
54647W        W25247  38.246  41.033   0.237
54648W        W25248   5.416  26.172   4.115
54649W        W25249   0.144  35.485  11.894
54650W        W25250  43.370   3.777  10.645
54651W        W25251  40.460  32.539  11.896
54652W        W25252  40.011   1.054   2.722
54653W        W25253  14.115  32.427   1.416
54654W        W25254   9.897   5.248  14.477
54655W        W25255  15.191  20.538  14.388
54656W        W25256  42.033  21.086   0.026
54657W        W25257  25.905  20.202   2.570
54658W        W25258   9.216  34.645   3.666
54659W        W25259   9.376  21.113   3.209
54660W        W25260  38.335  10.344  12.491
54661W        W25261  44.597  35.047  13.745
54662W        W25262  38.087  31.493  13.003
54663W        W25263  26.153  11.269   2.345
54664W        W25264  40.337  41.055  11.630
54665W        W25265  26.720  43.888  12.113
54666W        W25266  34.445  11.867  13.336
54667W        W25267  19.812  17.119   3.669
54668W        W25268  11.914  31.037   1.375
54669W        W25269  16.351  15.869  12.181
54670W        W25270  36.419  27.945   1.675
54671W        W25271  10.095  26.176  10.855
54672W        W25272  41.479  26.095  11.893
54673W        W25273  42.327   3.887  10.787
54674W        W25274  25.934  13.664  14.872
54675W        W25275  28.402  21.558   4.812
54676W        W25276  13.152  23.151   3.590
54677W        W25277   5.899  29.407  14.555
54678W        W25278  41.891  23.442   5.026
54679W        W25279   6.835  28.767  14.834
54680W        W25280  18.221  12.746  14.935
54681W        W25281  43.884  21.807   3.880
54682W        W25282  25.643  15.848  13.879
54683W        W25283  10.026  22.038   1.627
54684W        W25284  10.982  14.903  14.430
54685W        W25285   3.227  30.428  13.423
54686W        W25286  26.397  20.222   2.411
54687W        W25287  13.456   8.322  13.807
54688W        W25288   5.253  12.284  14.064
54689W        W25289  44.799  43.071   2.179
54690W        W25290   4.838  29.571   3.127
54691W        W25291  44.661   8.981  13.755
54692W        W25292  26.437  30.611  11.790
54693W        W25293  35.435  30.616  14.341
54694W        W25294   5.980   0.065   0.840
54695W        W25295  25.378  19.934   3.187
54696W        W25296  42.738  18.014  11.516
54697W        W25297  34.422  41.343  12.553
54698W        W25298  43.737   6.446  13.861
54699W        W25299  31.890  36.912   3.923
54700W        W25300  15.059  44.892   0.458
54701W        W25301   1.288  32.289   2.915
54702W        W25302  23.677  34.634   1.370
54703W        W25303   4.440  36.917   3.916
54704W        W25304  41.906  27.257   4.090
54705W        W25305  18.050  17.776  13.027
54706W        W25306  35.083  20.309  13.797
54707W        W25307   1.014  28.566  10.974
54708W        W25308  44.943  31.392  13.786
54709W        W25309  19.783   3.489  10.615
54710W        W25310   8.451  17.515   3.200
54711W        W25311   1.266  29.961  11.156
54712W        W25312   8.020  27.714  10.629
54713W        W25313  32.681  44.950  13.506
54714W        W25314  25.671  22.892  13.408
54715W        W25315  33.906  29.751   0.643
54716W        W25316  33.964   7.726   1.168
54717W        W25317  23.601   4.285  13.373
54718W        W25318  13.794  34.107   2.712
54719W        W25319  20.186  20.320   1.743
54720W        W25320  40.792   6.417   1.312
54721W        W25321  31.921  19.759   3.303
54722W        W25322  22.774  15.814   5.061
54723W        W25323  24.636  37.896   2.404
54724W        W25324   8.203  18.625   0.779
54725W        W25325  34.811  31.212   1.252
54726W        W25326  37.163  14.303  12.416
54727W        W25327   2.471  28.548  12.048
54728W        W25328  36.569  11.661  13.416
54729W        W25329  12.370  18.717   3.732
54730W        W25330  30.657  38.182   9.872
54731W        W25331  11.664  25.386   0.892
54732W        W25332  33.745   3.365   1.623
54733W        W25333  26.969   4.866   0.744
54734W        W25334  26.167  10.211   0.375
54735W        W25335   8.874  33.056  14.038
54736W        W25336  22.247  35.050   3.633
54737W        W25337  30.929  10.291  10.212
54738W        W25338  40.673  42.529   4.467
54739W        W25339  30.480  32.084  11.148
54740W        W25340   5.414   0.816   1.441
54741W        W25341  30.702  37.840  12.402
54742W        W25342  23.300   8.357  14.690
54743W        W25343   4.862  36.343   0.001
54744W        W25344  23.729   3.010  11.587
54745W        W25345  21.469   5.593  12.609
54746W        W25346  28.284  20.298  10.057
54747W        W25347   4.320  38.751  10.517
54748W        W25348  24.206  19.708   1.420
54749W        W25349   2.695  19.769  11.952
54750W        W25350  43.787  15.703  10.972
54751W        W25351  22.507  42.410  11.074
54752W        W25352  39.443  21.657   3.071
54753W        W25353  25.189  13.365  13.038
54754W        W25354  18.026  41.227   2.257
54755W        W25355  44.736   0.879   3.237
54756W        W25356  34.404  24.269  11.609
54757W        W25357  20.336   8.726  11.427
54758W        W25358  41.857  17.788   1.917
54759W        W25359  12.732  39.416   0.737
54760W        W25360   5.984   0.442   3.757
54761W        W25361  20.356  27.697  11.181
54762W        W25362  20.798  38.104   4.281
54763W        W25363   3.897  41.995   2.946
54764W        W25364  37.275  35.018   4.539
54765W        W25365  35.362  43.935  11.310
54766W        W25366   6.641   5.551  14.263
54767W        W25367   0.796  42.030  10.472
54768W        W25368   0.535   5.362   4.055
54769W        W25369  39.589  38.035  12.892
54770W        W25370  15.131  42.159   9.585
54771W        W25371  12.729  20.593   0.713
54772W        W25372  34.982   2.200   1.439
54773W        W25373  36.725  44.363   1.044
54774W        W25374  29.335  28.327   3.312
54775W        W25375   7.624  16.595  12.494
54776W        W25376  17.554  21.979   2.742
54777W        W25377  35.510  18.085  11.735
54778W        W25378  36.006  20.064  10.665
54779W        W25379  33.312  37.770   1.008
54780W        W25380  43.344  34.310   4.536
54781W        W25381  24.445  22.095   0.933
54782W        W25382  11.403  24.761   4.490
54783W        W25383  33.268  13.773   2.765
54784W        W25384  21.645  15.148   3.700
54785W        W25385   1.015   7.281   1.949
54786W        W25386  33.652  39.513   2.300
54787W        W25387  43.033  14.400  12.113
54788W        W25388  29.099  32.795   4.480
54789W        W25389  18.313  34.807   2.835
54790W        W25390  28.279  44.974   1.754
54791W        W25391  32.995   7.595  10.754
54792W        W25392  26.301  27.996   0.396
54793W        W25393  42.142  19.796  14.018
54794W        W25394  13.757   0.505   3.119
54795W        W25395  19.991  29.260   9.925
54796W        W25396  41.349  19.587   2.250
54797W        W25397  35.217   4.591   1.292
54798W        W25398  39.096  32.827  11.963
54799W        W25399  11.750  10.762  11.150
54800W        W25400   2.228  38.026   0.834
54801W        W25401  26.343  33.258  12.145
54802W        W25402  41.592  22.312  11.145
54803W        W25403   4.429  25.185  14.335
54804W        W25404  40.023  41.969  12.511
54805W        W25405   0.454   9.344   4.730
54806W        W25406  44.302   8.664   4.095
54807W        W25407  25.770  11.572   0.971
54808W        W25408   4.473   6.778  12.038
54809W        W25409  32.463  39.762  12.451
54810W        W25410  39.096   1.237   1.823
54811W        W25411  12.325  44.796  11.696
54812W        W25412   5.961  34.027  10.475
54813W        W25413  30.880  19.702   3.171
54814W        W25414  44.761  18.025  13.402
54815W        W25415  12.220  22.725   1.283
54816W        W25416  23.938  30.844  12.093
54817W        W25417  27.392   1.323  12.049
54818W        W25418   9.203  19.100   2.816
54819W        W25419  35.408   9.904  14.007
54820W        W25420   7.639  31.297  11.123
54821W        W25421  31.048  26.048  10.989
54822W        W25422  33.480  26.600  10.714
54823W        W25423   7.451  19.419  14.035
54824W        W25424  22.191  11.739   0.549
54825W        W25425  20.633  21.871  12.698
54826W        W25426  34.798  33.008   0.049
54827W        W25427  39.244  25.625   3.784
54828W        W25428  39.671  40.814   3.126
54829W        W25429  12.279   9.192  13.306
54830W        W25430  43.960   9.184   3.307
54831W        W25431   6.503  44.940   0.683
54832W        W25432  26.710   2.672  14.801
54833W        W25433   2.228  17.089  11.143
54834W        W25434  43.410  39.792   2.688
54835W        W25435  35.584  17.357   1.717
54836W        W25436  10.207  37.041   4.752
54837W        W25437   5.142  26.258   3.303
54838W        W25438  31.196   4.775  14.063
54839W        W25439  42.049  25.472  14.398
54840W        W25440  16.261  33.410   1.231
54841W        W25441  12.333  19.553   2.858
54842W        W25442  25.091  19.594  12.133
54843W        W25443  32.933  10.956  10.411
54844W        W25444  30.193  18.317   2.275
54845W        W25445  13.970  11.914   0.136
54846W        W25446  15.572  31.336  11.965
54847W        W25447  29.722  12.677   1.904
54848W        W25448  12.127  39.519  12.643
54849W        W25449   9.873  21.103  14.071
54850W        W25450  12.398  30.554  10.795
54851W        W25451  39.080  29.372  12.214
54852W        W25452  27.851  21.520  14.850
54853W        W25453  18.337   4.428   1.722
54854W        W25454  25.567   5.127   3.428
54855W        W25455  13.722  30.925  11.134
54856W        W25456  42.272   1.242  14.523
54857W        W25457  14.403   3.363  11.906
54858W        W25458  39.290  18.031   4.510
54859W        W25459  12.811  27.963   3.181
54860W        W25460  32.796  21.140   4.171
54861W        W25461  26.019  36.782   0.048
54862W        W25462   3.345   7.919  13.894
54863W        W25463  12.187  14.651   3.316
54864W        W25464   5.098  11.704  13.356
54865W        W25465  29.680   8.671   0.557
54866W        W25466  34.360  10.828  14.383
54867W        W25467  32.652  12.683  11.622
54868W        W25468  32.511  26.181  12.893
54869W        W25469  12.850  39.187  12.120
54870W        W25470  25.992  32.318  12.050
54871W        W25471   9.728  15.588   4.588
54872W        W25472   3.016   3.377  13.792
54873W        W25473  31.207  28.030   0.823
54874W        W25474  30.970  21.541   2.812
54875W        W25475  32.056   9.790  11.994
54876W        W25476   3.486  39.519  11.158
54877W        W25477   4.217  44.979  12.391
54878W        W25478  31.099   7.914  14.463
54879W        W25479  32.622  41.946   4.121
54880W        W25480  19.098  33.447  11.483
54881W        W25481   0.213  23.523  12.461
54882W        W25482  40.072  18.764  14.912
54883W        W25483  22.530   4.442  12.180
54884W        W25484   4.487  22.997  13.374
54885W        W25485   2.740  43.348  13.011
54886W        W25486  39.775  21.578   2.678
54887W        W25487  39.517   4.037  14.768
54888W        W25488  23.256  24.219  14.755
54889W        W25489  12.479  38.031   3.373
54890W        W25490  29.014  34.689  12.874
54891W        W25491  15.650  19.821   2.227
54892W        W25492  33.883   8.145   1.933
54893W        W25493  21.642  43.183   2.096
54894W        W25494  26.215  44.924   4.767
54895W        W25495  22.169  38.998  14.416
54896W        W25496   6.447  11.867  13.084
54897W        W25497  39.260  32.938   3.752
54898W        W25498  23.086  10.649   9.886
54899W        W25499   2.437   5.034   4.696
54900W        W25500  40.826   3.062   1.346
54901W        W25501   8.737   4.821  14.381
54902W        W25502   8.743  42.930   2.688
54903W        W25503   4.421  36.541   1.793
54904W        W25504  38.584  35.519  14.768
54905W        W25505  12.393   5.835   0.682
54906W        W25506  33.289   1.854   3.182
54907W        W25507  32.402  12.599  13.171
54908W        W25508   3.579  13.867   0.211
54909W        W25509  30.364   3.743   0.266
54910W        W25510  38.850  24.168   2.782
54911W        W25511  39.088  38.436   4.650
54912W        W25512   6.201  14.507  14.922
54913W        W25513  39.054  19.525   0.844
54914W        W25514  23.050   7.254  11.425
54915W        W25515  32.362   2.314  11.886
54916W        W25516  14.895  37.480  11.310
54917W        W25517  19.479  28.766   3.342
54918W        W25518  44.764  37.941  10.952
54919W        W25519   3.434   0.649  10.311
54920W        W25520  43.638  36.337  12.486
54921W        W25521  31.218  44.437   4.492
54922W        W25522  36.098  10.603   1.592
54923W        W25523  18.044  14.740  12.109
54924W        W25524   5.438  10.984   3.693
54925W        W25525  18.779  33.842   4.614
54926W        W25526  27.479  26.100  11.116
54927W        W25527  19.762  35.101  13.802
54928W        W25528  36.550  35.149  11.548
54929W        W25529  10.246  43.008   3.763
54930W        W25530   9.834   2.173   3.774
54931W        W25531   8.856  19.606   4.227
54932W        W25532  19.585  33.433   3.031
54933W        W25533   9.539   6.356   0.796
54934W        W25534  26.764  24.733  11.173
54935W        W25535  43.301  32.019  13.614
54936W        W25536  42.488  12.519   1.145
54937W        W25537  33.687  25.696  12.413
54938W        W25538  44.491  42.804   3.321
54939W        W25539   7.086   5.849   0.087
54940W        W25540   3.079  43.350   1.860
54941W        W25541  22.698  23.853  13.359
54942W        W25542  40.011  19.814   2.324
54943W        W25543  12.328  19.060  13.449
54944W        W25544  44.549  17.847  13.824
54945W        W25545  29.015  30.111   4.641
54946W        W25546   7.490   0.518  11.142
54947W        W25547  25.494  35.625   3.674
54948W        W25548  15.027  35.041   2.171
54949W        W25549  28.195  17.268   0.213
54950W        W25550  37.671   5.886  14.458
54951W        W25551   0.552  38.459   1.815
54952W        W25552   3.269  10.752   3.840
54953W        W25553  17.964  28.950  13.063
54954W        W25554  13.626  31.208  12.571
54955W        W25555  40.256  36.351   1.193
54956W        W25556  17.790  42.481   3.349
54957W        W25557   7.754  32.570   4.146
54958W        W25558  34.617  33.358   2.347
54959W        W25559  33.546   1.875  11.991
54960W        W25560  37.230  17.862   2.718
54961W        W25561  28.903  18.369  10.673
54962W        W25562   2.793   6.316   4.887
54963W        W25563  38.825  13.549   2.818
54964W        W25564  27.786   2.825   4.791
54965W        W25565  35.178  15.638  12.016
54966W        W25566  21.618  25.582  14.871
54967W        W25567  15.529  36.575  10.762
54968W        W25568  21.706   5.941  10.116
54969W        W25569   4.079  31.392  10.790
54970W        W25570  15.683   8.405  12.410
54971W        W25571  26.543  16.747   1.223
54972W        W25572  34.058   4.243   4.450
54973W        W25573   7.060  31.338  13.996
54974W        W25574  18.174  24.489  12.643
54975W        W25575  32.408  14.832   4.387
54976W        W25576  40.738  23.709  10.732
54977W        W25577  41.083  41.050  14.914
54978W        W25578  11.087  25.658   1.637
54979W        W25579  41.283  29.794  11.148
54980W        W25580   4.416  39.994  12.475
54981W        W25581  29.353   8.223  10.716
54982W        W25582  35.935  32.542   3.120
54983W        W25583  44.263  43.794   3.433
54984W        W25584  38.127  16.715  13.767
54985W        W25585  34.071  29.068   0.011
54986W        W25586  13.422   3.282  12.141
54987W        W25587  30.888  27.422  12.744
54988W        W25588  27.123  20.630  10.653
54989W        W25589  41.240  26.483  11.148
54990W        W25590  12.324  28.027   0.083
54991W        W25591  27.958  39.516  13.821
54992W        W25592  44.014   7.549   2.270
54993W        W25593   5.315  44.501   1.055
54994W        W25594  21.565  31.635   1.309
54995W        W25595  21.529   7.833   2.453
54996W        W25596  23.057  31.594  14.717
54997W        W25597   9.980   9.397   0.910
54998W        W25598  31.243  19.052   4.739
54999W        W25599   6.566  10.522  11.516
55000W        W25600   1.853   4.496   0.923
55001W        W25601   3.437  17.631  14.950
55002W        W25602  16.436   7.332  11.733
55003W        W25603  30.193  36.846  13.421
55004W        W25604  44.831  12.054  13.161
55005W        W25605  14.864  23.970   1.853
55006W        W25606  12.772   7.250   2.219
55007W        W25607  29.433   6.356   2.331
55008W        W25608  37.375   8.748  14.546
55009W        W25609   8.268   9.207  12.144
55010W        W25610  17.140  38.987   3.327
55011W        W25611  39.867  20.051  14.352
55012W        W25612  20.295   0.549  14.310
55013W        W25613  31.845   8.549  10.806
55014W        W25614  35.569  25.512  12.075
55015W        W25615  10.663  31.477  12.922
55016W        W25616   0.700  17.024  12.320
55017W        W25617  37.596  12.737   0.640
55018W        W25618  38.564  14.825  12.058
55019W        W25619   5.841  28.150   2.597
55020W        W25620  31.900  28.700   1.200
55021W        W25621  10.176   7.208   0.828
55022W        W25622  37.003  27.583   4.694
55023W        W25623   5.441   2.270   0.475
55024W        W25624  44.496  27.961   2.144
55025W        W25625  31.962  35.046  12.042
55026W        W25626  31.482  26.428  14.941
55027W        W25627  22.776  34.484   3.368
55028W        W25628  15.163  17.165   2.185
55029W        W25629  37.960  14.012   0.301
55030W        W25630  27.423  10.149  12.911
55031W        W25631   9.697  39.790   1.305
55032W        W25632   2.098  13.727   4.065
55033W        W25633  37.973   6.435  11.019
55034W        W25634  12.417  29.154   4.282
55035W        W25635  30.695  12.604  11.603
55036W        W25636  40.807   0.861  12.756
55037W        W25637  29.970  15.122  10.392
55038W        W25638  18.049  26.623  14.193
55039W        W25639  35.148  12.112   0.446
55040W        W25640  22.079  32.025  13.931
55041W        W25641  34.097  31.886   1.828
55042W        W25642  26.697  41.859   3.111
55043W        W25643  35.344  35.814  13.744
55044W        W25644   2.523  15.067   2.897
55045W        W25645  26.907  31.480   4.910
55046W        W25646  26.124  13.790  12.040
55047W        W25647  14.887  11.914   3.200
55048W        W25648  41.836  28.762   1.222
55049W        W25649  12.842  39.734  13.618
55050W        W25650   3.966  11.866   4.186
55051W        W25651  38.581   3.533   2.679
55052W        W25652  37.749  37.338  10.079
55053W        W25653   8.676  15.005  11.958
55054W        W25654  17.025   4.873   1.730
55055W        W25655   8.719   8.944  14.894
55056W        W25656  20.026  40.501   1.205
55057W        W25657  40.648  36.273  12.712
55058W        W25658  12.195  27.908  12.984
55059W        W25659  14.695  25.622   4.902
55060W        W25660  12.166   0.612   0.872
55061W        W25661  23.259  19.667   4.190
55062W        W25662  41.773  21.582  14.825
55063W        W25663  27.372  44.562   2.282
55064W        W25664  13.822  14.858   1.197
55065W        W25665  17.741   8.558   4.962
55066W        W25666  26.946  28.199  12.892
55067W        W25667  24.188  41.301   4.610
55068W        W25668  30.653   2.430  11.517
55069W        W25669  20.980  42.329   0.479
55070W        W25670  11.448  43.817   0.016
55071W        W25671  30.555  22.817   2.875
55072W        W25672   9.150  25.490  12.926
55073W        W25673  20.167  37.754   3.742
55074W        W25674  34.575  34.942   1.277
55075W        W25675  33.159  24.007   4.209
55076W        W25676  13.134  41.346   3.583
55077W        W25677  18.179   5.739   4.411
55078W        W25678  23.725  29.854  12.982
55079W        W25679   8.315  14.351  12.041
55080W        W25680  37.643  27.892  11.590
55081W        W25681   3.427  30.638  14.445
55082W        W25682  20.807  20.270   1.384
55083W        W25683   6.446  41.263  13.952
55084W        W25684   0.973   9.202   0.443
55085W        W25685  15.359  18.715   4.553
55086W        W25686   2.010  19.833  10.742
55087W        W25687  29.372  15.842  11.170
55088W        W25688  26.069  29.737  12.376
55089W        W25689  38.865  28.208  12.586
55090W        W25690  40.032  14.471  10.703
55091W        W25691  40.033  24.551  13.190
55092W        W25692   0.280   1.949  10.734
55093W        W25693  22.304  10.822   1.372
55094W        W25694  20.086  20.150   2.229
55095W        W25695   0.339  37.483  12.409
55096W        W25696   8.627  11.093  10.785
55097W        W25697  39.586  42.542  14.609
55098W        W25698  27.509  27.722  10.553
55099W        W25699  24.054  21.827   2.267
55100W        W25700  10.806  42.865   4.250
55101W        W25701  37.637  20.125  14.560
55102W        W25702  35.690  16.907  11.696
55103W        W25703  23.774   4.200   3.231
55104W        W25704   2.359  20.201  12.646
55105W        W25705  36.297  20.181   2.263
55106W        W25706  29.526  16.530  10.733
55107W        W25707   4.262  26.743   2.995
55108W        W25708   6.189  37.781  12.366
55109W        W25709   6.286  20.747  12.533
55110W        W25710   4.773  36.825  13.720
55111W        W25711  24.304   9.058   3.661
55112W        W25712  11.592  28.614  10.692
55113W        W25713  12.265   8.852  10.925
55114W        W25714  19.304  30.255  12.102
55115W        W25715  40.908   0.760  14.943
55116W        W25716  43.451  41.941  12.578
55117W        W25717  15.826  41.059   2.107
55118W        W25718  25.340  38.474   4.647
55119W        W25719   2.896  40.150   2.645
55120W        W25720  42.335   3.975   1.688
55121W        W25721   4.126  19.890   2.490
55122W        W25722  19.700  11.723   0.745
55123W        W25723   6.403  21.425  11.303
55124W        W25724  29.049  30.456  14.316
55125W        W25725  27.326   9.892   3.677
55126W        W25726  19.479  37.069  14.870
55127W        W25727  33.513  25.257   3.342
55128W        W25728  15.127  30.039  11.555
55129W        W25729  39.116  25.837  12.484
55130W        W25730   7.738  12.735  11.610
55131W        W25731  28.409  27.617  14.875
55132W        W25732   4.932  34.509  14.017
55133W        W25733  42.265  39.054  14.871
55134W        W25734   0.994  43.462   2.346
55135W        W25735  27.146  28.700  14.375
55136W        W25736   6.273  16.884   4.477
55137W        W25737  25.499  17.180   0.434
55138W        W25738   5.965  37.591  13.862
55139W        W25739  28.600  23.673  13.417
55140W        W25740  41.456  20.029  11.797
55141W        W25741  34.906  37.159   4.080
55142W        W25742  33.955  27.910  12.057
55143W        W25743  11.315  44.256   3.349
55144W        W25744  38.232  41.026  11.355
55145W        W25745  26.773  31.983   4.253
55146W        W25746   8.724  26.533  11.931
55147W        W25747  10.609  39.465   0.540
55148W        W25748  29.498  13.139   0.277
55149W        W25749  18.370  25.753   2.773
55150W        W25750  17.757  14.122   0.191
55151W        W25751  16.706  41.979   2.712
55152W        W25752   8.412  14.512   0.463
55153W        W25753  22.924  12.709   2.237
55154W        W25754  21.440  28.589   1.880
55155W        W25755  14.105  30.103   0.202
55156W        W25756   4.084  38.332  11.840
55157W        W25757  20.554  38.691  11.258
55158W        W25758  20.129   2.351   0.870
55159W        W25759  42.335  29.028  14.045
55160W        W25760  40.986  33.000   0.929
55161W        W25761   5.748   5.347  13.100
55162W        W25762  24.925   7.164   0.978
55163W        W25763  11.546   2.008   5.095
55164W        W25764  40.927  30.902  11.180
55165W        W25765  26.956   6.909  13.538
55166W        W25766  27.975  26.554   4.081
55167W        W25767  44.017  26.946  12.000
55168W        W25768   2.287  40.081   0.219
55169W        W25769  15.111  23.204   4.057
55170W        W25770  12.093  42.702   2.738
55171W        W25771  17.370  21.033   1.327
55172W        W25772  35.603  40.824  11.469
55173W        W25773  40.011   9.633   3.645
55174W        W25774   4.831  41.437  13.100
55175W        W25775   8.656  11.723   4.609
55176W        W25776  43.849  33.459   1.380
55177W        W25777  14.160  21.970   2.491
55178W        W25778   1.694   1.848   1.944
55179W        W25779  37.456  30.970  10.389
55180W        W25780   5.310  28.876   0.378
55181W        W25781  22.189  25.703  13.236
55182W        W25782  24.650  32.222  11.175
55183W        W25783  32.649  32.733  14.938
55184W        W25784  13.243  43.925  10.051
55185W        W25785  11.495  25.141   1.310
55186W        W25786  43.808  39.422  14.245
55187W        W25787  30.920  40.296   3.653
55188W        W25788  28.470  43.340   3.418
55189W        W25789   9.921  40.456  13.419
55190W        W25790  38.029  18.291   3.139
55191W        W25791  30.528  44.889   0.382
55192W        W25792   1.931  14.188  12.531
55193W        W25793  30.236   6.360  12.818
55194W        W25794   8.704   5.481  10.603
55195W        W25795  40.031  11.268  11.225
55196W        W25796   5.785  20.817   3.908
55197W        W25797  42.534  20.138  14.104
55198W        W25798  11.182  19.798  13.963
55199W        W25799  27.305  19.491   1.322
55200W        W25800  31.708  40.478   2.922
55201W        W25801  35.668   3.797  13.387
55202W        W25802  21.691  35.819   3.760
55203W        W25803  16.879   0.490   0.657
55204W        W25804  29.739  13.154   4.482
55205W        W25805   6.170  16.534  13.840
55206W        W25806  38.098  41.924  12.594
55207W        W25807  42.043  19.045  12.890
55208W        W25808  43.774   5.277   4.226
55209W        W25809  28.010  26.730  10.701
55210W        W25810   6.885  35.188   3.472
55211W        W25811  22.627  24.830  14.921
55212W        W25812  25.025  38.948   4.593
55213W        W25813  34.178  24.713   2.225
55214W        W25814  26.381   8.737  10.946
55215W        W25815  26.487   9.194  12.167
55216W        W25816   4.219   4.884   0.373
55217W        W25817   2.578   7.186   0.722
55218W        W25818   7.575   3.000   2.754
55219W        W25819   9.237  18.673  11.447
55220W        W25820   5.414   5.384   1.651
55221W        W25821  32.644   3.663   2.465
55222W        W25822   8.674  38.051   0.710
55223W        W25823  17.857  39.518  14.939
55224W        W25824   5.277   1.902   2.664
55225W        W25825  27.067   1.743  11.542
55226W        W25826  12.199  15.737  12.103
55227W        W25827   9.185  35.314   2.839
55228W        W25828   1.411  34.987   0.551
55229W        W25829  12.119   8.369   3.352
55230W        W25830   7.384  33.150   1.728
55231W        W25831  21.747  30.730  14.524
55232W        W25832  15.754  19.038  13.894
55233W        W25833   9.362  20.621   3.712
55234W        W25834  23.421  17.790  12.141
55235W        W25835  10.689  29.128   2.120
55236W        W25836  33.345  17.824   2.768
55237W        W25837   7.723  23.976  14.481
55238W        W25838  10.125   2.802   1.816
55239W        W25839  29.861  22.895   3.752
55240W        W25840  38.869  38.172   1.559
55241W        W25841  44.858  35.829   0.629
55242W        W25842  14.584   0.982  13.183
55243W        W25843  43.161  44.348  11.172
55244W        W25844  26.570  30.316  12.192
55245W        W25845   7.131   3.699   1.327
55246W        W25846   5.181  16.558  13.990
55247W        W25847  33.495  24.452  14.254
55248W        W25848  30.883  39.256  11.604
55249W        W25849   6.069  23.024  13.394
55250W        W25850  32.388  14.628  13.022
55251W        W25851  37.549  43.316  10.686
55252W        W25852  23.603  18.649  12.025
55253W        W25853   0.879  37.707   4.966
55254W        W25854  29.197  35.347  11.421
55255W        W25855  44.577  35.679   1.837
55256W        W25856  11.172  17.346  14.245
55257W        W25857  32.472   8.537   4.871
55258W        W25858  15.016  40.203  11.231
55259W        W25859  44.896  31.910  12.906
55260W        W25860  34.444  22.426  14.388
55261W        W25861  24.263  37.392   1.757
55262W        W25862  41.053   6.923  12.907
55263W        W25863  34.298  32.015   0.950
55264W        W25864   2.671  37.345   5.021
55265W        W25865  40.342  13.814  14.735
55266W        W25866  33.559  34.109  13.044
55267W        W25867  36.610  23.186   3.186
55268W        W25868  38.977  34.422  13.506
55269W        W25869   1.194  31.370   2.339
55270W        W25870  40.253  38.311   3.978
55271W        W25871  29.485  12.612  14.963
55272W        W25872  29.646  23.568   0.243
55273W        W25873  22.513  24.801  12.210
55274W        W25874  33.440   1.036   1.945
55275W        W25875  40.010  16.686  13.521
55276W        W25876  31.797   4.384  12.935
55277W        W25877  10.822  20.694  13.920
55278W        W25878  42.415  41.270   3.650
55279W        W25879  11.426  11.500  13.492
55280W        W25880  16.412  24.748   1.353
55281W        W25881  44.839  13.870   4.762
55282W        W25882  31.510  20.338   0.975
55283W        W25883  44.468  16.996  11.095
55284W        W25884  36.517  18.317  14.462
55285W        W25885  23.640  14.311  14.380
55286W        W25886   3.656  13.221  13.381
55287W        W25887   0.916  42.287   4.589
55288W        W25888   2.993   4.626   1.301
55289W        W25889   2.258  29.448   4.536
55290W        W25890  17.298   9.760   0.302
55291W        W25891  16.684  17.857   2.380
55292W        W25892  39.614  39.334   4.409
55293W        W25893   0.527  30.419  12.653
55294W        W25894  33.885   9.853  14.259
55295W        W25895  31.472  43.322  13.069
55296W        W25896  16.830   0.439   4.572
55297W        W25897  36.944  21.611   3.642
55298W        W25898   8.652  10.654   4.707
55299W        W25899   0.512  10.147   9.908
55300W        W25900  13.855  31.049   3.217
55301W        W25901  15.993  28.376  12.398
55302W        W25902  42.065   9.819   3.161
55303W        W25903  24.528   2.120   1.777
55304W        W25904   2.624   6.133  13.906
55305W        W25905  12.047  11.329   2.919
55306W        W25906  42.902  14.081   0.728
55307W        W25907  23.010  34.338  12.950
55308W        W25908  39.041  42.058   4.175
55309W        W25909  38.627  44.533   4.397
55310W        W25910  35.829  15.041   0.078
55311W        W25911  34.657  42.905  12.483
55312W        W25912  13.210  39.593   0.547
55313W        W25913   3.838  39.340   3.563
55314W        W25914  14.881  18.265  10.906
55315W        W25915  27.386  15.359   0.849
55316W        W25916  34.440  31.674  11.529
55317W        W25917  27.597  38.516   3.269
55318W        W25918  32.344  43.704   0.386
55319W        W25919  19.129   1.511  12.628
55320W        W25920  27.264  31.512  10.531
55321W        W25921  16.984  30.999   0.968
55322W        W25922  13.244   8.822  13.526
55323W        W25923  13.889  28.958  11.671
55324W        W25924  40.088  21.185   3.622
55325W        W25925  36.661   2.286   2.226
55326W        W25926  31.148  13.862   3.697
55327W        W25927  41.280  26.653  13.168
55328W        W25928  40.513  11.865  11.581
55329W        W25929  19.002  42.384   3.678
55330W        W25930  25.811  17.137   3.201
55331W        W25931  44.299  37.336   1.300
55332W        W25932  41.592  42.712  11.335
55333W        W25933  28.184  31.130   2.132
55334W        W25934  26.303   0.756  12.685
55335W        W25935  12.905  16.833   0.433
55336W        W25936  23.905  42.811   0.069
55337W        W25937  25.636  15.345   4.210
55338W        W25938   9.924  25.545   0.941
55339W        W25939  31.533  41.044   0.275
55340W        W25940  37.578  34.112  13.368
55341W        W25941  39.714   3.289   4.249
55342W        W25942  14.877   1.778   3.635
55343W        W25943  42.691  31.897   0.756
55344W        W25944  35.105  38.556  13.008
55345W        W25945  39.855  23.354   3.709
55346W        W25946  15.771  11.281  12.931
55347W        W25947  23.980  13.892  13.486
55348W        W25948  25.769  17.832   4.146
55349W        W25949  31.446   5.029   0.417
55350W        W25950  11.823  37.489   2.770
55351W        W25951  29.822  10.624  11.642
55352W        W25952  17.714  32.519   4.288
55353W        W25953  10.827   8.542  11.115
55354W        W25954  27.865  33.157   4.878
55355W        W25955   2.266  30.043   0.445
55356W        W25956  21.814  34.395   2.717
55357W        W25957   2.558  30.611  14.684
55358W        W25958  17.527   7.238   4.500
55359W        W25959  37.773  19.071   0.699
55360W        W25960  32.230  13.597  14.819
55361W        W25961  27.899   7.896   0.271
55362W        W25962   2.152  39.445  13.597
55363W        W25963  14.118   2.976  13.945
55364W        W25964   4.919   1.876   4.046
55365W        W25965   7.840  22.554   3.110
55366W        W25966  24.540  37.803   1.916
55367W        W25967  11.578   4.236  14.600
55368W        W25968  38.781  28.421  13.777
55369W        W25969  12.334  18.546  13.473
55370W        W25970  26.151   9.429  12.496
55371W        W25971  44.309  12.399  13.900
55372W        W25972  11.322  31.712  10.704
55373W        W25973  17.252   2.094   0.076
55374W        W25974  40.560   0.785  14.460
55375W        W25975  13.610  41.550  14.307
55376W        W25976  10.132  23.234   4.641
55377W        W25977  16.311   0.378   4.568
55378W        W25978  36.386  24.411   4.407
55379W        W25979  12.327  12.530   2.810
55380W        W25980  22.722  42.736   1.887
55381W        W25981   2.457  27.873   0.354
55382W        W25982   4.640  41.007  13.908
55383W        W25983  10.690  18.536   3.162
55384W        W25984  39.819  34.951  11.391
55385W        W25985  40.979   4.368  14.266
55386W        W25986  15.708   7.482   0.820
55387W        W25987   4.551  16.587   2.266
55388W        W25988  32.312  26.641   1.266
55389W        W25989  29.440   9.929   1.062
55390W        W25990  34.993  35.598  11.588
55391W        W25991   0.798  40.286  11.993
55392W        W25992   1.525   1.248  14.955
55393W        W25993  33.591  11.743  10.771
55394W        W25994  14.844  22.129  14.836
55395W        W25995  26.633  20.564  12.491
55396W        W25996  14.077  19.687   3.023
55397W        W25997   5.033  41.990   3.576
55398W        W25998  43.409  42.318  13.417
55399W        W25999  17.268   8.758  14.978
55400W        W26000  20.984  26.056  11.659
55401W        W26001   7.031   3.866   3.858
55402W        W26002  12.377  43.285   3.554
55403W        W26003  35.364   2.352  13.588
55404W        W26004  13.309   0.088  14.858
55405W        W26005  37.378  30.397   4.355
55406W        W26006   2.278   1.398  12.106
55407W        W26007  20.804  16.630  11.949
55408W        W26008  14.338  14.120  12.767
55409W        W26009  33.102  24.390   4.556
55410W        W26010  16.834   6.859  12.557
55411W        W26011  34.735  42.034  14.584
55412W        W26012  31.184  14.550  11.598
55413W        W26013  14.243  24.496  14.382
55414W        W26014  33.777  40.533  14.303
55415W        W26015  44.659  35.282  11.806
55416W        W26016  44.227  24.757   4.112
55417W        W26017  24.579  21.364   0.429
55418W        W26018  14.377  26.055  11.495
55419W        W26019  13.651  15.737   4.876
55420W        W26020   0.284  33.280   0.569
55421W        W26021   0.764   0.960  13.046
55422W        W26022  44.270   7.101  11.673
55423W        W26023   0.207   8.659  11.099
55424W        W26024  34.877  10.746   0.280
55425W        W26025  14.319   0.031   2.804
55426W        W26026   4.803  11.186   1.873
55427W        W26027  15.708   5.105  10.116
55428W        W26028  40.235   4.592   3.770
55429W        W26029  17.653  30.543   3.582
55430W        W26030  14.318   7.080  11.428
55431W        W26031  29.404  19.097  13.019
55432W        W26032  22.243  32.328   1.255
55433W        W26033   8.061  33.823   1.692
55434W        W26034  17.265  19.978   4.570
55435W        W26035   0.727   7.272   3.406
55436W        W26036   1.900  18.346  13.189
55437W        W26037  33.893  19.585  10.641
55438W        W26038  30.455  28.692  14.998
55439W        W26039  14.219   5.729   2.667
55440W        W26040  24.693  10.242   4.494
55441W        W26041  20.245   1.066   0.549
55442W        W26042  19.092   3.438  12.825
55443W        W26043   9.390  25.006  14.778
55444W        W26044  15.991  32.124   4.525
55445W        W26045  16.167  30.877   0.756
55446W        W26046  14.353  24.017  13.481
55447W        W26047  11.247   1.025   1.275
55448W        W26048  15.791   8.385  14.226
55449W        W26049   6.996  39.011  13.981
55450W        W26050  15.288  27.537  10.791
55451W        W26051  22.688  17.796   2.576
55452W        W26052   2.889  22.478  11.627
55453W        W26053   9.117   0.686   3.194
55454W        W26054  41.291   0.618   4.271
55455W        W26055  25.930  16.359  13.831
55456W        W26056  28.252   3.540   1.742
55457W        W26057  11.842  28.120   0.953
55458W        W26058  26.327  34.910  12.645
55459W        W26059  12.231  26.033   2.327
55460W        W26060  34.148  18.866   4.544
55461W        W26061  23.095  20.184  14.971
55462W        W26062  11.848  10.871   2.980
55463W        W26063   0.946  34.442   4.545
55464W        W26064  24.414  16.608  11.930
55465W        W26065   6.433  24.297  12.530
55466W        W26066   5.944  24.733  11.672
55467W        W26067  32.623  24.518  14.342
55468W        W26068  20.049   4.512   2.191
55469W        W26069  17.749  21.529   0.199
55470W        W26070  26.465   7.846  11.045
55471W        W26071  36.837   6.794  13.149
55472W        W26072  12.618  12.066   0.240
55473W        W26073   4.992  21.528  12.891
55474W        W26074   2.236  36.351  11.559
55475W        W26075  13.590  31.144  10.696
55476W        W26076  18.263  20.080   0.744
55477W        W26077  26.969  30.621  11.014
55478W        W26078  29.779  11.768  14.382
55479W        W26079   7.343  39.004   0.113
55480W        W26080  28.985   0.779   0.041
55481W        W26081  33.879  16.621   2.826
55482W        W26082  28.045  30.959  14.458
55483W        W26083  13.270  36.747   3.042
55484W        W26084  10.909  21.751   1.352
55485W        W26085  22.106   2.884   1.753
55486W        W26086  21.152  19.645  11.087
55487W        W26087  20.005  24.981  13.604
55488W        W26088  33.048  43.063  13.007
55489W        W26089  14.121  12.443  10.341
55490W        W26090  20.555   0.777   3.626
55491W        W26091  25.163  29.492   2.619
55492W        W26092   7.574   4.801  13.097
55493W        W26093   3.351  39.509  14.316
55494W        W26094  12.721   8.389   1.784
55495W        W26095  28.969   8.792  11.320
55496W        W26096  14.150  11.738  11.070
55497W        W26097  28.261  41.238  10.114
55498W        W26098   6.182  30.276  12.951
55499W        W26099  37.969  38.582  12.094
55500W        W26100   6.539  21.310   4.163
55501W        W26101   3.718  42.599   2.292
55502W        W26102  36.391   5.801   1.652
55503W        W26103  44.958  15.584   2.299
55504W        W26104  39.491  18.878  14.747
55505W        W26105   3.857   2.275   2.502
55506W        W26106  11.895  25.244   4.047
55507W        W26107   7.484   5.913   3.645
55508W        W26108   1.480  16.177   0.786
55509W        W26109  17.073  24.003  12.466
55510W        W26110  14.812  26.917   1.513
55511W        W26111  21.015  31.478  11.162
55512W        W26112  11.592  38.128  11.004
55513W        W26113   8.836  34.839  13.395
55514W        W26114  13.760   6.227   2.858
55515W        W26115  34.224   6.406   0.887
55516W        W26116  23.695  37.544  11.240
55517W        W26117  31.616  34.859   2.171
55518W        W26118  43.478  25.111  10.733
55519W        W26119  37.320  32.268   0.954
55520W        W26120  13.285  38.832   4.913
55521W        W26121  25.960  17.330   0.245
55522W        W26122   6.317   1.578  11.260
55523W        W26123   9.068  37.983   1.019
55524W        W26124   1.352  15.127  14.259
55525W        W26125  27.484  32.196   1.832
55526W        W26126  37.542   4.284  13.354
55527W        W26127  41.286  15.534  11.198
55528W        W26128   8.003   5.319   2.229
55529W        W26129   7.373   5.704  11.201
55530W        W26130  43.966  39.771   1.045
55531W        W26131  21.939  27.700  11.205
55532W        W26132  42.858  24.159   1.483
55533W        W26133  27.975   9.410  10.473
55534W        W26134   8.742  32.940  12.386
55535W        W26135  25.351  37.125  11.935
55536W        W26136  27.575  21.312   4.025
55537W        W26137  30.833  34.783   1.438
55538W        W26138  29.073  18.709   4.346
55539W        W26139  16.853  15.774  12.977
55540W        W26140  11.889  16.100  12.525
55541W        W26141  22.590  41.436   4.564
55542W        W26142  30.220   1.503   1.462
55543W        W26143  23.166   8.579  10.873
55544W        W26144   8.052  43.324   0.711
55545W        W26145  14.393   1.039  14.816
55546W        W26146   8.699  20.708  12.388
55547W        W26147   2.395  10.448  10.115
55548W        W26148  29.071  14.170   3.163
55549W        W26149  31.437   9.909   4.087
55550W        W26150  16.062  41.461  11.585
55551W        W26151  31.856   6.206  11.135
55552W        W26152  25.404  34.135   2.472
55553W        W26153   4.068  29.598   4.789
55554W        W26154  10.099   6.298   4.149
55555W        W26155   2.021  42.884   1.261
55556W        W26156   3.502  10.422  14.873
55557W        W26157  34.222  26.476   1.359
55558W        W26158  44.786  40.566   4.206
55559W        W26159  26.050  35.537   2.343
55560W        W26160  11.595   9.855  14.210
55561W        W26161  28.707  40.551  14.577
55562W        W26162  16.111   9.367  12.363
55563W        W26163  25.115   5.896   0.499
55564W        W26164  32.188  26.675  12.469
55565W        W26165  29.385   6.828   3.195
55566W        W26166  37.828  24.692  10.886
55567W        W26167   6.898  13.627   3.265
55568W        W26168  41.396  19.740   1.331
55569W        W26169  27.428   0.774  10.826
55570W        W26170   5.581  43.063   2.383
55571W        W26171  18.219  21.042  12.995
55572W        W26172  14.800  26.158   0.777
55573W        W26173   4.238  35.974  12.926
55574W        W26174  22.295  21.962  10.762
55575W        W26175   3.712  21.278  14.305
55576W        W26176  43.799   3.241   2.776
55577W        W26177  37.103  10.539  13.814
55578W        W26178  17.670  15.323  12.991
55579W        W26179   5.777  28.625   0.438
55580W        W26180  29.375  16.679   0.859
55581W        W26181   0.422  15.122   4.761
55582W        W26182  38.393  40.961  11.840
55583W        W26183  41.804  29.097  14.023
55584W        W26184  40.445  24.122  10.832
55585W        W26185  34.749  43.837  12.835
55586W        W26186   5.318  14.259  14.724
55587W        W26187  43.462  22.670   4.294
55588W        W26188  40.859  44.388   1.246
55589W        W26189  36.235  37.036   3.776
55590W        W26190   7.449  14.549  13.318
55591W        W26191  31.866  34.220   2.797
55592W        W26192  20.090   8.861  10.178
55593W        W26193  20.489   8.082   2.216
55594W        W26194   1.261  37.437  14.461
55595W        W26195  44.018  35.032   4.944
55596W        W26196   3.528  12.911  12.977
55597W        W26197   0.405  38.570   4.557
55598W        W26198   4.119   6.331  13.035
55599W        W26199   8.890  34.101   0.728
55600W        W26200  26.745  11.206  10.376
55601W        W26201   5.968  26.487   1.332
55602W        W26202   2.829  22.521   2.786
55603W        W26203  34.524  42.108  13.712
55604W        W26204   7.797   9.580   1.386
55605W        W26205   1.772  21.456  13.140
55606W        W26206  34.983   0.940  12.540
55607W        W26207  30.472  30.191   2.806
55608W        W26208  44.056  35.436   0.920
55609W        W26209  29.320   1.046  10.943
55610W        W26210  43.082  20.244   3.605
55611W        W26211  33.351  10.094   4.878
55612W        W26212  10.312  16.118  11.175
55613W        W26213  28.175   7.723   2.647
55614W        W26214  14.151  13.156   2.388
55615W        W26215  16.752  31.496   0.748
55616W        W26216  40.533   9.433  10.488
55617W        W26217  38.571  12.755   1.185
55618W        W26218  31.556  22.719   1.510
55619W        W26219  13.461  19.139  10.531
55620W        W26220  11.476  19.355  11.735
55621W        W26221  18.026  36.173   0.024
55622W        W26222  10.625  17.316   1.935
55623W        W26223  39.944  28.700  14.401
55624W        W26224  39.926   1.786  13.986
55625W        W26225   6.997  24.194  13.812
55626W        W26226   6.594  27.961   3.043
55627W        W26227   4.668  30.486   4.062
55628W        W26228  41.550  36.852  14.492
55629W        W26229  36.490  41.336  14.949
55630W        W26230  26.975  39.580  12.866
55631W        W26231  30.436  44.717  13.133
55632W        W26232   9.654  11.348  14.906
55633W        W26233  33.736  17.638  14.187
55634W        W26234  24.714  40.809  12.958
55635W        W26235  44.755  19.586  10.668
55636W        W26236   4.971   9.784  14.455
55637W        W26237   5.047  33.476   0.458
55638W        W26238  26.738  36.645   4.137
55639W        W26239  24.931   9.593   0.260
55640W        W26240  25.220  32.662   0.878
55641W        W26241  35.117   1.260  11.082
55642W        W26242   8.345  31.452   0.018
55643W        W26243  15.529  38.537   1.421
55644W        W26244  23.976  44.331   0.776
55645W        W26245  37.702  22.805  14.036
55646W        W26246   0.224  29.153  14.326
55647W        W26247   1.240  40.406   1.070
55648W        W26248  22.482  16.152  12.170
55649W        W26249  22.702  43.813   2.778
55650W        W26250  18.560  13.865  11.231
55651W        W26251  31.045  31.456   3.902
55652W        W26252   5.559  15.341  11.057
55653W        W26253  17.028   3.576   4.231
55654W        W26254  18.504  14.634  13.215
55655W        W26255  25.104  32.910   4.294
55656W        W26256  13.203  15.177  14.998
55657W        W26257  43.408  23.604   3.635
55658W        W26258  12.558   1.539  11.598
55659W        W26259  43.792  14.087  10.763
55660W        W26260  20.734  18.943   2.271
55661W        W26261  35.404  16.233   0.376
55662W        W26262   1.645   9.238  13.429
55663W        W26263   7.630  11.755  11.993
55664W        W26264   5.231  10.985  10.269
55665W        W26265  23.405   3.661  14.382
55666W        W26266  27.440  38.532   4.844
55667W        W26267  17.226  16.884   3.560
55668W        W26268  32.974  24.791   2.726
55669W        W26269  29.752   9.305  13.776
55670W        W26270  15.335  22.768   2.374
55671W        W26271  31.676  36.107  13.743
55672W        W26272   0.878   4.690   3.578
55673W        W26273  25.225  23.106  14.031
55674W        W26274   5.741  31.204   2.216
55675W        W26275  11.104  10.460   4.200
55676W        W26276  20.050   8.551   1.459
55677W        W26277  43.292   3.197   2.175
55678W        W26278  19.924  32.093   2.758
55679W        W26279   4.466  30.911   4.808
55680W        W26280   1.050  35.914  11.044
55681W        W26281   8.158   5.915   1.822
55682W        W26282  34.324  41.522   3.900
55683W        W26283  12.203   1.424   2.835
55684W        W26284   7.148  33.976   4.197
55685W        W26285  29.777   1.793   4.542
55686W        W26286  19.202  19.970   2.326
55687W        W26287  35.468  39.624  13.029
55688W        W26288  40.009   8.140   0.270
55689W        W26289  30.862  33.260  10.372
55690W        W26290  28.948  13.253   2.879
55691W        W26291   0.964  25.895   0.983
55692W        W26292  25.883   0.427  14.983
55693W        W26293   2.651  17.719  13.038
55694W        W26294  39.352   9.696  12.952
55695W        W26295  43.374  37.353  11.566
55696W        W26296  16.034  11.927  13.794
55697W        W26297  19.567  20.741   4.246
55698W        W26298   2.410  26.154  11.198
55699W        W26299   2.414  11.157   1.691
55700W        W26300   2.036   1.363   4.544
55701W        W26301  16.568  25.045  12.470
55702W        W26302   4.752   3.322   1.813
55703W        W26303  31.866  13.598  10.698
55704W        W26304  33.036   7.180   3.403
55705W        W26305   8.462  27.717  11.528
55706W        W26306  42.184  13.984  14.473
55707W        W26307   9.307   4.670   4.235
55708W        W26308  10.812  35.899  13.211
55709W        W26309  32.349  39.249   4.164
55710W        W26310  41.850  29.713   4.647
55711W        W26311  19.994  43.794  12.956
55712W        W26312   1.769   8.947   3.751
55713W        W26313   9.829  11.691   3.826
55714W        W26314  32.175  10.706   2.872
55715W        W26315  33.155  24.167   1.747
55716W        W26316  39.153  23.621  14.797
55717W        W26317  18.676  32.217   4.422
55718W        W26318  42.320  33.900   3.172
55719W        W26319  42.016  44.368   3.750
55720W        W26320  18.140  35.532  10.824
55721W        W26321  31.912  12.615  13.363
55722W        W26322  39.438  37.313   0.015
55723W        W26323  26.374  13.800  11.554
55724W        W26324   8.891  14.116  14.952
55725W        W26325  12.128  19.757   2.440
55726W        W26326  19.692  15.209   2.393
55727W        W26327  22.807  20.817  14.299
55728W        W26328   8.732   5.387  11.657
55729W        W26329  31.620   8.285  11.198
55730W        W26330  16.910  24.590   1.347
55731W        W26331  14.084  43.538  11.913
55732W        W26332  21.592  17.884   4.641
55733W        W26333  24.381  15.692  11.206
55734W        W26334  38.134  16.088  14.556
55735W        W26335   3.033   0.781  14.071
55736W        W26336   0.939  10.644   4.434
55737W        W26337  11.412  14.151  13.562
55738W        W26338  29.688  38.390  13.888
55739W        W26339  29.387   0.598   9.931
55740W        W26340  19.795  10.307  11.119
55741W        W26341  19.537  33.994  10.532
55742W        W26342   4.713  29.038  11.487
55743W        W26343  36.444  15.060   4.635
55744W        W26344  38.865  14.909   1.218
55745W        W26345  23.943  36.290   1.371
55746W        W26346  13.568  38.642   2.319
55747W        W26347  19.721  27.505   2.321
55748W        W26348  13.208  28.398   0.460
55749W        W26349  14.931   7.073  11.610
55750W        W26350  18.773  31.551  11.742
55751W        W26351  10.713  42.395   3.371
55752W        W26352  16.196  18.006   4.921
55753W        W26353  16.979  35.886   4.995
55754W        W26354  36.423  30.485  12.578
55755W        W26355  19.608   9.314   4.399
55756W        W26356  31.911  19.760  10.794
55757W        W26357  16.151   9.706  12.752
55758W        W26358   1.230  44.051  13.828
55759W        W26359  21.892   9.630  10.291
55760W        W26360  37.493  37.629   4.110
55761W        W26361  16.255  17.336   3.336
55762W        W26362   7.678  14.201  11.277
55763W        W26363  41.454   1.699   4.342
55764W        W26364  11.851  40.083  12.909
55765W        W26365  21.740   4.855   2.292
55766W        W26366  17.699   2.965   1.801
55767W        W26367  30.780  42.909   1.055
55768W        W26368  19.250  40.828   2.604
55769W        W26369   2.547  31.723   4.073
55770W        W26370  17.038  38.549  14.667
55771W        W26371  35.247  15.104   0.902
55772W        W26372  39.060  42.830   1.636
55773W        W26373  11.105  42.747   5.377
55774W        W26374  42.697  36.023   4.524
55775W        W26375   3.807  18.672   3.247
55776W        W26376  30.214   1.734   4.804
55777W        W26377  40.556  22.117   1.847
55778W        W26378  34.573  18.427  13.379
55779W        W26379  37.451  22.056  11.264
55780W        W26380  18.527   9.390  11.905
55781W        W26381  24.804   9.839  14.824
55782W        W26382   5.831   2.235   1.880
55783W        W26383   9.461  38.888   1.854
55784W        W26384  21.503  42.745   1.475
55785W        W26385  44.556   1.434  13.022
55786W        W26386  10.428  22.147  11.141
55787W        W26387  20.493  34.105   1.245
55788W        W26388  12.048  35.455  14.389
55789W        W26389  37.114  14.702  11.156
55790W        W26390  32.928   0.753   4.646
55791W        W26391  30.650  40.981   3.231
55792W        W26392  44.924  30.105   0.749
55793W        W26393  39.595  39.055  13.537
55794W        W26394  12.643  26.872  14.911
55795W        W26395  31.523  14.721   4.574
55796W        W26396  21.772   0.978  13.013
55797W        W26397   4.274   7.936  11.640
55798W        W26398  22.335  26.466   4.594
55799W        W26399  38.338  10.662   0.289
55800W        W26400  35.883  39.850   0.908
55801W        W26401  17.275   7.921  10.566
55802W        W26402   5.694  39.980  10.741
55803W        W26403  38.039  35.608  13.022
55804W        W26404  28.899  34.002  11.320
55805W        W26405   7.636  41.577   1.259
55806W        W26406  32.641  36.467  12.563
55807W        W26407   8.605   2.415  13.525
55808W        W26408  23.820  44.160  12.608
55809W        W26409  44.025  33.281  13.321
55810W        W26410  34.179  17.219   0.309
55811W        W26411   1.070  17.944   1.812
55812W        W26412  36.220   3.911  11.772
55813W        W26413  26.063  27.212   2.228
55814W        W26414  12.330  26.258  10.775
55815W        W26415   5.668  32.989  12.549
55816W        W26416   8.870   2.300  13.020
55817W        W26417   9.658  13.819  15.000
55818W        W26418  20.493  11.685  11.570
55819W        W26419  10.349  42.203   2.370
55820W        W26420  39.451  43.905   2.399
55821W        W26421  12.199   1.915   1.460
55822W        W26422  39.816   3.659   0.699
55823W        W26423  26.664  11.274   3.262
55824W        W26424  27.359  37.606  13.686
55825W        W26425   1.470  15.532   1.372
55826W        W26426  41.917   5.625   1.173
55827W        W26427  38.614  43.402   1.410
55828W        W26428  28.067  18.161  10.325
55829W        W26429  20.063  14.878   4.745
55830W        W26430  29.114  33.880  10.864
55831W        W26431  35.998  12.009   0.809
55832W        W26432  31.615  24.380   4.186
55833W        W26433  28.569   5.386  14.677
55834W        W26434  12.189  33.419   4.585
55835W        W26435  24.885   3.340   3.811
55836W        W26436  20.344  16.843   0.746
55837W        W26437  26.222   0.897  13.701
55838W        W26438   1.209  18.247  10.522
55839W        W26439   0.578  14.648  11.253
55840W        W26440  23.857   2.759   0.234
55841W        W26441  11.662  24.585   4.041
55842W        W26442  12.248  14.652  12.976
55843W        W26443  31.569   8.674  14.321
55844W        W26444  37.365   8.871   0.050
55845W        W26445  27.541  30.962  14.244
55846W        W26446  44.710  15.837   0.980
55847W        W26447  15.319  37.272  11.530
55848W        W26448  20.173  14.278  14.475
55849W        W26449   6.640  29.944  10.428
55850W        W26450  24.207  34.086  11.140
55851W        W26451   9.682   4.953  10.400
55852W        W26452  31.507  25.271   1.403
55853W        W26453   1.036  11.577   3.092
55854W        W26454  42.484  21.567  12.925
55855W        W26455  12.649   6.861   2.788
55856W        W26456  25.709   4.255   2.399
55857W        W26457  18.091   2.280   0.213
55858W        W26458  15.620   3.227  12.912
55859W        W26459  28.130  37.288   1.791
55860W        W26460  22.123  24.926   0.264
55861W        W26461  29.703  38.762  12.921
55862W        W26462   9.804  31.932   2.510
55863W        W26463  21.464  26.623  14.912
55864W        W26464   8.471  34.830   4.085
55865W        W26465  31.977  11.818  12.048
55866W        W26466  24.233  13.129   3.865
55867W        W26467  19.139  31.078   0.794
55868W        W26468  16.279  24.482  12.609
55869W        W26469   4.344  39.374   4.279
55870W        W26470  30.575  22.836   4.619
55871W        W26471  11.492   3.422   0.448
55872W        W26472  40.473  21.646   2.151
55873W        W26473  19.197  40.738   1.111
55874W        W26474  44.500  22.183   3.181
55875W        W26475  25.729   7.183   4.842
55876W        W26476  21.175  44.043  12.015
55877W        W26477  21.979  38.975   4.214
55878W        W26478  11.833   5.805   1.745
55879W        W26479  31.042  38.438   4.237
55880W        W26480  23.520  12.939  12.981
55881W        W26481  35.661   9.805  14.921
55882W        W26482  24.154  30.145  11.456
55883W        W26483  15.386   6.674   4.245
55884W        W26484  38.121  39.496   3.664
55885W        W26485  27.838  16.453  13.894
55886W        W26486   9.697  25.759   4.711
55887W        W26487   3.403   5.385   4.584
55888W        W26488  26.817   5.864  11.732
55889W        W26489  42.932  21.794  12.929
55890W        W26490   8.881  13.176  12.206
55891W        W26491   5.379   5.341   4.682
55892W        W26492  40.787   3.806   0.851
55893W        W26493  30.382  18.220  13.670
55894W        W26494   8.326  31.045   2.815
55895W        W26495  35.596  29.416   2.304
55896W        W26496  13.392  30.629  11.367
55897W        W26497   4.415  21.716   4.046
55898W        W26498   0.249   2.300  11.485
55899W        W26499   5.211  24.981   0.850
55900W        W26500  18.524  23.628  13.478
55901W        W26501  29.054  23.575   1.559
55902W        W26502  22.624  31.393  10.926
55903W        W26503  27.043   8.440   3.397
55904W        W26504  39.011  39.443   0.387
55905W        W26505  27.073   1.702   0.954
55906W        W26506  11.049  24.353  11.201
55907W        W26507  22.110  21.817  14.080
55908W        W26508  36.862  19.149  10.647
55909W        W26509  12.730  41.982  10.212
55910W        W26510  25.808  33.795  10.282
55911W        W26511   8.398  37.540  12.410
55912W        W26512  19.245  35.942   0.228
55913W        W26513  12.541  23.586  12.519
55914W        W26514  34.645   1.287  11.691
55915W        W26515  18.978  15.651  13.854
55916W        W26516  17.622  13.039  11.187
55917W        W26517  38.594   3.798   1.013
55918W        W26518  20.093   3.963   1.974
55919W        W26519  10.667  34.986   2.424
55920W        W26520  36.840   2.812   1.903
55921W        W26521   2.846   6.247  12.239
55922W        W26522  29.422   9.777   3.645
55923W        W26523  40.267  32.740   4.135
55924W        W26524   5.853  21.665  12.541
55925W        W26525  39.616  32.581   2.672
55926W        W26526  13.140   6.016   4.959
55927W        W26527   4.269  28.766   2.704
55928W        W26528  34.964  21.977  12.898
55929W        W26529  34.975   8.446   4.625
55930W        W26530  21.248   5.936  14.532
55931W        W26531  19.764  32.934  14.887
55932W        W26532  11.811  25.964  13.846
55933W        W26533  12.379  27.481   1.193
55934W        W26534  37.509  43.277   4.120
55935W        W26535  29.198  27.192   0.981
55936W        W26536  23.105  17.733  13.071
55937W        W26537  15.620  10.791   3.009
55938W        W26538   7.389  37.649   1.852
55939W        W26539  39.454   3.285  12.092
55940W        W26540  40.889   5.341  11.150
55941W        W26541  38.405  25.029   0.603
55942W        W26542   4.424  24.873  13.511
55943W        W26543  25.059  37.919   1.810
55944W        W26544  16.051  37.536   2.278
55945W        W26545  39.338   7.801  13.573
55946W        W26546  21.120  41.989  13.640
55947W        W26547   0.704  28.037   1.388
55948W        W26548  21.540  36.630   1.241
55949W        W26549  22.551  24.724  13.926
55950W        W26550   9.189  38.654   3.982
55951W        W26551  21.273   3.712   2.293
55952W        W26552  11.356  43.492  11.007
55953W        W26553  18.107  20.336  14.323
55954W        W26554  12.652   9.962  14.926
55955W        W26555   5.388  38.060   3.395
55956W        W26556  41.399  38.417  14.890
55957W        W26557  16.107  12.531  10.271
55958W        W26558   4.060  23.283   3.407
55959W        W26559   9.750  31.654  13.782
55960W        W26560   9.150  18.252   3.243
55961W        W26561  25.578   3.136   3.251
55962W        W26562  11.791  11.263   3.367
55963W        W26563   0.277  26.782   0.378
55964W        W26564  14.793  15.596  12.650
55965W        W26565  20.657   0.265  11.683
55966W        W26566  17.933  16.784  11.520
55967W        W26567  25.782  19.727  11.045
55968W        W26568  27.769  26.108  12.408
55969W        W26569   1.308  38.143  13.411
55970W        W26570  24.476  10.701   2.423
55971W        W26571   1.246   1.980   0.427
55972W        W26572   1.226  38.477   2.401
55973W        W26573  32.655   1.462  10.719
55974W        W26574  11.809  10.265   3.657
55975W        W26575  29.157   7.072  12.048
55976W        W26576  42.798  30.086  12.511
55977W        W26577   0.317  44.655  12.073
55978W        W26578   6.295  33.959  12.228
55979W        W26579   8.353  25.521  13.541
55980W        W26580   8.338  37.694  11.751
55981W        W26581  13.695  18.170  14.465
55982W        W26582  10.577  25.960   4.876
55983W        W26583   2.323  18.693   2.950
55984W        W26584  10.656  41.023  13.425
55985W        W26585  13.198  44.952  12.178
55986W        W26586  10.478   3.958   1.964
55987W        W26587  32.047   1.439   1.800
55988W        W26588  15.050  44.344  14.045
55989W        W26589  30.414  21.743  12.547
55990W        W26590   0.478  27.942  14.881
55991W        W26591   2.796  38.074  10.661
55992W        W26592   4.258  21.476   3.611
55993W        W26593  44.148   1.302   2.568
55994W        W26594  38.486  29.445   0.799
55995W        W26595  36.450   0.793  11.448
55996W        W26596  19.664  33.550  10.274
55997W        W26597  10.228  32.616  11.636
55998W        W26598   1.137  32.756  12.112
55999W        W26599  42.282   1.112   2.019
56000W        W26600  28.517  20.835  11.630
56001W        W26601   2.792  44.559   2.308
56002W        W26602  30.110  29.113   4.143
56003W        W26603  15.755  27.790  13.806
56004W        W26604  22.386  29.625   4.687
56005W        W26605  26.477  27.193   0.039
56006W        W26606  12.338   7.293  13.350
56007W        W26607  44.569  37.138  13.519
56008W        W26608  37.187   0.894  10.694
56009W        W26609   3.458  39.088   3.236
56010W        W26610   9.743  14.617  13.084
56011W        W26611  40.598   2.912  12.449
56012W        W26612  31.671  21.157   1.312
56013W        W26613   2.034  28.937   1.187
56014W        W26614  35.526   9.440   2.519
56015W        W26615   3.307  24.687  11.900
56016W        W26616  20.141   5.758   1.113
56017W        W26617   0.045   2.494  14.747
56018W        W26618  15.277   3.478   1.328
56019W        W26619  32.420  17.873  13.061
56020W        W26620  41.855   2.379  10.398
56021W        W26621  17.741  18.471   0.805
56022W        W26622  12.019  39.471   0.547
56023W        W26623   0.121  21.771   1.111
56024W        W26624  27.451   6.931  10.732
56025W        W26625  15.783  38.449   4.385
56026W        W26626  26.200  27.108   4.577
56027W        W26627  39.784  21.910  12.081
56028W        W26628  43.062  24.945  10.458
56029W        W26629  26.415  26.078  13.399
56030W        W26630   3.409  44.835  12.057
56031W        W26631  40.497   5.472   3.660
56032W        W26632  32.656  36.946   1.724
56033W        W26633  20.553  19.626  13.422
56034W        W26634  38.431  31.470   4.424
56035W        W26635  27.483  29.605   1.804
56036W        W26636  15.130  11.728  11.410
56037W        W26637  11.177   7.927   2.144
56038W        W26638  44.051  44.502   3.327
56039W        W26639  13.389   3.717   1.389
56040W        W26640  22.219   2.508   1.341
56041W        W26641  25.962  32.549   2.208
56042W        W26642  29.585  42.611  12.515
56043W        W26643  31.974  27.657  11.738
56044W        W26644  37.405   1.827   2.148
56045W        W26645  23.011  39.812  11.954
56046W        W26646   2.391  30.952  14.297
56047W        W26647  25.157  16.026  14.993
56048W        W26648  27.416  41.577   2.096
56049W        W26649  40.513   9.230   4.363
56050W        W26650  37.394   0.428  10.637
56051W        W26651   6.836  29.560  12.118
56052W        W26652   6.784  41.844  13.589
56053W        W26653  28.587  19.892  12.433
56054W        W26654  20.247  41.746  13.067
56055W        W26655   1.433  10.289   4.894
56056W        W26656  20.315  24.479   3.737
56057W        W26657  32.090   5.499   0.217
56058W        W26658  38.034  27.654   2.203
56059W        W26659  10.115  33.055   4.535
56060W        W26660  19.370   1.521  11.184
56061W        W26661  10.785   9.125   2.726
56062W        W26662  17.528   1.329   1.198
56063W        W26663  20.149  17.810   1.798
56064W        W26664  13.631  12.055   3.388
56065W        W26665  28.654   8.406  13.427
56066W        W26666  24.131  23.281   1.314
56067W        W26667  13.332  40.829   3.593
56068W        W26668  19.762  30.357  11.072
56069W        W26669  17.019   5.106   0.851
56070W        W26670  34.119   3.227  11.225
56071W        W26671  41.083   7.260   1.255
56072W        W26672  21.455  32.925   2.261
56073W        W26673  35.935  39.598  13.849
56074W        W26674  34.449   7.557   2.245
56075W        W26675   6.746  13.320   4.620
56076W        W26676  29.289  28.554   0.518
56077W        W26677  21.063  35.944   0.784
56078W        W26678  25.410  22.143  12.816
56079W        W26679  20.919  12.214   1.747
56080W        W26680  33.494  41.027   3.496
56081W        W26681  41.887  40.900   0.787
56082W        W26682   4.015   5.441   3.973
56083W        W26683  34.463  37.107   0.428
56084W        W26684   4.973  28.710   0.741
56085W        W26685  17.560  18.829  14.929
56086W        W26686  15.733  39.120  12.946
56087W        W26687  44.915  30.865   2.801
56088W        W26688  28.436  11.692   1.335
56089W        W26689  14.661  25.140   1.223
56090W        W26690  23.965  40.774  14.764
56091W        W26691  25.016  36.884   1.167
56092W        W26692  31.109  42.577  14.161
56093W        W26693  20.635  23.689   0.816
56094W        W26694   5.751  23.851   4.390
56095W        W26695  14.313  12.319   1.227
56096W        W26696   3.537  36.434   1.573
56097W        W26697   9.090  24.211   4.169
56098W        W26698  42.801  19.490   3.088
56099W        W26699  41.203   1.268   3.380
56100W        W26700  20.523   3.806  11.497
56101W        W26701  17.333  30.798   1.273
56102W        W26702  15.460  33.695   3.339
56103W        W26703   7.892   7.325   3.559
56104W        W26704  32.484   7.519   3.800
56105W        W26705  35.240  43.990  13.806
56106W        W26706  34.427   5.285   0.200
56107W        W26707  39.031  30.083  14.352
56108W        W26708   0.866  14.249  12.011
56109W        W26709  31.911  29.091   3.673
56110W        W26710  30.922  22.845   1.833
56111W        W26711  28.199  31.886   1.807
56112W        W26712  16.646  37.876  10.371
56113W        W26713  18.305  17.229   0.012
56114W        W26714  39.934  32.537  13.873
56115W        W26715  44.739   1.326   0.264
56116W        W26716  26.313   3.661  11.147
56117W        W26717  39.075  36.652   4.980
56118W        W26718  19.958  10.931  10.735
56119W        W26719  44.481  11.881  11.012
56120W        W26720  42.768  17.179   4.008
56121W        W26721  37.478  40.595  14.499
56122W        W26722  18.610  33.405  12.006
56123W        W26723  40.157  43.043  12.968
56124W        W26724   8.685   3.604   3.791
56125W        W26725  34.438  42.544   4.865
56126W        W26726   2.351  38.419  12.466
56127W        W26727   9.763  33.857  11.542
56128W        W26728  18.300  35.294   0.704
56129W        W26729   4.327  23.054   3.764
56130W        W26730  10.576   4.987   1.747
56131W        W26731  41.719  33.435   0.007
56132W        W26732   5.158  29.532   1.777
56133W        W26733  18.149  16.415   2.439
56134W        W26734  24.681  37.989   1.452
56135W        W26735  31.513   9.155   4.589
56136W        W26736  44.844   4.212   2.194
56137W        W26737  18.165  30.856   0.500
56138W        W26738  13.338   1.824  14.301
56139W        W26739  37.105  17.231   3.593
56140W        W26740  38.843  14.533   1.969
56141W        W26741  13.165   5.785  14.305
56142W        W26742  16.048   2.269  14.313
56143W        W26743  29.462  30.325   3.636
56144W        W26744  20.691   3.940  12.858
56145W        W26745   1.054  22.674  11.134
56146W        W26746  29.941  38.531   0.816
56147W        W26747  17.759   7.359  14.630
56148W        W26748   9.154  33.088   4.454
56149W        W26749  40.655  29.225  14.500
56150W        W26750  18.985   8.142   4.118
56151W        W26751  15.814  35.401  13.012
56152W        W26752  12.577  16.366  13.616
56153W        W26753  37.476   9.507   0.669
56154W        W26754  16.495  23.028   1.622
56155W        W26755  26.642   0.430   3.387
56156W        W26756  41.529   0.523  14.400
56157W        W26757  13.001  13.188  13.057
56158W        W26758  10.479  17.593  13.904
56159W        W26759  20.024  44.542   1.643
56160W        W26760  35.522  14.108  11.821
56161W        W26761  15.243  43.845   2.213
56162W        W26762  13.359  24.984   4.660
56163W        W26763  26.150  38.408   4.400
56164W        W26764  22.062  29.703  10.660
56165W        W26765  39.823  30.293  12.403
56166W        W26766  34.660  12.345   0.443
56167W        W26767   8.243   1.662   4.289
56168W        W26768   6.144  12.099  11.433
56169W        W26769  18.810   3.576  12.032
56170W        W26770   0.867   4.419   1.703
56171W        W26771  20.016  11.808  11.731
56172W        W26772  41.262  36.862   1.852
56173W        W26773  41.628   6.058   4.148
56174W        W26774  11.028   5.721   0.399
56175W        W26775   4.274  37.535   3.311
56176W        W26776  39.428  41.424   1.411
56177W        W26777   2.399   3.024  14.266
56178W        W26778  28.092  37.638  14.379
56179W        W26779  12.130  10.790  10.739
56180W        W26780  34.505  42.941   3.060
56181W        W26781  31.365  33.625   3.165
56182W        W26782  25.010  22.729   0.360
56183W        W26783  12.297   1.544   4.419
56184W        W26784   6.403   9.663  11.992
56185W        W26785  30.506  12.563   0.938
56186W        W26786  15.533   6.344   2.241
56187W        W26787  16.298  38.880  14.023
56188W        W26788  16.767   4.794   3.343
56189W        W26789  25.001  14.778   2.302
56190W        W26790  19.805  25.491  11.434
56191W        W26791  27.183  28.395   2.770
56192W        W26792   4.041  30.564  14.905
56193W        W26793  44.484   4.770  11.001
56194W        W26794  18.081  25.532   0.761
56195W        W26795  13.876  29.487   1.976
56196W        W26796  19.492  36.250   1.866
56197W        W26797  14.753   4.839   0.028
56198W        W26798  31.547  29.274   1.919
56199W        W26799  37.502  31.949  10.507
56200W        W26800  15.761  28.632  10.011
56201W        W26801  38.524   3.137  14.282
56202W        W26802  23.524   7.143   0.849
56203W        W26803  31.362   7.200   1.791
56204W        W26804  34.965  40.016  14.533
56205W        W26805  20.081  10.759  11.196
56206W        W26806  19.839  31.273   2.744
56207W        W26807  36.056  17.737  12.939
56208W        W26808  38.323  39.391   4.202
56209W        W26809   5.190   8.374   1.897
56210W        W26810  31.463  24.087  13.031
56211W        W26811  43.292  44.459  13.823
56212W        W26812  32.824  41.468   2.553
56213W        W26813   0.513   8.758   4.649
56214W        W26814  18.455  11.757   4.216
56215W        W26815  25.185   2.898  13.325
56216W        W26816  31.536  22.134   4.749
56217W        W26817   4.865   5.639   4.203
56218W        W26818  16.043   9.084  14.971
56219W        W26819  17.530   7.435   1.978
56220W        W26820   9.801  10.104   9.797
56221W        W26821   8.458  10.267  10.736
56222W        W26822  11.462   2.332   0.936
56223W        W26823  25.940  32.534  13.043
56224W        W26824  20.070  40.680  13.973
56225W        W26825  13.653  28.082   3.296
56226W        W26826  41.934  24.722   1.904
56227W        W26827   8.736  35.566   2.797
56228W        W26828  17.372  11.373  13.063
56229W        W26829  34.887  23.741   2.276
56230W        W26830  37.876  30.761   5.116
56231W        W26831  23.229  25.068  12.934
56232W        W26832  16.975  18.216  12.430
56233W        W26833  33.362  24.927   2.366
56234W        W26834   2.706  33.667   0.763
56235W        W26835   4.638  28.021  14.436
56236W        W26836  29.909  26.798  12.483
56237W        W26837  42.838  36.048   0.962
56238W        W26838  43.526  33.114  11.947
56239W        W26839  15.582  34.126  12.613
56240W        W26840  25.640   1.922   3.755
56241W        W26841   0.139   2.512   0.921
56242W        W26842   2.456  11.371  10.776
56243W        W26843  41.066   1.871  12.538
56244W        W26844  15.623  28.720  12.470
56245W        W26845  41.348  13.162   1.644
56246W        W26846   6.502  42.769  12.379
56247W        W26847  10.626  40.340   3.768
56248W        W26848  21.742  11.416  10.425
56249W        W26849  10.989  15.609  10.591
56250W        W26850  42.031   0.689   2.821
56251W        W26851   4.226  22.499   0.463
56252W        W26852  27.011  14.206   4.270
56253W        W26853  10.307  29.064   2.474
56254W        W26854   7.414  43.889  13.312
56255W        W26855  26.608  26.671   0.022
56256W        W26856  14.213  16.425  13.483
56257W        W26857  20.835  28.531  12.653
56258W        W26858   8.611  11.885  12.108
56259W        W26859  33.645  34.441  11.143
56260W        W26860  44.357  32.909  10.309
56261W        W26861  24.350  37.450   3.629
56262W        W26862  40.975  27.344  14.868
56263W        W26863   6.183  20.128   4.594
56264W        W26864  43.057  44.781  14.159
56265W        W26865  10.689  43.242   3.899
56266W        W26866  38.143  37.014   2.026
56267W        W26867   1.078   3.488   2.139
56268W        W26868  35.775  32.490  11.434
56269W        W26869  22.662   6.706   1.965
56270W        W26870  13.789  38.110  13.428
56271W        W26871  15.244  31.396  11.567
56272W        W26872   6.279  26.851  10.952
56273W        W26873  15.726   3.500  13.398
56274W        W26874  29.342   2.874  13.489
56275W        W26875  16.916  18.464   1.520
56276W        W26876  32.414   9.818   3.211
56277W        W26877  14.730  41.482  12.794
56278W        W26878  32.629  19.171   0.379
56279W        W26879   1.330  28.653   1.168
56280W        W26880  37.011   9.404   0.885
56281W        W26881  23.198  42.895  12.938
56282W        W26882  19.475  29.375  11.569
56283W        W26883   1.282  11.498   0.084
56284W        W26884  43.297  18.737   1.746
56285W        W26885  38.273  28.619  13.754
56286W        W26886  17.295  33.446  12.865
56287W        W26887  11.853  29.060  10.808
56288W        W26888  25.269  11.536  11.634
56289W        W26889  23.548  26.761  14.857
56290W        W26890   0.687  39.116  11.551
56291W        W26891  33.016   5.336   2.670
56292W        W26892  25.322  22.631   4.096
56293W        W26893   5.894  35.448   1.622
56294W        W26894  39.418  20.872  13.304
56295W        W26895  39.521   9.730  14.189
56296W        W26896  40.072   6.652   3.184
56297W        W26897   0.420  43.066   4.786
56298W        W26898   8.489  43.806  12.156
56299W        W26899  37.172  15.573  12.111
56300W        W26900   4.683  32.553   3.928
56301W        W26901  43.153  26.598  14.285
56302W        W26902  28.512  32.638  10.624
56303W        W26903   1.755   0.547   0.482
56304W        W26904  23.525  14.605  12.480
56305W        W26905  41.092   3.243  12.850
56306W        W26906  28.484  35.846   0.468
56307W        W26907  29.972  30.055   4.378
56308W        W26908   3.639   0.079   3.645
56309W        W26909   1.348  15.314   4.227
56310W        W26910  27.714  36.066   1.696
56311W        W26911  36.803  21.516   2.758
56312W        W26912   1.548   4.193   3.860
56313W        W26913  21.774  38.506  10.551
56314W        W26914  14.418  17.426  12.091
56315W        W26915  23.399  39.055  11.045
56316W        W26916  13.771   3.092   3.345
56317W        W26917  33.864  42.827   1.306
56318W        W26918   5.250  26.192  14.981
56319W        W26919  34.172  34.569   2.826
56320W        W26920   5.641  35.392  14.849
56321W        W26921   3.461  25.084  14.971
56322W        W26922  24.763   4.150   4.172
56323W        W26923   3.227  10.968  13.020
56324W        W26924  20.257   5.327   1.926
56325W        W26925   6.308  21.459  10.817
56326W        W26926  37.547   5.417  11.369
56327W        W26927  35.999  27.763   4.652
56328W        W26928  41.430  36.290  12.007
56329W        W26929  15.783  23.490   0.507
56330W        W26930   8.705  26.076   3.343
56331W        W26931  11.605   4.418   0.373
56332W        W26932   1.539  16.906   3.981
56333W        W26933  10.977  39.059   2.788
56334W        W26934  15.040  12.266   4.204
56335W        W26935  25.614  12.782   1.757
56336W        W26936   8.283  19.077   0.541
56337W        W26937   8.330  21.053   4.315
56338W        W26938  36.684  28.768  12.960
56339W        W26939   4.637  32.029  12.471
56340W        W26940   0.272  19.291  12.462
56341W        W26941  12.283  43.910  11.999
56342W        W26942  19.801  10.402   1.205
56343W        W26943   2.477  16.650   1.335
56344W        W26944   7.591  34.004   1.602
56345W        W26945  36.376  21.112  11.381
56346W        W26946  18.296   5.963  11.117
56347W        W26947  12.678  41.061  13.288
56348W        W26948  16.396  43.369   1.456
56349W        W26949  37.767  15.546   1.261
56350W        W26950   5.142  23.247  12.521
56351W        W26951  10.148  37.802  14.056
56352W        W26952  23.561  11.763  10.542
56353W        W26953   0.941   7.763  12.799
56354W        W26954  15.075  12.592  10.363
56355W        W26955   7.012  17.699   0.103
56356W        W26956  16.692   9.114   1.776
56357W        W26957  13.690   9.874  13.833
56358W        W26958  25.519  44.842  14.268
56359W        W26959  19.537   3.772   4.112
56360W        W26960  40.420  31.789  13.056
56361W        W26961  39.411  22.397  10.948
56362W        W26962  44.750  20.622  10.700
56363W        W26963  14.309  14.559  13.777
56364W        W26964  37.307  31.395  11.601
56365W        W26965   2.746  41.504   3.769
56366W        W26966   1.650  22.336   3.092
56367W        W26967  35.016  17.724  14.731
56368W        W26968  28.333  41.906  12.263
56369W        W26969   4.825  36.872  14.996
56370W        W26970  23.540  29.033  14.662
56371W        W26971  42.806  37.572  10.732
56372W        W26972  18.284  39.985   4.263
56373W        W26973  19.188  43.662  12.429
56374W        W26974  23.964  24.913   5.073
56375W        W26975  13.074   6.323  13.561
56376W        W26976  41.921  39.415   0.219
56377W        W26977  34.981  23.195   4.219
56378W        W26978   5.002   5.050  14.771
56379W        W26979  40.470  29.484   0.482
56380W        W26980  27.858  35.024   0.419
56381W        W26981  16.700  40.421   3.355
56382W        W26982  11.699  32.484  12.779
56383W        W26983   4.308  10.172   3.247
56384W        W26984  29.387  23.036   2.142
56385W        W26985  39.911  27.542   2.875
56386W        W26986  41.882  16.371  13.383
56387W        W26987  41.293   9.832  10.402
56388W        W26988  40.470   9.648   0.429
56389W        W26989  11.117  35.971   0.928
56390W        W26990  17.538  41.242  14.963
56391W        W26991   3.443  11.292   2.774
56392W        W26992  17.136  29.367   0.402
56393W        W26993  19.766  26.672  12.632
56394W        W26994  24.208  31.042  14.006
56395W        W26995  27.796  15.881  12.858
56396W        W26996  11.736  18.341  12.604
56397W        W26997  37.882  34.215  12.954
56398W        W26998  21.512  30.636  12.180
56399W        W26999   9.746  44.884  12.584
56400W        W27000  31.413  16.133  12.991
56401W        W27001   7.402  44.787   1.300
56402W        W27002  37.305  43.425  13.819
56403W        W27003   5.006  11.281   2.790
56404W        W27004  22.252  17.624   0.509
56405W        W27005  24.748  10.721   0.008
56406W        W27006   6.608   3.063   4.314
56407W        W27007  28.056  11.942  13.781
56408W        W27008  41.403  38.738   4.075
56409W        W27009  43.620  24.719   2.715
56410W        W27010  39.793  23.266  12.471
56411W        W27011  17.329  17.710  10.577
56412W        W27012   2.442  24.633   1.907
56413W        W27013  37.775   2.770  13.966
56414W        W27014  28.112  44.012  10.681
56415W        W27015   5.259  43.762  12.353
56416W        W27016  22.803  10.099  14.518
56417W        W27017  35.057  26.529  11.058
56418W        W27018  30.216  44.802  13.591
56419W        W27019  10.396  16.973   2.267
56420W        W27020  16.125   1.344   3.785
56421W        W27021  32.059  23.701   2.385
56422W        W27022  18.668  21.020   2.903
56423W        W27023   5.336  43.450   2.620
56424W        W27024  24.776  39.832  14.830
56425W        W27025  14.716  38.045   2.338
56426W        W27026   5.909  17.217   3.189
56427W        W27027  41.869  24.258   4.649
56428W        W27028   9.327  35.367  11.876
56429W        W27029  36.375   1.712  11.871
56430W        W27030  24.634  40.786  11.591
56431W        W27031   2.019   7.839  10.528
56432W        W27032  36.914  39.286  11.474
56433W        W27033   9.199  24.651   4.480
56434W        W27034  27.674  34.019   4.830
56435W        W27035  28.570   3.703   2.329
56436W        W27036  44.003  39.998  12.349
56437W        W27037  26.772  29.604  12.862
56438W        W27038  15.771   4.148  14.250
56439W        W27039   6.384  27.003   0.079
56440W        W27040  27.897   5.458   4.044
56441W        W27041  32.419  11.284  10.936
56442W        W27042  39.085  16.576  12.039
56443W        W27043  35.339  11.079   3.169
56444W        W27044   5.737  16.535   0.917
56445W        W27045  31.863  24.551  14.964
56446W        W27046  22.921  27.378   0.301
56447W        W27047  23.533   5.130   1.735
56448W        W27048  34.019  43.365  13.464
56449W        W27049  18.339  19.511  11.119
56450W        W27050  30.888  40.326  13.597
56451W        W27051  37.150   2.970   2.739
56452W        W27052  40.295   4.645  14.736
56453W        W27053  16.487   6.003  11.553
56454W        W27054   5.843  42.354  14.343
56455W        W27055  33.180  44.847  13.525
56456W        W27056  30.519  27.819  13.489
56457W        W27057   5.452  27.059   2.634
56458W        W27058  13.577  44.796   0.204
56459W        W27059  29.175  13.272  11.239
56460W        W27060  32.375  28.466  13.494
56461W        W27061  27.465  34.689   1.875
56462W        W27062  13.812  12.705  13.992
56463W        W27063  21.217  28.924  11.196
56464W        W27064  37.081  40.605  14.889
56465W        W27065   6.411   3.373  10.795
56466W        W27066  33.245  31.362   1.735
56467W        W27067   5.503  41.808   3.372
56468W        W27068  44.715  21.070   2.750
56469W        W27069  39.762  32.920   1.483
56470W        W27070   1.816   9.279   1.749
56471W        W27071   8.337  32.913  10.725
56472W        W27072  38.142  23.073  14.134
56473W        W27073   5.942  30.667  12.657
56474W        W27074  23.249   1.663   4.563
56475W        W27075   3.401   0.690   1.822
56476W        W27076   7.459  44.303   1.476
56477W        W27077   7.922  28.518   3.044
56478W        W27078  36.191   0.535  13.442
56479W        W27079   9.322   3.425   4.099
56480W        W27080  16.601  20.510  13.062
56481W        W27081   3.810  24.771  12.043
56482W        W27082   2.787  25.689   4.301
56483W        W27083  14.952   9.533   4.087
56484W        W27084   0.401  23.068  12.599
56485W        W27085  21.526  24.572   2.248
56486W        W27086  37.559  39.593   2.366
56487W        W27087  26.977  37.136  14.571
56488W        W27088  42.569  41.435  11.618
56489W        W27089  17.321  14.458  13.179
56490W        W27090   9.252  19.423   0.243
56491W        W27091  38.637  11.754  11.523
56492W        W27092  37.627  20.218   2.706
56493W        W27093  39.278  38.617   3.344
56494W        W27094  40.165  34.203  14.385
56495W        W27095  30.899   1.384  14.511
56496W        W27096   1.740  13.159  13.984
56497W        W27097  14.741  42.628  11.165
56498W        W27098  13.886  14.611   2.753
56499W        W27099  24.213  17.194  12.412
56500W        W27100  35.440  14.247   4.903
56501W        W27101  24.068  36.466   2.820
56502W        W27102   2.416  26.087  10.694
56503W        W27103  31.850  12.531   5.056
56504W        W27104  24.694  31.800  13.717
56505W        W27105  39.833  42.849   1.645
56506W        W27106   6.834  11.211  10.623
56507W        W27107  38.007  30.217   2.715
56508W        W27108  40.499  27.035  12.956
56509W        W27109  23.609  27.683  12.130
56510W        W27110  26.339   5.878   4.107
56511W        W27111  12.105  10.992   1.619
56512W        W27112   9.866  30.490  14.350
56513W        W27113  18.660  12.083   1.199
56514W        W27114  27.707  30.156   3.346
56515W        W27115  21.158  38.078  13.384
56516W        W27116   4.251   9.269  13.933
56517W        W27117  12.300  44.927   0.366
56518W        W27118  37.031  39.831   4.111
56519W        W27119  42.376   8.136   5.224
56520W        W27120   2.723   0.472   2.365
56521W        W27121  32.296  28.162   3.682
56522W        W27122   0.788  26.230  11.203
56523W        W27123  38.953   7.078  12.470
56524W        W27124  14.202  40.053  12.358
56525W        W27125   5.149  16.632   4.632
56526W        W27126  39.273  42.893  11.204
56527W        W27127  26.221  43.977   1.806
56528W        W27128  39.350  38.352   0.877
56529W        W27129   9.404   9.804  14.429
56530W        W27130  43.417  20.339  12.053
56531W        W27131   5.352  18.519   2.088
56532W        W27132   9.899  14.778   0.671
56533W        W27133   3.233  25.154   0.427
56534W        W27134  41.556   5.921  11.534
56535W        W27135  18.518  34.040  13.145
56536W        W27136  41.779  35.149   2.016
56537W        W27137  11.244  15.638   4.582
56538W        W27138   8.322  15.660   0.891
56539W        W27139  39.811  35.364  12.532
56540W        W27140  40.247  22.013   3.182
56541W        W27141  21.930  15.813  12.556
56542W        W27142  44.784  14.167   3.395
56543W        W27143  32.102  13.697   0.734
56544W        W27144   2.950  41.591  11.192
56545W        W27145  36.815  13.434  11.651
56546W        W27146  16.506   0.692  13.131
56547W        W27147  29.173  30.082   1.148
56548W        W27148  19.561   6.314  14.062
56549W        W27149   4.152  32.506   3.437
56550W        W27150   9.737   7.478   0.858
56551W        W27151  18.116  12.286   1.481
56552W        W27152  22.611  20.912  14.761
56553W        W27153  33.660   2.216  12.630
56554W        W27154  28.643  44.686   3.407
56555W        W27155  35.862  22.245   0.950
56556W        W27156  21.746  31.670   2.710
56557W        W27157  34.067  41.893   1.184
56558W        W27158  16.798  35.144   4.513
56559W        W27159  18.470  10.132   1.570
56560W        W27160  22.482  28.024  12.541
56561W        W27161   7.227  43.923   0.759
56562W        W27162  18.223  33.130   3.643
56563W        W27163  30.729  20.073  14.553
56564W        W27164   2.908  24.689  10.771
56565W        W27165  36.353  19.180   0.741
56566W        W27166  35.080  26.159   1.381
56567W        W27167   1.081  12.757  10.725
56568W        W27168  13.109  14.574   0.197
56569W        W27169  11.768  24.707   1.277
56570W        W27170  40.973  37.021   3.265
56571W        W27171  37.927  28.566  12.883
56572W        W27172  12.244   9.158  13.823
56573W        W27173  32.353   8.311   2.346
56574W        W27174  44.784  41.959  11.535
56575W        W27175  44.314  19.310  10.527
56576W        W27176  18.182  44.241   4.104
56577W        W27177   3.311   8.080  11.426
56578W        W27178  21.863   5.798   1.398
56579W        W27179  20.647   1.022   0.148
56580W        W27180  32.021  34.617  10.448
56581W        W27181   0.019   4.026  14.135
56582W        W27182  20.328  14.837   2.588
56583W        W27183  19.153  29.607  11.113
56584W        W27184  16.542  41.539   0.917
56585W        W27185  28.569   1.938   0.690
56586W        W27186  19.079   1.751   3.614
56587W        W27187  13.040  39.277  12.614
56588W        W27188  20.600   8.981  10.305
56589W        W27189   1.894  34.646   4.818
56590W        W27190  20.128  39.876  14.963
56591W        W27191   2.445  12.643  14.832
56592W        W27192   2.914  12.300   2.346
56593W        W27193  43.803   7.212  11.921
56594W        W27194  31.943  33.450   5.098
56595W        W27195  44.453  36.427   4.960
56596W        W27196  17.897   3.689  14.384
56597W        W27197   2.850  44.637   3.171
56598W        W27198  12.790  38.060  10.598
56599W        W27199  17.179  41.228  13.607
56600W        W27200  12.222  42.963   1.779
56601W        W27201  18.190  29.885   3.315
56602W        W27202  37.964  44.020   3.941
56603W        W27203  10.338  27.059   2.347
56604W        W27204   4.289  39.809   4.893
56605W        W27205  12.576  22.690   4.626
56606W        W27206  34.354  16.076  10.755
56607W        W27207  44.982  40.983  10.706
56608W        W27208  44.563  38.107  12.041
56609W        W27209  25.813   7.151  11.212
56610W        W27210  18.962  19.478   2.278
56611W        W27211   5.182  10.858  11.872
56612W        W27212  44.388   9.821   2.688
56613W        W27213   3.621   6.161  13.002
56614W        W27214  28.495  43.859  11.534
56615W        W27215  25.615   6.831   1.864
56616W        W27216  19.877  18.023  12.875
56617W        W27217  31.681  43.812   2.152
56618W        W27218   2.941  15.412   4.692
56619W        W27219  15.776  42.208  11.168
56620W        W27220  26.914   8.377  11.625
56621W        W27221  34.896  32.331  12.111
56622W        W27222  40.902  29.183   1.388
56623W        W27223  22.708  29.672   3.707
56624W        W27224  12.236   9.290   1.768
56625W        W27225  26.034   0.525   5.384
56626W        W27226   8.417  26.744   4.642
56627W        W27227  38.288  31.503  11.670
56628W        W27228  24.531  23.487  11.231
56629W        W27229  34.024  18.571   1.171
56630W        W27230   0.788   2.301   0.446
56631W        W27231   4.542  29.094  10.492
56632W        W27232  18.684  19.976   4.301
56633W        W27233  30.286  18.147  11.977
56634W        W27234  41.688   4.472   1.807
56635W        W27235  16.742  44.870  11.605
56636W        W27236  11.291  10.659  13.929
56637W        W27237  13.377  20.863  12.477
56638W        W27238  32.872  11.260  11.733
56639W        W27239  26.017   6.458  11.367
56640W        W27240  29.842  13.867  12.591
56641W        W27241  21.738   4.967   0.823
56642W        W27242   0.779  18.689  12.000
56643W        W27243  26.770  24.176  13.321
56644W        W27244   2.410   8.359  13.807
56645W        W27245  33.497   3.898  10.291
56646W        W27246   6.960   5.955  14.092
56647W        W27247  35.423  31.367   3.549
56648W        W27248  42.902   9.674   4.957
56649W        W27249  17.608  21.516  12.499
56650W        W27250  36.083  36.411   2.769
56651W        W27251  16.625  43.772   5.274
56652W        W27252   7.869  33.711  11.602
56653W        W27253  36.108   7.915   1.916
56654W        W27254  20.871  37.506   2.215
56655W        W27255  17.567  37.327  12.147
56656W        W27256   5.325  41.393   3.648
56657W        W27257  33.011  33.055   0.654
56658W        W27258   8.373   5.938  10.667
56659W        W27259  18.253  30.589   2.824
56660W        W27260  37.344  41.186  11.210
56661W        W27261  17.996   0.898  13.842
56662W        W27262   3.949  10.076  10.979
56663W        W27263   9.004   3.439  12.813
56664W        W27264  34.610   2.845   0.360
56665W        W27265   0.659  24.390  14.901
56666W        W27266  13.862  13.744  13.477
56667W        W27267  36.053  31.581  11.066
56668W        W27268   7.406   7.607  14.948
56669W        W27269  20.297  26.731  12.021
56670W        W27270  33.057   2.271   2.379
56671W        W27271  42.301  23.473  13.370
56672W        W27272  27.079  27.026   1.451
56673W        W27273  30.373  16.196  14.012
56674W        W27274   8.438  44.813   3.098
56675W        W27275  30.709   7.775  12.623
56676W        W27276  29.084  11.238   1.810
56677W        W27277  34.421  12.207  13.715
56678W        W27278  43.805   9.305  13.979
56679W        W27279   0.065  30.575  12.476
56680W        W27280  36.133  35.365   4.931
56681W        W27281  28.126  43.005  11.583
56682W        W27282  42.840   1.139   0.415
56683W        W27283  24.186  22.632  13.255
56684W        W27284   4.823  27.718  14.862
56685W        W27285  40.594  15.663   4.122
56686W        W27286  43.442   8.064   0.472
56687W        W27287  25.500   5.204   3.950
56688W        W27288  37.670  19.714   4.245
56689W        W27289  36.004  29.923  10.685
56690W        W27290  36.783  43.971   4.114
56691W        W27291  25.688  32.892   0.795
56692W        W27292   6.399  24.507  11.660
56693W        W27293   0.288   0.007   3.236
56694W        W27294   6.379   9.939  14.327
56695W        W27295  28.985  24.452  14.438
56696W        W27296  23.030  21.195  11.092
56697W        W27297  39.899  40.999  10.775
56698W        W27298   2.894  30.482   3.895
56699W        W27299  27.938   9.120  14.940
56700W        W27300   1.195  44.250  14.298
56701W        W27301  28.966  13.968  13.183
56702W        W27302  16.570  39.782   0.953
56703W        W27303   4.682  35.829  10.923
56704W        W27304  13.227   2.061   3.354
56705W        W27305  22.226  30.807   0.375
56706W        W27306   3.950  27.359   1.380
56707W        W27307  40.893  19.595   0.230
56708W        W27308  40.343  44.969   2.896
56709W        W27309  33.408  29.921  10.241
56710W        W27310  18.535  36.845  12.489
56711W        W27311  12.387  44.541   3.257
56712W        W27312   0.909  20.876  13.022
56713W        W27313  15.403  26.598  13.960
56714W        W27314  24.464   9.682  12.172
56715W        W27315  29.979   3.673   0.616
56716W        W27316  21.167  19.570   2.877
56717W        W27317  41.092  33.345   2.400
56718W        W27318   8.540   5.521  12.595
56719W        W27319  23.205   1.391   2.731
56720W        W27320  23.077   6.201   3.389
56721W        W27321  34.881  40.938   4.804
56722W        W27322  29.495  13.353   0.763
56723W        W27323   0.430  12.173  13.574
56724W        W27324  11.013   6.064   0.807
56725W        W27325  36.534   0.300  13.729
56726W        W27326  31.514  40.137  14.317
56727W        W27327   0.740  40.337  12.927
56728W        W27328  43.370  37.170  12.962
56729W        W27329  16.196   1.130  12.452
56730W        W27330  34.714   5.850   0.910
56731W        W27331   6.158  21.637  13.448
56732W        W27332  38.419  35.697  13.377
56733W        W27333   6.817  30.018   0.213
56734W        W27334   7.797  12.879  13.922
56735W        W27335   8.450  24.440   0.381
56736W        W27336   6.365  20.822   0.785
56737W        W27337  42.907  11.537  12.240
56738W        W27338  24.960  44.420   1.951
56739W        W27339  24.258  12.252  10.714
56740W        W27340  34.677  15.740   1.516
56741W        W27341   5.593  26.298   0.813
56742W        W27342  26.929  44.298  11.598
56743W        W27343   7.734  40.368   3.703
56744W        W27344  11.022  10.964   0.750
56745W        W27345  30.580  37.170  11.029
56746W        W27346  15.529   3.825  10.681
56747W        W27347   6.728  26.640  11.085
56748W        W27348  23.253   1.232  10.248
56749W        W27349  31.006   1.472   2.430
56750W        W27350  14.231  36.349   2.168
56751W        W27351  23.300  21.492  14.829
56752W        W27352  14.288  16.285  14.475
56753W        W27353  27.151  39.301   4.337
56754W        W27354  23.349  13.215  11.543
56755W        W27355  13.661  18.308  12.977
56756W        W27356  42.802  34.678   3.149
56757W        W27357  43.837   7.830  10.564
56758W        W27358  38.625   1.324  13.253
56759W        W27359   6.213  11.464   2.704
56760W        W27360  38.618  10.587  12.139
56761W        W27361  44.757   9.554   3.668
56762W        W27362  41.384  27.966  12.343
56763W        W27363   4.108  35.516  12.189
56764W        W27364   0.482  34.084  11.129
56765W        W27365  12.531  31.977   1.806
56766W        W27366  32.043   0.278  13.950
56767W        W27367  39.135  16.196   0.191
56768W        W27368   4.790   0.168  11.954
56769W        W27369  43.869  12.915   1.792
56770W        W27370  10.191  39.529   4.635
56771W        W27371  32.614  40.947   3.621
56772W        W27372  31.926  17.691   0.924
56773W        W27373  29.708  42.113  12.512
56774W        W27374  13.135  21.118  11.517
56775W        W27375  22.633  27.733   3.703
56776W        W27376   0.938  37.886  12.083
56777W        W27377  29.714   9.702  13.431
56778W        W27378  12.057  44.263   3.545
56779W        W27379   2.562  44.742   1.306
56780W        W27380  16.222  12.136  14.259
56781W        W27381   7.282  22.697   3.302
56782W        W27382  24.115   1.572   2.280
56783W        W27383  41.041   1.919   4.047
56784W        W27384  15.710  38.946   0.281
56785W        W27385   8.828   9.548  12.370
56786W        W27386  36.254  41.870   3.610
56787W        W27387  31.014   2.508   2.421
56788W        W27388  20.850  30.785  10.013
56789W        W27389  30.925   1.868  10.798
56790W        W27390  15.323  41.562   2.620
56791W        W27391  10.865  37.695   2.813
56792W        W27392   4.465   4.729  13.945
56793W        W27393  14.641  35.301  13.434
56794W        W27394  35.996  33.179   0.643
56795W        W27395  12.350  44.142   1.318
56796W        W27396   0.559   5.345   0.332
56797W        W27397  33.388  12.542  11.182
56798W        W27398   8.110   2.189  14.879
56799W        W27399  26.146  39.455   0.196
56800W        W27400  11.789   3.905   2.271
56801W        W27401   2.684   8.778   2.700
56802W        W27402  15.103  30.350  11.119
56803W        W27403  23.904  16.304  10.798
56804W        W27404  15.567   7.732   2.430
56805W        W27405   8.303   7.347   4.308
56806W        W27406  10.369  39.379  11.228
56807W        W27407   8.631  11.444  11.631
56808W        W27408   5.648   3.290  14.941
56809W        W27409  14.315  34.085   2.614
56810W        W27410  43.966  40.917   4.338
56811W        W27411   8.640  29.490  13.575
56812W        W27412  27.968  32.232   5.195
56813W        W27413  42.408  41.313  12.091
56814W        W27414  43.317  40.686  11.196
56815W        W27415  34.595  40.147   3.787
56816W        W27416  11.373  38.498   3.402
56817W        W27417  17.942  27.499   1.656
56818W        W27418  20.508   1.807   1.387
56819W        W27419   2.108  36.475  12.512
56820W        W27420  29.238  11.745   1.843
56821W        W27421  16.299   0.586  12.429
56822W        W27422   5.549  14.324   1.852
56823W        W27423  15.192  39.989  13.014
56824W        W27424  29.515  16.016   2.974
56825W        W27425  36.435  42.770   3.578
56826W        W27426  24.696  38.798   1.913
56827W        W27427  37.377   6.175  13.947
56828W        W27428  17.119  27.259  14.861
56829W        W27429  30.039  19.006  14.961
56830W        W27430  36.380  40.200  12.532
56831W        W27431   0.028  38.332   2.789
56832W        W27432  10.461  40.484  14.678
56833W        W27433   9.372  27.242  13.466
56834W        W27434  41.523  41.785   3.173
56835W        W27435  23.237  39.821  12.404
56836W        W27436  37.656  36.221  10.725
56837W        W27437  40.924  41.836   3.790
56838W        W27438  40.370  27.893   4.517
56839W        W27439  29.101  27.996  14.269
56840W        W27440   7.979  38.918  12.841
56841W        W27441  14.702   6.204   3.219
56842W        W27442  19.209   7.160   3.747
56843W        W27443  10.177  29.607  11.232
56844W        W27444   5.885  13.400  14.337
56845W        W27445  36.528  20.898  10.404
56846W        W27446  16.166  21.488   4.760
56847W        W27447  29.738  37.255  10.094
56848W        W27448  10.601  12.775   4.366
56849W        W27449  21.206  11.286  10.548
56850W        W27450   3.935   3.170   4.558
56851W        W27451   6.055  27.159   3.490
56852W        W27452  28.939  38.968   4.583
56853W        W27453   2.544  12.621   9.906
56854W        W27454   5.343  11.712  12.866
56855W        W27455  44.270  12.116  11.500
56856W        W27456  11.931  23.538   3.700
56857W        W27457  33.379  21.320   4.550
56858W        W27458   0.251  16.763  13.450
56859W        W27459  34.657  42.628  13.803
56860W        W27460  31.108   9.959  14.651
56861W        W27461  32.773  37.815   0.793
56862W        W27462  44.406  18.907   4.626
56863W        W27463   3.204  20.559  12.170
56864W        W27464  26.175  34.473  13.845
56865W        W27465   7.410   3.493  10.612
56866W        W27466   2.478  27.412   0.938
56867W        W27467  13.584  11.882  11.978
56868W        W27468  11.877  35.831   2.597
56869W        W27469  36.332  24.201   0.800
56870W        W27470  23.017  29.512   0.792
56871W        W27471  16.056   2.983   3.189
56872W        W27472  34.354  29.515   0.033
56873W        W27473  20.074   3.579  11.611
56874W        W27474  38.997  19.591  12.455
56875W        W27475  19.150  28.479  10.749
56876W        W27476  26.621  27.268  10.704
56877W        W27477   1.300  31.599  12.793
56878W        W27478  31.559   5.351  10.747
56879W        W27479  11.203   2.741  11.544
56880W        W27480  40.282  15.270   0.280
56881W        W27481  36.448  32.366  14.986
56882W        W27482   1.801  27.658   1.843
56883W        W27483   7.145  25.763  14.229
56884W        W27484  34.473  40.102   2.218
56885W        W27485   3.722   8.264  14.504
56886W        W27486   5.916  44.836  14.090
56887W        W27487  12.844  28.975  11.235
56888W        W27488   0.734  40.259  14.015
56889W        W27489   2.412  32.699  14.472
56890W        W27490  29.646   2.726   1.540
56891W        W27491  34.376   0.008  11.948
56892W        W27492   5.415  32.798  10.736
56893W        W27493  38.986  24.607   3.684
56894W        W27494  38.940   4.722   4.025
56895W        W27495  36.958  31.382   4.589
56896W        W27496  12.786   9.256   4.403
56897W        W27497   3.740   8.575  14.938
56898W        W27498  17.733  32.788   2.339
56899W        W27499  37.051   2.187  14.096
56900W        W27500  31.022  42.952  14.479
56901W        W27501  43.826  42.957   2.679
56902W        W27502  15.674  16.758   5.001
56903W        W27503  10.551   5.526   0.442
56904W        W27504  13.254  38.063   4.624
56905W        W27505  25.111   6.416  14.042
56906W        W27506  34.939  40.258  11.943
56907W        W27507  30.129  17.210  14.703
56908W        W27508  31.067  41.900  13.530
56909W        W27509   8.355  39.749  13.512
56910W        W27510   5.485   8.534  14.793
56911W        W27511  44.385  17.473  12.089
56912W        W27512  32.644   0.706  12.017
56913W        W27513  26.514   6.569  11.554
56914W        W27514  14.745  26.517  12.340
56915W        W27515  23.023  22.813  12.066
56916W        W27516  15.070  36.388   2.602
56917W        W27517  19.984   4.739   0.239
56918W        W27518  16.608  10.223  14.345
56919W        W27519  23.942   0.755   3.390
56920W        W27520   7.336  21.030   3.241
56921W        W27521  42.921  22.425  11.126
56922W        W27522  42.341  38.351  11.726
56923W        W27523  11.290  24.979   0.856
56924W        W27524  28.193  11.265   4.267
56925W        W27525  41.726  41.688  13.564
56926W        W27526  37.800   2.918  10.691
56927W        W27527   7.214  30.700   4.515
56928W        W27528  32.120  22.730  14.502
56929W        W27529   8.331  10.857  12.437
56930W        W27530  43.155  42.719   5.092
56931W        W27531   5.305  19.686  14.993
56932W        W27532  16.177  35.869   1.398
56933W        W27533  18.991  16.521  12.331
56934W        W27534  28.947  25.671   0.596
56935W        W27535  12.349  11.946   0.695
56936W        W27536  13.333  34.938   0.837
56937W        W27537  12.297  24.069   2.774
56938W        W27538  37.845  21.626  10.853
56939W        W27539  41.610  20.458   3.662
56940W        W27540  42.667   1.841   1.749
56941W        W27541   8.728  13.762  13.553
56942W        W27542   7.672   1.986   2.900
56943W        W27543  25.263  32.963   3.783
56944W        W27544  34.489  23.577   3.577
56945W        W27545   8.670  14.251   2.730
56946W        W27546  12.088  42.659   1.316
56947W        W27547   3.239  38.384  13.049
56948W        W27548  28.029  33.327  14.031
56949W        W27549  41.147  44.112  11.113
56950W        W27550   5.337  27.483   3.964
56951W        W27551  42.724  18.188  13.081
56952W        W27552  18.434  40.899   3.871
56953W        W27553  14.800  15.183  14.347
56954W        W27554  38.269   3.237   0.715
56955W        W27555   2.832  16.697  13.490
56956W        W27556   2.537  11.618  11.236
56957W        W27557  25.088  40.086   3.634
56958W        W27558  33.987   5.445   0.432
56959W        W27559   8.129  37.334  11.391
56960W        W27560   7.356  10.298  13.958
56961W        W27561  38.841  41.867   0.387
56962W        W27562  41.081   6.846  13.825
56963W        W27563  28.406  38.470  13.734
56964W        W27564  23.515   2.767  12.473
56965W        W27565  18.198  10.078   2.671
56966W        W27566  12.880  14.390   2.816
56967W        W27567  32.945  22.168  14.298
56968W        W27568  23.886   3.495   0.537
56969W        W27569  39.385  33.678   1.830
56970W        W27570  33.890  26.967  12.830
56971W        W27571   4.276  14.025  10.990
56972W        W27572  26.566   9.323   3.624
56973W        W27573  37.349   2.786   0.424
56974W        W27574  41.491  37.286   4.080
56975W        W27575  21.953  33.053   2.277
56976W        W27576   6.746  31.610   2.080
56977W        W27577  26.067  41.800   0.380
56978W        W27578  11.676  39.765  12.159
56979W        W27579  14.598   3.933  13.870
56980W        W27580  24.401  42.369   0.763
56981W        W27581  39.278  40.261  13.941
56982W        W27582  42.950  14.377   4.666
56983W        W27583  27.088  13.680   2.280
56984W        W27584   0.018  15.761  13.736
56985W        W27585  14.923   2.194  13.906
56986W        W27586  39.464  14.234  12.406
56987W        W27587  43.765  35.861  10.999
56988W        W27588  24.144  31.130  11.666
56989W        W27589  20.562   9.670  13.221
56990W        W27590  31.708  11.784   3.206
56991W        W27591   4.971   7.257   2.282
56992W        W27592  41.299  18.605   1.821
56993W        W27593  29.826   5.998   0.357
56994W        W27594   3.730  26.735  14.900
56995W        W27595  27.861   2.930  13.972
56996W        W27596  21.240  17.700  12.078
56997W        W27597   6.477  26.675   1.417
56998W        W27598  20.338  35.432  11.578
56999W        W27599   5.214  16.534   0.335
57000W        W27600  34.058  43.221   4.150
57001W        W27601  18.775  43.993   1.785
57002W        W27602   0.709   3.734  11.545
57003W        W27603  36.904   2.751  12.843
57004W        W27604  17.330  27.896  14.219
57005W        W27605   2.661  21.086  13.512
57006W        W27606  27.699  23.670   1.708
57007W        W27607   2.392   8.744  13.454
57008W        W27608  18.128   4.358  11.971
57009W        W27609  32.140  37.565   2.254
57010W        W27610  17.284  35.932   5.420
57011W        W27611  22.152  22.731   4.322
57012W        W27612  14.863  44.317  13.535
57013W        W27613   2.216  41.894  12.565
57014W        W27614  14.123  35.395   2.220
57015W        W27615  11.608  32.349   3.308
57016W        W27616  25.195  25.604  13.984
57017W        W27617  16.196  41.728   4.457
57018W        W27618   8.552  17.283   0.681
57019W        W27619   2.998  19.650  12.421
57020W        W27620  26.600  11.830   0.745
57021W        W27621  15.308  35.024   0.621
57022W        W27622   8.330  28.471   1.222
57023W        W27623   8.336   6.115   3.219
57024W        W27624  20.087  42.398  11.527
57025W        W27625   1.043   9.603  12.871
57026W        W27626   8.008  41.409  11.225
57027W        W27627  10.746   7.886  14.147
57028W        W27628  10.385   1.913  13.097
57029W        W27629   2.297  44.841   4.550
57030W        W27630  11.344  36.133   0.482
57031W        W27631   8.363   0.212  12.097
57032W        W27632   8.366  44.825   1.319
57033W        W27633  11.354  39.364  14.463
57034W        W27634   4.801  32.116   1.436
57035W        W27635  24.683  42.202   4.274
57036W        W27636   6.438  32.505  12.443
57037W        W27637  34.548  26.563   1.770
57038W        W27638  19.037   5.795  10.614
57039W        W27639   9.911  19.848   4.099
57040W        W27640  43.687  19.691   3.260
57041W        W27641  12.370  35.305  12.473
57042W        W27642  18.547  19.391   0.258
57043W        W27643  38.150  39.267  13.105
57044W        W27644  12.824  32.890   3.981
57045W        W27645  26.210  24.481  11.484
57046W        W27646  36.621  30.921  13.485
57047W        W27647  19.681  25.718  13.081
57048W        W27648  28.626   8.635   3.148
57049W        W27649  14.348  40.389  13.428
57050W        W27650  40.951  33.649  11.535
57051W        W27651  43.882   0.478   3.047
57052W        W27652  21.614   8.255  12.875
57053W        W27653   8.152  42.499  10.611
57054W        W27654  36.041  43.841   0.791
57055W        W27655  19.737  30.819  14.466
57056W        W27656   4.504   1.673   1.831
57057W        W27657  18.715   2.958  13.510
57058W        W27658  17.829   5.616  11.559
57059W        W27659  30.885  33.436   4.253
57060W        W27660  20.045  19.581  13.457
57061W        W27661  22.482   7.671  13.830
57062W        W27662  43.453  22.209   3.136
57063W        W27663  42.497  10.238  10.826
57064W        W27664   3.360   6.386  12.621
57065W        W27665  44.839  39.754  12.310
57066W        W27666  33.060  30.527   0.552
57067W        W27667   2.996  40.700  14.887
57068W        W27668  32.279  17.768  10.741
57069W        W27669  25.576   5.362  14.788
57070W        W27670  26.684  30.794   0.504
57071W        W27671  36.875  10.564  12.019
57072W        W27672  41.900  32.443  12.076
57073W        W27673   5.852  41.780   4.189
57074W        W27674  44.397   1.940  10.757
57075W        W27675  20.612  30.023   4.120
57076W        W27676  14.478  40.333   4.982
57077W        W27677  30.159  30.995   0.058
57078W        W27678  27.019   9.872  13.050
57079W        W27679  36.480  21.597  12.150
57080W        W27680   3.487   3.974  13.415
57081W        W27681  31.939  39.611   3.439
57082W        W27682  12.225  28.917   2.239
57083W        W27683  34.406  12.334  12.482
57084W        W27684  21.611  25.092  10.687
57085W        W27685  30.162  19.983  13.531
57086W        W27686  43.437  17.482   2.426
57087W        W27687  34.922  36.932   1.289
57088W        W27688  19.764  18.342  13.791
57089W        W27689  15.397  32.674   2.289
57090W        W27690  40.362  42.540  11.358
57091W        W27691  42.447  15.780   3.159
57092W        W27692  42.437  30.453  13.561
57093W        W27693  20.976   7.894   3.289
57094W        W27694  17.724  17.267  11.522
57095W        W27695  30.655   9.757  14.516
57096W        W27696   9.136  23.080  10.987
57097W        W27697  26.680  23.816   2.905
57098W        W27698  28.671  10.105   3.189
57099W        W27699  41.750  40.187   4.061
57100W        W27700  35.548  16.073   3.836
57101W        W27701  39.437  32.329  13.946
57102W        W27702  41.051  31.209  14.412
57103W        W27703  35.157  12.346  13.548
57104W        W27704  13.225  12.599  11.007
57105W        W27705   0.490  26.993   3.210
57106W        W27706  37.452  37.615   5.089
57107W        W27707  19.343   5.938  11.086
57108W        W27708  10.305  31.699  12.575
57109W        W27709  19.914  40.662  14.811
57110W        W27710  30.325  21.644  11.291
57111W        W27711   1.281  35.121  12.461
57112W        W27712   5.186  41.395   3.149
57113W        W27713  43.792   2.369   3.865
57114W        W27714  36.430  19.675  14.534
57115W        W27715  29.022  12.319  12.858
57116W        W27716  25.690   8.088  12.879
57117W        W27717  26.717  19.810   3.111
57118W        W27718  10.980  44.559  11.630
57119W        W27719  31.802   4.178   4.077
57120W        W27720   0.319   7.601   3.282
57121W        W27721  12.378  13.907   0.766
57122W        W27722  40.964  16.062  14.778
57123W        W27723  21.243  38.895   3.280
57124W        W27724  32.106   1.535   3.741
57125W        W27725   3.473  38.022   2.407
57126W        W27726   8.604   8.305   2.797
57127W        W27727   7.616  16.987  14.906
57128W        W27728  29.098  30.878   0.527
57129W        W27729  25.118  24.296   4.634
57130W        W27730  11.321  17.264  12.920
57131W        W27731  35.320  44.869   2.803
57132W        W27732  22.627  43.085  12.103
57133W        W27733  35.344  33.824   4.142
57134W        W27734  23.856  16.646   0.885
57135W        W27735  15.161  21.012  13.143
57136W        W27736  19.108  42.922   0.680
57137W        W27737  24.674  17.617  11.820
57138W        W27738  34.944   1.172  13.467
57139W        W27739  22.027  21.768   4.449
57140W        W27740  40.005  13.280   4.247
57141W        W27741  16.347  34.865   2.828
57142W        W27742  10.364  20.245   3.249
57143W        W27743   0.535  14.062  11.633
57144W        W27744  30.720  39.282  10.231
57145W        W27745  19.629  20.212  14.573
57146W        W27746  33.862   1.253   2.185
57147W        W27747  35.612  29.912  11.059
57148W        W27748  19.460  41.889  12.667
57149W        W27749   9.849  13.310  12.317
57150W        W27750  20.571  25.146  12.369
57151W        W27751  23.790  37.474  12.552
57152W        W27752  16.563  25.530  13.428
57153W        W27753  20.056   5.262   0.337
57154W        W27754  23.080  14.036  13.555
57155W        W27755  15.530   1.540  11.598
57156W        W27756  33.630   2.313  11.208
57157W        W27757  16.336  30.602  13.265
57158W        W27758  42.579  12.668   3.039
57159W        W27759  44.374  32.721  13.114
57160W        W27760  35.395  37.509   3.440
57161W        W27761  34.451  35.504  13.337
57162W        W27762   2.233  22.470  10.704
57163W        W27763   5.272   4.302   3.286
57164W        W27764  33.164  37.330   1.455
57165W        W27765  19.722  43.785  13.427
57166W        W27766  37.595   4.432  12.449
57167W        W27767  10.025  42.891   4.625
57168W        W27768  17.647  37.512  14.824
57169W        W27769   9.531  16.779  13.844
57170W        W27770  37.082  10.943   2.643
57171W        W27771  16.713  11.937   4.160
57172W        W27772  31.001  17.325   0.568
57173W        W27773  37.371  43.539   4.556
57174W        W27774  20.344  34.595   4.081
57175W        W27775  34.060  17.307   4.030
57176W        W27776   9.668  19.764   4.574
57177W        W27777  17.078  21.633   4.725
57178W        W27778  15.714  27.256  14.945
57179W        W27779  28.190   1.302  11.627
57180W        W27780   5.284  35.266  14.484
57181W        W27781  26.366  40.630   2.891
57182W        W27782   6.321  13.309   0.827
57183W        W27783  41.448  21.078   4.201
57184W        W27784  15.753   4.428  11.040
57185W        W27785  20.166   2.085   0.386
57186W        W27786  13.272  42.342   3.567
57187W        W27787  20.627   6.191   4.768
57188W        W27788  19.533  21.982   4.662
57189W        W27789   0.107   7.640   4.069
57190W        W27790  15.478  11.922  11.104
57191W        W27791  29.509  15.780  13.417
57192W        W27792   8.682  21.569  12.507
57193W        W27793   5.168  36.935  14.083
57194W        W27794  38.475  22.204  10.666
57195W        W27795  41.398  36.550   4.709
57196W        W27796  42.002  12.656   4.563
57197W        W27797  31.129  40.372  10.337
57198W        W27798  41.059  40.550  12.167
57199W        W27799  20.098   3.510   5.062
57200W        W27800  14.785  21.973  13.900
57201W        W27801  10.643   3.011  13.529
57202W        W27802  38.963  28.765   1.290
57203W        W27803  44.034  19.784   3.647
57204W        W27804  28.726  35.601   2.548
57205W        W27805  20.946   0.782  13.352
57206W        W27806   5.609  23.018  12.548
57207W        W27807  38.806  33.849  14.336
57208W        W27808   4.470  35.477  13.077
57209W        W27809  35.975   4.034  12.493
57210W        W27810  25.069  37.528  10.338
57211W        W27811  15.618  14.589   3.189
57212W        W27812  26.371  12.523  11.991
57213W        W27813  30.363  23.288   2.869
57214W        W27814  17.142  23.027   0.831
57215W        W27815  23.777  39.066  14.960
57216W        W27816  11.513  23.185   2.197
57217W        W27817   8.127  25.432   4.052
57218W        W27818   5.465  35.327  13.995
57219W        W27819  20.466  34.051  13.481
57220W        W27820  42.499   6.445   0.068
57221W        W27821  17.080  37.261  11.199
57222W        W27822  35.613   4.839   9.836
57223W        W27823  31.935  31.144  14.371
57224W        W27824  33.498   9.030  13.314
57225W        W27825  43.695  31.390   1.520
57226W        W27826   2.889   3.214  14.251
57227W        W27827  25.167  20.021   4.507
57228W        W27828  30.048  14.333   1.338
57229W        W27829  42.122   7.625   4.800
57230W        W27830   0.863  39.394  12.856
57231W        W27831  28.534  43.795  12.474
57232W        W27832  41.801  41.241   0.411
57233W        W27833  42.159  32.111   3.995
57234W        W27834  35.367  13.079   1.371
57235W        W27835  43.005  16.329   0.207
57236W        W27836  40.799  12.679   0.738
57237W        W27837  37.615  12.753  13.287
57238W        W27838   3.837  15.700   4.204
57239W        W27839  30.070  27.735  12.660
57240W        W27840  39.983  23.759   3.382
57241W        W27841  40.070  25.124  14.910
57242W        W27842  36.750  39.431  14.899
57243W        W27843  17.880   4.880  13.379
57244W        W27844  35.340  19.479  13.564
57245W        W27845  25.935  25.207  14.626
57246W        W27846  34.776   6.064  11.949
57247W        W27847  44.325  22.720  10.466
57248W        W27848  38.560   2.706   4.122
57249W        W27849  23.935  20.038   2.203
57250W        W27850  20.118  30.337   3.430
57251W        W27851  33.186   4.873   2.798
57252W        W27852   2.876  13.336   0.699
57253W        W27853  12.303  30.371  12.140
57254W        W27854  11.808  44.794  14.033
57255W        W27855  16.214  33.390  13.332
57256W        W27856  17.018   1.106  11.091
57257W        W27857  38.397  18.559   1.379
57258W        W27858  26.418  15.791  13.321
57259W        W27859  30.512  27.079  12.747
57260W        W27860  38.973  34.555  14.807
57261W        W27861  28.000  23.445  11.099
57262W        W27862   9.232   1.182  13.887
57263W        W27863   5.507   2.221  11.126
57264W        W27864  34.924   6.951   1.802
57265W        W27865  11.387  26.719   3.977
57266W        W27866   4.871  42.094   0.832
57267W        W27867  21.673   1.236  14.782
57268W        W27868  38.503   5.344  14.803
57269W        W27869   1.583  40.526  11.591
57270W        W27870  39.416  22.368  14.602
57271W        W27871  29.855  27.397   3.762
57272W        W27872  40.312  23.221  12.467
57273W        W27873   8.145  38.987   3.201
57274W        W27874  41.078  30.510  11.646
57275W        W27875  34.484  20.598  13.815
57276W        W27876   1.396   3.722  12.096
57277W        W27877  20.634  31.913  12.094
57278W        W27878  44.617  43.670   0.833
57279W        W27879  15.138  35.385  13.456
57280W        W27880  21.410   3.163  14.269
57281W        W27881   5.303  12.169  13.556
57282W        W27882  10.688  11.316  14.807
57283W        W27883   7.647  26.131  11.945
57284W        W27884  24.267  20.568  14.541
57285W        W27885  35.497  13.935  13.848
57286W        W27886  41.301  28.609   2.512
57287W        W27887  34.338  16.995  13.944
57288W        W27888  23.720  35.939  13.808
57289W        W27889   6.155  10.770  11.047
57290W        W27890  33.645  28.236   1.504
57291W        W27891   5.156  12.796   3.361
57292W        W27892  34.479  29.809   2.799
57293W        W27893   4.451  26.186  13.549
57294W        W27894  39.973   9.719   1.491
57295W        W27895  17.383  44.237   0.850
57296W        W27896   6.369   9.502  14.626
57297W        W27897  30.285  40.270  13.903
57298W        W27898  30.547  22.559   2.402
57299W        W27899  15.352  30.689   0.349
57300W        W27900  11.448  17.241  12.023
57301W        W27901  19.841  16.069   0.125
57302W        W27902   4.258   5.417   0.646
57303W        W27903  25.827  37.739   3.707
57304W        W27904  15.892  18.912  12.407
57305W        W27905  21.987  11.709   4.596
57306W        W27906  18.799  21.959  13.100
57307W        W27907  39.919  44.292   2.400
57308W        W27908  23.463  10.234  13.268
57309W        W27909  30.412   6.544   0.413
57310W        W27910  22.690  13.918   2.174
57311W        W27911  26.492  40.583  10.849
57312W        W27912  37.888   3.764  13.881
57313W        W27913  22.214  26.581  14.450
57314W        W27914  28.873  38.010  11.545
57315W        W27915  40.564   9.647  14.392
57316W        W27916  35.506  15.848   3.335
57317W        W27917  39.542  22.545   1.735
57318W        W27918  26.072   6.403  14.234
57319W        W27919  21.275  29.020   0.723
57320W        W27920  14.288  37.922   4.067
57321W        W27921  29.240  39.031  11.556
57322W        W27922  35.585  41.866   1.227
57323W        W27923  16.011  31.333  13.518
57324W        W27924  19.093  28.738   1.214
57325W        W27925   1.469  33.849   1.804
57326W        W27926  20.596  31.505   3.158
57327W        W27927   4.919  27.984  11.145
57328W        W27928  28.953  18.866  10.822
57329W        W27929  43.412   4.939  13.789
57330W        W27930  41.206  20.303   5.257
57331W        W27931  21.204  43.179  12.895
57332W        W27932   7.310  35.682  13.080
57333W        W27933   4.769   6.137   5.159
57334W        W27934  14.319  34.033   1.756
57335W        W27935  28.919  43.256  12.599
57336W        W27936   2.842  40.017   1.045
57337W        W27937  16.647  25.574  14.371
57338W        W27938  19.805  37.786   4.123
57339W        W27939  18.222  17.864   1.337
57340W        W27940  26.142  14.866   3.706
57341W        W27941   8.784   4.657   3.997
57342W        W27942  21.289  27.943   2.727
57343W        W27943  34.914  36.929   4.543
57344W        W27944  18.531  15.731   4.289
57345W        W27945  31.646  21.525   3.387
57346W        W27946  10.773   8.426   4.870
57347W        W27947   0.811  17.265  13.707
57348W        W27948  40.790  12.271   1.614
57349W        W27949   5.861  33.403  14.706
57350W        W27950  12.771  25.552   5.083
57351W        W27951   2.323  34.934   3.616
57352W        W27952  29.987  10.875  10.678
57353W        W27953  15.260  32.558   3.159
57354W        W27954  42.633  31.108   4.451
57355W        W27955  25.101  19.508   2.661
57356W        W27956  37.980  35.412   0.447
57357W        W27957  28.889   9.843   1.910
57358W        W27958   6.439  12.804   0.971
57359W        W27959  30.623   2.739   3.900
57360W        W27960  31.148  39.218  12.516
57361W        W27961   1.426  34.300  12.979
57362W        W27962  27.314  14.085   2.032
57363W        W27963  30.117   6.598  14.045
57364W        W27964   7.368  22.281  13.433
57365W        W27965  17.180  22.056  13.539
57366W        W27966  10.730  27.123   0.873
57367W        W27967  34.441  34.044  12.625
57368W        W27968  31.885  30.892  10.415
57369W        W27969  43.484  18.563  13.987
57370W        W27970  15.371  21.305  13.842
57371W        W27971  40.694  13.969  10.341
57372W        W27972   9.150  31.518  12.879
57373W        W27973  27.159  18.039   1.877
57374W        W27974  19.043  22.109  11.554
57375W        W27975  15.676  40.410  13.691
57376W        W27976   0.064  40.325   1.804
57377W        W27977  20.529   8.405  12.292
57378W        W27978   0.739  38.113  11.654
57379W        W27979  19.848   5.842  11.055
57380W        W27980  21.003  40.964  10.931
57381W        W27981   8.904   4.861   3.010
57382W        W27982   0.905  43.489  13.078
57383W        W27983  41.164  18.008   4.880
57384W        W27984  20.119  31.163  14.534
57385W        W27985  12.182  29.500   0.834
57386W        W27986  38.917   9.852  13.875
57387W        W27987  40.792   3.961  14.527
57388W        W27988   9.635  11.662  14.466
57389W        W27989  41.965  41.718   0.345
57390W        W27990   9.177  16.194  14.239
57391W        W27991  25.627  35.474  12.366
57392W        W27992   9.646  21.055   3.672
57393W        W27993  21.535  22.604  13.869
57394W        W27994  18.024  15.719  13.687
57395W        W27995  28.195  11.877   0.920
57396W        W27996  25.631   7.938   3.678
57397W        W27997  15.293  13.632   3.560
57398W        W27998  23.211  16.068   1.540
57399W        W27999  30.116   9.768   3.904
57400W        W28000   0.953  14.904   2.726
57401W        W28001  10.366  25.560   4.577
57402W        W28002   3.287  17.524   3.638
57403W        W28003  21.988  27.167  11.569
57404W        W28004  37.424   9.290  11.628
57405W        W28005  28.709  44.778   2.068
57406W        W28006   9.415  29.003   2.144
57407W        W28007  27.425  17.120   2.397
57408W        W28008  42.849  16.264   1.298
57409W        W28009  21.581  36.078   3.309
57410W        W28010  27.601  38.021  14.417
57411W        W28011   4.542  15.297   3.624
57412W        W28012   2.327  42.461   1.852
57413W        W28013   2.117  14.108  14.794
57414W        W28014  43.723  38.070  12.626
57415W        W28015  25.008  37.983   3.658
57416W        W28016  29.887  29.534   2.321
57417W        W28017  42.236   9.359   3.980
57418W        W28018  15.896   6.496  10.195
57419W        W28019   5.165  26.467  10.482
57420W        W28020   0.743   6.414  14.719
57421W        W28021   9.576  18.743   2.444
57422W        W28022  21.064  29.627   4.833
57423W        W28023   4.933   9.891  12.326
57424W        W28024  36.927   3.653   2.328
57425W        W28025   7.143  30.577  12.012
57426W        W28026   8.120  25.088  14.996
57427W        W28027  37.056  38.824  11.227
57428W        W28028  42.312  42.512   2.213
57429W        W28029  44.721  24.004   1.467
57430W        W28030  41.580  42.829  12.890
57431W        W28031   0.424  37.605  13.432
57432W        W28032  17.126  27.542   3.147
57433W        W28033  30.070   7.281  11.021
57434W        W28034  42.392   4.475  14.771
57435W        W28035  17.224  11.256  14.476
57436W        W28036  24.171   7.146  13.794
57437W        W28037   9.580   1.296  11.790
57438W        W28038  30.809  11.521  10.918
57439W        W28039  27.572  36.643  12.934
57440W        W28040  34.032   0.285   4.215
57441W        W28041  38.314  28.027  10.539
57442W        W28042  25.594   3.748   0.529
57443W        W28043  39.424   8.081  11.032
57444W        W28044  34.183  41.959  14.437
57445W        W28045   2.710  24.360   3.332
57446W        W28046   0.960   1.477   2.802
57447W        W28047  42.063  40.272   2.343
57448W        W28048  24.749  36.413   4.580
57449W        W28049  10.699  29.548   2.426
57450W        W28050  35.507  28.714   0.952
57451W        W28051   9.101   3.867  10.643
57452W        W28052  23.602  28.166   3.588
57453W        W28053  37.075  41.497   3.628
57454W        W28054  30.397  16.671   0.806
57455W        W28055  29.036   4.425   0.481
57456W        W28056   8.321  34.129   1.369
57457W        W28057  29.896  19.334   2.808
57458W        W28058  38.494  33.833  13.052
57459W        W28059  18.046  16.111   5.263
57460W        W28060  23.221  42.982   1.357
57461W        W28061  42.510  39.814  11.725
57462W        W28062  10.661  42.600   2.493
57463W        W28063   8.307  31.301   1.418
57464W        W28064   2.829  22.851  11.215
57465W        W28065  14.530  38.872  13.615
57466W        W28066  14.235  37.861   1.632
57467W        W28067  25.852   4.257  13.871
57468W        W28068   6.817  11.039  14.094
57469W        W28069  33.348  14.892  12.927
57470W        W28070  42.354  37.354  11.564
57471W        W28071  36.515  20.173  14.371
57472W        W28072   6.926  26.281   0.239
57473W        W28073  27.015   0.950  13.366
57474W        W28074  33.777  28.952   3.696
57475W        W28075  40.222  28.467   3.322
57476W        W28076  16.689  32.580  10.250
57477W        W28077  15.381  38.469   4.712
57478W        W28078   5.533  37.993   0.901
57479W        W28079  17.557   4.809   3.761
57480W        W28080   3.188  23.615   3.339
57481W        W28081  12.633  39.556  12.388
57482W        W28082  34.362  41.780  14.887
57483W        W28083  38.266  32.076   5.176
57484W        W28084  42.170  15.573   3.746
57485W        W28085  17.574   2.450  13.428
57486W        W28086  16.961  21.605  11.131
57487W        W28087  28.150   6.331   4.191
57488W        W28088  25.002   2.312  11.150
57489W        W28089   9.414  14.303   2.299
57490W        W28090  33.035  31.049   0.713
57491W        W28091  35.643  25.266  13.547
57492W        W28092  21.074  20.178   4.616
57493W        W28093  36.726  33.653  12.038
57494W        W28094  21.877  30.035   1.332
57495W        W28095  40.214  26.547  12.922
57496W        W28096  18.952   3.203   4.195
57497W        W28097  41.799  43.313   0.438
57498W        W28098  25.113   5.287   1.147
57499W        W28099  30.646   0.623  12.192
57500W        W28100  31.845  41.782  14.894
57501W        W28101  41.398  12.348   1.538
57502W        W28102   3.868  40.907   1.853
57503W        W28103  38.001  27.214   2.474
57504W        W28104  43.562  20.054   1.853
57505W        W28105  40.366  25.684  13.107
57506W        W28106  34.802  23.486   2.732
57507W        W28107   3.069  17.057  11.442
57508W        W28108   4.985   0.322   3.400
57509W        W28109  37.928  15.293   2.273
57510W        W28110  22.848  29.422  11.034
57511W        W28111  19.176   3.479   1.718
57512W        W28112  38.919  30.637  12.410
57513W        W28113  41.073  32.551   1.189
57514W        W28114  26.494  40.279   3.726
57515W        W28115  20.472   4.841  12.685
57516W        W28116   7.699   4.279   4.486
57517W        W28117  20.150   6.245   0.863
57518W        W28118  39.751  17.852  10.636
57519W        W28119  44.057  40.303  14.365
57520W        W28120  13.007  29.597   4.065
57521W        W28121   2.989  17.419  11.802
57522W        W28122  40.795  17.662   5.078
57523W        W28123  14.586  25.024   2.666
57524W        W28124  38.603  39.332   3.759
57525W        W28125  34.635  37.898  10.644
57526W        W28126  18.046  18.493  11.044
57527W        W28127  13.809  35.014   4.577
57528W        W28128  23.519  43.966  11.713
57529W        W28129  30.088  38.027  12.005
57530W        W28130  11.358  37.352  12.107
57531W        W28131  27.268  12.498  14.479
57532W        W28132  16.706  12.833  13.062
57533W        W28133  36.282  18.526  13.895
57534W        W28134  42.308  28.651   0.448
57535W        W28135  36.787   7.243   4.564
57536W        W28136  36.357  24.073  11.169
57537W        W28137  13.425  13.193   3.940
57538W        W28138  28.497  31.699   1.366
57539W        W28139  43.408  22.904   0.793
57540W        W28140  11.831   6.603   3.826
57541W        W28141  15.803  32.699   1.918
57542W        W28142  24.727  21.680  13.868
57543W        W28143  37.359  23.962   4.631
57544W        W28144   6.950   7.227   2.419
57545W        W28145  23.980  30.843   4.812
57546W        W28146  12.385   3.498   2.166
57547W        W28147  18.714  21.049  12.840
57548W        W28148  16.831  11.280  11.636
57549W        W28149  42.948  32.354  13.876
57550W        W28150  33.713  36.414  13.525
57551W        W28151  37.030  16.306   4.391
57552W        W28152  28.063   1.089   4.096
57553W        W28153  20.713  27.028   9.907
57554W        W28154   2.504  21.521  10.748
57555W        W28155  12.679  37.376  13.354
57556W        W28156  22.619   6.434   3.482
57557W        W28157  25.131  42.622  12.429
57558W        W28158  34.959  31.602  10.766
57559W        W28159   9.150  26.630   1.641
57560W        W28160   4.670  27.244  13.304
57561W        W28161   9.887  10.304   1.908
57562W        W28162   7.440  34.061   3.478
57563W        W28163  13.560  25.474  13.961
57564W        W28164   0.889   7.290   2.936
57565W        W28165   8.801   4.163  13.453
57566W        W28166  20.597  15.694   3.974
57567W        W28167  28.159  13.594   4.591
57568W        W28168  44.350  18.946  13.842
57569W        W28169   7.843  23.686  13.810
57570W        W28170  25.037   2.305  13.427
57571W        W28171  18.108  15.336   3.304
57572W        W28172  31.002  11.230  12.881
57573W        W28173  10.881  17.592   3.197
57574W        W28174  34.066  19.750   0.992
57575W        W28175  27.547  19.790   0.739
57576W        W28176  40.602   9.208  13.143
57577W        W28177   8.853   1.394   3.353
57578W        W28178  32.559  11.904  14.927
57579W        W28179   6.662  44.421   2.389
57580W        W28180  25.580  25.946   1.254
57581W        W28181  27.069   7.098  12.051
57582W        W28182  39.467   0.545   4.488
57583W        W28183  36.047  13.985  11.568
57584W        W28184  35.594  34.894  14.936
57585W        W28185   7.128  26.979  11.170
57586W        W28186  15.484  10.777  14.770
57587W        W28187  41.026  37.075   2.399
57588W        W28188  44.430  18.254   0.752
57589W        W28189  44.558   1.119   2.806
57590W        W28190  35.590   6.464  12.427
57591W        W28191  17.354  34.791   2.732
57592W        W28192  25.223  15.353   2.874
57593W        W28193   5.885  19.191   1.636
57594W        W28194   4.348   3.314  10.609
57595W        W28195  23.202  26.975   1.181
57596W        W28196  28.370  18.173   3.766
57597W        W28197   7.908  26.795  11.498
57598W        W28198  38.807  28.261   1.251
57599W        W28199   3.185  28.525   4.907
57600W        W28200   8.608  21.147   3.725
57601W        W28201  24.942  20.184   2.285
57602W        W28202  33.420  42.666   2.358
57603W        W28203  12.851  36.278  11.775
57604W        W28204   2.201  14.444  11.934
57605W        W28205  20.487  14.016   3.131
57606W        W28206  38.637  40.616   4.267
57607W        W28207  30.973  38.359   0.943
57608W        W28208  38.076  21.677   2.275
57609W        W28209  41.627  23.383   9.993
57610W        W28210  10.791  13.283  11.937
57611W        W28211  39.739  29.137  14.589
57612W        W28212  35.337   9.996  11.638
57613W        W28213  15.644  20.261  14.440
57614W        W28214   0.701  32.023   0.963
57615W        W28215  19.660  14.667   4.105
57616W        W28216   5.369  14.280  12.045
57617W        W28217  29.670  31.705  13.019
57618W        W28218   6.656  19.683   5.281
57619W        W28219  17.584  34.918   0.339
57620W        W28220  38.356  44.909  13.427
57621W        W28221  25.115   7.649   2.201
57622W        W28222   2.541  44.519  14.661
57623W        W28223  10.120  41.723   3.308
57624W        W28224  35.950  29.997  12.898
57625W        W28225   7.003   5.945  12.987
57626W        W28226   7.143  28.658   0.255
57627W        W28227   6.131   9.879   4.092
57628W        W28228  28.646  31.082   0.301
57629W        W28229  26.001  11.840   3.253
57630W        W28230  44.117  14.240  13.934
57631W        W28231  40.932  39.307   4.487
57632W        W28232  36.279   5.627  14.897
57633W        W28233  44.860  34.111  12.441
57634W        W28234  10.284   6.884   1.881
57635W        W28235  42.901  41.821  13.852
57636W        W28236  43.725   6.042   3.314
57637W        W28237   3.356  36.039   2.363
57638W        W28238   3.266  36.407  13.368
57639W        W28239  19.099  14.628  12.544
57640W        W28240  44.322  44.509   4.226
57641W        W28241  26.084  23.482  14.030
57642W        W28242  31.927  29.910  10.684
57643W        W28243  18.302  26.724   2.681
57644W        W28244   4.357  36.526   0.899
57645W        W28245  13.343  39.080  14.367
57646W        W28246  42.566  37.140  10.552
57647W        W28247   4.572  10.120  14.470
57648W        W28248   2.854  36.088  14.165
57649W        W28249  35.827   3.800  13.942
57650W        W28250  28.747  39.531  12.605
57651W        W28251   2.218  44.137   4.104
57652W        W28252   9.732   4.411  11.536
57653W        W28253  28.483  40.836  10.384
57654W        W28254  29.468  36.879   1.010
57655W        W28255  32.024  22.145  10.635
57656W        W28256  15.618  14.000  12.477
57657W        W28257  25.819   1.280   1.916
57658W        W28258  11.997  26.003  11.890
57659W        W28259  31.096   4.920   3.738
57660W        W28260  35.457  25.892   0.217
57661W        W28261   2.836   5.670  13.969
57662W        W28262  35.546  21.074   1.783
57663W        W28263  40.251  15.489  14.735
57664W        W28264  14.295  41.721  12.925
57665W        W28265  14.320  33.195   2.737
57666W        W28266  14.094  31.066  12.885
57667W        W28267  11.357  23.691  14.701
57668W        W28268  42.347   8.707   0.699
57669W        W28269   8.200  42.450   2.259
57670W        W28270   7.736   9.245   1.998
57671W        W28271  27.504  25.058   1.219
57672W        W28272  24.771   7.342  12.819
57673W        W28273  28.667  40.538   0.973
57674W        W28274  11.149  12.277   3.242
57675W        W28275   0.960  13.377  14.615
57676W        W28276   9.805  20.188   3.272
57677W        W28277  32.582  26.625  10.508
57678W        W28278   7.435  23.281  13.631
57679W        W28279   0.297   8.334  13.953
57680W        W28280  44.271  16.762   0.180
57681W        W28281  43.310   2.363  11.359
57682W        W28282   3.052  24.000   2.789
57683W        W28283  23.167  43.614  10.972
57684W        W28284  27.653  12.857  14.428
57685W        W28285  39.053  31.515   1.319
57686W        W28286  37.560  40.933   2.912
57687W        W28287  44.689   6.196   1.318
57688W        W28288  39.262  25.094  11.264
57689W        W28289  12.393  30.541   0.230
57690W        W28290   1.701  35.952  13.144
57691W        W28291  17.440  18.583   4.761
57692W        W28292  44.540   2.389  11.977
57693W        W28293  20.896  32.381   2.063
57694W        W28294  26.648   9.593  13.850
57695W        W28295   7.703  10.218  12.138
57696W        W28296  12.890   0.974  10.651
57697W        W28297  26.995  13.026   0.980
57698W        W28298   5.310  39.327  11.564
57699W        W28299  20.319  25.369  11.146
57700W        W28300  20.989  35.799  14.076
57701W        W28301  28.250  33.913  11.919
57702W        W28302  29.956  33.357   1.692
57703W        W28303  30.788   1.734   3.330
57704W        W28304   5.106  30.409  11.628
57705W        W28305  34.426  14.300   4.764
57706W        W28306   9.697  24.064  12.772
57707W        W28307   1.297   0.902  13.751
57708W        W28308   0.959  44.947   4.206
57709W        W28309  29.174  14.110  12.242
57710W        W28310   0.051  28.079   2.179
57711W        W28311   3.307  36.288   1.139
57712W        W28312   2.418   9.708   2.105
57713W        W28313  26.541  30.879   1.001
57714W        W28314  30.056   3.367   3.839
57715W        W28315   3.185   9.322  13.638
57716W        W28316   5.550  17.408   4.544
57717W        W28317  38.660   4.419  14.697
57718W        W28318   0.611  44.161  13.484
57719W        W28319  13.110  40.393   0.793
57720W        W28320   3.382  15.820  11.566
57721W        W28321   8.874  39.522  14.983
57722W        W28322  11.769  18.012  13.021
57723W        W28323  34.083  13.102   0.147
57724W        W28324  17.088  30.198  10.356
57725W        W28325  17.338  42.027  13.077
57726W        W28326  18.628   7.825  12.062
57727W        W28327   3.914  32.506   0.317
57728W        W28328  28.950  21.193   4.975
57729W        W28329   9.308   8.278   3.963
57730W        W28330  28.942  10.780   2.696
57731W        W28331  44.785  31.525   0.860
57732W        W28332  20.956  11.832  11.727
57733W        W28333  27.516   4.244  14.283
57734W        W28334   3.013  33.368   3.142
57735W        W28335  17.271   1.820   1.047
57736W        W28336  24.630  24.526   3.578
57737W        W28337  33.341  23.587   0.005
57738W        W28338  15.020  39.173   2.226
57739W        W28339   5.707  30.078   0.784
57740W        W28340  30.549  40.963  14.841
57741W        W28341  23.425  23.229  12.984
57742W        W28342  15.445  31.537  10.258
57743W        W28343   1.868  21.271   5.078
57744W        W28344  12.891  38.043   2.120
57745W        W28345  27.939  10.282   1.891
57746W        W28346  18.747   3.939  14.427
57747W        W28347  22.482  36.889  12.407
57748W        W28348   0.831  41.024   1.264
57749W        W28349  10.041  16.704   2.684
57750W        W28350  14.848  14.109  12.886
57751W        W28351  12.678  12.730  13.532
57752W        W28352  14.447  35.811   2.347
57753W        W28353  44.738  25.320   3.272
57754W        W28354   6.412  43.092  11.657
57755W        W28355  17.432  39.099   5.135
57756W        W28356  14.190   9.438  10.812
57757W        W28357  25.078  32.849   0.410
57758W        W28358  12.213  14.734  12.057
57759W        W28359   4.355  32.106  10.734
57760W        W28360  34.196  31.092   3.772
57761W        W28361  37.377  21.109  14.386
57762W        W28362   1.728  23.137  13.125
57763W        W28363  36.071  39.371   0.155
57764W        W28364  26.791  25.596   5.037
57765W        W28365  33.443  29.651   3.301
57766W        W28366  44.820  13.866   4.253
57767W        W28367   6.766  35.337  11.140
57768W        W28368   2.206  12.143  11.614
57769W        W28369  16.723  32.631  14.981
57770W        W28370  29.632  36.125   4.073
57771W        W28371  22.677  25.050  10.528
57772W        W28372  38.327   5.835  14.740
57773W        W28373  32.028  26.704  10.500
57774W        W28374  35.294  24.188   1.453
57775W        W28375   8.817  37.323  12.639
57776W        W28376  11.124  44.441  11.165
57777W        W28377  21.580  44.566   3.188
57778W        W28378  37.207  34.458   0.531
57779W        W28379  13.016  13.684  10.154
57780W        W28380  11.202   8.350   0.704
57781W        W28381   8.236   7.574   3.831
57782W        W28382   8.568  33.396  14.281
57783W        W28383  14.621   2.782  12.653
57784W        W28384  17.704  21.984  13.427
57785W        W28385   8.067  23.842   3.294
57786W        W28386  37.901  30.551  10.394
57787W        W28387  21.646  37.141   4.473
57788W        W28388  17.148   5.791   4.538
57789W        W28389   8.770  13.731   0.913
57790W        W28390  17.748  42.873  12.167
57791W        W28391  11.112  17.077   3.121
57792W        W28392  43.154  38.471   1.562
57793W        W28393  43.503  39.720   1.266
57794W        W28394  29.916  30.080  14.958
57795W        W28395  14.332  30.870  10.535
57796W        W28396  22.471  43.266  10.542
57797W        W28397  29.494  17.857   0.403
57798W        W28398  41.233  12.011   2.451
57799W        W28399  44.290   8.155  11.616
57800W        W28400  25.855  44.991  13.482
57801W        W28401  11.823  44.957  14.971
57802W        W28402  29.162   8.526  13.661
57803W        W28403  13.956  38.339   4.169
57804W        W28404  32.587  35.501  12.495
57805W        W28405  39.861  36.539  14.559
57806W        W28406  24.469  28.224   3.808
57807W        W28407  41.251  33.044   0.480
57808W        W28408   4.284  28.091  11.952
57809W        W28409  23.461  21.688  13.156
57810W        W28410  34.334  11.199  13.956
57811W        W28411  31.197  14.374  10.277
57812W        W28412  43.684  39.358   3.894
57813W        W28413  16.181  23.414   1.779
57814W        W28414  25.101  35.675   0.210
57815W        W28415  24.997  30.594   0.838
57816W        W28416  37.433  10.871   2.268
57817W        W28417   7.953  32.060   5.229
57818W        W28418  25.577  18.733   2.780
57819W        W28419  19.639  12.062   2.496
57820W        W28420  18.228  10.855   0.804
57821W        W28421   9.742  32.864  14.571
57822W        W28422  31.958  22.163   4.075
57823W        W28423   4.646   2.354  13.442
57824W        W28424  25.288   0.999   0.391
57825W        W28425   4.111  34.533  13.037
57826W        W28426  17.054  26.250   0.443
57827W        W28427  26.563  28.828  10.938
57828W        W28428  43.062   0.825  13.241
57829W        W28429  34.469  31.846  14.898
57830W        W28430  15.152  10.153  12.534
57831W        W28431  24.433  43.508   2.000
57832W        W28432  24.538  20.788   2.728
57833W        W28433  27.139  37.761   3.747
57834W        W28434  30.064  30.080  12.565
57835W        W28435  44.412   0.020   2.736
57836W        W28436  11.642  12.231  12.066
57837W        W28437  29.094  38.107   0.400
57838W        W28438  10.226  35.892  10.707
57839W        W28439  20.115  30.751  12.855
57840W        W28440   8.279  32.337   3.370
57841W        W28441   8.235  26.149  10.759
57842W        W28442  27.799  29.044   4.330
57843W        W28443  21.979  37.487  11.719
57844W        W28444   7.714  12.625   3.664
57845W        W28445  22.251  27.931  12.069
57846W        W28446  35.636  20.751  14.870
57847W        W28447  15.416   0.432   2.252
57848W        W28448   6.479  11.217  14.827
57849W        W28449   5.778  27.520   4.261
57850W        W28450  12.112   8.902   1.453
57851W        W28451  29.451  32.518   1.491
57852W        W28452  31.234  21.587  14.490
57853W        W28453  29.778  27.437  11.235
57854W        W28454  18.003  20.857   1.735
57855W        W28455  12.357  30.662  12.555
57856W        W28456  39.967  37.260   3.097
57857W        W28457  34.887  28.954  10.326
57858W        W28458   0.020  31.937   2.744
57859W        W28459  38.462  16.205   1.966
57860W        W28460  43.832  16.663   3.592
57861W        W28461  31.967  36.514   3.599
57862W        W28462   9.186  22.079  13.817
57863W        W28463   7.836  10.606  13.898
57864W        W28464   9.397  12.650   1.774
57865W        W28465  17.090  21.191  11.444
57866W        W28466  24.773  25.171   0.465
57867W        W28467  10.675  18.754  13.999
57868W        W28468  26.128  10.740   0.443
57869W        W28469   8.217  10.385   1.011
57870W        W28470  25.502  40.806  11.565
57871W        W28471  35.081  33.603   4.559
57872W        W28472  34.475  16.775   3.738
57873W        W28473  27.646  40.930   1.320
57874W        W28474  12.664  13.632  11.600
57875W        W28475  16.875   1.341  13.573
57876W        W28476  14.762  31.847   3.809
57877W        W28477   8.419  30.793  12.460
57878W        W28478  41.524  13.103  11.728
57879W        W28479  30.031  39.785   2.849
57880W        W28480   4.189  40.477   0.301
57881W        W28481  31.614  27.597  10.940
57882W        W28482   4.003  13.894   1.005
57883W        W28483  10.107  39.912  10.526
57884W        W28484  18.040   4.435  14.473
57885W        W28485  19.740  35.501  10.713
57886W        W28486  10.349   5.250  11.396
57887W        W28487  15.721  13.814  13.319
57888W        W28488   8.756  19.001   3.648
57889W        W28489  31.475   6.321  13.892
57890W        W28490   7.277   9.323  11.869
57891W        W28491   5.086   5.839  14.904
57892W        W28492  14.658  17.603  12.515
57893W        W28493   1.154  41.622  13.931
57894W        W28494   2.712  27.757   3.815
57895W        W28495  40.392  20.137   2.446
57896W        W28496  21.250   4.192   1.359
57897W        W28497  12.755   2.479  11.154
57898W        W28498   3.264  12.004  10.765
57899W        W28499  28.201  26.269  12.616
57900W        W28500  32.264  20.878   2.811
57901W        W28501  13.345  18.372   1.791
57902W        W28502  32.037  11.197   1.768
57903W        W28503  42.248  26.109   4.263
57904W        W28504  42.341   7.344  14.682
57905W        W28505  13.769  33.609  10.246
57906W        W28506   1.259  13.671   0.772
57907W        W28507  26.033  12.084  14.923
57908W        W28508  34.013  35.187   0.417
57909W        W28509  34.861  15.202  13.609
57910W        W28510  11.304  32.850   1.175
57911W        W28511  17.498   1.020  13.559
57912W        W28512  36.788  34.113   1.255
57913W        W28513  18.063  40.378  10.588
57914W        W28514  23.531  35.954  12.911
57915W        W28515  42.812  21.017  12.324
57916W        W28516  36.365  23.485  11.908
57917W        W28517  38.526   8.725   3.678
57918W        W28518  17.215  43.973   2.289
57919W        W28519  10.736  22.370   4.095
57920W        W28520  41.351  23.653   2.523
57921W        W28521   3.270  42.274   1.422
57922W        W28522  21.599  40.784  13.378
57923W        W28523  43.373  43.921  10.885
57924W        W28524  26.727  27.930   3.273
57925W        W28525  43.562  25.481  13.520
57926W        W28526  44.967   6.097  14.298
57927W        W28527  39.055  36.051  12.017
57928W        W28528  23.915  41.921  12.575
57929W        W28529   8.966  15.676  12.944
57930W        W28530  31.364   8.832  12.838
57931W        W28531   5.789   6.313  12.139
57932W        W28532  43.883   3.911   0.348
57933W        W28533  24.977  36.509  13.900
57934W        W28534   2.848  18.547  11.260
57935W        W28535   0.260   6.359   3.693
57936W        W28536   0.397   1.211  13.540
57937W        W28537  35.934  36.427  10.926
57938W        W28538   6.325  33.676  10.405
57939W        W28539   0.481   2.688  11.171
57940W        W28540  24.580   3.961   0.444
57941W        W28541  14.278  42.379   1.185
57942W        W28542  34.915  14.322  13.551
57943W        W28543  14.916   4.740   2.367
57944W        W28544  33.753  41.045   4.542
57945W        W28545  19.201   6.756   0.863
57946W        W28546  19.177  27.906  11.576
57947W        W28547  28.989  11.154  13.665
57948W        W28548  39.835  43.973   4.221
57949W        W28549  11.131  21.243   2.638
57950W        W28550  42.816  41.517  11.162
57951W        W28551  17.684  11.970   1.427
57952W        W28552  19.263  11.518   0.016
57953W        W28553  34.609  27.756  12.992
57954W        W28554  27.137  23.648   3.104
57955W        W28555  44.433  35.045   1.192
57956W        W28556   1.832  10.006   4.692
57957W        W28557   0.743  43.365   1.419
57958W        W28558  12.654  15.262  12.471
57959W        W28559  24.177  24.397  12.916
57960W        W28560  16.724  40.943   2.546
57961W        W28561  24.048  19.253   1.257
57962W        W28562  42.872  19.644  11.901
57963W        W28563  28.199  24.656  14.810
57964W        W28564  22.103  41.528   4.292
57965W        W28565  40.011  14.842   0.310
57966W        W28566  25.548  37.519  11.198
57967W        W28567  29.598  29.001   0.421
57968W        W28568  10.505   1.418   1.690
57969W        W28569  11.270   2.290   3.783
57970W        W28570  13.160  10.270   0.923
57971W        W28571  33.999  23.456   4.143
57972W        W28572  26.564  13.750  14.340
57973W        W28573  37.115   8.224  13.093
57974W        W28574  27.821  27.994   4.553
57975W        W28575   9.953  10.201  12.216
57976W        W28576  27.478  18.771   0.721
57977W        W28577  31.932   0.802   2.644
57978W        W28578  21.112  23.820  12.861
57979W        W28579  11.208  39.201  10.279
57980W        W28580  22.389  43.689   4.526
57981W        W28581  17.795   2.696   2.231
57982W        W28582  35.491  34.028  12.091
57983W        W28583  31.176   5.184  13.313
57984W        W28584  17.352   6.771   0.241
57985W        W28585  15.594  40.981   0.375
57986W        W28586  32.845  27.084   4.922
57987W        W28587  29.067  39.797   3.278
57988W        W28588  34.092  35.599   4.859
57989W        W28589  21.467  34.490  11.331
57990W        W28590  18.008   6.251   1.401
57991W        W28591  26.041  41.528   1.713
57992W        W28592   2.666  26.128   3.718
57993W        W28593  10.414   3.193   3.156
57994W        W28594  29.884  38.231  11.534
57995W        W28595  31.379  22.648   3.920
57996W        W28596  11.811  19.689   4.108
57997W        W28597  41.455  28.499  14.751
57998W        W28598  27.918   3.366   3.149
57999W        W28599  29.299  19.960   0.291
58000W        W28600  12.236  33.491   3.575
58001W        W28601  25.189  33.549  14.364
58002W        W28602  34.053  44.843  12.550
58003W        W28603   3.359   7.135  10.953
58004W        W28604  42.494  42.578   3.177
58005W        W28605  33.326  42.344   2.748
58006W        W28606   0.378  37.100  13.537
58007W        W28607  33.195  39.985   3.645
58008W        W28608  13.780   3.952  11.101
58009W        W28609  30.551   3.205   3.701
58010W        W28610  14.625  30.177   3.210
58011W        W28611  11.754  41.865   3.776
58012W        W28612   9.745  20.574   0.681
58013W        W28613  23.384   1.139   4.938
58014W        W28614  40.259  13.878  10.646
58015W        W28615  30.959  17.304   4.726
58016W        W28616  19.630  15.838  12.112
58017W        W28617  16.801  24.351   0.489
58018W        W28618  29.525   8.565   1.784
58019W        W28619  41.878  32.420   4.819
58020W        W28620  30.187  37.253  11.347
58021W        W28621  31.478   6.992   0.675
58022W        W28622  32.505  30.006  14.850
58023W        W28623  18.034  11.692   3.622
58024W        W28624  30.054  30.100   3.886
58025W        W28625  30.379  44.712   3.330
58026W        W28626  28.556   7.493  11.372
58027W        W28627   4.507  20.367  14.901
58028W        W28628  15.970   7.269  14.675
58029W        W28629   7.534  13.775   4.627
58030W        W28630   2.360  24.916   4.590
58031W        W28631  29.019  14.628   0.458
58032W        W28632  19.467   6.697   3.756
58033W        W28633  10.920  41.790   4.112
58034W        W28634  17.052   6.668   3.656
58035W        W28635   9.217  41.005  12.038
58036W        W28636  18.988  37.395  11.191
58037W        W28637   5.227   7.945  13.837
58038W        W28638   0.239  32.074  11.632
58039W        W28639  39.016  10.388   2.294
58040W        W28640  19.790  39.049   4.685
58041W        W28641  26.518  38.771   4.625
58042W        W28642  38.848  13.604   1.665
58043W        W28643  19.487  31.197  13.650
58044W        W28644  28.456  42.994  12.823
58045W        W28645   7.621  25.605  12.040
58046W        W28646  33.967  42.947   3.177
58047W        W28647  39.490  32.572  14.439
58048W        W28648   4.445  14.891  10.602
58049W        W28649   6.648  15.282   1.668
58050W        W28650   8.351  36.448   0.665
58051W        W28651  21.070  17.247   5.071
58052W        W28652  24.133  18.028   0.677
58053W        W28653  20.785  29.009  13.853
58054W        W28654  34.639   7.303   3.276
58055W        W28655  22.578  25.194  11.025
58056W        W28656  41.530   3.216   0.148
58057W        W28657  35.548  34.544  12.125
58058W        W28658  42.364  19.884  14.899
58059W        W28659   0.173  34.881   0.013
58060W        W28660   3.445  40.289  10.770
58061W        W28661  18.557  24.762   2.869
58062W        W28662   9.466  31.142  14.225
58063W        W28663   3.529  27.092   1.225
58064W        W28664   2.701  39.311   4.267
58065W        W28665  12.013  27.100   2.880
58066W        W28666  28.606  21.283   1.785
58067W        W28667  29.031  31.760   1.666
58068W        W28668  29.909  36.298  14.786
58069W        W28669  40.905  17.090  14.003
58070W        W28670  39.752   0.217   0.846
58071W        W28671  25.362  33.611   1.540
58072W        W28672  27.569  14.895  13.030
58073W        W28673  36.700  14.105   4.769
58074W        W28674  38.264  26.437  12.489
58075W        W28675  30.396  42.477  10.307
58076W        W28676  44.650  37.086  12.805
58077W        W28677   3.512  13.259  11.583
58078W        W28678   3.493  40.430  11.290
58079W        W28679  18.311  33.304  14.219
58080W        W28680   6.401  21.334   0.835
58081W        W28681  20.912   3.148  11.146
58082W        W28682  44.718  33.636  12.567
58083W        W28683   2.533  37.612   2.728
58084W        W28684  14.411   9.214   1.643
58085W        W28685  30.607  42.037   4.661
58086W        W28686  38.641  16.101   0.386
58087W        W28687  40.513  32.848   1.801
58088W        W28688  13.228  16.688   4.621
58089W        W28689  20.001   4.896   1.729
58090W        W28690  37.409  36.339   0.793
58091W        W28691  13.596   7.648  13.528
58092W        W28692  33.515   2.820  11.574
58093W        W28693   2.502  25.432   2.883
58094W        W28694  17.458  16.921   1.040
58095W        W28695   2.744   6.665  13.159
58096W        W28696  42.497  42.405  12.700
58097W        W28697  22.397  32.973  13.511
58098W        W28698  28.775  19.961  13.535
58099W        W28699  19.260   8.045   2.471
58100W        W28700  10.757  18.593  13.160
58101W        W28701  19.136  12.328  13.952
58102W        W28702  41.001  19.408   1.213
58103W        W28703  35.027  26.027   2.268
58104W        W28704  10.835  37.514  12.960
58105W        W28705  11.748  32.974  13.486
58106W        W28706  30.875  22.778  14.878
58107W        W28707  23.217  22.638  13.424
58108W        W28708  29.948   4.017   2.467
58109W        W28709  15.953  21.674  11.207
58110W        W28710  22.182   9.741   3.319
58111W        W28711  44.830  17.507   2.312
58112W        W28712  38.978   8.419   1.906
58113W        W28713  10.248   1.980   2.478
58114W        W28714  21.700  23.142  13.716
58115W        W28715  22.643   3.418   1.199
58116W        W28716  14.356   5.870   1.355
58117W        W28717  13.863  11.825  14.305
58118W        W28718  30.738  29.307  11.163
58119W        W28719  12.829  27.487   2.789
58120W        W28720  27.136  34.090   0.801
58121W        W28721  29.042  13.267   0.518
58122W        W28722  34.348  30.217  13.792
58123W        W28723  14.579  42.882  12.452
58124W        W28724  31.442  35.195  14.855
58125W        W28725  18.754  28.131   3.563
58126W        W28726  24.782   5.397  14.428
58127W        W28727  13.147  22.379  14.393
58128W        W28728  35.611  11.123   0.438
58129W        W28729   0.583  44.491   4.988
58130W        W28730  20.740  38.457   0.465
58131W        W28731  21.076  25.016  10.624
58132W        W28732  11.476   3.347  14.546
58133W        W28733   0.819   7.415   0.144
58134W        W28734  21.067  39.203   1.445
58135W        W28735  24.592  22.181  13.904
58136W        W28736   7.278  33.329  12.618
58137W        W28737  36.138  17.277  14.437
58138W        W28738  18.163  29.203  12.609
58139W        W28739  30.715   3.387  12.058
58140W        W28740  32.915  18.092   2.888
58141W        W28741  34.366  43.335  14.378
58142W        W28742  14.858  12.288   9.739
58143W        W28743  25.189  15.812   1.379
58144W        W28744  16.713   9.185  11.166
58145W        W28745   5.248  30.463  13.507
58146W        W28746  43.264   8.198   4.126
58147W        W28747  20.237  34.889   0.805
58148W        W28748  42.295  28.086  13.184
58149W        W28749  16.484  34.493  11.109
58150W        W28750   1.014  30.621   0.263
58151W        W28751   8.936  41.080   4.889
58152W        W28752  13.366   4.404   1.841
58153W        W28753  16.136  32.115  12.980
58154W        W28754  18.909  17.609   3.328
58155W        W28755  15.652  15.642  10.729
58156W        W28756  25.692  33.076  12.347
58157W        W28757  20.020   7.294   1.797
58158W        W28758   2.466  42.498   0.330
58159W        W28759  26.162   7.355  12.842
58160W        W28760  39.122  40.061   4.192
58161W        W28761  42.050  23.181  12.899
58162W        W28762  14.622  35.890   0.063
58163W        W28763  43.571   7.325   2.455
58164W        W28764  38.035  16.244   2.277
58165W        W28765  41.029  35.326  13.461
58166W        W28766   6.944  20.309   4.255
58167W        W28767   0.778  40.893  13.325
58168W        W28768   4.999  37.157   0.424
58169W        W28769  30.910  37.942   3.750
58170W        W28770   7.779   7.123  13.036
58171W        W28771  28.091  36.357   4.195
58172W        W28772  11.374  22.663  13.626
58173W        W28773   4.242  24.932   0.276
58174W        W28774   9.841   6.798  11.108
58175W        W28775   1.449  27.945  12.018
58176W        W28776   7.965   3.197  11.828
58177W        W28777  24.418  12.238   4.056
58178W        W28778  33.005   7.732  13.437
58179W        W28779  19.511  12.224  14.335
58180W        W28780  38.713  24.697  10.888
58181W        W28781  36.364  14.539  13.778
58182W        W28782  10.879  15.858   1.816
58183W        W28783  13.454  37.347   5.204
58184W        W28784   6.197  11.077   1.190
58185W        W28785   0.353  31.599   1.421
58186W        W28786  27.774   5.914   3.784
58187W        W28787  14.867  23.985  11.777
58188W        W28788  26.865  20.291  14.362
58189W        W28789  20.194  29.352   0.336
58190W        W28790  30.349   3.722   2.358
58191W        W28791  41.992  23.714  12.982
58192W        W28792   7.912  31.564  12.462
58193W        W28793  16.849   1.313  13.022
58194W        W28794  31.187   4.266  10.681
58195W        W28795   6.387   9.906  13.304
58196W        W28796  27.864   2.661   3.287
58197W        W28797  33.393   3.236   4.839
58198W        W28798  11.171  28.187   2.869
58199W        W28799  40.918   1.834   0.509
58200W        W28800  39.644  31.745  10.333
58201W        W28801   2.000  24.273  10.893
58202W        W28802  15.698   5.981  10.731
58203W        W28803  28.542  23.011  12.618
58204W        W28804  36.942  37.641  14.442
58205W        W28805  33.411  12.045  11.155
58206W        W28806   3.787  21.705   4.579
58207W        W28807  14.105  10.802   3.293
58208W        W28808   3.900   8.466   1.300
58209W        W28809  10.858  22.982   3.244
58210W        W28810  29.002  31.961  14.374
58211W        W28811  41.959  29.559   1.713
58212W        W28812   4.971  29.383  13.996
58213W        W28813  11.098  40.567   3.682
58214W        W28814  26.583  15.611  11.196
58215W        W28815  34.871  10.863  11.896
58216W        W28816   0.521   8.769  10.699
58217W        W28817  26.082  24.961   1.851
58218W        W28818  11.330  37.649   1.729
58219W        W28819   3.786   1.848  13.636
58220W        W28820   2.717  13.283   2.146
58221W        W28821  33.552  11.739  11.740
58222W        W28822   5.158  21.684   0.462
58223W        W28823  36.860  29.381   3.672
58224W        W28824  18.574  36.817   4.551
58225W        W28825  18.870  29.149  10.946
58226W        W28826  42.967  38.273   1.123
58227W        W28827  20.624   1.533  12.440
58228W        W28828   1.252  39.143  13.090
58229W        W28829  34.669  44.224  12.459
58230W        W28830  21.713  25.370  14.398
58231W        W28831  20.100  19.165  13.959
58232W        W28832  41.516   7.300  10.742
58233W        W28833  26.614  12.053   2.113
58234W        W28834   9.823   9.822  14.113
58235W        W28835  12.845  35.146  12.614
58236W        W28836  23.244  11.624  11.233
58237W        W28837  20.498  18.013   3.707
58238W        W28838  37.730  30.868  13.719
58239W        W28839  41.182   4.808   2.322
58240W        W28840  15.840  27.591  10.292
58241W        W28841  25.824  35.050  14.856
58242W        W28842  30.031  25.535  13.347
58243W        W28843  22.180   1.732   3.764
58244W        W28844   9.815  36.436  12.619
58245W        W28845  10.890  23.686  11.644
58246W        W28846  29.057  12.220  13.932
58247W        W28847   0.287  33.208  12.157
58248W        W28848  14.583  43.801  13.532
58249W        W28849  24.284  24.455   0.815
58250W        W28850  25.728  44.791   4.669
58251W        W28851  38.378  14.291   2.888
58252W        W28852  25.308   7.161   2.876
58253W        W28853  16.429  37.871   0.255
58254W        W28854  14.764  42.227   2.884
58255W        W28855  36.823  35.481  13.992
58256W        W28856  13.250  20.209  11.565
58257W        W28857  12.631  20.285  12.401
58258W        W28858  17.907  28.186  11.027
58259W        W28859   0.115  17.673  13.557
58260W        W28860  44.790  13.352  14.547
58261W        W28861  31.391  17.799  14.937
58262W        W28862  21.903   2.326   2.320
58263W        W28863   5.236  37.982  11.252
58264W        W28864  17.616  27.184   1.363
58265W        W28865   9.267  36.526   1.233
58266W        W28866  40.450  36.479   2.688
58267W        W28867  43.101   0.321  13.052
58268W        W28868  15.166  18.621  13.415
58269W        W28869  15.815  39.375   3.087
58270W        W28870  11.653   7.707  12.174
58271W        W28871  21.672  43.808  11.300
58272W        W28872  22.475  28.405  13.870
58273W        W28873  19.262  41.383  14.871
58274W        W28874  25.070  42.467   1.536
58275W        W28875  20.357  38.971   3.296
58276W        W28876  34.029  28.135   0.728
58277W        W28877   0.545  42.808   1.950
58278W        W28878  11.886   9.861  12.416
58279W        W28879  22.864  32.057  13.477
58280W        W28880  24.640  30.761  13.583
58281W        W28881  43.159  15.701   2.787
58282W        W28882  16.390  31.993  10.814
58283W        W28883  24.230   9.311  13.895
58284W        W28884  10.984  19.593   0.346
58285W        W28885  16.124  26.710   3.058
58286W        W28886  18.344  23.540   4.567
58287W        W28887  29.969  13.134  14.131
58288W        W28888  10.051   6.833   9.901
58289W        W28889   1.337  39.694  11.240
58290W        W28890  32.131  35.266  14.583
58291W        W28891   9.808   6.307   3.653
58292W        W28892  21.416  14.046  11.873
58293W        W28893  13.713  13.782  12.328
58294W        W28894  29.013  23.458   4.699
58295W        W28895  35.127   9.533  11.654
58296W        W28896  14.689   0.421   3.865
58297W        W28897   5.346   7.214   1.224
58298W        W28898  17.012  31.321   4.043
58299W        W28899  25.577  41.342   0.770
58300W        W28900  39.598  21.082   0.867
58301W        W28901  35.549  33.871   0.879
58302W        W28902   7.165  40.938   4.074
58303W        W28903  24.241   6.121  13.032
58304W        W28904  44.194  16.021  11.176
58305W        W28905   6.863  31.502   1.583
58306W        W28906  31.193  31.994   0.466
58307W        W28907  38.581   8.308   0.764
58308W        W28908   6.203   4.993   2.616
58309W        W28909  32.936   9.617  11.592
58310W        W28910  22.390  24.098  14.642
58311W        W28911  41.853  17.086  13.864
58312W        W28912  23.703  31.982  11.332
58313W        W28913  34.232  29.118  14.286
58314W        W28914  12.778  23.357  14.484
58315W        W28915  43.980  34.937  12.972
58316W        W28916  24.275  17.573  14.374
58317W        W28917  20.002   9.199   3.673
58318W        W28918  43.281  35.044  13.322
58319W        W28919  28.705  25.614  13.729
58320W        W28920  31.971  44.537  11.576
58321W        W28921  23.767   9.091  13.862
58322W        W28922  17.059  22.103   0.491
58323W        W28923  37.805  25.636  14.980
58324W        W28924  13.440  40.668   0.390
58325W        W28925   9.350  33.993   3.263
58326W        W28926  39.062  25.284  13.843
58327W        W28927  21.595  39.050  12.059
58328W        W28928  41.440  11.148   0.455
58329W        W28929  25.810  36.450   2.697
58330W        W28930  36.864  22.328   3.165
58331W        W28931  37.621   9.409   1.393
58332W        W28932  40.322  20.622  11.012
58333W        W28933  37.115  19.545  10.097
58334W        W28934  43.698  21.689  14.488
58335W        W28935   5.067  28.255   4.971
58336W        W28936   3.483  15.123  12.464
58337W        W28937  10.619  30.435  11.639
58338W        W28938  30.163  18.073   1.804
58339W        W28939  31.963   7.047   0.429
58340W        W28940  28.561  27.943  10.611
58341W        W28941  29.991  13.791  10.697
58342W        W28942  10.739  31.615  11.986
58343W        W28943  18.648  37.891   0.992
58344W        W28944   4.821  42.895  14.047
58345W        W28945  23.500  14.320  10.807
58346W        W28946  25.121  17.262  10.903
58347W        W28947   5.707   0.185   2.884
58348W        W28948   2.729  26.755   2.216
58349W        W28949  34.521  37.208  12.961
58350W        W28950  44.581  35.897  13.956
58351W        W28951   0.958  17.439   1.854
58352W        W28952   0.494   6.068   2.211
58353W        W28953  33.486  20.103   2.694
58354W        W28954  21.782  16.860   4.280
58355W        W28955  22.087  22.250   2.400
58356W        W28956  31.412  39.195   3.213
58357W        W28957  37.965  43.028   4.136
58358W        W28958  10.145   0.941  13.964
58359W        W28959  43.872  44.371   2.785
58360W        W28960  18.690  37.436   0.769
58361W        W28961   2.697  34.391   3.607
58362W        W28962   3.918  17.348  14.247
58363W        W28963   1.787   6.326  12.873
58364W        W28964  23.591  35.116   3.862
58365W        W28965  24.275  30.356  12.151
58366W        W28966  13.781  23.148  14.208
58367W        W28967  30.502  11.431  12.053
58368W        W28968  29.549  24.546  13.753
58369W        W28969   3.749  21.695  13.977
58370W        W28970  17.704  30.507  13.538
58371W        W28971   0.331   3.930  10.609
58372W        W28972   2.124  37.082   3.653
58373W        W28973   0.762  22.539  14.589
58374W        W28974  19.972  15.406  11.553
58375W        W28975  22.322  19.176  14.000
58376W        W28976  39.930  22.069  12.559
58377W        W28977  43.886   1.880  11.359
58378W        W28978   2.907  39.771   1.836
58379W        W28979   3.877   9.188   3.321
58380W        W28980  43.566   0.539  13.175
58381W        W28981  23.548   0.587  11.370
58382W        W28982   3.791  10.939   3.125
58383W        W28983   4.227   0.020  14.011
58384W        W28984   9.436  22.110  12.903
58385W        W28985  35.072   6.581  12.535
58386W        W28986  12.590  35.075   4.640
58387W        W28987  26.317  24.217  13.062
58388W        W28988   1.478   3.261   3.785
58389W        W28989  16.038  39.947   3.779
58390W        W28990  28.710   6.556   3.660
58391W        W28991  27.723  37.907   0.975
58392W        W28992  36.962  15.003   0.390
58393W        W28993  40.344  12.947  12.111
58394W        W28994   9.819  14.485  14.803
58395W        W28995  40.489  29.250   4.262
58396W        W28996  10.297  40.003  14.763
58397W        W28997   1.155  38.801  11.204
58398W        W28998  10.015   6.044  14.734
58399W        W28999   2.902  37.502   4.489
58400W        W29000  16.614  21.444  10.758
58401W        W29001  26.642  40.730   5.069
58402W        W29002  23.586   6.413   1.215
58403W        W29003  43.815  27.643  12.390
58404W        W29004  13.028  19.189   4.041
58405W        W29005   4.213  27.131   3.327
58406W        W29006   6.451  17.900   4.572
58407W        W29007  20.627  20.286  13.760
58408W        W29008  33.692  30.163   4.156
58409W        W29009  41.700  42.249  11.143
58410W        W29010   7.541  10.127   0.274
58411W        W29011   5.077  36.387  12.363
58412W        W29012  30.355   2.819  13.462
58413W        W29013  34.430   2.193  10.695
58414W        W29014  13.254   2.905   2.266
58415W        W29015  40.430  10.173   4.186
58416W        W29016  36.370   2.398   2.639
58417W        W29017  18.641  39.033   1.818
58418W        W29018   5.845  19.485   0.744
58419W        W29019   5.136  32.593  14.522
58420W        W29020  25.872  14.083   1.181
58421W        W29021  28.065  39.085   2.794
58422W        W29022  12.128  10.740   4.508
58423W        W29023  36.638  12.594   1.948
58424W        W29024  24.440   7.617  13.196
58425W        W29025  32.068  14.732  12.201
58426W        W29026  35.807   8.594  13.902
58427W        W29027  20.959  44.095  10.314
58428W        W29028   9.788  18.265   2.700
58429W        W29029  15.820  23.978   3.974
58430W        W29030  15.860  16.073   9.804
58431W        W29031  17.218  35.366  12.543
58432W        W29032  41.363  25.465  11.089
58433W        W29033  12.705  29.360   3.074
58434W        W29034  13.107   0.045  14.170
58435W        W29035  11.047  40.989   0.961
58436W        W29036  38.848  32.920   2.914
58437W        W29037   5.167  34.039  14.042
58438W        W29038  16.338  23.712   2.165
58439W        W29039  38.839  25.945   3.929
58440W        W29040  25.999  20.678  11.287
58441W        W29041   7.302  14.427   3.120
58442W        W29042   3.708  26.138  14.028
58443W        W29043  40.406  42.377  13.825
58444W        W29044  40.079  40.977  14.011
58445W        W29045  35.151  10.859  14.854
58446W        W29046  36.325  43.302   3.718
58447W        W29047  30.004  44.025   1.806
58448W        W29048   6.913  39.800   1.640
58449W        W29049  39.005  42.484   2.604
58450W        W29050  30.130  16.036  13.528
58451W        W29051  33.410  16.106   2.297
58452W        W29052  40.564   7.267  10.402
58453W        W29053  35.247  12.127  14.754
58454W        W29054  36.386  11.125   4.132
58455W        W29055  29.669  31.581  14.792
58456W        W29056  10.912  42.231  14.654
58457W        W29057   3.869  12.338  12.003
58458W        W29058  34.362   5.766   0.010
58459W        W29059  24.314  24.625   2.662
58460W        W29060  13.542  19.341   4.114
58461W        W29061  39.311  24.482  11.497
58462W        W29062  12.130  39.000  12.574
58463W        W29063   0.562  25.668  10.562
58464W        W29064  39.107  23.981  11.565
58465W        W29065  22.664   6.175   1.188
58466W        W29066  33.570  24.164   4.482
58467W        W29067   8.003  15.742  14.545
58468W        W29068  29.177  22.086   1.793
58469W        W29069  27.448  44.906  10.491
58470W        W29070  34.135  42.763   2.705
58471W        W29071  10.852  13.654  12.882
58472W        W29072  38.265  43.935   1.153
58473W        W29073   8.693  39.372   2.922
58474W        W29074  15.349  39.769   0.355
58475W        W29075   4.192   2.277  10.757
58476W        W29076  19.247  11.268  11.168
58477W        W29077  14.792  40.057  13.536
58478W        W29078  21.706  18.648   3.250
58479W        W29079  22.500  39.010  14.019
58480W        W29080  24.976  23.534  14.825
58481W        W29081   8.653   8.244   1.913
58482W        W29082  40.454  26.927  12.225
58483W        W29083  22.487  14.086  14.830
58484W        W29084  20.394  15.874   2.062
58485W        W29085  17.973  24.653   1.835
58486W        W29086  21.916  20.341   3.676
58487W        W29087  26.720  42.236   4.741
58488W        W29088  37.918  36.318  14.559
58489W        W29089   3.386   9.685   0.350
58490W        W29090  27.704   4.522   0.216
58491W        W29091   6.839  21.713   4.636
58492W        W29092  42.349  20.576   4.057
58493W        W29093  27.005  30.614   0.901
58494W        W29094  37.865  39.779  12.583
58495W        W29095  43.346  11.161  12.823
58496W        W29096  34.982  30.428  12.615
58497W        W29097  42.852  13.652  12.399
58498W        W29098  14.091  21.862  14.512
58499W        W29099   9.849  26.571  11.068
58500W        W29100  40.770  25.705  11.634
58501W        W29101  18.844   0.233  12.003
58502W        W29102   1.403  38.333  12.930
58503W        W29103  36.040   1.985  13.287
58504W        W29104   1.948  42.467  10.943
58505W        W29105  44.808  38.888  12.101
58506W        W29106  41.482  31.142  10.565
58507W        W29107   2.006  14.716   0.342
58508W        W29108   0.244  14.116  10.645
58509W        W29109  17.768  19.826   4.527
58510W        W29110   5.153  13.206   3.692
58511W        W29111  33.555  10.220   2.405
58512W        W29112  19.833   8.467   4.133
58513W        W29113   1.445   5.375  14.463
58514W        W29114  21.497   2.794  11.988
58515W        W29115  30.624   1.822  13.016
58516W        W29116  43.255  15.850  14.985
58517W        W29117  38.020  40.271  14.906
58518W        W29118  23.965  26.949   2.735
58519W        W29119  33.896  19.302   3.795
58520W        W29120   9.780   8.806   2.790
58521W        W29121  30.236  32.942  13.613
58522W        W29122  40.284  26.441  11.169
58523W        W29123  28.890  30.353   2.775
58524W        W29124  20.028  19.805  10.158
58525W        W29125  37.702  14.000   4.477
58526W        W29126  10.371  34.706  11.399
58527W        W29127  26.435   9.195  11.665
58528W        W29128   2.690  11.943  11.637
58529W        W29129  10.247  13.716  12.190
58530W        W29130  31.972  25.122   2.840
58531W        W29131  32.516   1.682   0.507
58532W        W29132   9.418  42.388  11.176
58533W        W29133  17.170   1.855   5.024
58534W        W29134  44.052  20.485  11.204
58535W        W29135  23.607  43.057  11.432
58536W        W29136   7.993  19.793  11.986
58537W        W29137   5.039  25.046   5.130
58538W        W29138  23.285  32.133  11.624
58539W        W29139  25.536  31.627   4.106
58540W        W29140   5.660  11.289  11.630
58541W        W29141  27.675   2.387   1.239
58542W        W29142   7.529   9.097  11.097
58543W        W29143  44.507   2.393  10.990
58544W        W29144  38.808  16.746   3.137
58545W        W29145  10.351   7.003  11.062
58546W        W29146  35.833   9.280  12.460
58547W        W29147   8.975   4.310  11.170
58548W        W29148  32.847   1.541  12.889
58549W        W29149  10.410   4.663   3.327
58550W        W29150  32.642  31.017   2.841
58551W        W29151   7.840   8.662   3.231
58552W        W29152  19.458  16.195   3.409
58553W        W29153  28.020  27.833  11.455
58554W        W29154  12.296  38.753  11.733
58555W        W29155  34.009   8.733   3.220
58556W        W29156  13.193  19.936   2.911
58557W        W29157  19.239  19.074  11.215
58558W        W29158  23.487  15.215   3.305
58559W        W29159   1.233  40.043  12.180
58560W        W29160  39.552  40.885   0.735
58561W        W29161  37.867  26.647  13.993
58562W        W29162  40.506  18.294   1.699
58563W        W29163  11.741  13.914  10.616
58564W        W29164  19.710  17.666   2.010
58565W        W29165  13.698  30.534   3.399
58566W        W29166  44.244  43.311  11.549
58567W        W29167   0.770  20.399   2.287
58568W        W29168  19.109  28.910   1.702
58569W        W29169   3.306  21.073  12.051
58570W        W29170  25.190  39.510  14.784
58571W        W29171   1.926  39.772   1.972
58572W        W29172  40.188  43.793  11.129
58573W        W29173  36.481  13.720  10.804
58574W        W29174   7.142  30.558  14.956
58575W        W29175  22.006  15.105   2.455
58576W        W29176  42.503   9.948   4.722
58577W        W29177  44.544  26.475  11.545
58578W        W29178   5.479  20.679   4.523
58579W        W29179  27.561  28.099  14.083
58580W        W29180  42.547  22.451  13.492
58581W        W29181  21.308  36.590  13.536
58582W        W29182  36.021  29.110   1.459
58583W        W29183  10.287  30.035  12.921
58584W        W29184  29.063  23.477   2.086
58585W        W29185   3.255  41.348  14.300
58586W        W29186  20.575   1.708   2.211
58587W        W29187  17.172  37.638   0.080
58588W        W29188  10.682  13.774  11.905
58589W        W29189  27.592  17.182  14.538
58590W        W29190  35.139  15.035  12.433
58591W        W29191  16.240  10.607   1.356
58592W        W29192  25.113  40.958   4.593
58593W        W29193  12.080  27.372   1.635
58594W        W29194   9.916  34.949   1.912
58595W        W29195  35.051  16.572  13.760
58596W        W29196   7.001  26.112   3.755
58597W        W29197  37.910  30.045   3.188
58598W        W29198  12.184  34.171   0.644
58599W        W29199  16.536  42.273  14.378
58600W        W29200  38.035  15.891   5.025
58601W        W29201  39.009  17.281   2.270
58602W        W29202  12.867  30.458   3.708
58603W        W29203  36.169   1.048  10.774
58604W        W29204  43.569  32.433   4.458
58605W        W29205  28.793  36.606   0.310
58606W        W29206  38.057  30.545  13.018
58607W        W29207  25.093  44.024  10.600
58608W        W29208  32.786  43.973  14.021
58609W        W29209  13.856   2.408  11.827
58610W        W29210  11.164  16.225  11.431
58611W        W29211  11.139   9.707  11.641
58612W        W29212  32.599  22.047  13.786
58613W        W29213  44.151   4.376  11.154
58614W        W29214  26.853  34.542   1.335
58615W        W29215  27.015  16.039  10.567
58616W        W29216   5.506  39.365   0.357
58617W        W29217  43.813  40.993   3.798
58618W        W29218  23.689  20.726   3.566
58619W        W29219  35.422  24.893   0.328
58620W        W29220   3.966   2.395  14.305
58621W        W29221  21.215  19.010   0.673
58622W        W29222  25.131   6.328   3.691
58623W        W29223  32.817   1.791  13.990
58624W        W29224  35.062  18.793   4.100
58625W        W29225  37.304  23.500  12.006
58626W        W29226  10.220  27.019  11.749
58627W        W29227   5.439   1.455  14.352
58628W        W29228   7.087  25.450   4.289
58629W        W29229  28.774  28.518   0.490
58630W        W29230  17.253  27.985  12.398
58631W        W29231   6.517  44.322  14.488
58632W        W29232  17.016  20.627  12.140
58633W        W29233  37.317  18.998   3.603
58634W        W29234  23.151   7.520  13.450
58635W        W29235  14.484  14.271   0.930
58636W        W29236   4.091  16.104  11.411
58637W        W29237  32.382   8.481  14.716
58638W        W29238   4.726  43.990   2.018
58639W        W29239  18.126  10.219  10.741
58640W        W29240  39.946  33.896   1.121
58641W        W29241  33.731   4.298   3.167
58642W        W29242  31.702  42.012   3.710
58643W        W29243  25.118  24.751  13.893
58644W        W29244  39.307  36.674  11.679
58645W        W29245  44.335   5.659   2.449
58646W        W29246  22.072  17.676   3.380
58647W        W29247  27.094  33.693   3.725
58648W        W29248  15.220   6.245   0.611
58649W        W29249  43.269  32.387   2.802
58650W        W29250   1.258   3.744   3.759
58651W        W29251   1.425  26.654   4.504
58652W        W29252  34.832  26.543   2.209
58653W        W29253  44.344  26.472   1.563
58654W        W29254   8.126   6.825  11.218
58655W        W29255  37.108  19.541  11.581
58656W        W29256  44.624  33.742  13.355
58657W        W29257  42.960  20.588   0.221
58658W        W29258   1.909  27.916  14.739
58659W        W29259  24.916  12.778  11.288
58660W        W29260  21.397  41.017   1.266
58661W        W29261   8.184  14.067   2.826
58662W        W29262  34.357  25.595  14.746
58663W        W29263  27.667  14.344   1.756
58664W        W29264  40.633  38.384  11.704
58665W        W29265  42.336  20.460  11.482
58666W        W29266  10.055  30.080   2.797
58667W        W29267  14.753  41.544   0.388
58668W        W29268   4.218  43.784   3.709
58669W        W29269  39.059   1.763   4.948
58670W        W29270  36.528  38.586   0.301
58671W        W29271  39.592  29.475  12.186
58672W        W29272   2.881  42.355   2.750
58673W        W29273  31.394  28.156   4.610
58674W        W29274  40.499  23.170  13.508
58675W        W29275  28.695  27.586  12.486
58676W        W29276  25.858   8.173  11.535
58677W        W29277  10.137  28.345  13.606
58678W        W29278  15.577  19.177   0.801
58679W        W29279  37.034  36.670  14.451
58680W        W29280  13.692  40.402  14.907
58681W        W29281  32.461  44.965  14.838
58682W        W29282   9.324   3.279   1.442
58683W        W29283  25.238   1.824  11.648
58684W        W29284  39.011  26.081  12.922
58685W        W29285  32.806  44.354  12.872
58686W        W29286   3.732   3.731   0.757
58687W        W29287  36.012   0.705   1.928
58688W        W29288  10.572  28.678  13.066
58689W        W29289  43.985  30.010   3.213
58690W        W29290  11.128  33.601   4.166
58691W        W29291  38.104  19.804  11.481
58692W        W29292  30.559  27.910   3.521
58693W        W29293  12.800  12.393   3.895
58694W        W29294  14.317  35.015   0.909
58695W        W29295  14.837  29.868   0.462
58696W        W29296  25.448   1.574  13.140
58697W        W29297  27.730  32.758  13.357
58698W        W29298  21.322   5.261  14.839
58699W        W29299  32.149   5.239   4.652
58700W        W29300  15.805  11.508  12.468
58701W        W29301  28.109   0.255   2.180
58702W        W29302  10.547  44.487  12.632
58703W        W29303  13.803  38.653   0.426
58704W        W29304   6.833  24.755   2.623
58705W        W29305  36.127   5.795   3.866
58706W        W29306   7.601  44.252   4.462
58707W        W29307  37.476  12.211   4.394
58708W        W29308  29.414   9.834  12.077
58709W        W29309  28.998  32.556   0.959
58710W        W29310  28.161  24.750  10.778
58711W        W29311  28.360   9.949  13.650
58712W        W29312  31.381  19.205   1.887
58713W        W29313  13.286  40.217  10.029
58714W        W29314  17.236  19.679  12.066
58715W        W29315  16.458  41.811   3.145
58716W        W29316  25.856  33.536   4.837
58717W        W29317   3.939  36.614   2.432
58718W        W29318  24.276  38.415  12.060
58719W        W29319  27.589  11.638  11.922
58720W        W29320  17.061   8.141   0.446
58721W        W29321  41.622  33.129   1.783
58722W        W29322  33.419  16.841   1.102
58723W        W29323  19.521   2.279  14.106
58724W        W29324  17.884  19.571  13.439
58725W        W29325  10.704  25.457  12.957
58726W        W29326  43.280  43.762   0.689
58727W        W29327  21.682  44.772   0.786
58728W        W29328  20.473  36.969  14.387
58729W        W29329   9.753   0.181   4.633
58730W        W29330  18.584   7.741  13.080
58731W        W29331  34.837  40.442   5.071
58732W        W29332  29.319  23.698  11.206
58733W        W29333   4.176  42.590   3.237
58734W        W29334   1.486   1.703  11.106
58735W        W29335  26.095  26.982  12.891
58736W        W29336   9.363  30.374   2.688
58737W        W29337  41.614   0.630   1.723
58738W        W29338  13.589  10.047   1.149
58739W        W29339  25.413  13.723   3.682
58740W        W29340  34.650  25.907   2.730
58741W        W29341  14.091  33.514  10.637
58742W        W29342  39.067  22.687   2.367
58743W        W29343  38.739   5.228   3.099
58744W        W29344  23.508  24.526   4.559
58745W        W29345   0.489  29.235  14.845
58746W        W29346   8.890  39.660  11.846
58747W        W29347  17.838   1.632  13.782
58748W        W29348  19.481  29.509   3.903
58749W        W29349  11.167  41.976  13.481
58750W        W29350  44.288  12.165   0.412
58751W        W29351  27.173  38.869   2.799
58752W        W29352   6.276  29.408   0.521
58753W        W29353  32.499  22.653  12.558
58754W        W29354   6.018  11.163  12.004
58755W        W29355  43.954  39.771   5.175
58756W        W29356  30.657   7.524   0.271
58757W        W29357  25.864   3.312   4.552
58758W        W29358  24.648  35.388   0.323
58759W        W29359  17.566  24.252   3.293
58760W        W29360  21.490  26.996   0.437
58761W        W29361   2.939  28.141   2.121
58762W        W29362  10.197  39.368   2.875
58763W        W29363  22.993  22.454  12.976
58764W        W29364  16.716   8.015   0.827
58765W        W29365  25.005   0.632   0.645
58766W        W29366  11.622  19.821   2.454
58767W        W29367  35.610  13.775   4.233
58768W        W29368  14.548  34.126  10.007
58769W        W29369  10.624   5.490   1.878
58770W        W29370  23.222  32.981   3.890
58771W        W29371   1.990   2.273   4.594
58772W        W29372   7.420  43.563   3.934
58773W        W29373  36.538  33.640  13.900
58774W        W29374  10.244  15.291  14.689
58775W        W29375  38.462  19.654  12.663
58776W        W29376  13.794  43.960   4.614
58777W        W29377  17.283  43.065   4.300
58778W        W29378  44.005  30.706  11.192
58779W        W29379  16.662  32.670  13.590
58780W        W29380  13.647  44.635   2.141
58781W        W29381   9.753  37.892  12.769
58782W        W29382  43.728   0.065   2.250
58783W        W29383  42.562  19.170   0.453
58784W        W29384   4.982   6.732   2.383
58785W        W29385  36.071  19.929   2.666
58786W        W29386   3.291  20.322   1.818
58787W        W29387  22.267  21.159   2.481
58788W        W29388  16.179   1.321   2.357
58789W        W29389  42.920  23.139   0.279
58790W        W29390   9.824  39.875   4.459
58791W        W29391   9.157   7.013  13.428
58792W        W29392  29.614  22.598  10.620
58793W        W29393   9.414  10.822  12.448
58794W        W29394  13.592   0.202   1.215
58795W        W29395   2.635  29.067  13.092
58796W        W29396  28.022   0.327   3.606
58797W        W29397   8.440   9.196   1.360
58798W        W29398  37.120   4.881   0.171
58799W        W29399   9.825  34.609  10.755
58800W        W29400   9.019  27.691  14.820
58801W        W29401  36.008  27.049  13.636
58802W        W29402  12.119   1.645  12.887
58803W        W29403  11.745  20.913   0.559
58804W        W29404  19.205   1.771   0.380
58805W        W29405  33.217  39.921   1.828
58806W        W29406  39.388   0.393  11.373
58807W        W29407  12.289  13.487  12.885
58808W        W29408  26.784  36.122  11.993
58809W        W29409  30.622  41.779   1.230
58810W        W29410  10.607  30.496  13.391
58811W        W29411  13.080  25.729   1.950
58812W        W29412  13.815  43.547  10.720
58813W        W29413  32.138   7.289   2.766
58814W        W29414  18.165  36.408  10.885
58815W        W29415   0.580  11.969  12.413
58816W        W29416   6.774   9.288  11.727
58817W        W29417  13.944   0.446   4.587
58818W        W29418  37.992  36.583   3.006
58819W        W29419   8.760  39.382   2.393
58820W        W29420  41.401   5.976  10.543
58821W        W29421   0.034  44.107   2.341
58822W        W29422  34.582  29.426   1.458
58823W        W29423  24.173  23.099  13.476
58824W        W29424  30.420  13.219   1.732
58825W        W29425   7.905  39.016  13.809
58826W        W29426  25.218  30.960  14.863
58827W        W29427  24.048   0.979  13.904
58828W        W29428  43.222  10.658  12.717
58829W        W29429  18.040  17.026  12.005
58830W        W29430  27.166  20.741  14.403
58831W        W29431  40.348  10.319   2.770
58832W        W29432  26.268  10.129  14.885
58833W        W29433  14.812  31.447   4.764
58834W        W29434  31.276   4.781   2.266
58835W        W29435  41.922  32.595   1.137
58836W        W29436  40.958  24.652  11.114
58837W        W29437  35.440   1.496   1.774
58838W        W29438  24.296  28.317   0.096
58839W        W29439  32.983  31.404   0.338
58840W        W29440  21.478  37.636   4.506
58841W        W29441   7.400  41.270   0.566
58842W        W29442  29.651  34.647   0.519
58843W        W29443  10.608  17.280  10.710
58844W        W29444  28.517  36.080  11.570
58845W        W29445  37.815  16.569   0.349
58846W        W29446   3.702  15.280   2.266
58847W        W29447  40.853  28.218   4.481
58848W        W29448   9.657  18.156  11.058
58849W        W29449  33.642   9.247  14.841
58850W        W29450   0.318  40.848  12.391
58851W        W29451   7.309  40.428  12.951
58852W        W29452   9.941   2.887   0.435
58853W        W29453  29.134   9.324   3.344
58854W        W29454  11.470  22.111   0.037
58855W        W29455   8.231  26.962   4.175
58856W        W29456   1.786  21.054  11.403
58857W        W29457  42.031   2.065  10.780
58858W        W29458   4.552  33.931   2.457
58859W        W29459  12.918  30.460  13.106
58860W        W29460  21.112  20.342   0.409
58861W        W29461  38.538  20.874  10.704
58862W        W29462  31.263  43.097   0.887
58863W        W29463   6.389   7.485  13.504
58864W        W29464  13.382  32.965  13.076
58865W        W29465  37.774  38.416  12.546
58866W        W29466  43.132  31.658   0.275
58867W        W29467   9.656  28.735  13.564
58868W        W29468   3.469   0.788   4.946
58869W        W29469  42.487  22.228   0.243
58870W        W29470   8.180  13.646  13.788
58871W        W29471  22.642   0.828   0.071
58872W        W29472  35.507  23.249   1.747
58873W        W29473  16.404  18.310   1.282
58874W        W29474  39.398  19.999   3.591
58875W        W29475  35.321   8.293  10.760
58876W        W29476  29.173  39.001  14.060
58877W        W29477  43.271  17.741   1.995
58878W        W29478  13.576  42.030  12.516
58879W        W29479  24.772  41.856  12.864
58880W        W29480  23.594   4.126   1.865
58881W        W29481  21.683  27.239  11.157
58882W        W29482  30.664   9.269  12.061
58883W        W29483  34.954  26.369  12.973
58884W        W29484  12.335  26.075   1.065
58885W        W29485   6.888  35.373  13.396
58886W        W29486  42.929  12.672   0.290
58887W        W29487   8.400  22.292   1.725
58888W        W29488  43.058  22.417   4.096
58889W        W29489  31.377  41.832   1.939
58890W        W29490  28.991  27.223   0.513
58891W        W29491  18.895  25.614  11.962
58892W        W29492  13.671  31.424  14.419
58893W        W29493  24.633  10.805  14.463
58894W        W29494  38.942   8.477   2.674
58895W        W29495  29.725   6.785   1.256
58896W        W29496   1.821  16.578   3.055
58897W        W29497  27.094  30.901  12.469
58898W        W29498  22.058  27.468  14.288
58899W        W29499  23.492  35.944   4.578
58900W        W29500   3.416  25.460   3.676
58901W        W29501  33.323   3.700   0.392
58902W        W29502  29.578  27.176   2.682
58903W        W29503  29.834   1.618  12.000
58904W        W29504  42.851   4.368  12.620
58905W        W29505  41.334  16.810   3.681
58906W        W29506  14.046  37.569   1.246
58907W        W29507   5.291  26.638  14.739
58908W        W29508  36.472  25.731  14.862
58909W        W29509   2.482  25.499  13.655
58910W        W29510  26.197  41.895  13.041
58911W        W29511   9.145  36.491  11.225
58912W        W29512  26.447   8.375   4.061
58913W        W29513  20.827  11.172   4.498
58914W        W29514  18.221   2.799   1.896
58915W        W29515  22.958  10.734  11.667
58916W        W29516  11.220  19.218   1.789
58917W        W29517  15.761  11.093  11.637
58918W        W29518   4.784  31.118   1.276
58919W        W29519  38.420  37.274  14.478
58920W        W29520  38.021  13.020   0.538
58921W        W29521  32.196   9.310   0.815
58922W        W29522   4.632   5.477  12.026
58923W        W29523  13.065   6.786  13.341
58924W        W29524   3.209   5.012   1.006
58925W        W29525  41.227  19.903  11.343
58926W        W29526  16.447  43.296   4.493
58927W        W29527  33.449  26.675   3.099
58928W        W29528  13.742  24.571   0.491
58929W        W29529   8.541  36.425   4.989
58930W        W29530  28.433   6.762   4.271
58931W        W29531   5.753  15.252   3.558
58932W        W29532   9.299   3.652  13.896
58933W        W29533  26.456  18.170   1.135
58934W        W29534  25.736  15.403   4.728
58935W        W29535  27.946  11.677   3.245
58936W        W29536  42.490  31.303   0.772
58937W        W29537  29.623  18.469   3.060
58938W        W29538  11.049   0.383   0.268
58939W        W29539  25.530  37.084  10.943
58940W        W29540  30.496  27.629  12.976
58941W        W29541  19.359   0.006  11.528
58942W        W29542   4.313  16.955  11.684
58943W        W29543  16.052  36.560  10.696
58944W        W29544  13.685   3.936   1.772
58945W        W29545  17.407  14.598  10.224
58946W        W29546  20.715  23.585  13.112
58947W        W29547   1.319  35.356   0.940
58948W        W29548   1.492  29.645   3.804
58949W        W29549   4.464  24.852   1.752
58950W        W29550   3.603  16.621  12.124
58951W        W29551   5.378   3.758  13.734
58952W        W29552  11.665  22.295   2.671
58953W        W29553  38.460  20.822  13.095
58954W        W29554  23.458  38.115  13.434
58955W        W29555  23.452  38.329  14.342
58956W        W29556  41.822  29.504  14.379
58957W        W29557  13.100  29.078   9.837
58958W        W29558  31.460  36.844   3.632
58959W        W29559  29.562  28.083   3.727
58960W        W29560   9.357   6.957  14.024
58961W        W29561  41.519  39.399  12.991
58962W        W29562  16.145   9.813  13.253
58963W        W29563  23.686  26.631   0.359
58964W        W29564  44.150   7.178   1.217
58965W        W29565  37.947  31.440   1.593
58966W        W29566   7.627   4.352  13.806
58967W        W29567  31.952  33.968  12.147
58968W        W29568  41.014  39.341   0.156
58969W        W29569  10.083  18.028   2.342
58970W        W29570  40.711  13.271  12.314
58971W        W29571   4.000  42.063   1.577
58972W        W29572   2.006  29.864   4.724
58973W        W29573   0.480  18.497   1.481
58974W        W29574  27.436  20.222  12.733
58975W        W29575  38.926   7.155   3.305
58976W        W29576   7.924   0.544   1.322
58977W        W29577   6.841  23.214   0.286
58978W        W29578  37.963   0.996  13.852
58979W        W29579  42.020   3.699   2.617
58980W        W29580  24.222  13.116   0.826
58981W        W29581  12.877  32.888  13.099
58982W        W29582   3.195  17.769  11.462
58983W        W29583  15.385  12.654   2.189
58984W        W29584   6.391  42.277   0.422
58985W        W29585  36.959   5.025   1.865
58986W        W29586  19.157  43.825  14.752
58987W        W29587  37.608  40.083   3.331
58988W        W29588   3.663  28.403   0.307
58989W        W29589  18.279  22.252   3.795
58990W        W29590   3.324  40.875   4.561
58991W        W29591  12.331  17.996  13.515
58992W        W29592  16.266  15.531   4.505
58993W        W29593  41.334  10.151   3.085
58994W        W29594  26.493  43.891  11.666
58995W        W29595  27.677  18.803  13.971
58996W        W29596   6.468  20.025   0.040
58997W        W29597  31.630   4.359   3.164
58998W        W29598  40.162  31.820  13.954
58999W        W29599   5.431  23.999   1.771
59000W        W29600  14.560  19.502   0.405
59001W        W29601  15.356   2.036  11.593
59002W        W29602  18.237  41.907   3.789
59003W        W29603  36.286  18.710   2.325
59004W        W29604  23.322  39.966  11.585
59005W        W29605  22.126   7.964  14.017
59006W        W29606  20.231  41.291  11.973
59007W        W29607  19.182  22.728   1.275
59008W        W29608  14.622  10.169  12.568
59009W        W29609  20.758  17.650   1.138
59010W        W29610  28.934  25.648   0.070
59011W        W29611   9.147   2.417   0.223
59012W        W29612  43.954   5.609  11.622
59013W        W29613   9.435   1.943  10.677
59014W        W29614  29.961  19.280   4.162
59015W        W29615  26.520  30.949  10.633
59016W        W29616  21.424  22.728  11.379
59017W        W29617  12.864  36.582  12.992
59018W        W29618  26.149   4.176   2.674
59019W        W29619  35.020  35.389   4.717
59020W        W29620  30.658  38.368  13.167
59021W        W29621  28.682  36.833   4.656
59022W        W29622  12.134  40.271   0.645
59023W        W29623  31.349  26.679   1.470
59024W        W29624  23.317   6.712   0.245
59025W        W29625  33.619  26.452  14.342
59026W        W29626  32.648  18.586   0.690
59027W        W29627  17.692  27.077  12.527
59028W        W29628  28.285  16.800  11.906
59029W        W29629  22.627  11.355   2.402
59030W        W29630   7.267  21.062   2.314
59031W        W29631   6.742  39.601  14.387
59032W        W29632  28.166  27.945  11.955
59033W        W29633  34.232  19.904  13.561
59034W        W29634   9.120  41.443   4.581
59035W        W29635   6.856  18.651   2.647
59036W        W29636   4.768  28.268   1.342
59037W        W29637  31.922  39.878   2.408
59038W        W29638   5.994  36.285   1.422
59039W        W29639   0.228  43.787   3.725
59040W        W29640  27.909  18.052  11.619
59041W        W29641  19.074  39.860  11.070
59042W        W29642  40.987   5.980   1.538
59043W        W29643   1.024  26.938   2.981
59044W        W29644   2.345   6.407  12.431
59045W        W29645  22.072  31.364   1.352
59046W        W29646  30.892  36.501  14.985
59047W        W29647   9.150  40.014   0.441
59048W        W29648   8.786  28.690   1.407
59049W        W29649  21.804  14.714   2.748
59050W        W29650  31.652   3.657   4.813
59051W        W29651  29.373  27.928  11.670
59052W        W29652  44.834  20.664  13.643
59053W        W29653  42.329   5.807  10.755
59054W        W29654   8.329  18.008  13.043
59055W        W29655  16.710  10.078   2.722
59056W        W29656  18.578  34.136  14.684
59057W        W29657  20.742  33.593   0.398
59058W        W29658  18.558  39.786   0.813
59059W        W29659  43.215   6.834  11.223
59060W        W29660  24.195  42.900   4.581
59061W        W29661   5.856  32.809  12.012
59062W        W29662  32.436   3.522   3.974
59063W        W29663  24.155  25.729  11.073
59064W        W29664  21.489  43.243  12.455
59065W        W29665  10.151  37.872  11.128
59066W        W29666   4.293  36.815  13.898
59067W        W29667  40.994  37.665   1.086
59068W        W29668   0.133  25.098   1.894
59069W        W29669   3.951  25.120   1.072
59070W        W29670  29.092  20.343  11.203
59071W        W29671  17.224   3.258   1.834
59072W        W29672  18.022  44.873   3.450
59073W        W29673  21.225  31.244  13.414
59074W        W29674   4.395  42.474  12.304
59075W        W29675  39.377  19.826  10.258
59076W        W29676   7.814  35.497   4.338
59077W        W29677   2.597  41.314  13.536
59078W        W29678   7.204  20.814   0.946
59079W        W29679  38.436   0.915  12.985
59080W        W29680   4.351  37.344   4.171
59081W        W29681  22.928   1.933  10.774
59082W        W29682   9.394   6.368  11.578
59083W        W29683  29.002  43.192   0.120
59084W        W29684   1.487  19.167  13.053
59085W        W29685  38.025  41.265   4.452
59086W        W29686  43.940  43.541   3.105
59087W        W29687   5.941  27.091  13.150
59088W        W29688  25.656  38.491   4.239
59089W        W29689  32.504  21.067   1.882
59090W        W29690  10.197  11.795   0.485
59091W        W29691  31.342  28.437  11.951
59092W        W29692  13.253  44.811  11.695
59093W        W29693  29.939  10.638   2.755
59094W        W29694  34.465  43.078  10.808
59095W        W29695  21.834  10.280  10.618
59096W        W29696  12.724  40.466   2.819
59097W        W29697  40.042  42.385   0.525
59098W        W29698   6.185  30.285   0.822
59099W        W29699  42.787  38.376   3.876
59100W        W29700  36.388  11.668   0.764
59101W        W29701  14.528  32.141   1.757
59102W        W29702   7.949   7.892   2.368
59103W        W29703   8.936  16.511   1.398
59104W        W29704  21.868   9.710   4.964
59105W        W29705   5.727  30.873  12.196
59106W        W29706   9.558  41.364   4.226
59107W        W29707  17.387  12.815  14.286
59108W        W29708  14.475  29.342   4.339
59109W        W29709  43.580  15.447  14.892
59110W        W29710   7.357  10.969  11.701
59111W        W29711  38.320  34.595  12.407
59112W        W29712  43.274  37.465   4.575
59113W        W29713  22.745  28.530  14.694
59114W        W29714  44.895   2.372   2.896
59115W        W29715  19.814  12.223  11.489
59116W        W29716  44.747  40.927  14.802
59117W        W29717  17.017  30.910   4.360
59118W        W29718  37.894  32.629  11.610
59119W        W29719  31.734  27.622   1.378
59120W        W29720   0.891  38.160   2.675
59121W        W29721  32.850  12.756   2.414
59122W        W29722   3.127  11.111  14.446
59123W        W29723   3.919  20.919  12.489
59124W        W29724  16.040  35.153  14.789
59125W        W29725   4.898  33.522  14.961
59126W        W29726  22.175   5.453   2.815
59127W        W29727  43.055  38.133  14.356
59128W        W29728  17.313  37.057   2.961
59129W        W29729  44.144  35.916   1.628
59130W        W29730  32.966   7.768   4.695
59131W        W29731   1.920  27.123  14.775
59132W        W29732  17.196  12.832  12.359
59133W        W29733  35.487  43.742  13.425
59134W        W29734  14.136  39.140   4.782
59135W        W29735  21.536  21.442  14.354
59136W        W29736   9.410  17.049  11.585
59137W        W29737  27.654  24.560   2.477
59138W        W29738   4.132  44.451  13.041
59139W        W29739  15.078  14.759  14.384
59140W        W29740  35.600  33.402  14.925
59141W        W29741  40.840  41.659  13.066
59142W        W29742   9.439  25.115   3.544
59143W        W29743  27.491  18.268   2.319
59144W        W29744  11.315   4.731  13.049
59145W        W29745  30.564   8.402  11.186
59146W        W29746  26.123  38.385  10.776
59147W        W29747  17.348  10.022  13.987
59148W        W29748   4.334  38.864  13.635
59149W        W29749  24.591  13.815  12.825
59150W        W29750  36.038  39.372   1.661
59151W        W29751   5.381  19.510   2.428
59152W        W29752  20.309  37.875  10.883
59153W        W29753   7.465  36.343   1.336
59154W        W29754   8.256  11.802   0.937
59155W        W29755  27.983  35.946   0.370
59156W        W29756   9.283   5.753  13.100
59157W        W29757  12.901  28.143  10.654
59158W        W29758  22.301   7.242   2.376
59159W        W29759  30.454  30.802  10.622
59160W        W29760  40.359  17.709   3.375
59161W        W29761  31.298  14.665  12.872
59162W        W29762  43.472  41.647  13.013
59163W        W29763  30.589  14.273   1.565
59164W        W29764  23.738  32.458  10.616
59165W        W29765  26.849  40.879  11.649
59166W        W29766  42.874  36.886  11.034
59167W        W29767   2.873  37.963  12.041
59168W        W29768  40.935  10.887   4.643
59169W        W29769   4.010  32.263   2.163
59170W        W29770  12.341  29.991   4.621
59171W        W29771  31.534  30.919   4.611
59172W        W29772   4.305   8.204   1.606
59173W        W29773  31.152  38.373  13.430
59174W        W29774  26.128   9.715   3.680
59175W        W29775  21.463  28.023  10.813
59176W        W29776  16.238  27.988   1.958
59177W        W29777   4.161   8.277  14.770
59178W        W29778  18.536  17.684  14.926
59179W        W29779   5.471  26.533   0.354
59180W        W29780  22.170  15.552  13.879
59181W        W29781   8.765   6.439   4.494
59182W        W29782  43.822  28.885  12.966
59183W        W29783  22.458  39.755   4.176
59184W        W29784  36.217  44.920   3.234
59185W        W29785  43.960  16.102   0.624
59186W        W29786  24.932  22.986   4.154
59187W        W29787  15.870   4.939   2.850
59188W        W29788  40.438   9.524   1.361
59189W        W29789  15.122  16.656   0.743
59190W        W29790  29.609   7.960   2.688
59191W        W29791  13.146  12.158  11.960
59192W        W29792  17.267  10.699  12.430
59193W        W29793   7.321  37.096  12.101
59194W        W29794  40.887  37.596  13.043
59195W        W29795  37.563   8.046   0.886
59196W        W29796   1.451  34.366   1.817
59197W        W29797  23.947  33.619  11.143
59198W        W29798  17.564  12.378  13.359
59199W        W29799  26.239   0.912   5.094
59200W        W29800  43.361  44.483   2.752
59201W        W29801  33.353   2.569  14.801
59202W        W29802   9.228  39.272   0.778
59203W        W29803   5.166  27.914  11.908
59204W        W29804  11.803  16.326   0.838
59205W        W29805  30.039  27.231   4.519
59206W        W29806   3.550  15.776   0.509
59207W        W29807  41.769  28.563   2.757
59208W        W29808  42.349  18.540   2.390
59209W        W29809   8.422  16.978   0.238
59210W        W29810   1.243  20.305  13.430
59211W        W29811   6.842   7.621  12.401
59212W        W29812   4.709  44.229  13.818
59213W        W29813  25.893  33.570  14.391
59214W        W29814  17.712  14.832   2.680
59215W        W29815  13.280  43.811  14.709
59216W        W29816   8.391  42.608  11.446
59217W        W29817  20.329  26.933  10.842
59218W        W29818  44.325  29.762  12.052
59219W        W29819   2.695  29.000  12.110
59220W        W29820  10.178  29.629   4.568
59221W        W29821  44.306  38.859   3.326
59222W        W29822   8.696   3.560  13.632
59223W        W29823  38.314  40.407  13.516
59224W        W29824  34.606  24.542   0.739
59225W        W29825  43.808   3.771  12.796
59226W        W29826  29.356  12.487   3.872
59227W        W29827  43.368   3.755  14.544
59228W        W29828  15.261  16.854  14.857
59229W        W29829  29.215  43.846   0.871
59230W        W29830  28.301   6.625   4.768
59231W        W29831  12.161  32.274   4.945
59232W        W29832  44.508  44.980   0.486
59233W        W29833  25.960  26.563  12.595
59234W        W29834  20.184  27.745  13.543
59235W        W29835   2.659  15.196  13.070
59236W        W29836  43.236   8.740   4.151
59237W        W29837  36.055  12.915  10.643
59238W        W29838  22.084   6.957   2.802
59239W        W29839  36.220   3.144  14.483
59240W        W29840  34.837   0.423  12.571
59241W        W29841   7.796  33.181  14.971
59242W        W29842  29.143  39.138   2.757
59243W        W29843  39.530   3.924  13.279
59244W        W29844  35.163  39.366  13.420
59245W        W29845  41.831  35.910  12.508
59246W        W29846   7.280  41.025  11.822
59247W        W29847  28.038  19.265  13.337
59248W        W29848  11.193  42.749  11.839
59249W        W29849   8.300  23.328   1.987
59250W        W29850  25.044   5.124   2.176
59251W        W29851   5.370  38.973   3.476
59252W        W29852  39.626  23.743   0.881
59253W        W29853  35.193  19.761   4.203
59254W        W29854  28.192  41.720  14.430
59255W        W29855   6.140   7.202   5.167
59256W        W29856  13.572  23.514   1.908
59257W        W29857  26.182  30.648  12.242
59258W        W29858  13.166  33.039  11.604
59259W        W29859   5.982  17.197  10.235
59260W        W29860  27.009  38.521   0.975
59261W        W29861   3.488  29.198   2.695
59262W        W29862  43.221  20.620   1.707
59263W        W29863  14.271  14.581   1.903
59264W        W29864  12.367  19.743  13.259
59265W        W29865  29.546  32.204  11.156
59266W        W29866  24.223   7.751  14.371
59267W        W29867  25.615   3.455  14.529
59268W        W29868  37.020   4.859   1.145
59269W        W29869   6.830  15.017   1.254
59270W        W29870  44.085  34.971  13.871
59271W        W29871   2.082  35.094   3.188
59272W        W29872   0.725  15.737   5.047
59273W        W29873  28.260  24.751   4.846
59274W        W29874  19.305  13.716   1.505
59275W        W29875  20.670  42.233  13.534
59276W        W29876   6.190  23.075   3.702
59277W        W29877  39.317   6.236  13.071
59278W        W29878  11.051  44.828   2.854
59279W        W29879  30.982  22.216   4.023
59280W        W29880  13.756  31.631  10.683
59281W        W29881  30.669  42.560   5.008
59282W        W29882   2.022  19.586   1.685
59283W        W29883  35.546   3.797   2.422
59284W        W29884  43.269  35.990  14.206
59285W        W29885  27.712   0.176  13.748
59286W        W29886  30.193  18.620  11.759
59287W        W29887  25.049  36.883   1.687
59288W        W29888  16.922  24.416   2.723
59289W        W29889  12.219  31.937  13.908
59290W        W29890   1.295  43.771   2.657
59291W        W29891  37.183  24.681   4.089
59292W        W29892  15.960  39.900  11.024
59293W        W29893  32.602  25.026   4.869
59294W        W29894  32.754  37.845  11.284
59295W        W29895  23.258  26.805  11.933
59296W        W29896  16.581  17.016   1.960
59297W        W29897  14.201  37.307   4.675
59298W        W29898  30.915  35.086   0.990
59299W        W29899   4.712  21.738   3.586
59300W        W29900  26.551  24.299  13.816
59301W        W29901  17.048  23.265  10.714
59302W        W29902  10.867  42.585  10.931
59303W        W29903  43.104  13.065   2.347
59304W        W29904  40.847  41.806  13.562
59305W        W29905  24.130  36.543  14.974
59306W        W29906  36.924  15.385   4.645
59307W        W29907  25.466   1.768   3.264
59308W        W29908  27.228  30.555   3.485
59309W        W29909  27.129  27.176   0.382
59310W        W29910  31.038   9.861  14.146
59311W        W29911   6.879  11.579  13.995
59312W        W29912   0.643  21.616  14.667
59313W        W29913  28.150  15.402  11.077
59314W        W29914  14.019   1.965  11.584
59315W        W29915  43.746  43.917  12.352
59316W        W29916  11.889  28.477   1.342
59317W        W29917  38.459  36.245   0.264
59318W        W29918  20.038   2.172  13.005
59319W        W29919  26.658   3.843   3.717
59320W        W29920  16.679  22.080  12.414
59321W        W29921  33.046  13.565  12.667
59322W        W29922  10.723  40.728   2.287
59323W        W29923  20.941  34.433  14.904
59324W        W29924  19.377   3.047   0.658
59325W        W29925   1.359  12.637   4.833
59326W        W29926  39.548  44.312   3.829
59327W        W29927  31.959   9.573  10.682
59328W        W29928   6.647  17.279   4.980
59329W        W29929   9.929   1.808  12.915
59330W        W29930  29.874  34.968   2.106
59331W        W29931   5.676   8.224  13.725
59332W        W29932  33.965  26.855   3.552
59333W        W29933  13.378  10.426   3.900
59334W        W29934  37.370  24.724  11.180
59335W        W29935  10.837  13.354  10.622
59336W        W29936  30.039  27.747  13.183
59337W        W29937  40.352   1.546   3.847
59338W        W29938  20.613  26.616  13.813
59339W        W29939  35.536  20.713   2.216
59340W        W29940   3.112  39.865  11.057
59341W        W29941   6.431  34.332  13.920
59342W        W29942  40.709  14.327   1.326
59343W        W29943  21.292  43.711   0.428
59344W        W29944  15.155   3.376   4.592
59345W        W29945  23.423   2.966   1.388
59346W        W29946   5.248  25.716   3.821
59347W        W29947  26.552  40.261   4.577
59348W        W29948   9.204  11.164   4.199
59349W        W29949  36.579  16.101  11.187
59350W        W29950   7.389   5.972   2.298
59351W        W29951  15.682  31.501   3.809
59352W        W29952   4.665  41.145   4.614
59353W        W29953  12.926  22.675   3.655
59354W        W29954  25.190  24.821   3.829
59355W        W29955   9.508  40.424   2.098
59356W        W29956  41.680  13.750  14.302
59357W        W29957   2.479   3.671   3.237
59358W        W29958  39.876  11.846  13.917
59359W        W29959  17.137  25.455  12.413
59360W        W29960  17.757  15.284  11.092
59361W        W29961  34.588  36.838  11.995
59362W        W29962   6.722  31.333  12.212
59363W        W29963  31.856  19.976   2.852
59364W        W29964   2.052  16.896  12.868
59365W        W29965  28.195  44.578   3.145
59366W        W29966  31.156  38.083   2.751
59367W        W29967  18.611  33.051  13.383
59368W        W29968  33.683  18.422  14.938
59369W        W29969  18.012  40.895   1.377
59370W        W29970  36.043  35.088  14.725
59371W        W29971   3.535  42.977   5.270
59372W        W29972   8.404   2.089   2.738
59373W        W29973  41.261  28.986   4.724
59374W        W29974   3.520   8.811  14.512
59375W        W29975  12.610  11.153   1.753
59376W        W29976   0.782  16.834  13.415
59377W        W29977   7.004  16.795  11.669
59378W        W29978  38.905  40.620   1.206
59379W        W29979  27.729   4.699   2.835
59380W        W29980  19.356  23.201   2.773
59381W        W29981   4.357  39.949  11.571
59382W        W29982   6.130   2.416  12.461
59383W        W29983   0.149  24.400  12.301
59384W        W29984  17.553  31.700   1.352
59385W        W29985  30.343   6.925  14.376
59386W        W29986  10.342  41.930  13.971
59387W        W29987  27.953  29.017  12.398
59388W        W29988  31.600  28.056  11.204
59389W        W29989  20.037   1.068  12.436
59390W        W29990  33.172  25.562  12.820
59391W        W29991  38.108   7.155  10.517
59392W        W29992  39.602   2.019   1.743
59393W        W29993  17.315  21.032  12.016
59394W        W29994  20.071  37.334   0.067
59395W        W29995  11.919  28.971   2.730
59396W        W29996  44.539  17.183   1.909
59397W        W29997  23.550  32.861   0.363
59398W        W29998  13.701  20.030  13.783
59399W        W29999  44.295   1.527   0.124
59400W        W30000  41.743  39.551   2.753
59401W        W30001  38.736   6.197   1.305
59402W        W30002  22.643   3.518   4.596
59403W        W30003   0.446   2.508   2.246
59404W        W30004  10.080  40.359  10.793
59405W        W30005  25.025  37.367   1.311
59406W        W30006  26.499   5.766  14.797
59407W        W30007  41.117  23.660  12.379
59408W        W30008  12.434  36.050  11.541
59409W        W30009  23.532  19.671   4.657
59410W        W30010  29.129  37.413  13.909
59411W        W30011  30.026  20.203  14.857
59412W        W30012  22.508  42.774  10.703
59413W        W30013  24.454  12.906  11.433
59414W        W30014  32.613  32.810   1.736
59415W        W30015  37.102  31.956   0.573
59416W        W30016  28.119   3.428  13.910
59417W        W30017   5.861   5.612   1.753
59418W        W30018  25.870  38.992  12.628
59419W        W30019  31.951   5.163   5.103
59420W        W30020  10.674  27.264  14.724
59421W        W30021  41.346  38.944  12.872
59422W        W30022  36.962  20.757  14.321
59423W        W30023   0.386  38.084   2.472
59424W        W30024  14.113   8.335   4.258
59425W        W30025   5.712   9.507   1.459
59426W        W30026  23.002  24.706  12.028
59427W        W30027   7.495  29.970   4.132
59428W        W30028  10.613  32.585   0.613
59429W        W30029  11.411  23.541   4.558
59430W        W30030   7.970   1.204  14.718
59431W        W30031   7.604  19.289  13.444
59432W        W30032  10.274  19.070   4.496
59433W        W30033  11.705   6.168  12.224
59434W        W30034  31.749  39.742  12.055
59435W        W30035  34.782  36.863  11.197
59436W        W30036  39.317  30.526  12.066
59437W        W30037  24.152   6.387   2.852
59438W        W30038  30.135   7.248  12.411
59439W        W30039   3.808  22.722  13.832
59440W        W30040  37.442  22.911  14.482
59441W        W30041   3.053  20.746  10.461
59442W        W30042  41.595  42.818  12.386
59443W        W30043  33.047  29.952  14.855
59444W        W30044   4.509   7.481   4.119
59445W        W30045  33.348  33.896  13.788
59446W        W30046  30.161  34.069  14.079
59447W        W30047  28.393  28.646   0.818
59448W        W30048   6.764   4.447   3.661
59449W        W30049  25.453  33.404  12.023
59450W        W30050   6.397   8.929  11.546
59451W        W30051  19.434  27.857   5.538
59452W        W30052   8.373   6.440   2.788
59453W        W30053  21.456  15.356   2.298
59454W        W30054   9.132  37.522   2.777
59455W        W30055  26.727  16.925  14.735
59456W        W30056   6.668  26.009  11.131
59457W        W30057  21.277  43.223   3.529
59458W        W30058  23.806  36.920   3.585
59459W        W30059  16.686  32.055  10.366
59460W        W30060   4.197  20.675  11.571
59461W        W30061   8.913  24.051   2.466
59462W        W30062  35.992   3.418  11.118
59463W        W30063  29.909  33.091   2.161
59464W        W30064  42.252  16.770  12.790
59465W        W30065  41.977  16.080   3.771
59466W        W30066  43.881   1.433  12.429
59467W        W30067  19.229   5.283  12.973
59468W        W30068  17.482  23.584   1.373
59469W        W30069  22.785  18.467  11.550
59470W        W30070  37.780   3.744  14.910
59471W        W30071  17.687  37.981  12.037
59472W        W30072   9.469  23.302   4.128
59473W        W30073  13.348  20.083   3.635
59474W        W30074   4.390  35.003   4.776
59475W        W30075  28.665  15.887  12.163
59476W        W30076   9.303   3.199  12.446
59477W        W30077   9.359  31.383  10.734
59478W        W30078  30.135  32.101  12.011
59479W        W30079  31.414   6.379  12.941
59480W        W30080  34.234  29.960  14.777
59481W        W30081  11.739   7.425   5.092
59482W        W30082   9.572  38.909   0.069
59483W        W30083   2.310   1.115   1.184
59484W        W30084   8.697  31.915   4.502
59485W        W30085   5.046  14.073   3.124
59486W        W30086  19.626   5.411  13.960
59487W        W30087  11.231  28.526   3.754
59488W        W30088  39.328  15.653  14.428
59489W        W30089  17.475  29.582  11.901
59490W        W30090  23.148  29.660  13.600
59491W        W30091  26.166  34.038   2.823
59492W        W30092   4.471  44.116  10.986
59493W        W30093  30.997  35.319  11.156
59494W        W30094   0.103  24.158  10.603
59495W        W30095  41.283  41.920   4.616
59496W        W30096  10.124  31.643   3.411
59497W        W30097  20.642  23.104   0.285
59498W        W30098  25.289  43.799  14.749
59499W        W30099  35.072  30.154  13.554
59500W        W30100   7.906  35.320  14.030
59501W        W30101  32.000  44.249   0.940
59502W        W30102  11.205  19.103   0.278
59503W        W30103  44.077  32.477   0.365
59504W        W30104  10.585   3.739  14.480
59505W        W30105  25.092  35.846  14.275
59506W        W30106   3.441   6.008  14.476
59507W        W30107  13.507  33.641  13.387
59508W        W30108  10.338  40.964   2.991
59509W        W30109  34.780   3.968   4.386
59510W        W30110  40.475  30.625  10.398
59511W        W30111  23.727  23.429   3.773
59512W        W30112  43.732  43.191   1.769
59513W        W30113  13.627  12.110   2.882
59514W        W30114  11.682  43.722   1.861
59515W        W30115   1.288  18.559   4.329
59516W        W30116  27.668  40.519  10.713
59517W        W30117  35.997  43.886  14.775
59518W        W30118  26.611  16.187   2.786
59519W        W30119  31.727  16.059   3.149
59520W        W30120  16.149  21.423   2.935
59521W        W30121  40.634  12.874  10.748
59522W        W30122  30.985  40.713  14.737
59523W        W30123   3.413   0.548   3.605
59524W        W30124  18.857   2.226  11.924
59525W        W30125  13.572  35.471   2.913
59526W        W30126  32.598   7.381   4.691
59527W        W30127  25.153  14.977   0.003
59528W        W30128  27.242   7.127   3.333
59529W        W30129  42.017  37.202   4.102
59530W        W30130   4.842  27.464  13.939
59531W        W30131  18.862  38.381   2.227
59532W        W30132  43.291   6.550   3.342
59533W        W30133  10.245  24.467   2.221
59534W        W30134   7.319  16.658   2.810
59535W        W30135  22.596  13.682   4.608
59536W        W30136  43.481  24.009  11.480
59537W        W30137  24.627  17.540  13.841
59538W        W30138   7.288  32.126  11.993
59539W        W30139  23.248  26.750  11.214
59540W        W30140  38.374  38.804  13.035
59541W        W30141  20.285  23.506   2.693
59542W        W30142  12.293  36.568   2.888
59543W        W30143  20.754  26.055   3.265
59544W        W30144  13.550  19.638   0.279
59545W        W30145   0.743  32.120  11.544
59546W        W30146  11.309  27.612   1.387
59547W        W30147  32.128  14.357   2.434
59548W        W30148  20.193  21.679  11.440
59549W        W30149   0.404  23.876  11.240
59550W        W30150  18.898   2.970   0.843
59551W        W30151  29.893  33.658   3.747
59552W        W30152  38.328  32.351  11.518
59553W        W30153  25.842  29.011   1.351
59554W        W30154   0.912  28.305   2.259
59555W        W30155  42.456  40.776  12.088
59556W        W30156  17.269  40.907  12.671
59557W        W30157  16.177  30.438   3.802
59558W        W30158  23.851  32.463   2.730
59559W        W30159  32.584   7.312  11.567
59560W        W30160  32.898   4.836   3.251
59561W        W30161  39.517   5.380   2.911
59562W        W30162   4.669  36.979  14.217
59563W        W30163  21.731  36.740   0.333
59564W        W30164  28.732   5.274  11.927
59565W        W30165   8.822  27.382   2.884
59566W        W30166  22.489  43.934  13.487
59567W        W30167   7.509  14.249   3.575
59568W        W30168  28.499  25.452   0.760
59569W        W30169  26.956  16.116  14.781
59570W        W30170  20.360  24.855  11.116
59571W        W30171  18.751  16.705  14.484
59572W        W30172  43.272  30.597   0.090
59573W        W30173   1.162   7.720   2.778
59574W        W30174   3.257  35.947   4.123
59575W        W30175  36.879  44.392  13.915
59576W        W30176   1.307  34.674  11.983
59577W        W30177  23.252  20.761   3.838
59578W        W30178  40.602  40.306   1.300
59579W        W30179  23.719   1.787   4.384
59580W        W30180   7.780  43.541   3.139
59581W        W30181  27.360  36.926  12.550
59582W        W30182  24.456  35.511  14.695
59583W        W30183  35.299  36.047  14.317
59584W        W30184  13.558   9.607   2.237
59585W        W30185  11.633  39.680  13.168
59586W        W30186  32.016   7.707   1.460
59587W        W30187  29.556  44.309  14.028
59588W        W30188  26.008  24.909   3.754
59589W        W30189  32.922  29.630   0.723
59590W        W30190  11.639  40.268   4.677
59591W        W30191  39.856  30.474   2.838
59592W        W30192   3.728  20.682   0.509
59593W        W30193  13.811  28.435   0.752
59594W        W30194  31.511  33.145  13.910
59595W        W30195  34.073  32.238  11.105
59596W        W30196   7.590  30.900   0.911
59597W        W30197   6.255  24.732  11.224
59598W        W30198  23.566   1.961  11.638
59599W        W30199  37.234  35.787  13.312
59600W        W30200  23.935  10.945  12.440
59601W        W30201   3.858  12.583   0.764
59602W        W30202  10.484  40.370  12.511
59603W        W30203  33.591  37.904  10.747
59604W        W30204  37.768  35.972   2.231
59605W        W30205  21.569  30.053   3.325
59606W        W30206   9.677   5.848   0.813
59607W        W30207  38.762   6.744   0.459
59608W        W30208  22.276  36.013  12.463
59609W        W30209  13.113  23.769  14.514
59610W        W30210  22.967  17.296  14.322
59611W        W30211  23.784  41.958  11.111
59612W        W30212   3.568  29.844   4.916
59613W        W30213   4.717  42.375  14.931
59614W        W30214  26.244  18.329   2.399
59615W        W30215  40.085   5.701   1.275
59616W        W30216   2.038  23.541   0.016
59617W        W30217  21.709   4.317  14.778
59618W        W30218  38.591  37.509   4.656
59619W        W30219  35.422  28.186   0.754
59620W        W30220  14.264  40.400  10.014
59621W        W30221  44.530  32.588  10.690
59622W        W30222  24.409  18.512   0.981
59623W        W30223  38.792  36.324  10.090
59624W        W30224  33.972  22.188  14.493
59625W        W30225  15.020   5.231  14.345
59626W        W30226  37.926  34.424   4.144
59627W        W30227  32.153  39.107   4.613
59628W        W30228  41.104  13.011   0.355
59629W        W30229   3.188  22.514   0.518
59630W        W30230  39.317  19.753   1.761
59631W        W30231   1.382   4.700  14.927
59632W        W30232  27.194  10.248   2.288
59633W        W30233  23.694  11.529  10.990
59634W        W30234  10.617  29.214   4.254
59635W        W30235  17.604  23.001   4.105
59636W        W30236  27.521  26.280   0.356
59637W        W30237  35.422  11.893  13.584
59638W        W30238  44.572  20.076   2.846
59639W        W30239   1.248  31.081   4.552
59640W        W30240   2.140   6.456   1.771
59641W        W30241   6.888   2.788   0.425
59642W        W30242  27.410  31.513   0.484
59643W        W30243   4.814  27.092   0.869
59644W        W30244  24.714   3.971  14.932
59645W        W30245  26.642  38.961  13.958
59646W        W30246  40.458   4.221  13.444
59647W        W30247  31.926  15.687  10.874
59648W        W30248  40.746   1.461  14.273
59649W        W30249  36.870  14.273  12.846
59650W        W30250  41.824  37.940   1.346
59651W        W30251  15.622   5.955   0.803
59652W        W30252  12.787  22.983   2.940
59653W        W30253  44.913   7.550   0.203
59654W        W30254  19.964   0.405   4.651
59655W        W30255  10.403  38.850  13.001
59656W        W30256   3.493  19.080  11.170
59657W        W30257  11.443  29.088   0.722
59658W        W30258   3.176  12.357   1.164
59659W        W30259   2.668  43.847  10.725
59660W        W30260  30.527  44.259  10.612
59661W        W30261  22.008  39.385   3.570
59662W        W30262  38.019  40.297   1.364
59663W        W30263  31.694   8.909   2.170
59664W        W30264  12.218  23.923  13.047
59665W        W30265   8.677   4.495  11.543
59666W        W30266  28.506  30.943   3.423
59667W        W30267  21.575  27.546   0.107
59668W        W30268  26.644  32.062   3.349
59669W        W30269  13.070   1.920  14.745
59670W        W30270  44.369  19.424   4.795
59671W        W30271  33.191  42.982  11.920
59672W        W30272   6.990  38.308   0.809
59673W        W30273  43.879  44.019   1.422
59674W        W30274  36.363  29.159  10.762
59675W        W30275  22.446  38.135  14.436
59676W        W30276  30.585  39.960   2.677
59677W        W30277  20.589  19.428   1.854
59678W        W30278  40.904  13.194  14.896
59679W        W30279  42.377   3.796   0.677
59680W        W30280  38.486  42.024  13.577
59681W        W30281  40.920  19.331  12.101
59682W        W30282   8.781  34.805   0.321
59683W        W30283  25.506  42.244   2.817
59684W        W30284  41.873  22.628   3.764
59685W        W30285  41.351  16.313   2.778
59686W        W30286  32.816  21.065   3.280
59687W        W30287  28.889  43.767  14.407
59688W        W30288  16.106  10.695  13.931
59689W        W30289   2.276  31.412   2.852
59690W        W30290  22.429  30.121  13.462
59691W        W30291   3.981   7.493  13.272
59692W        W30292  40.220  35.110  12.334
59693W        W30293  18.088  44.414  12.089
59694W        W30294  36.834   9.313  12.367
59695W        W30295  36.879  24.186   0.314
59696W        W30296   0.549  23.202  10.727
59697W        W30297  30.740  19.153   4.785
59698W        W30298  40.041  24.976   4.681
59699W        W30299  42.040  13.907   2.680
59700W        W30300  28.638  27.858   3.285
59701W        W30301  19.739  20.662   4.850
59702W        W30302   7.138  28.065   4.681
59703W        W30303  26.482  26.003  14.267
59704W        W30304  37.627   7.202  10.708
59705W        W30305  12.088   6.769   0.908
59706W        W30306  44.945  41.225   0.823
59707W        W30307  24.856  35.760   1.723
59708W        W30308   9.854  11.936   4.293
59709W        W30309  31.594  13.796  14.838
59710W        W30310   0.898  17.237  11.379
59711W        W30311   7.409  39.671  11.891
59712W        W30312   4.322   5.063   3.728
59713W        W30313   5.755  22.698  11.122
59714W        W30314  10.020   6.690  13.391
59715W        W30315  40.257  33.640  14.740
59716W        W30316  18.316  35.065  13.145
59717W        W30317  37.751  23.633   0.312
59718W        W30318  30.993  10.507   2.763
59719W        W30319  20.069  37.148   0.924
59720W        W30320   8.151  10.853   0.265
59721W        W30321  38.981   2.465   0.463
59722W        W30322   0.795   2.848   2.427
59723W        W30323  29.369  26.432   0.612
59724W        W30324  37.669  31.056   0.399
59725W        W30325  38.058  24.238  14.521
59726W        W30326   3.677   9.366  13.480
59727W        W30327  41.340   6.406  12.847
59728W        W30328   0.356  42.859   0.456
59729W        W30329  30.123   3.869   3.747
59730W        W30330  39.310   3.939  12.820
59731W        W30331  41.966  25.859   4.655
59732W        W30332  37.147  15.335   1.863
59733W        W30333  27.506  36.217   4.660
59734W        W30334  19.282  34.831   1.860
59735W        W30335  10.966  30.713  11.958
59736W        W30336   0.869  17.200  11.879
59737W        W30337  17.315  35.109   0.933
59738W        W30338  17.331  38.085   1.344
59739W        W30339   8.664   7.065   3.277
59740W        W30340  17.662  37.540  11.221
59741W        W30341  41.306  25.635  10.614
59742W        W30342  22.874   8.826   1.590
59743W        W30343   7.620  32.829   0.419
59744W        W30344  41.839  24.214  11.225
59745W        W30345  39.133   9.862  12.519
59746W        W30346   1.281   0.921  11.454
59747W        W30347  42.459  11.857  14.899
59748W        W30348  39.390  31.981   4.245
59749W        W30349  34.048  14.843   0.402
59750W        W30350   6.105  41.813   0.201
59751W        W30351  11.258  24.447   0.893
59752W        W30352  36.418   3.981   0.005
59753W        W30353  41.079  28.926  14.508
59754W        W30354  13.444  11.010   1.382
59755W        W30355  41.742  42.603   2.172
59756W        W30356  17.542  19.941   1.325
59757W        W30357  25.134   9.396  14.808
59758W        W30358  24.006  19.311  11.490
59759W        W30359  16.201  33.208  11.201
59760W        W30360  18.636   2.869   5.431
59761W        W30361  39.737  14.582  14.953
59762W        W30362  11.261  38.196   3.803
59763W        W30363  27.626  15.184  13.452
59764W        W30364  27.472  34.522   3.625
59765W        W30365  35.963  13.871   1.387
59766W        W30366  10.148  14.885  12.892
59767W        W30367  23.564  32.466  13.614
59768W        W30368   5.130  20.235  14.375
59769W        W30369  37.135  13.094   2.310
59770W        W30370  36.929  16.677  14.216
59771W        W30371  19.445   3.158  14.321
59772W        W30372  32.536  31.293   4.469
59773W        W30373  18.650  23.458  13.015
59774W        W30374  14.393  32.628  11.104
59775W        W30375  37.820  32.879   0.229
59776W        W30376  21.728  17.661   2.583
59777W        W30377  28.215  14.136  12.473
59778W        W30378  37.901  17.300  11.533
59779W        W30379  39.891  33.962   0.601
59780W        W30380  35.369  27.843  12.058
59781W        W30381  26.245  15.557  12.902
59782W        W30382  26.220  38.466   4.907
59783W        W30383  42.561  32.607  13.568
59784W        W30384  14.842  39.816   4.614
59785W        W30385  27.133  27.940   1.659
59786W        W30386  30.123  19.790  12.315
59787W        W30387  21.069  21.664  11.976
59788W        W30388  35.974   0.364   2.373
59789W        W30389  10.131  28.602  12.742
59790W        W30390  32.245   2.451   4.718
59791W        W30391  31.167  28.609  10.644
59792W        W30392  19.669  16.630   3.575
59793W        W30393  37.833  43.857   1.425
59794W        W30394  23.814   7.188  10.236
59795W        W30395   0.541   0.460   3.286
59796W        W30396   4.729  14.148  12.119
59797W        W30397   1.281  37.585  13.490
59798W        W30398  16.352  28.948  10.049
59799W        W30399  18.395   6.269   2.840
59800W        W30400  16.156  23.216  11.110
59801W        W30401   2.175  31.520  12.009
59802W        W30402  42.551  30.925  13.791
59803W        W30403  43.996  13.761   3.366
59804W        W30404  19.585  25.007   0.907
59805W        W30405  37.420  38.026  12.523
59806W        W30406  31.402  21.831  12.625
59807W        W30407  12.847  40.014  12.548
59808W        W30408  27.201  26.680  12.967
59809W        W30409  24.356  33.195  12.012
59810W        W30410  39.259  16.075   4.074
59811W        W30411  17.212  44.110  12.614
59812W        W30412  11.534  16.246   3.595
59813W        W30413  17.123  26.794  12.029
59814W        W30414   1.231  44.522  12.920
59815W        W30415  29.486  18.603  12.961
59816W        W30416  26.038  40.869   3.229
59817W        W30417  28.945  26.181  13.059
59818W        W30418  34.892   7.140   4.335
59819W        W30419  44.289  19.691   0.225
59820W        W30420  14.578   7.770  14.524
59821W        W30421  44.736  35.984  14.439
59822W        W30422  22.376  20.007   4.124
59823W        W30423   7.779  31.493   3.479
59824W        W30424  35.098  23.613   0.887
59825W        W30425  30.699   5.977  13.474
59826W        W30426   1.073  40.465  11.604
59827W        W30427  33.361   0.700  14.272
59828W        W30428  25.584   9.535   1.262
59829W        W30429  28.433  12.908  13.921
59830W        W30430  10.327  14.720   0.396
59831W        W30431  43.516  31.406  12.455
59832W        W30432  32.652  41.532   0.149
59833W        W30433   6.957  25.706   2.114
59834W        W30434   2.205   1.906   1.768
59835W        W30435  44.761   5.716  14.600
59836W        W30436  32.291  17.688   3.679
59837W        W30437  43.913  17.184   3.840
59838W        W30438  38.735   7.218  13.959
59839W        W30439  43.727  31.466   3.543
59840W        W30440  24.188  19.162   0.680
59841W        W30441  29.475   1.332   0.789
59842W        W30442  24.592  21.547  10.841
59843W        W30443   6.747  14.796  13.745
59844W        W30444   6.138  24.985   1.993
59845W        W30445  27.173  42.999   4.990
59846W        W30446   2.484  15.302  14.890
59847W        W30447   7.124  20.162   1.155
59848W        W30448  27.612  42.959  14.550
59849W        W30449  25.129  29.958   3.601
59850W        W30450   8.309  41.509  13.958
59851W        W30451  22.265   1.310  11.030
59852W        W30452  15.565  36.885  12.534
59853W        W30453  33.589   9.645  11.143
59854W        W30454   6.224  41.006   3.244
59855W        W30455  13.059   4.891  12.555
59856W        W30456  23.700  44.369  12.108
59857W        W30457   9.986  15.271  13.386
59858W        W30458  42.750   6.712   2.145
59859W        W30459  11.613  14.583  11.139
59860W        W30460   9.875   0.215   3.717
59861W        W30461   6.536  36.023  12.537
59862W        W30462  38.463  16.269  10.996
59863W        W30463  43.899  22.312  11.574
59864W        W30464  12.628  33.494   0.259
59865W        W30465  39.070   0.889  11.989
59866W        W30466  28.626   2.494   0.001
59867W        W30467  43.390  41.049  14.475
59868W        W30468  18.864  39.395  11.103
59869W        W30469  23.751  33.569   4.274
59870W        W30470   4.280  23.622  14.417
59871W        W30471   2.308   4.635   2.366
59872W        W30472  30.085  27.679  12.132
59873W        W30473  29.664  12.454  11.792
59874W        W30474  17.194  44.047   4.559
59875W        W30475   7.676  28.085  12.122
59876W        W30476  29.383  24.170   2.636
59877W        W30477   2.971  26.020  11.868
59878W        W30478  26.719  19.456   4.264
59879W        W30479  41.146  28.955  10.952
59880W        W30480  29.393   3.695   4.235
59881W        W30481  32.600  29.746   4.675
59882W        W30482  35.381  33.897   1.384
59883W        W30483  29.347  42.071  12.957
59884W        W30484   9.812  18.345  12.012
59885W        W30485  21.492  10.752  14.354
59886W        W30486  33.099   8.615   4.232
59887W        W30487  38.787  20.238  13.790
59888W        W30488  44.392   8.500   0.840
59889W        W30489  17.738  25.257   1.062
59890W        W30490  33.526   3.453   2.397
59891W        W30491  16.819  16.632  13.107
59892W        W30492  34.478  26.598   0.861
59893W        W30493  37.347  14.244  11.228
59894W        W30494  41.424  31.444  11.716
59895W        W30495  37.798   6.915   0.332
59896W        W30496  33.906  37.876  11.148
59897W        W30497  12.449  40.083  13.833
59898W        W30498  18.716   0.737   1.321
59899W        W30499  23.508  20.224  10.483
59900W        W30500  42.971  14.724   1.441
59901W        W30501  27.290  22.526  14.429
59902W        W30502   0.676   8.919   2.309
59903W        W30503  39.754  26.761  12.876
59904W        W30504  32.040  23.935   3.601
59905W        W30505  38.225  23.672   2.302
59906W        W30506   4.782  25.735   1.769
59907W        W30507  13.693  36.464  14.473
59908W        W30508  31.386  19.698  10.645
59909W        W30509  34.752   0.953  13.040
59910W        W30510  33.986  38.521   0.257
59911W        W30511  24.550  30.005   1.485
59912W        W30512  41.866  13.157   3.861
59913W        W30513   4.595   9.430  10.271
59914W        W30514  30.156  36.351   3.263
59915W        W30515   9.963  23.145   4.153
59916W        W30516  21.517  33.069  12.611
59917W        W30517   5.293  23.444   3.625
59918W        W30518   9.608  27.455   0.649
59919W        W30519  37.857   8.928  14.409
59920W        W30520  16.113  37.877   0.674
59921W        W30521  43.531  41.545  14.387
59922W        W30522  39.578  33.319  12.910
59923W        W30523   9.341  20.801   0.916
59924W        W30524   2.943  33.959  11.747
59925W        W30525  18.699  15.261   4.071
59926W        W30526   8.365  27.336   1.234
59927W        W30527   1.405  43.402   0.793
59928W        W30528  43.586   4.547   3.746
59929W        W30529  11.317  41.504  11.471
59930W        W30530  27.009  28.398  12.442
59931W        W30531  26.672   9.868   1.742
59932W        W30532  37.941  26.251   0.848
59933W        W30533  41.879   9.785  11.989
59934W        W30534  25.111   4.967   4.233
59935W        W30535  13.613  23.921   2.240
59936W        W30536  32.857  40.099  12.502
59937W        W30537  14.043   8.401  14.711
59938W        W30538  34.780  40.333  14.198
59939W        W30539  23.471  32.002   1.294
59940W        W30540   1.292  32.519  14.821
59941W        W30541  13.998  11.715   4.678
59942W        W30542  28.984  15.638   0.536
59943W        W30543  23.630   5.995  12.567
59944W        W30544  23.524  41.517  12.698
59945W        W30545  16.775   2.848  12.036
59946W        W30546  31.969  34.546  11.914
59947W        W30547  20.485  32.733   0.420
59948W        W30548  38.778  29.879  13.941
59949W        W30549  33.399  36.759  14.451
59950W        W30550  40.787   8.329  11.149
59951W        W30551  28.012  39.444  12.908
59952W        W30552   1.690  30.194  14.886
59953W        W30553  34.191  35.306   1.313
59954W        W30554  37.000  24.211  13.457
59955W        W30555   2.353   4.947   1.947
59956W        W30556  35.301  15.641   4.846
59957W        W30557  38.001   7.403   3.205
59958W        W30558  15.609  32.556   0.910
59959W        W30559  19.841  34.106   2.034
59960W        W30560   8.643  31.633  12.844
59961W        W30561  11.495  24.231   1.313
59962W        W30562  23.128  34.892   3.988
59963W        W30563   5.436   2.811  14.813
59964W        W30564  16.151  20.860   3.782
59965W        W30565  29.580  41.899   1.248
59966W        W30566  41.868   8.243   2.668
59967W        W30567  38.368   3.245   3.016
59968W        W30568  10.126  17.691   0.470
59969W        W30569  23.663  27.686   2.340
59970W        W30570   2.712  18.321  13.651
59971W        W30571  32.414  10.160   0.849
59972W        W30572  44.147  30.939   3.556
59973W        W30573  10.153  16.314  13.029
59974W        W30574  44.885  42.140  14.369
59975W        W30575  14.700  25.714  13.046
59976W        W30576   2.449  10.113   4.901
59977W        W30577   1.818  14.070   4.322
59978W        W30578  42.579  21.096   1.377
59979W        W30579  26.742  16.296   1.416
59980W        W30580   8.323   9.422   3.128
59981W        W30581   0.455  17.564  13.960
59982W        W30582   5.874  14.092   0.577
59983W        W30583   9.545  22.994   0.018
59984W        W30584  20.270  24.072  14.582
59985W        W30585  34.071  16.763   1.860
59986W        W30586   5.834   8.069   0.261
59987W        W30587  39.780   5.851   5.050
59988W        W30588   5.948  27.245  14.942
59989W        W30589  29.456  20.669  10.659
59990W        W30590  15.222   5.170   0.847
59991W        W30591  27.664  40.985  14.397
59992W        W30592  23.779   5.089   0.915
59993W        W30593  14.966  15.207   1.894
59994W        W30594  38.751   4.904   4.519
59995W        W30595  28.472   7.519   4.989
59996W        W30596   1.178  11.903  14.742
59997W        W30597  30.948  23.471   3.815
59998W        W30598   1.289  19.583   2.775
59999W        W30599  14.719  19.711  14.953
60000W        W30600  36.095  41.289   2.707
60001W        W30601   9.653  20.233   4.351
60002W        W30602  31.597  19.450   4.562
60003W        W30603   7.416  39.871  13.651
60004W        W30604  12.561  16.830   0.841
60005W        W30605  23.159   1.140  12.899
60006W        W30606  20.806   8.281  14.970
60007W        W30607  28.467  15.526  12.515
60008W        W30608  36.381  29.639   2.630
60009W        W30609  37.979  24.570  13.616
60010W        W30610  14.156   4.051   3.327
60011W        W30611  32.891  22.188  11.658
60012W        W30612  28.451  16.664   4.708
60013W        W30613  18.502  13.115  11.684
60014W        W30614  33.614   8.845   2.865
60015W        W30615   0.967  18.285  11.731
60016W        W30616  30.631  27.487  14.800
60017W        W30617  27.696  44.686   3.142
60018W        W30618  18.829   3.304   2.864
60019W        W30619  15.760  16.867   1.900
60020W        W30620  26.365  33.787  12.030
60021W        W30621  30.158  39.367  12.402
60022W        W30622  35.319  31.850  13.872
60023W        W30623   6.850   2.749  14.341
60024W        W30624  35.444  31.116   0.735
60025W        W30625  41.267  24.429  14.623
60026W        W30626  20.590  22.588   2.894
60027W        W30627   5.944  32.892   4.282
60028W        W30628   5.160  34.106   1.660
60029W        W30629   8.658  35.346  12.516
60030W        W30630  13.342  15.160  14.507
60031W        W30631  26.215   9.458   4.440
60032W        W30632  25.640   0.374  14.344
60033W        W30633  44.410   1.971  13.073
60034W        W30634  35.108  21.692   2.335
60035W        W30635   5.501  32.505  11.146
60036W        W30636  11.053  37.058  12.900
60037W        W30637  28.229  41.396   3.343
60038W        W30638  15.086  34.604  12.901
60039W        W30639  27.679  27.614  12.547
60040W        W30640  18.519  44.703   2.256
60041W        W30641  21.335  44.138   2.307
60042W        W30642   5.263  36.285  11.644
60043W        W30643  34.428  21.987  11.426
60044W        W30644  29.191  26.651   3.379
60045W        W30645  27.993   6.953  10.701
60046W        W30646  35.530   2.947   1.491
60047W        W30647  44.333   6.809   2.780
60048W        W30648  10.110  32.958  10.700
60049W        W30649  37.472   5.226  12.892
60050W        W30650  11.765  35.079  10.748
60051W        W30651   7.753  23.738  10.680
60052W        W30652  17.441  17.817  13.573
60053W        W30653  43.831  34.655   1.291
60054W        W30654  23.744   2.707   3.908
60055W        W30655   6.021  43.175   4.548
60056W        W30656  42.108  27.674   2.295
60057W        W30657  31.168  37.511  12.902
60058W        W30658  15.374  13.082   1.884
60059W        W30659  21.896  19.546   2.191
60060W        W30660   0.782  27.060  12.624
60061W        W30661   3.303  40.484   2.431
60062W        W30662  11.633  23.660   4.118
60063W        W30663  22.810   3.377  11.649
60064W        W30664  20.072  33.400  14.059
60065W        W30665  28.197  10.390   1.464
60066W        W30666   4.251   6.380  10.819
60067W        W30667  26.037  26.198  14.508
60068W        W30668  38.547  39.406  11.928
60069W        W30669   9.876  10.219   0.314
60070W        W30670  27.742   2.045  14.814
60071W        W30671  18.985  28.420   3.111
60072W        W30672   1.933  21.719   4.848
60073W        W30673  21.615  44.881  11.705
60074W        W30674  42.798  30.687   0.424
60075W        W30675  11.910  16.352   4.423
60076W        W30676  24.773  28.034   1.368
60077W        W30677   6.774   8.080   0.329
60078W        W30678  31.585  32.913  11.141
60079W        W30679   3.358  39.016  14.369
60080W        W30680  37.278   7.380   4.352
60081W        W30681  27.701   7.504   0.540
60082W        W30682  38.967   3.943  10.581
60083W        W30683   7.772   2.709  11.738
60084W        W30684   3.946  23.033   1.046
60085W        W30685  29.215  20.399  14.519
60086W        W30686  10.955  31.023  11.418
60087W        W30687  21.091  35.595  12.055
60088W        W30688  36.331  11.370   1.542
60089W        W30689  27.158  29.707   3.730
60090W        W30690  18.413  23.729   0.219
60091W        W30691   9.952  25.004  12.028
60092W        W30692  21.091  39.129   1.954
60093W        W30693  28.535  26.032  11.896
60094W        W30694  20.071   2.030   4.144
60095W        W30695  31.124  39.460  13.355
60096W        W30696  23.082  40.388   2.763
60097W        W30697  33.914  27.385  11.980
60098W        W30698  12.370  33.838  10.866
60099W        W30699  35.483  42.811   3.190
60100W        W30700  18.057   2.261  13.423
60101W        W30701   0.365  40.324   2.241
60102W        W30702  28.849  16.254  13.913
60103W        W30703  15.012  44.544   2.819
60104W        W30704   4.797  16.642   3.653
60105W        W30705  26.647   7.066  11.451
60106W        W30706  23.777  20.860  14.503
60107W        W30707  20.817  29.828   2.041
60108W        W30708   9.200  28.104  10.870
60109W        W30709  40.796  22.448   1.453
60110W        W30710  30.483  10.835  13.268
60111W        W30711  15.635  43.901   3.176
60112W        W30712  12.793   8.850   1.264
60113W        W30713  34.470  31.867   2.213
60114W        W30714  40.322  38.327  13.450
60115W        W30715   9.154  15.231   0.759
60116W        W30716   6.102  17.066   2.708
60117W        W30717  15.247  19.002  11.505
60118W        W30718   6.726  18.284   2.288
60119W        W30719   4.222   9.847   3.667
60120W        W30720  39.904   4.407  14.964
60121W        W30721  10.973   2.271  11.192
60122W        W30722  35.558  41.717  11.220
60123W        W30723  21.111  18.574   0.935
60124W        W30724   1.463  44.467   3.251
60125W        W30725   6.670  13.364  13.032
60126W        W30726  43.364  18.534  10.091
60127W        W30727  17.162  39.071  10.704
60128W        W30728  39.859  41.266   2.740
60129W        W30729  25.168  31.347  11.118
60130W        W30730   6.253   7.965  14.478
60131W        W30731  10.804  18.388  13.671
60132W        W30732   8.083  10.342   0.079
60133W        W30733  28.916   1.430   0.795
60134W        W30734  17.209  26.464   0.961
60135W        W30735  28.981  15.815  11.509
60136W        W30736  13.554   0.870   4.249
60137W        W30737  22.605   9.659  12.150
60138W        W30738  19.083  40.047   3.609
60139W        W30739  38.466  38.077  13.499
60140W        W30740  36.940  29.636  11.229
60141W        W30741  22.738  28.554   4.057
60142W        W30742  10.446   3.407   2.678
60143W        W30743  37.633  13.137   2.321
60144W        W30744   2.209  26.780  13.797
60145W        W30745   5.516  21.120   4.232
60146W        W30746   3.454  28.439  12.169
60147W        W30747   0.964   6.229  10.810
60148W        W30748   7.291  14.826   2.210
60149W        W30749  31.259  18.366   1.227
60150W        W30750  33.592  32.177   4.997
60151W        W30751  23.228  13.814  13.077
60152W        W30752  14.731  30.633  12.096
60153W        W30753  25.605  34.063   1.484
60154W        W30754  19.681   8.660  11.896
60155W        W30755  22.538  43.462   1.922
60156W        W30756  11.289   9.202   1.297
60157W        W30757  10.568  15.000   4.937
60158W        W30758  21.586  23.898   4.590
60159W        W30759  30.475   1.969  12.098
60160W        W30760  14.910  20.157   4.093
60161W        W30761  39.525  13.191   1.210
60162W        W30762  17.887   5.894   3.222
60163W        W30763  12.507  27.683  13.708
60164W        W30764  13.580   7.206  13.846
60165W        W30765  16.316  17.638   2.736
60166W        W30766   3.237  13.941  13.023
60167W        W30767  23.788  39.278   2.818
60168W        W30768  44.243  12.294  10.642
60169W        W30769   7.314  40.938  12.804
60170W        W30770   5.479   9.728  12.113
60171W        W30771  44.832  42.259  11.120
60172W        W30772  10.153  33.163  12.474
60173W        W30773  10.189  37.682  10.630
60174W        W30774  19.235  12.374   3.811
60175W        W30775   5.176   1.153   2.373
60176W        W30776  18.835  11.428   4.375
60177W        W30777  29.811  20.013   0.302
60178W        W30778  43.728   3.440   0.478
60179W        W30779   6.481  39.668  12.018
60180W        W30780  36.606  23.534  13.786
60181W        W30781  23.575  19.580  11.418
60182W        W30782  18.583  34.030   0.253
60183W        W30783   0.476  33.590  14.286
60184W        W30784   7.643  13.867   1.268
60185W        W30785   7.893  10.949  11.492
60186W        W30786  11.683  28.699   3.578
60187W        W30787  26.122   3.720   2.389
60188W        W30788   4.515  18.723  13.937
60189W        W30789  25.123   1.642   0.853
60190W        W30790   6.185  40.597   4.552
60191W        W30791   2.460  42.018   2.109
60192W        W30792  30.444  13.847  10.456
60193W        W30793  34.004  18.238   3.085
60194W        W30794   1.263   8.435   4.292
60195W        W30795  19.472  17.557  10.724
60196W        W30796  17.476  13.171  14.753
60197W        W30797  32.327  32.450   3.793
60198W        W30798  34.167  19.139   2.393
60199W        W30799  30.052  23.537  10.670
60200W        W30800  10.283  20.703   1.320
60201W        W30801   8.982   9.950   2.703
60202W        W30802  28.159  23.385  13.471
60203W        W30803   2.670   2.662  11.881
60204W        W30804  10.346  30.969  13.022
60205W        W30805   5.706  21.293   2.341
60206W        W30806  17.096   4.516  13.142
60207W        W30807  31.560  33.641  13.879
60208W        W30808  42.623  18.136   3.360
60209W        W30809  14.721  13.488  12.047
60210W        W30810  19.728  17.253  14.756
60211W        W30811  26.425  21.036   3.729
60212W        W30812   1.093  28.184  14.322
60213W        W30813  10.168   4.218  13.578
60214W        W30814  41.446  14.331   0.361
60215W        W30815  24.343  43.576  11.886
60216W        W30816   9.300  29.971  13.906
60217W        W30817   9.796  30.043  14.042
60218W        W30818  41.916  44.719   2.617
60219W        W30819  14.672  19.922  11.218
60220W        W30820  16.638  28.904  12.891
60221W        W30821  21.711   9.798  10.764
60222W        W30822  32.577   3.409   4.558
60223W        W30823  37.422  34.640   3.730
60224W        W30824  43.235  10.459  13.277
60225W        W30825  40.089  23.022   0.175
60226W        W30826  15.010  10.685  10.823
60227W        W30827  44.008   8.286  13.523
60228W        W30828   5.289  12.561  11.901
60229W        W30829  27.996   6.189  14.256
60230W        W30830   7.103  17.374  14.317
60231W        W30831   6.718  39.437  12.426
60232W        W30832  27.523  23.187  14.940
60233W        W30833   4.734  17.016  14.783
60234W        W30834  20.428  13.899  13.158
60235W        W30835  29.313  39.783  11.731
60236W        W30836   9.030  17.203   0.861
60237W        W30837   6.850  18.078  14.755
60238W        W30838  10.847   6.505  14.220
60239W        W30839  37.272  27.070   3.574
60240W        W30840   3.340   5.731  13.831
60241W        W30841  29.648  21.361  12.859
60242W        W30842  28.698  23.786  11.566
60243W        W30843  31.879   5.922   4.575
60244W        W30844   5.376  42.292   4.641
60245W        W30845  24.582  38.550  10.675
60246W        W30846   0.382  37.653   2.810
60247W        W30847  18.993  44.564   2.012
60248W        W30848  20.310  26.290   3.335
60249W        W30849  28.013   1.625   4.132
60250W        W30850   1.933  11.429   2.418
60251W        W30851  38.506  17.420   4.555
60252W        W30852  18.918  14.969  13.443
60253W        W30853  31.999   1.554  13.298
60254W        W30854  33.947  38.226   2.829
60255W        W30855  20.272  38.180  12.570
60256W        W30856  44.061  32.606   4.323
60257W        W30857  21.309   5.023  12.429
60258W        W30858  44.355  28.515   4.207
60259W        W30859  37.356  44.398  12.859
60260W        W30860  29.593   3.149   1.262
60261W        W30861  31.556   1.381   1.649
60262W        W30862  30.911  22.955  12.202
60263W        W30863   3.216  36.565   3.209
60264W        W30864  25.215  16.575   0.816
60265W        W30865   3.853   6.709  14.190
60266W        W30866   0.098   9.011  12.908
60267W        W30867  20.547  12.341  11.008
60268W        W30868  21.110  12.271   3.459
60269W        W30869  28.531  27.345   3.233
60270W        W30870  26.464  23.295   4.066
60271W        W30871  10.188  32.459  10.705
60272W        W30872  31.017  31.749  13.481
60273W        W30873  44.836  35.332   1.315
60274W        W30874   4.233   7.018   2.944
60275W        W30875  21.104  31.238   3.739
60276W        W30876  44.430  36.806  14.411
60277W        W30877  36.128  20.128  12.518
60278W        W30878  34.014  22.185  12.398
60279W        W30879  13.068   1.777   4.257
60280W        W30880   4.888  44.779  14.705
60281W        W30881  30.616  30.439  11.393
60282W        W30882  24.970  29.611  11.613
60283W        W30883  23.973  26.442   4.918
60284W        W30884  12.692  14.774   4.083
60285W        W30885   7.187  25.112   3.279
60286W        W30886   3.737   3.186   2.955
60287W        W30887  36.097   2.349  11.139
60288W        W30888  24.948   0.444   4.603
60289W        W30889  38.402  37.915  12.204
60290W        W30890  22.660  22.071   1.435
60291W        W30891  40.957   5.786  12.196
60292W        W30892   5.995  27.632  10.696
60293W        W30893   9.810   4.873   2.231
60294W        W30894  12.107  31.823   2.099
60295W        W30895  40.511  38.120  11.295
60296W        W30896  15.760  25.378   0.386
60297W        W30897   2.969  22.294   4.143
60298W        W30898   1.273  10.972  14.939
60299W        W30899  18.232  31.947   1.792
60300W        W30900  12.242   5.228   2.705
60301W        W30901   5.197  29.636  12.602
60302W        W30902   6.406  38.454   2.732
60303W        W30903  28.886  11.559  13.308
60304W        W30904  11.168   5.045   4.632
60305W        W30905  17.104   7.321   3.129
60306W        W30906   4.827  43.507   1.856
60307W        W30907  17.069   7.082   1.611
60308W        W30908  42.629  32.172  14.324
60309W        W30909  35.550  19.396  14.035
60310W        W30910  26.979  43.835   2.299
60311W        W30911  41.401  34.014   1.869
60312W        W30912  40.502  17.505  12.544
60313W        W30913  44.986  24.873  14.346
60314W        W30914  10.174  32.163   4.756
60315W        W30915   7.837  34.006   0.748
60316W        W30916   8.111   0.117   4.721
60317W        W30917   3.063   8.392   2.839
60318W        W30918  14.182  29.471   2.932
60319W        W30919  14.790  22.739   2.417
60320W        W30920  10.323   8.254   0.733
60321W        W30921  31.673   5.507   4.827
60322W        W30922  10.717  33.830  13.861
60323W        W30923  10.592  39.855  10.737
60324W        W30924  16.827  35.006  12.308
60325W        W30925   6.311  15.176  12.909
60326W        W30926  30.002  35.862   0.069
60327W        W30927   1.049  16.947   1.887
60328W        W30928  19.334   1.748  13.597
60329W        W30929   2.210  36.806  10.752
60330W        W30930  24.604  37.879   0.943
60331W        W30931  29.636  28.064   1.747
60332W        W30932  23.997   8.836  11.076
60333W        W30933  23.089   5.281  10.796
60334W        W30934  22.283  33.099  14.852
60335W        W30935  41.986  32.100  13.383
60336W        W30936  10.715  30.240   4.243
60337W        W30937  40.907  32.227  11.985
60338W        W30938  41.331   2.706   3.123
60339W        W30939  18.711   4.725   4.988
60340W        W30940  10.123   8.857   4.584
60341W        W30941  24.243   9.523   4.916
60342W        W30942  38.910  14.087   4.562
60343W        W30943  32.813  41.038   2.826
60344W        W30944  22.009   5.714   2.380
60345W        W30945  37.558   5.938   1.895
60346W        W30946   7.323   5.393   0.901
60347W        W30947  31.082  13.748  14.194
60348W        W30948  34.654  19.597   1.854
60349W        W30949   7.339  40.745   3.628
60350W        W30950   8.274  34.363   0.034
60351W        W30951  42.921   7.377   3.206
60352W        W30952  35.098  23.126   0.023
60353W        W30953  44.099  14.875   1.675
60354W        W30954  27.726  16.094  12.043
60355W        W30955   6.662   8.790  12.928
60356W        W30956  33.213   9.621  14.864
60357W        W30957  28.748  26.551  11.641
60358W        W30958  34.426  37.821  11.130
60359W        W30959  15.372  18.333   3.247
60360W        W30960  16.587   9.536  12.479
60361W        W30961   1.950   2.245  11.668
60362W        W30962  22.232  26.088   2.957
60363W        W30963  16.867   9.601   2.774
60364W        W30964  17.860  42.805   2.653
60365W        W30965   1.882  13.817  14.419
60366W        W30966  25.051  42.354   2.504
60367W        W30967  41.308  24.319   0.971
60368W        W30968  15.783   5.388  11.378
60369W        W30969  32.029  25.630   3.302
60370W        W30970  20.686  11.219  12.508
60371W        W30971  36.579   2.495   0.034
60372W        W30972  10.434   4.385  12.953
60373W        W30973  17.977  35.768   0.861
60374W        W30974  24.033  19.050   3.208
60375W        W30975  17.755  29.511  13.437
60376W        W30976  22.666  32.475   3.266
60377W        W30977  13.013  41.975   9.763
60378W        W30978  16.555  28.503   1.663
60379W        W30979   0.847  44.731   1.049
60380W        W30980   6.322   4.092   1.424
60381W        W30981  36.453  33.074   2.759
60382W        W30982  38.082   9.703  13.405
60383W        W30983   6.817  24.141   3.290
60384W        W30984  40.355  12.327   0.862
60385W        W30985  34.564  39.872  14.009
60386W        W30986   7.428  23.962  14.059
60387W        W30987  24.059  24.579   2.209
60388W        W30988  31.995  35.496   4.721
60389W        W30989   3.584  34.185   2.345
60390W        W30990  42.011  36.907   1.322
60391W        W30991  17.970   5.197   3.829
60392W        W30992   8.734   5.378   3.714
60393W        W30993  11.804  43.776  13.776
60394W        W30994  12.856  31.551   0.451
60395W        W30995  42.520  35.910   3.740
60396W        W30996  28.003  39.846   2.221
60397W        W30997  29.334  11.273  13.293
60398W        W30998  37.906   7.181   0.766
60399W        W30999   7.155  11.055   2.760
60400W        W31000  38.976  36.357   3.452
60401W        W31001  10.385   1.206  14.424
60402W        W31002  23.994   2.100  10.747
60403W        W31003   3.330  17.816   2.145
60404W        W31004  42.478   2.523   3.155
60405W        W31005  40.076  23.762   2.426
60406W        W31006  38.301  43.390  13.412
60407W        W31007   9.861  12.780  13.670
60408W        W31008  17.481  18.295  14.912
60409W        W31009   6.212  32.554   1.800
60410W        W31010   0.622   3.214  14.644
60411W        W31011  28.142  30.508   3.395
60412W        W31012   0.315  42.009  14.055
60413W        W31013  10.035  40.337   2.259
60414W        W31014  21.488  11.737  12.926
60415W        W31015  13.201   1.007   0.278
60416W        W31016  32.203  40.326   4.096
60417W        W31017  33.746  41.567  11.857
60418W        W31018  23.155  11.435  12.076
60419W        W31019   6.384  13.839   0.765
60420W        W31020  17.827  32.887   3.362
60421W        W31021  28.117  17.658   0.535
60422W        W31022  41.399  21.361   3.780
60423W        W31023  25.373   8.262  11.472
60424W        W31024  42.975   3.696  14.963
60425W        W31025   4.493  21.890   1.796
60426W        W31026  42.988  34.654   2.256
60427W        W31027  25.611   9.933   1.874
60428W        W31028  22.998  42.863   2.368
60429W        W31029  22.180   9.671  14.017
60430W        W31030   9.923   0.256  12.075
60431W        W31031   8.161   0.903   3.286
60432W        W31032  20.430  11.914  14.616
60433W        W31033  30.487  17.813   3.625
60434W        W31034  17.151  28.374  12.726
60435W        W31035  26.748  19.463  14.676
60436W        W31036  39.251  35.379  14.058
60437W        W31037  36.014  38.180   4.343
60438W        W31038   5.993  19.915  12.803
60439W        W31039  18.169  36.357  14.543
60440W        W31040  34.959  14.624   3.270
60441W        W31041  37.980  12.202   3.231
60442W        W31042  29.252  19.723  12.959
60443W        W31043  36.293  16.514   1.392
60444W        W31044   1.297   6.282   1.938
60445W        W31045  12.916   0.655  11.060
60446W        W31046   3.655   1.424   2.788
60447W        W31047   5.916  22.760  14.311
60448W        W31048   7.932  35.952  11.615
60449W        W31049   2.989   4.136   1.156
60450W        W31050   4.201   8.829   1.035
60451W        W31051  14.558  20.932   5.050
60452W        W31052  38.038   6.757  14.870
60453W        W31053  42.043  25.669   3.150
60454W        W31054  12.648  39.691   3.776
60455W        W31055  37.422  15.632  12.888
60456W        W31056  11.429  37.422   2.182
60457W        W31057   7.427  22.150  10.644
60458W        W31058   4.177   5.841   1.373
60459W        W31059  13.694  19.748  14.258
60460W        W31060  18.716  39.749  14.842
60461W        W31061  20.024   8.504  12.259
60462W        W31062   8.525  23.047   0.317
60463W        W31063  13.919   6.359  14.571
60464W        W31064  16.820  39.427   0.640
60465W        W31065  18.474  39.366   3.204
60466W        W31066  14.192  15.471  12.047
60467W        W31067  26.547   1.216   2.684
60468W        W31068   5.705  24.424  13.459
60469W        W31069  34.421   6.119  10.510
60470W        W31070   5.807  16.165   4.061
60471W        W31071  10.835  43.063  14.479
60472W        W31072  38.020  32.497   1.442
60473W        W31073   5.779  43.871   3.715
60474W        W31074  39.985   8.330  11.656
60475W        W31075  19.160  12.755   3.472
60476W        W31076  32.290  34.563   0.051
60477W        W31077  19.684  25.528  14.517
60478W        W31078  15.244  24.632  13.588
60479W        W31079  24.991  23.953   0.935
60480W        W31080   7.785   8.636   0.272
60481W        W31081  38.338   7.752   4.506
60482W        W31082  35.571  41.054  13.934
60483W        W31083   0.760  42.884   3.041
60484W        W31084  28.185  43.704   0.695
60485W        W31085   2.374  42.994   3.644
60486W        W31086  11.495  10.128  12.072
60487W        W31087  29.486  29.319   0.897
60488W        W31088  39.426  26.608   1.235
60489W        W31089  17.342  28.146   4.118
60490W        W31090  31.122  25.080  13.454
60491W        W31091  15.704  38.594  12.909
60492W        W31092   1.445  40.307  14.380
60493W        W31093  14.605  13.406  14.892
60494W        W31094  19.482  42.336   4.613
60495W        W31095   0.939  21.155   0.251
60496W        W31096  27.022  30.584   2.438
60497W        W31097  36.326   7.336   2.641
60498W        W31098   9.401  30.162   4.501
60499W        W31099  42.060  28.506  12.925
60500W        W31100   9.587  19.230  13.406
60501W        W31101  42.813  29.134  11.612
60502W        W31102  28.820  28.741  13.737
60503W        W31103  13.575  12.257  13.941
60504W        W31104  34.461  39.706   4.700
60505W        W31105  33.673  37.770   2.717
60506W        W31106  17.037  40.459  13.887
60507W        W31107  29.889   2.166   4.212
60508W        W31108  18.186  30.858   2.323
60509W        W31109  33.180  39.021   4.143
60510W        W31110  12.314  37.557   4.580
60511W        W31111   7.458   7.347  13.399
60512W        W31112  36.652  30.574   5.042
60513W        W31113  29.191  42.797  14.825
60514W        W31114  28.883  16.602   2.753
60515W        W31115  26.334  26.040   3.725
60516W        W31116  15.028  38.529  11.588
60517W        W31117  39.367   6.813  13.132
60518W        W31118  33.290   2.200  12.291
60519W        W31119  31.366  11.207  12.428
60520W        W31120  16.442  10.265  11.144
60521W        W31121  23.951  35.670  11.551
60522W        W31122  24.754   9.037   4.138
60523W        W31123  37.390  20.137   3.288
60524W        W31124  26.624  19.462   2.247
60525W        W31125  17.137  21.740  11.616
60526W        W31126  21.305  12.290   4.756
60527W        W31127  13.713   6.465  14.097
60528W        W31128  23.639   5.250  12.056
60529W        W31129  36.209  14.711  12.382
60530W        W31130   2.250   4.911   4.208
60531W        W31131  27.969  34.219  12.983
60532W        W31132  24.492  23.714   4.669
60533W        W31133   6.214  28.930   0.299
60534W        W31134  21.243  28.983  14.358
60535W        W31135   7.842   0.469   3.298
60536W        W31136  14.476  33.331  11.568
60537W        W31137  17.674  44.807   1.684
60538W        W31138   9.856  12.864   0.957
60539W        W31139   8.260  21.463   2.427
60540W        W31140   0.043   6.403   2.262
60541W        W31141  24.037  29.963  11.891
60542W        W31142  18.203  39.735  13.344
60543W        W31143  23.461  30.524   2.313
60544W        W31144  35.875  13.032   1.257
60545W        W31145  19.190  13.199  14.355
60546W        W31146  43.856  44.754  14.303
60547W        W31147  31.446  28.054  12.673
60548W        W31148   3.415  23.222  13.128
60549W        W31149   1.193  33.484   3.743
60550W        W31150   8.044  28.039   4.968
60551W        W31151  30.569  34.071  11.091
60552W        W31152  32.086  18.153   3.677
60553W        W31153  31.619   6.447  14.376
60554W        W31154  10.727   4.313   3.106
60555W        W31155  18.040  37.104  11.111
60556W        W31156  17.337  17.182  13.870
60557W        W31157  30.393  37.763   0.819
60558W        W31158  11.920   3.292   4.258
60559W        W31159   7.717  27.369   3.773
60560W        W31160   6.073  10.102   2.579
60561W        W31161  37.679  36.898   4.585
60562W        W31162  30.600  39.952  11.665
60563W        W31163  12.727  24.487  11.478
60564W        W31164  40.234  36.476  14.206
60565W        W31165  33.585  40.536  13.304
60566W        W31166  43.470   9.860  12.163
60567W        W31167  11.905   5.009  11.647
60568W        W31168   6.456  17.363  11.197
60569W        W31169  19.579  36.644   3.121
60570W        W31170   3.336  21.597  11.973
60571W        W31171  28.932  15.313  11.582
60572W        W31172  12.297  39.022  13.052
60573W        W31173  40.345  25.552  14.953
60574W        W31174  34.508  41.020  10.773
60575W        W31175  20.632  35.380  11.133
60576W        W31176  22.145  19.329   1.771
60577W        W31177  16.318  12.177   1.726
60578W        W31178   2.701  30.943   3.720
60579W        W31179  40.844  14.071   0.401
60580W        W31180   1.295   1.481   1.955
60581W        W31181  28.680  11.380  11.852
60582W        W31182   2.448  38.763  12.919
60583W        W31183   7.512  12.479   1.143
60584W        W31184  26.090   6.927   2.059
60585W        W31185  27.644   9.669  12.839
60586W        W31186  29.030   1.270   4.011
60587W        W31187  13.252  31.501  10.841
60588W        W31188  44.203  26.478  14.372
60589W        W31189  42.796   0.867  13.701
60590W        W31190  24.724  36.918   2.404
60591W        W31191  41.782  16.581  13.844
60592W        W31192  22.056  36.308   2.696
60593W        W31193  19.238   9.662   0.012
60594W        W31194  30.014   2.948  11.262
60595W        W31195  10.445   0.734   3.726
60596W        W31196  19.107  24.937  11.496
60597W        W31197  36.683  28.266  12.800
60598W        W31198   7.883  32.718  13.622
60599W        W31199  12.121   8.662  13.929
60600W        W31200  22.311  37.713   0.726
60601W        W31201  38.214   5.315   4.215
60602W        W31202   9.789  37.080  14.013
60603W        W31203  27.132  26.946   4.359
60604W        W31204   8.437   3.802   4.216
60605W        W31205  28.088  40.705  14.337
60606W        W31206   9.358  13.133   4.241
60607W        W31207  18.810   2.446   2.403
60608W        W31208   6.119  42.532  14.727
60609W        W31209  12.141  10.094  14.874
60610W        W31210  11.777   0.419  14.716
60611W        W31211  34.841  11.788  10.630
60612W        W31212  10.448  23.566  11.873
60613W        W31213  18.770  35.279  14.911
60614W        W31214  23.042  23.486  11.597
60615W        W31215  43.096  43.577  13.863
60616W        W31216  16.188   2.339  11.625
60617W        W31217  22.736  23.254  11.970
60618W        W31218   1.460  32.564   4.841
60619W        W31219  24.721  17.688   0.408
60620W        W31220  32.501  37.169   2.193
60621W        W31221  25.197  14.096   0.220
60622W        W31222  17.823  18.204   1.276
60623W        W31223   5.615  36.033   4.675
60624W        W31224  38.926   1.721  13.227
60625W        W31225   7.559  29.755   2.841
60626W        W31226  21.775  35.758   2.318
60627W        W31227  26.160  13.043   2.924
60628W        W31228  24.273  42.880   3.815
60629W        W31229   2.553  42.478   3.844
60630W        W31230  38.548  29.290  11.261
60631W        W31231   6.281   8.312   3.331
60632W        W31232   1.858  14.296  11.581
60633W        W31233  44.511  12.235  11.959
60634W        W31234   7.667   3.694   1.364
60635W        W31235   1.690   6.267   1.595
60636W        W31236  26.622  13.849   4.282
60637W        W31237  31.537  27.580  12.015
60638W        W31238  17.224   7.773  13.840
60639W        W31239  19.138  23.686  11.890
60640W        W31240  31.807   4.800   2.417
60641W        W31241  26.475  15.287   1.463
60642W        W31242  10.743  20.666   1.537
60643W        W31243  31.053   5.264  13.830
60644W        W31244  37.979  25.152  10.698
60645W        W31245   5.758   0.652   3.325
60646W        W31246  38.644  26.404  14.306
60647W        W31247  15.542  26.063   1.419
60648W        W31248   7.448  11.654   2.772
60649W        W31249  44.727  41.626  14.454
60650W        W31250  38.670  21.262  12.901
60651W        W31251  38.891   3.757   4.277
60652W        W31252   4.640  14.563   4.575
60653W        W31253  30.637  21.089  14.690
60654W        W31254  22.428  44.455  11.570
60655W        W31255  27.135  27.729   0.304
60656W        W31256   8.271  21.700  14.949
60657W        W31257  14.048  23.894  12.551
60658W        W31258   0.289  30.659   2.263
60659W        W31259  37.131  32.032  14.509
60660W        W31260  26.673  27.192   4.242
60661W        W31261  29.066  35.095   4.545
60662W        W31262  27.600  18.735  10.393
60663W        W31263   9.456  39.809   2.676
60664W        W31264   4.691  43.309  11.849
60665W        W31265  26.016  24.055   1.766
60666W        W31266  15.645  40.135   2.573
60667W        W31267  33.462  31.994   2.536
60668W        W31268   6.371  23.811   0.015
60669W        W31269  26.509   1.787  12.039
60670W        W31270   6.760  10.362  14.732
60671W        W31271  12.257  13.886  10.754
60672W        W31272  38.816  42.214  13.025
60673W        W31273  24.396  38.065  10.741
60674W        W31274  35.433  14.235   4.378
60675W        W31275  10.155   6.684   0.874
60676W        W31276   7.189   8.212   4.103
60677W        W31277  38.357  23.976  14.171
60678W        W31278  29.949   9.490   4.851
60679W        W31279  16.102  34.393  13.152
60680W        W31280  35.048  43.416  12.756
60681W        W31281  32.413  24.613   1.952
60682W        W31282  39.465  34.989  11.039
60683W        W31283  34.733  26.659   5.037
60684W        W31284   3.494  40.499  12.856
60685W        W31285  28.570  21.770   2.334
60686W        W31286  29.493  14.141  14.870
60687W        W31287   3.863  23.327  12.043
60688W        W31288   3.563  37.187   3.883
60689W        W31289  26.522  34.460  11.767
60690W        W31290  17.668  35.903   1.384
60691W        W31291  41.027   9.256   4.571
60692W        W31292  31.389   6.724  10.585
60693W        W31293  19.805  19.997   1.527
60694W        W31294  11.368   5.202  13.284
60695W        W31295  41.776  11.610  11.659
60696W        W31296  26.049  26.105  10.923
60697W        W31297  20.191  33.867  14.903
60698W        W31298  35.014   5.882   1.851
60699W        W31299  17.507  29.495   4.071
60700W        W31300  37.472   0.205  14.764
60701W        W31301  38.525  34.378  13.038
60702W        W31302   7.196  11.070   1.913
60703W        W31303  13.856  13.167   9.855
60704W        W31304  15.254   8.355   4.544
60705W        W31305   2.966   0.847   4.107
60706W        W31306  23.933  12.100   3.197
60707W        W31307  12.857  39.797  13.100
60708W        W31308   9.692  10.421   3.386
60709W        W31309   7.176   2.784  10.647
60710W        W31310  23.309   6.968  11.087
60711W        W31311  34.967  36.320  11.841
60712W        W31312  41.499  10.401   0.626
60713W        W31313  29.675  22.101  14.985
60714W        W31314  13.728  19.721   3.775
60715W        W31315  18.860  22.590   0.426
60716W        W31316  37.886  42.432  12.487
60717W        W31317  29.161  13.715   2.642
60718W        W31318  25.088  18.608   0.460
60719W        W31319  35.784   3.082  10.769
60720W        W31320  38.332  19.495   1.401
60721W        W31321  25.680   5.667  12.857
60722W        W31322  42.550   0.528   3.876
60723W        W31323  18.920   4.914  13.480
60724W        W31324  41.330  24.665  10.761
60725W        W31325  23.214  22.053   0.522
60726W        W31326  20.044  18.585   1.328
60727W        W31327   6.465   0.740  13.462
60728W        W31328   1.955  24.526  11.940
60729W        W31329  27.968  26.231  10.788
60730W        W31330  26.272  36.269   2.841
60731W        W31331   5.068  36.081   4.603
60732W        W31332  36.373   3.809  12.255
60733W        W31333  14.670  33.308  14.815
60734W        W31334   7.723   7.344  13.881
60735W        W31335  37.761  28.156  12.015
60736W        W31336  29.468   0.790   3.240
60737W        W31337  11.372  25.860  14.218
60738W        W31338  22.479  13.341  13.341
60739W        W31339   2.473  14.690  13.985
60740W        W31340  42.225   8.177  10.169
60741W        W31341  36.065  33.309   4.770
60742W        W31342  27.653  36.642   4.282
60743W        W31343  25.684  17.364   4.344
60744W        W31344   5.635   6.285  14.215
60745W        W31345  39.916  32.219   3.476
60746W        W31346  16.370  27.788   4.123
60747W        W31347  27.133  38.012  12.037
60748W        W31348  25.113   7.424  11.597
60749W        W31349  30.108  21.174  14.769
60750W        W31350  36.512  29.438   3.260
60751W        W31351  24.785  23.621   3.692
60752W        W31352  15.657  25.915  14.397
60753W        W31353   6.942  22.001  14.710
60754W        W31354  44.794  27.939   3.126
60755W        W31355  40.461  28.972  10.198
60756W        W31356  19.346  12.265  13.411
60757W        W31357  26.487  18.242  10.734
60758W        W31358   0.783  32.079   2.007
60759W        W31359  12.086  21.620   0.698
60760W        W31360   9.484  22.642  12.962
60761W        W31361  35.634  20.043  12.399
60762W        W31362  17.594  17.012  13.453
60763W        W31363  20.131   7.630   4.797
60764W        W31364  31.544   9.603   3.678
60765W        W31365  43.958  19.187  12.766
60766W        W31366  12.614  26.394   4.777
60767W        W31367  38.433  39.951  10.599
60768W        W31368  32.993  15.668  11.428
60769W        W31369  24.117  11.815  14.402
60770W        W31370  21.550  18.681   4.197
60771W        W31371  41.416  26.623  14.976
60772W        W31372   5.862  24.415  11.240
60773W        W31373  35.403   8.266   2.748
60774W        W31374  44.806  10.361  14.004
60775W        W31375  30.075  42.976   0.304
60776W        W31376  10.215  17.937  12.876
60777W        W31377  24.554  10.035  11.312
60778W        W31378  13.446  40.404  13.571
60779W        W31379  26.858  24.569  12.063
60780W        W31380  25.534  15.029   1.472
60781W        W31381  26.200  39.806  12.492
60782W        W31382   2.955   8.281   1.440
60783W        W31383  39.092  24.969  11.733
60784W        W31384  12.340  43.414  11.160
60785W        W31385  18.260   4.866   3.559
60786W        W31386  44.640   4.318  13.360
60787W        W31387   9.823  13.623  11.925
60788W        W31388   1.336  11.832  11.488
60789W        W31389  18.350  32.432   0.806
60790W        W31390  37.003  42.888   0.978
60791W        W31391  39.147  36.090  14.711
60792W        W31392  18.128  16.903  10.672
60793W        W31393   8.767  19.735   1.898
60794W        W31394  39.423  36.478  13.016
60795W        W31395  20.342  25.941   2.933
60796W        W31396   7.644  36.070   3.669
60797W        W31397  10.547   6.195  12.858
60798W        W31398   2.251  11.173  13.459
60799W        W31399  39.849  27.725  14.438
60800W        W31400  28.423   1.949  13.151
60801W        W31401  11.334   6.767   1.431
60802W        W31402  21.833  19.619   3.271
60803W        W31403  15.459  43.892   0.343
60804W        W31404  42.309  22.524   4.486
60805W        W31405   0.221  18.507  13.895
60806W        W31406  13.392   1.079  13.890
60807W        W31407  29.871  35.028   2.619
60808W        W31408  35.195  36.991  10.829
60809W        W31409  28.484  40.294  14.988
60810W        W31410  41.520  32.643   4.435
60811W        W31411  34.042  13.743   1.337
60812W        W31412  12.575  42.711   1.471
60813W        W31413  35.986  34.877   2.795
60814W        W31414  19.243  20.706   3.195
60815W        W31415  32.962  44.242  10.444
60816W        W31416  14.312  19.629  10.998
60817W        W31417  40.939   5.415  12.545
60818W        W31418  30.482  24.108  14.982
60819W        W31419   8.750  18.612   1.340
60820W        W31420  13.717  24.105   1.302
60821W        W31421  20.801  41.074   0.411
60822W        W31422  33.544  44.764  12.449
60823W        W31423  17.075  20.071   2.377
60824W        W31424  10.115   2.455   2.702
60825W        W31425  16.668  29.271  14.215
60826W        W31426  35.503  39.564   4.548
60827W        W31427  15.027  27.544   4.091
60828W        W31428  39.931  27.702  13.609
60829W        W31429  20.698  26.251   2.730
60830W        W31430  31.978  32.618  12.907
60831W        W31431  33.110  12.208   1.249
60832W        W31432  21.183   5.111   1.397
60833W        W31433  16.680  21.056   1.838
60834W        W31434  16.937   7.871  11.573
60835W        W31435  20.127  40.741  12.776
60836W        W31436  37.872   1.474  11.582
60837W        W31437  32.479  28.716  13.970
60838W        W31438  40.890  15.536  13.843
60839W        W31439   8.717  13.276   3.636
60840W        W31440  44.450   9.372   2.414
60841W        W31441   8.965  10.505  14.817
60842W        W31442  10.108  14.474   2.408
60843W        W31443  11.495  41.692   4.187
60844W        W31444  35.045   6.739  14.019
60845W        W31445  30.096   6.139  14.304
60846W        W31446  18.743  18.520   0.443
60847W        W31447  20.883   1.991   3.816
60848W        W31448  12.739  22.650  13.925
60849W        W31449   4.149  42.907  12.415
60850W        W31450   5.989   0.791   4.694
60851W        W31451  30.003  28.140   4.618
60852W        W31452  31.916  34.481   3.278
60853W        W31453  12.792  25.485   0.242
60854W        W31454   5.639  18.647  10.867
60855W        W31455  17.203  34.809   1.724
60856W        W31456  28.752  16.126   0.954
60857W        W31457  34.880   9.811   4.378
60858W        W31458   2.879  29.081   3.677
60859W        W31459  33.462  22.687   4.280
60860W        W31460  16.184  19.849  11.570
60861W        W31461   6.649  33.485  13.109
60862W        W31462  10.032  20.285  12.744
60863W        W31463  17.302  25.089  14.535
60864W        W31464  22.985  27.821  13.302
60865W        W31465  31.513  21.481  10.398
60866W        W31466   1.936   4.929  12.364
60867W        W31467  39.270   7.718   2.357
60868W        W31468  19.133   9.989  11.837
60869W        W31469  35.161   9.963  13.516
60870W        W31470  34.534  13.193  13.753
60871W        W31471   0.096  42.449  13.352
60872W        W31472   0.278  25.100  12.264
60873W        W31473  21.575  41.467   2.336
60874W        W31474  18.540   7.800   3.304
60875W        W31475  33.104  30.898   0.195
60876W        W31476   2.246  42.020   1.618
60877W        W31477  17.911  37.932   1.794
60878W        W31478  40.888   2.510  10.710
60879W        W31479  12.906  35.225   0.802
60880W        W31480  38.859  34.329   1.622
60881W        W31481  33.153  17.098   3.388
60882W        W31482  10.956  40.909  12.982
60883W        W31483   3.490   2.525   4.282
60884W        W31484  26.326  22.301  11.734
60885W        W31485  22.538  23.623   4.240
60886W        W31486  30.432  10.925   2.267
60887W        W31487  16.251  16.258  12.518
60888W        W31488   8.662  42.321   3.896
60889W        W31489  26.528  15.915   4.606
60890W        W31490  32.021  28.804  14.856
60891W        W31491  16.217  29.535   2.793
60892W        W31492   2.951  31.230   0.355
60893W        W31493   5.915  21.235  11.270
60894W        W31494  26.719   3.337   0.495
60895W        W31495  19.039   4.720   2.201
60896W        W31496  30.119  27.503   0.331
60897W        W31497  10.098  10.664   3.202
60898W        W31498   8.888   7.745  12.442
60899W        W31499  24.058  34.237   4.637
60900W        W31500  41.644  13.059   0.463
60901W        W31501   0.987  39.892   2.339
60902W        W31502  28.702  14.609   0.035
60903W        W31503   2.764  19.860   0.361
60904W        W31504  31.038  25.473   3.782
60905W        W31505  26.643   5.701  10.925
60906W        W31506  15.652  28.786   4.705
60907W        W31507  23.280  28.897   1.832
60908W        W31508  43.446   5.596   0.346
60909W        W31509   3.133  36.641  12.025
60910W        W31510  20.335  29.896   2.208
60911W        W31511  18.522  34.672  11.940
60912W        W31512   2.968   6.308   3.445
60913W        W31513  18.185   1.333  14.052
60914W        W31514   6.435   8.602  13.362
60915W        W31515   2.157   1.780   0.547
60916W        W31516  32.243  24.538  13.189
60917W        W31517  38.137  22.374   0.844
60918W        W31518  25.873  39.802   2.162
60919W        W31519  41.685  10.050  11.147
60920W        W31520   0.512  23.873  14.999
60921W        W31521   6.588  20.167   1.037
60922W        W31522  41.283  32.788   3.199
60923W        W31523  25.582   5.702   0.202
60924W        W31524  20.157  12.798   2.197
60925W        W31525  36.646  38.772  10.941
60926W        W31526   0.654  19.422   3.689
60927W        W31527  37.003  14.402  14.292
60928W        W31528  17.823  41.455   1.298
60929W        W31529  40.999   1.253  11.166
60930W        W31530  26.961  18.550  13.956
60931W        W31531   2.123  36.448   3.157
60932W        W31532  36.965  16.079   2.434
60933W        W31533  33.637  13.946   0.088
60934W        W31534  24.453  30.816  12.076
60935W        W31535   3.261  17.565  10.772
60936W        W31536   4.549  31.622   3.243
60937W        W31537  29.603   6.370   3.864
60938W        W31538  21.110   1.122  11.595
60939W        W31539  30.226   2.399   0.849
60940W        W31540  41.794   3.968   1.802
60941W        W31541  31.585  30.145  13.896
60942W        W31542  21.943  22.160   0.888
60943W        W31543  32.152  36.051  14.924
60944W        W31544  31.462   0.074  12.350
60945W        W31545  41.848  33.708   3.912
60946W        W31546  16.176  40.896  11.662
60947W        W31547  30.582  24.285  12.639
60948W        W31548  14.330  24.111   2.690
60949W        W31549  42.834  27.166  14.710
60950W        W31550   0.887  36.650  10.909
60951W        W31551  16.642  20.498   4.041
60952W        W31552  39.386  27.931   1.919
60953W        W31553   8.855   1.718   2.256
60954W        W31554  43.761  33.498  11.107
60955W        W31555  25.520  25.663   3.677
60956W        W31556  40.962  11.782   2.087
60957W        W31557  34.322  23.201  13.965
60958W        W31558   7.637  40.740  13.826
60959W        W31559  37.918  24.075  11.116
60960W        W31560  40.063  44.340  14.712
60961W        W31561  36.809  11.466   1.332
60962W        W31562  36.044  10.074   4.498
60963W        W31563  12.223  20.171   4.631
60964W        W31564  28.032  34.170   2.395
60965W        W31565  24.540  14.184   5.028
60966W        W31566   4.899  38.566   2.471
60967W        W31567  33.022  13.220   1.183
60968W        W31568  40.372  29.666  14.547
60969W        W31569   9.566  34.429  13.590
60970W        W31570  13.747  22.817  14.986
60971W        W31571  13.677  33.714  11.181
60972W        W31572  36.467  33.788   4.207
60973W        W31573  33.564   9.334  12.903
60974W        W31574  26.036  43.294   4.334
60975W        W31575  41.931  34.329   3.265
60976W        W31576  23.193  39.488   4.560
60977W        W31577  27.757  18.251  13.777
60978W        W31578  23.549   7.580  12.622
60979W        W31579  44.698  28.442   2.220
60980W        W31580  20.805  42.742  14.030
60981W        W31581  39.512   5.908   0.406
60982W        W31582   1.176  20.023  13.884
60983W        W31583   5.783   8.325   4.589
60984W        W31584  39.495  26.989  13.949
60985W        W31585  23.570  41.495  13.366
60986W        W31586  42.917  38.539  11.105
60987W        W31587  22.548  10.357   5.079
60988W        W31588  32.018  27.251  10.427
60989W        W31589  11.668   2.083   2.392
60990W        W31590  16.685  20.004  11.481
60991W        W31591  26.984  41.971  11.524
60992W        W31592   3.269  11.883   1.305
60993W        W31593  20.579   9.960  11.290
60994W        W31594   9.315  23.496  10.754
60995W        W31595  37.057  17.613  12.517
60996W        W31596  36.819  22.766  10.890
60997W        W31597   3.683   2.425  12.477
60998W        W31598  44.296  22.617   3.814
60999W        W31599  11.697  41.274   1.716
61000W        W31600  31.654  42.233  11.663
61001W        W31601   8.021  41.777   3.173
61002W        W31602  19.522   8.427  11.238
61003W        W31603  13.258  15.678   0.045
61004W        W31604  43.366  30.368  11.499
61005W        W31605  42.928  39.456  14.854
61006W        W31606  27.059  14.580   1.160
61007W        W31607   8.182  26.001   0.867
61008W        W31608  35.426  12.674   3.261
61009W        W31609   2.264  32.852   2.886
61010W        W31610  37.918   8.277  11.168
61011W        W31611   3.636  25.170  10.505
61012W        W31612  13.122  27.009  14.305
61013W        W31613   8.118   6.970   4.028
61014W        W31614  31.866  31.330  13.427
61015W        W31615  42.940  18.289  11.146
61016W        W31616  21.058   1.656  13.640
61017W        W31617  18.109  43.919   4.871
61018W        W31618  28.147  32.884   4.528
61019W        W31619  13.324  11.770  10.708
61020W        W31620  12.312  17.256   0.972
61021W        W31621  11.634  40.980  12.103
61022W        W31622  39.512   8.088  10.515
61023W        W31623  37.314   3.435  12.522
61024W        W31624  18.082  30.643  11.185
61025W        W31625  13.336  23.480   2.360
61026W        W31626  26.401   3.954  11.597
61027W        W31627  33.795  39.261  11.133
61028W        W31628  44.289  30.688   1.035
61029W        W31629  38.934   8.387   3.189
61030W        W31630   9.304  10.318   3.724
61031W        W31631  27.516  19.058  11.938
61032W        W31632  31.981  32.097   2.433
61033W        W31633  41.756  34.223   3.756
61034W        W31634  14.141  34.860  11.896
61035W        W31635  29.633  21.156  10.853
61036W        W31636   0.215  12.000  14.014
61037W        W31637  27.987  41.805   0.746
61038W        W31638  30.704  44.774   1.344
61039W        W31639  39.338   9.423   2.917
61040W        W31640   6.447   2.257   2.829
61041W        W31641  39.387   6.666  11.690
61042W        W31642  27.942  16.111   2.154
61043W        W31643  13.861  19.244  12.196
61044W        W31644  20.438  21.017  14.955
61045W        W31645  21.245   5.288   2.910
61046W        W31646  38.528  24.918   4.509
61047W        W31647  13.974  19.708   1.286
61048W        W31648  20.028   7.116  10.276
61049W        W31649  28.385   8.716   2.168
61050W        W31650  20.974  33.425   1.839
61051W        W31651  20.734  32.548  10.777
61052W        W31652  31.107  23.595  14.366
61053W        W31653  35.272   6.729   4.384
61054W        W31654  41.015  43.931   3.097
61055W        W31655   1.891  36.807  12.869
61056W        W31656  29.071  11.228  14.712
61057W        W31657  16.425  37.145   1.891
61058W        W31658  14.249  37.621  10.789
61059W        W31659  10.790  22.020   4.513
61060W        W31660   8.134   6.458   4.149
61061W        W31661  14.282  41.982  13.924
61062W        W31662   4.212   5.177   1.804
61063W        W31663   7.697  38.396   1.229
61064W        W31664  29.714  36.781   2.302
61065W        W31665  19.799  16.655  11.928
61066W        W31666  18.610  37.334  13.823
61067W        W31667  34.408  26.519  13.510
61068W        W31668   8.734  22.170   0.981
61069W        W31669  43.249  14.828  12.672
61070W        W31670  34.844  27.845  10.931
61071W        W31671  37.556   2.372   5.016
61072W        W31672  36.482  13.431   2.670
61073W        W31673  16.306  17.508  14.840
61074W        W31674  29.402   8.646  11.567
61075W        W31675   1.357  14.088  10.948
61076W        W31676  35.277  20.793  14.491
61077W        W31677  26.502  27.002  11.168
61078W        W31678  15.382  40.820  13.460
61079W        W31679  34.130  30.078   3.732
61080W        W31680  19.728  35.317   3.311
61081W        W31681   7.526  17.211   1.746
61082W        W31682  38.612   5.550   3.761
61083W        W31683  29.129   5.910  12.541
61084W        W31684   0.228  41.832   0.279
61085W        W31685   6.608  11.641   0.081
61086W        W31686  23.032  32.895  14.356
61087W        W31687  29.134  19.799   4.693
61088W        W31688   7.673   3.461  11.040
61089W        W31689  22.793  43.265   1.221
61090W        W31690  19.603   0.796   4.133
61091W        W31691  14.646  18.757  12.147
61092W        W31692   7.099  44.266  10.721
61093W        W31693  24.702   8.429  13.361
61094W        W31694  36.442  41.388  13.411
61095W        W31695  41.918  32.988  11.617
61096W        W31696  20.728  43.082  11.112
61097W        W31697  27.223   8.348  14.014
61098W        W31698   3.722  39.078  10.796
61099W        W31699  12.731  17.169  10.720
61100W        W31700  10.248  22.974  14.257
61101W        W31701  38.374  25.394   4.682
61102W        W31702  12.173  23.664   1.634
61103W        W31703  31.034   0.486  11.229
61104W        W31704   8.556  20.705   3.450
61105W        W31705   6.660  30.601  13.275
61106W        W31706  10.335  18.612   0.387
61107W        W31707  42.670   2.366   1.693
61108W        W31708  26.499   5.944  13.290
61109W        W31709  36.071  11.291  12.790
61110W        W31710  22.776  35.973  14.967
61111W        W31711  33.946   9.283   3.220
61112W        W31712  14.336  12.734  11.617
61113W        W31713   1.340  10.616  11.791
61114W        W31714  16.489  23.516   1.370
61115W        W31715  43.481   0.545  14.503
61116W        W31716  22.652   7.227   0.705
61117W        W31717  41.620  26.651   5.190
61118W        W31718  15.618   9.547  10.514
61119W        W31719  42.128  28.229   0.692
61120W        W31720  17.645   1.174  14.877
61121W        W31721   7.321  13.713  12.945
61122W        W31722  19.741  23.075   4.492
61123W        W31723  39.368   1.330   1.379
61124W        W31724  39.365   7.290  13.404
61125W        W31725  35.521  36.284  13.913
61126W        W31726  30.681  40.983   3.745
61127W        W31727  23.474  35.528   1.294
61128W        W31728  13.168  32.159   3.559
61129W        W31729  34.518   3.500  14.016
61130W        W31730  36.076  25.288  12.427
61131W        W31731  35.841  35.853  13.921
61132W        W31732  22.000  14.276   2.901
61133W        W31733  42.481  43.986  10.435
61134W        W31734  43.279  34.252   2.319
61135W        W31735  16.258  37.697  10.017
61136W        W31736  36.438  29.133   2.664
61137W        W31737  17.529  12.188   3.281
61138W        W31738  32.739  24.197   0.888
61139W        W31739  38.129  23.452  14.976
61140W        W31740  22.038  10.739  10.737
61141W        W31741  34.632  36.798   1.723
61142W        W31742   8.995  43.128   0.728
61143W        W31743  12.749   2.385  13.052
61144W        W31744  39.516  35.494   3.259
61145W        W31745   3.574  31.422  10.706
61146W        W31746  41.287  28.557   1.979
61147W        W31747  31.692   1.908  14.558
61148W        W31748  35.640  36.438   4.128
61149W        W31749  33.431  20.086  14.045
61150W        W31750  38.911  18.860   3.148
61151W        W31751   8.508  12.253  13.388
61152W        W31752  35.514  18.259   2.432
61153W        W31753  14.394  23.524   3.845
61154W        W31754   6.917  15.888  10.287
61155W        W31755   8.376  17.733   0.026
61156W        W31756  27.425  12.784  10.682
61157W        W31757  12.578  26.759  13.554
61158W        W31758  33.352  40.212   2.776
61159W        W31759  32.998   3.045   4.508
61160W        W31760   8.259   3.648   0.800
61161W        W31761  28.774  29.671   3.790
61162W        W31762  16.579  38.553  14.926
61163W        W31763   1.254  10.840  11.355
61164W        W31764  26.801  43.975   0.798
61165W        W31765   5.966  15.302  11.988
61166W        W31766  31.093   3.392  14.818
61167W        W31767  34.810   5.365   1.145
61168W        W31768   8.999   1.433  11.151
61169W        W31769  16.705  37.578  10.995
61170W        W31770  32.884  12.607  12.965
61171W        W31771   8.601  41.449   3.830
61172W        W31772   9.774  31.017   4.703
61173W        W31773  23.763   2.628   4.967
61174W        W31774  11.239  41.095  12.442
61175W        W31775  34.416  21.074  14.598
61176W        W31776  11.741  27.995   4.536
61177W        W31777  13.827  40.941  11.616
61178W        W31778  19.871  16.804  14.934
61179W        W31779  15.807  42.884  14.391
61180W        W31780  22.180  31.154  13.511
61181W        W31781  20.242  22.996  14.952
61182W        W31782  26.532  16.336   0.946
61183W        W31783  35.599  38.645   0.437
61184W        W31784  18.070   7.662  14.940
61185W        W31785  11.294  33.340   3.748
61186W        W31786  24.484  32.725  11.132
61187W        W31787   0.809  40.083  14.818
61188W        W31788  27.440  38.124   3.548
61189W        W31789   5.307   0.224   4.113
61190W        W31790  36.550  12.627   0.511
61191W        W31791   4.742  18.993  13.556
61192W        W31792  17.985  29.628  11.808
61193W        W31793  33.208  31.377  11.492
61194W        W31794  36.297  18.976   2.778
61195W        W31795  20.643  43.787  14.065
61196W        W31796  10.778  14.759   0.680
61197W        W31797  25.585  34.575   3.673
61198W        W31798  20.186  41.795  12.121
61199W        W31799  39.102  41.284  13.113
61200W        W31800  24.994  38.539  11.624
61201W        W31801  40.893  19.946   5.003
61202W        W31802  29.123  30.958  13.560
61203W        W31803  38.224   1.918   0.573
61204W        W31804  36.478   2.996   3.308
61205W        W31805  37.042  25.749  11.617
61206W        W31806  12.095  21.582  14.333
61207W        W31807  36.007  38.119  11.875
61208W        W31808  12.505  33.914   3.119
61209W        W31809  42.882  18.846   1.356
61210W        W31810  44.902  33.971  11.508
61211W        W31811  22.150  20.189   4.589
61212W        W31812  44.070  35.322  14.507
61213W        W31813  20.971  29.488   4.304
61214W        W31814  25.434  18.606  10.146
61215W        W31815  21.656  26.703  12.878
61216W        W31816  35.689   3.974  11.601
61217W        W31817  31.483  40.792  14.819
61218W        W31818  26.643   0.441  10.270
61219W        W31819   7.735  35.532  13.301
61220W        W31820  11.965  35.327  11.149
61221W        W31821  16.394   0.986   4.019
61222W        W31822  28.735  25.574  11.030
61223W        W31823  17.591  31.377   2.031
61224W        W31824  43.429  22.451  11.780
61225W        W31825   9.187  25.603   0.241
61226W        W31826  22.576  42.480   3.231
61227W        W31827   6.387   0.861   1.798
61228W        W31828   2.208  27.958   1.814
61229W        W31829   9.007  22.081  10.852
61230W        W31830  34.127  17.788  13.823
61231W        W31831  19.661  21.502   1.942
61232W        W31832   1.020  22.845   5.052
61233W        W31833   7.774  30.820  11.910
61234W        W31834   0.314   8.807   1.459
61235W        W31835   0.707  26.916  13.929
61236W        W31836  30.751  34.884  11.647
61237W        W31837   0.480  16.532   3.500
61238W        W31838   3.712  28.412  11.692
61239W        W31839  20.428  37.960  10.380
61240W        W31840  38.421   2.850  11.314
61241W        W31841  26.468  32.426   2.212
61242W        W31842  11.795   3.680   3.347
61243W        W31843   9.908  24.106   4.048
61244W        W31844  43.825   2.944   0.523
61245W        W31845  39.120   8.794   2.275
61246W        W31846  30.063  12.592  14.771
61247W        W31847  31.337  23.123   1.730
61248W        W31848  31.457  35.399   0.975
61249W        W31849   5.397  36.900   4.739
61250W        W31850   0.235  19.777   0.325
61251W        W31851   1.449  37.544   2.174
61252W        W31852  16.699  35.004  10.412
61253W        W31853  31.666  18.249   2.366
61254W        W31854  38.914  29.176  11.602
61255W        W31855   0.166   3.057  14.868
61256W        W31856   6.795   9.623   0.570
61257W        W31857  10.995  16.015  12.837
61258W        W31858   2.508  30.041  14.518
61259W        W31859  44.372  20.540   9.872
61260W        W31860  15.085   7.335   0.144
61261W        W31861  13.337  36.239  11.577
61262W        W31862   7.687   6.936   2.277
61263W        W31863  24.521  21.645   4.212
61264W        W31864  34.114  21.971   1.388
61265W        W31865  23.566  32.933  10.709
61266W        W31866   2.332  43.815  14.317
61267W        W31867  27.606  39.307  11.113
61268W        W31868   8.181  41.587   4.162
61269W        W31869   4.932   9.846   0.794
61270W        W31870  14.887  20.114  13.901
61271W        W31871  32.621  19.613   3.539
61272W        W31872  18.375  26.834  12.990
61273W        W31873  40.027  33.179   4.017
61274W        W31874   8.129  15.726  11.432
61275W        W31875  38.798  25.112  14.279
61276W        W31876   8.775   2.224  10.763
61277W        W31877  15.571  35.830  14.383
61278W        W31878  35.534  14.486   3.511
61279W        W31879  25.523  16.647   0.366
61280W        W31880   8.797  36.084   2.780
61281W        W31881  23.008  37.668  13.846
61282W        W31882  42.810  22.764   3.319
61283W        W31883  35.523   8.436   0.399
61284W        W31884  43.007  28.793  12.086
61285W        W31885  21.511  18.067  14.315
61286W        W31886   3.516  34.681   3.292
61287W        W31887  37.512  42.252   4.256
61288W        W31888  23.604   6.113  13.538
61289W        W31889  19.341  13.871   2.451
61290W        W31890  31.037  41.297   5.027
61291W        W31891  11.361  39.378  12.040
61292W        W31892  32.173   2.908   3.788
61293W        W31893  22.058  36.619  10.680
61294W        W31894  13.658  44.576  11.508
61295W        W31895  16.738  18.503  12.841
61296W        W31896  13.034  33.159  12.515
61297W        W31897   1.447   2.661  11.139
61298W        W31898  34.434  13.667  13.968
61299W        W31899  26.188   6.931   1.248
61300W        W31900  43.717  31.466  14.423
61301W        W31901   0.991   1.218  14.900
61302W        W31902   0.227  43.684  11.940
61303W        W31903  43.851  13.372  12.671
61304W        W31904  12.553   3.865  13.977
61305W        W31905  21.187   1.328   4.532
61306W        W31906  33.923  42.425  13.096
61307W        W31907   2.297  14.556  12.487
61308W        W31908  27.731  12.260  12.998
61309W        W31909  31.954  23.523   1.429
61310W        W31910  39.532   9.207   2.286
61311W        W31911  21.739  29.906   0.854
61312W        W31912   7.263  10.384   4.585
61313W        W31913  33.956   1.000   0.792
61314W        W31914  33.676  15.323  12.986
61315W        W31915   1.752  15.845   1.708
61316W        W31916   3.695  23.626   3.502
61317W        W31917  24.160   4.900   1.705
61318W        W31918  43.521  36.894  10.757
61319W        W31919  17.352  39.443   1.862
61320W        W31920  32.854   9.790  14.046
61321W        W31921  25.126  33.680  13.851
61322W        W31922  19.186  42.021   3.362
61323W        W31923  29.211  35.171  12.776
61324W        W31924  23.760  24.430   0.824
61325W        W31925  13.860  27.530  12.568
61326W        W31926  26.605  10.775  10.593
61327W        W31927  13.822  42.470   0.886
61328W        W31928  32.462  15.538  14.816
61329W        W31929  12.297   4.745  10.727
61330W        W31930   1.738  30.877  11.677
61331W        W31931  30.871  23.095  10.481
61332W        W31932  10.399  36.347  10.503
61333W        W31933  33.149  15.574  14.151
61334W        W31934   2.974  16.722   1.410
61335W        W31935  18.553  34.595   1.456
61336W        W31936  36.207  18.202   4.856
61337W        W31937  24.793   0.412   3.237
61338W        W31938   1.181  14.173   3.284
61339W        W31939   2.192  10.648  13.457
61340W        W31940  38.476  40.129  11.097
61341W        W31941  24.128  32.688   2.362
61342W        W31942  29.299  32.145  12.429
61343W        W31943  15.625   7.188   0.384
61344W        W31944  21.733  15.880  14.997
61345W        W31945  22.588  13.784   2.780
61346W        W31946  37.250  18.253   0.193
61347W        W31947  39.051   4.221  14.971
61348W        W31948   3.403  18.609   4.128
61349W        W31949   8.335   1.865  12.836
61350W        W31950  30.565  10.790   2.741
61351W        W31951  30.675  19.929  11.585
61352W        W31952   5.147   7.162  14.863
61353W        W31953  11.223  29.491   2.527
61354W        W31954   9.802  30.340   1.481
61355W        W31955  22.083  25.185   2.949
61356W        W31956   2.721   3.903  11.319
61357W        W31957  26.170  19.100   4.401
61358W        W31958  22.740   5.698   0.964
61359W        W31959  27.371  33.139   3.447
61360W        W31960   2.982  14.764  13.988
61361W        W31961   7.145  35.088   0.258
61362W        W31962   0.112  21.122   1.900
61363W        W31963   4.488   4.541  12.672
61364W        W31964  26.066  14.569   2.357
61365W        W31965  43.188  19.572   2.697
61366W        W31966  24.765  22.070  12.104
61367W        W31967  34.856  24.638  12.429
61368W        W31968   2.800  35.163   2.748
61369W        W31969  37.598  17.621  12.035
61370W        W31970  28.961  33.520  10.145
61371W        W31971  24.683  31.065  12.495
61372W        W31972  10.792   5.157   1.270
61373W        W31973  32.333  30.024  14.340
61374W        W31974  38.038   7.402   0.322
61375W        W31975  16.482  34.033  12.535
61376W        W31976  40.046   1.031  10.199
61377W        W31977  16.611  32.381  14.032
61378W        W31978   7.630  31.723  12.883
61379W        W31979  24.025  30.444  11.083
61380W        W31980  15.910  20.780   2.365
61381W        W31981  16.481  28.440   1.142
61382W        W31982  13.488  40.327   4.919
61383W        W31983  16.266  40.258   0.424
61384W        W31984  42.000   2.411   3.323
61385W        W31985  29.544   4.410   4.809
61386W        W31986  41.344  35.942   4.116
61387W        W31987  43.961  27.716   1.631
61388W        W31988  44.883  18.947   2.191
61389W        W31989  13.180  30.187  14.804
61390W        W31990  15.189   1.950  14.807
61391W        W31991  27.472  42.530   2.872
61392W        W31992  25.490  23.072   4.368
61393W        W31993   5.721   3.508   0.827
61394W        W31994  30.460  18.811  11.193
61395W        W31995   1.412  40.031   0.731
61396W        W31996   2.260  39.015   1.722
61397W        W31997  32.636  20.058  14.758
61398W        W31998  10.697   3.344  10.933
61399W        W31999  26.175  16.717  11.675
61400W        W32000   5.290  37.585  14.684
61401W        W32001  25.011  35.349   3.719
61402W        W32002  37.473  42.853   0.040
61403W        W32003   0.398  10.905   4.549
61404W        W32004  44.850  19.804  13.120
61405W        W32005   8.863   6.700   0.223
61406W        W32006  13.695  13.179   1.180
61407W        W32007  14.180  10.255   2.338
61408W        W32008  39.598   3.933  11.830
61409W        W32009  18.352  25.500  11.904
61410W        W32010  12.722  11.348  12.043
61411W        W32011  37.791  21.293   2.708
61412W        W32012  24.551   5.708   4.182
61413W        W32013  36.465  44.770   0.840
61414W        W32014  41.392  39.507  13.855
61415W        W32015  31.900  32.650   3.617
61416W        W32016  28.748  11.841   0.929
61417W        W32017  16.320   6.816   3.351
61418W        W32018  27.836  27.718   2.945
61419W        W32019   3.765  24.984   4.523
61420W        W32020  26.758  40.944   2.792
61421W        W32021  33.652  32.888  14.366
61422W        W32022  12.147  43.502   3.999
61423W        W32023  34.645  10.681   3.808
61424W        W32024  16.184  21.742  11.665
61425W        W32025   8.285  12.052   2.157
61426W        W32026   0.272  28.416  14.957
61427W        W32027   8.810   3.483  14.124
61428W        W32028  10.101  37.863  11.639
61429W        W32029   9.489  35.234  11.394
61430W        W32030  18.287  31.570   2.675
61431W        W32031  23.980   9.896  12.177
61432W        W32032  31.436   5.346   0.848
61433W        W32033  38.267  24.695   4.900
61434W        W32034  28.110  33.738   4.158
61435W        W32035  41.046  14.429   3.638
61436W        W32036  18.939  38.595   3.773
61437W        W32037  44.914  25.023  13.580
61438W        W32038  40.275  14.109   3.583
61439W        W32039   3.370  35.040   3.664
61440W        W32040  28.435  14.543   0.772
61441W        W32041  43.005   9.882  14.008
61442W        W32042  12.100   2.828  12.638
61443W        W32043  18.990  21.980  14.472
61444W        W32044  20.606  35.363  12.014
61445W        W32045  15.281   4.131  12.334
61446W        W32046  41.832  17.248  11.112
61447W        W32047  22.521   7.453  14.680
61448W        W32048   8.413   2.708  10.993
61449W        W32049  38.959  34.456   4.253
61450W        W32050   7.544  36.573  11.177
61451W        W32051   3.831  44.162   3.584
61452W        W32052   2.409  32.640   1.002
61453W        W32053  17.142  29.545   3.724
61454W        W32054  40.390  36.768   4.635
61455W        W32055  36.092  23.260  11.533
61456W        W32056  42.330  20.902   0.923
61457W        W32057  12.371  42.349  12.119
61458W        W32058   6.774  10.235  11.126
61459W        W32059  38.437  42.923  14.057
61460W        W32060  33.081   6.219  12.561
61461W        W32061  24.561  42.544   2.965
61462W        W32062  13.627  43.729   1.762
61463W        W32063   3.726  20.609   1.984
61464W        W32064  22.759  26.905  12.815
61465W        W32065  43.994  37.729   1.199
61466W        W32066   3.457  18.669  13.912
61467W        W32067   5.428  39.342  13.512
61468W        W32068  35.828  10.161  11.422
61469W        W32069  18.778  27.029   3.183
61470W        W32070   1.024  28.636   3.693
61471W        W32071  25.668   1.973  11.865
61472W        W32072  11.675   8.357  13.881
61473W        W32073  39.442  29.420   4.634
61474W        W32074  35.657  10.346  14.303
61475W        W32075  20.593   9.667   0.612
61476W        W32076  38.692  29.670   3.461
61477W        W32077  15.572  43.356  14.371
61478W        W32078  28.534  35.250   2.864
61479W        W32079  10.972  36.767   3.717
61480W        W32080  16.583  21.995   0.734
61481W        W32081   8.858  27.994   0.852
61482W        W32082  36.999  39.522  12.472
61483W        W32083  12.775  20.041   1.973
61484W        W32084  37.686   1.967  10.610
61485W        W32085  21.051   0.130  12.576
61486W        W32086   4.454   7.718   1.451
61487W        W32087  34.978   2.919   3.503
61488W        W32088  31.892  24.788   4.291
61489W        W32089   4.364  34.256   1.702
61490W        W32090  23.455  30.396   3.177
61491W        W32091  10.801  19.797   5.169
61492W        W32092  25.671   3.429  13.676
61493W        W32093  32.601  22.487  14.581
61494W        W32094  36.580  20.950  13.915
61495W        W32095  42.958  19.076  13.470
61496W        W32096   2.950  28.139   2.647
61497W        W32097  42.004   2.681  13.840
61498W        W32098  19.028  21.994   4.312
61499W        W32099  14.678   9.746   4.509
61500W        W32100   7.803  31.217  12.858
61501W        W32101   7.677  24.528  11.173
61502W        W32102  32.362  33.516  14.501
61503W        W32103  19.635  12.373  13.839
61504W        W32104  44.927  26.485  10.704
61505W        W32105  35.563  21.506   2.659
61506W        W32106   5.674  10.210   3.150
61507W        W32107   5.744  13.682   4.302
61508W        W32108  14.031  17.334   0.031
61509W        W32109  13.556   8.830  13.939
61510W        W32110   7.787  12.155  12.557
61511W        W32111   1.788  36.170   2.814
61512W        W32112  26.207  11.597  14.843
61513W        W32113  40.462   2.923   0.601
61514W        W32114  35.122  40.280  10.474
61515W        W32115  26.253  17.534   1.853
61516W        W32116   2.946   9.706   4.228
61517W        W32117  15.995  28.147   0.402
61518W        W32118  25.144  38.604  12.127
61519W        W32119  18.184   2.468   4.093
61520W        W32120   9.184  42.957  12.023
61521W        W32121   9.744  36.485   2.859
61522W        W32122  27.652  38.838   1.926
61523W        W32123  37.039  44.240  12.474
61524W        W32124  30.205   4.384   1.871
61525W        W32125  44.373  37.856  14.031
61526W        W32126  34.550   6.889  14.121
61527W        W32127   8.692  29.056   1.768
61528W        W32128  18.491  24.628  10.281
61529W        W32129  29.608  20.586   1.386
61530W        W32130   0.832  40.367   2.469
61531W        W32131   3.317  30.742   0.391
61532W        W32132   4.851  34.658   3.676
61533W        W32133  30.734  27.504   0.315
61534W        W32134  22.476  36.393  14.940
61535W        W32135   4.879   0.932  11.590
61536W        W32136  25.135  14.196   0.740
61537W        W32137   6.345  22.271  12.534
61538W        W32138  19.383  13.389   2.216
61539W        W32139  18.108  11.726   0.733
61540W        W32140  11.294  28.829   0.292
61541W        W32141  41.842  33.683  14.438
61542W        W32142  30.203  40.640  12.675
61543W        W32143   0.633  36.910   3.164
61544W        W32144   8.271   0.321  10.738
61545W        W32145  32.017  22.605  11.388
61546W        W32146  11.113  34.060  13.539
61547W        W32147  44.786  30.461   1.296
61548W        W32148  23.692  13.559   0.259
61549W        W32149  34.890   7.282   4.843
61550W        W32150  19.014   4.001  14.002
61551W        W32151  16.497  24.620   0.798
61552W        W32152   2.966  20.565   3.776
61553W        W32153  44.767  28.145   1.743
61554W        W32154  25.154  25.859  13.467
61555W        W32155   0.435  21.391  10.666
61556W        W32156   8.808  39.320  14.508
61557W        W32157  38.327  17.530  11.254
61558W        W32158  32.628   5.887  10.961
61559W        W32159  23.190   1.746  11.173
61560W        W32160  37.647  19.973   0.355
61561W        W32161  22.589   2.236  11.667
61562W        W32162   5.135  11.760  14.824
61563W        W32163  41.309  14.206   4.477
61564W        W32164  14.385  36.753  14.419
61565W        W32165   2.376  10.810   1.269
61566W        W32166   8.435  35.539  10.659
61567W        W32167  24.541   2.307  11.414
61568W        W32168  29.102  24.523   2.359
61569W        W32169  40.507  38.464   4.916
61570W        W32170   8.308  15.204  11.087
61571W        W32171  31.669  22.002  13.031
61572W        W32172  13.106  38.390  12.034
61573W        W32173  29.427  29.434   4.622
61574W        W32174  18.130  34.365   0.808
61575W        W32175  32.120   7.887  13.479
61576W        W32176   6.472  19.100  12.596
61577W        W32177  23.599   7.247   3.544
61578W        W32178   5.850  16.775   2.279
61579W        W32179  37.245   3.721  12.991
61580W        W32180  15.191  37.830  13.787
61581W        W32181  32.586  13.129   1.466
61582W        W32182  44.043  36.361  13.418
61583W        W32183  37.778  30.369  13.503
61584W        W32184  15.111  14.109   3.538
61585W        W32185   4.543   0.873   2.748
61586W        W32186   4.144  31.268   4.530
61587W        W32187   6.946  25.153   4.700
61588W        W32188  37.206   6.694  11.258
61589W        W32189  40.311  41.482  13.927
61590W        W32190  33.020  35.511   2.329
61591W        W32191  39.372   4.428  13.044
61592W        W32192  22.753   0.262   1.734
61593W        W32193  12.299  24.059  12.153
61594W        W32194  12.945  38.128  14.470
61595W        W32195   8.359  17.362  12.135
61596W        W32196  10.456  13.215   2.263
61597W        W32197  28.572  34.751  14.944
61598W        W32198  16.944  36.028  11.635
61599W        W32199  19.740  28.558  14.801
61600W        W32200   2.192  11.790  13.098
61601W        W32201  24.071  37.937   1.754
61602W        W32202  40.358  26.626   4.063
61603W        W32203  25.795  34.430  11.683
61604W        W32204   2.033  23.984  14.108
61605W        W32205  29.851  28.462  11.642
61606W        W32206  16.708  31.221   2.414
61607W        W32207  38.801   1.195   3.206
61608W        W32208  23.679  18.109  11.001
61609W        W32209  19.065  26.278   2.581
61610W        W32210  24.890  10.734   4.277
61611W        W32211   3.120   7.875   2.786
61612W        W32212  14.094  33.872   2.205
61613W        W32213   0.846  39.547  14.863
61614W        W32214   0.848   9.784  11.576
61615W        W32215  32.623  35.405  11.475
61616W        W32216  12.752  27.300  14.540
61617W        W32217  43.863  11.732   2.654
61618W        W32218   3.819  24.414  12.561
61619W        W32219  27.242  29.178  10.575
61620W        W32220  13.328  27.091  11.896
61621W        W32221  13.749  30.204  10.674
61622W        W32222   8.783  40.383   3.177
61623W        W32223   9.850  24.067  14.305
61624W        W32224  12.217  27.960   0.625
61625W        W32225  19.520  24.301  14.077
61626W        W32226  19.685  26.572  13.129
61627W        W32227   4.129  26.660  11.959
61628W        W32228  25.569  37.162  14.281
61629W        W32229  15.091  18.432  12.358
61630W        W32230   4.638  38.694   3.637
61631W        W32231  12.870  38.742   2.986
61632W        W32232  41.832  21.288  11.605
61633W        W32233  22.398  28.699   0.026
61634W        W32234  38.977  34.830   0.241
61635W        W32235  20.297   6.948  11.722
61636W        W32236  25.209  13.098   4.747
61637W        W32237  19.566  18.730  13.518
61638W        W32238   1.786  25.099  10.796
61639W        W32239  15.771  17.201   0.923
61640W        W32240  27.667  28.563  14.350
61641W        W32241  18.032   3.256  13.017
61642W        W32242  22.613  16.632  11.877
61643W        W32243  32.938  32.506  13.047
61644W        W32244  25.475  14.832  12.979
61645W        W32245  15.204  32.966   0.915
61646W        W32246   4.680  17.294  12.962
61647W        W32247  24.152  32.604  14.688
61648W        W32248  17.347  20.545   2.392
61649W        W32249  44.909   8.720  13.349
61650W        W32250  20.653  39.272   2.194
61651W        W32251  40.194  30.407   3.226
61652W        W32252  20.143   2.830   3.794
61653W        W32253  26.134  24.662  12.808
61654W        W32254   9.966  20.221   2.327
61655W        W32255  17.788  31.008  12.352
61656W        W32256  12.918  10.711   1.806
61657W        W32257  15.324   9.857   1.897
61658W        W32258  29.212  24.953   0.324
61659W        W32259   5.864  27.974  12.927
61660W        W32260  26.082  33.549  13.145
61661W        W32261  14.973  42.514  14.443
61662W        W32262  42.533  25.732   1.358
61663W        W32263  17.718  42.913   4.547
61664W        W32264  14.030  31.529  12.660
61665W        W32265   8.911  10.340  13.955
61666W        W32266  14.110  28.187   0.349
61667W        W32267  32.561  32.878  12.953
61668W        W32268  29.960  21.992  11.448
61669W        W32269  16.894  12.263  11.488
61670W        W32270   6.812   7.007  10.698
61671W        W32271   8.189  37.640  14.064
61672W        W32272  28.333  16.428  11.056
61673W        W32273   9.976   0.459  11.319
61674W        W32274  20.866  25.371  11.151
61675W        W32275  20.503  37.866   4.684
61676W        W32276  44.209   1.273  14.372
61677W        W32277   1.992   7.254   4.218
61678W        W32278  18.654  10.106   0.218
61679W        W32279  23.557  30.033   2.197
61680W        W32280  12.192  31.437  10.843
61681W        W32281  24.739  44.302   0.648
61682W        W32282  28.987   6.396  14.433
61683W        W32283  36.570   4.675  13.491
61684W        W32284  17.195  44.507   2.275
61685W        W32285  43.344  44.502  12.984
61686W        W32286   0.445   1.024  11.056
61687W        W32287  21.351  41.797  14.837
61688W        W32288  35.281   7.393  12.574
61689W        W32289  15.719  17.790  11.130
61690W        W32290  23.606  32.112  12.374
61691W        W32291  43.669  15.249  13.010
61692W        W32292  44.041  14.112  11.660
61693W        W32293  27.330   6.197  12.420
61694W        W32294  39.775  13.071   1.660
61695W        W32295  13.678  20.328  14.790
61696W        W32296   8.138  22.079  11.184
61697W        W32297  29.075  43.425   0.571
61698W        W32298  36.846   4.786  14.739
61699W        W32299  32.830  25.181  12.962
61700W        W32300   9.065  34.986  11.619
61701W        W32301  34.401  19.970  14.870
61702W        W32302   7.743   8.736   4.548
61703W        W32303  20.257  34.376  12.576
61704W        W32304  36.150  21.238  10.554
61705W        W32305   0.284  23.671  10.756
61706W        W32306  22.142  16.321  13.448
61707W        W32307  32.123  43.545   2.014
61708W        W32308  36.513  37.993   1.102
61709W        W32309  19.865  25.197  13.138
61710W        W32310   1.988  19.580  13.282
61711W        W32311  36.699  12.227  12.277
61712W        W32312   8.109   1.676   3.216
61713W        W32313   8.761  10.063  12.259
61714W        W32314  32.411  11.119  11.431
61715W        W32315   6.543  19.561  11.269
61716W        W32316  25.705  41.866  12.880
61717W        W32317   6.813  19.285  10.427
61718W        W32318  39.923   6.827  13.031
61719W        W32319  23.788   5.653  13.823
61720W        W32320  27.571  38.481   2.284
61721W        W32321   4.702  33.560  13.007
61722W        W32322  18.552   1.323  10.910
61723W        W32323  14.107  43.973  13.404
61724W        W32324   7.470  36.988   4.066
61725W        W32325   3.239  43.524   0.690
61726W        W32326  38.882  31.021  14.730
61727W        W32327  44.064  24.185  13.999
61728W        W32328  41.062  12.715   1.678
61729W        W32329  32.209  21.391  13.051
61730W        W32330  15.906  22.155  11.825
61731W        W32331  25.599  10.689  10.699
61732W        W32332  30.753  35.974  14.972
61733W        W32333  25.534  13.346  10.588
61734W        W32334  13.652   8.282  12.430
61735W        W32335   9.623   5.108   1.801
61736W        W32336  24.066  17.524  14.870
61737W        W32337  26.636  25.913  12.966
61738W        W32338  10.954  37.086  12.257
61739W        W32339  20.755   7.814   0.897
61740W        W32340   9.741   7.364   4.243
61741W        W32341   6.912   2.302  12.963
61742W        W32342  34.503   5.981   4.707
61743W        W32343   5.246  27.166  13.882
61744W        W32344   5.835   7.908   1.190
61745W        W32345  42.328  31.345  12.464
61746W        W32346   3.829  19.455  12.007
61747W        W32347  44.323  16.517   3.536
61748W        W32348  27.600  26.773  14.179
61749W        W32349  31.485  31.933  10.993
61750W        W32350  39.849  24.926  12.116
61751W        W32351   9.200   1.383  12.119
61752W        W32352   5.976  44.203   2.772
61753W        W32353  27.435   9.538   4.082
61754W        W32354   0.006  15.109   4.460
61755W        W32355  38.886  21.726  13.031
61756W        W32356  21.218  19.111   3.641
61757W        W32357   4.063  37.323   3.762
61758W        W32358  34.469  12.210  10.685
61759W        W32359   9.565  28.913  10.912
61760W        W32360  38.419  15.061  12.479
61761W        W32361  31.561   1.903  12.552
61762W        W32362  25.591  16.820  10.397
61763W        W32363  21.434  42.541  13.927
61764W        W32364  13.608  28.532   2.867
61765W        W32365  17.950   6.051   4.087
61766W        W32366  22.777  40.809  10.852
61767W        W32367  18.176  40.580  14.361
61768W        W32368  33.566   9.148  12.015
61769W        W32369  12.605  33.047  14.998
61770W        W32370  15.728  10.334  14.345
61771W        W32371   8.607  34.952   1.295
61772W        W32372  35.111   5.738  10.774
61773W        W32373   5.528  31.482   3.323
61774W        W32374  32.178  23.466   4.645
61775W        W32375  26.563  21.216  12.464
61776W        W32376  23.532   7.142   2.643
61777W        W32377  26.041   9.348  10.890
61778W        W32378  38.499  33.397  10.704
61779W        W32379  39.198   8.228  11.988
61780W        W32380   2.304  28.416  10.690
61781W        W32381   6.986  40.509  12.541
61782W        W32382  18.712  17.077   4.553
61783W        W32383  20.580  14.195   3.684
61784W        W32384  12.293  40.792   2.540
61785W        W32385  37.080  43.547   4.117
61786W        W32386  35.315  39.347  11.972
61787W        W32387  38.204   1.304   2.306
61788W        W32388  12.579  23.284  11.111
61789W        W32389   8.865  34.215   4.669
61790W        W32390  37.415  37.511  12.451
61791W        W32391  25.391  17.129   3.498
61792W        W32392   1.925  28.041  12.211
61793W        W32393   0.323   3.188   0.392
61794W        W32394   0.788  42.008  13.838
61795W        W32395  42.730  33.285   4.998
61796W        W32396   5.603  21.636  12.062
61797W        W32397   9.212  39.626   4.919
61798W        W32398  38.545  13.146  14.111
61799W        W32399  19.928  31.610   0.424
61800W        W32400  40.542  14.677  12.572
61801W        W32401  44.287   2.333  13.397
61802W        W32402   2.340  41.393  14.505
61803W        W32403  33.812  43.536  12.939
61804W        W32404  37.549  26.532  10.474
61805W        W32405   6.604  16.327   3.787
61806W        W32406  31.439  15.865  14.869
61807W        W32407   2.160  18.452   0.953
61808W        W32408  25.599  41.824  11.889
61809W        W32409  41.005   1.053  14.505
61810W        W32410  34.874  38.699  14.860
61811W        W32411  14.245  12.518   4.986
61812W        W32412  16.546  38.948  13.328
61813W        W32413   8.613  21.677  14.243
61814W        W32414  44.932  31.048   0.639
61815W        W32415  25.635  32.311   0.984
61816W        W32416  28.589   1.119   3.175
61817W        W32417  37.492  39.892  10.172
61818W        W32418  25.101  33.009  11.655
61819W        W32419  36.905  28.156   1.717
61820W        W32420  36.304  10.070   2.352
61821W        W32421   4.711  30.552  12.069
61822W        W32422  43.374  42.201   3.159
61823W        W32423  40.527  26.006  11.248
61824W        W32424  24.567   2.495  13.530
61825W        W32425   3.464  22.325   1.955
61826W        W32426  28.024   6.186  11.544
61827W        W32427  37.672  12.477   1.616
61828W        W32428  13.654  21.387  13.262
61829W        W32429  40.011  11.845  13.405
61830W        W32430  10.609  25.178  11.269
61831W        W32431  27.609   6.776   1.273
61832W        W32432  29.414   0.356  12.139
61833W        W32433  22.529  23.740  14.278
61834W        W32434   5.845  37.015   2.599
61835W        W32435  22.668  23.188   1.273
61836W        W32436   5.810  33.102   3.833
61837W        W32437  23.760  36.904   3.022
61838W        W32438  25.419  26.285  11.665
61839W        W32439  12.240  17.697   1.720
61840W        W32440   9.553  14.675   3.138
61841W        W32441  38.988  11.629   1.834
61842W        W32442  23.389   8.750   1.465
61843W        W32443   2.335   4.433   1.866
61844W        W32444  33.885  34.391   0.895
61845W        W32445  33.684   6.731   3.644
61846W        W32446  41.889   0.442  10.782
61847W        W32447  27.521  26.522  10.761
61848W        W32448  33.469  23.218  10.818
61849W        W32449   9.826   7.963   2.358
61850W        W32450  35.438  14.798   3.111
61851W        W32451  22.554  31.655  14.908
61852W        W32452  38.919   5.651   4.872
61853W        W32453  18.556  25.683  12.350
61854W        W32454  27.958  39.736   4.182
61855W        W32455   5.420  24.144  11.219
61856W        W32456  38.394  41.256  13.854
61857W        W32457  42.554  10.894   4.606
61858W        W32458   5.037  10.782   0.910
61859W        W32459  44.932  20.602  13.137
61860W        W32460  40.896  43.384   4.504
61861W        W32461  25.874  13.893  11.533
61862W        W32462  44.498  10.576  12.129
61863W        W32463  15.098   2.320  14.401
61864W        W32464  19.011  35.477   0.340
61865W        W32465  32.992  41.489  11.329
61866W        W32466  38.483  18.332   4.805
61867W        W32467   2.717   7.163  14.743
61868W        W32468  20.034  17.063  12.994
61869W        W32469  15.909  42.095   4.847
61870W        W32470  17.325  16.715   2.639
61871W        W32471  30.983  30.350  13.514
61872W        W32472  44.323  24.243  11.630
61873W        W32473  27.688   9.537   0.840
61874W        W32474  30.551  29.049  11.561
61875W        W32475  21.001  33.987  14.347
61876W        W32476  36.418  41.953   0.848
61877W        W32477   6.190  27.930  13.447
61878W        W32478   3.932   6.670   4.834
61879W        W32479  17.848  40.871  14.070
61880W        W32480  24.174  39.753   5.013
61881W        W32481  28.044  24.076  11.365
61882W        W32482   1.821  20.839  12.401
61883W        W32483  24.734   4.049  12.956
61884W        W32484  18.715   7.444  13.526
61885W        W32485  20.729  10.863   4.075
61886W        W32486  17.111   3.688  10.999
61887W        W32487  24.734  30.597   2.629
61888W        W32488   9.513   1.796  12.005
61889W        W32489  40.943  29.408  11.086
61890W        W32490  31.205  24.617  14.308
61891W        W32491  37.149  29.902   2.747
61892W        W32492  32.440  44.446   0.764
61893W        W32493  30.598  13.569   3.276
61894W        W32494  26.396  41.424   3.147
61895W        W32495  36.252  22.994   0.489
61896W        W32496  26.377  42.422  12.022
61897W        W32497  39.118  13.988  13.058
61898W        W32498   8.871  15.274  11.203
61899W        W32499  41.343   1.295  14.806
61900W        W32500  27.411  39.273   1.884
61901W        W32501  15.855   6.298  12.642
61902W        W32502  20.788  34.867   4.690
61903W        W32503  31.890  19.134   2.792
61904W        W32504  25.125  42.590  14.397
61905W        W32505  18.410   3.016  11.408
61906W        W32506  35.139  33.503   1.651
61907W        W32507  34.010  23.075  12.372
61908W        W32508  21.090  35.808   3.196
61909W        W32509  17.658   4.068   0.143
61910W        W32510  35.687  11.784  14.856
61911W        W32511  31.978  19.516  14.402
61912W        W32512  32.193  26.934   3.603
61913W        W32513   4.215  35.976   4.479
61914W        W32514  41.164  35.122   4.666
61915W        W32515   5.158   7.415  11.722
61916W        W32516  34.573  42.625   1.834
61917W        W32517  26.391  42.947   1.792
61918W        W32518  38.622  31.023   1.173
61919W        W32519   8.465  10.135   2.492
61920W        W32520   5.390  19.022   2.228
61921W        W32521   8.240   2.446   0.333
61922W        W32522  20.691  13.236  13.301
61923W        W32523  44.849  40.264  12.488
61924W        W32524  29.776  36.938  14.297
61925W        W32525  23.441  12.634   2.220
61926W        W32526   2.770  20.325   2.139
61927W        W32527  43.773  25.773   1.700
61928W        W32528   5.731   6.260   3.638
61929W        W32529  26.956  10.231  14.435
61930W        W32530  14.626   7.838   1.415
61931W        W32531  13.133  10.294  11.208
61932W        W32532  20.724  26.467  11.848
61933W        W32533  33.967  40.070  14.354
61934W        W32534  23.176  10.225   4.548
61935W        W32535  44.189  36.401   0.889
61936W        W32536  26.584  13.975   4.784
61937W        W32537   2.360   8.460   0.873
61938W        W32538   8.816  24.644  13.688
61939W        W32539  10.326   9.393  11.090
61940W        W32540  25.722  19.609   1.345
61941W        W32541  21.238  34.977   4.439
61942W        W32542  22.159   7.934   1.915
61943W        W32543   2.934  38.174   3.361
61944W        W32544  29.576  33.840   4.916
61945W        W32545   4.783   2.964   4.513
61946W        W32546  12.190  21.585   3.314
61947W        W32547  35.919  26.212   4.845
61948W        W32548  43.958  35.770  10.543
61949W        W32549  41.292   8.344  14.454
61950W        W32550  34.882   4.917  11.921
61951W        W32551  19.656  19.972   5.032
61952W        W32552   6.236  37.348   3.253
61953W        W32553   2.312  26.119   4.115
61954W        W32554  29.867  23.056  10.726
61955W        W32555  43.743  42.111   4.698
61956W        W32556   6.857   8.325  11.157
61957W        W32557   4.319  11.447  12.827
61958W        W32558  32.170  28.579   0.292
61959W        W32559  14.304  10.948   1.800
61960W        W32560  39.111  14.752  12.942
61961W        W32561   3.662   8.740   3.139
61962W        W32562  24.925  44.854  12.733
61963W        W32563  14.699   6.756  13.626
61964W        W32564   4.839  18.579  14.866
61965W        W32565  34.099  31.931   5.323
61966W        W32566  38.132  36.569   3.959
61967W        W32567  20.407  10.845   3.658
61968W        W32568  10.649  30.167   1.819
61969W        W32569   5.327  42.267   2.642
61970W        W32570   7.348  11.214  10.726
61971W        W32571   2.460  16.058   1.762
61972W        W32572  24.982  33.421  13.349
61973W        W32573  24.134  37.901   4.649
61974W        W32574   9.327  34.450  10.700
61975W        W32575  29.129  37.410  12.822
61976W        W32576   6.408  18.828   0.930
61977W        W32577   3.839  11.676  12.595
61978W        W32578  29.896  42.029  11.695
61979W        W32579  33.649  37.266  11.949
61980W        W32580  16.526  14.127   0.960
61981W        W32581   8.653  22.701   1.936
61982W        W32582  39.531   0.034   4.557
61983W        W32583  27.080  31.039   4.124
61984W        W32584   4.552   5.527   3.759
61985W        W32585   4.827  25.499  10.063
61986W        W32586  30.851  44.399   4.132
61987W        W32587  16.645   5.851   2.652
61988W        W32588  43.114  33.625  11.019
61989W        W32589  38.679  37.315   1.389
61990W        W32590  33.165  18.046  14.745
61991W        W32591  11.751  37.528   3.623
61992W        W32592   8.880  40.078   0.930
61993W        W32593  10.793  41.686   2.073
61994W        W32594   1.709  37.566  10.186
61995W        W32595  23.089  25.242  11.168
61996W        W32596   2.404  16.063   2.653
61997W        W32597  13.585  13.314   1.673
61998W        W32598  23.030  43.891  12.518
61999W        W32599  41.045  42.112  11.936
62000W        W32600  21.373  39.017  10.278
62001W        W32601  22.209  36.431   1.793
62002W        W32602  31.325  21.095   0.714
62003W        W32603  41.001  31.543   2.625
62004W        W32604  17.646  43.733  13.990
62005W        W32605  40.485  26.629   3.201
62006W        W32606  26.207  39.140  14.202
62007W        W32607  12.757  15.141   1.794
62008W        W32608  44.442  35.009  14.262
62009W        W32609  25.244  33.795  10.600
62010W        W32610  15.900  32.493  12.618
62011W        W32611  25.471  16.807  13.835
62012W        W32612  27.907  32.275   4.283
62013W        W32613  41.373   0.022  11.435
62014W        W32614   4.558  14.616   0.505
62015W        W32615   0.639  10.017   2.899
62016W        W32616  12.337  10.241  11.598
62017W        W32617   0.674  22.706  13.761
62018W        W32618  28.921   9.387  11.563
62019W        W32619  24.960  24.957  11.533
62020W        W32620  15.317   4.717   3.263
62021W        W32621  10.172  37.379   0.954
62022W        W32622   9.390  15.597   0.001
62023W        W32623   8.146   4.631  12.458
62024W        W32624   9.834  38.495  14.929
62025W        W32625  39.132   5.776  14.433
62026W        W32626  27.672  33.838  10.703
62027W        W32627  27.411  32.721   3.158
62028W        W32628  33.701  38.974   2.329
62029W        W32629  37.574  24.749  13.035
62030W        W32630  41.278  19.535  12.455
62031W        W32631  11.653  30.466  12.691
62032W        W32632  36.634  17.508  11.234
62033W        W32633   2.912  44.521  12.510
62034W        W32634  15.191  34.301   0.394
62035W        W32635  13.803  39.449   1.889
62036W        W32636  32.073  15.237  11.555
62037W        W32637   9.431  20.968  12.626
62038W        W32638   8.329   7.694  10.632
62039W        W32639   9.129   6.202  11.149
62040W        W32640  10.388  21.161   3.305
62041W        W32641  19.540  34.000  10.001
62042W        W32642   2.357  40.612   2.753
62043W        W32643  42.841   3.614  13.096
62044W        W32644  27.755  10.302   1.217
62045W        W32645  34.558  41.815  12.348
62046W        W32646  33.178   5.122  11.236
62047W        W32647   4.370  17.592   1.288
62048W        W32648  20.769  16.223   3.593
62049W        W32649  27.516  29.111  11.681
62050W        W32650  20.263  38.842  11.670
62051W        W32651  43.349   0.956   2.799
62052W        W32652  28.348  35.972   2.365
62053W        W32653  26.056   7.974   1.229
62054W        W32654  22.634   3.002  10.672
62055W        W32655   7.392  22.640   4.081
62056W        W32656  40.950  17.806   9.983
62057W        W32657  38.212  42.264   0.790
62058W        W32658   0.840  25.157  12.131
62059W        W32659  35.872  32.198   4.724
62060W        W32660  18.252  15.579  11.193
62061W        W32661   4.945   6.190  12.496
62062W        W32662  36.852   6.860   3.384
62063W        W32663   8.992  42.914   4.625
62064W        W32664  11.208  14.628  10.399
62065W        W32665  26.710   4.854   2.700
62066W        W32666  37.185  38.614   1.456
62067W        W32667  32.054  38.397  13.877
62068W        W32668  18.236   8.384  13.454
62069W        W32669  41.448  20.126  13.382
62070W        W32670   4.804  11.724  11.609
62071W        W32671   1.404  25.467  14.522
62072W        W32672   0.133   7.937  10.634
62073W        W32673  22.384  18.814  11.670
62074W        W32674  21.239  24.125   2.609
62075W        W32675  24.747  14.258  13.079
62076W        W32676  31.983  24.129   0.337
62077W        W32677  30.776   4.289  12.852
62078W        W32678   1.918  39.185   0.421
62079W        W32679  22.333  37.068  10.628
62080W        W32680  34.023  18.174  10.663
62081W        W32681  37.535  35.435   1.123
62082W        W32682  20.295  16.711   4.899
62083W        W32683  25.673  11.163   4.260
62084W        W32684  26.142  38.894  11.072
62085W        W32685  38.420  15.815  12.959
62086W        W32686  24.267  19.390   3.517
62087W        W32687  42.369   8.673   4.137
62088W        W32688   1.043  41.520  12.119
62089W        W32689  22.618  21.099   0.248
62090W        W32690   4.798  12.406   4.169
62091W        W32691   1.529   5.881  12.627
62092W        W32692   5.481  30.704   1.315
62093W        W32693  37.283  44.916  12.084
62094W        W32694  32.587  34.109  12.932
62095W        W32695   3.022  33.881   3.171
62096W        W32696   1.789  41.114  13.013
62097W        W32697  16.155  38.602  12.625
62098W        W32698  44.115  18.067   0.363
62099W        W32699  33.893  25.201  10.828
62100W        W32700  37.605  13.619  14.506
62101W        W32701  12.342  44.879   1.360
62102W        W32702  29.427  21.223   0.560
62103W        W32703  22.945  10.252  10.301
62104W        W32704  16.611  15.073   2.381
62105W        W32705  39.097   4.723  13.410
62106W        W32706  26.546  33.236   2.452
62107W        W32707  14.053   0.370  12.982
62108W        W32708  35.360  10.430   4.981
62109W        W32709  38.477  38.420  14.853
62110W        W32710  10.604   6.913   4.638
62111W        W32711  27.551  34.074  13.842
62112W        W32712   7.901  44.601   1.410
62113W        W32713  11.568  42.687   4.027
62114W        W32714  34.507  18.755   0.299
62115W        W32715  14.343  22.663  10.826
62116W        W32716  22.022   6.959  12.115
62117W        W32717   0.304   4.960   4.277
62118W        W32718  33.523  22.217   3.336
62119W        W32719  14.330   0.955   1.316
62120W        W32720   8.458  20.215  11.139
62121W        W32721  32.419  29.180   3.761
62122W        W32722  11.241  33.412   2.844
62123W        W32723  25.963  28.238   2.314
62124W        W32724   4.394   6.802  11.074
62125W        W32725  35.038  20.640  11.762
62126W        W32726  35.855  44.019  12.032
62127W        W32727   5.790  36.525   3.343
62128W        W32728  15.247  26.425   2.682
62129W        W32729   1.861  27.958   2.291
62130W        W32730  18.147   4.404  12.525
62131W        W32731  18.209  29.704  12.607
62132W        W32732  20.847  24.437   1.648
62133W        W32733  32.917   6.176   3.330
62134W        W32734  40.053  30.138  10.515
62135W        W32735  18.294  12.306   2.416
62136W        W32736   6.239  34.853  13.959
62137W        W32737  34.750  34.985   5.240
62138W        W32738  25.149  43.587  12.394
62139W        W32739  11.320  21.122  10.285
62140W        W32740  22.971   4.881   0.316
62141W        W32741  33.683  43.518   4.370
62142W        W32742  21.596  27.381  14.619
62143W        W32743   0.306   0.537  14.889
62144W        W32744  13.376  22.084  13.444
62145W        W32745  34.846  19.114   3.741
62146W        W32746  14.781  36.633   1.351
62147W        W32747  37.115  10.139   4.576
62148W        W32748  37.753  38.865  14.418
62149W        W32749   7.514  40.206  11.598
62150W        W32750  11.146  36.213  14.996
62151W        W32751  34.041  15.534   0.904
62152W        W32752  24.344   7.268  11.074
62153W        W32753   4.296   0.167   2.699
62154W        W32754  37.829  21.465  10.370
62155W        W32755  26.633  14.607  12.213
62156W        W32756  16.012  42.921  12.326
62157W        W32757   7.206  11.725  13.582
62158W        W32758  44.032  25.596  12.483
62159W        W32759  16.194  27.696  10.890
62160W        W32760  20.536  43.734   0.022
62161W        W32761  22.041   6.171  11.585
62162W        W32762  37.658  41.352  10.844
62163W        W32763  40.514  37.344   2.617
62164W        W32764  41.284  22.498  10.754
62165W        W32765  30.492  14.238  12.887
62166W        W32766  20.174  33.584  13.548
62167W        W32767  20.167  20.091  13.557
62168W        W32768   7.594  21.604  14.271
62169W        W32769  44.575  24.553  11.982
62170W        W32770  40.709  15.041  12.918
62171W        W32771  18.395  27.933   0.771
62172W        W32772  27.962  42.230   2.450
62173W        W32773  20.215  31.582   3.989
62174W        W32774  10.879  32.971   0.877
62175W        W32775  28.063   3.402  11.257
62176W        W32776  44.601   2.892  12.059
62177W        W32777  35.659   6.942   4.095
62178W        W32778   7.354  18.466   1.103
62179W        W32779   4.401  19.305   4.558
62180W        W32780  18.675   6.146   2.419
62181W        W32781   9.213  22.310  13.364
62182W        W32782  32.259  39.655  11.970
62183W        W32783   9.792  40.994  11.422
62184W        W32784  39.045   2.673   2.811
62185W        W32785  35.796  23.731   2.280
62186W        W32786  12.551   0.610   1.220
62187W        W32787  35.419   6.892  12.761
62188W        W32788  24.309  28.103   1.127
62189W        W32789  40.647  37.151  13.022
62190W        W32790   7.223  12.328  13.150
62191W        W32791   8.893  25.514  13.653
62192W        W32792  22.977  27.188  14.441
62193W        W32793  23.954  16.403   1.356
62194W        W32794  22.492  14.610   1.700
62195W        W32795  16.341  24.095   3.897
62196W        W32796   5.010  42.472   3.843
62197W        W32797  39.022  35.549   3.061
62198W        W32798   2.161   8.372   4.212
62199W        W32799  14.625  32.500   0.424
62200W        W32800   5.606   7.173  13.939
62201W        W32801  11.383   8.916   3.307
62202W        W32802   7.360  28.911  13.166
62203W        W32803  38.123  32.026   0.160
62204W        W32804  22.751  39.926   1.331
62205W        W32805   3.750  40.577  14.369
62206W        W32806  19.494  13.964   3.368
62207W        W32807  28.727  14.902  14.148
62208W        W32808  36.633  14.593   1.184
62209W        W32809   4.694   9.993   0.373
62210W        W32810  38.104  26.696  12.897
62211W        W32811  42.894  36.551   3.770
62212W        W32812   0.146  17.726   0.829
62213W        W32813  23.254  18.142  13.923
62214W        W32814  26.370  25.230  11.364
62215W        W32815  27.018  19.229  13.450
62216W        W32816  44.525  32.557   3.187
62217W        W32817   1.589  40.533   0.696
62218W        W32818   3.372  25.488   1.134
62219W        W32819  27.066  44.737  13.405
62220W        W32820  27.000  41.018   0.567
62221W        W32821  40.507  38.080  12.602
62222W        W32822  28.430  22.538  10.570
62223W        W32823  28.111  42.973  13.937
62224W        W32824  17.662   5.307  12.660
62225W        W32825  28.837  33.494  10.653
62226W        W32826  13.519  10.844  11.159
62227W        W32827   8.311   0.133   0.561
62228W        W32828   5.027  14.177   1.820
62229W        W32829  11.237   2.690  11.035
62230W        W32830   4.399   1.463  13.493
62231W        W32831   7.115  43.244  10.974
62232W        W32832  43.346   7.096   3.346
62233W        W32833  28.011  26.093   0.847
62234W        W32834  14.707   0.383   2.850
62235W        W32835   3.917  39.690  11.435
62236W        W32836  22.038  13.815  10.894
62237W        W32837  12.567   3.619  12.067
62238W        W32838  12.848  41.446  12.381
62239W        W32839  13.243   5.106  14.306
62240W        W32840  40.002  18.568   0.850
62241W        W32841  21.795  36.967  11.561
62242W        W32842  37.120  23.300   4.086
62243W        W32843   8.870  43.918  10.705
62244W        W32844  23.537  36.510  12.892
62245W        W32845  28.580  37.979  13.763
62246W        W32846  38.345  33.028  14.356
62247W        W32847  17.035   3.381  14.347
62248W        W32848  26.175  30.067  13.512
62249W        W32849  22.976  44.766   0.907
62250W        W32850  30.473  33.469   0.838
62251W        W32851  36.890   0.555  11.506
62252W        W32852  34.409   2.231   3.715
62253W        W32853  31.478  31.402  14.441
62254W        W32854   0.206  20.475   0.786
62255W        W32855   5.090   3.264  11.983
62256W        W32856  31.395   1.513   4.231
62257W        W32857  40.042  16.012   3.062
62258W        W32858  25.174  25.277   2.290
62259W        W32859  17.407  14.604  14.566
62260W        W32860  17.989   4.167   4.609
62261W        W32861   0.915  18.253  14.951
62262W        W32862  41.040  37.793  10.510
62263W        W32863   6.186  32.537   4.854
62264W        W32864  23.748   0.125  14.091
62265W        W32865  27.527   0.718  11.315
62266W        W32866  36.317  32.615   1.838
62267W        W32867   8.618  16.793  10.387
62268W        W32868  15.459  32.830   3.614
62269W        W32869  29.449  10.167  14.287
62270W        W32870  15.007  42.375  13.467
62271W        W32871  21.158  23.269  12.841
62272W        W32872  21.816  22.411   4.530
62273W        W32873  39.532  35.617  14.843
62274W        W32874  12.694  14.822   2.220
62275W        W32875  33.958  25.997   3.256
62276W        W32876   0.776  19.599   2.751
62277W        W32877  41.431  29.317  11.214
62278W        W32878   7.687   4.257   2.614
62279W        W32879   0.926  37.513  11.195
62280W        W32880  13.805   9.627  14.272
62281W        W32881  11.776  11.704  11.966
62282W        W32882  26.527  31.580  12.968
62283W        W32883  40.412  27.109  11.749
62284W        W32884  25.545  16.053  11.984
62285W        W32885  30.325  14.840  14.023
62286W        W32886  32.652   1.976   1.272
62287W        W32887  10.330  43.949   0.243
62288W        W32888  17.734   4.778  12.465
62289W        W32889  17.158   5.314  12.535
62290W        W32890  15.271  16.882   3.087
62291W        W32891  11.046  21.654   4.809
62292W        W32892  26.181  17.274  13.762
62293W        W32893   5.341  37.426   0.166
62294W        W32894  29.887   6.353  11.894
62295W        W32895   9.723  14.363  11.240
62296W        W32896  44.250   5.421  13.124
62297W        W32897  33.704   1.272   3.233
62298W        W32898  29.182  43.317   4.578
62299W        W32899  41.332  42.539   4.214
62300W        W32900   4.847   7.506  14.334
62301W        W32901  39.120   7.082   1.213
62302W        W32902  44.955   2.968  13.420
62303W        W32903  26.589  24.985   1.732
62304W        W32904  33.062  20.009   0.529
62305W        W32905  29.219  16.688   4.090
62306W        W32906  39.846  25.744  11.147
62307W        W32907  11.591  38.104  14.908
62308W        W32908   3.814   9.410   0.307
62309W        W32909  27.967  35.297  12.021
62310W        W32910  39.603   8.231  12.931
62311W        W32911  20.202  27.392  12.558
62312W        W32912  37.523  14.426   2.595
62313W        W32913  22.249   3.422  12.973
62314W        W32914  34.184  44.504  11.976
62315W        W32915  30.100  21.517   0.249
62316W        W32916  18.021  13.669   1.912
62317W        W32917   7.656   6.712  14.995
62318W        W32918  23.256  11.566   3.062
62319W        W32919  27.226  44.726  11.557
62320W        W32920   8.232  22.279   4.117
62321W        W32921  34.627   2.742   4.694
62322W        W32922   7.391   4.105   0.555
62323W        W32923  29.664   1.347   2.281
62324W        W32924  44.553  44.300  12.638
62325W        W32925   6.111  42.319  10.639
62326W        W32926  36.780  31.139   0.457
62327W        W32927  16.077  44.832  10.903
62328W        W32928  18.070  19.982  14.694
62329W        W32929  27.498  31.028   3.826
62330W        W32930  33.977  19.379  11.513
62331W        W32931  17.654  11.680   0.996
62332W        W32932  43.561   1.469  12.025
62333W        W32933  18.933  21.451  11.106
62334W        W32934  32.541   9.399   2.911
62335W        W32935  44.936  27.489  10.698
62336W        W32936  30.572  10.656   1.829
62337W        W32937  37.108   0.682   2.737
62338W        W32938  18.305  11.715  14.851
62339W        W32939  39.269  40.308   1.896
62340W        W32940  25.952  35.034   3.280
62341W        W32941  37.858  32.386   0.471
62342W        W32942   5.598  43.379  14.310
62343W        W32943  39.924  41.744  13.383
62344W        W32944  23.622  17.040   2.952
62345W        W32945   7.420  27.001   4.122
62346W        W32946   6.459  26.142  12.537
62347W        W32947   4.628  41.609   4.868
62348W        W32948  34.160   8.222   3.259
62349W        W32949   9.741  16.777   4.338
62350W        W32950  20.977  17.388   2.297
62351W        W32951  30.895   6.795   4.582
62352W        W32952  20.737  27.775  14.339
62353W        W32953  36.974  35.179   0.387
62354W        W32954  25.779  16.114  11.100
62355W        W32955  44.058  10.630   2.371
62356W        W32956  44.713  39.637  14.431
62357W        W32957  20.724  39.403   0.826
62358W        W32958  29.704  22.696  14.376
62359W        W32959  18.765  35.746   3.316
62360W        W32960  26.961  44.888  10.716
62361W        W32961   3.094  25.170   2.926
62362W        W32962   8.722  28.967  13.592
62363W        W32963  32.475  20.658   3.294
62364W        W32964   8.338  35.877   2.782
62365W        W32965  29.038  22.017  10.686
62366W        W32966  18.661   8.775   1.884
62367W        W32967  33.398  27.498  11.950
62368W        W32968  26.581   8.367  13.009
62369W        W32969  15.624  27.958   2.780
62370W        W32970  16.950  19.301   2.762
62371W        W32971   8.907  41.924   3.122
62372W        W32972  14.726  44.490   0.334
62373W        W32973  22.526  44.530   3.231
62374W        W32974  12.794   6.597   0.430
62375W        W32975  31.573  12.641  14.844
62376W        W32976  42.314  24.945   1.615
62377W        W32977  20.748  33.826   4.146
62378W        W32978  18.464   1.009   2.840
62379W        W32979  12.694  14.929   0.839
62380W        W32980  23.296   3.068   1.900
62381W        W32981  34.908  36.100  10.463
62382W        W32982  11.189   2.879  12.493
62383W        W32983  39.885   6.975  11.676
62384W        W32984  19.295   1.234  13.594
62385W        W32985  32.366  18.704   0.266
62386W        W32986  13.831  20.823  14.918
62387W        W32987  37.267  33.342   3.153
62388W        W32988  20.249   7.943  11.571
62389W        W32989  17.722  13.780  11.894
62390W        W32990  33.404   9.910  11.575
62391W        W32991  28.196  19.039  11.593
62392W        W32992  44.361  31.015  11.400
62393W        W32993   4.504  42.713  13.702
62394W        W32994   1.066   8.700  12.969
62395W        W32995  18.965  43.736   3.842
62396W        W32996  19.742  16.053   4.712
62397W        W32997  12.706   7.178   3.706
62398W        W32998   7.016  41.850  13.116
62399W        W32999  24.389  34.390   5.223
62400W        W33000  41.030  22.030   4.252
62401W        W33001  43.453  15.693  12.863
62402W        W33002   0.308  11.086  11.579
62403W        W33003  15.733  15.581   0.829
62404W        W33004  30.897  18.369   0.383
62405W        W33005   4.234  18.224  12.713
62406W        W33006   8.200  29.705  11.075
62407W        W33007  15.322  11.397  11.075
62408W        W33008  17.562  31.154   2.612
62409W        W33009  38.704   5.251   5.208
62410W        W33010   7.416   5.690  14.014
62411W        W33011  14.544  10.807   3.721
62412W        W33012  43.463  41.505  10.782
62413W        W33013  20.760  14.644  13.574
62414W        W33014  39.500  19.602  12.633
62415W        W33015   2.815  13.832   2.142
62416W        W33016  28.220  20.240   0.384
62417W        W33017  44.721  36.772   4.615
62418W        W33018  14.153  33.834  12.937
62419W        W33019  14.679  34.487  14.488
62420W        W33020   9.218  43.722   3.338
62421W        W33021  32.010  39.424  14.638
62422W        W33022  37.371  31.485   0.284
62423W        W33023  17.879  21.053   3.692
62424W        W33024  29.588  38.876   2.814
62425W        W33025  29.889  43.834  14.497
62426W        W33026   5.298  19.152  14.198
62427W        W33027  35.349   1.818   1.380
62428W        W33028  31.159  21.784   0.321
62429W        W33029  13.827  24.764  11.077
62430W        W33030  27.957   1.419   2.760
62431W        W33031   2.655  13.266  14.813
62432W        W33032   5.720   6.179   3.118
62433W        W33033  44.792  18.020   2.282
62434W        W33034   5.956  12.625   4.597
62435W        W33035  33.831   8.834  14.592
62436W        W33036  15.064  15.058  11.120
62437W        W33037  41.266  10.353  12.063
62438W        W33038  36.879   3.408   2.780
62439W        W33039  19.508  33.619   4.043
62440W        W33040  41.022  39.583  12.079
62441W        W33041   7.602  19.754   2.162
62442W        W33042  38.502  20.542  12.077
62443W        W33043  43.356   7.040  13.026
62444W        W33044  11.138  15.382   2.885
62445W        W33045  42.498  36.631   0.510
62446W        W33046  15.066  18.744   3.366
62447W        W33047  30.016   2.089  11.859
62448W        W33048  32.366   3.192   2.470
62449W        W33049  22.853  29.032  10.676
62450W        W33050  38.772  20.351   3.067
62451W        W33051   4.028  19.658   1.682
62452W        W33052  35.815  35.023  10.680
62453W        W33053  16.491   8.609  11.825
62454W        W33054  28.637  19.723  14.898
62455W        W33055  42.594  19.853   0.778
62456W        W33056   3.767  42.404  10.995
62457W        W33057   8.932  19.870  12.115
62458W        W33058  39.420  35.806  14.332
62459W        W33059  17.574  38.404   0.245
62460W        W33060  41.525  43.004  13.406
62461W        W33061  24.684  16.820  14.316
62462W        W33062   1.235   5.276  11.638
62463W        W33063  14.106  35.351  14.253
62464W        W33064  34.448   7.707   1.315
62465W        W33065  17.044  15.969   3.752
62466W        W33066  40.995  38.630   4.675
62467W        W33067  19.878  24.724   3.660
62468W        W33068  36.569  23.910   3.646
62469W        W33069   6.931   0.297   1.876
62470W        W33070  17.084  24.949  12.524
62471W        W33071  15.689  36.129   3.242
62472W        W33072   2.534   1.332  10.601
62473W        W33073  17.665   0.853   1.655
62474W        W33074  12.371   7.221   0.895
62475W        W33075   5.829  23.238   2.260
62476W        W33076   7.613  35.177  14.927
62477W        W33077  40.657   3.306   1.773
62478W        W33078  10.160  26.013   0.873
62479W        W33079  33.524  33.124   0.540
62480W        W33080  28.648  25.497   2.686
62481W        W33081  13.142  11.233   1.839
62482W        W33082  11.109  23.099  13.437
62483W        W33083  44.251   9.638  11.160
62484W        W33084   8.183  17.180  14.417
62485W        W33085  38.088  32.551  14.410
62486W        W33086  24.146  10.861  14.328
62487W        W33087  41.282  22.645   0.713
62488W        W33088   2.432  39.298   1.284
62489W        W33089   3.396  15.356   1.377
62490W        W33090  23.955  36.958   1.705
62491W        W33091  20.736  39.930  13.324
62492W        W33092  26.458  28.227  14.912
62493W        W33093  10.694  38.450   2.101
62494W        W33094  29.914  35.940   4.533
62495W        W33095  41.113  11.694   2.862
62496W        W33096   3.723  27.597   2.348
62497W        W33097   1.367   7.478  13.929
62498W        W33098   9.716  28.431  10.784
62499W        W33099  29.016  28.869   2.705
62500W        W33100  15.547  23.083  10.315
62501W        W33101  21.553  24.801  12.183
62502W        W33102  23.804  24.617   4.153
62503W        W33103  28.480  13.007   5.052
62504W        W33104   8.230  34.887  11.069
62505W        W33105  17.765  13.423   4.097
62506W        W33106  30.895  29.344  14.978
62507W        W33107   5.630  20.173   4.578
62508W        W33108   6.255  26.489  13.900
62509W        W33109  15.901  14.350  13.404
62510W        W33110  43.964  17.184  12.097
62511W        W33111  28.536  14.237  10.838
62512W        W33112  34.546  26.783   4.099
62513W        W33113  42.487  37.814  11.148
62514W        W33114  28.628  22.641   1.869
62515W        W33115  26.187  20.104   3.689
62516W        W33116  30.531   9.961   4.157
62517W        W33117   4.216  15.083  11.020
62518W        W33118  12.888  12.547   4.393
62519W        W33119   9.143  38.522   1.425
62520W        W33120  11.350  28.451  14.473
62521W        W33121  38.049   2.117   1.825
62522W        W33122  23.970  23.789   4.741
62523W        W33123  23.996  21.165   3.683
62524W        W33124  39.332  37.647  11.440
62525W        W33125  41.211   9.152   1.728
62526W        W33126  19.778   2.714  14.308
62527W        W33127  22.696  41.876  13.783
62528W        W33128   4.947  11.197   3.728
62529W        W33129  25.102   7.473  12.239
62530W        W33130  12.066  13.359   3.761
62531W        W33131  26.087  20.261   2.005
62532W        W33132  22.335   4.185  11.277
62533W        W33133  26.533  34.324  13.462
62534W        W33134  27.110  37.434   4.144
62535W        W33135  33.327   9.709  14.337
62536W        W33136  18.467   4.978  13.213
62537W        W33137  22.712  34.864  14.046
62538W        W33138  23.477  23.161  10.473
62539W        W33139  20.468  34.082  11.734
62540W        W33140  44.765   4.284   0.367
62541W        W33141   1.552   0.319   0.041
62542W        W33142   3.504   9.538   3.204
62543W        W33143  36.375   6.852   0.355
62544W        W33144  38.882   5.804   4.221
62545W        W33145  26.670  33.582   2.096
62546W        W33146   5.005  20.623  10.638
62547W        W33147   0.577  21.146  12.726
62548W        W33148  43.011  25.057   4.286
62549W        W33149  12.327  39.358  11.074
62550W        W33150  26.640  29.121  12.738
62551W        W33151  41.454  17.904  13.932
62552W        W33152  39.930   6.647   2.297
62553W        W33153   5.185  31.910   1.817
62554W        W33154  31.375  35.303  12.442
62555W        W33155   3.962   9.165  10.528
62556W        W33156  19.411   6.783   1.920
62557W        W33157  30.475  38.768  11.997
62558W        W33158  11.275   6.186   2.246
62559W        W33159  36.615   2.709   4.107
62560W        W33160  10.546  21.987   0.379
62561W        W33161  11.596   5.796   2.205
62562W        W33162  31.548  17.639  13.969
62563W        W33163  14.576  24.225   3.175
62564W        W33164  31.846  28.943  12.141
62565W        W33165   5.858  15.819  11.368
62566W        W33166  23.471  38.915   1.752
62567W        W33167  36.119  38.829  11.074
62568W        W33168   2.973  19.028   4.745
62569W        W33169   5.937  44.826   4.568
62570W        W33170  40.591   5.414  13.848
62571W        W33171  39.988  40.994  11.272
62572W        W33172  37.535   6.645  14.860
62573W        W33173  32.962  41.775  12.691
62574W        W33174   5.677   4.398   3.601
62575W        W33175   0.424   5.743  13.430
62576W        W33176  32.674  36.075   2.644
62577W        W33177   5.417   5.833   1.936
62578W        W33178  36.634  30.343   3.239
62579W        W33179  40.048   9.619  13.436
62580W        W33180  32.506  26.189   3.564
62581W        W33181  19.863  25.076  11.125
62582W        W33182  11.743  25.630   4.371
62583W        W33183  27.211  11.265  12.619
62584W        W33184  40.799  12.102   3.605
62585W        W33185  22.607  42.235  10.602
62586W        W33186  13.869   0.832   2.685
62587W        W33187  16.216  26.516  13.339
62588W        W33188  35.577  20.221  13.960
62589W        W33189  34.317  17.441  11.537
62590W        W33190   3.983  40.060  13.425
62591W        W33191  36.087   7.790  14.416
62592W        W33192  21.218  32.343  10.748
62593W        W33193  30.692  31.639  11.485
62594W        W33194  44.327   5.635  10.384
62595W        W33195  23.547  13.842   3.413
62596W        W33196   4.777  41.491   3.652
62597W        W33197  42.884   0.795   3.145
62598W        W33198  37.141  28.583   3.024
62599W        W33199  40.244  27.900  11.133
62600W        W33200  31.139  30.065   3.676
62601W        W33201   6.927  42.527  14.296
62602W        W33202   3.809  28.458  11.171
62603W        W33203  18.556  40.581   5.027
62604W        W33204   7.155  26.621   2.488
62605W        W33205  21.513  26.002   1.603
62606W        W33206  33.873  21.527   2.102
62607W        W33207   4.260  27.085   1.987
62608W        W33208   7.662  22.715   0.060
62609W        W33209  39.763   5.401   0.846
62610W        W33210   6.561  24.756   1.198
62611W        W33211  24.435  30.586  10.812
62612W        W33212  13.047  29.419   0.518
62613W        W33213  24.546   7.484  13.687
62614W        W33214   6.569   7.262   9.939
62615W        W33215   5.309  13.060   1.350
62616W        W33216  24.573  38.097   4.848
62617W        W33217  42.782   5.312   2.135
62618W        W33218  41.979   4.962   2.648
62619W        W33219  24.467  11.309   0.886
62620W        W33220  34.114   8.362   4.520
62621W        W33221  42.066   2.397   2.242
62622W        W33222  43.667  36.064   1.488
62623W        W33223   1.400  17.505  11.199
62624W        W33224   9.223  29.874  13.018
62625W        W33225  44.881  28.785  12.688
62626W        W33226  44.797  32.404   2.778
62627W        W33227  22.441  30.400  13.901
62628W        W33228   1.817  35.907  13.649
62629W        W33229  32.065   0.943  12.088
62630W        W33230   3.335  11.101   0.389
62631W        W33231  24.645   9.894   0.585
62632W        W33232  17.194   4.062   4.146
62633W        W33233  42.475  19.723  14.401
62634W        W33234  40.310  41.311   2.469
62635W        W33235  29.901  37.326  13.437
62636W        W33236  41.774  36.477  11.637
62637W        W33237  38.996   1.258  11.604
62638W        W33238  10.624   7.367   4.328
62639W        W33239   3.797  12.605  12.653
62640W        W33240  18.485  41.424   3.876
62641W        W33241   2.745  12.616   1.333
62642W        W33242  36.449   7.397   0.342
62643W        W33243  26.539  15.223   3.084
62644W        W33244  41.646  10.807  13.307
62645W        W33245  25.423  35.558  12.829
62646W        W33246  44.183  19.822   3.125
62647W        W33247   5.344  31.132   4.169
62648W        W33248   6.404  39.617  11.128
62649W        W33249  26.194  32.534  10.701
62650W        W33250  22.398  35.895  11.168
62651W        W33251  29.632  10.210  14.769
62652W        W33252  12.440   7.443   1.367
62653W        W33253   4.677  21.451  11.542
62654W        W33254   2.163  28.175  14.363
62655W        W33255  33.413  41.973   1.840
62656W        W33256  10.186   4.664  12.237
62657W        W33257  20.409   3.930  11.017
62658W        W33258  30.948   6.357  14.845
62659W        W33259  36.611  40.918  14.246
62660W        W33260  44.375   3.945   2.731
62661W        W33261  17.492  13.193  13.868
62662W        W33262  36.132  44.393   1.954
62663W        W33263  25.744  30.899   3.128
62664W        W33264  20.027  43.882   3.141
62665W        W33265  31.106  37.534  13.894
62666W        W33266  34.386  39.473   0.299
62667W        W33267  21.543  16.269  12.871
62668W        W33268  33.252  43.625   4.077
62669W        W33269  17.641  14.079  10.228
62670W        W33270  25.570  32.573  12.204
62671W        W33271  33.063  26.606  12.848
62672W        W33272  23.213  38.925   0.921
62673W        W33273   7.541  10.364   1.051
62674W        W33274   4.294  12.710  14.033
62675W        W33275   3.786  19.044  12.407
62676W        W33276  20.093  39.145   1.729
62677W        W33277  33.125   9.862   3.548
62678W        W33278  26.191  28.583   2.786
62679W        W33279  29.201  15.666  12.992
62680W        W33280  31.459  18.577   4.046
62681W        W33281  24.466  34.105  14.392
62682W        W33282  37.369  31.529   2.904
62683W        W33283  41.116  41.872  12.391
62684W        W33284  39.972   0.785  14.449
62685W        W33285  15.153  28.598   0.712
62686W        W33286   8.458  23.524   3.196
62687W        W33287  17.215  25.127  12.017
62688W        W33288   3.529  12.119  13.358
62689W        W33289  12.303  44.303  13.517
62690W        W33290  14.914  42.974   0.321
62691W        W33291  36.585  36.899  14.561
62692W        W33292  41.430  33.610   3.591
62693W        W33293  31.204  34.998   3.790
62694W        W33294  36.322   6.845  13.048
62695W        W33295  19.469   1.489  10.643
62696W        W33296  37.911  14.895   3.781
62697W        W33297   3.449  32.500  11.233
62698W        W33298  31.198   7.364  11.623
62699W        W33299   8.216  41.923   0.787
62700W        W33300  33.474   5.606   4.658
62701W        W33301  37.939   0.907  12.872
62702W        W33302  28.944  12.332   0.906
62703W        W33303  36.041  19.144   4.915
62704W        W33304  21.269   4.283  10.153
62705W        W33305  29.011  25.067   4.524
62706W        W33306  11.858  33.126   3.755
62707W        W33307   5.958  26.454   2.290
62708W        W33308  37.615  36.579   4.180
62709W        W33309   3.331   4.924  10.764
62710W        W33310  14.063   0.914   4.289
62711W        W33311  29.047  43.249  14.497
62712W        W33312  27.696  15.370   1.743
62713W        W33313   9.286  30.008  11.288
62714W        W33314  34.864  39.898   0.865
62715W        W33315   3.372  36.791  10.634
62716W        W33316  43.378  32.602   1.422
62717W        W33317  22.057  24.525  13.878
62718W        W33318  19.069  39.406   4.858
62719W        W33319  37.895   2.734  14.808
62720W        W33320  38.392  19.154  11.983
62721W        W33321   2.785  31.902  10.173
62722W        W33322  42.099  14.607   4.624
62723W        W33323   0.838   3.017  11.936
62724W        W33324   2.398  33.874   1.886
62725W        W33325   7.779  31.010   1.611
62726W        W33326  29.566  27.583   1.952
62727W        W33327  15.569   3.230  11.119
62728W        W33328  16.041   0.784  13.359
62729W        W33329  18.171   7.713  11.204
62730W        W33330  39.894  36.399   3.879
62731W        W33331  22.172  20.839   2.087
62732W        W33332  14.869  31.036   3.417
62733W        W33333  40.527  29.399  12.957
62734W        W33334  42.831  17.015   0.838
62735W        W33335  28.169  29.910  14.444
62736W        W33336  31.243  20.087  12.446
62737W        W33337  24.856  28.474   4.583
62738W        W33338  26.698  34.363   2.236
62739W        W33339  13.090  35.557   2.517
62740W        W33340  38.780  17.641  14.330
62741W        W33341  41.302  38.185  11.015
62742W        W33342  13.121  14.065  14.382
62743W        W33343  44.697   3.863  13.091
62744W        W33344  11.609  25.898   0.878
62745W        W33345  11.551  28.802  12.355
62746W        W33346   5.946  25.219   3.714
62747W        W33347  22.896   4.469  13.937
62748W        W33348  35.008  18.821  13.843
62749W        W33349  30.705  14.896  10.733
62750W        W33350  15.738   3.912  11.149
62751W        W33351  30.164   1.329  10.778
62752W        W33352   2.419  42.481   3.347
62753W        W33353  44.822  21.476  12.087
62754W        W33354  16.128  12.559   3.011
62755W        W33355   6.843  42.361   0.788
62756W        W33356  39.045   8.579   0.901
62757W        W33357  25.479   7.551   2.530
62758W        W33358   2.731  35.787  12.986
62759W        W33359  38.346   3.049  14.764
62760W        W33360  31.386  25.600  14.514
62761W        W33361  44.754  32.150  11.538
62762W        W33362  39.248  11.192   0.840
62763W        W33363  27.680  35.339   0.008
62764W        W33364  15.743  37.110   2.947
62765W        W33365  39.358  39.512  12.781
62766W        W33366  27.603  21.367  10.342
62767W        W33367   7.539  16.249  12.095
62768W        W33368  38.638  36.425   4.784
62769W        W33369  44.980  22.658   4.401
62770W        W33370  34.994  43.254  12.252
62771W        W33371   1.108   8.691  14.245
62772W        W33372  25.540  37.263   5.070
62773W        W33373  35.372  15.701   4.331
62774W        W33374   8.439  10.096   3.005
62775W        W33375  41.742  32.452  11.589
62776W        W33376   1.108  30.450   2.556
62777W        W33377  16.065  27.490   3.794
62778W        W33378  15.751  12.188   3.975
62779W        W33379  10.916  26.581   3.121
62780W        W33380  40.498  20.114   1.203
62781W        W33381   3.499  31.510  11.644
62782W        W33382  37.536  24.465   2.889
62783W        W33383  33.146  43.424  14.599
62784W        W33384  29.485  32.419  13.532
62785W        W33385  19.528  24.504  11.575
62786W        W33386  22.174  25.011  10.737
62787W        W33387   2.290   7.040   3.830
62788W        W33388  18.569  19.136   4.768
62789W        W33389  21.227  36.631   0.319
62790W        W33390  21.038  30.419   2.271
62791W        W33391  20.484  32.068   3.823
62792W        W33392  16.328  31.584  10.489
62793W        W33393  10.652   3.210  13.020
62794W        W33394   4.263  23.363   0.751
62795W        W33395   0.664   5.235   0.841
62796W        W33396  35.521  11.880  12.391
62797W        W33397  42.781  19.071  14.982
62798W        W33398   3.772  24.194  13.056
62799W        W33399  35.068  17.672   3.085
62800W        W33400   9.594   4.840  13.940
62801W        W33401  19.626  24.984   4.248
62802W        W33402   3.453  40.085  12.575
62803W        W33403  21.463   9.272   0.315
62804W        W33404  28.926   0.075   0.791
62805W        W33405  22.334  41.753   0.850
62806W        W33406  19.083  26.375   1.304
62807W        W33407  21.633  41.398   3.253
62808W        W33408  20.509  39.368   4.743
62809W        W33409  13.850  42.077   3.697
62810W        W33410  41.911  25.174   2.862
62811W        W33411  20.253  27.433  10.735
62812W        W33412  30.355  16.845   0.000
62813W        W33413   8.098  17.027   3.114
62814W        W33414   6.303  31.876  11.194
62815W        W33415  18.253  14.326   4.185
62816W        W33416  39.396  39.792  11.072
62817W        W33417  35.108  18.321   0.838
62818W        W33418  15.172  11.108  14.468
62819W        W33419  15.236  39.038  12.416
62820W        W33420   2.701  42.502  12.136
62821W        W33421  40.285  31.544   4.763
62822W        W33422  22.882  38.396   0.729
62823W        W33423  24.231  39.830  13.924
62824W        W33424   9.799   7.804   4.543
62825W        W33425  38.244  19.435   5.456
62826W        W33426  18.115   0.009   2.402
62827W        W33427   8.748   1.057   1.440
62828W        W33428  35.839   6.548   2.774
62829W        W33429  12.167  22.191   2.867
62830W        W33430  23.262   5.727  13.862
62831W        W33431   5.128   1.251   1.474
62832W        W33432   6.476  44.520   3.563
62833W        W33433  16.655  33.355   9.701
62834W        W33434  14.042  13.291  10.327
62835W        W33435  17.342  20.498  12.539
62836W        W33436  43.877  13.303  13.689
62837W        W33437  10.578  38.049  13.928
62838W        W33438   6.283  35.761  12.907
62839W        W33439   9.545  35.510   1.325
62840W        W33440  27.064  33.873   3.206
62841W        W33441  18.562  40.451  11.571
62842W        W33442  39.313   2.337   0.859
62843W        W33443  16.184  23.954  12.102
62844W        W33444   9.383  11.293   4.765
62845W        W33445   8.805  16.710   3.329
62846W        W33446  43.453  31.703  12.052
62847W        W33447  23.207   1.578  14.787
62848W        W33448  33.063  25.178   0.909
62849W        W33449  43.186  42.731   2.306
62850W        W33450   4.198   3.602   2.306
62851W        W33451  39.907  20.977  13.487
62852W        W33452  19.329  29.185   1.321
62853W        W33453  24.644  33.604  14.360
62854W        W33454   2.339   7.785   0.095
62855W        W33455  25.280  19.923  13.844
62856W        W33456   2.253  31.607  11.188
62857W        W33457   9.196   9.909  12.485
62858W        W33458  34.414  19.008   2.808
62859W        W33459  22.646  38.046  13.876
62860W        W33460   3.501   8.673  12.573
62861W        W33461  35.517   1.561  11.133
62862W        W33462  41.137  13.212  12.038
62863W        W33463  13.613  15.331   1.230
62864W        W33464  31.319  19.199  10.809
62865W        W33465  25.788  29.048  12.101
62866W        W33466  29.170  38.825  11.094
62867W        W33467  19.510  31.991  11.602
62868W        W33468  39.729  36.476  13.462
62869W        W33469  18.807  12.548   2.163
62870W        W33470  39.409   4.799   0.242
62871W        W33471  41.372  29.972  13.033
62872W        W33472  40.781  20.538   1.219
62873W        W33473  19.324   4.706  13.245
62874W        W33474   3.951  23.009  13.408
62875W        W33475  41.810  25.029  13.337
62876W        W33476  20.855  40.405  14.955
62877W        W33477  36.516  15.294  11.600
62878W        W33478   9.437  30.000   2.324
62879W        W33479  40.954  43.294  13.828
62880W        W33480  33.919  39.156   3.064
62881W        W33481  44.069  24.703   2.445
62882W        W33482  31.784  36.942   4.842
62883W        W33483  28.196   7.287   0.502
62884W        W33484   3.379   9.887  13.905
62885W        W33485  24.731  20.425  14.363
62886W        W33486  43.042  24.792   2.837
62887W        W33487  42.277  33.925  11.495
62888W        W33488  28.622  15.820   2.651
62889W        W33489  19.949  34.101   0.411
62890W        W33490   0.396  24.892  11.031
62891W        W33491  20.053  20.488   0.760
62892W        W33492  43.388  13.217   2.917
62893W        W33493  27.207   5.649   2.323
62894W        W33494  41.802  13.095   0.972
62895W        W33495  43.758   5.417  12.436
62896W        W33496  11.816  44.235   0.679
62897W        W33497  16.107  14.853  14.429
62898W        W33498  38.712  21.393   1.825
62899W        W33499  38.065  17.093  11.074
62900W        W33500  15.425  16.079   5.383
62901W        W33501  40.873  36.101   2.247
62902W        W33502  22.275  24.045  11.602
62903W        W33503  34.021  39.898   4.443
62904W        W33504  12.757   2.575  10.572
62905W        W33505   5.668  15.636   4.247
62906W        W33506  27.025  35.529   1.926
62907W        W33507  27.600  31.173   3.338
62908W        W33508   3.908  44.787  13.391
62909W        W33509  39.729  22.083   3.122
62910W        W33510  32.404  16.255  12.176
62911W        W33511  31.630  16.371   0.783
62912W        W33512  36.040  39.832   2.492
62913W        W33513  25.221  40.884  12.977
62914W        W33514  31.922  18.476  14.383
62915W        W33515  42.907  23.722  12.913
62916W        W33516   2.867  38.414  12.314
62917W        W33517   3.920  41.594   1.377
62918W        W33518  26.245  27.064  13.410
62919W        W33519   4.994  15.381  10.338
62920W        W33520  29.089  18.519  11.180
62921W        W33521  25.240  21.804   1.667
62922W        W33522  18.193  41.268  13.341
62923W        W33523  22.616  22.975   0.802
62924W        W33524  13.761   1.968   1.786
62925W        W33525   7.626   4.867  13.601
62926W        W33526  16.603  41.392  14.244
62927W        W33527  31.517  29.975   4.161
62928W        W33528   2.416  30.463  12.080
62929W        W33529   3.935  41.024  11.740
62930W        W33530  18.731  21.017  12.101
62931W        W33531  32.353   0.723  12.454
62932W        W33532   2.087  15.755   4.795
62933W        W33533   1.750  21.509  13.702
62934W        W33534   9.516  41.435   2.349
62935W        W33535  43.872  13.975   3.844
62936W        W33536   7.109  30.774   2.779
62937W        W33537  12.762  28.514  13.311
62938W        W33538  26.393  43.475   1.873
62939W        W33539   9.780   1.148  14.796
62940W        W33540   4.482  38.077  14.704
62941W        W33541  17.158  10.656   3.726
62942W        W33542   5.684   3.839  12.264
62943W        W33543  10.395  18.952  14.760
62944W        W33544  20.070  21.555   4.148
62945W        W33545  27.132  39.799   3.210
62946W        W33546   2.015  42.377   1.333
62947W        W33547   8.705  21.429   5.044
62948W        W33548   7.384  33.998  13.899
62949W        W33549  26.095  27.525  14.730
62950W        W33550  37.078  32.699   1.759
62951W        W33551  17.434  14.727   3.996
62952W        W33552  27.973  20.583  13.926
62953W        W33553  11.383  13.298   1.378
62954W        W33554  38.855  31.588   4.756
62955W        W33555  11.061   1.328   0.854
62956W        W33556  22.092  38.463   1.894
62957W        W33557  33.570  24.016   3.929
62958W        W33558  22.143  23.020  12.558
62959W        W33559  29.699  18.018   4.156
62960W        W33560  14.078  15.765  12.952
62961W        W33561  11.436  39.254   1.254
62962W        W33562  32.109  18.610   4.528
62963W        W33563  26.465  37.518   3.209
62964W        W33564  10.795  44.404  13.097
62965W        W33565   0.994  18.117   3.100
62966W        W33566  37.521  30.682  13.175
62967W        W33567  44.326  41.033   3.597
62968W        W33568  13.286   5.628   0.664
62969W        W33569  44.082  19.271  10.048
62970W        W33570  28.492  18.635   0.259
62971W        W33571   7.320   2.999  12.506
62972W        W33572  38.345  24.444  14.921
62973W        W33573  37.261  11.142   1.862
62974W        W33574  13.866  39.907  13.971
62975W        W33575  22.182  37.569   1.688
62976W        W33576  42.540  37.976   4.112
62977W        W33577  31.785   8.033  13.829
62978W        W33578  44.448   9.128  14.574
62979W        W33579  19.979  34.419   0.834
62980W        W33580  13.277  25.568  14.974
62981W        W33581  35.952   6.712  13.900
62982W        W33582   4.417   0.518  11.098
62983W        W33583  14.877  38.910  14.013
62984W        W33584  19.078  16.576   4.355
62985W        W33585   7.882   7.855  12.551
62986W        W33586   6.841  31.632  10.678
62987W        W33587  32.606  14.307  13.795
62988W        W33588   4.831   1.514  10.918
62989W        W33589  29.258  24.651  12.448
62990W        W33590  41.934  19.050   2.978
62991W        W33591  29.662  32.591   0.016
62992W        W33592  13.119   1.263  13.452
62993W        W33593  17.607  36.589   0.826
62994W        W33594  28.415  13.604  12.831
62995W        W33595  31.212   3.664  12.041
62996W        W33596  34.931  27.984  14.960
62997W        W33597  24.932  14.963   3.142
62998W        W33598   5.214   0.503  13.317
62999W        W33599  22.331   9.504   9.917
63000W        W33600  28.144  14.124   0.843
63001W        W33601  42.953  36.881   4.170
63002W        W33602  12.127  40.496   4.535
63003W        W33603  22.610   3.386  11.046
63004W        W33604  24.251  41.880   0.780
63005W        W33605   3.380  39.591  12.625
63006W        W33606  41.265  38.719   2.760
63007W        W33607  18.473   9.073   2.683
63008W        W33608   2.959  37.951  12.986
63009W        W33609  44.205  44.754   0.834
63010W        W33610   9.119   6.445  11.990
63011W        W33611  17.590   8.605   1.280
63012W        W33612   8.269  12.645  14.035
63013W        W33613  30.806  20.007   3.572
63014W        W33614  24.222  11.696  14.914
63015W        W33615  24.554   6.046   2.936
63016W        W33616  32.908   6.408  13.944
63017W        W33617  23.566  19.091   1.094
63018W        W33618  33.306   5.230  12.557
63019W        W33619  34.008  23.779   1.822
63020W        W33620  38.476  14.031  14.724
63021W        W33621  22.612  44.462   1.986
63022W        W33622  18.722  32.870  10.683
63023W        W33623  19.231  20.669   4.666
63024W        W33624   8.871  17.989  10.895
63025W        W33625  20.580  30.369  13.476
63026W        W33626   7.200  38.368  11.793
63027W        W33627  41.530   3.133  12.547
63028W        W33628  22.489   9.827  11.209
63029W        W33629  40.116  10.840  14.880
63030W        W33630  31.629  43.599  14.341
63031W        W33631  13.433  43.040   0.450
63032W        W33632  20.499  22.723   4.184
63033W        W33633  16.848   3.337  10.707
63034W        W33634  31.219  29.561   3.682
63035W        W33635  41.605   4.462  12.094
63036W        W33636  38.971  25.169   4.669
63037W        W33637   5.111  42.702  14.974
63038W        W33638  23.625   8.698  14.955
63039W        W33639  37.037   5.391  12.636
63040W        W33640  32.482  29.419  12.587
63041W        W33641   2.257  15.344   4.072
63042W        W33642  30.105  20.162   2.252
63043W        W33643   7.588  36.803   1.047
63044W        W33644  16.673  36.913  14.841
63045W        W33645  24.925   8.327   3.992
63046W        W33646  15.000  31.945  12.504
63047W        W33647  27.428  14.840  12.537
63048W        W33648  26.282  35.108   4.119
63049W        W33649   4.847  18.232  11.460
63050W        W33650  23.313  40.300  13.918
63051W        W33651  35.976  37.480  10.777
63052W        W33652   7.767   4.751  14.582
63053W        W33653  12.851  29.642  14.154
63054W        W33654  13.613  27.159   5.026
63055W        W33655  41.886  14.574  12.868
63056W        W33656  26.663  44.964  13.203
63057W        W33657  22.972  10.738   2.837
63058W        W33658  24.037  34.599  12.134
63059W        W33659  15.801   1.041  14.920
63060W        W33660  44.968   8.668  11.834
63061W        W33661  42.491  29.938   4.749
63062W        W33662  15.285  39.803   3.385
63063W        W33663  25.475   6.008  10.554
63064W        W33664  23.113   8.102   3.553
63065W        W33665   2.989  19.619   3.624
63066W        W33666  16.303   0.832   2.455
63067W        W33667  17.722   8.154   2.684
63068W        W33668  11.113  27.176   2.718
63069W        W33669  18.597  38.097  12.165
63070W        W33670  25.846  35.053   0.760
63071W        W33671  14.891   8.737  12.219
63072W        W33672  29.601  28.975   3.842
63073W        W33673  36.379  10.429  12.624
63074W        W33674  12.789   0.026  11.587
63075W        W33675  15.759  11.003  12.467
63076W        W33676  35.638  44.877   1.260
63077W        W33677  29.664   5.486   3.341
63078W        W33678  22.004  36.668   3.072
63079W        W33679  26.375   3.355   4.513
63080W        W33680   8.787  25.515   5.150
63081W        W33681  27.444   4.334  14.789
63082W        W33682  29.867   8.391  11.577
63083W        W33683  15.627  39.383   4.410
63084W        W33684  21.465  18.194   0.897
63085W        W33685  41.343  40.014  11.991
63086W        W33686  39.549  11.666   0.962
63087W        W33687  20.665  32.207   1.327
63088W        W33688   6.753  37.263  13.213
63089W        W33689   3.383  36.046  11.220
63090W        W33690  32.350  26.580   2.650
63091W        W33691   5.687   3.886   4.080
63092W        W33692  10.211   2.555  13.924
63093W        W33693   1.491  19.656   1.727
63094W        W33694  27.413  37.005  10.641
63095W        W33695  27.008  19.547   3.860
63096W        W33696   3.849   5.707  13.803
63097W        W33697  32.625  15.580   2.155
63098W        W33698  28.975   1.392  12.859
63099W        W33699  38.866  33.842   0.385
63100W        W33700  36.418   4.670  10.191
63101W        W33701  19.067  13.085  11.085
63102W        W33702  42.804  20.796   2.253
63103W        W33703  40.868  34.073   2.620
63104W        W33704  32.013  29.749   4.141
63105W        W33705   8.356  30.192  11.028
63106W        W33706  23.934  12.297  11.139
63107W        W33707  29.362  38.536  14.266
63108W        W33708  26.917  25.987  13.392
63109W        W33709  43.317  10.759  11.708
63110W        W33710  41.978  16.092   0.177
63111W        W33711  39.478   2.011  11.656
63112W        W33712  18.711  13.378  11.282
63113W        W33713  40.500  38.735   1.315
63114W        W33714  35.681  33.998  13.137
63115W        W33715   1.359  40.782   4.620
63116W        W33716  13.767  10.916  13.784
63117W        W33717  13.366   1.294   1.425
63118W        W33718  32.118  29.992  11.972
63119W        W33719  20.279  23.056  11.895
63120W        W33720   7.373  14.822  12.129
63121W        W33721   9.385  32.997  13.824
63122W        W33722  36.337  24.482  12.369
63123W        W33723  41.433  14.860   0.337
63124W        W33724  36.431   3.563  11.434
63125W        W33725  31.156   7.275  10.763
63126W        W33726  37.781  10.352   2.343
63127W        W33727   3.251  38.425   0.499
63128W        W33728  30.578   9.217   0.246
63129W        W33729  12.929   5.311  11.117
63130W        W33730  17.902   2.948   3.760
63131W        W33731  24.450  14.177  13.506
63132W        W33732  38.053  40.304   3.173
63133W        W33733  14.660  40.553   2.322
63134W        W33734   4.654  32.601  14.298
63135W        W33735  10.426  29.425  14.644
63136W        W33736  31.495  39.303  11.621
63137W        W33737  13.229  42.922  12.855
63138W        W33738  28.430  40.938   2.722
63139W        W33739  26.453   4.863   0.735
63140W        W33740  28.891  37.498  11.110
63141W        W33741  20.518   9.345  12.493
63142W        W33742  17.676  10.623  12.098
63143W        W33743   9.642  29.900   1.786
63144W        W33744  35.810  14.169   3.141
63145W        W33745  22.844   4.293  11.255
63146W        W33746  39.018  14.245   4.092
63147W        W33747  12.658  17.025   2.502
63148W        W33748  18.642  15.804  13.478
63149W        W33749  44.305  41.927   3.491
63150W        W33750  21.090  33.575   4.704
63151W        W33751  28.808  27.517   3.737
63152W        W33752  29.030  41.242   0.685
63153W        W33753  11.241  25.433   0.600
63154W        W33754  27.575  33.073  12.996
63155W        W33755  42.203  35.676   0.859
63156W        W33756  33.591  38.091   1.491
63157W        W33757   3.903  16.616  10.650
63158W        W33758  35.553   2.183   3.914
63159W        W33759  43.786   9.373   1.485
63160W        W33760  38.101  12.053  14.701
63161W        W33761  20.143  39.201   0.916
63162W        W33762  19.754  17.658   1.476
63163W        W33763   5.592  17.849   1.217
63164W        W33764  44.036   5.986   4.978
63165W        W33765  37.396  34.909  10.635
63166W        W33766  38.348  32.336  10.775
63167W        W33767   9.644   4.572   1.825
63168W        W33768  22.080  34.868  14.481
63169W        W33769  36.605  35.524  12.092
63170W        W33770  10.463  36.130  11.516
63171W        W33771  21.684  20.210   2.614
63172W        W33772  19.178  32.857   3.851
63173W        W33773   3.144   5.256  13.903
63174W        W33774  21.001  30.096  11.181
63175W        W33775  32.121  31.976  12.139
63176W        W33776  41.057  24.692  14.242
63177W        W33777  25.139  38.440  12.630
63178W        W33778  35.414   0.758   3.317
63179W        W33779  18.554  27.726   4.478
63180W        W33780   7.398  44.525  14.530
63181W        W33781  38.451   9.608  11.071
63182W        W33782  28.993  18.789  12.973
63183W        W33783  16.800  25.677   2.338
63184W        W33784  13.082   2.313  13.448
63185W        W33785  29.284  40.520   2.624
63186W        W33786  41.419  30.004   2.604
63187W        W33787   2.940  24.516   2.876
63188W        W33788  41.288  18.550   3.232
63189W        W33789  25.681  14.268   0.713
63190W        W33790  28.989  23.075  13.977
63191W        W33791  41.986  39.933   4.442
63192W        W33792  30.405   4.266  14.185
63193W        W33793  15.890  28.506  12.894
63194W        W33794   4.212   6.217   3.272
63195W        W33795  26.653  33.810   4.587
63196W        W33796   7.645  30.965  14.421
63197W        W33797   6.968  32.842   1.690
63198W        W33798  34.679  19.425  14.534
63199W        W33799   0.059   2.886  14.382
63200W        W33800   9.274  12.629  12.889
63201W        W33801  15.312   4.682   0.699
63202W        W33802   8.388  43.954  13.020
63203W        W33803  41.747  12.114   2.440
63204W        W33804  20.475  39.906  12.860
63205W        W33805  25.986  15.875   0.343
63206W        W33806  11.804  41.761  14.053
63207W        W33807  24.580  34.596  14.157
63208W        W33808   7.805  15.210  10.791
63209W        W33809  43.377   5.376  12.817
63210W        W33810   7.237   3.324  12.899
63211W        W33811  34.757  29.863  13.872
63212W        W33812  29.629  11.457   5.067
63213W        W33813  17.204  41.940  12.589
63214W        W33814  20.116  10.219   3.732
63215W        W33815   0.219   5.224  11.719
63216W        W33816  17.799   9.211   4.324
63217W        W33817  32.506  11.735  10.713
63218W        W33818   2.746  32.164   4.600
63219W        W33819  29.879  15.741  11.145
63220W        W33820  36.655  43.355   2.331
63221W        W33821  13.148  26.934  12.345
63222W        W33822  14.702  44.376  14.824
63223W        W33823  20.508  17.496  10.547
63224W        W33824  42.838  43.087  12.276
63225W        W33825  23.670  41.381   4.650
63226W        W33826  29.658  27.949  11.250
63227W        W33827  28.906   1.449  13.370
63228W        W33828  24.966  23.501  13.790
63229W        W33829  42.952  13.565   2.260
63230W        W33830  35.437   8.256   4.421
63231W        W33831  12.892  28.535  12.824
63232W        W33832  27.589  28.052  11.644
63233W        W33833  15.760  39.631   3.516
63234W        W33834  10.293  16.760   0.411
63235W        W33835  25.999  12.728   1.288
63236W        W33836  19.512  30.578  14.895
63237W        W33837   6.282  13.141  12.197
63238W        W33838  17.585  21.726   4.627
63239W        W33839   4.883  14.163  12.958
63240W        W33840  11.923  39.867  13.914
63241W        W33841   7.256  14.206   0.235
63242W        W33842  35.687  14.774  14.362
63243W        W33843  41.941  11.273  13.374
63244W        W33844   5.536  37.296  13.889
63245W        W33845  17.213  33.919   0.999
63246W        W33846  26.004  28.151   4.592
63247W        W33847  22.702  13.995   4.179
63248W        W33848   1.081  24.749   4.643
63249W        W33849  21.030  26.215   0.020
63250W        W33850  44.339  29.449   1.290
63251W        W33851   7.418  39.398  10.494
63252W        W33852  21.509  13.195   1.455
63253W        W33853  30.681  33.733   3.863
63254W        W33854  15.697  13.083  14.152
63255W        W33855  43.533  13.967  12.616
63256W        W33856  25.230   2.052  14.902
63257W        W33857  32.469  10.385  14.957
63258W        W33858  43.520  42.468  12.513
63259W        W33859  41.244   8.852   0.563
63260W        W33860  14.307  29.942   1.391
63261W        W33861  14.600  12.059  13.026
63262W        W33862  44.400  43.391  12.066
63263W        W33863  34.883   6.524   4.076
63264W        W33864  27.988   9.345   4.521
63265W        W33865  39.453  26.298  10.704
63266W        W33866  36.458  16.316  13.939
63267W        W33867  29.148  36.678  12.700
63268W        W33868  32.886  23.149  12.871
63269W        W33869   3.455   6.678  14.784
63270W        W33870  32.842  18.892  13.495
63271W        W33871  32.634  38.810  11.432
63272W        W33872   4.784  18.461  12.672
63273W        W33873  36.280   1.107   2.776
63274W        W33874  28.550  32.201  14.233
63275W        W33875  30.574   3.286  13.367
63276W        W33876  33.934   2.454  14.501
63277W        W33877  22.493   0.050   4.100
63278W        W33878   6.646  34.332   3.710
63279W        W33879  18.708   6.503  11.894
63280W        W33880  36.377  15.696   4.060
63281W        W33881  12.075  25.612   4.766
63282W        W33882   7.908  26.362   3.839
63283W        W33883   5.180  38.408  14.436
63284W        W33884  15.828  36.574  11.179
63285W        W33885  38.746  28.574   0.393
63286W        W33886  24.473  12.791  14.260
63287W        W33887  35.561   3.116   1.974
63288W        W33888  11.275  40.279   4.110
63289W        W33889  14.112  34.525   1.800
63290W        W33890   0.500  13.231   0.869
63291W        W33891  32.113  32.941   2.405
63292W        W33892  13.213  38.329  10.778
63293W        W33893  14.318   0.446  11.109
63294W        W33894  10.453  43.567  12.394
63295W        W33895  33.468   3.586   3.882
63296W        W33896  38.618  41.463  12.942
63297W        W33897  38.950  43.815  12.112
63298W        W33898  11.607  11.058   3.818
63299W        W33899   0.520  40.101   4.809
63300W        W33900  21.959  23.576   3.224
63301W        W33901  44.862  19.943   2.429
63302W        W33902  29.493  18.717   4.648
63303W        W33903  11.932  40.231  14.315
63304W        W33904  42.316  14.866  12.191
63305W        W33905  18.227   1.855   1.482
63306W        W33906  41.841  25.645  10.775
63307W        W33907   8.728  27.919  11.126
63308W        W33908   2.295   6.539  12.939
63309W        W33909  15.755  17.412  14.685
63310W        W33910  14.494   6.897   3.745
63311W        W33911   3.949  35.039  13.460
63312W        W33912  16.753  14.291   3.655
63313W        W33913  24.648  17.577   2.698
63314W        W33914  11.041  13.862  13.320
63315W        W33915   6.224  29.569   1.822
63316W        W33916  23.005  18.101  12.360
63317W        W33917  44.324  43.453   0.437
63318W        W33918  23.275  19.109  14.770
63319W        W33919  25.101  37.603   3.199
63320W        W33920  14.678  20.186   3.633
63321W        W33921  32.923  28.397   3.043
63322W        W33922  35.087  31.681   4.433
63323W        W33923   0.959  17.041   3.195
63324W        W33924  36.585  36.362   4.143
63325W        W33925  34.897   7.031  14.492
63326W        W33926  33.471   9.172   4.721
63327W        W33927  30.527  21.000   4.248
63328W        W33928  32.158  33.779   2.117
63329W        W33929  10.256  33.443  10.613
63330W        W33930   8.820  13.195  11.641
63331W        W33931  20.797  24.972  14.259
63332W        W33932  24.359   6.704   1.303
63333W        W33933   5.713  16.072  13.198
63334W        W33934   9.151  10.254   1.440
63335W        W33935  30.482   8.372   1.354
63336W        W33936  27.200  16.153   2.839
63337W        W33937  27.964  15.097   3.343
63338W        W33938   3.619  16.389   0.469
63339W        W33939   1.557  41.605  12.143
63340W        W33940  14.625   7.010   2.834
63341W        W33941  30.307  17.848   3.123
63342W        W33942  13.749  38.738   1.411
63343W        W33943   6.786   3.065   3.837
63344W        W33944  39.596  19.906   0.696
63345W        W33945   2.759  13.645  13.760
63346W        W33946  32.089  35.961  13.427
63347W        W33947  17.637   1.008   2.833
63348W        W33948  21.575  30.158   2.820
63349W        W33949   2.606  43.385  13.968
63350W        W33950   4.735   5.651   0.681
63351W        W33951   4.904  24.696   1.940
63352W        W33952  30.676  43.385   0.887
63353W        W33953  37.479  26.310  13.971
63354W        W33954  26.979  38.419   2.954
63355W        W33955  28.128  15.333   2.862
63356W        W33956  37.913  33.398   0.263
63357W        W33957  16.778   7.687   2.894
63358W        W33958  22.923  24.303  13.484
63359W        W33959  11.065  39.003  11.810
63360W        W33960  44.724   0.484  12.342
63361W        W33961  36.385   2.161  12.947
63362W        W33962  34.047  32.521   4.257
63363W        W33963  22.936   1.961   3.510
63364W        W33964   2.300  36.455   3.632
63365W        W33965   8.750  20.699   0.653
63366W        W33966  15.652   4.996  13.985
63367W        W33967  27.026  28.431   4.073
63368W        W33968   9.823  20.539   1.177
63369W        W33969  42.821  14.762  12.399
63370W        W33970   7.116  36.467  13.815
63371W        W33971  43.381   4.147   0.403
63372W        W33972  44.329  23.190   1.985
63373W        W33973  14.564  42.773  14.961
63374W        W33974  44.458  20.701  12.857
63375W        W33975  40.440  29.538   3.837
63376W        W33976  18.243   9.387   4.530
63377W        W33977  14.574   9.915   2.272
63378W        W33978  38.616  42.846   1.944
63379W        W33979  14.669   3.718  12.900
63380W        W33980  33.488  25.089   2.841
63381W        W33981  43.727  27.426   3.818
63382W        W33982   3.502  24.745   1.778
63383W        W33983  42.973  13.293  13.246
63384W        W33984  33.072   1.884   4.559
63385W        W33985  23.298   4.872   3.613
63386W        W33986  19.014  25.224  13.601
63387W        W33987  29.607   2.973   2.802
63388W        W33988  37.152  35.002   4.044
63389W        W33989  24.459  23.277   2.123
63390W        W33990  18.644  19.605  13.851
63391W        W33991  39.704  30.758   3.979
63392W        W33992  30.461  39.812  14.056
63393W        W33993  32.963   5.926   0.819
63394W        W33994  11.366  14.196  13.041
63395W        W33995   7.634   7.426  11.169
63396W        W33996  16.337  19.178  12.333
63397W        W33997   5.597  42.926  12.604
63398W        W33998   4.874   6.447  13.416
63399W        W33999  12.708   4.184   3.689
63400W        W34000  31.948  27.656  13.518
63401W        W34001  24.133  23.902  11.411
63402W        W34002  29.993  10.105   1.239
63403W        W34003  26.041  19.433  11.985
63404W        W34004   2.341  15.545   2.737
63405W        W34005  11.568  10.228   4.108
63406W        W34006   7.333  31.491   2.160
63407W        W34007  19.531   1.348   2.897
63408W        W34008  33.278  33.432  14.012
63409W        W34009  12.731   0.198   1.454
63410W        W34010  41.615  41.545  11.962
63411W        W34011  14.325  23.941   3.556
63412W        W34012   1.789   9.751  11.186
63413W        W34013  40.821   7.406   2.252
63414W        W34014  35.197  19.753  11.288
63415W        W34015  34.330  20.302   1.316
63416W        W34016  42.085   4.842   3.153
63417W        W34017   0.017  36.001   3.428
63418W        W34018  24.549  10.931   2.880
63419W        W34019  13.713  17.224   4.472
63420W        W34020  14.003  32.261  11.079
63421W        W34021  21.477  42.333   1.129
63422W        W34022   6.530   9.240  12.712
63423W        W34023  39.493  17.916   2.670
63424W        W34024   2.484   5.622  14.492
63425W        W34025  17.609  20.066  10.672
63426W        W34026  19.104  24.604  14.390
63427W        W34027  27.684  38.517   3.798
63428W        W34028  38.891   1.783   4.452
63429W        W34029  25.409  23.269   0.018
63430W        W34030   2.910  38.083  11.514
63431W        W34031  14.143  19.486   1.727
63432W        W34032  24.945  41.268  14.957
63433W        W34033  22.104  13.455   4.583
63434W        W34034  38.754  11.653  12.446
63435W        W34035  24.272  33.041   3.993
63436W        W34036  44.311  41.455   3.263
63437W        W34037  26.132  12.326  11.453
63438W        W34038  38.250   4.059  12.962
63439W        W34039  41.394  12.502   2.436
63440W        W34040  36.910   2.508   0.482
63441W        W34041  44.856  42.461   0.474
63442W        W34042   8.503   1.209   0.707
63443W        W34043   4.810  41.889   2.138
63444W        W34044  43.735  32.610   2.676
63445W        W34045  42.336  17.766  12.410
63446W        W34046  44.936  11.749  10.759
63447W        W34047  28.761  36.325  12.580
63448W        W34048  12.861   1.506  12.012
63449W        W34049   9.646  41.469  14.406
63450W        W34050  33.447  37.488  12.366
63451W        W34051   0.347  44.922   1.799
63452W        W34052  30.993  38.879   3.963
63453W        W34053   9.349  41.712   3.270
63454W        W34054  20.063  10.138  14.076
63455W        W34055   5.673   8.774  10.759
63456W        W34056  41.004  18.793  12.100
63457W        W34057  41.804   6.343  11.179
63458W        W34058  25.552  20.818   4.299
63459W        W34059  44.084   6.344   4.566
63460W        W34060  32.402  23.758   5.012
63461W        W34061  41.071  36.910   3.987
63462W        W34062  19.924  14.861  14.785
63463W        W34063  30.077   5.961   4.344
63464W        W34064  39.248  22.248   1.378
63465W        W34065   6.790   1.444  12.106
63466W        W34066  27.956  12.788  10.681
63467W        W34067  28.057  32.211  10.017
63468W        W34068  31.586  33.746   3.648
63469W        W34069   7.886  41.194  13.811
63470W        W34070   7.932  36.851  11.365
63471W        W34071  42.836  32.543  11.657
63472W        W34072  32.633  18.132  12.242
63473W        W34073  23.027  35.518  14.948
63474W        W34074  19.187  40.976  13.601
63475W        W34075  34.021   3.880   3.348
63476W        W34076  37.115  15.899   4.706
63477W        W34077  13.744  36.351   2.878
63478W        W34078   4.361  42.016  14.849
63479W        W34079  13.443  27.896  13.994
63480W        W34080  18.521   9.890   3.472
63481W        W34081   4.392  33.305  14.944
63482W        W34082  41.625  19.696  14.125
63483W        W34083   6.520   2.770   2.930
63484W        W34084  35.579  12.222   0.155
63485W        W34085  34.114  14.049   1.819
63486W        W34086  35.603  13.513   1.230
63487W        W34087  28.713  21.293  11.826
63488W        W34088  16.508  40.813  14.299
63489W        W34089  10.602  44.222  14.856
63490W        W34090   5.878  41.029  14.546
63491W        W34091  41.420  18.604   1.309
63492W        W34092   7.351  31.915  14.969
63493W        W34093   7.831  16.032  14.023
63494W        W34094  10.111  20.041   4.586
63495W        W34095  44.822  26.657  13.544
63496W        W34096  11.719  41.346   3.829
63497W        W34097  20.320   9.951   3.334
63498W        W34098  35.071   7.898   2.883
63499W        W34099   8.764  36.873   3.283
63500W        W34100  37.594  18.032  11.132
63501W        W34101   1.165  35.173   4.074
63502W        W34102  31.465  18.658   3.144
63503W        W34103  37.817  33.445   1.096
63504W        W34104  37.158  35.294  14.590
63505W        W34105  30.227  44.205  13.795
63506W        W34106  34.547  37.384  12.065
63507W        W34107  11.846  26.045  10.748
63508W        W34108  30.351  33.485   3.540
63509W        W34109  23.615   6.753  14.301
63510W        W34110  29.210  34.102  14.460
63511W        W34111  20.180  28.422   0.697
63512W        W34112  19.063  42.519  11.526
63513W        W34113  41.406  23.235  13.553
63514W        W34114  31.252  11.436   1.089
63515W        W34115  25.969  12.254   4.086
63516W        W34116  41.746   0.338  13.981
63517W        W34117  36.779  34.254  10.620
63518W        W34118   0.686   1.123   0.381
63519W        W34119  18.645  41.760  11.297
63520W        W34120   9.835   2.687   3.696
63521W        W34121   9.172  33.873  12.450
63522W        W34122  19.947  27.986   2.358
63523W        W34123   8.132  25.119   0.986
63524W        W34124   9.890  21.152   3.229
63525W        W34125  29.457  38.314  11.027
63526W        W34126  42.265  41.465   2.219
63527W        W34127   9.405  13.236   2.195
63528W        W34128  30.564  42.761   2.935
63529W        W34129  19.404  36.928  10.731
63530W        W34130   5.256  16.011   0.334
63531W        W34131  42.400  41.549   4.099
63532W        W34132  44.464  44.492   3.628
63533W        W34133   7.753  29.417   4.824
63534W        W34134  34.817  16.226   2.173
63535W        W34135   6.337  18.283  12.833
63536W        W34136  28.893  41.445   0.191
63537W        W34137  13.015  32.620   1.308
63538W        W34138  28.515  28.404   3.233
63539W        W34139  17.025  26.480  12.803
63540W        W34140  43.702  15.874   1.813
63541W        W34141  10.881  29.386  13.305
63542W        W34142   2.208  16.159   1.321
63543W        W34143   1.338   6.701   4.484
63544W        W34144  21.001  12.541  11.206
63545W        W34145   6.967  23.079  13.799
63546W        W34146  28.264   5.837   3.945
63547W        W34147  32.175   8.101   4.984
63548W        W34148  43.869   0.748  11.118
63549W        W34149  34.924   3.868  11.940
63550W        W34150   4.491  11.379   2.780
63551W        W34151   1.379  18.406  11.122
63552W        W34152  34.102  27.664   1.004
63553W        W34153  35.451  29.622   1.836
63554W        W34154  40.762   0.878  13.277
63555W        W34155   5.792   4.867  10.356
63556W        W34156  40.483  38.819   3.505
63557W        W34157  29.563  37.929   2.704
63558W        W34158  17.393  28.222  14.712
63559W        W34159  13.574   6.874   3.227
63560W        W34160   0.306   8.575   4.201
63561W        W34161  26.234  21.525   3.796
63562W        W34162  34.621  44.971  14.470
63563W        W34163  31.162   0.389   4.466
63564W        W34164  11.294   4.735  11.608
63565W        W34165  38.011   0.128  12.475
63566W        W34166   8.758  28.189   1.338
63567W        W34167  21.837  21.630   3.217
63568W        W34168  44.776  19.088  13.562
63569W        W34169  31.861  29.292  14.890
63570W        W34170  38.889  24.719  13.933
63571W        W34171   3.246  13.160  11.120
63572W        W34172   4.705   5.232   1.492
63573W        W34173  13.759  39.754  12.900
63574W        W34174  38.478   2.433   4.574
63575W        W34175  21.781   3.992   3.780
63576W        W34176  43.957  10.695  13.956
63577W        W34177  33.945  43.806  14.671
63578W        W34178  28.685  40.031  12.536
63579W        W34179  18.094  38.105  12.342
63580W        W34180  42.354  39.772  12.200
63581W        W34181  41.520   8.347  11.540
63582W        W34182  41.596   6.369  14.820
63583W        W34183  18.884  37.691  10.367
63584W        W34184   6.069  21.240   2.735
63585W        W34185  27.738  20.708   1.288
63586W        W34186  12.359   9.397   0.651
63587W        W34187  15.720  41.953   1.296
63588W        W34188  41.270  11.654   4.227
63589W        W34189  28.993  44.512  13.066
63590W        W34190  30.631  39.248   4.075
63591W        W34191  34.393  41.549  11.488
63592W        W34192  15.142  31.654   2.262
63593W        W34193  13.184  22.444   4.064
63594W        W34194   5.179   9.291  14.361
63595W        W34195  35.254   8.849  11.534
63596W        W34196  23.643  22.123  10.677
63597W        W34197   4.737   5.750   2.772
63598W        W34198  16.300  32.476   9.944
63599W        W34199   8.384   2.653  14.852
63600W        W34200  13.249   9.155   4.099
63601W        W34201  20.633  30.991  14.651
63602W        W34202  18.945  24.250   4.499
63603W        W34203   9.927  18.883  11.539
63604W        W34204  20.072  30.655   3.854
63605W        W34205   0.341  25.150  14.959
63606W        W34206  44.326   7.981   0.844
63607W        W34207  42.524  37.465   2.671
63608W        W34208  30.608  30.189   0.459
63609W        W34209  22.644  44.652  12.969
63610W        W34210  44.296   3.682   4.543
63611W        W34211  42.985  18.788  11.120
63612W        W34212  41.348   2.320   4.161
63613W        W34213  43.297  15.653  11.584
63614W        W34214  24.395   3.243  13.878
63615W        W34215   7.935   2.557  11.248
63616W        W34216  32.117  17.928   1.543
63617W        W34217  18.248  10.842   3.141
63618W        W34218  43.712  21.992   2.737
63619W        W34219  17.546  11.686  11.079
63620W        W34220  17.257   2.956   3.587
63621W        W34221  34.169  18.617  13.125
63622W        W34222  37.535   0.912   1.837
63623W        W34223  37.587   3.630   4.442
63624W        W34224   4.778  23.955   5.139
63625W        W34225  14.873   0.743  11.607
63626W        W34226   6.685  44.527  10.893
63627W        W34227  38.193   7.687  12.610
63628W        W34228   5.140   7.487   0.740
63629W        W34229  20.021  33.080  13.652
63630W        W34230  21.602  36.584   4.250
63631W        W34231   8.562   6.973  11.523
63632W        W34232  24.500  38.901   4.572
63633W        W34233   9.446  16.625  14.325
63634W        W34234  38.534  21.087   0.931
63635W        W34235  24.073  25.057  13.497
63636W        W34236  10.368  19.337  12.727
63637W        W34237  41.781  21.356  10.423
63638W        W34238  43.785  27.153   4.298
63639W        W34239  19.421  22.540   2.274
63640W        W34240  16.576  34.347   3.116
63641W        W34241  12.893  16.066   1.679
63642W        W34242  43.803  38.484  11.196
63643W        W34243   3.729  26.970   4.596
63644W        W34244   0.021  37.521  10.701
63645W        W34245   5.447  34.563  14.753
63646W        W34246  12.828  32.095   2.224
63647W        W34247  23.259  41.882  11.227
63648W        W34248  42.869  13.105  10.861
63649W        W34249   0.234   3.645  11.406
63650W        W34250  11.382   4.068   1.557
63651W        W34251  11.271  41.471   0.825
63652W        W34252   8.387   4.282  14.015
63653W        W34253   0.803  13.880  11.195
63654W        W34254  42.502  35.473   1.896
63655W        W34255  25.046  20.378  12.658
63656W        W34256  34.580   6.172   1.763
63657W        W34257  22.636  38.513   0.286
63658W        W34258  27.421  38.273   1.232
63659W        W34259  31.536  43.014   3.735
63660W        W34260  38.850  28.086   3.404
63661W        W34261  30.378  30.642  13.852
63662W        W34262  42.971  32.393   3.629
63663W        W34263  34.025  33.636  11.250
63664W        W34264  33.274  22.279   5.107
63665W        W34265   9.248  22.437  14.396
63666W        W34266  13.365  41.476   0.137
63667W        W34267  23.526  44.397  12.984
63668W        W34268   9.145  20.538  12.550
63669W        W34269  31.162  12.731  13.793
63670W        W34270  11.652  14.609   3.258
63671W        W34271   8.126   6.884   1.985
63672W        W34272  39.552  24.277   0.767
63673W        W34273   8.995  44.267  11.190
63674W        W34274   4.975  44.533   1.474
63675W        W34275   1.768  44.826   4.623
63676W        W34276  23.787  23.864   2.643
63677W        W34277  42.022  40.167   1.468
63678W        W34278  10.594   4.900   3.783
63679W        W34279  34.913  17.424  10.716
63680W        W34280  30.996  38.532  12.022
63681W        W34281   2.270  14.290   1.635
63682W        W34282  36.924  28.563  11.183
63683W        W34283  15.699  15.858  10.269
63684W        W34284   3.972  16.024   1.788
63685W        W34285  11.296  27.001  12.533
63686W        W34286  31.709  11.331   1.401
63687W        W34287   4.335  44.286   3.689
63688W        W34288  42.587  29.971   0.383
63689W        W34289  36.455  26.245   4.122
63690W        W34290  30.195  40.691   3.070
63691W        W34291  17.518  40.239  14.945
63692W        W34292  23.081  24.947   3.121
63693W        W34293  42.858  36.043   1.933
63694W        W34294  19.474  29.880  11.771
63695W        W34295  33.767  21.055  12.045
63696W        W34296  44.449  18.288  10.657
63697W        W34297  28.379  33.081   0.302
63698W        W34298  35.356   3.585   2.001
63699W        W34299  29.519   4.168  11.496
63700W        W34300  37.889  31.955  12.231
63701W        W34301   7.686  34.465  12.105
63702W        W34302  17.478  20.645  14.342
63703W        W34303  44.004  22.173   1.379
63704W        W34304  37.288   9.321  13.444
63705W        W34305  11.877  11.153   4.323
63706W        W34306  32.311  35.892   2.972
63707W        W34307  37.644  18.859   2.717
63708W        W34308  14.820  23.760   3.217
63709W        W34309   0.851  15.642  14.897
63710W        W34310  38.903  11.581  10.171
63711W        W34311  16.551  34.416  12.893
63712W        W34312  10.204   1.170   3.712
63713W        W34313  40.311  28.917   4.657
63714W        W34314   2.462   6.051   1.738
63715W        W34315   5.742  30.991  12.996
63716W        W34316  15.429   4.158  14.682
63717W        W34317  32.852  16.253  13.062
63718W        W34318  29.637  21.299  12.370
63719W        W34319  20.256  36.469   1.795
63720W        W34320  44.288   3.022   0.285
63721W        W34321  34.509   6.223   0.278
63722W        W34322  19.800  21.734   0.009
63723W        W34323  16.063  13.187  14.975
63724W        W34324   1.708  39.888   3.276
63725W        W34325  34.090  11.265  14.443
63726W        W34326  12.150  33.471  14.884
63727W        W34327  38.836  25.653   4.766
63728W        W34328  17.094  17.537   2.392
63729W        W34329  19.583   9.823  12.936
63730W        W34330  19.648  40.081  14.549
63731W        W34331  11.308  10.160   1.410
63732W        W34332  44.251  14.288  10.719
63733W        W34333  34.612  32.112   1.344
63734W        W34334   5.013  12.262   3.723
63735W        W34335  24.043  34.635  14.350
63736W        W34336  24.054   1.886   2.669
63737W        W34337  15.755  29.472   4.591
63738W        W34338  21.171  17.581  11.157
63739W        W34339  44.005  26.947  14.490
63740W        W34340  25.099  22.787   1.822
63741W        W34341   8.740  38.775   4.990
63742W        W34342   1.148  36.700   3.296
63743W        W34343  43.280   6.647   4.261
63744W        W34344  38.011  17.237   4.558
63745W        W34345  24.666   5.786   1.528
63746W        W34346  34.569  25.138  14.945
63747W        W34347  41.057  31.375   2.129
63748W        W34348   8.074  26.085   3.368
63749W        W34349  40.479   9.348  12.644
63750W        W34350  35.880   9.391  13.287
63751W        W34351  34.987   2.357   1.946
63752W        W34352  17.130  15.823   4.729
63753W        W34353  14.332  23.517   4.346
63754W        W34354  38.125  14.130   4.161
63755W        W34355   9.173  23.188   1.501
63756W        W34356  12.569  25.601   4.618
63757W        W34357   4.709  16.817   2.714
63758W        W34358   6.303  21.973  10.791
63759W        W34359  24.214  16.770  11.500
63760W        W34360   3.256   5.451   1.746
63761W        W34361  10.623  14.689   3.165
63762W        W34362   9.746  41.823   3.699
63763W        W34363   9.079  17.951   3.650
63764W        W34364  18.323  43.506   3.032
63765W        W34365  27.966  21.279   0.329
63766W        W34366   5.149  14.149   0.206
63767W        W34367  24.631  15.571   0.280
63768W        W34368  32.119  35.500   3.773
63769W        W34369  22.107   9.792  12.112
63770W        W34370  27.920  41.770  14.880
63771W        W34371   0.932  26.457  11.658
63772W        W34372  43.467  28.232  14.780
63773W        W34373  25.797  29.610  11.238
63774W        W34374  44.199  38.624  13.403
63775W        W34375  22.460  24.548  11.771
63776W        W34376   5.051  21.018   0.498
63777W        W34377  33.136  34.909   2.946
63778W        W34378  38.248   2.219  11.075
63779W        W34379  21.229  18.748  12.871
63780W        W34380  42.073  41.511  11.772
63781W        W34381  22.588  12.323  13.872
63782W        W34382  19.343   7.406  11.510
63783W        W34383  25.960   2.319  11.554
63784W        W34384  24.288  17.211  13.564
63785W        W34385  22.379  27.756  12.987
63786W        W34386  23.570  43.569  11.327
63787W        W34387  17.126  25.996  11.672
63788W        W34388  10.760  10.113  11.137
63789W        W34389  40.331  36.811   3.269
63790W        W34390  15.574  39.302   3.905
63791W        W34391  16.900   9.269   3.171
63792W        W34392   5.783  41.920   4.697
63793W        W34393  24.204  22.901   3.349
63794W        W34394  11.107  42.371   2.648
63795W        W34395   9.930  29.897   0.029
63796W        W34396   1.075  44.438  14.782
63797W        W34397   3.892   1.162  11.502
63798W        W34398  35.100  25.807   3.453
63799W        W34399  43.893  37.235   1.624
63800W        W34400  21.668  30.002   3.821
63801W        W34401  19.801  12.735   0.034
63802W        W34402   0.955  40.903  11.382
63803W        W34403  26.910  28.198  10.652
63804W        W34404  32.939   5.798  12.889
63805W        W34405  18.722  43.238   2.763
63806W        W34406  23.717  33.034  12.930
63807W        W34407  12.921  21.565   4.955
63808W        W34408  16.251  20.237   1.811
63809W        W34409  40.645  13.328   1.408
63810W        W34410   5.755  24.940  11.225
63811W        W34411  20.234  19.707   0.016
63812W        W34412  38.516   7.468   3.224
63813W        W34413  12.312  23.721   0.186
63814W        W34414  28.520  37.958  14.284
63815W        W34415   7.847  44.576   3.047
63816W        W34416   9.283  38.894  12.089
63817W        W34417   0.136  21.775   1.626
63818W        W34418  13.236  11.193  10.913
63819W        W34419  11.175  39.762  12.355
63820W        W34420  28.537  18.578  10.972
63821W        W34421  28.077  11.295  12.681
63822W        W34422   7.966   6.909  14.047
63823W        W34423   3.336  23.005   4.583
63824W        W34424   7.623  25.820   2.656
63825W        W34425  12.679  29.172   2.232
63826W        W34426  19.600  44.056  11.041
63827W        W34427  30.687   5.701   3.621
63828W        W34428  30.542  27.492  11.918
63829W        W34429  19.202  31.625  14.563
63830W        W34430   6.922  18.025   1.882
63831W        W34431  17.784  21.981  10.675
63832W        W34432  41.894  38.198  14.317
63833W        W34433  27.538  37.812   2.743
63834W        W34434   2.471   1.949   2.249
63835W        W34435  39.407  25.704   1.249
63836W        W34436  23.421  32.763   4.306
63837W        W34437  36.558  15.088   1.224
63838W        W34438   8.918  12.840  10.970
63839W        W34439  21.304  31.894  11.259
63840W        W34440  28.651  42.274  11.201
63841W        W34441  37.480  22.914   2.915
63842W        W34442  10.176  23.895  13.930
63843W        W34443   6.894   1.133  13.388
63844W        W34444  11.962  20.242   3.235
63845W        W34445  10.191  18.220  11.568
63846W        W34446  41.022  39.088   4.957
63847W        W34447   2.726   6.518   0.437
63848W        W34448   6.022  33.575  14.250
63849W        W34449  43.791  26.731   4.640
63850W        W34450  15.792  13.385  14.548
63851W        W34451  30.004   0.399   4.701
63852W        W34452  29.948  15.173  13.008
63853W        W34453   9.926  41.882   2.372
63854W        W34454  12.270  30.624   1.285
63855W        W34455   9.661  34.864  12.970
63856W        W34456  13.238  13.755   0.276
63857W        W34457  36.171  28.120  12.848
63858W        W34458  37.083  22.076  14.867
63859W        W34459  36.228   9.861  10.743
63860W        W34460   4.913  19.530  12.643
63861W        W34461  16.260  41.602   2.668
63862W        W34462  17.756  16.270   4.140
63863W        W34463  32.063  10.218  12.700
63864W        W34464  12.885  41.799   3.704
63865W        W34465  31.650  38.635   1.416
63866W        W34466  42.287  14.135   2.126
63867W        W34467  39.862   3.226  11.339
63868W        W34468   8.994  25.186   3.775
63869W        W34469  10.268  20.841  10.715
63870W        W34470  13.821  18.460   4.137
63871W        W34471  16.738  37.541   3.398
63872W        W34472  15.540  27.163   4.854
63873W        W34473  42.031   0.930   1.621
63874W        W34474  15.379  32.335  10.448
63875W        W34475  12.744  13.188   0.789
63876W        W34476  44.331  36.399   3.401
63877W        W34477   5.162  31.896  11.557
63878W        W34478   0.851  42.398   1.953
63879W        W34479  22.941  11.625   1.212
63880W        W34480  16.609  38.822  10.578
63881W        W34481   9.589   0.988   4.082
63882W        W34482   7.850  43.962  13.007
63883W        W34483  18.661  37.347   3.802
63884W        W34484  33.616  20.621   0.821
63885W        W34485   2.000   0.113   0.309
63886W        W34486   5.797  43.825  14.539
63887W        W34487  27.528  40.920  11.056
63888W        W34488  37.402  40.025   0.716
63889W        W34489  35.608  44.473  12.128
63890W        W34490  35.617  26.042   3.718
63891W        W34491  17.752  21.732   3.159
63892W        W34492  41.734  16.482  11.574
63893W        W34493  21.904  35.883   0.120
63894W        W34494  10.086   8.242  10.675
63895W        W34495  42.083  38.106  13.840
63896W        W34496  38.761  23.075  12.445
63897W        W34497  43.450   0.200  13.529
63898W        W34498  25.470  28.985   2.255
63899W        W34499  29.152   7.680  11.705
63900W        W34500  30.940  26.478  14.812
63901W        W34501   9.281  41.203   3.125
63902W        W34502  30.625  14.336   4.241
63903W        W34503  12.384  37.555   1.628
63904W        W34504   4.816   9.371   2.397
63905W        W34505  12.577  25.477  12.549
63906W        W34506  27.060  39.368   2.608
63907W        W34507   6.488  30.706   0.702
63908W        W34508  17.059  32.929  12.367
63909W        W34509  26.738  23.495   0.831
63910W        W34510  40.652  27.864   3.672
63911W        W34511   8.601  26.921   2.354
63912W        W34512  30.528   1.764  14.480
63913W        W34513  17.098  28.410  14.229
63914W        W34514   7.910   2.040   4.207
63915W        W34515  37.077   4.460  12.541
63916W        W34516   6.326  40.499   3.109
63917W        W34517  33.331  31.112  11.931
63918W        W34518  38.462  43.333   1.900
63919W        W34519  16.737  42.822   4.684
63920W        W34520  40.796   8.830   0.904
63921W        W34521  21.992  26.122   3.930
63922W        W34522  14.650  13.480   1.697
63923W        W34523  14.683  19.346  13.470
63924W        W34524  22.043  17.125  14.617
63925W        W34525  21.197  11.672  11.267
63926W        W34526  34.476   6.472  11.930
63927W        W34527  44.504   0.685   9.883
63928W        W34528   9.808   7.409   3.163
63929W        W34529  33.425  44.414  14.936
63930W        W34530  16.178  44.505  11.640
63931W        W34531  38.644  31.459   0.026
63932W        W34532  42.755   9.356   2.768
63933W        W34533  18.430  39.252  13.379
63934W        W34534  42.402   1.724  10.735
63935W        W34535  36.426  41.512  10.731
63936W        W34536  23.604  14.872  12.028
63937W        W34537  22.760  35.905  12.547
63938W        W34538  23.946   9.232   3.325
63939W        W34539  11.932  29.640  12.527
63940W        W34540  42.996  31.448   0.755
63941W        W34541  30.572  41.644  13.488
63942W        W34542  33.126   3.853  13.236
63943W        W34543  31.209  35.839   1.771
63944W        W34544  31.264  10.827  11.585
63945W        W34545  10.107  17.320  14.182
63946W        W34546  26.117   0.439  13.451
63947W        W34547  38.840  22.635  13.045
63948W        W34548  33.123  32.671  12.584
63949W        W34549  27.593  29.074   1.865
63950W        W34550  34.497  42.864  14.232
63951W        W34551  38.283  29.800  12.422
63952W        W34552   9.184   3.363   2.784
63953W        W34553  24.742  25.037  10.942
63954W        W34554   5.287  17.450  14.445
63955W        W34555  20.284  39.025   0.176
63956W        W34556   6.409  15.757   3.090
63957W        W34557  38.059  44.099   0.317
63958W        W34558   2.554   0.821   3.778
63959W        W34559   7.797  43.584  12.477
63960W        W34560  11.354  39.016  13.938
63961W        W34561  17.715  17.193  10.485
63962W        W34562  16.071  14.361   9.749
63963W        W34563  17.997  26.972   0.937
63964W        W34564  30.889   7.710  12.154
63965W        W34565  15.338  26.048  10.332
63966W        W34566  36.553   0.193  10.855
63967W        W34567  36.420  34.078   3.791
63968W        W34568  44.244   2.699  14.616
63969W        W34569  31.610  24.062  11.082
63970W        W34570  24.245  31.923  11.310
63971W        W34571  38.282  37.955  14.978
63972W        W34572  32.673  28.840   2.296
63973W        W34573  31.174  40.405   1.502
63974W        W34574  41.444   7.233   1.625
63975W        W34575  27.844  20.214   4.548
63976W        W34576  14.476   7.896  12.080
63977W        W34577  17.547  36.574  10.712
63978W        W34578  21.577  10.248  13.611
63979W        W34579  43.995   1.681   0.508
63980W        W34580   6.770  36.068   0.160
63981W        W34581  39.276  15.559   3.963
63982W        W34582  20.161  21.437  14.776
63983W        W34583  25.666  27.675  12.851
63984W        W34584  26.912  41.800  13.965
63985W        W34585  22.500  44.673   1.105
63986W        W34586  11.700  33.421  14.600
63987W        W34587  25.045   1.345  12.925
63988W        W34588  18.465   9.488  11.014
63989W        W34589  23.154   2.922   3.259
63990W        W34590   2.947   6.983   4.846
63991W        W34591  12.839   1.356   0.393
63992W        W34592  30.442  39.894   0.482
63993W        W34593  34.907  43.771  12.357
63994W        W34594  29.514  14.370   0.374
63995W        W34595  21.022   9.726  12.940
63996W        W34596   0.339  20.181   4.043
63997W        W34597  35.586  37.469  12.497
63998W        W34598  44.883  10.363  13.458
63999W        W34599  20.782  13.902   2.138
64000W        W34600  22.948  32.042   1.197
64001W        W34601  32.328  11.183   4.739
64002W        W34602  16.336  39.546  12.977
64003W        W34603  26.529   1.946  14.396
64004W        W34604  42.634  20.285  11.088
64005W        W34605  22.812   6.660   0.444
64006W        W34606  37.584  14.711   1.046
64007W        W34607  42.541  17.188   2.177
64008W        W34608  19.230  22.254  12.007
64009W        W34609  22.445   8.626   1.813
64010W        W34610  34.496   7.207  14.921
64011W        W34611  34.251  31.526   4.072
64012W        W34612   4.429   7.314   0.261
64013W        W34613  41.424  39.515   1.431
64014W        W34614  10.828   7.707  11.177
64015W        W34615  31.993  29.003   2.733
64016W        W34616  17.180  28.445   2.522
64017W        W34617  33.662  31.574  11.654
64018W        W34618  36.572  43.447   3.285
64019W        W34619  44.872  17.481   0.482
64020W        W34620  29.397  26.998  10.565
64021W        W34621   9.170  24.553  14.916
64022W        W34622  17.112  33.918  12.548
64023W        W34623  17.688   2.933   4.687
64024W        W34624   6.339  37.028   1.656
64025W        W34625   1.200  19.057   4.187
64026W        W34626   7.939  44.786  11.662
64027W        W34627  32.433  30.988   1.857
64028W        W34628  16.608  38.055   0.832
64029W        W34629   3.999   0.457  12.361
64030W        W34630  14.966  19.769  13.485
64031W        W34631  35.084  35.466   1.375
64032W        W34632   1.319  12.828  14.709
64033W        W34633   3.797  17.163   2.730
64034W        W34634   3.787  23.550  11.530
64035W        W34635  14.073  18.798   3.351
64036W        W34636  37.413  30.487   3.825
64037W        W34637  26.171  36.816   2.806
64038W        W34638  25.056  41.586  11.628
64039W        W34639  30.331  41.572  12.708
64040W        W34640   9.295  13.821   0.802
64041W        W34641  12.711   4.147  14.748
64042W        W34642  41.143  44.099  14.545
64043W        W34643   1.632   8.202  12.526
64044W        W34644  38.558  42.036  14.591
64045W        W34645  18.323   3.193   4.592
64046W        W34646   0.694  29.200  12.560
64047W        W34647  37.409  19.853   0.819
64048W        W34648  24.660  42.118  14.003
64049W        W34649   5.458  21.471   0.895
64050W        W34650  32.007  41.344   1.386
64051W        W34651  29.161  15.140  12.469
64052W        W34652  25.685  44.849  11.118
64053W        W34653  14.771  33.482   1.402
64054W        W34654   4.309   8.733   4.946
64055W        W34655  14.875  32.168  14.417
64056W        W34656  29.421  32.163  12.949
64057W        W34657   8.660  33.805   4.417
64058W        W34658  22.778  27.547  11.580
64059W        W34659  41.737  15.351   2.345
64060W        W34660  13.394  20.563   2.343
64061W        W34661  16.635  37.143  13.394
64062W        W34662  18.574  27.500   3.144
64063W        W34663  35.143  31.526  12.969
64064W        W34664  14.620  26.581   4.136
64065W        W34665   0.820  33.391   4.568
64066W        W34666  23.587  17.248   3.893
64067W        W34667  21.842   7.134   0.463
64068W        W34668  32.585   8.677  14.274
64069W        W34669  22.003  29.069   2.767
64070W        W34670   4.692   3.435   3.175
64071W        W34671  15.757  26.998   1.423
64072W        W34672  18.779  27.872   0.432
64073W        W34673  30.307  25.605   0.809
64074W        W34674  13.157  28.131  12.609
64075W        W34675   3.468   7.355   4.290
64076W        W34676  29.094  42.309  14.565
64077W        W34677  37.885  11.616  12.987
64078W        W34678  30.549  25.847   0.434
64079W        W34679   2.403  40.028   0.732
64080W        W34680  42.792   5.858  11.986
64081W        W34681   9.394  37.458   3.745
64082W        W34682  12.120   5.357   0.067
64083W        W34683  22.814  40.902  14.278
64084W        W34684  19.932  34.771  14.970
64085W        W34685  33.470  39.613  11.322
64086W        W34686  13.095  13.167  10.189
64087W        W34687  36.611   7.252  12.910
64088W        W34688  33.282  40.788   2.124
64089W        W34689   4.812  17.258   1.191
64090W        W34690  24.952  30.740   3.371
64091W        W34691  12.996   2.733  14.762
64092W        W34692  44.985  41.948   4.393
64093W        W34693  15.609   6.637   3.121
64094W        W34694  40.551  20.272   3.776
64095W        W34695  23.318  14.214  11.549
64096W        W34696  37.137  32.351   4.758
64097W        W34697  17.056  38.007  14.404
64098W        W34698  26.524   5.183  13.121
64099W        W34699  26.576   1.760   2.835
64100W        W34700  36.353  22.349   2.658
64101W        W34701  11.296  42.460   3.136
64102W        W34702  20.066  21.281  10.043
64103W        W34703   3.710  18.254   2.266
64104W        W34704  24.290  33.008  14.968
64105W        W34705  10.767  33.633   2.811
64106W        W34706  32.222  14.568  14.023
64107W        W34707  38.602  26.038   2.078
64108W        W34708  12.645   2.249  14.677
64109W        W34709  38.074  17.143  13.362
64110W        W34710  29.020  20.948   0.320
64111W        W34711   8.223  23.109   3.381
64112W        W34712  22.587  34.854  11.786
64113W        W34713  11.936   3.002   4.727
64114W        W34714  28.705  11.610  11.156
64115W        W34715   1.449  34.879   1.817
64116W        W34716  14.546   4.388   0.293
64117W        W34717  12.843  38.422  12.487
64118W        W34718  30.618  33.939   1.732
64119W        W34719  39.577  40.682  12.034
64120W        W34720  40.963  13.377   4.292
64121W        W34721  11.645  41.809   0.452
64122W        W34722  33.002  26.076  12.800
64123W        W34723  12.206   8.535   1.865
64124W        W34724  44.933   6.240   0.866
64125W        W34725  30.641   9.704   0.465
64126W        W34726   7.768  44.733  11.190
64127W        W34727  28.144  12.245   3.686
64128W        W34728  34.214  31.402   1.649
64129W        W34729  11.169  34.495  12.474
64130W        W34730  13.326  35.587  14.098
64131W        W34731  22.758  23.255  13.883
64132W        W34732  36.884  20.167  10.668
64133W        W34733  37.500  18.867  13.510
64134W        W34734  14.201  30.755  11.084
64135W        W34735  18.885  28.483  10.300
64136W        W34736  11.026   1.668  12.100
64137W        W34737  42.461  29.554   0.792
64138W        W34738  23.586  31.170   4.627
64139W        W34739   8.831  10.973  11.829
64140W        W34740  36.385  34.042   2.861
64141W        W34741  30.603  35.333  12.383
64142W        W34742   9.566  22.543   0.874
64143W        W34743  16.832  42.539  13.316
64144W        W34744  43.993  16.052   4.629
64145W        W34745   2.860  24.510  11.703
64146W        W34746  17.870  11.322  11.697
64147W        W34747  20.025  10.165  12.325
64148W        W34748  37.047  38.960   4.933
64149W        W34749  39.642  28.087  12.841
64150W        W34750  42.009   8.608   3.012
64151W        W34751   2.751  36.954   2.643
64152W        W34752  19.982   4.026  10.727
64153W        W34753  14.788  29.772  14.262
64154W        W34754   3.175   4.954  13.401
64155W        W34755  18.584   2.936   3.193
64156W        W34756   9.573   3.331  13.533
64157W        W34757  33.013   0.406  11.104
64158W        W34758  42.594  36.418   4.176
64159W        W34759  15.087  22.975  12.538
64160W        W34760  16.041  38.233   0.304
64161W        W34761   7.070   2.865   2.723
64162W        W34762  22.605   1.464   0.732
64163W        W34763  24.151   0.237   2.078
64164W        W34764  38.972   3.383  14.302
64165W        W34765   4.968  35.163   3.633
64166W        W34766   7.738  14.266   4.710
64167W        W34767  22.023  40.043  12.047
64168W        W34768  42.469   7.345  10.685
64169W        W34769  23.288  19.049  12.070
64170W        W34770  34.452  20.112  14.003
64171W        W34771  44.296  24.448  12.991
64172W        W34772  32.201  13.941  12.609
64173W        W34773  34.928  21.267  13.483
64174W        W34774  31.124  14.592  10.746
64175W        W34775   0.818  32.516   2.841
64176W        W34776  25.278  26.518   4.295
64177W        W34777  26.327  40.538  14.367
64178W        W34778  22.161   3.390   1.414
64179W        W34779   4.166  34.778   5.693
64180W        W34780  39.263  26.383  11.709
64181W        W34781  37.472  21.432   4.812
64182W        W34782  11.382  30.966   1.879
64183W        W34783  14.520  30.961   3.808
64184W        W34784  10.245  24.494  10.807
64185W        W34785  12.815  25.846  14.830
64186W        W34786  44.013  40.982   1.174
64187W        W34787  32.797   0.257   0.743
64188W        W34788  23.350   2.513  10.153
64189W        W34789  11.664  23.094  13.568
64190W        W34790   1.505  37.017   3.489
64191W        W34791  20.585  20.238  13.245
64192W        W34792  31.431   8.193   2.644
64193W        W34793  28.750   8.405   2.324
64194W        W34794  21.541  42.057   0.286
64195W        W34795  15.100  16.084  11.054
64196W        W34796   7.904  42.333   2.663
64197W        W34797  29.869  19.287  10.608
64198W        W34798  44.289  32.527   2.693
64199W        W34799  17.539  18.617  10.948
64200W        W34800  27.511  25.138   4.077
64201W        W34801  44.279  41.463  12.587
64202W        W34802   9.759  35.500   3.126
64203W        W34803  40.957  11.170   2.660
64204W        W34804  12.302  12.336   3.709
64205W        W34805  12.765  39.725   0.318
64206W        W34806   7.454   0.310   0.999
64207W        W34807   9.507   3.070   4.431
64208W        W34808  35.021   8.533  14.879
64209W        W34809  31.604  27.683   4.647
64210W        W34810  38.412  31.690   0.439
64211W        W34811   3.502  40.611   4.115
64212W        W34812  27.110  39.252  11.583
64213W        W34813   5.239  36.839  12.546
64214W        W34814  38.604   9.185  13.976
64215W        W34815  36.427  28.950   3.134
64216W        W34816  44.818  32.994   0.820
64217W        W34817  21.428  26.445  10.695
64218W        W34818  26.100   8.313   3.230
64219W        W34819   1.264  22.236  13.701
64220W        W34820  11.726  29.108   2.272
64221W        W34821  23.200  16.049  11.440
64222W        W34822  13.176  38.596  12.889
64223W        W34823  13.614  44.882  11.093
64224W        W34824  27.347  32.414  13.422
64225W        W34825   0.947  12.652   3.337
64226W        W34826  44.556  30.592   1.890
64227W        W34827   8.180  29.328  12.384
64228W        W34828   7.590  25.155  13.416
64229W        W34829   6.128  30.718  13.231
64230W        W34830  38.544  16.393   0.825
64231W        W34831  40.323  18.143  14.304
64232W        W34832  27.083  29.208  12.980
64233W        W34833   2.965   6.737   0.028
64234W        W34834  14.669  21.835   1.694
64235W        W34835  20.071   5.799  10.598
64236W        W34836  25.230  25.188   4.851
64237W        W34837  37.630  35.817  14.960
64238W        W34838  38.129  33.112   2.346
64239W        W34839  25.488   7.597   9.647
64240W        W34840  44.882   7.484   4.881
64241W        W34841  16.172  28.038  14.929
64242W        W34842   3.247  38.600  11.420
64243W        W34843  24.778  12.726  12.836
64244W        W34844  18.164  22.321  13.592
64245W        W34845  13.427  28.193  10.694
64246W        W34846  18.308  10.807   3.968
64247W        W34847  29.858  33.625   2.166
64248W        W34848  22.475  38.788   5.065
64249W        W34849  44.471  29.651  14.332
64250W        W34850  28.569  44.036  13.447
64251W        W34851   4.152  41.480  14.439
64252W        W34852  25.494  38.430   3.215
64253W        W34853   9.333  11.246  14.524
64254W        W34854  14.904  36.879  14.387
64255W        W34855  22.291  10.645   4.196
64256W        W34856   7.821   4.278  14.757
64257W        W34857   8.478   2.803  12.902
64258W        W34858   5.831   8.442   1.224
64259W        W34859  41.859  10.782   4.724
64260W        W34860   0.216  27.816  12.552
64261W        W34861  40.765   6.518  10.814
64262W        W34862  13.608  32.451  11.410
64263W        W34863  44.073  41.395   1.717
64264W        W34864  23.962  44.897  12.310
64265W        W34865  12.615  13.210   1.286
64266W        W34866  43.572   7.377   3.726
64267W        W34867  11.844  12.818   0.817
64268W        W34868   7.453  23.114   1.405
64269W        W34869   1.925  30.860   1.099
64270W        W34870   2.205  15.325   2.280
64271W        W34871   2.195  40.801  13.793
64272W        W34872  24.190  24.442  11.403
64273W        W34873   3.737  35.622   2.168
64274W        W34874  21.818  39.549  12.080
64275W        W34875  25.525  41.291   4.295
64276W        W34876  30.509   6.601   4.877
64277W        W34877   7.903  34.922   0.759
64278W        W34878  17.838  12.344  12.360
64279W        W34879  35.362  22.100   0.942
64280W        W34880  13.255  19.386   1.786
64281W        W34881  28.971  44.237   3.326
64282W        W34882  40.908   7.130   3.212
64283W        W34883   3.157  44.970   3.931
64284W        W34884  29.084  41.860  14.277
64285W        W34885  19.468   2.096   3.663
64286W        W34886  32.659   6.461  13.491
64287W        W34887  29.604  35.879  13.538
64288W        W34888  20.343  12.190  11.469
64289W        W34889   0.787  36.182  10.685
64290W        W34890  30.921  27.899  13.876
64291W        W34891  44.540  44.251  11.610
64292W        W34892  39.900  27.372  14.822
64293W        W34893  33.057  20.585  11.615
64294W        W34894  17.157  14.657   2.689
64295W        W34895  44.024  27.068   0.812
64296W        W34896  39.853  20.613  14.351
64297W        W34897  44.808  16.080   3.232
64298W        W34898  35.300  32.985   1.258
64299W        W34899  29.158  34.135  13.573
64300W        W34900  19.621  18.108   1.719
64301W        W34901  37.384  13.583  13.573
64302W        W34902  23.228   0.411   2.419
64303W        W34903   2.242   4.173  12.450
64304W        W34904  27.669   1.398   1.333
64305W        W34905  41.515  35.387  14.873
64306W        W34906  12.182  41.871  13.522
64307W        W34907  38.764  28.490  13.032
64308W        W34908  43.557  29.678  13.568
64309W        W34909  33.372  35.529  11.978
64310W        W34910  19.196  27.469   2.342
64311W        W34911  43.370  37.987   0.877
64312W        W34912  12.659   8.900   2.604
64313W        W34913   6.397  10.799   3.135
64314W        W34914  14.311  30.457  11.597
64315W        W34915  19.650  40.968   3.192
64316W        W34916   5.827  36.947   1.700
64317W        W34917   8.722  31.523   1.166
64318W        W34918  18.630  31.573  12.589
64319W        W34919   0.966  41.375   4.528
64320W        W34920   7.230  21.220  14.238
64321W        W34921   3.856  17.051  10.999
64322W        W34922  39.498   0.484   0.474
64323W        W34923  31.164   5.924   0.059
64324W        W34924  26.158  17.019   1.942
64325W        W34925  21.551  44.275  14.004
64326W        W34926  26.920   8.155   1.310
64327W        W34927   1.407   9.310  12.031
64328W        W34928   7.378  32.717   2.881
64329W        W34929  43.341   8.305   1.829
64330W        W34930  30.369  28.164   3.116
64331W        W34931  21.981  41.247  11.203
64332W        W34932  30.425  38.778   3.188
64333W        W34933  37.765   8.382   1.220
64334W        W34934  13.057   8.493  12.349
64335W        W34935   3.753  31.618   4.522
64336W        W34936  34.574  38.398   4.143
64337W        W34937  24.941  32.855   1.254
64338W        W34938  12.302   9.313   1.173
64339W        W34939  41.802  29.155  12.844
64340W        W34940  20.671   6.452  10.439
64341W        W34941   5.814  29.657   0.467
64342W        W34942  31.895  43.776  13.834
64343W        W34943  19.104  29.901   1.939
64344W        W34944   7.261  29.387   4.991
64345W        W34945  44.327  26.614   4.583
64346W        W34946  11.592   0.245   1.440
64347W        W34947  24.168  24.553  10.885
64348W        W34948   9.851  13.216   4.012
64349W        W34949   8.772  43.415   4.521
64350W        W34950  12.873   3.341   0.744
64351W        W34951  10.559  14.111   1.388
64352W        W34952  23.573  34.736   4.243
64353W        W34953  16.665  43.885  11.523
64354W        W34954  39.430  27.426  14.513
64355W        W34955  17.112  24.615  12.939
64356W        W34956  37.763  13.453  12.628
64357W        W34957  29.790  36.572  11.978
64358W        W34958   8.816  20.264   3.574
64359W        W34959  19.512   3.764  12.741
64360W        W34960  24.761  24.612  14.980
64361W        W34961  23.130  42.162   4.070
64362W        W34962  18.639  40.364  10.247
64363W        W34963   9.349  26.931  13.044
64364W        W34964   3.983  23.677   0.443
64365W        W34965   1.687  10.816  14.679
64366W        W34966   7.507  17.156   3.985
64367W        W34967   4.499  27.944   2.320
64368W        W34968  13.665   9.358  14.944
64369W        W34969  24.790  13.290  12.001
64370W        W34970  18.206  35.117   3.274
64371W        W34971  34.611  22.759   3.077
64372W        W34972  36.395  44.794   1.738
64373W        W34973  30.948  27.456   0.817
64374W        W34974  44.918  29.801  10.752
64375W        W34975  37.933   2.214  14.791
64376W        W34976  10.924  16.272   2.661
64377W        W34977   2.537  17.134  14.395
64378W        W34978  28.667   8.237   2.837
64379W        W34979  23.543   3.159  14.332
64380W        W34980   0.002   2.471  11.077
64381W        W34981  15.844   3.840  10.253
64382W        W34982  22.414  32.487   3.745
64383W        W34983  40.391  23.455   3.423
64384W        W34984  16.597  24.061   2.462
64385W        W34985  20.599   9.500   1.893
64386W        W34986  23.005  12.664   1.398
64387W        W34987   5.734  34.517   2.642
64388W        W34988  33.201   3.786  12.703
64389W        W34989   6.808  21.070  11.260
64390W        W34990  40.151  32.657  14.872
64391W        W34991  23.606  31.540   1.086
64392W        W34992  22.894   5.224  12.376
64393W        W34993  20.450   1.342   4.871
64394W        W34994  34.040  22.296  10.297
64395W        W34995  19.140  25.088   3.588
64396W        W34996  33.416  15.761  12.847
64397W        W34997   6.039  38.308   4.796
64398W        W34998  25.268  15.537  14.075
64399W        W34999  20.107   0.696   2.361
64400W        W35000  41.420  22.591   4.668
64401W        W35001  26.179   8.726  13.470
64402W        W35002  36.555  27.491   1.858
64403W        W35003  43.740  43.953   4.537
64404W        W35004  35.586  11.886  11.428
64405W        W35005  41.696  23.517   1.313
64406W        W35006  43.725   3.667  13.310
64407W        W35007   4.199  11.939  13.382
64408W        W35008  24.097  38.915   2.620
64409W        W35009  30.106  39.037   1.792
64410W        W35010  37.114  29.444  12.108
64411W        W35011  11.214  29.047   2.201
64412W        W35012   1.883  10.179   3.319
64413W        W35013   1.066  18.690   2.377
64414W        W35014  20.697   5.248  13.457
64415W        W35015  27.771  18.551   1.423
64416W        W35016  12.648  18.557  12.045
64417W        W35017  11.765   2.745  13.717
64418W        W35018   0.621  26.342   3.713
64419W        W35019  15.971  40.582  12.123
64420W        W35020  20.082   7.757  14.835
64421W        W35021  24.519  18.176  13.402
64422W        W35022  38.968  12.123   0.844
64423W        W35023  10.317  39.577   3.338
64424W        W35024  20.341  27.409   5.368
64425W        W35025  24.117  39.322  10.687
64426W        W35026  35.396  13.277   1.846
64427W        W35027  39.353  36.039   4.016
64428W        W35028  42.996   7.923  14.861
64429W        W35029  19.052   4.395  11.585
64430W        W35030  22.098  18.536   2.451
64431W        W35031  34.215   6.296  13.269
64432W        W35032  24.666  18.660   2.442
64433W        W35033  22.070   7.550   4.983
64434W        W35034  13.796  34.103  12.152
64435W        W35035  40.419  35.048   1.409
64436W        W35036   9.411  34.166   0.715
64437W        W35037   2.975  39.354  11.160
64438W        W35038  18.941  32.071  14.330
64439W        W35039   4.251  36.339   2.747
64440W        W35040  31.684   7.192  12.013
64441W        W35041  19.566  35.538   0.353
64442W        W35042  37.094  35.469   1.391
64443W        W35043  32.569  41.893   3.607
64444W        W35044  19.297  15.496  11.866
64445W        W35045  36.603  14.673  11.930
64446W        W35046  39.730   3.341  14.945
64447W        W35047   3.589  28.939   4.893
64448W        W35048   4.131  20.273   4.783
64449W        W35049  10.408  25.561  13.507
64450W        W35050  35.849  38.987   2.492
64451W        W35051  10.967   4.422  14.651
64452W        W35052   3.778  30.095  11.009
64453W        W35053  23.039  26.422   0.336
64454W        W35054  35.611  10.202   0.247
64455W        W35055  37.436  33.582   1.440
64456W        W35056  22.531   0.344   3.662
64457W        W35057   2.671  40.043  14.282
64458W        W35058  37.851  41.769   2.343
64459W        W35059   1.388  25.603   1.077
64460W        W35060  15.001  11.685   4.558
64461W        W35061  28.761  38.840  11.462
64462W        W35062  35.651  26.523  14.390
64463W        W35063  42.333  22.956  13.565
64464W        W35064  30.410  43.291  11.572
64465W        W35065  41.089  34.824   0.457
64466W        W35066  17.489  41.597   1.699
64467W        W35067  16.101  39.664  13.454
64468W        W35068  41.349  33.606  13.284
64469W        W35069   5.109   4.933   0.308
64470W        W35070  23.500   5.502  11.634
64471W        W35071  41.861   8.726  13.812
64472W        W35072  39.377  27.539   1.584
64473W        W35073  28.555  10.267  13.302
64474W        W35074  28.131  26.351   4.544
64475W        W35075   0.851   9.967  13.414
64476W        W35076   8.621   0.446  11.714
64477W        W35077  36.932  29.082  11.195
64478W        W35078  39.407  24.659  11.975
64479W        W35079  40.003  17.062   2.429
64480W        W35080  26.710  13.939   0.840
64481W        W35081  29.834  37.277   4.192
64482W        W35082   0.681  30.972  13.224
64483W        W35083   3.189  20.072   2.292
64484W        W35084  24.751  39.033   1.464
64485W        W35085  29.183   8.158   2.984
64486W        W35086  32.976   4.856   4.137
64487W        W35087  16.320  37.892   3.467
64488W        W35088  10.122   9.273   1.675
64489W        W35089  39.934  15.760  12.887
64490W        W35090  40.644  41.243   5.079
64491W        W35091  14.347  30.151  13.757
64492W        W35092  38.069   9.911  12.370
64493W        W35093  27.345   8.874  12.730
64494W        W35094  10.791  36.282   3.622
64495W        W35095  25.157  16.770  10.736
64496W        W35096  24.840  44.902  13.453
64497W        W35097  38.821  28.960  12.055
64498W        W35098  16.851   5.265   4.501
64499W        W35099  37.639  22.997   3.394
64500W        W35100   4.052  18.126   4.186
64501W        W35101   0.987  20.129  11.653
64502W        W35102  20.899  13.206  11.616
64503W        W35103   0.075  31.959   0.716
64504W        W35104  32.455  43.286  11.518
64505W        W35105  18.862  18.145  13.843
64506W        W35106  26.160   6.754   3.678
64507W        W35107  36.384  27.562  13.518
64508W        W35108  13.662  32.976  11.464
64509W        W35109  27.487  10.116  13.780
64510W        W35110  15.149  41.010  12.183
64511W        W35111  28.493   9.523   4.543
64512W        W35112   7.290  15.647   2.676
64513W        W35113   5.262   8.897   1.871
64514W        W35114  22.522   3.445  14.669
64515W        W35115  21.399  43.852  14.534
64516W        W35116  36.943  20.728   4.513
64517W        W35117  21.835   9.319  12.768
64518W        W35118  29.894  43.511   0.460
64519W        W35119  13.129  41.273  13.555
64520W        W35120  10.119  23.810   1.734
64521W        W35121  39.557   0.394  12.983
64522W        W35122  15.109  24.890   2.540
64523W        W35123   6.700  21.236   4.866
64524W        W35124   5.037  22.648  11.406
64525W        W35125  12.372  38.792  13.908
64526W        W35126  13.095  36.294   3.255
64527W        W35127  22.486  35.412  11.910
64528W        W35128  34.049   0.388   0.819
64529W        W35129  22.461   9.330  13.473
64530W        W35130  28.572  24.422   0.692
64531W        W35131  32.375   1.936  13.765
64532W        W35132  33.060   3.582   4.580
64533W        W35133  36.855  29.852  13.074
64534W        W35134  39.415  24.590  13.864
64535W        W35135  33.272  16.372  14.776
64536W        W35136  15.535   2.310   2.224
64537W        W35137  21.187  31.138  12.111
64538W        W35138  25.053  32.451  13.897
64539W        W35139  25.924  44.420  14.140
64540W        W35140  41.515  23.078   4.923
64541W        W35141  19.754  40.734   4.131
64542W        W35142  26.271  10.347   2.304
64543W        W35143  39.033   9.677   3.267
64544W        W35144   3.620  35.196   3.227
64545W        W35145   1.129  32.902   0.995
64546W        W35146  39.333  23.153  14.207
64547W        W35147  29.955  43.428  13.493
64548W        W35148  25.358   7.260  12.622
64549W        W35149   5.279  11.744  13.848
64550W        W35150  43.298   2.459   2.738
64551W        W35151  25.595  11.905   9.934
64552W        W35152   7.699  33.099  12.447
64553W        W35153   1.084  21.272  12.705
64554W        W35154  21.550   0.758   0.670
64555W        W35155  15.388  41.538  10.476
64556W        W35156  11.785  43.878  13.292
64557W        W35157  36.133  43.489   0.352
64558W        W35158  19.050  33.534   1.898
64559W        W35159  42.149  22.640  13.207
64560W        W35160  32.736  31.378   1.701
64561W        W35161  15.731  41.159  14.873
64562W        W35162  12.774  12.285   0.682
64563W        W35163  17.841  13.381   1.235
64564W        W35164  31.103  35.918   4.004
64565W        W35165  42.877  22.108  10.721
64566W        W35166  36.302   3.483  14.901
64567W        W35167  25.094  19.546   0.434
64568W        W35168  43.963   0.427  12.865
64569W        W35169   9.992   9.758   0.107
64570W        W35170   1.921  37.599   3.690
64571W        W35171  13.286  21.300  14.253
64572W        W35172  32.619  31.089   0.117
64573W        W35173  13.320  43.765   2.221
64574W        W35174  30.774  24.169  13.103
64575W        W35175  40.929   0.962  12.263
64576W        W35176   1.984   5.398  10.734
64577W        W35177   4.515  10.866   0.941
64578W        W35178   5.702   9.948   1.144
64579W        W35179  24.491  36.778  13.301
64580W        W35180   1.983  34.107   0.460
64581W        W35181  21.042  43.029  13.365
64582W        W35182  41.055  23.269   2.844
64583W        W35183  24.019  12.621   4.560
64584W        W35184  12.284  13.355   1.889
64585W        W35185  41.828  37.178  12.257
64586W        W35186  38.952  32.981  10.954
64587W        W35187  36.818  40.235   3.303
64588W        W35188   7.175  43.793  14.793
64589W        W35189  10.673  15.563   0.436
64590W        W35190  44.244   2.033  14.926
64591W        W35191  43.543  19.990   2.794
64592W        W35192  38.432  29.113   1.204
64593W        W35193   5.247  23.232  14.748
64594W        W35194  35.946  13.237   2.571
64595W        W35195  22.738  31.629   2.834
64596W        W35196   9.742  37.504   4.183
64597W        W35197  31.209  35.552   3.187
64598W        W35198  21.968  26.405  13.998
64599W        W35199  12.400   8.015  12.925
64600W        W35200  18.314  23.018   4.724
64601W        W35201  20.730  13.653  11.784
64602W        W35202  44.421  22.775   5.206
64603W        W35203  23.927  37.265  13.866
64604W        W35204   2.929  21.884  12.440
64605W        W35205  19.115  25.148  11.976
64606W        W35206  12.871   6.609  13.937
64607W        W35207  31.973  44.200  10.701
64608W        W35208  25.653   9.800  14.486
64609W        W35209  35.938  32.032  12.156
64610W        W35210  14.875  12.257  14.500
64611W        W35211   8.095  16.241  13.315
64612W        W35212   1.862  32.485  11.449
64613W        W35213  30.606  12.250   1.843
64614W        W35214  44.036  10.123   2.447
64615W        W35215   0.177   1.314   4.169
64616W        W35216  32.620  24.994  12.462
64617W        W35217  25.533  20.986  14.499
64618W        W35218  36.542  38.192  12.019
64619W        W35219   7.404  34.824   2.245
64620W        W35220  38.397  18.254  11.909
64621W        W35221  35.948  43.191  13.691
64622W        W35222  32.089   0.749   4.059
64623W        W35223  25.845  33.561   1.307
64624W        W35224  15.199  17.728  11.257
64625W        W35225   3.226  33.698  14.865
64626W        W35226  39.202  17.970  10.408
64627W        W35227  32.492  23.397   0.333
64628W        W35228  27.047  21.518   4.368
64629W        W35229  26.973  30.969   1.296
64630W        W35230  29.433  43.415   3.073
64631W        W35231  32.469  38.592   2.772
64632W        W35232   0.963   0.463   2.735
64633W        W35233  21.566  40.474   1.257
64634W        W35234  22.552  33.170  10.694
64635W        W35235  13.884  39.943   0.909
64636W        W35236  11.336  27.240   4.519
64637W        W35237  39.027  19.055  14.222
64638W        W35238  16.556  17.780  13.996
64639W        W35239  39.063  41.752  12.854
64640W        W35240   8.250  24.582  11.917
64641W        W35241  26.730   9.071  13.945
64642W        W35242  43.643  40.038  10.498
64643W        W35243  12.863  10.154  13.127
64644W        W35244  16.830  44.524   4.297
64645W        W35245  15.864  13.672   1.398
64646W        W35246  25.474  37.434  13.802
64647W        W35247  28.170  43.914   2.433
64648W        W35248  15.678   0.284  11.363
64649W        W35249  21.685  31.291   0.937
64650W        W35250   9.370  10.530   2.387
64651W        W35251  27.205   1.194  12.959
64652W        W35252  22.148   7.419   1.889
64653W        W35253  12.218   4.319  13.750
64654W        W35254  25.049  23.611  13.297
64655W        W35255  34.113  30.148  13.336
64656W        W35256  13.391  24.391   2.393
64657W        W35257  44.147   1.957   3.703
64658W        W35258  20.455  31.129  12.783
64659W        W35259  21.702   4.240   1.903
64660W        W35260  18.526  14.870  12.354
64661W        W35261  26.669  34.285   4.858
64662W        W35262  26.353  27.613   1.924
64663W        W35263  19.388  25.384   1.212
64664W        W35264   0.200  21.316  12.411
64665W        W35265  36.292  39.581  12.081
64666W        W35266  15.701  22.110   2.649
64667W        W35267  38.210  12.578  14.729
64668W        W35268  27.566  31.050   4.900
64669W        W35269  19.547   6.954  10.256
64670W        W35270   5.276  44.490  11.163
64671W        W35271  15.527  23.798   1.459
64672W        W35272  24.492  40.784   2.817
64673W        W35273  23.846  31.937  13.231
64674W        W35274  32.889  28.352  13.397
64675W        W35275  38.485  20.383   1.876
64676W        W35276  36.084   7.779  12.459
64677W        W35277  24.259  10.765  14.844
64678W        W35278  17.133   6.995  11.008
64679W        W35279  37.583  10.493  14.471
64680W        W35280   2.762  24.390   0.541
64681W        W35281  14.641  13.577   0.380
64682W        W35282  15.137   4.827  13.123
64683W        W35283  14.732  41.731   4.923
64684W        W35284  10.254  27.702   3.282
64685W        W35285  32.627  29.167  13.117
64686W        W35286  10.134  28.452   2.692
64687W        W35287  27.205  37.515  11.838
64688W        W35288  25.325   1.867   4.523
64689W        W35289  26.187  22.791   3.213
64690W        W35290  29.567  29.924   4.029
64691W        W35291   9.681  30.844  11.410
64692W        W35292  20.776  15.285   3.702
64693W        W35293  13.317  15.908   3.039
64694W        W35294  11.712  31.932  14.063
64695W        W35295  22.052  27.499  14.808
64696W        W35296  22.492  33.022   1.377
64697W        W35297   4.551   4.360  12.205
64698W        W35298  44.500  30.578  11.119
64699W        W35299  25.884   5.235  12.518
64700W        W35300  25.059  40.951   3.518
64701W        W35301   3.770  28.396   3.176
64702W        W35302   2.305  20.738   2.098
64703W        W35303   8.661   1.783  14.184
64704W        W35304  15.750  41.122  11.839
64705W        W35305  29.307  18.872  12.549
64706W        W35306  34.812  31.020  12.017
64707W        W35307  10.080  20.693   0.304
64708W        W35308   0.862   0.315  14.335
64709W        W35309  25.626   8.719  11.445
64710W        W35310  43.987  38.306  10.751
64711W        W35311  44.513  17.348   3.281
64712W        W35312  17.346   8.836  10.749
64713W        W35313   3.240   6.911   4.202
64714W        W35314  30.885  30.481   1.654
64715W        W35315  14.710  18.596   2.738
64716W        W35316  17.005  17.119   2.689
64717W        W35317  33.710  27.770  10.097
64718W        W35318  15.186   6.716  13.843
64719W        W35319  39.475  41.855  14.676
64720W        W35320   4.169  13.033   4.922
64721W        W35321  27.499  24.225   4.509
64722W        W35322  15.733   7.793  10.776
64723W        W35323  21.182  33.539  13.483
64724W        W35324  29.927  11.220  11.569
64725W        W35325  43.981  25.212  11.991
64726W        W35326  43.486  26.951  11.973
64727W        W35327  39.358  33.026   2.642
64728W        W35328  12.898  42.305   1.508
64729W        W35329  19.739   4.098   2.324
64730W        W35330   1.741  27.960  11.186
64731W        W35331  24.939  31.415  12.023
64732W        W35332   0.269  33.030   2.221
64733W        W35333  24.075  15.077  14.273
64734W        W35334  16.619  35.853   0.637
64735W        W35335  41.477  35.117  12.930
64736W        W35336  14.869   9.253  12.857
64737W        W35337  43.236  33.942   3.125
64738W        W35338   0.893  25.944  13.460
64739W        W35339  35.056  31.008   3.356
64740W        W35340  40.518  28.492  12.458
64741W        W35341  10.132   9.129  11.608
64742W        W35342  19.269   0.727   0.427
64743W        W35343  17.534  16.297  14.862
64744W        W35344   0.484  24.693  12.022
64745W        W35345   7.744  21.921   1.229
64746W        W35346  28.625   3.574   4.515
64747W        W35347  13.129   7.949  11.075
64748W        W35348   3.678  37.763   1.994
64749W        W35349  20.315  18.784   1.762
64750W        W35350  17.070  31.511  11.011
64751W        W35351   0.499  29.503   3.659
64752W        W35352  13.894   3.452   1.699
64753W        W35353   7.095  17.175   0.836
64754W        W35354   9.702  29.893   3.348
64755W        W35355  26.552  31.011  12.118
64756W        W35356  21.270   2.934  14.719
64757W        W35357   1.127  32.429  13.835
64758W        W35358  16.083   9.850   2.308
64759W        W35359  30.550  40.397   4.001
64760W        W35360   9.726  39.924  12.286
64761W        W35361  14.097   6.905   4.631
64762W        W35362  18.703  26.942  12.581
64763W        W35363  28.907  32.126  12.776
64764W        W35364  15.226  18.207  10.512
64765W        W35365  11.344  26.020   1.361
64766W        W35366   7.497  17.754  12.113
64767W        W35367  33.518  25.642  11.933
64768W        W35368  11.377   9.287  11.885
64769W        W35369  32.978  27.422  13.353
64770W        W35370   3.648   1.047  14.934
64771W        W35371  23.596  19.982  11.001
64772W        W35372  37.182  40.511   3.019
64773W        W35373   7.488   2.238  11.932
64774W        W35374  37.897  17.198   2.411
64775W        W35375  11.326  42.338  14.311
64776W        W35376  33.121  12.121   0.732
64777W        W35377  20.263  29.892   3.202
64778W        W35378  10.642  17.299  14.282
64779W        W35379  33.823  27.014   4.431
64780W        W35380  21.041  23.563  14.599
64781W        W35381   7.426  26.068   1.373
64782W        W35382  39.035  28.117  11.627
64783W        W35383  12.615  25.372  14.763
64784W        W35384  25.643  43.828   4.077
64785W        W35385  29.154  12.835   4.228
64786W        W35386  13.791  40.787  12.109
64787W        W35387  29.169  28.528   4.750
64788W        W35388  18.969   2.463  12.580
64789W        W35389  36.536  43.052  10.722
64790W        W35390  12.160  26.195   4.070
64791W        W35391  41.739   0.813  13.797
64792W        W35392  42.374  27.443  13.993
64793W        W35393  13.134  10.059   1.443
64794W        W35394  26.551  25.002  14.289
64795W        W35395   9.196  19.608  14.253
64796W        W35396  40.976  27.215   4.586
64797W        W35397  36.801  37.202  14.171
64798W        W35398   3.183  36.345   2.745
64799W        W35399  32.187  41.417   1.876
64800W        W35400  14.657  13.816   2.110
64801W        W35401   6.793  34.065   4.564
64802W        W35402  12.710  17.404   4.305
64803W        W35403   8.675   5.193  13.457
64804W        W35404  38.468  38.941  13.988
64805W        W35405  13.094   1.324  11.572
64806W        W35406  16.056  16.700  12.314
64807W        W35407  24.693  26.608  12.096
64808W        W35408   4.388  25.625  10.320
64809W        W35409  28.481  11.285  13.541
64810W        W35410  10.032  36.652  13.117
64811W        W35411  40.067  38.524  11.980
64812W        W35412  29.033  23.639  13.862
64813W        W35413  30.683  22.474  13.011
64814W        W35414  29.428  11.943   2.305
64815W        W35415   9.268  44.310  14.349
64816W        W35416   0.242   3.727   2.869
64817W        W35417  40.763  21.982  13.867
64818W        W35418  39.280  34.529   4.716
64819W        W35419  30.835  36.637   2.683
64820W        W35420  30.347  25.014   2.287
64821W        W35421  18.599  26.477   4.938
64822W        W35422   6.385  26.351   2.017
64823W        W35423   7.364   7.799  13.093
64824W        W35424  43.183   1.261   3.939
64825W        W35425  23.610  30.375  13.005
64826W        W35426  35.611  32.063  11.660
64827W        W35427  38.385  17.601  10.717
64828W        W35428   5.274  35.017  14.945
64829W        W35429  33.392  10.120   0.769
64830W        W35430  32.101   2.931   0.444
64831W        W35431   6.082   3.568  11.988
64832W        W35432  39.569  34.958  12.761
64833W        W35433  10.753  31.112   3.235
64834W        W35434  41.359   9.852  12.048
64835W        W35435  17.352  15.540   3.672
64836W        W35436   5.182   6.270   4.287
64837W        W35437  15.404   4.237   0.194
64838W        W35438  14.606  30.030  11.534
64839W        W35439  31.781   2.295  14.909
64840W        W35440  36.984   8.731   1.278
64841W        W35441  15.683  19.574   2.815
64842W        W35442  41.652  42.490   3.820
64843W        W35443   1.030  21.046  11.869
64844W        W35444  14.911  34.781  12.462
64845W        W35445  26.979  36.945  14.053
64846W        W35446  36.918  15.509   0.354
64847W        W35447  23.578  39.345   1.403
64848W        W35448  11.714  21.776   2.260
64849W        W35449  44.050  33.556   3.210
64850W        W35450  37.580  21.979  13.467
64851W        W35451  37.036  33.065   3.864
64852W        W35452   3.627   4.754   1.204
64853W        W35453  14.575   5.255  13.392
64854W        W35454  34.306   7.010  10.892
64855W        W35455  25.603   8.504   3.111
64856W        W35456  30.154  18.091  11.120
64857W        W35457  18.475  18.782  10.591
64858W        W35458  40.351  25.020   4.265
64859W        W35459   4.785  23.533   4.787
64860W        W35460  43.505   1.701  12.704
64861W        W35461  43.359   4.537  11.936
64862W        W35462  42.494   2.790  12.034
64863W        W35463   9.765  34.382  13.110
64864W        W35464  12.216  29.112   3.173
64865W        W35465   3.123  21.394  13.568
64866W        W35466   2.458  18.045  12.454
64867W        W35467  24.975   1.843   1.702
64868W        W35468  29.555  15.023  14.459
64869W        W35469  15.677  38.330  14.608
64870W        W35470  22.193   7.340   4.145
64871W        W35471  18.991  11.685   0.436
64872W        W35472   2.788  14.702   3.652
64873W        W35473  15.483  21.530  11.030
64874W        W35474  26.253  26.125  12.548
64875W        W35475  24.769  39.089   2.325
64876W        W35476  41.219  13.574  14.091
64877W        W35477  30.382  32.780  11.578
64878W        W35478   3.244   3.173   5.092
64879W        W35479  17.310  20.689  11.165
64880W        W35480   0.419  11.315  11.144
64881W        W35481  16.078  40.343   4.896
64882W        W35482  20.929   5.697  13.607
64883W        W35483   1.556  38.871   4.165
64884W        W35484  19.060  13.691   3.244
64885W        W35485  28.256  10.785   3.577
64886W        W35486  15.089  27.839  11.186
64887W        W35487  10.826  30.497  10.696
64888W        W35488   4.833  25.220   1.718
64889W        W35489  11.612  16.819  14.937
64890W        W35490   1.879  33.145  13.252
64891W        W35491  32.986  40.961  12.142
64892W        W35492   9.247  12.240  11.362
64893W        W35493  18.340  29.263   1.282
64894W        W35494   2.302  28.572   3.266
64895W        W35495  25.649  29.208   4.708
64896W        W35496  14.569  36.313  12.655
64897W        W35497   2.320  35.602  14.855
64898W        W35498  33.163  20.389   0.910
64899W        W35499  38.044  10.516  11.277
64900W        W35500  10.157  19.307  12.029
64901W        W35501   7.186  38.486   1.262
64902W        W35502  20.240  38.041   4.262
64903W        W35503  33.910  22.938   4.108
64904W        W35504   0.836  26.420   2.266
64905W        W35505   9.674  13.692   4.357
64906W        W35506  25.347   9.166   9.827
64907W        W35507   7.975  17.566  11.855
64908W        W35508   7.832  33.017   2.274
64909W        W35509   2.708  16.362   4.118
64910W        W35510  17.085  29.268  10.217
64911W        W35511  12.710  37.285   2.361
64912W        W35512  10.655  34.697   2.848
64913W        W35513  34.197  21.459   1.328
64914W        W35514  41.315  26.303  12.806
64915W        W35515  38.490  31.087  11.882
64916W        W35516  40.309   8.756   0.701
64917W        W35517  42.299  22.664   1.115
64918W        W35518  18.377   3.033  10.878
64919W        W35519  27.604  21.777  13.795
64920W        W35520  13.166  14.124   9.867
64921W        W35521  34.424  18.706   2.345
64922W        W35522   0.777  10.723   4.921
64923W        W35523  18.177  16.532  11.905
64924W        W35524  18.668  24.511   0.635
64925W        W35525   9.371  25.067  10.668
64926W        W35526  38.599   4.276  10.733
64927W        W35527   2.972  11.761   0.411
64928W        W35528  25.598  40.458   2.410
64929W        W35529  35.849  21.144   2.366
64930W        W35530  21.355   0.905  10.823
64931W        W35531  41.491  43.794   3.959
64932W        W35532  17.188  16.208  11.648
64933W        W35533  17.510  17.162   2.825
64934W        W35534  23.792  27.249  11.179
64935W        W35535  31.359  11.318  13.346
64936W        W35536  21.688  22.961   0.447
64937W        W35537  40.858  13.191   0.801
64938W        W35538  12.340  10.284  10.730
64939W        W35539  29.379  19.317   2.827
64940W        W35540  27.994  10.203   4.164
64941W        W35541  22.831  24.107  11.140
64942W        W35542  40.078  23.678  12.441
64943W        W35543  38.312  15.600  14.550
64944W        W35544   1.053  27.977   2.700
64945W        W35545  43.472  32.882   0.987
64946W        W35546  10.602  20.270   4.430
64947W        W35547  14.859  44.597   4.169
64948W        W35548  21.900  41.102   1.114
64949W        W35549  41.171   1.686  10.939
64950W        W35550  36.726  35.062   2.100
64951W        W35551  34.443  14.834  12.162
64952W        W35552  40.573  13.787   3.234
64953W        W35553  34.115  14.762  13.541
64954W        W35554  29.930  29.939  11.672
64955W        W35555  23.072  11.849   4.489
64956W        W35556   3.484   3.046  11.628
64957W        W35557  19.020  19.630  12.038
64958W        W35558  30.652   5.294   3.281
64959W        W35559  13.598  37.264   2.146
64960W        W35560  42.532  18.119   1.460
64961W        W35561  25.891   9.665   4.122
64962W        W35562  35.880  31.410   0.480
64963W        W35563  42.532  13.243   0.869
64964W        W35564   2.103  34.381  14.658
64965W        W35565  21.935  26.548   3.649
64966W        W35566  27.108  36.520   2.915
64967W        W35567   5.994  14.094   1.984
64968W        W35568  32.568   6.293   0.287
64969W        W35569  14.829  40.361  13.115
64970W        W35570  17.539  24.599  13.258
64971W        W35571  31.031  43.139  10.098
64972W        W35572  35.892  36.621  10.458
64973W        W35573  41.690  44.247   4.746
64974W        W35574  40.409  28.673  10.632
64975W        W35575  34.675  10.162  10.294
64976W        W35576  34.836  21.666   3.637
64977W        W35577  38.095  30.535   3.248
64978W        W35578  43.024  27.751  13.381
64979W        W35579  43.900  16.587  14.851
64980W        W35580  11.599  43.495   0.410
64981W        W35581  18.569  11.767  10.339
64982W        W35582  33.050  22.299  14.806
64983W        W35583   0.706  19.554  13.262
64984W        W35584  28.100  42.014   1.653
64985W        W35585   5.173  37.330   4.557
64986W        W35586  22.705  26.352   2.775
64987W        W35587  26.873   5.880   4.100
64988W        W35588  33.578  39.501   3.221
64989W        W35589  31.403  12.592   3.736
64990W        W35590  15.014  22.714   4.200
64991W        W35591  34.511   2.707  11.600
64992W        W35592  21.369  33.127  12.103
64993W        W35593  42.637   3.716   2.035
64994W        W35594   3.814  42.477   2.794
64995W        W35595  17.374  15.891   0.212
64996W        W35596  34.889  24.475   4.961
64997W        W35597   1.136   6.859   2.729
64998W        W35598   7.323  12.844   3.313
64999W        W35599   1.309   0.992   1.843
65000W        W35600  25.937   1.433  13.276
65001W        W35601  14.170  23.759  13.914
65002W        W35602  21.233  27.180  14.926
65003W        W35603   0.769  36.703   4.815
65004W        W35604   2.827  30.470   1.449
65005W        W35605  16.341  20.511  14.924
65006W        W35606  28.662  11.628  12.674
65007W        W35607   9.710  17.444   3.758
65008W        W35608  11.459  11.427   1.217
65009W        W35609  41.266  29.122   2.729
65010W        W35610   6.321   1.394   3.398
65011W        W35611   6.456   6.669   3.082
65012W        W35612  34.660  16.642   2.432
65013W        W35613  35.496  32.121   1.878
65014W        W35614  42.476   2.827   3.657
65015W        W35615  30.503  31.443  12.390
65016W        W35616  23.660   0.771   5.176
65017W        W35617   3.972  30.760  13.107
65018W        W35618  43.653   2.510   0.313
65019W        W35619  34.325  24.196  13.086
65020W        W35620  31.449  34.529  14.460
65021W        W35621  33.213  29.201  12.454
65022W        W35622  44.243  43.222   1.803
65023W        W35623   0.789  21.904  12.093
65024W        W35624  23.900  14.897  12.707
65025W        W35625  12.316  28.378  11.128
65026W        W35626  43.468  19.015  14.403
65027W        W35627  35.272  19.820  13.986
65028W        W35628  28.288  11.012  11.862
65029W        W35629  42.597  31.202  12.908
65030W        W35630  11.627  38.009   3.451
65031W        W35631   7.433  22.473   2.830
65032W        W35632  14.834  37.989  12.035
65033W        W35633   8.650  36.895  12.371
65034W        W35634  30.424  19.176   4.367
65035W        W35635  10.396  10.343   1.829
65036W        W35636  27.984  18.042  12.513
65037W        W35637  28.159  32.608   2.258
65038W        W35638  33.456  37.274   2.584
65039W        W35639  27.970  15.217   5.157
65040W        W35640  39.305  32.112  10.493
65041W        W35641  36.809   6.099   2.408
65042W        W35642  43.025   6.789   1.744
65043W        W35643   1.897   0.256  12.939
65044W        W35644   3.265  21.265  11.583
65045W        W35645  14.130  30.947  13.380
65046W        W35646  32.473  37.662  13.960
65047W        W35647  18.114  38.801  11.635
65048W        W35648  26.531   4.855  14.812
65049W        W35649   9.064  19.155  11.438
65050W        W35650   1.856  41.939   1.030
65051W        W35651   9.423  33.481   4.179
65052W        W35652  30.036  25.023  12.610
65053W        W35653  44.547   6.831  12.046
65054W        W35654  43.418  30.517   3.749
65055W        W35655   3.464   5.824  10.043
65056W        W35656  21.113   0.641  12.550
65057W        W35657   9.935   9.630   2.980
65058W        W35658  22.122  23.339  14.570
65059W        W35659  37.815  44.267   4.702
65060W        W35660   7.441  15.377  13.849
65061W        W35661   9.923  28.959   1.225
65062W        W35662   5.858   6.901   2.080
65063W        W35663   6.951   5.412  13.061
65064W        W35664  20.685  21.318  14.009
65065W        W35665  10.957  40.591  13.415
65066W        W35666   8.804  31.086  10.770
65067W        W35667   2.190  20.619  13.892
65068W        W35668   6.118  26.706   3.235
65069W        W35669  28.436   7.534  11.877
65070W        W35670   3.885  16.685  12.573
65071W        W35671  30.616  23.358   4.647
65072W        W35672  40.998  44.485   3.723
65073W        W35673   5.067  12.864   2.323
65074W        W35674  33.835  32.254  10.265
65075W        W35675  13.893  10.793   1.495
65076W        W35676  42.344  11.425   3.640
65077W        W35677   0.992  21.271   5.181
65078W        W35678  26.923  21.625  12.876
65079W        W35679  26.088  43.487  11.120
65080W        W35680  28.133  37.050   0.711
65081W        W35681  10.861   8.148  11.470
65082W        W35682  34.594  12.702  10.722
65083W        W35683  20.468  33.227   1.342
65084W        W35684   2.868  41.524   4.659
65085W        W35685   0.517   3.412   3.645
65086W        W35686  17.010  10.147  13.584
65087W        W35687  40.693  37.791   2.821
65088W        W35688  41.958   4.435   0.082
65089W        W35689  14.086  39.885  10.944
65090W        W35690  25.701  22.041   0.342
65091W        W35691  35.995  19.759   5.034
65092W        W35692  31.734  39.126  11.196
65093W        W35693   2.836   5.516  12.554
65094W        W35694   4.401  22.525  13.622
65095W        W35695  34.451  31.554  10.720
65096W        W35696  43.853  22.491  13.995
65097W        W35697  41.124  25.537   2.913
65098W        W35698  34.693  29.038   4.082
65099W        W35699  33.642   1.776   0.215
65100W        W35700  40.310   8.479  12.462
65101W        W35701  34.028   7.230  12.199
65102W        W35702   9.606  35.666  12.219
65103W        W35703  42.501  24.878  11.143
65104W        W35704   3.897  17.716   0.243
65105W        W35705  25.629  40.731   1.769
65106W        W35706  43.208  11.263   0.336
65107W        W35707  41.455  35.842   3.090
65108W        W35708  27.636   7.687  12.493
65109W        W35709  11.118  35.050  12.882
65110W        W35710  24.380  33.280  14.038
65111W        W35711  30.926  37.084  10.663
65112W        W35712  33.839  24.294  12.969
65113W        W35713  31.249  20.568   1.823
65114W        W35714  35.949  38.266  13.061
65115W        W35715  18.207   8.404   4.745
65116W        W35716   5.391  35.299  10.841
65117W        W35717   5.690  34.048   3.954
65118W        W35718  24.267  26.228   1.767
65119W        W35719  31.334   9.688  11.174
65120W        W35720  26.444  22.290   1.136
65121W        W35721  39.835  40.970  12.377
65122W        W35722  44.809  39.363  14.883
65123W        W35723  12.523  10.134   4.502
65124W        W35724  10.738  15.789   3.712
65125W        W35725  44.023   2.827   4.118
65126W        W35726  43.526  34.518   3.766
65127W        W35727  39.509  43.366   3.302
65128W        W35728  22.734  41.835   1.846
65129W        W35729  38.956  23.736  10.304
65130W        W35730  12.290  20.158   0.442
65131W        W35731  28.527  41.297   0.543
65132W        W35732   8.286  29.682   3.298
65133W        W35733  15.405  19.260   4.949
65134W        W35734  25.491  38.740   0.382
65135W        W35735  18.217  14.568   1.907
65136W        W35736   7.139   5.168   0.444
65137W        W35737  39.658  35.859  13.812
65138W        W35738   3.476  29.526   0.922
65139W        W35739   5.628  14.725   4.702
65140W        W35740   0.227  10.490   3.732
65141W        W35741   6.367   4.261   0.267
65142W        W35742  32.174  25.083   1.982
65143W        W35743   6.144  14.685   4.704
65144W        W35744  36.166  43.569   2.980
65145W        W35745  14.947  19.159  12.242
65146W        W35746  19.997   1.385   2.657
65147W        W35747  43.541  41.466   0.825
65148W        W35748  38.114   4.397  14.562
65149W        W35749  14.824  23.826   0.876
65150W        W35750  17.370  28.636   2.027
65151W        W35751   3.077  16.449   0.502
65152W        W35752  26.554  38.773  10.011
65153W        W35753  20.115  43.332  14.326
65154W        W35754   1.900  26.894   1.082
65155W        W35755  40.523   1.866  14.594
65156W        W35756  22.698  33.013   2.841
65157W        W35757  25.085  36.983   4.466
65158W        W35758  12.278  25.236   4.419
65159W        W35759  44.743  21.062  12.419
65160W        W35760  23.248  10.370  14.445
65161W        W35761  23.123  22.595   4.651
65162W        W35762  25.965  13.560   3.771
65163W        W35763   7.422  31.982   2.264
65164W        W35764  21.118  36.847   3.189
65165W        W35765  36.524   9.118  13.035
65166W        W35766  20.475  12.037  11.941
65167W        W35767  12.201   7.134  13.841
65168W        W35768   0.290  13.083  12.501
65169W        W35769  16.083  26.167  14.533
65170W        W35770  33.285   3.067   2.660
65171W        W35771  22.657   0.752  12.141
65172W        W35772  40.074   3.270   3.362
65173W        W35773  30.085  25.485  14.406
65174W        W35774  42.974  31.187  11.561
65175W        W35775  22.883  20.724  11.956
65176W        W35776  18.294  42.099  14.453
65177W        W35777  20.099  25.215   2.395
65178W        W35778  38.843   0.309   2.789
65179W        W35779  14.676  15.803  10.802
65180W        W35780  22.490  28.577  11.385
65181W        W35781   9.563  21.107  13.113
65182W        W35782  42.036  11.767  12.085
65183W        W35783  15.174  22.045   0.805
65184W        W35784  40.887  26.988  11.954
65185W        W35785  40.410   3.637  11.261
65186W        W35786  29.043  27.556  11.987
65187W        W35787  26.542   4.311   3.488
65188W        W35788  32.438  43.610   3.653
65189W        W35789  27.605  15.524  14.826
65190W        W35790  29.939  31.445   0.251
65191W        W35791  15.717  43.377  14.875
65192W        W35792  10.255  33.561   2.254
65193W        W35793  20.995   4.896   3.333
65194W        W35794  32.986  44.250  12.393
65195W        W35795  34.556  32.008  11.891
65196W        W35796  25.451  20.754   0.855
65197W        W35797  11.776  20.617  12.880
65198W        W35798  10.922  13.791   1.905
65199W        W35799   3.989  24.491  14.389
65200W        W35800  11.234  28.204  14.931
65201W        W35801  28.448  40.534  12.635
65202W        W35802  22.533  22.182   3.643
65203W        W35803  44.928  18.080  14.771
65204W        W35804  26.448  42.344  12.978
65205W        W35805  28.277  36.395   2.931
65206W        W35806  13.183  35.812  10.441
65207W        W35807   8.122  32.991   4.150
65208W        W35808  35.499  23.754   1.849
65209W        W35809   3.377  31.954  14.800
65210W        W35810  20.605  17.801   3.099
65211W        W35811  31.517   7.434   0.426
65212W        W35812  19.607  38.570  12.150
65213W        W35813  33.975   4.890   3.808
65214W        W35814   8.375   7.339   1.863
65215W        W35815  35.295  38.615  10.730
65216W        W35816   5.849  36.476   4.946
65217W        W35817  18.056  12.130  11.385
65218W        W35818  22.963  28.569  10.861
65219W        W35819   0.476  10.228   0.668
65220W        W35820  26.179  21.833  11.559
65221W        W35821  31.359  41.531   2.883
65222W        W35822  26.227   1.714  12.517
65223W        W35823  15.297  26.094   3.092
65224W        W35824  33.578  43.059   4.165
65225W        W35825  22.497   0.555   0.871
65226W        W35826  30.061   8.080   1.361
65227W        W35827  17.618  24.478  10.526
65228W        W35828  26.433  19.725   1.785
65229W        W35829  41.591  16.806   2.739
65230W        W35830  18.623  41.480  11.730
65231W        W35831  36.560  13.282  14.607
65232W        W35832  16.123  33.882  13.280
65233W        W35833  17.388  20.746   4.451
65234W        W35834  19.693   6.743   4.774
65235W        W35835  16.561  14.471  11.966
65236W        W35836  43.035  18.602  10.604
65237W        W35837  19.338  25.959  14.495
65238W        W35838  44.848  15.298   1.280
65239W        W35839  26.550  44.287   0.434
65240W        W35840  24.684  35.058  13.560
65241W        W35841   9.910  42.992  14.445
65242W        W35842  27.543   7.173  14.871
65243W        W35843   6.387  26.181   1.370
65244W        W35844  17.093  31.756  12.867
65245W        W35845  15.138  40.674   2.496
65246W        W35846  34.574  16.748  12.879
65247W        W35847   2.645  40.095  10.947
65248W        W35848   7.615  16.325  11.586
65249W        W35849   9.573  21.454  14.322
65250W        W35850   1.013  14.912  11.373
65251W        W35851  24.265  21.345   1.385
65252W        W35852  37.137  37.090   0.455
65253W        W35853  33.295  17.628  14.452
65254W        W35854   1.507   1.288   4.552
65255W        W35855  24.636  34.182   1.316
65256W        W35856   0.980  24.610  13.042
65257W        W35857  27.742   0.940  14.074
65258W        W35858  22.567  38.541  11.058
65259W        W35859  26.471  16.054  12.150
65260W        W35860  18.017  41.987  12.114
65261W        W35861  12.880  11.400  12.887
65262W        W35862  24.566  16.117  11.011
65263W        W35863  13.797  23.927  11.298
65264W        W35864  11.771  29.962   3.404
65265W        W35865  28.005   2.780   2.754
65266W        W35866  14.293  31.492   0.708
65267W        W35867  37.828  15.217  14.095
65268W        W35868  26.549  37.668  11.141
65269W        W35869  24.132  35.225   3.396
65270W        W35870  12.045  42.742   3.590
65271W        W35871  41.193  42.259  14.873
65272W        W35872  41.920  13.203  10.905
65273W        W35873   2.337  15.409  10.704
65274W        W35874  41.473   8.742   3.668
65275W        W35875  19.586   5.396  12.030
65276W        W35876  21.088  10.257   3.903
65277W        W35877  14.346   5.845   3.453
65278W        W35878  32.419  22.104  14.270
65279W        W35879   5.284  40.584  10.990
65280W        W35880   9.841  24.014  10.379
65281W        W35881  33.213  37.996   0.548
65282W        W35882  34.110  10.492   1.180
65283W        W35883   3.641   1.896   1.297
65284W        W35884  17.583  35.837  14.882
65285W        W35885   1.813  38.821   0.793
65286W        W35886  17.770   0.774  11.529
65287W        W35887   9.760  36.999   2.907
65288W        W35888  25.948  41.924  14.511
65289W        W35889   2.529  13.126   2.603
65290W        W35890  17.562  30.147   2.788
65291W        W35891  25.570   3.659  10.493
65292W        W35892   3.518  22.979  14.473
65293W        W35893  34.816  40.278   3.201
65294W        W35894  33.188  32.119   1.231
65295W        W35895  13.107  37.142   2.088
65296W        W35896  33.461   0.959  13.824
65297W        W35897  24.611  41.178   3.172
65298W        W35898  39.815  12.209   2.134
65299W        W35899  25.885  35.833   2.814
65300W        W35900  28.173  43.036   1.272
65301W        W35901  20.603  16.636   0.325
65302W        W35902   4.406  10.420  10.681
65303W        W35903   8.087  21.506   1.302
65304W        W35904  21.817  34.086  13.794
65305W        W35905  35.521  35.141   2.730
65306W        W35906   6.792  31.273  14.435
65307W        W35907  34.517  19.483   0.031
65308W        W35908  22.664  17.155  11.995
65309W        W35909  37.487  23.203  10.943
65310W        W35910   8.391   3.256  12.646
65311W        W35911  28.868  40.572   3.693
65312W        W35912  20.795  32.743  14.172
65313W        W35913   7.293  42.363  12.066
65314W        W35914  26.235  19.232  12.997
65315W        W35915  33.574   0.196  13.364
65316W        W35916  20.519  10.253  14.941
65317W        W35917   3.243  23.211   0.926
65318W        W35918  38.406  20.644  14.131
65319W        W35919  34.450  35.887   0.733
65320W        W35920  13.534  13.667   1.234
65321W        W35921  16.565  11.474   2.865
65322W        W35922  20.613  37.615  13.895
65323W        W35923   4.262  13.697   3.632
65324W        W35924  17.420  37.881  10.684
65325W        W35925   2.217  27.957  10.428
65326W        W35926  36.655   9.140   1.171
65327W        W35927  15.383  23.849   3.633
65328W        W35928   6.467  32.948  13.043
65329W        W35929  28.565  28.859  10.415
65330W        W35930  31.108  11.944   1.167
65331W        W35931   4.622  25.953  11.244
65332W        W35932  26.688  39.859   1.782
65333W        W35933   0.836  44.680  12.595
65334W        W35934   3.748  31.869   1.898
65335W        W35935  20.492  39.308  11.644
65336W        W35936  16.203  40.367  11.117
65337W        W35937  18.834   2.251  11.187
65338W        W35938  30.700   3.967   0.620
65339W        W35939  34.445  42.327  13.258
65340W        W35940  15.777  10.935  10.195
65341W        W35941  33.313  32.292  11.478
65342W        W35942   0.759  44.717   1.549
65343W        W35943  23.600  44.953  11.476
65344W        W35944   1.657   9.772   1.910
65345W        W35945   7.004   3.127  12.072
65346W        W35946   7.526  26.005  12.415
65347W        W35947   8.914  19.642   1.357
65348W        W35948   7.575  41.939  12.039
65349W        W35949  10.519  32.951   4.185
65350W        W35950  31.502   0.554  14.087
65351W        W35951  13.875   6.634   0.390
65352W        W35952  32.061  32.170   3.437
65353W        W35953   6.960  37.683   2.135
65354W        W35954  11.274   4.222   1.054
65355W        W35955  41.558   5.034  13.143
65356W        W35956   6.230  22.159  13.381
65357W        W35957   6.972  16.095   1.920
65358W        W35958  29.099   7.974  13.517
65359W        W35959  21.604  34.989  12.055
65360W        W35960  17.192  37.841  13.863
65361W        W35961  33.644   8.595   0.881
65362W        W35962  19.273  16.738   0.762
65363W        W35963  44.539  26.046  12.842
65364W        W35964  23.710  40.682  10.764
65365W        W35965   9.951  19.186  13.052
65366W        W35966  22.709  13.142  10.475
65367W        W35967  25.791  11.228   0.536
65368W        W35968  33.348  29.974  13.648
65369W        W35969  36.433  27.049   1.643
65370W        W35970  43.886   3.305   1.830
65371W        W35971   9.455   1.339   1.661
65372W        W35972  39.519  32.357   0.357
65373W        W35973  31.598  26.307   3.989
65374W        W35974  39.633  25.119   0.435
65375W        W35975   5.179  17.922  14.015
65376W        W35976  37.085  41.473   2.739
65377W        W35977   6.451  38.441  14.985
65378W        W35978  31.430   8.366   1.222
65379W        W35979   4.765  30.544   4.567
65380W        W35980  27.272  26.082  12.458
65381W        W35981  36.864  29.478   2.669
65382W        W35982  15.634  25.005  14.297
65383W        W35983  23.548  21.804  11.087
65384W        W35984  24.167  31.233  12.842
65385W        W35985   4.859   2.858  12.241
65386W        W35986  34.441  21.294  12.462
65387W        W35987   7.214  13.885  14.371
65388W        W35988  17.678  22.512  12.533
65389W        W35989  19.740  21.201   3.666
65390W        W35990  32.756   3.936  12.890
65391W        W35991  24.562  21.343   2.717
65392W        W35992  24.750  31.884  12.876
65393W        W35993  18.536  20.157   4.773
65394W        W35994  31.978  36.380   2.070
65395W        W35995  27.392  37.599   2.300
65396W        W35996   5.280  11.698   2.945
65397W        W35997  31.876  22.526   2.236
65398W        W35998  22.126   0.702   1.906
65399W        W35999  12.404  35.175  14.063
65400W        W36000   9.807  33.585  13.796
65401W        W36001  40.131   8.336  12.933
65402W        W36002  20.951  18.725   3.375
65403W        W36003  16.342  19.941   2.769
65404W        W36004  17.271  22.711  12.808
65405W        W36005   1.456  26.959  14.978
65406W        W36006  13.841  29.906  11.157
65407W        W36007  39.773  28.022  10.369
65408W        W36008  42.354   0.644  11.880
65409W        W36009  38.797   9.290  11.850
65410W        W36010  34.537  19.239   0.501
65411W        W36011  33.100  33.274   4.312
65412W        W36012   3.931  17.256  13.267
65413W        W36013  17.233  27.483   2.650
65414W        W36014  13.311  31.226   2.605
65415W        W36015  37.042   6.750  12.671
65416W        W36016   2.613  13.249  13.460
65417W        W36017  27.765  40.104   0.770
65418W        W36018  32.079  26.651   3.144
65419W        W36019   8.142  13.563   2.787
65420W        W36020  19.491   3.499  13.508
65421W        W36021  40.040  28.459  14.849
65422W        W36022   3.654   9.684  11.201
65423W        W36023  11.851  17.983   1.945
65424W        W36024  18.321  31.875   4.207
65425W        W36025  30.942   7.131  11.241
65426W        W36026   2.274  22.945  10.504
65427W        W36027  22.497  29.014   4.114
65428W        W36028   6.426  25.722   2.167
65429W        W36029  44.354  32.088  13.986
65430W        W36030  42.880  30.808   2.236
65431W        W36031  42.070   8.238   3.561
65432W        W36032  18.167  14.571   2.800
65433W        W36033  38.457   7.295  13.543
65434W        W36034  19.003  26.423   3.163
65435W        W36035  23.500  22.026   3.930
65436W        W36036  15.806  18.731   2.403
65437W        W36037  43.925   0.905  13.019
65438W        W36038  37.447  16.570   3.474
65439W        W36039  27.023  12.828   2.852
65440W        W36040  43.557  26.333  11.252
65441W        W36041  26.008   1.622  11.999
65442W        W36042  11.478  35.871  11.089
65443W        W36043   2.500  17.165   1.918
65444W        W36044  19.173  27.956   1.421
65445W        W36045  16.448  24.385  12.134
65446W        W36046  20.921  34.290   2.808
65447W        W36047  15.110  24.446   1.798
65448W        W36048  11.864  13.203   3.175
65449W        W36049  40.997   7.174   0.405
65450W        W36050  42.112  24.003  13.461
65451W        W36051  43.004   0.690   3.624
65452W        W36052  43.882  37.474  11.415
65453W        W36053  33.592  13.264  11.590
65454W        W36054  17.990  12.072  10.899
65455W        W36055   5.888  29.418   3.609
65456W        W36056  25.593  42.486  14.870
65457W        W36057  14.268  40.998  12.231
65458W        W36058  30.356  23.915  10.867
65459W        W36059  37.777   8.644  11.501
65460W        W36060   9.124  15.802   2.399
65461W        W36061  22.181  22.692   2.168
65462W        W36062  42.461   3.666   0.196
65463W        W36063  16.319  42.873  14.366
65464W        W36064  25.383   6.950   3.327
65465W        W36065  44.944   6.628   1.452
65466W        W36066   1.793   0.835  14.601
65467W        W36067  21.569   5.196  11.842
65468W        W36068  31.459   1.575   0.238
65469W        W36069  22.827   4.720  11.606
65470W        W36070  36.150  19.177   0.244
65471W        W36071  34.919   1.835  14.794
65472W        W36072   1.164  33.092  11.671
65473W        W36073   6.291  40.497  13.280
65474W        W36074   1.946   8.571  13.917
65475W        W36075  38.696  10.852   1.443
65476W        W36076   3.765  11.116   4.662
65477W        W36077  33.341  20.704  11.180
65478W        W36078  25.103  35.512   2.742
65479W        W36079  41.263  37.249   3.626
65480W        W36080  14.765  26.497   3.235
65481W        W36081   4.023  31.181   2.627
65482W        W36082   1.764  32.978   4.741
65483W        W36083  23.247  39.374  12.631
65484W        W36084  29.923  31.902   2.619
65485W        W36085  41.577  31.616   0.407
65486W        W36086  30.575  19.148   3.238
65487W        W36087  18.814   1.153  12.146
65488W        W36088  28.124  32.544  11.468
65489W        W36089  32.302   8.317  12.487
65490W        W36090  12.382   6.935   1.320
65491W        W36091  44.474  16.269   0.802
65492W        W36092  42.319  36.071  11.090
65493W        W36093  23.174  13.621   4.602
65494W        W36094  16.941  33.308  10.500
65495W        W36095  24.104  11.848  10.973
65496W        W36096  38.164  19.772   4.111
65497W        W36097  39.448  38.524  12.927
65498W        W36098   2.850  25.416   3.294
65499W        W36099  28.949  38.787   3.142
65500W        W36100  13.387  37.135  12.447
65501W        W36101  25.455  15.801   4.596
65502W        W36102  40.960  20.680  12.481
65503W        W36103  29.672  39.451  12.276
65504W        W36104  33.946  11.948   3.687
65505W        W36105  11.257  24.694   1.352
65506W        W36106  33.109  17.810  14.014
65507W        W36107   3.441  38.075  13.977
65508W        W36108  31.624  39.308  14.974
65509W        W36109  14.061  33.000  11.804
65510W        W36110  42.740  39.807   0.409
65511W        W36111  30.549  11.584   0.001
65512W        W36112   0.523   8.692  12.984
65513W        W36113  18.327  43.473  14.075
65514W        W36114  42.115  30.425  12.641
65515W        W36115  39.815  40.523  11.580
65516W        W36116  24.283  33.832  14.850
65517W        W36117  24.868  29.487   4.375
65518W        W36118  39.801  25.996   2.230
65519W        W36119  33.964  10.614  13.417
65520W        W36120  24.940  17.032  12.997
65521W        W36121  38.854  14.425  14.959
65522W        W36122  38.286  31.303  10.892
65523W        W36123  14.164  21.519   1.825
65524W        W36124   3.408  21.539   4.229
65525W        W36125  28.483  36.894  14.724
65526W        W36126   4.488   8.078  12.110
65527W        W36127  13.135   6.130  10.766
65528W        W36128  37.881  16.560  14.483
65529W        W36129  14.595  42.916   3.656
65530W        W36130   7.805  40.832   2.273
65531W        W36131  30.137   0.650  12.084
65532W        W36132  23.684   1.863   0.680
65533W        W36133   9.386  21.197  12.168
65534W        W36134  12.901  27.350  12.144
65535W        W36135   3.228  17.186   1.457
65536W        W36136  21.477  19.046  14.402
65537W        W36137  35.957  42.524   1.355
65538W        W36138  10.841  16.276  12.362
65539W        W36139  29.435  28.510   3.993
65540W        W36140  24.673   9.145  10.667
65541W        W36141  15.188  13.217  12.864
65542W        W36142  41.579   6.977  13.782
65543W        W36143   9.731  25.018   2.130
65544W        W36144   6.586  24.611   3.631
65545W        W36145  31.915  37.146   1.474
65546W        W36146  16.242   8.616   0.134
65547W        W36147  32.018  33.392  13.852
65548W        W36148  17.671  31.930  14.011
65549W        W36149  27.833  40.444   2.526
65550W        W36150  40.064  16.890   1.525
65551W        W36151  22.415  36.938   1.865
65552W        W36152  37.540  31.812   0.849
65553W        W36153  41.259  13.822   0.224
65554W        W36154   6.195  17.142  14.545
65555W        W36155  15.094   6.160  13.786
65556W        W36156  34.382   9.072   4.924
65557W        W36157   6.182  17.664  13.381
65558W        W36158   4.915  40.112  14.122
65559W        W36159  34.857  18.313   4.117
65560W        W36160   6.736  38.531  11.629
65561W        W36161  33.998  35.895  14.878
65562W        W36162  42.048  16.890   4.185
65563W        W36163  20.922  44.077  14.537
65564W        W36164  43.313  42.335  12.065
65565W        W36165  10.857  24.478   2.557
65566W        W36166   1.323  35.927   2.665
65567W        W36167   0.894  25.419  11.662
65568W        W36168  32.591   1.309   3.518
65569W        W36169  28.184  11.788   4.674
65570W        W36170  11.591  44.906  14.500
65571W        W36171  19.303  32.142  11.141
65572W        W36172  14.826  11.089   1.826
65573W        W36173  34.831  38.380  10.639
65574W        W36174  39.883  32.419  12.361
65575W        W36175  35.381  44.097   3.620
65576W        W36176   9.775   5.090   4.959
65577W        W36177  32.119  29.985  13.854
65578W        W36178  43.440  24.744   0.306
65579W        W36179  35.218  13.743  11.119
65580W        W36180  26.096   0.174   0.375
65581W        W36181   6.849   8.926  13.420
65582W        W36182  31.848  19.105   0.953
65583W        W36183   9.879  41.668  13.967
65584W        W36184  43.390   0.813   4.694
65585W        W36185  37.927  30.299  11.247
65586W        W36186  28.185  13.802   4.050
65587W        W36187  35.471  40.870   4.144
65588W        W36188   0.263  14.623   4.855
65589W        W36189  25.951  22.286  11.363
65590W        W36190  42.292  16.701  13.835
65591W        W36191  13.949   8.675  11.727
65592W        W36192  21.555   6.334  13.776
65593W        W36193  12.519  19.806  12.297
65594W        W36194   9.874  25.533   3.254
65595W        W36195   4.572  37.658  10.223
65596W        W36196  26.661  35.883  11.551
65597W        W36197  18.607  36.290   4.573
65598W        W36198  41.059  24.553   0.503
65599W        W36199  21.131  17.937  13.474
65600W        W36200  43.454  31.389  11.646
65601W        W36201  20.086  39.613  13.967
65602W        W36202  11.325  11.708  13.033
65603W        W36203  11.705  15.880  12.071
65604W        W36204  42.308  23.750   0.293
65605W        W36205  22.926  30.451   0.761
65606W        W36206  23.531  17.715   3.668
65607W        W36207  41.454  15.058  14.448
65608W        W36208  40.625  35.533  13.701
65609W        W36209  35.986   4.809   2.856
65610W        W36210   3.873  17.798   1.421
65611W        W36211  20.190   1.677  11.576
65612W        W36212  26.936  16.216   2.378
65613W        W36213  40.281  31.253   4.341
65614W        W36214  23.878  27.022  13.961
65615W        W36215   4.000  37.951  14.815
65616W        W36216  28.162   7.267   2.391
65617W        W36217  11.689   6.856   3.364
65618W        W36218   0.000  40.796   1.152
65619W        W36219  25.138  36.639   2.199
65620W        W36220  18.573   5.617   4.728
65621W        W36221  22.330  37.533   4.913
65622W        W36222   7.312  44.938   3.676
65623W        W36223  40.077   6.187  14.381
65624W        W36224   7.843  10.689  12.323
65625W        W36225  42.423   8.099  14.938
65626W        W36226  33.041   6.955  13.952
65627W        W36227  10.357   1.398  11.136
65628W        W36228  26.234  26.553  11.080
65629W        W36229  23.168   8.087   2.623
65630W        W36230  16.618  44.251   3.900
65631W        W36231  36.048   4.031  10.772
65632W        W36232  33.589  39.274   9.804
65633W        W36233   9.377  42.539   2.892
65634W        W36234   0.394  24.933   2.364
65635W        W36235  18.524   4.037  10.755
65636W        W36236  43.177  19.753  13.840
65637W        W36237  35.829  31.807   2.676
65638W        W36238  31.549  39.685  14.599
65639W        W36239   2.957  34.437  13.850
65640W        W36240  21.533  37.373  14.169
65641W        W36241  17.998  39.971  12.631
65642W        W36242  26.105   6.930  11.598
65643W        W36243  27.872  42.232  10.824
65644W        W36244  25.489  29.042   4.250
65645W        W36245  31.955  37.524   4.591
65646W        W36246  36.905  38.343   0.584
65647W        W36247  23.185   1.047  14.779
65648W        W36248   9.654  34.997  13.876
65649W        W36249  16.140  39.034  11.906
65650W        W36250   9.001  33.398   1.757
65651W        W36251  13.820  35.168   0.875
65652W        W36252  30.317  20.713  14.906
65653W        W36253  15.129   5.715  11.487
65654W        W36254   2.747  22.649   3.804
65655W        W36255  20.126  37.387   4.137
65656W        W36256  23.173  27.497   2.298
65657W        W36257  30.674   0.243   4.330
65658W        W36258   9.351  23.020   3.694
65659W        W36259  40.804   8.962   0.035
65660W        W36260  29.055  23.155   0.768
65661W        W36261  35.650  42.808   0.220
65662W        W36262  40.346  21.732   1.162
65663W        W36263  44.837  34.993  13.170
65664W        W36264  24.220  38.405   2.750
65665W        W36265  19.701   4.304   0.459
65666W        W36266  31.339  37.086  12.631
65667W        W36267  12.406  15.600  14.854
65668W        W36268  18.786  38.130   4.180
65669W        W36269  44.823   2.262   0.166
65670W        W36270   4.299   0.526   3.051
65671W        W36271  12.654  41.988  13.726
65672W        W36272  28.604  27.036  10.429
65673W        W36273   1.944  29.010   4.587
65674W        W36274  39.915  42.811  12.034
65675W        W36275   0.742  10.063   5.118
65676W        W36276   7.425  13.282   2.351
65677W        W36277  29.827   7.236  13.531
65678W        W36278   7.638  19.137  11.648
65679W        W36279  33.170   6.760   3.724
65680W        W36280  42.098  10.944   0.967
65681W        W36281  13.144  21.757  14.426
65682W        W36282   5.186  39.279  13.966
65683W        W36283  37.786  20.256  13.076
65684W        W36284  24.150  16.010   3.697
65685W        W36285  37.859  21.245  11.195
65686W        W36286  33.607  13.598  11.991
65687W        W36287  13.252  28.505  13.508
65688W        W36288  29.115  44.531  10.517
65689W        W36289  12.253  30.022   3.223
65690W        W36290  31.580  27.421   3.256
65691W        W36291   6.835  27.641   4.571
65692W        W36292  42.274   0.533   2.406
65693W        W36293  34.373   5.416   1.432
65694W        W36294   8.638  43.251   1.921
65695W        W36295  12.285  39.226   0.923
65696W        W36296  21.473  21.290   3.699
65697W        W36297  39.361  44.316  11.547
65698W        W36298  11.071   6.705   2.790
65699W        W36299  18.272  11.844  12.638
65700W        W36300  42.891  18.115   2.724
65701W        W36301   9.120  41.570   2.794
65702W        W36302  17.599  29.959   5.005
65703W        W36303   0.701  31.138   1.427
65704W        W36304  32.412  38.786   4.920
65705W        W36305   7.853  15.040   4.152
65706W        W36306  27.340   3.994   1.673
65707W        W36307   5.296   6.131  12.126
65708W        W36308  41.047   8.666  13.553
65709W        W36309  21.408   5.613  13.816
65710W        W36310  30.417  11.046  11.725
65711W        W36311  27.532  14.650  13.933
65712W        W36312  29.096  15.123   1.781
65713W        W36313  38.535   4.210  13.375
65714W        W36314  18.564  22.549  12.011
65715W        W36315   3.846  42.358  11.989
65716W        W36316  10.297  26.848   5.137
65717W        W36317  43.095  38.564   3.482
65718W        W36318  38.388   3.314   1.230
65719W        W36319  15.024  35.066  12.054
65720W        W36320  28.599  40.717  14.053
65721W        W36321  13.083   4.461  14.961
65722W        W36322  25.903  43.824  10.317
65723W        W36323   3.172  12.753  11.717
65724W        W36324  33.666   4.337   4.132
65725W        W36325  11.398  21.530  10.596
65726W        W36326   2.751  16.225   1.351
65727W        W36327  14.319   8.246  14.308
65728W        W36328  29.788  44.387  12.073
65729W        W36329  33.066  42.301   3.592
65730W        W36330   6.196   0.298   0.428
65731W        W36331  21.625   8.270   2.724
65732W        W36332   7.712  38.256  11.653
65733W        W36333   2.915  42.428   2.202
65734W        W36334  43.442  42.021  10.773
65735W        W36335  33.379   4.548  13.400
65736W        W36336  29.162  37.167   2.261
65737W        W36337  12.040  36.344   3.272
65738W        W36338  25.571   3.969  14.546
65739W        W36339  10.213   7.274  10.639
65740W        W36340  41.008  28.263  12.558
65741W        W36341  34.466  17.780   1.368
65742W        W36342  19.938  33.252  11.874
65743W        W36343  15.214  36.879   2.429
65744W        W36344   3.987  22.550  12.817
65745W        W36345  35.275  39.987   0.263
65746W        W36346  43.848  28.983  14.368
65747W        W36347  27.497  28.416  14.816
65748W        W36348  44.804   8.155  12.354
65749W        W36349  16.125  33.685  13.753
65750W        W36350   8.233  18.619   1.324
65751W        W36351  11.161  28.962  14.378
65752W        W36352  38.982  30.261   4.247
65753W        W36353   4.357  24.215  14.716
65754W        W36354  35.075  14.802   1.801
65755W        W36355  42.795  16.462  11.429
65756W        W36356  21.021  10.833  11.468
65757W        W36357   3.215  35.520  11.181
65758W        W36358  43.347  24.530  11.561
65759W        W36359   9.768  37.831   3.233
65760W        W36360  32.527  28.010  10.876
65761W        W36361  26.739   6.610  14.827
65762W        W36362  20.159  13.683   1.788
65763W        W36363  42.886  23.395  10.217
65764W        W36364  28.678  27.899  12.074
65765W        W36365  37.864  31.658  10.758
65766W        W36366  37.767   6.778  12.082
65767W        W36367  43.497   8.426   3.729
65768W        W36368  23.067  26.245  14.364
65769W        W36369  30.794  31.535   2.780
65770W        W36370  19.648   5.667   4.060
65771W        W36371  31.537   1.315  13.395
65772W        W36372   7.858  41.416   0.308
65773W        W36373  31.448  41.420   4.704
65774W        W36374   0.430   0.288  14.003
65775W        W36375   8.675  22.102  12.546
65776W        W36376  13.678  31.946  14.138
65777W        W36377   8.393  10.363   0.502
65778W        W36378  16.806  31.729   2.306
65779W        W36379  18.318  20.603  11.186
65780W        W36380  12.150   7.992  11.839
65781W        W36381  30.750  43.073  13.454
65782W        W36382   9.871   2.585   1.393
65783W        W36383  15.686  11.683  13.458
65784W        W36384   8.000  20.103   4.057
65785W        W36385  41.786   6.125  13.808
65786W        W36386  38.104  29.720   4.513
65787W        W36387  15.464  25.462   4.411
65788W        W36388   9.063  38.506  14.237
65789W        W36389  41.108  18.181   4.370
65790W        W36390   1.530  16.592   0.190
65791W        W36391  12.105   1.072   2.409
65792W        W36392  13.148  36.813  11.010
65793W        W36393  32.776  27.531   2.135
65794W        W36394   3.808   8.237  10.610
65795W        W36395  28.005  25.758  10.605
65796W        W36396  41.267  25.943   2.111
65797W        W36397   7.333  11.446  12.608
65798W        W36398  30.572  41.490  12.261
65799W        W36399  30.866  22.677   3.797
65800W        W36400  25.882  32.420   0.545
65801W        W36401  27.714  24.913  14.428
65802W        W36402  31.829  30.615   2.925
65803W        W36403  39.365  36.084   1.241
65804W        W36404  15.359  34.091   1.806
65805W        W36405   9.261  44.899   4.018
65806W        W36406  10.809  41.794  14.277
65807W        W36407  12.198   4.890  12.068
65808W        W36408  17.742  15.134  12.047
65809W        W36409  30.497  44.302  12.832
65810W        W36410  27.911   6.302   2.372
65811W        W36411  39.859  20.597   1.735
65812W        W36412  26.168  18.301  11.136
65813W        W36413  44.802   9.041  10.612
65814W        W36414  11.855  35.254  13.617
65815W        W36415  10.624  18.698   1.735
65816W        W36416  22.449   1.296   0.259
65817W        W36417  40.228  25.731   0.823
65818W        W36418  18.159   8.960  14.329
65819W        W36419  15.008  19.579   1.347
65820W        W36420   6.739  38.258  13.491
65821W        W36421  43.559   4.522   5.473
65822W        W36422  37.352   2.896  12.607
65823W        W36423   4.828  31.118  13.114
65824W        W36424  28.939  40.749   1.848
65825W        W36425  11.672  41.150  11.609
65826W        W36426  40.978  17.500  10.812
65827W        W36427  12.135  43.836  11.487
65828W        W36428  25.491  33.518   3.324
65829W        W36429  25.593  19.809   4.065
65830W        W36430   2.056  16.607   0.304
65831W        W36431  24.472  42.850  13.465
65832W        W36432  20.105  18.734   4.054
65833W        W36433  24.939  41.829   4.492
65834W        W36434  10.395  43.535   2.687
65835W        W36435  24.185  12.387   3.562
65836W        W36436  22.124  20.890  11.535
65837W        W36437  32.323  38.082  11.451
65838W        W36438   7.246  17.746  14.652
65839W        W36439  40.392  14.219  12.843
65840W        W36440   0.173  27.043  14.948
65841W        W36441  12.978   0.897  14.172
65842W        W36442  30.932  25.662  14.268
65843W        W36443  32.079  32.385  14.040
65844W        W36444   4.999  17.276   1.700
65845W        W36445  26.409  11.885   0.258
65846W        W36446  19.325   4.242   1.305
65847W        W36447  32.378  14.093  14.197
65848W        W36448  14.859   9.829   2.690
65849W        W36449  13.918  12.354  14.347
65850W        W36450  27.604  31.901  14.586
65851W        W36451  14.221  40.793  11.290
65852W        W36452  32.907   9.128   2.267
65853W        W36453  35.615   6.648  10.913
65854W        W36454  28.540  13.095   3.773
65855W        W36455  34.495  29.939   1.396
65856W        W36456  11.726   4.934   0.410
65857W        W36457  31.958  37.343   3.635
65858W        W36458  29.208  11.353   4.031
65859W        W36459  20.222  19.840   2.680
65860W        W36460  12.753  40.516  13.925
65861W        W36461  13.451  37.012  13.289
65862W        W36462  17.038   6.889   2.640
65863W        W36463  40.824  33.032   1.412
65864W        W36464   2.403  36.406   4.572
65865W        W36465   4.974  22.057   4.552
65866W        W36466  37.355  35.370   0.060
65867W        W36467  14.884  25.665   2.261
65868W        W36468  11.362   6.118  14.862
65869W        W36469  29.874  18.786   2.240
65870W        W36470   0.050  30.584   4.024
65871W        W36471  26.941  44.033  10.737
65872W        W36472  26.994  23.055  12.125
65873W        W36473  30.496  42.963   0.644
65874W        W36474  34.846  21.324   3.206
65875W        W36475   0.707  16.099   2.257
65876W        W36476  17.589  16.195   1.696
65877W        W36477   7.755  41.071   2.731
65878W        W36478  36.159  42.403  13.957
65879W        W36479   9.607  43.660  13.920
65880W        W36480  43.859  33.196   0.809
65881W        W36481  14.576  38.773   0.815
65882W        W36482   5.693  20.188  12.451
65883W        W36483  40.808  40.909   3.755
65884W        W36484  42.818  16.113  12.249
65885W        W36485  12.630  39.650   2.619
65886W        W36486  18.659   5.677  10.007
65887W        W36487  44.973  36.846  11.790
65888W        W36488  25.611  14.736   3.696
65889W        W36489  23.805  16.672  11.193
65890W        W36490   0.776  21.722  11.235
65891W        W36491  32.568  27.549   0.021
65892W        W36492  15.103   1.516  13.931
65893W        W36493   1.591  27.709  12.470
65894W        W36494  37.450   1.997  14.910
65895W        W36495  39.922  24.199  14.231
65896W        W36496  42.929  30.711   1.364
65897W        W36497   4.255  41.477   0.470
65898W        W36498   4.830  12.758  10.147
65899W        W36499   6.251  43.737   2.796
65900W        W36500  20.451  30.554  14.951
65901W        W36501  23.719   7.867   1.427
65902W        W36502  18.788  25.898   3.889
65903W        W36503   6.778   1.421   1.815
65904W        W36504  31.414  24.812   0.128
65905W        W36505  32.938   5.492   0.468
65906W        W36506   4.023   1.847   1.951
65907W        W36507   1.167  26.237  12.504
65908W        W36508  24.756  20.004   1.797
65909W        W36509  40.027  31.013  10.472
65910W        W36510  27.916  38.589   1.564
65911W        W36511  39.586  26.047  11.516
65912W        W36512  39.824  13.633  11.890
65913W        W36513  24.016   4.098   4.562
65914W        W36514   6.393  35.625   1.721
65915W        W36515  12.157  41.327   4.146
65916W        W36516  39.588  29.322   2.750
65917W        W36517  30.640   0.328  14.563
65918W        W36518  17.277  19.587   0.316
65919W        W36519  21.512  34.901   0.287
65920W        W36520  11.853  39.476  13.579
65921W        W36521   1.970  24.997   0.001
65922W        W36522  32.644   4.443  12.920
65923W        W36523   6.715  41.838   2.301
65924W        W36524  16.693  37.079  10.905
65925W        W36525  44.530   7.304  11.287
65926W        W36526  26.090   5.137  14.759
65927W        W36527  27.317  39.018   2.329
65928W        W36528  29.421   3.616   5.045
65929W        W36529   6.461  17.628   3.688
65930W        W36530   2.845  31.398   4.999
65931W        W36531  33.011  37.748  12.561
65932W        W36532  21.914  37.502   2.544
65933W        W36533  22.506  29.033  11.090
65934W        W36534  29.478   7.294   3.807
65935W        W36535  25.457  38.973  13.594
65936W        W36536  31.562   7.157   3.690
65937W        W36537  21.229   9.506  11.527
65938W        W36538   1.988   8.514  11.160
65939W        W36539   9.307  29.128   0.448
65940W        W36540  15.523  36.460   0.901
65941W        W36541  20.480   8.991  11.017
65942W        W36542   3.234  39.237   1.829
65943W        W36543  15.075  12.888   5.101
65944W        W36544  22.777  30.211   4.821
65945W        W36545  38.829  39.636   4.188
65946W        W36546   8.272  28.494  11.899
65947W        W36547  24.161  37.161  13.165
65948W        W36548   1.342  21.118  13.858
65949W        W36549  26.601  34.098   1.217
65950W        W36550  32.833  34.911   0.867
65951W        W36551   4.135  29.576   2.014
65952W        W36552  10.653  11.657  13.993
65953W        W36553  33.990   9.854  12.285
65954W        W36554  36.102  11.504  10.688
65955W        W36555   1.496  34.656   9.892
65956W        W36556   7.962  41.200   4.980
65957W        W36557  32.663   7.940   3.224
65958W        W36558  42.359  29.981  14.926
65959W        W36559  35.042   8.419  11.172
65960W        W36560  33.054  22.550  13.078
65961W        W36561  23.920  33.327  10.726
65962W        W36562  33.828  30.500   1.869
65963W        W36563  28.135  22.793   3.318
65964W        W36564   3.777  20.684   2.497
65965W        W36565   5.348  22.499  13.429
65966W        W36566   2.685   6.022   1.253
65967W        W36567  31.837   2.026   3.314
65968W        W36568  23.499  31.685   2.394
65969W        W36569  39.817  41.420  14.546
65970W        W36570  36.336  22.017   1.830
65971W        W36571  42.358   8.932   3.686
65972W        W36572  34.612  39.302   1.892
65973W        W36573  31.679   9.309  11.228
65974W        W36574  36.373  28.683  10.481
65975W        W36575  37.677  24.779   4.168
65976W        W36576  10.702   8.539  12.822
65977W        W36577  15.653  31.164   4.197
65978W        W36578  18.030   4.860   2.080
65979W        W36579   7.030  13.118   4.139
65980W        W36580  33.619  42.457   1.925
65981W        W36581  35.626  12.556   3.723
65982W        W36582  10.544  27.951   4.756
65983W        W36583   6.811  14.991   0.609
65984W        W36584  16.378   4.822  14.330
65985W        W36585   6.205  41.349  13.034
65986W        W36586   6.356  30.179   1.307
65987W        W36587  33.127  41.721   1.208
65988W        W36588  23.659  29.447  10.414
65989W        W36589  38.393  30.987  13.159
65990W        W36590  31.276   8.641  11.975
65991W        W36591  25.457  40.948   1.323
65992W        W36592   1.250   2.985   2.238
65993W        W36593  17.556  15.332   1.748
65994W        W36594  37.422   2.835  11.434
65995W        W36595  34.911  30.138   3.303
65996W        W36596  10.733  17.636  14.663
65997W        W36597  15.082  42.757  14.884
65998W        W36598  22.082   4.953  13.813
65999W        W36599  30.164  12.283  13.897
66000W        W36600  10.296  10.979   1.423
66001W        W36601   3.792  44.289   0.238
66002W        W36602  39.915   7.246  13.437
66003W        W36603  42.033  27.193   2.160
66004W        W36604  44.839   2.200  10.606
66005W        W36605  21.323   2.055  13.913
66006W        W36606   2.182  42.822   2.660
66007W        W36607  35.399  25.078  13.997
66008W        W36608  31.992  26.443   1.718
66009W        W36609  32.974  37.194  14.379
66010W        W36610   7.200  40.665   0.628
66011W        W36611  31.461  30.302  11.854
66012W        W36612  41.246  12.893   4.732
66013W        W36613  18.536  24.790  12.901
66014W        W36614  11.289   6.317  12.503
66015W        W36615  26.983  11.798   3.714
66016W        W36616   0.756  25.003   3.295
66017W        W36617   6.542  31.363   2.513
66018W        W36618  25.538  13.018   0.340
66019W        W36619  39.460  42.321   2.310
66020W        W36620   8.392  40.955  13.946
66021W        W36621  30.378  23.003  10.656
66022W        W36622  33.048  32.365   0.006
66023W        W36623   8.080  24.011  14.883
66024W        W36624  37.608  26.580   2.920
66025W        W36625  13.608  20.215  10.624
66026W        W36626  12.257  18.129   4.583
66027W        W36627  25.995  25.112   4.227
66028W        W36628   3.352  12.160   2.675
66029W        W36629  30.934  19.041  11.139
66030W        W36630   8.803   6.276   3.045
66031W        W36631  40.786  37.400  10.783
66032W        W36632   3.041  13.314  10.671
66033W        W36633  44.340  19.065  11.928
66034W        W36634  40.330  21.354   4.543
66035W        W36635  16.641   2.880  13.483
66036W        W36636   4.278  27.950  13.357
66037W        W36637   6.795  13.072   0.724
66038W        W36638  21.309  18.083   1.811
66039W        W36639  16.905  22.216   1.608
66040W        W36640  40.242  20.820   0.446
66041W        W36641   8.182  40.327   1.421
66042W        W36642  43.733   7.455   1.411
66043W        W36643   6.593   3.730   3.109
66044W        W36644  13.705  15.203  13.924
66045W        W36645  23.612  28.470  12.573
66046W        W36646  28.046  29.412   9.898
66047W        W36647  16.660   0.614  14.119
66048W        W36648  23.170  26.921   0.365
66049W        W36649   6.006  18.116  13.256
66050W        W36650  28.571  14.622  14.534
66051W        W36651  31.935   4.408   1.623
66052W        W36652  42.523  13.307  13.000
66053W        W36653  39.404  25.560  13.495
66054W        W36654  35.360  37.791   0.844
66055W        W36655  33.645  21.965   1.940
66056W        W36656  13.312  41.050  12.529
66057W        W36657   0.090  44.058  13.472
66058W        W36658  21.594  21.307  13.419
66059W        W36659   7.979  38.316   4.855
66060W        W36660  38.860  39.731  10.399
66061W        W36661  17.019  20.673  10.717
66062W        W36662  19.206  32.958   0.022
66063W        W36663  30.066  26.429  12.128
66064W        W36664   8.125  25.502  11.995
66065W        W36665   6.655   1.184   3.056
66066W        W36666  40.118   3.313  13.892
66067W        W36667  25.535   2.022   1.741
66068W        W36668  35.954  33.773   3.619
66069W        W36669  42.219  39.367  13.520
66070W        W36670  43.877   0.686   4.815
66071W        W36671  24.437  23.570  11.717
66072W        W36672   2.854  32.890   3.179
66073W        W36673  23.552  26.919  10.826
66074W        W36674  20.482  28.703   0.378
66075W        W36675  10.376  18.723   1.257
66076W        W36676  17.181  15.899  13.361
66077W        W36677  35.958  38.334   1.741
66078W        W36678  21.844   2.947  12.351
66079W        W36679  29.685  12.699   4.198
66080W        W36680  38.032   5.514   0.462
66081W        W36681  20.528  35.058   1.224
66082W        W36682  37.635  22.425  14.392
66083W        W36683  22.545  10.195   2.132
66084W        W36684   9.130  22.491  14.928
66085W        W36685   7.958   0.633  12.468
66086W        W36686  25.998  30.313  13.073
66087W        W36687  12.628   8.916  14.073
66088W        W36688  44.180  26.191  13.501
66089W        W36689  15.226  37.046  14.772
66090W        W36690  43.853  12.105   3.048
66091W        W36691   5.495  19.673  13.497
66092W        W36692  43.033  24.953  10.991
66093W        W36693  10.815  11.938   2.292
66094W        W36694  43.622   5.367  11.939
66095W        W36695  19.849  40.592  11.073
66096W        W36696  25.181  26.768   3.192
66097W        W36697  14.142  11.757   1.218
66098W        W36698  30.652  29.667  14.004
66099W        W36699  42.717  30.137   4.297
66100W        W36700  12.619  37.560  12.390
66101W        W36701  33.647  39.486  13.464
66102W        W36702  16.878   8.291  11.140
66103W        W36703  27.735  40.854  14.909
66104W        W36704  26.184  29.024  13.433
66105W        W36705  39.260  10.781   0.529
66106W        W36706  38.871  42.207  14.992
66107W        W36707  41.576  40.390   2.175
66108W        W36708   6.933  21.994   0.740
66109W        W36709  33.434   6.644   1.934
66110W        W36710  34.128   8.909  11.212
66111W        W36711  20.242  17.643   1.159
66112W        W36712  31.595  43.678   3.129
66113W        W36713  13.266  30.862  13.937
66114W        W36714  39.730   8.846   0.298
66115W        W36715  44.365  39.459  12.516
66116W        W36716  43.326   3.623  13.657
66117W        W36717  38.871  30.107  11.476
66118W        W36718   5.419  18.101   4.341
66119W        W36719   5.748  10.429  11.235
66120W        W36720  31.080  11.242   4.225
66121W        W36721   0.754  41.834  11.446
66122W        W36722   0.638   0.474  10.379
66123W        W36723  41.842   6.973  12.421
66124W        W36724  31.023   4.779  13.585
66125W        W36725  27.949  22.532   3.820
66126W        W36726  35.073  11.103   4.502
66127W        W36727  22.260  37.157   1.367
66128W        W36728  28.522   0.640   4.636
66129W        W36729   7.238  39.424  13.811
66130W        W36730  41.019  39.547  12.941
66131W        W36731  30.088  19.351  14.571
66132W        W36732  13.266   1.651  13.122
66133W        W36733  26.083  30.686  12.738
66134W        W36734  23.030  40.417   4.832
66135W        W36735  25.060  37.774  11.182
66136W        W36736  36.115  19.573  10.521
66137W        W36737  21.528  18.020  13.806
66138W        W36738  34.723   7.096  10.627
66139W        W36739  27.956  29.595   0.525
66140W        W36740  41.136   7.409  12.793
66141W        W36741  19.567  15.901  14.125
66142W        W36742  13.283  24.351   1.404
66143W        W36743  17.411   0.144   2.845
66144W        W36744  22.636   8.595  10.702
66145W        W36745   9.605  21.634   4.923
66146W        W36746  19.685  11.136   3.573
66147W        W36747  39.988   2.643  14.443
66148W        W36748  20.498  14.389   2.766
66149W        W36749  27.659   4.693   4.033
66150W        W36750  12.121  42.890  11.922
66151W        W36751  39.537  13.011   0.040
66152W        W36752  15.395   2.774   0.757
66153W        W36753  29.465  21.244   5.056
66154W        W36754  26.050  16.983   3.623
66155W        W36755   5.313  19.250  12.787
66156W        W36756  39.084  19.095  13.702
66157W        W36757  23.998  14.115   5.014
66158W        W36758  40.412   4.552  13.915
66159W        W36759  36.845  36.767  13.547
66160W        W36760  11.084   8.876  14.275
66161W        W36761   4.785  35.919  14.183
66162W        W36762  22.071   0.148   3.764
66163W        W36763   6.615   8.608   3.607
66164W        W36764   2.431  23.500   4.976
66165W        W36765  34.046  18.577   2.650
66166W        W36766   9.447  23.912   4.979
66167W        W36767  37.823   1.246   2.637
66168W        W36768  33.826  16.723  13.188
66169W        W36769  37.481  10.606   2.726
66170W        W36770  36.475  19.036  11.031
66171W        W36771  24.606  39.020  14.455
66172W        W36772  43.351  38.911  12.253
66173W        W36773  28.789  15.402   4.050
66174W        W36774  32.545  19.983  13.812
66175W        W36775  23.044  23.763   4.185
66176W        W36776   3.760   1.405  12.825
66177W        W36777  41.887  42.780   2.664
66178W        W36778   7.738   6.552  10.163
66179W        W36779  19.144   1.433  14.059
66180W        W36780  34.930  18.317  10.352
66181W        W36781  13.481  32.816  13.988
66182W        W36782  33.551  10.145  12.033
66183W        W36783  38.748  27.697   4.100
66184W        W36784  27.428  17.486  12.127
66185W        W36785  36.804  32.982  11.065
66186W        W36786  26.209  31.495   1.346
66187W        W36787  38.689  12.383   0.494
66188W        W36788   8.260  30.610  11.960
66189W        W36789   0.233  21.265  14.759
66190W        W36790  28.921  32.982   1.252
66191W        W36791  33.338  13.750  11.584
66192W        W36792   9.225  42.985  13.369
66193W        W36793  33.000  21.663  13.933
66194W        W36794  25.641  21.660  14.033
66195W        W36795  20.996  11.778   3.593
66196W        W36796  33.853  18.767  12.742
66197W        W36797  27.107  36.145  11.581
66198W        W36798  21.554   4.940   1.754
66199W        W36799  22.658   6.147   0.686
66200W        W36800  21.535  14.055   1.798
66201W        W36801  17.695   2.471  12.552
66202W        W36802  13.323  14.182  14.942
66203W        W36803  31.488  29.208   2.859
66204W        W36804  14.070  24.997   2.670
66205W        W36805   3.485  11.920   4.447
66206W        W36806  29.983  33.305   0.721
66207W        W36807  43.334  17.714  12.333
66208W        W36808  36.754  25.713   2.375
66209W        W36809  14.361  40.057  13.835
66210W        W36810  40.881  36.528   3.108
66211W        W36811   4.374  16.641   3.231
66212W        W36812   4.670   1.117  14.329
66213W        W36813  18.502   0.002   3.234
66214W        W36814   7.120  22.087  12.997
66215W        W36815  40.146  35.129  14.512
66216W        W36816  40.126  24.617  14.524
66217W        W36817  27.511  13.837   4.615
66218W        W36818   6.859  25.219  10.731
66219W        W36819  35.649  16.847   3.174
66220W        W36820  23.911  24.086   2.191
66221W        W36821  27.497  40.758  12.387
66222W        W36822  41.542   2.482  13.996
66223W        W36823   9.325  13.139  11.666
66224W        W36824  42.447  23.502  12.848
66225W        W36825  30.925  31.620  14.401
66226W        W36826  24.708  27.065  11.512
66227W        W36827  39.842  36.795   0.324
66228W        W36828  23.268  29.638  14.447
66229W        W36829  35.048  12.754  12.037
66230W        W36830   0.697  10.723   0.508
66231W        W36831  22.034  43.253   3.162
66232W        W36832   8.060   5.321  12.433
66233W        W36833  14.354  22.788   2.765
66234W        W36834  31.034  13.602  13.235
66235W        W36835  32.280  17.719  14.343
66236W        W36836   5.431  12.626   4.635
66237W        W36837   6.758  10.234   3.159
66238W        W36838  44.659   4.445  14.898
66239W        W36839   3.490  16.823  13.543
66240W        W36840  22.071  32.894  14.399
66241W        W36841  36.341   9.908  12.547
66242W        W36842  24.977  29.008   2.359
66243W        W36843  26.711  42.021  11.964
66244W        W36844  44.573  44.177   3.238
66245W        W36845  25.719  23.672  14.935
66246W        W36846   6.383  31.048   1.510
66247W        W36847  35.596  18.535  14.915
66248W        W36848  17.854  19.984  13.967
66249W        W36849  28.763  23.639   4.216
66250W        W36850  39.771  10.417  13.942
66251W        W36851  30.583   3.935   2.819
66252W        W36852  34.414  37.393  13.913
66253W        W36853   9.647  14.996   1.381
66254W        W36854  19.344  12.809   4.055
66255W        W36855  15.687  22.182   0.656
66256W        W36856  40.881  16.609  10.536
66257W        W36857  34.510  30.497  13.367
66258W        W36858  34.779  35.756  11.151
66259W        W36859  36.498  18.229  11.540
66260W        W36860  15.322  37.105  12.962
66261W        W36861   5.199  21.099  10.692
66262W        W36862  28.154   0.558  11.203
66263W        W36863   6.844  22.273   3.381
66264W        W36864  18.497  26.752  10.854
66265W        W36865  26.069  39.983   3.606
66266W        W36866  21.067  38.593   0.840
66267W        W36867  37.440  11.389  13.996
66268W        W36868   1.750  23.591   4.866
66269W        W36869   1.292  24.375   4.358
66270W        W36870  13.860  21.550   0.524
66271W        W36871  32.497  29.226  13.950
66272W        W36872   7.753  27.152  12.002
66273W        W36873  31.632  34.652  10.853
66274W        W36874   3.383  17.545  12.426
66275W        W36875  14.795  27.374  13.927
66276W        W36876  16.042  25.436  14.956
66277W        W36877  30.283  44.217  11.417
66278W        W36878  19.618  31.696   2.954
66279W        W36879   4.017  36.108   2.251
66280W        W36880  22.992  44.948  14.376
66281W        W36881  44.759  19.299   1.832
66282W        W36882  37.513  38.462  12.980
66283W        W36883  33.144  15.154   3.328
66284W        W36884  33.563  34.200   2.270
66285W        W36885  17.701   4.391  12.797
66286W        W36886  18.338   6.820   3.086
66287W        W36887   5.203  40.519  14.341
66288W        W36888  29.588   3.209   1.769
66289W        W36889  20.577  42.235   1.379
66290W        W36890   1.781  31.608   0.407
66291W        W36891  15.080  18.679  10.631
66292W        W36892   2.479  20.077  11.610
66293W        W36893  15.575   8.075   0.208
66294W        W36894  23.613  17.671   4.193
66295W        W36895  18.024  40.909   4.907
66296W        W36896   3.414  37.062  11.923
66297W        W36897  36.665  36.933  12.834
66298W        W36898  29.112  19.286   3.261
66299W        W36899  20.291  38.951  12.502
66300W        W36900  25.732  16.291   1.677
66301W        W36901  26.340   1.456  14.991
66302W        W36902   0.542  11.963  11.415
66303W        W36903  41.466  23.711  13.905
66304W        W36904  29.700  19.884  12.715
66305W        W36905  44.843  14.397  11.279
66306W        W36906  35.018  16.871   2.717
66307W        W36907  28.431  24.666   4.014
66308W        W36908  18.838  37.437  14.331
66309W        W36909   7.648  30.517  11.124
66310W        W36910   9.939  40.817  12.877
66311W        W36911  20.368  38.420   2.283
66312W        W36912  16.637  25.557  12.485
66313W        W36913  37.118  25.616   3.330
66314W        W36914  21.075  16.133  13.105
66315W        W36915  44.961  44.718   1.506
66316W        W36916  37.411  23.048  10.449
66317W        W36917  18.706  12.434  10.291
66318W        W36918  41.461   0.265  11.895
66319W        W36919  36.262  21.092   3.549
66320W        W36920  20.746   9.384   4.623
66321W        W36921  24.705  31.093   2.236
66322W        W36922   7.212  12.691   3.869
66323W        W36923  20.677  30.979   0.176
66324W        W36924  11.976  17.997   5.198
66325W        W36925  25.082  18.720  11.417
66326W        W36926   3.419  26.787  11.362
66327W        W36927  29.916  24.724  12.173
66328W        W36928  29.941  30.421  13.015
66329W        W36929   8.425  13.252  13.556
66330W        W36930  25.005  23.287   0.333
66331W        W36931  29.262  43.594  14.810
66332W        W36932  21.732  22.740  10.493
66333W        W36933  28.423   1.793   1.693
66334W        W36934  32.859  32.014  12.909
66335W        W36935  28.235  37.793   1.923
66336W        W36936  17.689  18.217   2.164
66337W        W36937  27.080  29.593   1.026
66338W        W36938  39.060  38.935  13.993
66339W        W36939  43.497  38.354  13.959
66340W        W36940  28.274  24.607   1.180
66341W        W36941  18.798   7.823  14.353
66342W        W36942  16.231  31.429  12.350
66343W        W36943  33.516  36.071  13.870
66344W        W36944  42.572  11.173   4.097
66345W        W36945  16.995   9.658  13.270
66346W        W36946  22.666  16.733   2.629
66347W        W36947  27.647   7.154   2.418
66348W        W36948   3.005  43.934  14.730
66349W        W36949  28.175  40.219   0.469
66350W        W36950  13.630  16.454  12.180
66351W        W36951  11.043  35.605  11.189
66352W        W36952   0.524  27.749  11.357
66353W        W36953  43.808   0.462   1.223
66354W        W36954   5.049  16.570   2.116
66355W        W36955   3.631   9.173   2.839
66356W        W36956  44.282  41.500  11.044
66357W        W36957  23.582  16.035  11.084
66358W        W36958   1.171  28.153   1.205
66359W        W36959  23.247  29.722   4.902
66360W        W36960  14.594  21.580  14.465
66361W        W36961  25.475   8.316   4.039
66362W        W36962  13.729  22.906   0.771
66363W        W36963   4.836   0.978   4.204
66364W        W36964   1.758   2.839   2.221
66365W        W36965  10.628  34.995   4.146
66366W        W36966   0.200  42.921  10.465
66367W        W36967   5.944  40.275   1.404
66368W        W36968  24.290  27.841  14.834
66369W        W36969  23.423  10.983   3.661
66370W        W36970  34.793  15.730   2.011
66371W        W36971  14.157   7.755   3.121
66372W        W36972  39.368  32.196   3.133
66373W        W36973  32.991  28.024  10.627
66374W        W36974  37.642  31.514  14.808
66375W        W36975  42.830   2.463  11.599
66376W        W36976  36.871  15.332   3.715
66377W        W36977   9.942  14.353   0.287
66378W        W36978  19.959   0.893  13.421
66379W        W36979  30.227  31.823  11.594
66380W        W36980  36.852  14.301   4.298
66381W        W36981  17.606  31.589  14.918
66382W        W36982  13.075   7.158  13.789
66383W        W36983  22.564  41.735   4.135
66384W        W36984   6.747  27.411  13.829
66385W        W36985  40.296   3.871   2.615
66386W        W36986   8.298  27.700  13.838
66387W        W36987  18.549  42.955   3.148
66388W        W36988  27.881  30.153  14.816
66389W        W36989  40.893  14.262   4.110
66390W        W36990  37.725  27.766  14.066
66391W        W36991  33.114  43.979  13.058
66392W        W36992  20.739  42.276  14.950
66393W        W36993  10.243  38.394   1.307
66394W        W36994  31.476  36.155   4.331
66395W        W36995  39.298  44.938  13.034
66396W        W36996  19.834   6.130   3.955
66397W        W36997   0.055   9.345  13.790
66398W        W36998  34.568   3.805  14.684
66399W        W36999  28.723  26.017   4.042
66400W        W37000   3.626  12.349  10.493
66401W        W37001  36.757   3.955   3.600
66402W        W37002   7.681  22.556  14.091
66403W        W37003  15.737   0.781   1.294
66404W        W37004  21.226  44.586  11.879
66405W        W37005  11.899  13.858   3.727
66406W        W37006  28.070  26.195  13.845
66407W        W37007   6.307  33.980  11.734
66408W        W37008  29.110  24.690   1.804
66409W        W37009  32.144  39.996   3.710
66410W        W37010   5.008  44.436   3.811
66411W        W37011   6.117  27.874  12.161
66412W        W37012  26.097  28.736  11.136
66413W        W37013  27.183   3.732  11.624
66414W        W37014  12.781  33.612  11.124
66415W        W37015   5.177  32.130   0.272
66416W        W37016  36.142   6.941   4.288
66417W        W37017  32.514  23.664  11.105
66418W        W37018  19.220  28.093   4.282
66419W        W37019  31.396  37.375   2.886
66420W        W37020  22.537  10.880  10.773
66421W        W37021  32.200  27.544  13.983
66422W        W37022   9.095   9.332  11.642
66423W        W37023  36.757  32.516   2.128
66424W        W37024  25.387  24.235  14.360
66425W        W37025  17.145  32.654  11.937
66426W        W37026  27.790  32.143   0.974
66427W        W37027  18.554  35.265   2.267
66428W        W37028  28.455  35.544  12.858
66429W        W37029   4.790  12.191  13.535
66430W        W37030  22.251  44.334   3.636
66431W        W37031  39.230  36.916  14.718
66432W        W37032   8.062  25.051  13.599
66433W        W37033  11.684  15.077   1.465
66434W        W37034  18.143   7.036  12.287
66435W        W37035  12.231  21.053   2.751
66436W        W37036  22.751   9.787  13.291
66437W        W37037   7.269  30.303  12.425
66438W        W37038  16.098  33.518   1.872
66439W        W37039  13.154  43.424   3.139
66440W        W37040  20.169  11.330   4.385
66441W        W37041  26.976  28.137   4.511
66442W        W37042  31.567   3.043   3.110
66443W        W37043  40.422  21.134   2.901
66444W        W37044  33.597   9.232   3.846
66445W        W37045  40.968  36.897  13.905
66446W        W37046  21.759  11.536  12.108
66447W        W37047  43.261  44.198   2.325
66448W        W37048  30.204  15.578  12.797
66449W        W37049  23.308  22.113   4.803
66450W        W37050  31.559  13.457  11.589
66451W        W37051  31.650  24.902   0.605
66452W        W37052  15.137  24.282  13.976
66453W        W37053  40.878  21.087   3.145
66454W        W37054  20.543   9.703   1.116
66455W        W37055  32.877  32.189  14.528
66456W        W37056  44.271   6.314  12.550
66457W        W37057  24.468  19.340   0.293
66458W        W37058  34.894  22.445  12.039
66459W        W37059  19.465   3.272   4.229
66460W        W37060  37.996  21.569   4.534
66461W        W37061  24.760  41.835   2.396
66462W        W37062  24.683   1.288  14.824
66463W        W37063   2.332  31.194  13.755
66464W        W37064  34.127  44.119   0.437
66465W        W37065  21.484  37.787  11.651
66466W        W37066  41.220  21.841   3.792
66467W        W37067  43.205  36.584   1.280
66468W        W37068  27.182   6.111   0.333
66469W        W37069  24.646   3.406   2.519
66470W        W37070  12.206  11.285   4.790
66471W        W37071  34.288  36.894   3.573
66472W        W37072   3.444  11.557  11.983
66473W        W37073  23.179  12.368   2.727
66474W        W37074  22.056  33.281  11.183
66475W        W37075   5.439  44.521  13.396
66476W        W37076  31.025  44.880   4.246
66477W        W37077   1.762  12.152  13.999
66478W        W37078  12.847  28.475   3.322
66479W        W37079  29.715  37.403  11.429
66480W        W37080  43.989  18.182  11.894
66481W        W37081  44.798  44.298   1.741
66482W        W37082   8.651   0.910  11.966
66483W        W37083   5.383  15.125  14.021
66484W        W37084  42.996  12.192  11.579
66485W        W37085   2.889  35.940  11.117
66486W        W37086   7.156  19.999   2.232
66487W        W37087  22.442  22.089  11.872
66488W        W37088  38.930  32.151   4.550
66489W        W37089  36.929  36.423  13.989
66490W        W37090  27.926  13.662   0.816
66491W        W37091   4.985  28.515   1.792
66492W        W37092  22.036   5.477  11.976
66493W        W37093  18.148  25.263  10.682
66494W        W37094  39.464  32.039  11.819
66495W        W37095  35.153  34.098   4.712
66496W        W37096  35.343   6.097  14.009
66497W        W37097  34.355  20.070  11.233
66498W        W37098   3.948  20.106  13.068
66499W        W37099  22.631  15.558   0.064
66500W        W37100  28.126  23.877  13.632
66501W        W37101  39.810  15.564  11.534
66502W        W37102  15.092  32.099  13.934
66503W        W37103   4.898  29.526   0.041
66504W        W37104   0.883  30.699  10.660
66505W        W37105  37.233  30.551  12.003
66506W        W37106  35.460  44.412   4.281
66507W        W37107  21.168  22.030  14.819
66508W        W37108  29.054  23.145   4.300
66509W        W37109  41.676  13.712  11.074
66510W        W37110  18.751  13.475   1.011
66511W        W37111  39.144   4.119   1.488
66512W        W37112  10.393  38.542  12.330
66513W        W37113  28.630  15.803   3.161
66514W        W37114   8.425  38.998  13.759
66515W        W37115  28.811   4.390  12.032
66516W        W37116  41.576  16.683   0.003
66517W        W37117  20.931  41.319   4.456
66518W        W37118  34.932  37.148   0.816
66519W        W37119  23.943  37.423  12.077
66520W        W37120  22.817  33.461   1.391
66521W        W37121  16.847  36.880  11.849
66522W        W37122  27.407  13.607   0.899
66523W        W37123   5.635  20.029   1.303
66524W        W37124   1.479  19.604  13.986
66525W        W37125  12.395  32.904  12.849
66526W        W37126  11.713   7.774   4.429
66527W        W37127   0.910  22.887  11.954
66528W        W37128   7.229  12.314  11.434
66529W        W37129  18.925  15.297  14.491
66530W        W37130   2.626  37.098  13.196
66531W        W37131  15.683  26.959   0.390
66532W        W37132  36.884  15.050   2.217
66533W        W37133  23.627  29.999   4.305
66534W        W37134   0.713  26.744   1.170
66535W        W37135   0.662  16.208   0.421
66536W        W37136  43.364  33.454  11.460
66537W        W37137   7.612  25.168   0.929
66538W        W37138  39.258  12.816  13.752
66539W        W37139   2.985  37.859   2.489
66540W        W37140  21.347   1.286  11.168
66541W        W37141  39.291  20.057  12.464
66542W        W37142  11.303  27.914  13.595
66543W        W37143  20.529  12.022   1.428
66544W        W37144  35.422  32.134  11.197
66545W        W37145  29.166  30.624  11.660
66546W        W37146  19.338  36.818   1.500
66547W        W37147   9.180  11.907  10.091
66548W        W37148  12.775  42.169   2.430
66549W        W37149  12.738  25.051   4.632
66550W        W37150  27.529  31.453  14.965
66551W        W37151  34.504   9.502  12.817
66552W        W37152  28.440  14.062  11.987
66553W        W37153  29.082   5.520   2.440
66554W        W37154  41.760  38.006   4.600
66555W        W37155  34.367   6.106  14.217
66556W        W37156  17.063   9.663   1.159
66557W        W37157  24.995  21.692   0.758
66558W        W37158   8.352  33.070   2.412
66559W        W37159  27.499  11.949  14.475
66560W        W37160  12.267  11.050   3.284
66561W        W37161  43.950  37.560  14.074
66562W        W37162  31.149  20.200   3.176
66563W        W37163  27.694  36.281  12.078
66564W        W37164  44.761   4.873   0.964
66565W        W37165  27.931  29.395  11.820
66566W        W37166  21.777  24.262  12.158
66567W        W37167  32.694  33.570  10.134
66568W        W37168  20.525  20.728  10.814
66569W        W37169  43.478   0.087  10.667
66570W        W37170  40.070   6.658  14.123
66571W        W37171  10.112  28.507  14.929
66572W        W37172  28.715  33.934  10.423
66573W        W37173  43.445   4.243   3.323
66574W        W37174  15.049  30.944  14.939
66575W        W37175   0.498   1.975   3.984
66576W        W37176  17.949  18.896   3.585
66577W        W37177  41.468  20.001  12.315
66578W        W37178  18.327  15.135  11.951
66579W        W37179  22.753  16.110  13.453
66580W        W37180  20.640  29.597  14.558
66581W        W37181  12.185  18.344  12.129
66582W        W37182  19.603  42.483   2.312
66583W        W37183  31.431  15.171   3.699
66584W        W37184  16.063  11.665  14.803
66585W        W37185  30.046   7.173   1.094
66586W        W37186  22.176   3.188  10.783
66587W        W37187  10.616   0.801   1.695
66588W        W37188  11.093   1.472  12.556
66589W        W37189   5.928  19.593   1.255
66590W        W37190  15.544  15.769   4.985
66591W        W37191   2.251  43.893   0.227
66592W        W37192  42.381  34.595   3.816
66593W        W37193  32.438   6.774  11.793
66594W        W37194   2.884  23.020  13.868
66595W        W37195  42.039  29.065  10.467
66596W        W37196   3.961   1.907  14.943
66597W        W37197  21.056   8.771   3.014
66598W        W37198  16.879   8.854   0.326
66599W        W37199  28.122  14.919  10.956
66600W        W37200  39.514  22.793  11.227
66601W        W37201  34.103   8.259   0.199
66602W        W37202  21.671  39.341   2.730
66603W        W37203   0.342  26.495   1.433
66604W        W37204  39.764   1.459   0.015
66605W        W37205  32.553  35.960   0.266
66606W        W37206  25.649  15.806   0.759
66607W        W37207  42.935   8.982   3.229
66608W        W37208  20.264  21.621  13.491
66609W        W37209  32.920  18.138   0.503
66610W        W37210  44.269  41.114  13.838
66611W        W37211   0.299  12.704  10.722
66612W        W37212   3.697   8.296   4.141
66613W        W37213  44.362  12.200   2.747
66614W        W37214  19.140  41.903   3.861
66615W        W37215  16.276   8.117  12.093
66616W        W37216  25.972  13.434  11.718
66617W        W37217  21.223  19.944  10.677
66618W        W37218  15.533  33.172  10.698
66619W        W37219  22.398  43.882  12.603
66620W        W37220   6.237   7.454  14.427
66621W        W37221  20.536  17.141   1.299
66622W        W37222  31.328   7.505   0.915
66623W        W37223  19.319  43.452   4.152
66624W        W37224  10.747  44.629   1.268
66625W        W37225  19.210  26.160  14.040
66626W        W37226  20.399  36.828  12.326
66627W        W37227   8.982  12.075  13.550
66628W        W37228  14.625  17.821   3.189
66629W        W37229  40.946  25.535   1.408
66630W        W37230  18.057  40.444  13.865
66631W        W37231  35.002  42.740  12.109
66632W        W37232  36.994  41.585  11.236
66633W        W37233  32.400  43.794  12.332
66634W        W37234   8.714  27.004  11.074
66635W        W37235  43.544  41.866  14.947
66636W        W37236  26.364   1.275  11.937
66637W        W37237   4.327   6.354   0.685
66638W        W37238   1.024  24.402   0.268
66639W        W37239  23.157  25.479  11.692
66640W        W37240  20.686  30.649   2.629
66641W        W37241   9.653  27.017   3.633
66642W        W37242  34.175  19.574  11.088
66643W        W37243  26.967  15.004   0.813
66644W        W37244  23.416   3.754   4.217
66645W        W37245  14.626  27.244  12.951
66646W        W37246  22.675  40.710   0.971
66647W        W37247  22.824   1.361   3.669
66648W        W37248  10.464  43.214   5.004
66649W        W37249  15.745  27.448   1.192
66650W        W37250  10.790  44.472  14.444
66651W        W37251  12.056   7.764   4.837
66652W        W37252  16.811  30.635  14.399
66653W        W37253  14.211   3.242   0.177
66654W        W37254  36.568  29.553   0.764
66655W        W37255   8.242   4.937   1.961
66656W        W37256  17.074   3.508   0.888
66657W        W37257  30.966   0.487   2.172
66658W        W37258  20.155  28.269  13.619
66659W        W37259  40.842  16.606   3.182
66660W        W37260  44.433  14.665   2.564
66661W        W37261  39.811   4.721   2.241
66662W        W37262  16.787   4.258  10.763
66663W        W37263  35.774  24.647   4.034
66664W        W37264  19.720  34.596   1.256
66665W        W37265  37.403  21.564   3.915
66666W        W37266  17.308  26.905   2.731
66667W        W37267   3.885  11.222  13.842
66668W        W37268  38.766  25.689  14.867
66669W        W37269  32.866  14.282  13.363
66670W        W37270  29.429  20.317  14.055
66671W        W37271  17.203  23.212  13.027
66672W        W37272   9.695  36.368   1.859
66673W        W37273  44.919   6.808   0.967
66674W        W37274  44.758   4.355  11.102
66675W        W37275  10.295  43.536   4.128
66676W        W37276  35.603  36.103  12.852
66677W        W37277  34.023  14.856   4.807
66678W        W37278  37.475  10.747   1.329
66679W        W37279  29.540  29.463   1.458
66680W        W37280  40.420  10.043   5.006
66681W        W37281  20.364  11.844  14.113
66682W        W37282   4.878  31.974  11.994
66683W        W37283   8.288  29.914  12.978
66684W        W37284  36.861   4.160  12.914
66685W        W37285  27.101   5.153   2.434
66686W        W37286  10.724  30.268   0.413
66687W        W37287  26.003  24.080  14.943
66688W        W37288  32.448   2.738  13.594
66689W        W37289  12.385  31.050   4.646
66690W        W37290   2.253   2.801   3.790
66691W        W37291  26.239   1.759   4.139
66692W        W37292  19.054  39.526  13.950
66693W        W37293  22.813  17.125   1.854
66694W        W37294  35.119  33.475   1.143
66695W        W37295   1.749  21.934   0.954
66696W        W37296  42.799  44.820  11.783
66697W        W37297  13.392  24.195  10.607
66698W        W37298  29.151  42.194  11.055
66699W        W37299   8.263  16.576   2.845
66700W        W37300  33.320  15.924   4.600
66701W        W37301   9.736  17.022  12.034
66702W        W37302  18.878  13.267   3.480
66703W        W37303   6.665  28.417  12.876
66704W        W37304  19.366  44.476   4.726
66705W        W37305  30.129  41.674   5.030
66706W        W37306   2.126  41.744   2.888
66707W        W37307  17.250  34.568  12.893
66708W        W37308  18.263  13.330  11.041
66709W        W37309  10.238  13.563   3.677
66710W        W37310  21.550   6.238  11.423
66711W        W37311  39.807  34.397   2.421
66712W        W37312   9.277  31.137  11.537
66713W        W37313  21.109  19.968   2.161
66714W        W37314   3.150   0.886  11.263
66715W        W37315  26.942   8.957  10.079
66716W        W37316   4.747  34.406  10.029
66717W        W37317  29.062   2.413   3.678
66718W        W37318  31.105  24.326  12.728
66719W        W37319  11.765  21.738  10.895
66720W        W37320  26.643  44.579   2.323
66721W        W37321  42.047  21.959   0.088
66722W        W37322  25.632  30.617   0.226
66723W        W37323  41.979  24.112  10.737
66724W        W37324  37.241  22.191   4.538
66725W        W37325  12.657  14.351  12.445
66726W        W37326  28.671  30.446   3.364
66727W        W37327  23.659   8.972   9.972
66728W        W37328   2.457  14.654  12.975
66729W        W37329   8.155  38.545   0.230
66730W        W37330  17.776   1.423   1.691
66731W        W37331  28.959  10.282  14.263
66732W        W37332  10.636  27.483  14.231
66733W        W37333  35.594  33.532   4.586
66734W        W37334  19.252  23.500  12.555
66735W        W37335  16.105   6.961   1.960
66736W        W37336  36.612  23.764   0.844
66737W        W37337  42.456  31.804   2.801
66738W        W37338  42.889   5.485  13.438
66739W        W37339   6.847   9.172  13.902
66740W        W37340  41.947  22.776   3.253
66741W        W37341  24.450  43.026  11.852
66742W        W37342  12.351  11.734   2.868
66743W        W37343   2.210  25.238   0.865
66744W        W37344  31.672  21.573  14.150
66745W        W37345  35.163  20.690   1.703
66746W        W37346  16.681  42.396  12.528
66747W        W37347  41.470  16.491  12.062
66748W        W37348   5.732  37.015  13.389
66749W        W37349  43.541  40.419  13.407
66750W        W37350   9.192  22.484   3.756
66751W        W37351  18.089   4.820   0.265
66752W        W37352   2.240   0.682   2.404
66753W        W37353  27.565  43.843   0.094
66754W        W37354  16.512  26.037   3.691
66755W        W37355  26.070   1.679   2.170
66756W        W37356  30.390  22.096   3.279
66757W        W37357   4.475  31.040   2.446
66758W        W37358  35.114  32.913  13.053
66759W        W37359   6.765   5.615   1.772
66760W        W37360  39.080   9.865   0.969
66761W        W37361  15.837  18.130   3.312
66762W        W37362  18.557  11.968  13.107
66763W        W37363  29.576  36.744   4.052
66764W        W37364  29.475  38.787   0.897
66765W        W37365  27.135  21.609   3.346
66766W        W37366  34.612   4.332  13.008
66767W        W37367  13.008  15.208   4.102
66768W        W37368   3.464  41.353   2.865
66769W        W37369  33.235  20.419  12.055
66770W        W37370  13.917  43.316   1.353
66771W        W37371   2.900  11.623  13.855
66772W        W37372  39.088   0.653   2.501
66773W        W37373  29.843  13.303  10.508
66774W        W37374  31.568  40.630   1.258
66775W        W37375  27.983  32.611   1.414
66776W        W37376  37.549  24.979  11.626
66777W        W37377  39.841  22.411  11.244
66778W        W37378   2.927  19.646  14.051
66779W        W37379  30.262   8.760  11.549
66780W        W37380   9.125  33.894   4.154
66781W        W37381  28.913  14.684   0.959
66782W        W37382  10.391  43.907  12.808
66783W        W37383  44.957  18.211   0.812
66784W        W37384   6.853  28.230  14.917
66785W        W37385  15.058   6.051  13.281
66786W        W37386  27.919  14.224   2.216
66787W        W37387  14.511  27.844   0.293
66788W        W37388  33.418  22.639  10.836
66789W        W37389  42.400   2.138  12.587
66790W        W37390  27.150   8.652   0.418
66791W        W37391  43.121  34.878   0.589
66792W        W37392  18.345  39.046   4.014
66793W        W37393  29.095   4.716   3.112
66794W        W37394  20.203  18.764   0.875
66795W        W37395  34.261  39.895   0.012
66796W        W37396   5.604  10.343   2.639
66797W        W37397   7.373  38.742   3.735
66798W        W37398  41.487   5.626   0.897
66799W        W37399  40.244  25.710   2.286
66800W        W37400  34.398  13.319  12.434
66801W        W37401  18.445  30.150  12.549
66802W        W37402  20.254  11.758   4.123
66803W        W37403   6.897   0.869   2.693
66804W        W37404  42.547  15.165  12.579
66805W        W37405  37.010  12.380  14.046
66806W        W37406  41.053  37.874  13.438
66807W        W37407  22.515  27.391   3.056
66808W        W37408  40.962   3.870  14.009
66809W        W37409  28.202  12.783   2.713
66810W        W37410  44.068  28.663  14.021
66811W        W37411   2.020  23.899   4.538
66812W        W37412  42.312  19.376   2.819
66813W        W37413  35.752  19.183  13.130
66814W        W37414  21.733  42.971  13.844
66815W        W37415   4.530   1.624  11.984
66816W        W37416  34.541  35.919   3.671
66817W        W37417  42.907  18.060   1.817
66818W        W37418  21.347  34.598  12.641
66819W        W37419   0.877   8.778   3.289
66820W        W37420  25.050   6.855   0.537
66821W        W37421  11.276  27.188  13.085
66822W        W37422  10.314  10.428   4.161
66823W        W37423  26.574  12.625   3.013
66824W        W37424   2.917  26.109  10.464
66825W        W37425  39.663  22.766  12.540
66826W        W37426  34.405  41.061   4.525
66827W        W37427  22.952  41.017  13.456
66828W        W37428   5.894  38.771  11.188
66829W        W37429  16.550   0.425  11.522
66830W        W37430  17.651  13.766   3.158
66831W        W37431  23.975  32.865   3.609
66832W        W37432  43.213  36.947   3.710
66833W        W37433  23.729  18.383   3.368
66834W        W37434   5.704  30.461  13.068
66835W        W37435  20.692  12.834  14.741
66836W        W37436  38.706   0.449   0.963
66837W        W37437  23.259  30.623   3.655
66838W        W37438   2.282  26.991  12.791
66839W        W37439  18.072  22.339   0.306
66840W        W37440  34.209  40.146  13.098
66841W        W37441  36.873  11.550  10.496
66842W        W37442  34.520  14.863   2.975
66843W        W37443  37.509   7.320   3.359
66844W        W37444  33.619  39.221   1.873
66845W        W37445  41.052  39.934  11.524
66846W        W37446  38.476  38.938  14.896
66847W        W37447  28.061  12.250  12.366
66848W        W37448   3.313  24.685   3.213
66849W        W37449  19.760  42.110  12.254
66850W        W37450  40.328  17.709  11.662
66851W        W37451  13.150  38.474  13.838
66852W        W37452  36.090   4.506  10.597
66853W        W37453  30.839  40.427   1.883
66854W        W37454  24.451  32.676  13.513
66855W        W37455  12.464  19.803  11.033
66856W        W37456   6.339  23.476  14.638
66857W        W37457  24.958  39.432  11.552
66858W        W37458  23.953  43.945   2.050
66859W        W37459   8.996  43.127  14.792
66860W        W37460  17.176  43.167  10.229
66861W        W37461  19.137   3.323   1.215
66862W        W37462  40.753  11.912  14.434
66863W        W37463  27.198  32.680  11.688
66864W        W37464  39.746  16.343  11.088
66865W        W37465  41.623  43.013   1.577
66866W        W37466  20.242  27.571   2.350
66867W        W37467  26.264   7.838   4.233
66868W        W37468  25.567  12.429   4.876
66869W        W37469   9.723  43.543   3.419
66870W        W37470  17.162  27.614   3.653
66871W        W37471  20.936  43.876   4.180
66872W        W37472  35.448  30.482  13.383
66873W        W37473   0.533  39.356  11.092
66874W        W37474   3.413  18.669   2.142
66875W        W37475  34.089  33.172  11.506
66876W        W37476   9.190  10.725  12.930
66877W        W37477   7.571   0.442   0.412
66878W        W37478  11.772  28.442  13.465
66879W        W37479  43.430   3.734   3.505
66880W        W37480  15.397  35.805   2.718
66881W        W37481  33.884  16.588  12.348
66882W        W37482  33.050  34.923   2.425
66883W        W37483   4.479   2.948  14.770
66884W        W37484  24.657  28.258   1.842
66885W        W37485   0.972   3.759  14.931
66886W        W37486  35.218  23.169  13.165
66887W        W37487  21.176  33.322  12.942
66888W        W37488  39.797   6.749   0.469
66889W        W37489  32.706  22.999   0.946
66890W        W37490  31.547  21.936  10.701
66891W        W37491  10.958   2.658   2.833
66892W        W37492  17.138  29.799  11.262
66893W        W37493  21.172  26.938   2.759
66894W        W37494  37.589  15.827  11.416
66895W        W37495  37.399   0.264   2.565
66896W        W37496   5.725  14.123  10.803
66897W        W37497   3.338  12.228  14.781
66898W        W37498  27.428  32.578  12.140
66899W        W37499  42.927  30.133  11.474
66900W        W37500  44.529  44.766  12.932
66901W        W37501  22.114  22.218  11.193
66902W        W37502   6.352   4.866   1.834
66903W        W37503  13.897   0.201  12.498
66904W        W37504  39.966  17.633   4.214
66905W        W37505   0.407  10.728  12.654
66906W        W37506  37.924  34.838   1.784
66907W        W37507  40.892  28.501  14.317
66908W        W37508  36.087  20.191   3.587
66909W        W37509  14.696  10.189  11.521
66910W        W37510  40.165  27.233  12.572
66911W        W37511  32.188  42.810  10.730
66912W        W37512  26.693  11.292   0.499
66913W        W37513   8.111   6.832  12.503
66914W        W37514  16.280  31.515  14.383
66915W        W37515  26.213  36.572   0.504
66916W        W37516  15.291  39.960   1.807
66917W        W37517  27.783  27.390  11.349
66918W        W37518  19.296  11.914  12.428
66919W        W37519  12.236   8.876  11.829
66920W        W37520  30.144   2.893  10.762
66921W        W37521  25.306  13.222  14.930
66922W        W37522  19.916  41.509  11.076
66923W        W37523  25.665  11.801  13.446
66924W        W37524  37.920  34.017  14.457
66925W        W37525  23.359  10.935   4.648
66926W        W37526  31.826  22.710  14.937
66927W        W37527  28.955   8.154   1.016
66928W        W37528   4.252  11.974   2.172
66929W        W37529   0.208  22.658   2.559
66930W        W37530  38.882  16.197  10.702
66931W        W37531  21.604   9.990   1.814
66932W        W37532  17.612   8.802   2.103
66933W        W37533  21.780   6.421   3.167
66934W        W37534  29.767  41.074   2.385
66935W        W37535  12.246  18.644  11.690
66936W        W37536  42.935  43.868  11.136
66937W        W37537  11.916   2.342  10.499
66938W        W37538  30.555  39.914  14.976
66939W        W37539   7.944  37.304  13.747
66940W        W37540  12.837  21.437   3.958
66941W        W37541  40.731  28.598  13.292
66942W        W37542  14.345  14.822  12.513
66943W        W37543   3.723  19.366   1.371
66944W        W37544  32.984  21.551  12.080
66945W        W37545  38.491  18.804   2.808
66946W        W37546  24.202  40.538   1.985
66947W        W37547  23.186  34.290   3.591
66948W        W37548  33.453  28.395   0.716
66949W        W37549  24.643   3.268  11.775
66950W        W37550   9.162   7.124   0.019
66951W        W37551  19.081   5.227  13.879
66952W        W37552  31.072   1.743   4.621
66953W        W37553   1.535  20.560   2.710
66954W        W37554  21.979   8.285   3.119
66955W        W37555   2.230  15.338   3.217
66956W        W37556  43.462   1.243   3.238
66957W        W37557  39.250  24.972   1.412
66958W        W37558  33.145   3.120  12.010
66959W        W37559  30.115  39.950   1.800
66960W        W37560  36.320  10.589   4.107
66961W        W37561  38.836  14.130  13.499
66962W        W37562  30.558  27.228   2.728
66963W        W37563  19.761   2.256  10.094
66964W        W37564  12.682  13.010   4.548
66965W        W37565   6.270  12.336   0.812
66966W        W37566  22.987  21.594   2.780
66967W        W37567  15.129  26.956  11.509
66968W        W37568  20.104  32.570  13.707
66969W        W37569  37.940  36.850  14.430
66970W        W37570   2.772  26.188   2.818
66971W        W37571  25.341  27.579  11.362
66972W        W37572  23.272  32.920   1.916
66973W        W37573  12.933  14.826  12.472
66974W        W37574  15.934  33.122   0.181
66975W        W37575  24.562   5.861   2.449
66976W        W37576  19.564  17.209   2.273
66977W        W37577  27.532  16.584   2.753
66978W        W37578  42.990  27.370   4.938
66979W        W37579   0.012  43.072  13.006
66980W        W37580   1.426  37.809   3.386
66981W        W37581   0.676   8.201  12.222
66982W        W37582  23.855  44.931   1.755
66983W        W37583  16.911   1.350  14.517
66984W        W37584  26.598   9.664  12.823
66985W        W37585  33.152  10.868  11.421
66986W        W37586  20.051  43.926  12.376
66987W        W37587  10.650   9.881  12.630
66988W        W37588  10.362  28.259   1.810
66989W        W37589  44.839  23.186   3.865
66990W        W37590  32.165  33.236  12.880
66991W        W37591  34.493  43.732  11.989
66992W        W37592  13.540  34.497   1.815
66993W        W37593   6.744  43.140  12.054
66994W        W37594  43.077  14.585   3.636
66995W        W37595  30.654  36.987  11.504
66996W        W37596  25.716  28.144  10.590
66997W        W37597  29.611  37.920   4.985
66998W        W37598  44.362  15.775  11.593
66999W        W37599  39.349  29.556  10.931
67000W        W37600  25.152  24.781   4.497
67001W        W37601  41.378  17.760   3.636
67002W        W37602  28.738  14.671   3.872
67003W        W37603  18.519  37.573  12.123
67004W        W37604  28.551  19.967   4.010
67005W        W37605  34.002  40.810   0.751
67006W        W37606  25.694  16.909   4.127
67007W        W37607  22.954  28.574   3.081
67008W        W37608  11.392   7.477   0.449
67009W        W37609  11.286  33.197   2.374
67010W        W37610  35.301   5.643   4.284
67011W        W37611  36.537  38.867   3.656
67012W        W37612  31.661  20.988  11.108
67013W        W37613  34.118  26.650   0.433
67014W        W37614  39.815  15.729  14.606
67015W        W37615  44.300  19.040  13.319
67016W        W37616  14.199  14.053  13.806
67017W        W37617   1.558  22.779   3.387
67018W        W37618  28.178  32.965  11.139
67019W        W37619  12.712  39.289   1.758
67020W        W37620  40.353   1.480  13.892
67021W        W37621  10.092   4.833   1.800
67022W        W37622  27.254  10.246   1.361
67023W        W37623  27.967  17.744   0.044
67024W        W37624  26.994  39.616   0.702
67025W        W37625   4.994  24.088   3.070
67026W        W37626  21.233  15.434  13.781
67027W        W37627  44.524  11.715   0.245
67028W        W37628  26.191  18.028   3.821
67029W        W37629  12.568   3.293   1.266
67030W        W37630  41.394   9.655   3.911
67031W        W37631   1.978   5.866   1.881
67032W        W37632  18.991  10.861  11.087
67033W        W37633  25.649  10.168  11.330
67034W        W37634   6.029  10.774  13.334
67035W        W37635  33.892  37.821   4.466
67036W        W37636  26.260  18.854   2.147
67037W        W37637  15.225   2.838   2.175
67038W        W37638  11.090  16.166   4.392
67039W        W37639   9.324  30.380   0.579
67040W        W37640  26.548  25.600   3.557
67041W        W37641  35.540  32.871   0.773
67042W        W37642  44.865   3.789   4.156
67043W        W37643  37.919  37.803   4.684
67044W        W37644  35.807  13.545  14.957
67045W        W37645  21.472  12.662   2.300
67046W        W37646  25.220  17.524  14.519
67047W        W37647  23.960  34.877  12.548
67048W        W37648   8.771  32.866   4.875
67049W        W37649  36.183  30.947   4.232
67050W        W37650   4.645  20.685   0.351
67051W        W37651  31.625  39.065  13.757
67052W        W37652  20.556  10.606   2.224
67053W        W37653  26.734  43.888   1.832
67054W        W37654  15.697  10.328   2.737
67055W        W37655   2.422  18.104   1.781
67056W        W37656   5.787  28.940   0.983
67057W        W37657  26.687  18.851  11.816
67058W        W37658  23.535  19.491  11.917
67059W        W37659  26.453  25.101   3.089
67060W        W37660  38.096  29.518   2.349
67061W        W37661  23.343  14.627   3.088
67062W        W37662  39.159   2.319  11.957
67063W        W37663  28.101  15.987  12.457
67064W        W37664  15.817  15.273  14.410
67065W        W37665   4.931  10.800  11.427
67066W        W37666  43.035  25.524  13.719
67067W        W37667  28.564  37.677  12.957
67068W        W37668   6.420  16.188  14.998
67069W        W37669  35.140  19.263   2.444
67070W        W37670   1.907  18.286   1.377
67071W        W37671   7.498  14.207  12.830
67072W        W37672  19.128  37.366  10.681
67073W        W37673  21.096  38.297  10.428
67074W        W37674  38.456  18.047   3.300
67075W        W37675  10.221  25.966   3.612
67076W        W37676  30.967  38.782  14.429
67077W        W37677  15.148   5.395   4.588
67078W        W37678  18.421  34.105  12.630
67079W        W37679   7.860  11.661   0.614
67080W        W37680  29.714  30.098  11.218
67081W        W37681   2.340  43.272   2.452
67082W        W37682  18.662  29.243   0.726
67083W        W37683  31.471   0.430   1.304
67084W        W37684  28.738   9.747  13.297
67085W        W37685  33.422  37.655  12.857
67086W        W37686  22.111  32.939   4.596
67087W        W37687  18.773  21.508   1.230
67088W        W37688  35.200  26.538   4.539
67089W        W37689  38.540  33.064  13.861
67090W        W37690  21.353  30.010   2.095
67091W        W37691   6.638   6.845   0.882
67092W        W37692   0.238   0.408   4.152
67093W        W37693  27.151  27.750  11.658
67094W        W37694  37.833  16.412  12.522
67095W        W37695  24.012   9.841   1.677
67096W        W37696   4.074   8.387  12.943
67097W        W37697  24.066   4.930  12.028
67098W        W37698  41.476  19.632  13.589
67099W        W37699  43.817   7.922  11.537
67100W        W37700  41.630  19.080  10.268
67101W        W37701  39.204  39.260  11.183
67102W        W37702  12.342  39.638   1.532
67103W        W37703   8.538  32.170  12.831
67104W        W37704  24.526  40.190   0.146
67105W        W37705  32.888   3.992   0.335
67106W        W37706   5.681  43.261  11.159
67107W        W37707  16.097   5.865   4.534
67108W        W37708  18.547  25.629  12.912
67109W        W37709   9.552  33.509  12.544
67110W        W37710  27.688  14.858   1.783
67111W        W37711  24.916   7.479   2.676
67112W        W37712   0.814  43.344   4.558
67113W        W37713  26.240  30.687   3.711
67114W        W37714  33.014  42.007  11.696
67115W        W37715  15.124   6.729  11.273
67116W        W37716  14.341  29.425  12.534
67117W        W37717   0.113  29.477  11.774
67118W        W37718  43.635  40.595  14.319
67119W        W37719   1.384   6.693  12.945
67120W        W37720  13.039  29.902   2.305
67121W        W37721  16.748  18.506  11.472
67122W        W37722  16.276   4.809   3.509
67123W        W37723  24.537   6.902   1.759
67124W        W37724   3.333  39.841   2.705
67125W        W37725  11.730  34.341  11.179
67126W        W37726   8.456  39.854   0.705
67127W        W37727   8.289  22.518   1.272
67128W        W37728  32.977  30.879  13.836
67129W        W37729   5.532  25.706   4.656
67130W        W37730   3.887   2.859   3.324
67131W        W37731  18.007  22.294   4.217
67132W        W37732   7.354  28.858  10.767
67133W        W37733   4.743   7.733  12.972
67134W        W37734  20.905  42.053   2.226
67135W        W37735  24.668  31.613   2.388
67136W        W37736  16.760  39.995   2.474
67137W        W37737  20.811  17.279  13.923
67138W        W37738  10.381  42.440   0.469
67139W        W37739  29.449  12.936  11.581
67140W        W37740  32.965  27.492   0.896
67141W        W37741  22.703  13.680   3.752
67142W        W37742  36.425  27.999  12.380
67143W        W37743  37.987  41.998  13.437
67144W        W37744  29.067  14.749  14.532
67145W        W37745  13.298  23.291   0.818
67146W        W37746  34.124   0.491  14.443
67147W        W37747  21.880  32.958   3.199
67148W        W37748  42.547   1.263  11.264
67149W        W37749  12.696   2.005  11.402
67150W        W37750  17.297   2.783  14.203
67151W        W37751  16.528  21.816   3.813
67152W        W37752  29.435  40.790   1.736
67153W        W37753  17.620  38.911  10.893
67154W        W37754  12.790  16.383   4.679
67155W        W37755  19.529   0.606  11.102
67156W        W37756  17.581  34.427   3.221
67157W        W37757  20.115  15.812  12.447
67158W        W37758  13.261   5.897   3.445
67159W        W37759  35.648  42.932  13.080
67160W        W37760  27.238  35.407  13.908
67161W        W37761  39.968  28.492   2.615
67162W        W37762  23.816   4.689   0.487
67163W        W37763  40.265  19.455  14.975
67164W        W37764  16.795  19.637  12.888
67165W        W37765   9.121  25.143  11.143
67166W        W37766  44.546   0.259   3.176
67167W        W37767   7.412  41.482   3.252
67168W        W37768  21.665  37.967   1.785
67169W        W37769  41.995  19.521   3.187
67170W        W37770  44.816  43.885  14.544
67171W        W37771  16.878  22.828  11.858
67172W        W37772  42.550  43.838  12.033
67173W        W37773  16.986  10.660  12.878
67174W        W37774   2.177  21.164   4.180
67175W        W37775  36.696  41.791  14.257
67176W        W37776  39.602  13.843  12.695
67177W        W37777  36.910   7.752   4.328
67178W        W37778   9.683  29.387  12.568
67179W        W37779  21.176  30.534  10.894
67180W        W37780  19.049  33.017   1.480
67181W        W37781  44.842   0.457  11.865
67182W        W37782  20.220  39.103  11.235
67183W        W37783  38.588  29.653  11.657
67184W        W37784  27.647   4.191   0.607
67185W        W37785  25.763  16.647   4.564
67186W        W37786  31.434  42.460   4.599
67187W        W37787  18.271   9.573   2.717
67188W        W37788  34.672   0.806  11.494
67189W        W37789  16.553  26.683  14.719
67190W        W37790  42.716  34.455   2.636
67191W        W37791  18.958  19.841  12.495
67192W        W37792  41.765   2.896   3.335
67193W        W37793  35.554   5.250  13.946
67194W        W37794   8.130  11.389  11.600
67195W        W37795  19.527  39.322   4.131
67196W        W37796  42.834  10.403  12.974
67197W        W37797  36.461  14.590  12.851
67198W        W37798  37.772  38.003  12.883
67199W        W37799  35.672  44.010   0.167
67200W        W37800  18.221  24.989  11.105
67201W        W37801  42.164  30.808  14.432
67202W        W37802  29.856  38.607   1.659
67203W        W37803  43.437  36.634  12.122
67204W        W37804  12.058  42.568   4.090
67205W        W37805   8.713  36.404  12.575
67206W        W37806  16.260   0.010  11.713
67207W        W37807   6.153  40.948  12.676
67208W        W37808  10.146  30.687  14.872
67209W        W37809  16.101  20.160   3.191
67210W        W37810   6.448  37.336   4.122
67211W        W37811  44.324  20.802  14.425
67212W        W37812  44.876  20.351   3.822
67213W        W37813  19.396  15.682   2.233
67214W        W37814  13.714  27.408  11.676
67215W        W37815  21.622  33.836   3.638
67216W        W37816   6.796   2.007   0.920
67217W        W37817  18.582   0.502   1.857
67218W        W37818  18.965   0.963   3.140
67219W        W37819  42.327  13.594  11.613
67220W        W37820  17.210  15.603   2.808
67221W        W37821  12.744  44.536  12.847
67222W        W37822  37.464  23.721  12.430
67223W        W37823   4.925  24.014  11.165
67224W        W37824  40.556  23.332   2.941
67225W        W37825   4.443  18.564  11.408
67226W        W37826  24.217  20.099   0.834
67227W        W37827   9.606  20.563   2.492
67228W        W37828  14.623  23.510  14.434
67229W        W37829  19.587  39.809  14.093
67230W        W37830   4.963  38.922  14.829
67231W        W37831  11.060   4.758  13.899
67232W        W37832  34.344  42.648  12.868
67233W        W37833   2.409   5.245  11.047
67234W        W37834  31.391  24.454   0.725
67235W        W37835  23.352   9.029  13.395
67236W        W37836  41.967  33.320  14.063
67237W        W37837   2.882   8.434   3.713
67238W        W37838  30.891  42.743  11.533
67239W        W37839  23.020  24.385   4.566
67240W        W37840   6.705  21.579   0.494
67241W        W37841  20.193  40.012   1.920
67242W        W37842  18.730  33.549  14.361
67243W        W37843  15.294  39.251   0.343
67244W        W37844  14.438   4.504   1.788
67245W        W37845  26.143  22.615   1.738
67246W        W37846  37.233  36.097  12.308
67247W        W37847  43.246  36.070   1.240
67248W        W37848  23.663  11.342   0.387
67249W        W37849  33.548  16.477  11.137
67250W        W37850  32.788  36.596  13.361
67251W        W37851   5.280  40.340  11.450
67252W        W37852  28.463  32.185  11.337
67253W        W37853  28.673   7.173  13.080
67254W        W37854  22.304   6.445   0.476
67255W        W37855  30.975   2.361  14.144
67256W        W37856   7.806  22.400   1.054
67257W        W37857   6.731  28.760   0.575
67258W        W37858  29.114  28.055   1.769
67259W        W37859  26.559   5.236  12.612
67260W        W37860  37.870   9.242  11.229
67261W        W37861   7.097  10.108   4.146
67262W        W37862   8.073   6.247   3.633
67263W        W37863  16.759  11.689  11.981
67264W        W37864   2.150   0.511  13.291
67265W        W37865  28.620  13.138   0.775
67266W        W37866   3.179  37.423   4.895
67267W        W37867  33.357  18.474  12.884
67268W        W37868  40.736  20.260  10.310
67269W        W37869  21.704   8.428  13.348
67270W        W37870  44.026  10.237   4.364
67271W        W37871   8.857  30.537   4.402
67272W        W37872  31.210  29.904  11.127
67273W        W37873  23.157  42.848   4.567
67274W        W37874  25.054  20.341   3.173
67275W        W37875  26.533  29.386   0.781
67276W        W37876   7.937   4.720  12.005
67277W        W37877   6.951  31.409  11.717
67278W        W37878   7.211  15.861  12.088
67279W        W37879  43.097  16.683  14.795
67280W        W37880  22.677  37.042   4.475
67281W        W37881  41.857  40.692  13.297
67282W        W37882  24.297  12.553   4.978
67283W        W37883  31.953  13.300   4.140
67284W        W37884  22.686  30.682   3.584
67285W        W37885  33.742  39.059   1.405
67286W        W37886  17.154  17.139   1.395
67287W        W37887  30.688   7.996  10.847
67288W        W37888  17.011  28.546   1.100
67289W        W37889  36.086  37.163   5.115
67290W        W37890  40.004  44.852  14.521
67291W        W37891  31.989  39.885  14.358
67292W        W37892   3.289   8.929   1.890
67293W        W37893  24.282  18.391   4.239
67294W        W37894  18.245  44.823  12.435
67295W        W37895   3.974  39.020   3.170
67296W        W37896  15.418  30.722   4.085
67297W        W37897  29.458  24.748  11.945
67298W        W37898  11.541  19.193   3.317
67299W        W37899  38.034  33.804   2.775
67300W        W37900   9.685  20.031   2.701
67301W        W37901   0.430  13.704  10.897
67302W        W37902  40.490  26.625   2.226
67303W        W37903  26.442  17.376  10.846
67304W        W37904  42.487  13.588   2.904
67305W        W37905  37.014  41.766   3.184
67306W        W37906  17.445  36.873   0.281
67307W        W37907  23.343  43.877  12.969
67308W        W37908  15.204  12.681   1.232
67309W        W37909  26.205   3.861  12.090
67310W        W37910  25.977   5.964  13.453
67311W        W37911   0.519   8.872   3.795
67312W        W37912  13.274  24.954   3.768
67313W        W37913  29.502   6.803  12.381
67314W        W37914  34.981  16.774  14.771
67315W        W37915  19.580  23.098  12.657
67316W        W37916  38.050  22.631   0.370
67317W        W37917  13.317   8.895  12.584
67318W        W37918   0.488  21.180   2.287
67319W        W37919  15.643  39.617   2.606
67320W        W37920   8.208  33.548   0.673
67321W        W37921  33.435  35.905  14.911
67322W        W37922  31.654  14.320  14.807
67323W        W37923  11.118  12.779   4.470
67324W        W37924  39.252   1.290  13.336
67325W        W37925  10.965  42.285   5.254
67326W        W37926   8.249  41.805  14.985
67327W        W37927  37.819  40.936   4.809
67328W        W37928   5.272   7.788  12.833
67329W        W37929   3.173   9.200  12.289
67330W        W37930  30.944  32.133  14.424
67331W        W37931  25.483   2.202   0.885
67332W        W37932  41.392  42.264   0.790
67333W        W37933  16.560   2.283  14.301
67334W        W37934  38.405  34.688  13.439
67335W        W37935   8.385  26.464   9.866
67336W        W37936  29.392  31.421  13.426
67337W        W37937   8.258  25.528  11.503
67338W        W37938   7.663  28.069   3.118
67339W        W37939   5.227  41.808   2.437
67340W        W37940  30.684  34.135   4.174
67341W        W37941  23.209  29.055   2.314
67342W        W37942  18.840  30.139  10.684
67343W        W37943  19.976  10.108  13.159
67344W        W37944  31.574  38.802  12.821
67345W        W37945  30.414  20.749  11.505
67346W        W37946  36.735  38.589   4.674
67347W        W37947  11.614   9.800   3.781
67348W        W37948   1.394  10.336  11.137
67349W        W37949  10.898  26.141  14.029
67350W        W37950  11.124   8.042   3.067
67351W        W37951  20.636  29.144   3.486
67352W        W37952   8.515  17.122  10.801
67353W        W37953  29.477   9.832   2.730
67354W        W37954   9.793  38.817  11.430
67355W        W37955  44.303  34.401  11.032
67356W        W37956  26.762  25.739   2.703
67357W        W37957  30.050  11.128  12.984
67358W        W37958  23.535   5.851   3.075
67359W        W37959   2.781  17.499   0.988
67360W        W37960  18.773  32.193  14.825
67361W        W37961  40.757  20.606   3.080
67362W        W37962  42.842  35.770   1.421
67363W        W37963  29.363  32.144   3.199
67364W        W37964  37.835  41.047   3.609
67365W        W37965  22.013  25.597  12.416
67366W        W37966  16.049  20.105  14.765
67367W        W37967  13.656   3.151  12.564
67368W        W37968  32.087  31.070  12.303
67369W        W37969  34.285  19.239  14.241
67370W        W37970   6.108  35.495   3.130
67371W        W37971  28.011  11.386  11.678
67372W        W37972  24.257  19.678  13.903
67373W        W37973  35.466  40.032  10.787
67374W        W37974  11.380  34.978  12.429
67375W        W37975  19.215  29.196   2.714
67376W        W37976   4.324   4.231  13.043
67377W        W37977  15.413  23.943  14.316
67378W        W37978  33.022   7.495  13.884
67379W        W37979  17.661  20.978  13.906
67380W        W37980  12.272  15.632  13.143
67381W        W37981   5.876  42.015   3.713
67382W        W37982  33.105  32.659   3.253
67383W        W37983   8.253  21.474   0.452
67384W        W37984   3.658  30.549  12.103
67385W        W37985  32.592  41.858  11.440
67386W        W37986  18.435   9.264  14.717
67387W        W37987  20.089  23.420  10.977
67388W        W37988  42.358   8.250  12.157
67389W        W37989  12.423  15.140   0.343
67390W        W37990  37.494  18.500   3.668
67391W        W37991  22.211  12.298   3.625
67392W        W37992  28.435  14.670   4.274
67393W        W37993   8.418  31.344  12.428
67394W        W37994  41.991  15.250   0.844
67395W        W37995  28.533  29.267  10.051
67396W        W37996  44.933  12.553  11.997
67397W        W37997  14.110  35.768  11.482
67398W        W37998  40.123   4.887  13.137
67399W        W37999  22.270  32.642  13.924
67400W        W38000  21.603  13.587   0.469
67401W        W38001  16.584  39.529   2.368
67402W        W38002  15.833  18.289  11.108
67403W        W38003  31.137  41.386   1.724
67404W        W38004   8.040  27.656   2.304
67405W        W38005  35.517  41.895  13.052
67406W        W38006  26.351  20.411  14.271
67407W        W38007  31.098   8.447  14.443
67408W        W38008   0.341  32.679  12.144
67409W        W38009  25.911  34.366  13.400
67410W        W38010  31.608   3.639   0.978
67411W        W38011  18.018  12.818   3.794
67412W        W38012  31.624  37.834   2.786
67413W        W38013   2.376  36.350   0.331
67414W        W38014  40.853  36.905   4.453
67415W        W38015  32.774  13.779   2.832
67416W        W38016  25.513  28.571  13.902
67417W        W38017   2.268  23.815   0.947
67418W        W38018  41.556  16.048   2.351
67419W        W38019  11.649  18.875   4.425
67420W        W38020  34.964  41.518  11.559
67421W        W38021  33.789  30.446  10.833
67422W        W38022  42.716  21.800   2.459
67423W        W38023  41.574  23.867   0.776
67424W        W38024  32.228  31.162   0.453
67425W        W38025  16.878  43.314   3.338
67426W        W38026  12.102  37.036  13.032
67427W        W38027  17.529  11.084   2.193
67428W        W38028  10.584  36.888  14.837
67429W        W38029  16.570   2.866  10.506
67430W        W38030  32.939   4.670  11.214
67431W        W38031   6.865  43.222   1.325
67432W        W38032  28.415  37.794  12.441
67433W        W38033  26.681   0.215  12.600
67434W        W38034   0.792   2.651  12.830
67435W        W38035  17.936  33.150  13.908
67436W        W38036  21.364  17.702   0.820
67437W        W38037   1.039  26.921   0.800
67438W        W38038  30.878   0.018   4.750
67439W        W38039   9.431  35.434  14.078
67440W        W38040  24.301  12.860  12.677
67441W        W38041  24.162  38.591   3.438
67442W        W38042  24.634   1.440   4.810
67443W        W38043  29.164  30.621  10.793
67444W        W38044  38.537   5.469  13.885
67445W        W38045  39.260  17.509  12.937
67446W        W38046  18.295   9.402   2.244
67447W        W38047   9.363  33.179   0.959
67448W        W38048  41.717  36.292   4.300
67449W        W38049  32.946  23.979  10.736
67450W        W38050  26.660  15.110  12.056
67451W        W38051  34.501  35.493  10.491
67452W        W38052   7.838  40.559   2.756
67453W        W38053  32.149  17.340   3.247
67454W        W38054  25.659  25.218  10.631
67455W        W38055   9.637  37.491   2.837
67456W        W38056  37.960  12.833   1.888
67457W        W38057  42.735   3.091   1.365
67458W        W38058  36.472  42.784  13.835
67459W        W38059  39.382  44.910   1.019
67460W        W38060  13.046  38.638  11.144
67461W        W38061  29.418   8.292   0.851
67462W        W38062  25.707   2.961  14.732
67463W        W38063  28.989   0.297  12.809
67464W        W38064  30.407  35.354  10.758
67465W        W38065  26.041  26.897  11.392
67466W        W38066  39.476  23.706   3.291
67467W        W38067   0.027  22.051  11.060
67468W        W38068   1.383  11.494   0.816
67469W        W38069  37.843  31.396   0.761
67470W        W38070  34.095  23.156  14.809
67471W        W38071  33.946  26.517   4.503
67472W        W38072  25.477  30.185  12.914
67473W        W38073  27.324  25.168   4.541
67474W        W38074  35.599  22.123  11.213
67475W        W38075  39.302  40.310  11.113
67476W        W38076  41.321  44.544  14.314
67477W        W38077  14.061  10.560  13.120
67478W        W38078  12.712   6.295   1.771
67479W        W38079   9.778   0.871  12.610
67480W        W38080  38.405   4.597  11.425
67481W        W38081  37.244  44.011   4.303
67482W        W38082   4.866  27.559   2.930
67483W        W38083  13.102  27.972   1.291
67484W        W38084  21.235  17.396   0.383
67485W        W38085  31.516   4.290   0.338
67486W        W38086  17.451  32.929  11.580
67487W        W38087  16.672  29.773   2.780
67488W        W38088   5.261  42.989  14.278
67489W        W38089  25.271  36.052  13.853
67490W        W38090   6.762  27.995  10.138
67491W        W38091   1.582  42.995  10.638
67492W        W38092  11.714  34.890   4.720
67493W        W38093  39.887  29.484   3.931
67494W        W38094  13.756   0.718  12.460
67495W        W38095  15.223  22.284  13.898
67496W        W38096  16.292  31.828  13.477
67497W        W38097  37.045  27.942   3.670
67498W        W38098  14.642  34.151  12.952
67499W        W38099  11.373  22.863   0.732
67500W        W38100   0.994  19.707   5.068
67501W        W38101  38.285  15.725   0.441
67502W        W38102  38.255   7.539   2.374
67503W        W38103   8.287  32.627   4.893
67504W        W38104   4.667  38.554  10.135
67505W        W38105   3.257  11.437  11.148
67506W        W38106  31.390   9.381   1.249
67507W        W38107  25.741  23.731  12.671
67508W        W38108  22.581  40.555  11.677
67509W        W38109  15.996   2.872   4.483
67510W        W38110  11.050  21.148  13.373
67511W        W38111  22.284  24.191  12.095
67512W        W38112   3.728  16.268   4.070
67513W        W38113  28.434  34.911  10.430
67514W        W38114  11.202  23.594  10.579
67515W        W38115   3.883   9.614  14.853
67516W        W38116  31.445  13.276  13.092
67517W        W38117  36.459  11.869  10.487
67518W        W38118  40.579   3.999  12.974
67519W        W38119   0.038   0.903   2.804
67520W        W38120  16.614  12.173  11.964
67521W        W38121  32.506   4.739  11.587
67522W        W38122   7.858  28.479   0.418
67523W        W38123   7.674  18.581  11.670
67524W        W38124  22.284  35.555   0.279
67525W        W38125  26.414  16.855   0.155
67526W        W38126  21.374  31.840  12.607
67527W        W38127  28.435  20.271   4.418
67528W        W38128  28.018  39.960   3.704
67529W        W38129   5.885  32.171  11.158
67530W        W38130  19.516   8.891   0.332
67531W        W38131  17.356  22.295  13.118
67532W        W38132  23.918  39.168   4.991
67533W        W38133  41.750  27.588   3.268
67534W        W38134  35.976  16.839   3.624
67535W        W38135  41.412   8.150  14.924
67536W        W38136   2.527  12.354  14.321
67537W        W38137  40.025   5.707  14.570
67538W        W38138  36.762   5.786  14.039
67539W        W38139  32.461  39.825   2.416
67540W        W38140  24.508  41.430   3.637
67541W        W38141  11.211  42.810  14.936
67542W        W38142   3.459   2.184   4.679
67543W        W38143  13.630   1.318   3.653
67544W        W38144   7.725  35.457  12.285
67545W        W38145  39.125  17.492  11.110
67546W        W38146  42.311  43.484   0.317
67547W        W38147  32.506  39.592   0.308
67548W        W38148  42.914  36.091  11.485
67549W        W38149  39.549   2.823   4.091
67550W        W38150   9.991  35.409  12.459
67551W        W38151  38.845  34.807   4.610
67552W        W38152  26.104   4.538  13.501
67553W        W38153  17.784  12.340   3.710
67554W        W38154   5.268   7.926  10.643
67555W        W38155   8.860  13.987  14.041
67556W        W38156  34.420  10.591   3.311
67557W        W38157   9.685  44.803  12.092
67558W        W38158  18.573  12.878  11.213
67559W        W38159  28.937  28.032   0.427
67560W        W38160  33.636  27.140  14.852
67561W        W38161  10.296  31.647   4.687
67562W        W38162  27.784  33.600   1.437
67563W        W38163  17.831  37.495  13.349
67564W        W38164  31.488  41.879  12.453
67565W        W38165   6.654  19.401  12.193
67566W        W38166  41.465  38.733   1.843
67567W        W38167  37.961  43.537   4.090
67568W        W38168  34.091  32.631  14.777
67569W        W38169  42.864   3.914   9.911
67570W        W38170   0.269  21.950   2.627
67571W        W38171  32.003  26.697  11.419
67572W        W38172  28.963  36.063   0.239
67573W        W38173  44.389  28.618   3.710
67574W        W38174  34.501  22.085  14.771
67575W        W38175  28.954   0.343   4.731
67576W        W38176   1.959  22.959  10.934
67577W        W38177  15.363  28.269   3.378
67578W        W38178  21.678  19.562   1.689
67579W        W38179  28.502  16.472  13.080
67580W        W38180  28.938  31.407   1.283
67581W        W38181   6.370  35.563  12.183
67582W        W38182   5.269  35.718   4.095
67583W        W38183   7.487   8.303  11.569
67584W        W38184   7.663  16.796  13.934
67585W        W38185   7.351  31.078   1.338
67586W        W38186  29.071  18.475  14.607
67587W        W38187  28.644  24.579  13.358
67588W        W38188  13.973  27.143   1.974
67589W        W38189  27.025  27.609   4.506
67590W        W38190  21.186   8.850   2.116
67591W        W38191  43.179  32.136  11.937
67592W        W38192  15.288  40.442   4.773
67593W        W38193  41.927  11.273  14.718
67594W        W38194  41.316  35.890  12.359
67595W        W38195  10.739  41.310  12.447
67596W        W38196  39.792  42.402   0.979
67597W        W38197  21.262  35.495   3.659
67598W        W38198  44.605  35.483  14.424
67599W        W38199  19.599  36.658  13.931
67600W        W38200  40.452  44.416   1.554
67601W        W38201  13.301   1.595  11.156
67602W        W38202   0.132  12.647   4.044
67603W        W38203  42.348  15.279   3.090
67604W        W38204  40.261   3.256  12.559
67605W        W38205  31.396  37.629  11.071
67606W        W38206  19.820  18.541  12.913
67607W        W38207  12.013  27.663  13.876
67608W        W38208  42.151  22.700   0.525
67609W        W38209  12.558   3.714   0.970
67610W        W38210  35.062  27.657  12.415
67611W        W38211  18.710  31.923  10.325
67612W        W38212  18.602   2.669  10.564
67613W        W38213  37.369  41.143   3.846
67614W        W38214  19.336  43.782  11.940
67615W        W38215   2.000  15.193   3.643
67616W        W38216  28.616  41.053  14.501
67617W        W38217  19.205   8.736  14.931
67618W        W38218  33.304  11.931   2.075
67619W        W38219  40.386  22.612   1.728
67620W        W38220  16.472   8.597  13.396
67621W        W38221  14.728  28.892  14.482
67622W        W38222  38.322  40.551  12.598
67623W        W38223  41.033  31.224   4.607
67624W        W38224  44.751  39.455   2.264
67625W        W38225  10.366  25.472  12.552
67626W        W38226   2.434  14.341   3.679
67627W        W38227  14.234  11.425  12.574
67628W        W38228  18.222  27.570   4.850
67629W        W38229  43.792  30.433  12.200
67630W        W38230  22.157  29.615   1.165
67631W        W38231  30.631  39.036   1.792
67632W        W38232   4.672  37.377   4.555
67633W        W38233  19.645   7.321  13.679
67634W        W38234  42.670  21.047  10.718
67635W        W38235  16.183  28.631  13.302
67636W        W38236  16.862  19.833   1.223
67637W        W38237  12.898  14.196  13.923
67638W        W38238  35.880  38.548   0.899
67639W        W38239  20.720  42.546   2.846
67640W        W38240  29.232  13.232   4.592
67641W        W38241   2.416  43.197  10.332
67642W        W38242  32.818  42.030  14.808
67643W        W38243   8.800  39.926  13.787
67644W        W38244  27.007  36.668  11.567
67645W        W38245  28.596   8.178  12.375
67646W        W38246  21.544  36.622  11.210
67647W        W38247  23.677  26.732   1.298
67648W        W38248  43.825  37.590   2.097
67649W        W38249  39.297  32.844   0.392
67650W        W38250  13.100  32.033   0.820
67651W        W38251  44.428  40.586   4.872
67652W        W38252  12.201  18.582  12.594
67653W        W38253  20.156  14.330   1.435
67654W        W38254  26.721   6.235   3.044
67655W        W38255  33.490  16.663   0.618
67656W        W38256  21.792   1.739  14.794
67657W        W38257   2.995  18.582   4.456
67658W        W38258   5.683  44.319  14.859
67659W        W38259   2.918  10.350  11.573
67660W        W38260   8.545  29.192  13.161
67661W        W38261  20.990  42.120   4.747
67662W        W38262  36.778  42.678  11.533
67663W        W38263  37.265  40.962   3.365
67664W        W38264   3.646  26.760   4.104
67665W        W38265  21.574  35.530   3.220
67666W        W38266  38.372   5.820   4.171
67667W        W38267  26.576  36.581  14.209
67668W        W38268  31.553  23.173   4.753
67669W        W38269  24.910   7.013  12.394
67670W        W38270  21.641   2.821  13.914
67671W        W38271  35.435   4.732  11.153
67672W        W38272   7.484  35.526   0.465
67673W        W38273   8.657  18.587  14.387
67674W        W38274  27.253  23.931  13.334
67675W        W38275  13.361  28.743  14.412
67676W        W38276  12.304  31.187  12.569
67677W        W38277   4.901   9.514  11.985
67678W        W38278  40.533  26.145  11.731
67679W        W38279   9.912  40.587   1.808
67680W        W38280  16.812  20.811   2.695
67681W        W38281  15.134   3.012   3.114
67682W        W38282  14.547  39.088   3.190
67683W        W38283   0.558  28.082  13.503
67684W        W38284  10.470   0.285   0.196
67685W        W38285  18.296  24.728   1.434
67686W        W38286  21.611  35.573   1.869
67687W        W38287  15.698   3.098   2.801
67688W        W38288  40.276  33.071   0.495
67689W        W38289   0.284  41.950  11.656
67690W        W38290  20.636  31.967   3.353
67691W        W38291  44.582  25.622   0.117
67692W        W38292  43.080  40.491  13.616
67693W        W38293  41.433  38.959   9.893
67694W        W38294   4.353  36.616  14.395
67695W        W38295  13.977  20.044   5.096
67696W        W38296   0.251  29.901   4.525
67697W        W38297  22.416  30.706  14.796
67698W        W38298   4.971   5.659   1.701
67699W        W38299  21.036  30.581   0.832
67700W        W38300  18.079  22.570   2.060
67701W        W38301  19.836  25.403  10.424
67702W        W38302  23.165  38.168  13.884
67703W        W38303   0.743  29.704  13.842
67704W        W38304   1.028   8.643  10.815
67705W        W38305  37.875  37.382   3.725
67706W        W38306  44.333  41.569  14.085
67707W        W38307  21.633  41.033  11.570
67708W        W38308  11.604  29.629   4.618
67709W        W38309  18.735  10.719   1.833
67710W        W38310  32.130  16.838   2.355
67711W        W38311   4.288  44.749   1.866
67712W        W38312  39.099  12.374  12.045
67713W        W38313  29.741  31.604   4.859
67714W        W38314  16.568   9.858  14.716
67715W        W38315   8.479   3.273  11.137
67716W        W38316  30.498  43.704   2.541
67717W        W38317   0.479  33.524   2.290
67718W        W38318  18.151   5.390   3.323
67719W        W38319  11.851   5.991  13.114
67720W        W38320   4.238   7.343   2.192
67721W        W38321  27.575  28.524   3.320
67722W        W38322  39.400  13.637  13.965
67723W        W38323  22.723  25.076  13.089
67724W        W38324  10.723  34.092  14.325
67725W        W38325  11.637  28.360  11.549
67726W        W38326  42.348   8.578  13.065
67727W        W38327  20.667  25.554  13.897
67728W        W38328  16.350  25.148  14.474
67729W        W38329  16.099  26.107   1.394
67730W        W38330   4.084  42.096   1.041
67731W        W38331  36.387  41.233  12.464
67732W        W38332  17.743  13.270  14.313
67733W        W38333   1.427  13.125  10.668
67734W        W38334  14.155  21.504  12.414
67735W        W38335  15.048  14.011   3.047
67736W        W38336  14.357   1.474   1.299
67737W        W38337   5.184  21.076   3.839
67738W        W38338  10.727  17.249   4.861
67739W        W38339   1.247  38.398  14.445
67740W        W38340  41.021  44.367  12.548
67741W        W38341   1.511   9.372  10.968
67742W        W38342  36.217  27.424   1.277
67743W        W38343  32.003  13.046   4.577
67744W        W38344   7.112  40.583  11.519
67745W        W38345  29.020  21.329   2.969
67746W        W38346  20.649   7.135  12.885
67747W        W38347  13.571  11.365  11.895
67748W        W38348  41.838  36.438  14.329
67749W        W38349  29.869  15.632  13.773
67750W        W38350  19.276  10.888   2.673
67751W        W38351  33.452  10.682   1.187
67752W        W38352  29.944  13.460   4.123
67753W        W38353   0.921  14.670   2.198
67754W        W38354  25.811   1.856  12.876
67755W        W38355  28.492  30.051   4.646
67756W        W38356  39.533  42.493   0.538
67757W        W38357  32.587  23.993  14.286
67758W        W38358   3.515   3.452   2.399
67759W        W38359  32.149  19.257  14.872
67760W        W38360   7.472  16.225   1.859
67761W        W38361  26.197  19.560  10.760
67762W        W38362  38.011  42.233  13.889
67763W        W38363  33.435  32.721   3.662
67764W        W38364  22.695  28.092   0.976
67765W        W38365   9.071  16.166   4.161
67766W        W38366   7.814   2.421  10.780
67767W        W38367   3.315  38.277  10.615
67768W        W38368   3.123  31.537  14.105
67769W        W38369  25.707  24.159  13.946
67770W        W38370   1.239  31.863   2.128
67771W        W38371  12.768  35.045  11.669
67772W        W38372  27.072  40.466  11.479
67773W        W38373  40.588  14.182   1.809
67774W        W38374   1.510  21.857  13.413
67775W        W38375   9.300  35.047  14.366
67776W        W38376  35.184   8.243   3.252
67777W        W38377  12.642  37.176   4.638
67778W        W38378   4.670  26.691   2.707
67779W        W38379  36.976  27.078  13.097
67780W        W38380  21.486  14.554   1.871
67781W        W38381   9.116  13.181  14.010
67782W        W38382   9.832  26.960   0.731
67783W        W38383  14.753  17.385   0.023
67784W        W38384  31.908  38.133  12.886
67785W        W38385  26.604  34.852   2.447
67786W        W38386  23.543  31.857   4.137
67787W        W38387  20.267   6.211  11.954
67788W        W38388  30.036  25.695   0.374
67789W        W38389  22.382  14.615  14.806
67790W        W38390   3.739   6.734   2.804
67791W        W38391   0.241  41.420  13.090
67792W        W38392  18.609  12.957   3.113
67793W        W38393  30.679  30.510  12.390
67794W        W38394   7.278  26.058  10.682
67795W        W38395   3.223   0.440   2.222
67796W        W38396  21.199  32.645  12.534
67797W        W38397   7.138  31.277  11.186
67798W        W38398   6.282  12.198  14.541
67799W        W38399  11.426   7.159  14.916
67800W        W38400  38.193   0.213   3.330
67801W        W38401   3.803  43.507  13.994
67802W        W38402  31.372  25.583   1.820
67803W        W38403  43.155  28.265  13.456
67804W        W38404   3.963   0.865  13.538
67805W        W38405  21.041  14.795   1.798
67806W        W38406   0.789  30.151   3.780
67807W        W38407  30.904   6.326  11.752
67808W        W38408  23.450  33.498   4.721
67809W        W38409  32.497  40.462  13.676
67810W        W38410  12.762   0.357   3.309
67811W        W38411  13.290   3.862   4.420
67812W        W38412  29.214   7.891   4.163
67813W        W38413  35.972  44.521  10.686
67814W        W38414  29.392  43.009  12.891
67815W        W38415  20.316  24.199   1.463
67816W        W38416   8.276   3.453   1.272
67817W        W38417   3.388  40.907  12.579
67818W        W38418  27.980  23.178   1.680
67819W        W38419   3.536   2.324   3.817
67820W        W38420  27.364  11.688  10.727
67821W        W38421  18.722   3.324  14.848
67822W        W38422  17.002  18.610   3.826
67823W        W38423  25.086  43.082  14.374
67824W        W38424  15.519  28.092  11.425
67825W        W38425  28.209  20.786   2.216
67826W        W38426  35.065   7.995   1.781
67827W        W38427   1.902  41.129   4.657
67828W        W38428  34.774  25.022  12.083
67829W        W38429  13.823  15.033  12.870
67830W        W38430  28.046  17.360   3.623
67831W        W38431  15.589  36.953   2.061
67832W        W38432  44.771  22.145   0.766
67833W        W38433  11.786  13.308   4.535
67834W        W38434  28.096  34.511  10.316
67835W        W38435  34.879  18.659   1.629
67836W        W38436  18.026  37.023   1.779
67837W        W38437   9.840  17.766  14.067
67838W        W38438   8.178  15.292  12.477
67839W        W38439  13.936  38.559   1.865
67840W        W38440  11.888  36.366   4.401
67841W        W38441  35.203   1.887   4.909
67842W        W38442  17.999  32.628  13.905
67843W        W38443   2.638  40.537  13.040
67844W        W38444  37.795  25.634   2.298
67845W        W38445   5.257  18.663  10.480
67846W        W38446  31.320   5.289  11.195
67847W        W38447  35.555  19.767  11.944
67848W        W38448  22.158   3.361   3.669
67849W        W38449  33.876  26.758  13.562
67850W        W38450  42.824  26.177  14.411
67851W        W38451  35.460  39.108   2.099
67852W        W38452   1.879  25.054   3.366
67853W        W38453   6.411  43.492  13.549
67854W        W38454   7.699  37.050  13.357
67855W        W38455  39.163  31.322  13.731
67856W        W38456  31.990  12.634   1.938
67857W        W38457  41.637  29.174   0.804
67858W        W38458  32.769  38.323  11.577
67859W        W38459  11.566   0.248   2.603
67860W        W38460  29.571  31.970   4.503
67861W        W38461  32.488  26.003   0.654
67862W        W38462  38.407   0.358  10.915
67863W        W38463  29.004   8.887  12.807
67864W        W38464  13.574  28.146   4.424
67865W        W38465   3.866   0.460   0.864
67866W        W38466  16.856  13.348  10.349
67867W        W38467   1.863  32.111  13.199
67868W        W38468   3.819   6.683   1.168
67869W        W38469  36.630  21.999   3.494
67870W        W38470  42.007  31.210   4.757
67871W        W38471  13.495   2.690  11.633
67872W        W38472   9.249  41.566  10.959
67873W        W38473  13.830   8.280  10.577
67874W        W38474  22.518  10.162  12.134
67875W        W38475  21.822  22.827   1.831
67876W        W38476   0.177  39.877   3.350
67877W        W38477   3.955  40.770   1.122
67878W        W38478  20.805  44.893  12.009
67879W        W38479   4.909  37.815  13.954
67880W        W38480  17.237  44.961   4.214
67881W        W38481   8.610   1.789   3.096
67882W        W38482  32.853  20.220  13.437
67883W        W38483   8.371   1.298   3.562
67884W        W38484   3.695   3.453  13.497
67885W        W38485   7.877  40.255   4.206
67886W        W38486  14.595  11.776   0.985
67887W        W38487  30.494  16.556  14.471
67888W        W38488  43.604  24.367  11.139
67889W        W38489   5.384  29.511  10.680
67890W        W38490   0.977  26.431   3.139
67891W        W38491  11.216  23.960   3.259
67892W        W38492   2.863   8.605   1.859
67893W        W38493   0.978  34.607   1.872
67894W        W38494  43.920  17.094  14.895
67895W        W38495  24.462  18.697  13.169
67896W        W38496   6.215   5.221  12.384
67897W        W38497  41.960  10.764  13.998
67898W        W38498  41.779  26.143  13.882
67899W        W38499  19.612  38.438  13.590
67900W        W38500   5.245   6.753   2.860
67901W        W38501  29.569  25.049  12.392
67902W        W38502   3.366  33.917   2.768
67903W        W38503  33.971  12.428  13.850
67904W        W38504   3.713  44.055   2.263
67905W        W38505  18.144  36.037  12.590
67906W        W38506  17.617   3.956  13.493
67907W        W38507  36.915  33.639   1.398
67908W        W38508  36.546  22.477   2.181
67909W        W38509  29.567  37.396   2.691
67910W        W38510  29.336   7.864  11.090
67911W        W38511   9.894   0.728   3.710
67912W        W38512  38.459   3.775  10.637
67913W        W38513  28.083   1.756   1.228
67914W        W38514   8.239  40.464   3.889
67915W        W38515  25.776  11.133  12.686
67916W        W38516  21.172   9.677   4.593
67917W        W38517  35.883   7.392   4.181
67918W        W38518  35.453  19.293  11.826
67919W        W38519  30.375   8.823  12.034
67920W        W38520   9.869  11.253   1.715
67921W        W38521  10.173   0.410   1.122
67922W        W38522  14.958  40.112   5.025
67923W        W38523  18.148  14.886  13.440
67924W        W38524  24.829  38.833  12.800
67925W        W38525  43.815  19.693  11.497
67926W        W38526   2.844   7.087   1.992
67927W        W38527  36.867  41.916   0.568
67928W        W38528  12.722  25.901   3.289
67929W        W38529  22.383  41.885  13.357
67930W        W38530  34.891  44.421   1.258
67931W        W38531  32.213  41.501   0.860
67932W        W38532  19.062   7.814  11.772
67933W        W38533  15.253  22.758  12.965
67934W        W38534  20.107   2.680  11.139
67935W        W38535  25.162  27.187   2.360
67936W        W38536   7.569  37.594   3.240
67937W        W38537  17.839  25.395  11.076
67938W        W38538  28.478  44.036  12.020
67939W        W38539  19.789  23.762   3.626
67940W        W38540   9.398   7.451  13.635
67941W        W38541   4.180   0.086   3.656
67942W        W38542  19.609  23.045  10.381
67943W        W38543   0.630  35.491  14.481
67944W        W38544  11.916   0.836  11.638
67945W        W38545  38.242  31.132  12.678
67946W        W38546   9.258  19.432   4.523
67947W        W38547  44.897  15.644  14.241
67948W        W38548  37.748  40.865  11.247
67949W        W38549  34.084  29.591   1.514
67950W        W38550  28.061  32.413  14.084
67951W        W38551   5.765  14.600   2.794
67952W        W38552  39.490  32.150   1.772
67953W        W38553  11.700   1.828   0.491
67954W        W38554  37.675  43.765  14.086
67955W        W38555  21.833   0.797   1.490
67956W        W38556  30.879  10.796   3.633
67957W        W38557   3.397  30.559  13.893
67958W        W38558  24.598   3.772   3.899
67959W        W38559  11.338   0.432  13.889
67960W        W38560   0.242  40.415  14.044
67961W        W38561  21.202  27.273   0.870
67962W        W38562  24.203  26.448  14.432
67963W        W38563  43.650  38.454   1.725
67964W        W38564  14.242  24.630  10.333
67965W        W38565  15.055   1.175  14.290
67966W        W38566   5.994  33.425   4.185
67967W        W38567  37.827  19.609  14.647
67968W        W38568  39.430  22.530  10.459
67969W        W38569  21.914   9.972  14.426
67970W        W38570  36.015  25.181   3.811
67971W        W38571  25.240  22.616  13.431
67972W        W38572  20.762  31.539  12.952
67973W        W38573  44.976  37.784  12.089
67974W        W38574  16.665  42.366  11.582
67975W        W38575  21.633  22.270  14.695
67976W        W38576  30.702   0.742   0.266
67977W        W38577  21.966  17.147  11.397
67978W        W38578   8.162  27.186  13.918
67979W        W38579  31.549   6.877   1.205
67980W        W38580  21.194   6.368  14.229
67981W        W38581   4.579   9.110  11.954
67982W        W38582  31.768  35.885  11.476
67983W        W38583  43.534  16.053  10.666
67984W        W38584  43.437  31.033  14.362
67985W        W38585   6.253  41.405  10.585
67986W        W38586   6.935  13.855   1.949
67987W        W38587  42.951  25.638  11.604
67988W        W38588   7.600  43.291  10.803
67989W        W38589   7.046  16.382  12.020
67990W        W38590  10.170  14.127   4.289
67991W        W38591  36.159  19.535   4.146
67992W        W38592  38.025  25.263   2.677
67993W        W38593  41.623  16.821  12.947
67994W        W38594  22.011  17.095   2.327
67995W        W38595  11.774  26.735   2.188
67996W        W38596  34.367  32.065  14.090
67997W        W38597  37.622  26.533  14.449
67998W        W38598  29.451  23.915   1.645
67999W        W38599  25.150  23.437   4.151
68000W        W38600   6.433  34.327  14.799
68001W        W38601   7.399  21.130  11.221
68002W        W38602  44.836  14.330   5.041
68003W        W38603   4.418  35.271  13.546
68004W        W38604  33.100  38.706   4.584
68005W        W38605   2.528  42.427  13.242
68006W        W38606  16.205  42.915   3.527
68007W        W38607  11.331  38.798   4.376
68008W        W38608  14.853  18.658   4.692
68009W        W38609   0.372  26.426  10.975
68010W        W38610  28.453  40.127   2.170
68011W        W38611  25.601  43.441  11.306
68012W        W38612  11.609  11.234  13.097
68013W        W38613  26.624  36.625   2.644
68014W        W38614  29.971  33.615   3.206
68015W        W38615  24.422   5.274   0.377
68016W        W38616  24.505  25.991   2.199
68017W        W38617  17.308  21.938   1.461
68018W        W38618  13.193  10.678  11.557
68019W        W38619  27.884  11.844  11.539
68020W        W38620  15.234  21.148  14.673
68021W        W38621  24.001  20.578   1.054
68022W        W38622  37.844  28.183  10.421
68023W        W38623  31.166   5.533  14.722
68024W        W38624  28.104  26.884   1.844
68025W        W38625  40.246   3.126  11.033
68026W        W38626  13.452  11.151  12.347
68027W        W38627  44.695  30.069  11.135
68028W        W38628  42.792   2.262  11.138
68029W        W38629  25.936  29.715   2.290
68030W        W38630  44.969  38.448  14.870
68031W        W38631   3.751  12.683   1.698
68032W        W38632  28.691  41.625   3.348
68033W        W38633  43.409  36.806  12.609
68034W        W38634  44.772  37.524   4.584
68035W        W38635  36.561  44.442  11.934
68036W        W38636   8.427   6.605   3.765
68037W        W38637  11.961   9.082   0.815
68038W        W38638  34.694  30.964   1.852
68039W        W38639  33.674  22.191  12.917
68040W        W38640  18.596  31.920  13.909
68041W        W38641   7.901  25.599   3.208
68042W        W38642  30.087   0.404   0.124
68043W        W38643  33.236   5.471   2.159
68044W        W38644  44.479  10.886   4.886
68045W        W38645  10.331  10.766  10.671
68046W        W38646  22.083   5.702  10.715
68047W        W38647  19.775   4.395  14.914
68048W        W38648   6.612  22.196  11.644
68049W        W38649   3.743  38.817   3.601
68050W        W38650  33.017  23.844  12.221
68051W        W38651   6.855   2.029  14.881
68052W        W38652  26.034  32.292  13.919
68053W        W38653  39.289  19.063   1.168
68054W        W38654  42.853  10.165  11.635
68055W        W38655  18.018  41.090  11.219
68056W        W38656   5.898  34.848  10.929
68057W        W38657  27.902  28.692  13.828
68058W        W38658  13.220  30.076  10.614
68059W        W38659  25.553  12.801  10.749
68060W        W38660   9.341  18.932   1.732
68061W        W38661   7.081  43.739   3.262
68062W        W38662  16.327  24.150  10.167
68063W        W38663  18.326  28.995   4.294
68064W        W38664  24.298  38.411   4.519
68065W        W38665  15.545  16.785  11.540
68066W        W38666  34.569  12.095   3.285
68067W        W38667  37.920  11.108  13.177
68068W        W38668   7.168  14.652   3.754
68069W        W38669   1.396   7.420  11.723
68070W        W38670  24.440  33.871   1.702
68071W        W38671  35.697  39.924   3.397
68072W        W38672  12.295   2.805   2.814
68073W        W38673  21.726  26.757   2.795
68074W        W38674   8.765  23.964   0.453
68075W        W38675   0.748   6.323   1.176
68076W        W38676  28.558  16.757  14.618
68077W        W38677  23.996  12.691  10.736
68078W        W38678   6.166  32.505  12.896
68079W        W38679   8.867  40.518   4.198
68080W        W38680  24.441  19.805  13.427
68081W        W38681  37.079  43.980  11.091
68082W        W38682  20.027  17.865  11.592
68083W        W38683  26.022   8.940  14.448
68084W        W38684  38.782  16.317   4.072
68085W        W38685  13.363  15.325   4.511
68086W        W38686  39.478   1.489  11.692
68087W        W38687  30.994  43.455  14.447
68088W        W38688  15.876  44.607   2.700
68089W        W38689  36.019  41.725  13.457
68090W        W38690   0.505   5.043  10.501
68091W        W38691  30.075  24.263  12.014
68092W        W38692  21.624  32.509   5.023
68093W        W38693  11.704   3.156  12.643
68094W        W38694  26.992  10.700  13.339
68095W        W38695  24.291  38.580  11.100
68096W        W38696  31.066  21.304   2.348
68097W        W38697   1.395  14.118  11.442
68098W        W38698   6.961  29.712  11.094
68099W        W38699  19.102  23.947  14.018
68100W        W38700  38.875  20.593  14.967
68101W        W38701   6.263  23.869   1.994
68102W        W38702  41.873  43.941  11.124
68103W        W38703  29.530   9.636  12.538
68104W        W38704  40.500  28.199   4.101
68105W        W38705  36.565  40.442  12.105
68106W        W38706  36.521   2.358  10.787
68107W        W38707  23.850  36.560   4.174
68108W        W38708   9.862  44.913   2.244
68109W        W38709  15.585  14.652  13.082
68110W        W38710  42.222  14.934  10.736
68111W        W38711  32.070  31.851  14.086
68112W        W38712  25.925   3.908  13.501
68113W        W38713  27.015  40.276   3.835
68114W        W38714  20.623   6.645  13.104
68115W        W38715  43.725  38.857  13.416
68116W        W38716   9.793  12.324   2.442
68117W        W38717   1.512  38.597  14.044
68118W        W38718  32.340  41.877  14.852
68119W        W38719  13.344  39.890  13.710
68120W        W38720  41.823   3.937  14.465
68121W        W38721   7.903  10.810   4.091
68122W        W38722   4.833  11.058   3.233
68123W        W38723  27.656  10.539  11.173
68124W        W38724   4.312  27.483  13.586
68125W        W38725  37.671  17.410   4.205
68126W        W38726  16.152  34.636  14.792
68127W        W38727  20.133  12.704  14.619
68128W        W38728  40.732  31.431  14.867
68129W        W38729   6.455  24.057  11.909
68130W        W38730  10.586  13.352   0.742
68131W        W38731  28.111  19.763   3.836
68132W        W38732   8.344  31.549   1.878
68133W        W38733  20.035   9.842  14.525
68134W        W38734   5.991   4.405  12.072
68135W        W38735  11.771  40.563   3.216
68136W        W38736  42.924  18.990   3.099
68137W        W38737  14.170   9.130   3.541
68138W        W38738  15.877   6.775   4.286
68139W        W38739  33.656  25.157  11.297
68140W        W38740  35.025  29.735   1.453
68141W        W38741  10.275  10.279   0.884
68142W        W38742  34.194  32.615  13.410
68143W        W38743  41.237  34.110  13.150
68144W        W38744   4.403  40.617  12.932
68145W        W38745  40.731  44.256   3.364
68146W        W38746  32.701  36.503   0.421
68147W        W38747  44.079  19.936   1.898
68148W        W38748  15.601  31.441   0.086
68149W        W38749   3.693  31.924  10.139
68150W        W38750  22.661   8.006   3.162
68151W        W38751  33.683  30.373  10.312
68152W        W38752  33.540  24.735   3.202
68153W        W38753  25.888   2.943   4.171
68154W        W38754  31.781  16.882   4.912
68155W        W38755  41.417  36.102  11.503
68156W        W38756   7.176  11.204  13.681
68157W        W38757   7.238  30.173   4.546
68158W        W38758  23.064   4.816   1.747
68159W        W38759   9.560  27.073   4.543
68160W        W38760  37.875  35.850   1.316
68161W        W38761  11.214  10.951   4.107
68162W        W38762  13.816  43.413  11.480
68163W        W38763   3.837  43.442  11.196
68164W        W38764  22.490  26.488  14.941
68165W        W38765  15.774  29.062  14.716
68166W        W38766  29.300  44.987  14.484
68167W        W38767   4.309  44.210   1.833
68168W        W38768  29.839  13.816  11.189
68169W        W38769   2.085  10.907  14.347
68170W        W38770  35.066  20.124   3.660
68171W        W38771  33.119  29.477  14.292
68172W        W38772   3.744  40.341   3.729
68173W        W38773  25.324  29.914  11.432
68174W        W38774  41.601  36.209   0.224
68175W        W38775   6.891  44.890  13.935
68176W        W38776  17.512  16.629   4.422
68177W        W38777  29.534  21.665   1.435
68178W        W38778  22.211   6.682   3.246
68179W        W38779  43.205  15.727  12.401
68180W        W38780  21.957  23.641  11.442
68181W        W38781  17.112  31.125   1.878
68182W        W38782  10.844  36.915   0.288
68183W        W38783  27.995  28.557  14.792
68184W        W38784  34.374   6.720   4.041
68185W        W38785   7.113  34.855   3.147
68186W        W38786   2.552   5.350   3.395
68187W        W38787  32.505  17.290   4.674
68188W        W38788  38.523   3.266  13.037
68189W        W38789  38.401  18.836   3.777
68190W        W38790   0.313  33.953  12.618
68191W        W38791  11.767  38.403   3.758
68192W        W38792   5.947  27.484  13.467
68193W        W38793   3.896  19.861  11.694
68194W        W38794  13.104  31.482   3.416
68195W        W38795   0.289  37.774   3.329
68196W        W38796  24.065  28.171  11.534
68197W        W38797   5.304  16.803   3.894
68198W        W38798  25.462  43.288   3.737
68199W        W38799  27.267   0.795  12.652
68200W        W38800  39.739   6.008  11.173
68201W        W38801  22.585  11.098   2.853
68202W        W38802  39.289  36.170  11.558
68203W        W38803  28.512   7.094   4.680
68204W        W38804  31.599  23.569   2.199
68205W        W38805  11.287   6.216  11.540
68206W        W38806  32.723  23.149   2.032
68207W        W38807  19.529  29.994   3.741
68208W        W38808   8.982  38.503   3.166
68209W        W38809  12.170  34.861   1.480
68210W        W38810  19.701  11.421   0.278
68211W        W38811   0.517  27.943   1.980
68212W        W38812  16.385  16.286  11.011
68213W        W38813  41.565   4.128  14.896
68214W        W38814  36.024  15.395  10.701
68215W        W38815  24.121  22.420   3.101
68216W        W38816   8.133   5.173  11.191
68217W        W38817   5.491  37.328   1.814
68218W        W38818  26.635  40.229  11.584
68219W        W38819   7.320   2.947  11.646
68220W        W38820  42.078  10.736  12.012
68221W        W38821  35.052  35.667   0.915
68222W        W38822  13.371   0.997  14.785
68223W        W38823   0.655  42.018   3.297
68224W        W38824  32.269  24.255   5.003
68225W        W38825  17.988  31.575  12.068
68226W        W38826  41.722  27.081   3.083
68227W        W38827  36.683  32.231   4.145
68228W        W38828   8.891  36.594   2.830
68229W        W38829   0.932  37.145   0.588
68230W        W38830   3.283  12.720   1.916
68231W        W38831  20.554  12.679   0.533
68232W        W38832  32.971   6.978  11.648
68233W        W38833  20.326   7.079   0.510
68234W        W38834  29.918   3.724  12.238
68235W        W38835  43.495  18.449  11.849
68236W        W38836  13.173  30.028  12.006
68237W        W38837   7.844  42.839  10.932
68238W        W38838  34.144  10.149  13.518
68239W        W38839  42.343   2.839   2.209
68240W        W38840  15.267  38.235   0.606
68241W        W38841  18.478  15.663  10.728
68242W        W38842  21.704  16.611  13.397
68243W        W38843  44.820   3.986   3.117
68244W        W38844  29.496  10.863  10.873
68245W        W38845  32.616  28.717   4.643
68246W        W38846  34.062  14.044   2.552
68247W        W38847  25.923  36.105  12.376
68248W        W38848  33.625  11.702   3.323
68249W        W38849  22.341  19.582   3.161
68250W        W38850  35.622   0.710  14.466
68251W        W38851   6.218  30.444   0.333
68252W        W38852  18.166   8.086   0.924
68253W        W38853  11.106   9.813   4.879
68254W        W38854  35.065   4.366   3.584
68255W        W38855  37.621   7.744   5.054
68256W        W38856  29.438  29.600  13.155
68257W        W38857  25.020  18.597   3.642
68258W        W38858   5.656   8.716  13.902
68259W        W38859   1.723   3.035  11.974
68260W        W38860  14.031   5.221  13.368
68261W        W38861   3.320  39.877   4.418
68262W        W38862  20.702   4.661  11.883
68263W        W38863  36.126  30.981   1.400
68264W        W38864  14.256   1.193   3.102
68265W        W38865  15.932  41.559   4.857
68266W        W38866   8.017  39.445  12.960
68267W        W38867  24.755  14.751   1.825
68268W        W38868  22.128   8.145  11.540
68269W        W38869   2.408   6.896   1.785
68270W        W38870   9.048   1.884   3.359
68271W        W38871   6.213   5.836  14.345
68272W        W38872  44.276  25.504  14.709
68273W        W38873  31.389   3.451   0.235
68274W        W38874   8.697  12.460   1.946
68275W        W38875  10.810  38.436  10.572
68276W        W38876   3.742   0.765  14.503
68277W        W38877  44.462  37.790   2.378
68278W        W38878  26.848  36.918   0.549
68279W        W38879  26.633  12.686   4.084
68280W        W38880  14.866  42.903   2.284
68281W        W38881  16.498  28.761   4.318
68282W        W38882  25.042   9.160  13.503
68283W        W38883   5.133  12.145  11.637
68284W        W38884  29.853   3.155   0.564
68285W        W38885  11.125  39.332   3.295
68286W        W38886  30.966  23.556   0.706
68287W        W38887  10.135  15.029   1.234
68288W        W38888  36.337  42.040   1.763
68289W        W38889  15.322   3.387  14.725
68290W        W38890   9.838   3.091   1.453
68291W        W38891  28.900   7.558  12.128
68292W        W38892  44.821   0.733   4.089
68293W        W38893  18.990   4.470   1.002
68294W        W38894  28.544  39.990   3.529
68295W        W38895  32.494  35.195   1.161
68296W        W38896  31.410  33.359  13.436
68297W        W38897  21.744  12.544   0.387
68298W        W38898   0.897   8.849  10.345
68299W        W38899   5.397  30.104  14.929
68300W        W38900  13.733  25.186  13.521
68301W        W38901  26.923  10.848  13.819
68302W        W38902  42.959  38.808   2.448
68303W        W38903  44.951  31.656  11.544
68304W        W38904   2.386   7.203   2.221
68305W        W38905  20.340  32.861  10.900
68306W        W38906  41.414  39.240   1.911
68307W        W38907   4.549  27.238  10.798
68308W        W38908  20.687  23.239   4.113
68309W        W38909  10.260  16.855   1.238
68310W        W38910  23.566  20.098  11.505
68311W        W38911  35.378  37.336   0.626
68312W        W38912  25.785  17.849   1.884
68313W        W38913  44.804  27.391  14.056
68314W        W38914   0.916  20.261  11.163
68315W        W38915  39.809  40.262   1.711
68316W        W38916  25.206  29.060  13.412
68317W        W38917  38.371  19.557  14.728
68318W        W38918   5.208  21.579   3.725
68319W        W38919  36.875  15.783  13.076
68320W        W38920  34.128   8.018  13.743
68321W        W38921   7.165  34.369  12.063
68322W        W38922   7.841   9.432   2.934
68323W        W38923  15.892   8.447   2.800
68324W        W38924  24.737   8.406   1.858
68325W        W38925  10.850  21.126  14.220
68326W        W38926  32.381  16.458  10.681
68327W        W38927  30.920  41.504   3.815
68328W        W38928  15.518  37.334  13.474
68329W        W38929  23.170  37.449  11.010
68330W        W38930  15.169  36.757  13.307
68331W        W38931  24.950  33.665  11.006
68332W        W38932  42.885  28.600  11.627
68333W        W38933   2.842  13.912   1.610
68334W        W38934  16.031  34.116  12.282
68335W        W38935  24.192  43.330  12.680
68336W        W38936  43.386   7.825   1.339
68337W        W38937  37.925  24.813   3.632
68338W        W38938   7.354  31.847  12.462
68339W        W38939  10.240  12.571   3.370
68340W        W38940   8.863   0.267   4.074
68341W        W38941   8.731   9.395   4.387
68342W        W38942  33.134  29.921  11.072
68343W        W38943  41.491  24.296   0.470
68344W        W38944  13.206  28.200   3.565
68345W        W38945   2.311  35.382   2.812
68346W        W38946   5.944  33.440  13.286
68347W        W38947  18.077   0.016   2.906
68348W        W38948  23.782  30.426  13.510
68349W        W38949  13.455   7.905   3.657
68350W        W38950  21.180  25.205  13.013
68351W        W38951  30.589   7.085   3.634
68352W        W38952  23.586  32.528  11.105
68353W        W38953  39.522  35.447  10.771
68354W        W38954  43.536  18.797   2.271
68355W        W38955  41.777  29.110  14.949
68356W        W38956   6.830  32.764  11.631
68357W        W38957  18.278   6.870   4.432
68358W        W38958  28.097  26.512   3.071
68359W        W38959  31.097  27.428  11.208
68360W        W38960   4.746  40.377  12.623
68361W        W38961  18.873   8.982   5.052
68362W        W38962  44.261  18.758  10.638
68363W        W38963  37.916  14.206   1.695
68364W        W38964  41.354  37.348  12.439
68365W        W38965  22.584  37.542  10.869
68366W        W38966  26.622   5.605   3.245
68367W        W38967  34.094   0.305  12.818
68368W        W38968  33.103  37.856   1.482
68369W        W38969  20.712  18.255   0.274
68370W        W38970  26.719  26.421   0.698
68371W        W38971  40.213   8.725  11.428
68372W        W38972  14.651  27.211   0.738
68373W        W38973  10.397  26.048   2.222
68374W        W38974  41.056   6.599  12.408
68375W        W38975  21.098  34.102   3.854
68376W        W38976   7.492  24.622   1.253
68377W        W38977  35.482   3.174   2.920
68378W        W38978  17.666  34.533  12.586
68379W        W38979   0.509  20.061   0.689
68380W        W38980  12.633  34.588  13.479
68381W        W38981   1.752   1.844   3.728
68382W        W38982  12.565  18.503   2.083
68383W        W38983  43.102  16.167   0.859
68384W        W38984  29.818  44.184  11.170
68385W        W38985  29.502  36.067   0.079
68386W        W38986  34.987  16.827   0.799
68387W        W38987  40.972  40.841   0.961
68388W        W38988   1.042  32.582   3.296
68389W        W38989  13.357  29.693   3.709
68390W        W38990   2.239  43.932   4.595
68391W        W38991  20.086  37.106   1.841
68392W        W38992   2.660   3.809  13.125
68393W        W38993  31.324   5.455   3.990
68394W        W38994   1.743  21.097  10.656
68395W        W38995  11.969   2.356   1.058
68396W        W38996  30.430  13.781  12.547
68397W        W38997  18.647  13.595  10.804
68398W        W38998  12.665   6.786   0.906
68399W        W38999  24.087  24.007  14.937
68400W        W39000  34.029  34.260   3.222
68401W        W39001  11.649  24.000  14.055
68402W        W39002  35.932  40.931   3.918
68403W        W39003  18.726  28.513   9.814
68404W        W39004   2.760  23.846   0.367
68405W        W39005  28.658  11.942   2.651
68406W        W39006  28.958  38.377  11.190
68407W        W39007  42.075  29.089  14.490
68408W        W39008  29.919  29.631  11.267
68409W        W39009  26.472  18.140   0.243
68410W        W39010  30.161  14.396   3.243
68411W        W39011   8.820  13.672  14.446
68412W        W39012  13.869  33.204   0.503
68413W        W39013  25.072  26.272   3.213
68414W        W39014  12.837  15.810   2.889
68415W        W39015  39.886   9.610  12.143
68416W        W39016   3.915  15.211   3.995
68417W        W39017  21.256   7.253   1.295
68418W        W39018  39.891   1.574   2.789
68419W        W39019  14.814  16.778  12.111
68420W        W39020  27.732  44.914   2.237
68421W        W39021  41.033  14.516  13.978
68422W        W39022   6.383   4.183   3.306
68423W        W39023  37.824  17.648   3.788
68424W        W39024  43.899  13.212   2.854
68425W        W39025  13.866  41.292  12.082
68426W        W39026  29.324  38.472   1.691
68427W        W39027   8.764  19.416   0.013
68428W        W39028   6.080  35.156  12.479
68429W        W39029  30.054  11.000  13.510
68430W        W39030  35.366  36.518  13.081
68431W        W39031   4.825  12.151   1.192
68432W        W39032  29.982  22.661   1.652
68433W        W39033  26.000   0.750   0.937
68434W        W39034   9.440  43.350  11.132
68435W        W39035  39.904  36.306   3.345
68436W        W39036  37.130  15.653  11.600
68437W        W39037  26.726  37.766   4.860
68438W        W39038   3.921  38.720  12.519
68439W        W39039  29.761  10.217   0.785
68440W        W39040  23.496   0.972   0.740
68441W        W39041  14.794  23.373  12.628
68442W        W39042  24.934  20.006   0.054
68443W        W39043  35.261   0.135  12.587
68444W        W39044  40.374  25.071  14.382
68445W        W39045   4.867  24.991   3.378
68446W        W39046   4.291  44.090  11.865
68447W        W39047  41.086  31.715  14.584
68448W        W39048   0.811  41.348   0.815
68449W        W39049   3.483  14.273  14.208
68450W        W39050  26.297   7.916  12.127
68451W        W39051  12.461  14.804   1.269
68452W        W39052  30.255   5.041  11.174
68453W        W39053  11.835   1.562   2.461
68454W        W39054  25.248  19.433   3.144
68455W        W39055   9.774  23.671   3.770
68456W        W39056  28.137  44.181   0.931
68457W        W39057   6.705  14.098  12.430
68458W        W39058  38.801  28.885   3.858
68459W        W39059  30.066  34.709  14.310
68460W        W39060  23.108  14.230   2.261
68461W        W39061  18.565   1.798  11.159
68462W        W39062  34.715  14.724   4.657
68463W        W39063   8.982  30.992  14.461
68464W        W39064   3.782  33.928  11.471
68465W        W39065  37.086  35.913   1.702
68466W        W39066   1.164  44.469   4.210
68467W        W39067  43.815  23.100  12.565
68468W        W39068  29.387  41.846   2.677
68469W        W39069   0.419  31.401  12.415
68470W        W39070  14.566  43.404   3.864
68471W        W39071  34.768  22.093   4.465
68472W        W39072  16.983  32.101  12.499
68473W        W39073  35.659  14.741  11.136
68474W        W39074  33.556   7.295  10.041
68475W        W39075  16.335   3.329  10.798
68476W        W39076  41.317  27.666   4.196
68477W        W39077  15.803  39.450   1.788
68478W        W39078  37.020   3.807  11.487
68479W        W39079  12.522  17.314   3.833
68480W        W39080  24.970  11.265   0.796
68481W        W39081  39.967  19.025  14.298
68482W        W39082  13.698  26.900   0.941
68483W        W39083   2.152  37.462   9.862
68484W        W39084  36.985  35.416   3.744
68485W        W39085   6.286   4.733  12.337
68486W        W39086  10.380  33.035   0.788
68487W        W39087  30.105   5.257   1.735
68488W        W39088   0.500  43.382  11.011
68489W        W39089  32.421  31.347  10.973
68490W        W39090  21.436  10.414   2.147
68491W        W39091  14.478  23.849   9.936
68492W        W39092  30.915  31.000   1.655
68493W        W39093   5.795  39.370   3.877
68494W        W39094  29.572  15.798  10.253
68495W        W39095  41.053   0.961  11.701
68496W        W39096  13.593  17.711   3.190
68497W        W39097  40.458  39.311   3.317
68498W        W39098   5.251  12.663  12.826
68499W        W39099  30.041   8.341   4.506
68500W        W39100  28.559  23.515   2.330
68501W        W39101  37.992  25.576  11.137
68502W        W39102   9.438  33.408  13.488
68503W        W39103   0.853  40.869   4.763
68504W        W39104   5.368  35.170   2.264
68505W        W39105  30.862  11.296  12.394
68506W        W39106  32.167  41.745   0.341
68507W        W39107  36.332   9.401  12.406
68508W        W39108  30.526  32.603  13.083
68509W        W39109  29.498   5.936   3.092
68510W        W39110  33.402  35.877   4.436
68511W        W39111  29.916  22.052  14.511
68512W        W39112  42.596  33.983   1.207
68513W        W39113  43.251  26.475  11.940
68514W        W39114   3.094  19.058   0.202
68515W        W39115  26.004  30.968  10.501
68516W        W39116  32.242  39.432  14.188
68517W        W39117  29.922   9.228  11.607
68518W        W39118  40.882  17.111  10.484
68519W        W39119  42.443  29.313   2.743
68520W        W39120  21.627   0.332  12.535
68521W        W39121  11.847  30.551  10.763
68522W        W39122  10.988  35.443   4.105
68523W        W39123  26.158  19.956   0.966
68524W        W39124  41.561   3.639  11.838
68525W        W39125  26.398   6.186   1.530
68526W        W39126  42.431  27.868   4.583
68527W        W39127   1.692   3.419  10.756
68528W        W39128  25.522  38.951   4.494
68529W        W39129  20.243  14.708   3.080
68530W        W39130  18.913   4.841  12.962
68531W        W39131   3.310  12.751  10.790
68532W        W39132  19.777  41.109   0.558
68533W        W39133   8.878   4.370  11.995
68534W        W39134  19.998   7.570   0.314
68535W        W39135  37.654  34.898  12.830
68536W        W39136  17.625  12.206  12.861
68537W        W39137  40.349  15.416  11.593
68538W        W39138  30.692  21.518  14.382
68539W        W39139  29.168   2.684   4.135
68540W        W39140  10.354  38.174  10.618
68541W        W39141   2.444  14.233  13.290
68542W        W39142  10.401   1.613  11.592
68543W        W39143  27.029  14.595  11.408
68544W        W39144  12.986   7.286   2.691
68545W        W39145  24.505  37.013   0.940
68546W        W39146  38.475  40.384   3.462
68547W        W39147  14.004  41.030  13.089
68548W        W39148  25.536  41.786   0.483
68549W        W39149  15.309  20.486   1.753
68550W        W39150  23.208   2.982  11.714
68551W        W39151  31.496  40.117   1.154
68552W        W39152  30.414  35.566  14.881
68553W        W39153  25.558  20.733  14.958
68554W        W39154  14.078  34.550   2.666
68555W        W39155  18.953  15.741  11.609
68556W        W39156  11.136  14.503   1.753
68557W        W39157  36.923  29.681   1.703
68558W        W39158  24.956  25.457  10.717
68559W        W39159  13.760  30.472   0.135
68560W        W39160  32.528  43.115   3.571
68561W        W39161  37.753  10.690   3.953
68562W        W39162  10.249  19.499  14.009
68563W        W39163  12.788  23.144   4.435
68564W        W39164  36.810   1.199   0.150
68565W        W39165  11.266   7.631  10.924
68566W        W39166  25.566  24.366  13.474
68567W        W39167  11.305   5.202  13.784
68568W        W39168  44.594   5.516   0.069
68569W        W39169   0.929  36.405   2.337
68570W        W39170  36.331  22.232   3.163
68571W        W39171  33.225  26.377   2.713
68572W        W39172  37.938  22.231  11.439
68573W        W39173  44.723   6.283  10.519
68574W        W39174  25.616  14.171  12.322
68575W        W39175   8.226  30.366   2.203
68576W        W39176  41.352  14.557  14.395
68577W        W39177  13.622  31.816   1.432
68578W        W39178   4.342  17.200  11.208
68579W        W39179  38.648  31.088  12.371
68580W        W39180  22.607  41.741   5.000
68581W        W39181  12.809  31.835  14.946
68582W        W39182   0.423   1.400  14.024
68583W        W39183   8.678  10.054  14.822
68584W        W39184  20.922   6.222   0.334
68585W        W39185  22.461   6.426  11.072
68586W        W39186  34.035  10.740  12.437
68587W        W39187  38.291  36.675  13.415
68588W        W39188  24.912  18.146   0.286
68589W        W39189  34.463  14.756   1.326
68590W        W39190  11.545  25.481  14.535
68591W        W39191  14.383  36.926   3.838
68592W        W39192  14.569  14.092   0.466
68593W        W39193  42.011  15.622   0.490
68594W        W39194  21.261   9.777   0.498
68595W        W39195  15.445  11.015  10.706
68596W        W39196  11.628  39.722  11.656
68597W        W39197  31.801  29.922  14.304
68598W        W39198  43.416  25.438   4.658
68599W        W39199  32.442  36.939   4.100
68600W        W39200  27.029   2.645   4.239
68601W        W39201   4.198  28.068   0.958
68602W        W39202  18.648  11.586   1.375
68603W        W39203  19.236  44.302   0.006
68604W        W39204  17.995   8.893   1.156
68605W        W39205  41.510  15.588  14.553
68606W        W39206  42.820   9.777   2.405
68607W        W39207  13.490  38.795   4.174
68608W        W39208   1.211  32.139  12.650
68609W        W39209  36.854  25.784  14.373
68610W        W39210  18.043  20.543  13.019
68611W        W39211  17.073   3.073  13.300
68612W        W39212  34.080   0.765   2.167
68613W        W39213  22.750  43.429  12.472
68614W        W39214  33.737   5.371   2.275
68615W        W39215  39.782  24.540   2.792
68616W        W39216  21.496  13.294  12.326
68617W        W39217  18.123  12.059  10.406
68618W        W39218  15.651  29.589   0.936
68619W        W39219  29.593  19.141  11.632
68620W        W39220  11.116  37.044   2.781
68621W        W39221  12.227   9.994  12.830
68622W        W39222  36.406  39.701  13.383
68623W        W39223  12.092   2.824   1.468
68624W        W39224  44.109   8.439   1.283
68625W        W39225   1.252  18.835   0.928
68626W        W39226  41.670   1.639  14.980
68627W        W39227   1.782  18.458   4.548
68628W        W39228  13.179   9.072  11.542
68629W        W39229  29.507   7.271   1.056
68630W        W39230  19.355  37.902   1.340
68631W        W39231  36.882   5.736  11.817
68632W        W39232  19.287  14.368  13.482
68633W        W39233  25.081  15.287   1.408
68634W        W39234  10.136  12.829   1.380
68635W        W39235   9.410  41.297  14.857
68636W        W39236  23.646  24.702   3.666
68637W        W39237  21.558  21.586  12.958
68638W        W39238  27.964  27.444   1.143
68639W        W39239   1.026   3.930  13.373
68640W        W39240   5.531   6.301   2.129
68641W        W39241  32.022  37.920  14.194
68642W        W39242  25.553  10.495   3.074
68643W        W39243  26.148   7.444   4.631
68644W        W39244   4.942  19.159  11.481
68645W        W39245  44.414  39.447  10.115
68646W        W39246  41.943  34.843   4.922
68647W        W39247  33.073  12.628  13.850
68648W        W39248   7.938   0.729   2.848
68649W        W39249  25.487  21.526   1.297
68650W        W39250  40.799   7.075  12.425
68651W        W39251  30.140  31.866   5.154
68652W        W39252  43.457  20.743  13.362
68653W        W39253  31.623  20.933   1.798
68654W        W39254  28.562  19.102  13.108
68655W        W39255   2.293  35.554   3.309
68656W        W39256  33.708  41.023  14.399
68657W        W39257  21.178  23.000   3.195
68658W        W39258  43.892   1.913  13.006
68659W        W39259  34.121  31.567  11.913
68660W        W39260  38.802  23.681  13.443
68661W        W39261   5.062  13.046   4.691
68662W        W39262  22.816  35.078   4.531
68663W        W39263  35.615   9.654   2.064
68664W        W39264  21.645  21.555   4.718
68665W        W39265  25.506   9.952  13.532
68666W        W39266  24.182  18.007  11.097
68667W        W39267   0.364  44.936  11.646
68668W        W39268   5.187  33.452  12.889
68669W        W39269  37.857   3.762   2.258
68670W        W39270  41.109  12.186  12.877
68671W        W39271  17.737  43.945   1.414
68672W        W39272  21.735  12.292   3.409
68673W        W39273  18.199  26.987  12.506
68674W        W39274  23.921  11.833   2.583
68675W        W39275  12.596   6.327  14.845
68676W        W39276  35.865   1.337  14.380
68677W        W39277  21.333  41.940   0.750
68678W        W39278   6.378   8.252  12.910
68679W        W39279  29.138  27.043   1.801
68680W        W39280   2.717   2.947  11.156
68681W        W39281  31.592  38.547  13.679
68682W        W39282   5.314  32.102   1.329
68683W        W39283   8.882  39.988  11.471
68684W        W39284   9.714  40.293   3.608
68685W        W39285  37.829  42.806   3.698
68686W        W39286  27.384  43.366   0.679
68687W        W39287   8.864  41.755  13.880
68688W        W39288  33.541  26.399  12.876
68689W        W39289  40.657  13.272  11.818
68690W        W39290  23.733  43.334   0.706
68691W        W39291   8.344  39.963  14.005
68692W        W39292  37.421   1.479  13.290
68693W        W39293  44.330  36.321   3.924
68694W        W39294  33.955  40.974   3.237
68695W        W39295  44.910  38.589  10.218
68696W        W39296   6.975  37.318   4.023
68697W        W39297  11.479  30.802   0.836
68698W        W39298   7.816  40.332  13.052
68699W        W39299  29.672  26.957  12.922
68700W        W39300   5.284  30.410   4.777
68701W        W39301  21.240   8.009  12.489
68702W        W39302   9.845  25.506  13.311
68703W        W39303  34.109  32.574   2.287
68704W        W39304  34.659  42.735   2.562
68705W        W39305  16.061  11.647   2.860
68706W        W39306  35.860   2.185  12.852
68707W        W39307  12.235  35.303  10.689
68708W        W39308  28.599  44.930  11.896
68709W        W39309  15.800  10.106   3.195
68710W        W39310  32.436  37.983   1.159
68711W        W39311  12.588  40.084  11.684
68712W        W39312   6.621  13.786  11.582
68713W        W39313  23.734  38.043  12.996
68714W        W39314  16.822  23.162   1.218
68715W        W39315  11.830  27.157  10.710
68716W        W39316  21.227  43.074  11.149
68717W        W39317  35.609  19.555   2.439
68718W        W39318  22.225   0.219   1.701
68719W        W39319   3.524  38.248   1.952
68720W        W39320  29.511  39.853   0.474
68721W        W39321  12.266   1.977  11.679
68722W        W39322   1.803  41.061   2.461
68723W        W39323   6.729  40.025   0.349
68724W        W39324   3.307   8.875  14.039
68725W        W39325   9.429  13.055   1.276
68726W        W39326  24.794   8.539   3.214
68727W        W39327  28.137  14.562   1.829
68728W        W39328   8.738  44.001  13.400
68729W        W39329  14.207  31.554   4.404
68730W        W39330  40.410  41.880   3.682
68731W        W39331  36.689  39.922  12.135
68732W        W39332  30.339  11.291  12.537
68733W        W39333  43.881  37.853   4.363
68734W        W39334  36.003  22.144  13.621
68735W        W39335  11.859  44.870  11.469
68736W        W39336  33.150  27.462  12.398
68737W        W39337  16.086  41.002   0.220
68738W        W39338  22.387   3.404   3.228
68739W        W39339   9.790   0.464   4.159
68740W        W39340  34.482  20.943   3.715
68741W        W39341  11.372  15.720  13.057
68742W        W39342  27.067  32.993   4.310
68743W        W39343  22.694  40.748   4.134
68744W        W39344  13.139  44.904   1.350
68745W        W39345   5.928   0.813  11.692
68746W        W39346  26.474  24.804  13.831
68747W        W39347  27.861  25.953  14.275
68748W        W39348  24.170  38.082  11.222
68749W        W39349  15.771  27.064   4.254
68750W        W39350  10.224   7.192   2.286
68751W        W39351  11.133   4.180   3.837
68752W        W39352   3.015  21.138   1.548
68753W        W39353  20.291  23.224  14.304
68754W        W39354   3.941  17.229   4.234
68755W        W39355  42.338  20.565  14.304
68756W        W39356  14.150  42.857   3.396
68757W        W39357  40.050  14.782   2.371
68758W        W39358  28.865  24.550   0.281
68759W        W39359  14.759  30.671   2.164
68760W        W39360  27.547   0.499   4.589
68761W        W39361  26.007  15.361   0.362
68762W        W39362  32.343  10.261   2.548
68763W        W39363  40.935  19.075   3.692
68764W        W39364  17.035  17.313   1.908
68765W        W39365  31.182  33.806   0.222
68766W        W39366   3.187   1.195   0.942
68767W        W39367  19.671  19.609  11.359
68768W        W39368  28.619  33.089  10.885
68769W        W39369   4.356   3.148   4.225
68770W        W39370  42.720  20.933   4.032
68771W        W39371  29.965  18.289   1.288
68772W        W39372   0.274  32.553  14.930
68773W        W39373  13.305  31.307   0.293
68774W        W39374  37.972  15.118  12.181
68775W        W39375  13.165  34.419  11.135
68776W        W39376  14.262  20.984   0.772
68777W        W39377  39.349  31.285  11.608
68778W        W39378  24.496  22.711   1.192
68779W        W39379  18.718  15.797   3.373
68780W        W39380  36.949   3.405  11.182
68781W        W39381  40.634  34.877   0.963
68782W        W39382  25.102  36.423  10.756
68783W        W39383  26.692  44.854  14.409
68784W        W39384   0.045  28.081  13.554
68785W        W39385  24.707  40.256  12.865
68786W        W39386  24.225  12.618   9.826
68787W        W39387  44.168  29.927   1.390
68788W        W39388  23.522   4.830  14.037
68789W        W39389   7.189  10.087  14.848
68790W        W39390  34.934   5.719   4.628
68791W        W39391  34.125  41.898   2.894
68792W        W39392  22.120  35.506   3.066
68793W        W39393  14.101  29.418   1.479
68794W        W39394  27.923  17.351   1.502
68795W        W39395  32.529  30.946   0.886
68796W        W39396  36.427  12.077   0.437
68797W        W39397  40.408  19.388  12.598
68798W        W39398  16.032  29.484   2.280
68799W        W39399  17.254   1.714   3.636
68800W        W39400  39.447   7.262   2.101
68801W        W39401  10.745   6.621   0.345
68802W        W39402   3.959  36.535  11.540
68803W        W39403  37.082   6.807  14.109
68804W        W39404  28.649  13.240  12.501
68805W        W39405  40.901   9.752  11.202
68806W        W39406   3.277  29.031  12.996
68807W        W39407  13.273   1.448   2.479
68808W        W39408  11.901  32.509  12.300
68809W        W39409  12.194   9.619  12.048
68810W        W39410  39.446  36.638   4.617
68811W        W39411  30.365  38.035   2.215
68812W        W39412  20.972  41.263   1.963
68813W        W39413  43.451  34.951   3.487
68814W        W39414  43.468  11.789  10.913
68815W        W39415   4.708  44.326   0.291
68816W        W39416  19.016   5.375   3.776
68817W        W39417   5.370  34.851   1.870
68818W        W39418  21.330  29.593  14.817
68819W        W39419   3.756   7.132  12.962
68820W        W39420  17.522  42.918   1.836
68821W        W39421  26.471  27.190   2.856
68822W        W39422  14.843  39.452  14.756
68823W        W39423  14.353   7.168  13.615
68824W        W39424   1.007  22.850   1.955
68825W        W39425  43.186  25.613  13.049
68826W        W39426  10.103   4.135  10.421
68827W        W39427  18.304  39.990  13.875
68828W        W39428   5.950  22.088   3.794
68829W        W39429  10.714  28.158   2.626
68830W        W39430  25.935   0.994  14.130
68831W        W39431   6.955  41.105  14.289
68832W        W39432  38.863  38.027   2.452
68833W        W39433  20.766  20.137   4.192
68834W        W39434  31.058  11.262   3.717
68835W        W39435  36.820  41.612   0.983
68836W        W39436  33.130  33.382   1.416
68837W        W39437   3.475  17.368  11.238
68838W        W39438  12.598  15.719   1.446
68839W        W39439  33.355  44.927  12.001
68840W        W39440  33.025   8.912  13.552
68841W        W39441   9.022  16.578  12.490
68842W        W39442  32.543  44.670  11.561
68843W        W39443  28.714  35.822  12.490
68844W        W39444  19.815  10.635  12.382
68845W        W39445  35.424   6.279  11.942
68846W        W39446  43.448  25.510  11.651
68847W        W39447   8.755  22.338  13.668
68848W        W39448  20.058   0.547   4.175
68849W        W39449   0.262  30.566  14.075
68850W        W39450  23.049   1.511   5.009
68851W        W39451  32.379  41.831   1.586
68852W        W39452  31.055  11.804   0.680
68853W        W39453  20.960   8.650   1.681
68854W        W39454   9.951  12.729  12.358
68855W        W39455  14.836  12.231  10.678
68856W        W39456  23.895  18.321   1.050
68857W        W39457  30.895  38.515   2.867
68858W        W39458   3.292  31.050   1.526
68859W        W39459   6.970  43.726  13.081
68860W        W39460  38.367   8.088  10.972
68861W        W39461  22.071  13.845   2.637
68862W        W39462  12.218  39.262   1.947
68863W        W39463  34.779  42.889   5.146
68864W        W39464  32.335  13.366  13.841
68865W        W39465  34.044   6.402   3.778
68866W        W39466   2.295  15.850   3.162
68867W        W39467   8.624   9.479   0.022
68868W        W39468   6.454  39.617  13.389
68869W        W39469  40.438   1.154   5.044
68870W        W39470  16.597   1.500  12.479
68871W        W39471   7.912  17.484  11.047
68872W        W39472  16.142   7.014   2.465
68873W        W39473   2.805  28.761   4.612
68874W        W39474  17.355  41.240   1.309
68875W        W39475  19.006  44.611  11.533
68876W        W39476  34.371  24.533  14.817
68877W        W39477  32.878  21.578  10.787
68878W        W39478  10.771   6.326   2.093
68879W        W39479   6.140  21.247  11.724
68880W        W39480  25.320  18.694  14.456
68881W        W39481  36.530  44.957  14.460
68882W        W39482  25.968  28.213  11.133
68883W        W39483  26.165  24.907   0.037
68884W        W39484  17.853  36.453  13.083
68885W        W39485  39.129  14.247  14.165
68886W        W39486   3.047  19.091   1.491
68887W        W39487  20.616  23.064   3.180
68888W        W39488   3.182  24.249  10.790
68889W        W39489  10.675  38.602  11.041
68890W        W39490  11.160  31.308   4.509
68891W        W39491  31.567   4.885  14.489
68892W        W39492  23.377   9.012   0.794
68893W        W39493   9.158  28.604  10.747
68894W        W39494  19.550  37.480   0.175
68895W        W39495  22.644  19.494  13.750
68896W        W39496  33.281  12.878  13.413
68897W        W39497  38.769  32.493   2.202
68898W        W39498  27.898   5.899   4.322
68899W        W39499  20.320  19.547  10.513
68900W        W39500  25.448  32.702   2.126
68901W        W39501  32.641  24.575  12.807
68902W        W39502  37.729  42.978   3.216
68903W        W39503   0.242   9.999   0.233
68904W        W39504  21.664  22.544   2.280
68905W        W39505  43.832  11.947   1.670
68906W        W39506   6.001  37.586   4.223
68907W        W39507  16.710   3.871   4.542
68908W        W39508   8.981  15.985   1.406
68909W        W39509   3.103  35.212   4.986
68910W        W39510   5.514  16.026   1.186
68911W        W39511  27.410  25.688   3.303
68912W        W39512  18.634   9.713  11.466
68913W        W39513  33.515  29.351   4.561
68914W        W39514  32.975  35.884  12.893
68915W        W39515  44.377  23.948  13.040
68916W        W39516  21.412  26.828   3.618
68917W        W39517  25.452   6.389   3.249
68918W        W39518   2.849  42.241   1.140
68919W        W39519  40.123  39.505  11.057
68920W        W39520   8.129  41.893  11.208
68921W        W39521  41.723  41.141   1.365
68922W        W39522  33.129  31.578   3.093
68923W        W39523  27.654  25.446   4.802
68924W        W39524  11.374  39.904  13.920
68925W        W39525  21.556  10.687  12.361
68926W        W39526  19.311  13.146   0.270
68927W        W39527  11.391   1.019  13.058
68928W        W39528   2.789  21.601   4.780
68929W        W39529  39.005  18.068   0.769
68930W        W39530  15.395  10.792   4.067
68931W        W39531  33.858   5.310   1.427
68932W        W39532   2.709   9.837   0.448
68933W        W39533  31.557  29.465   0.748
68934W        W39534   8.657  43.220  13.836
68935W        W39535  17.284  39.310  11.152
68936W        W39536   6.887   0.718   3.666
68937W        W39537  29.314  37.554   4.798
68938W        W39538  38.556  31.504   1.890
68939W        W39539  14.395  23.470   0.356
68940W        W39540  18.261  13.778  13.790
68941W        W39541   4.921  19.365  14.458
68942W        W39542  22.044  33.056  10.720
68943W        W39543  43.581  31.944  14.612
68944W        W39544   8.738  16.964  13.438
68945W        W39545  39.657   0.119  11.035
68946W        W39546  26.489  13.721  12.390
68947W        W39547  19.503  10.358  10.691
68948W        W39548  10.286  35.669   1.810
68949W        W39549  35.791  38.805  10.647
68950W        W39550  37.547  10.631  11.244
68951W        W39551   7.787  22.235   0.207
68952W        W39552   2.286  25.714  11.538
68953W        W39553  24.313  28.558  14.631
68954W        W39554  19.722   9.820   4.103
68955W        W39555  31.121  14.028   2.192
68956W        W39556  27.423   1.346   0.776
68957W        W39557  16.483  44.238   3.327
68958W        W39558  37.494  18.345  13.483
68959W        W39559  12.639  12.360  12.019
68960W        W39560  43.800  34.544  10.371
68961W        W39561  17.974   3.191   0.725
68962W        W39562  38.070  44.255   0.799
68963W        W39563  35.466  30.414  11.925
68964W        W39564  15.136  17.824  12.391
68965W        W39565  25.144  20.397  14.734
68966W        W39566  35.142  19.723   1.911
68967W        W39567   0.108  14.574  10.872
68968W        W39568  17.206   7.211  12.604
68969W        W39569  15.019  11.803  12.790
68970W        W39570  44.545  17.401  10.312
68971W        W39571  38.368  15.020   1.222
68972W        W39572  34.876  24.780  14.103
68973W        W39573  22.255   0.773  12.459
68974W        W39574  12.435  19.336   2.305
68975W        W39575   4.241  20.057  14.553
68976W        W39576  20.598  42.067  12.845
68977W        W39577   7.352  44.184   3.175
68978W        W39578  25.198  39.959  10.733
68979W        W39579  31.840   5.766  11.562
68980W        W39580  35.031   8.928  10.263
68981W        W39581  32.821  42.994   3.152
68982W        W39582  22.545   6.825  12.850
68983W        W39583   3.390   6.299  10.807
68984W        W39584  38.831   5.766  14.833
68985W        W39585   9.204  19.447  11.052
68986W        W39586  12.768  19.387   4.450
68987W        W39587  38.358  32.087  12.084
68988W        W39588  17.522  27.743  13.672
68989W        W39589  14.295  32.495   0.891
68990W        W39590  19.131  23.182  12.944
68991W        W39591   4.350  19.080   0.661
68992W        W39592  15.791  22.230   3.155
68993W        W39593  38.059  41.986   3.236
68994W        W39594  19.831  35.572   3.773
68995W        W39595  17.883  33.806  14.197
68996W        W39596  44.106   7.388  10.498
68997W        W39597  37.608  39.966   1.964
68998W        W39598  27.009   1.269   2.899
68999W        W39599  38.406   3.510   4.500
69000W        W39600  32.460  42.616   2.193
69001W        W39601  43.376  38.783  11.258
69002W        W39602  30.132   9.466   0.402
69003W        W39603  17.752  44.405   3.928
69004W        W39604  35.566  44.240   2.337
69005W        W39605  37.910  29.624   1.876
69006W        W39606  36.017   2.839   0.765
69007W        W39607  39.289  38.256  12.465
69008W        W39608  38.380   8.837   4.744
69009W        W39609  24.266  16.804  12.775
69010W        W39610  34.636  10.567   2.374
69011W        W39611   0.061  33.433   3.176
69012W        W39612  34.817  23.612   0.244
69013W        W39613  43.945  40.019   2.719
69014W        W39614  19.050   8.838  14.431
69015W        W39615  16.057  17.919  12.455
69016W        W39616  43.276  35.016   2.048
69017W        W39617  27.989   9.751   1.808
69018W        W39618  20.416  40.472   1.836
69019W        W39619   5.161  27.974  10.690
69020W        W39620  23.743  21.017  13.472
69021W        W39621  21.663  18.504   1.732
69022W        W39622  23.494  28.575  10.926
69023W        W39623  33.084  25.270  14.501
69024W        W39624  13.793  44.464  14.754
69025W        W39625   7.449  33.062   0.841
69026W        W39626  21.480   4.689   1.295
69027W        W39627  32.616  41.027  12.989
69028W        W39628  43.856  22.363  12.084
69029W        W39629  24.141   0.225  14.420
69030W        W39630  17.052  30.432   4.173
69031W        W39631  44.243  39.001  12.238
69032W        W39632  40.510  25.481   2.672
69033W        W39633  42.791  27.422   0.745
69034W        W39634  33.943  15.860   0.488
69035W        W39635  16.299  21.724  13.164
69036W        W39636  29.868  19.825   4.145
69037W        W39637  32.043   7.959  11.075
69038W        W39638  36.109  36.915  11.008
69039W        W39639   6.472  17.184  12.104
69040W        W39640  28.021  36.477   3.352
69041W        W39641   6.697  20.499   3.840
69042W        W39642  43.593   1.816  14.034
69043W        W39643  15.679  41.242   2.887
69044W        W39644  16.657   7.430   1.480
69045W        W39645   9.305  44.817   1.229
69046W        W39646  15.715  26.403   3.179
69047W        W39647  36.355  22.192  14.032
69048W        W39648  41.915  17.381   4.258
69049W        W39649  23.669  18.502  11.527
69050W        W39650  18.235  19.627   4.690
69051W        W39651  21.810  28.622   2.916
69052W        W39652  24.335   8.712   4.043
69053W        W39653   9.378  41.026  11.069
69054W        W39654  21.074  14.544  10.319
69055W        W39655  39.824  31.005   4.404
69056W        W39656   3.380  11.086   2.259
69057W        W39657   7.950  16.744   4.622
69058W        W39658  28.507   3.206  13.355
69059W        W39659  26.591  17.371  11.627
69060W        W39660   9.750  13.639   0.476
69061W        W39661  33.962  28.757  13.954
69062W        W39662  12.354  22.043   0.534
69063W        W39663  16.417  18.721  12.106
69064W        W39664  12.188  41.160   3.685
69065W        W39665  33.015  11.051   2.402
69066W        W39666  37.842   7.966   4.577
69067W        W39667  31.718  27.985   0.799
69068W        W39668  14.045   2.855  10.648
69069W        W39669  16.571   5.403  10.874
69070W        W39670  32.783  35.039  12.446
69071W        W39671  18.558  28.535   3.814
69072W        W39672  14.699  17.857  12.066
69073W        W39673  43.344  27.623   4.131
69074W        W39674  22.247  28.653  14.525
69075W        W39675  18.123  17.713   2.720
69076W        W39676  31.806  27.126   2.215
69077W        W39677  23.157   0.436  14.538
69078W        W39678  33.076  14.719   3.064
69079W        W39679  10.569  37.403   0.006
69080W        W39680  31.445  16.858  13.520
69081W        W39681  35.090  32.093  10.798
69082W        W39682  10.429   9.360   3.837
69083W        W39683  16.540  42.948   1.719
69084W        W39684  22.540   8.821  11.162
69085W        W39685   4.359  28.962   4.095
69086W        W39686  39.934  34.011  13.074
69087W        W39687   8.331  14.048  12.444
69088W        W39688   3.792  22.805   3.798
69089W        W39689  41.107  16.282  11.708
69090W        W39690   3.422  44.520  12.488
69091W        W39691   3.214  10.691  13.527
69092W        W39692  29.646  42.926   0.608
69093W        W39693  33.796  16.500   1.026
69094W        W39694  23.113  31.374   0.911
69095W        W39695   3.299   4.017  14.375
69096W        W39696  19.221  32.110  12.157
69097W        W39697   4.443   3.977   4.614
69098W        W39698  17.198  17.600  12.957
69099W        W39699   3.788  32.810   3.901
69100W        W39700  25.925  11.196   1.818
69101W        W39701  21.337   8.030  13.353
69102W        W39702   8.980  38.337  13.341
69103W        W39703  27.787  31.533  10.715
69104W        W39704  29.092  28.408   0.054
69105W        W39705  25.203   7.853   4.513
69106W        W39706  24.524  33.470  10.757
69107W        W39707   1.228  29.514  11.874
69108W        W39708  34.477  30.149   4.752
69109W        W39709  29.627  19.751   2.653
69110W        W39710  27.605  30.967  14.788
69111W        W39711  29.648  42.888  11.982
69112W        W39712  28.667  34.375  13.571
69113W        W39713  37.581   0.488   2.120
69114W        W39714  13.302   7.281   2.272
69115W        W39715  11.592  11.834  12.433
69116W        W39716  25.402  23.082   0.969
69117W        W39717   8.191   4.431   1.734
69118W        W39718  16.646  37.060  11.414
69119W        W39719   9.757   8.698  13.529
69120W        W39720  19.794  41.969   0.014
69121W        W39721  12.645  21.951  11.709
69122W        W39722  13.644  32.112   4.645
69123W        W39723   0.776   3.845   2.890
69124W        W39724  14.362   9.526   3.291
69125W        W39725  12.892   7.233  11.520
69126W        W39726  44.341  29.579  13.832
69127W        W39727  44.263   7.261  12.157
69128W        W39728  27.477  42.033   2.363
69129W        W39729  20.027  17.130   4.145
69130W        W39730  12.392  17.564  10.682
69131W        W39731  16.945  23.511   4.200
69132W        W39732  21.256  13.048  11.964
69133W        W39733  24.526  12.865  10.550
69134W        W39734  39.114  16.833  13.996
69135W        W39735  41.869  29.939  14.707
69136W        W39736   9.744  44.759   0.448
69137W        W39737  38.429  30.656  12.644
69138W        W39738  36.616   1.144   0.681
69139W        W39739  30.420  31.458   2.410
69140W        W39740   3.550  17.149   0.880
69141W        W39741  42.514   6.717  12.049
69142W        W39742  36.418   9.910  14.454
69143W        W39743   6.276   2.715   1.029
69144W        W39744  21.726  27.931  12.054
69145W        W39745  34.997  42.116  13.034
69146W        W39746  23.719  29.106  13.655
69147W        W39747  39.584  31.998  12.381
69148W        W39748  36.974  36.912   2.816
69149W        W39749   1.895  35.087  11.546
69150W        W39750  44.714  28.241  14.383
69151W        W39751  12.198   3.022   3.255
69152W        W39752  30.281  18.061   0.930
69153W        W39753   6.247  34.437   4.032
69154W        W39754  22.743  35.586  13.111
69155W        W39755   4.844  14.051   4.633
69156W        W39756  44.800   0.648  10.579
69157W        W39757  38.033   0.409  13.784
69158W        W39758  37.798  35.592  12.576
69159W        W39759   4.192   2.798  12.939
69160W        W39760  32.423  30.851  11.151
69161W        W39761  21.089  27.714  13.451
69162W        W39762  39.240  29.112   4.078
69163W        W39763  23.722  31.904   1.856
69164W        W39764  20.481   7.174   2.611
69165W        W39765  36.476  26.732   0.747
69166W        W39766  26.004  25.457   0.910
69167W        W39767  44.690  40.824  13.986
69168W        W39768  20.768   3.693  13.371
69169W        W39769   8.766  20.766   4.912
69170W        W39770  18.281   4.793  14.783
69171W        W39771   1.426  29.050  13.558
69172W        W39772  10.273  25.935   1.377
69173W        W39773  35.126  11.301  14.442
69174W        W39774  44.514  24.697  14.293
69175W        W39775  24.824  13.879  11.372
69176W        W39776  32.981  38.463  14.231
69177W        W39777  22.513  33.855   2.138
69178W        W39778  33.749   4.852  13.251
69179W        W39779  32.363  15.103   2.178
69180W        W39780  24.448  25.584  10.656
69181W        W39781  15.848  43.051   0.270
69182W        W39782  41.409   6.867  14.262
69183W        W39783  27.927   6.280   4.713
69184W        W39784  33.350  26.082  10.601
69185W        W39785  24.102  39.363  12.594
69186W        W39786   3.231  17.043  10.937
69187W        W39787  16.134  18.304   4.478
69188W        W39788  16.552  18.013   1.684
69189W        W39789  20.489   8.212   3.525
69190W        W39790  41.827  33.992  13.457
69191W        W39791  15.145  21.209   2.405
69192W        W39792   2.959  20.223  13.389
69193W        W39793   0.760  33.531  10.102
69194W        W39794   1.878  38.987  13.741
69195W        W39795  32.034  44.282   2.784
69196W        W39796  14.047   9.612   3.724
69197W        W39797  43.774   8.208  14.424
69198W        W39798  33.542  29.220  14.871
69199W        W39799  31.093  16.327  12.324
69200W        W39800  24.043   0.901   4.556
69201W        W39801  25.662  30.446  14.289
69202W        W39802   3.576  11.248  12.376
69203W        W39803   9.313  22.676   0.414
69204W        W39804   9.412   8.268  14.040
69205W        W39805  43.207  33.258  10.025
69206W        W39806   7.210  31.780   2.789
69207W        W39807  28.444  29.111  12.536
69208W        W39808   6.310  15.478  12.479
69209W        W39809  41.742  15.449  12.652
69210W        W39810   1.791  10.215   4.196
69211W        W39811  25.153  19.767  11.158
69212W        W39812  25.205  21.047   1.207
69213W        W39813  42.974  39.935  11.165
69214W        W39814  13.374  42.419  14.897
69215W        W39815   7.954  20.784  13.759
69216W        W39816  12.136  37.593   4.078
69217W        W39817  40.262  40.482   0.460
69218W        W39818  28.990  41.058   1.414
69219W        W39819  21.140  39.681  14.279
69220W        W39820  35.432  11.329  12.227
69221W        W39821  21.632  32.945   3.658
69222W        W39822  24.692  42.411  12.653
69223W        W39823   6.690   0.681   3.163
69224W        W39824  17.222   2.977  14.680
69225W        W39825  25.680  44.333  11.985
69226W        W39826   8.772   4.463   4.861
69227W        W39827  35.416  27.269   4.029
69228W        W39828  23.054  26.488  10.811
69229W        W39829  40.720   1.408  14.828
69230W        W39830   1.346  40.260   2.282
69231W        W39831  26.454  14.886  13.586
69232W        W39832  29.790  20.784  14.866
69233W        W39833  40.602  24.234   4.060
69234W        W39834  14.968  10.662  14.667
69235W        W39835  13.189  11.786   1.688
69236W        W39836  23.667  23.447   4.521
69237W        W39837  31.501   9.705  14.291
69238W        W39838  34.613   7.197   1.384
69239W        W39839   6.728  24.463  11.191
69240W        W39840  41.453  25.688   0.080
69241W        W39841   0.675  40.357   5.377
69242W        W39842  23.950   3.919  11.945
69243W        W39843  42.246  29.275  13.084
69244W        W39844   2.789  34.980   0.031
69245W        W39845  26.512  34.603  13.031
69246W        W39846   5.039  43.068  11.562
69247W        W39847   3.189  42.700   1.047
69248W        W39848  23.541  12.109  12.452
69249W        W39849  41.876   1.137  14.875
69250W        W39850  32.854  33.616   3.321
69251W        W39851  22.563   6.248  10.190
69252W        W39852  44.444  23.617   4.703
69253W        W39853   8.642  31.180  14.129
69254W        W39854  17.839  33.963  12.019
69255W        W39855  41.152  27.494  12.989
69256W        W39856   2.479  29.408  11.111
69257W        W39857   7.682  13.060  10.566
69258W        W39858   5.184   3.392   3.323
69259W        W39859   4.617  29.436  11.089
69260W        W39860  26.093  28.087  13.958
69261W        W39861  20.774  42.774   5.108
69262W        W39862  22.878  29.396   4.098
69263W        W39863  32.574  32.623  12.494
69264W        W39864  30.122  17.076   1.784
69265W        W39865  14.724   1.470   4.958
69266W        W39866   1.669   3.454   0.558
69267W        W39867  19.228  28.427   1.636
69268W        W39868  28.661  36.200  14.001
69269W        W39869   9.910   0.365  12.590
69270W        W39870   3.756   7.127  13.881
69271W        W39871  26.497   5.270  13.992
69272W        W39872  18.124  17.856  10.448
69273W        W39873  30.000   4.832  14.921
69274W        W39874  35.709   6.944  14.562
69275W        W39875  40.063  35.309   3.142
69276W        W39876  40.089  44.313  13.054
69277W        W39877  22.173  29.881  14.768
69278W        W39878  17.264  23.976   5.061
69279W        W39879  25.037   7.677   9.974
69280W        W39880  32.601  15.192  10.696
69281W        W39881  44.041  10.607  14.955
69282W        W39882   4.407  30.536  14.089
69283W        W39883  41.521  38.965   2.340
69284W        W39884  20.119  20.271   0.281
69285W        W39885  35.199  14.606   0.739
69286W        W39886  13.487  14.890   0.318
69287W        W39887  13.320  33.041  10.736
69288W        W39888  17.514  11.880  13.270
69289W        W39889  19.201  19.222   3.130
69290W        W39890  39.160   3.346  13.843
69291W        W39891  44.442   0.772   1.918
69292W        W39892  27.184   8.778  11.364
69293W        W39893  30.332  16.896  11.646
69294W        W39894  20.438  33.066  11.923
69295W        W39895   3.356   5.330  13.063
69296W        W39896  38.773  30.858   1.886
69297W        W39897  35.052   3.942   2.272
69298W        W39898  42.361   6.441   0.867
69299W        W39899  13.317  37.918  13.722
69300W        W39900   8.784  17.260   2.237
69301W        W39901  33.684  21.018  12.919
69302W        W39902  35.460  18.773  10.940
69303W        W39903   5.957  40.887   0.449
69304W        W39904  38.302   0.676   0.048
69305W        W39905  42.653  34.574   0.811
69306W        W39906  21.156  12.044   0.826
69307W        W39907  27.953   1.318  13.768
69308W        W39908  44.464  38.516  10.501
69309W        W39909  44.288  12.644  11.561
69310W        W39910  44.284  25.724   2.739
69311W        W39911  11.368  12.246  11.627
69312W        W39912   2.847   0.556  10.971
69313W        W39913   5.824  10.868  12.451
69314W        W39914  42.031  40.476  12.139
69315W        W39915  44.385  16.699   2.147
69316W        W39916  26.895  10.813   3.405
69317W        W39917  19.872  44.824  11.460
69318W        W39918   4.397   3.993  10.961
69319W        W39919   6.326   9.425  11.540
69320W        W39920  37.671  38.777   0.211
69321W        W39921  25.907  19.108  14.355
69322W        W39922  10.101  12.114  13.415
69323W        W39923  43.437  21.691   4.172
69324W        W39924  40.813   2.179  13.483
69325W        W39925  35.048  20.063   2.762
69326W        W39926  34.024  13.674  11.035
69327W        W39927  22.725   2.740  11.932
69328W        W39928  42.280  37.275  13.202
69329W        W39929   4.221  29.152  10.911
69330W        W39930  28.046   7.299   1.005
69331W        W39931  22.202  37.378  12.530
69332W        W39932  38.379  43.438  11.116
69333W        W39933  12.237  43.398  12.157
69334W        W39934  10.719   4.266   0.078
69335W        W39935  23.343  44.726   4.066
69336W        W39936  39.281   0.302  14.327
69337W        W39937   9.495  26.634   1.242
69338W        W39938  37.583  30.980  14.521
69339W        W39939   7.258  20.291  12.494
69340W        W39940  11.566   5.392  10.571
69341W        W39941  22.691  12.601   5.087
69342W        W39942  42.756  19.922  13.301
69343W        W39943  24.513  39.480   1.371
69344W        W39944  18.863  28.137  11.962
69345W        W39945  43.719  20.549   1.836
69346W        W39946  37.872  19.516   1.167
69347W        W39947   9.777  27.180  12.933
69348W        W39948  20.493  32.987   2.703
69349W        W39949  13.091  39.981  10.931
69350W        W39950  10.345  37.102  14.426
69351W        W39951  11.733  43.256  10.718
69352W        W39952   7.724  23.180  10.823
69353W        W39953   3.760  43.468  13.128
69354W        W39954  20.996  22.749   1.416
69355W        W39955  18.641  16.318   2.588
69356W        W39956  32.410  32.891   2.842
69357W        W39957  40.375  40.556   4.752
69358W        W39958   5.237  23.737  12.408
69359W        W39959  24.591   6.100   1.972
69360W        W39960  29.627  20.250   3.252
69361W        W39961  38.626  36.916  13.093
69362W        W39962  42.740  33.631   2.939
69363W        W39963  33.485  20.732   2.304
69364W        W39964  29.554   4.505  12.356
69365W        W39965   8.365   3.710   3.196
69366W        W39966  43.819   7.905   3.239
69367W        W39967  22.810  27.075  12.026
69368W        W39968  35.890  21.520   3.687
69369W        W39969  38.553  37.898  14.011
69370W        W39970  15.853  29.242  12.541
69371W        W39971   3.347   0.344  14.068
69372W        W39972  21.706  38.139   4.209
69373W        W39973  15.126  31.000  13.370
69374W        W39974  24.219  43.451  13.935
69375W        W39975  32.133  20.356  12.909
69376W        W39976  44.348  11.698   2.851
69377W        W39977  28.112  33.593   5.028
69378W        W39978  35.154  25.961   3.932
69379W        W39979  40.054   1.759   1.850
69380W        W39980  14.623  30.155   4.209
69381W        W39981  37.221  26.146  14.390
69382W        W39982   8.289   5.193   3.462
69383W        W39983  29.129  18.837   1.544
69384W        W39984  32.541  30.204   2.317
69385W        W39985  35.934  37.166   3.363
69386W        W39986  32.556   6.779  13.886
69387W        W39987  17.034  43.408   5.109
69388W        W39988   9.751  28.078  14.897
69389W        W39989  36.953  18.808  11.033
69390W        W39990  31.672  38.479   2.331
69391W        W39991  22.560  35.394  12.433
69392W        W39992   9.443  10.017   2.378
69393W        W39993  33.742   3.179  13.671
69394W        W39994  19.780  19.720  12.327
69395W        W39995  13.418  38.468   1.833
69396W        W39996  44.920   1.062   1.937
69397W        W39997  35.919  34.067   2.064
69398W        W39998  31.423  27.870  13.625
69399W        W39999  35.924  32.079  13.666
69400W        W40000   7.352  34.965  14.271
69401W        W40001  16.137  18.767   1.367
69402W        W40002  13.120   1.797   0.249
69403W        W40003   4.954  28.207   0.838
69404W        W40004  28.123  44.932   0.270
69405W        W40005  12.225  12.166   3.212
69406W        W40006  37.456  33.968  12.843
69407W        W40007  22.929  19.088   0.188
69408W        W40008  28.050  36.821  13.008
69409W        W40009  17.229  41.819   3.605
69410W        W40010  23.590  23.535   1.684
69411W        W40011  23.184  25.018  10.714
69412W        W40012  17.160  10.217  12.570
69413W        W40013  24.154  33.964   1.275
69414W        W40014  22.174  39.844  13.896
69415W        W40015   7.216   0.748  12.064
69416W        W40016  23.039  11.719   0.360
69417W        W40017  25.036   7.886  11.397
69418W        W40018   6.478   4.231   1.932
69419W        W40019   8.382   5.829  13.012
69420W        W40020  18.085  28.952  12.096
69421W        W40021  17.664   8.316  12.215
69422W        W40022  20.154  34.063  12.153
69423W        W40023  24.805   4.847  14.346
69424W        W40024  17.472   4.270   2.830
69425W        W40025  39.373  25.823  10.547
69426W        W40026  21.055  19.521  12.569
69427W        W40027  36.628   1.710   0.838
69428W        W40028   1.627   2.199  11.246
69429W        W40029   9.145  43.442   1.257
69430W        W40030  20.185  13.639  13.544
69431W        W40031  20.275  33.022  12.819
69432W        W40032  13.125  34.018   1.162
69433W        W40033  38.552   8.162  14.831
69434W        W40034  23.246  17.737  14.479
69435W        W40035   7.518  40.159  11.077
69436W        W40036  29.073  35.382   2.227
69437W        W40037   6.808  17.195   2.237
69438W        W40038  32.410  37.123   1.279
69439W        W40039  22.799  10.185   1.675
69440W        W40040  29.547  42.729   2.495
69441W        W40041  40.621  17.197  12.983
69442W        W40042   8.661  14.208   4.114
69443W        W40043  16.800  38.035   3.295
69444W        W40044  19.272  17.129  11.594
69445W        W40045  23.042   1.654  12.913
69446W        W40046  25.998   0.652   4.012
69447W        W40047  31.858  25.573  14.827
69448W        W40048  36.075   9.325  11.845
69449W        W40049   9.336  33.870  10.473
69450W        W40050  16.488  26.773   2.196
69451W        W40051   4.478  44.497  12.644
69452W        W40052  11.678  34.555  12.571
69453W        W40053  17.783  37.979   5.149
69454W        W40054  11.225  20.786   2.352
69455W        W40055  14.551  12.615   0.403
69456W        W40056  42.188  41.908  13.499
69457W        W40057   1.799  41.333   2.915
69458W        W40058  39.373  25.412   2.186
69459W        W40059  27.155  39.904  11.098
69460W        W40060  44.674  27.529   1.013
69461W        W40061  15.292   1.833   2.272
69462W        W40062  12.010   6.197   3.572
69463W        W40063  28.260  39.303   0.696
69464W        W40064  33.075  33.944   1.052
69465W        W40065  41.584  23.051   3.936
69466W        W40066  40.816  13.119   1.882
69467W        W40067  12.698  34.914   1.607
69468W        W40068  26.538  11.548  11.307
69469W        W40069  24.139  39.027   3.121
69470W        W40070  17.330  40.010   4.067
69471W        W40071  14.301  43.791   2.204
69472W        W40072  35.271  13.392   4.080
69473W        W40073  27.914  10.170  13.479
69474W        W40074  38.736  16.241  13.024
69475W        W40075  19.141  40.395   4.926
69476W        W40076   0.225  29.146   0.817
69477W        W40077  40.908  36.035   4.397
69478W        W40078  27.913  21.800  12.487
69479W        W40079  30.970  29.134  13.483
69480W        W40080  30.534  20.035  10.736
69481W        W40081   7.788  15.547   4.072
69482W        W40082   9.208  43.518  10.666
69483W        W40083  12.830  16.136  12.630
69484W        W40084  21.778  34.357  11.719
69485W        W40085  12.211  36.566  11.631
69486W        W40086  25.170  40.258  13.997
69487W        W40087  38.217  11.957  13.752
69488W        W40088  44.010  15.164  14.873
69489W        W40089  40.583  35.979   1.400
69490W        W40090  44.987  32.388   4.384
69491W        W40091  26.115  20.922  12.409
69492W        W40092  13.432  36.639  12.911
69493W        W40093  29.089  13.179   1.541
69494W        W40094  18.144   0.271  12.672
69495W        W40095  24.515  44.946   1.261
69496W        W40096  44.911   2.335   2.273
69497W        W40097   2.393  15.636  12.995
69498W        W40098   3.964  15.651  12.459
69499W        W40099  29.678  44.972   2.248
69500W        W40100  13.498  23.514  11.187
69501W        W40101  33.573   3.821  14.905
69502W        W40102  15.663   4.608  14.854
69503W        W40103   7.380   7.030  12.035
69504W        W40104   5.669  33.841  13.489
69505W        W40105  33.165  23.882   4.692
69506W        W40106  22.589  35.999   4.468
69507W        W40107  10.512  28.883   4.688
69508W        W40108   0.792  34.199  10.713
69509W        W40109  19.668  19.744   2.658
69510W        W40110  24.183  24.053  14.379
69511W        W40111   2.853  41.129  10.652
69512W        W40112  18.761   9.224   0.717
69513W        W40113  27.481  13.203  11.696
69514W        W40114  36.943  14.909  13.576
69515W        W40115  34.942  11.638   0.442
69516W        W40116  17.602  16.731   3.902
69517W        W40117   9.836  25.706  14.999
69518W        W40118  18.525  25.955   4.844
69519W        W40119  32.717   2.728  11.976
69520W        W40120  39.382  40.207  11.941
69521W        W40121   8.350  34.995   3.317
69522W        W40122  43.858  11.659   2.138
69523W        W40123  12.732  36.573   3.787
69524W        W40124  22.724  16.616   1.771
69525W        W40125   1.927  10.428   2.165
69526W        W40126  11.851  36.344   2.730
69527W        W40127  16.778  20.545  12.585
69528W        W40128  11.939   7.666  14.838
69529W        W40129   8.780  31.081   2.604
69530W        W40130  44.927  10.420   4.171
69531W        W40131  13.203   2.960   4.603
69532W        W40132  37.377  29.663   1.193
69533W        W40133  21.500   5.371  11.346
69534W        W40134  32.689   8.697  13.220
69535W        W40135  10.099   0.681  13.489
69536W        W40136  21.060   1.305  10.708
69537W        W40137   5.493  27.250  12.613
69538W        W40138  27.031  24.129  13.762
69539W        W40139  14.413  21.183   2.141
69540W        W40140  39.860  39.782   2.636
69541W        W40141  15.353  17.603   3.691
69542W        W40142  29.831  39.291  12.804
69543W        W40143  35.445  15.793   1.319
69544W        W40144  32.491  16.061   1.226
69545W        W40145  24.821  39.488  14.421
69546W        W40146  30.297  30.932  13.021
69547W        W40147  27.936   8.610   2.399
69548W        W40148  29.671  38.988  11.123
69549W        W40149  28.279  25.624   3.041
69550W        W40150  10.706   4.380  13.780
69551W        W40151   7.901  42.922  10.431
69552W        W40152  30.074  28.726   1.289
69553W        W40153  10.609  13.326   2.769
69554W        W40154  14.158   4.838  10.720
69555W        W40155   1.720   7.718  14.241
69556W        W40156  32.029  19.996   1.940
69557W        W40157   3.455  19.232  13.063
69558W        W40158   8.827  21.625   1.767
69559W        W40159  18.135  16.016  11.941
69560W        W40160  34.357  33.986   1.705
69561W        W40161  41.777  11.797   4.587
69562W        W40162  41.930  33.495   1.031
69563W        W40163  28.855  18.130   2.794
69564W        W40164  31.584  41.809  12.970
69565W        W40165  35.549  25.672   3.203
69566W        W40166  26.361   3.417  14.226
69567W        W40167  26.574   1.542   0.884
69568W        W40168   1.249   3.788  13.925
69569W        W40169  32.937  18.215  13.054
69570W        W40170   4.534  18.014   4.338
69571W        W40171  15.000  31.342  11.128
69572W        W40172  23.611  32.383   0.521
69573W        W40173  21.782   9.195   0.758
69574W        W40174  31.186  11.868   3.140
69575W        W40175  23.119   5.976  13.427
69576W        W40176  23.196  30.869   0.882
69577W        W40177  43.841  13.824  12.992
69578W        W40178  23.176  38.518   2.703
69579W        W40179  34.360  17.263   1.250
69580W        W40180  38.567  33.166   3.280
69581W        W40181  36.811  12.789  13.345
69582W        W40182  19.352  24.248  11.094
69583W        W40183  42.512  21.284  11.142
69584W        W40184  34.460  41.490   2.914
69585W        W40185  40.178  36.080   2.868
69586W        W40186   3.762  42.312   3.335
69587W        W40187  38.735  25.131  11.190
69588W        W40188  15.250  15.536  13.951
69589W        W40189  25.698  38.144   2.466
69590W        W40190   4.843  32.786   2.176
69591W        W40191  27.542   1.234   1.817
69592W        W40192  11.203  16.895  11.772
69593W        W40193  19.243   4.219   2.198
69594W        W40194  29.022  44.964  11.599
69595W        W40195   2.701  41.058  11.137
69596W        W40196   9.787   9.701  13.634
69597W        W40197   4.140  32.329  14.435
69598W        W40198  42.915  37.019  12.590
69599W        W40199  40.988  22.410   5.083
69600W        W40200  28.270  17.664  10.542
69601W        W40201  13.055  14.566  14.262
69602W        W40202  33.576   1.326  14.908
69603W        W40203  15.019  26.174   2.186
69604W        W40204  44.436  23.879   0.814
69605W        W40205  13.398  38.001   0.850
69606W        W40206  19.762  22.556  11.638
69607W        W40207  43.253  12.740  13.961
69608W        W40208  12.769  14.319   3.391
69609W        W40209  16.909  31.772   0.331
69610W        W40210  23.298  34.156  14.777
69611W        W40211   1.964  36.973  13.853
69612W        W40212  23.950  41.228   5.096
69613W        W40213  31.964  13.319  11.200
69614W        W40214  33.060   9.826   4.550
69615W        W40215   2.382  24.595   0.239
69616W        W40216   2.164   1.019   2.029
69617W        W40217  13.411  31.349   4.334
69618W        W40218  24.063  34.972   1.448
69619W        W40219   4.801  34.659  12.391
69620W        W40220  30.397   2.936   0.943
69621W        W40221  14.279  14.160  11.714
69622W        W40222  38.964  43.549  14.783
69623W        W40223  25.026  32.579  12.400
69624W        W40224  18.799   4.128   0.187
69625W        W40225  24.901  44.772   2.830
69626W        W40226  31.994  13.858   2.467
69627W        W40227  28.420   0.709  10.561
69628W        W40228  28.242  39.569  12.463
69629W        W40229  14.387  17.643   2.243
69630W        W40230  12.793  32.472  13.398
69631W        W40231  32.023  10.277   2.107
69632W        W40232  38.994  14.688   0.396
69633W        W40233   5.889  41.499  14.810
69634W        W40234  20.534   1.309  12.881
69635W        W40235  40.029  43.472  14.725
69636W        W40236  28.660  17.753   3.638
69637W        W40237  25.102  39.665  11.131
69638W        W40238  16.944  40.980  12.275
69639W        W40239  23.163  19.663   0.020
69640W        W40240  25.380   3.323  14.086
69641W        W40241  42.610  40.079  12.512
69642W        W40242  23.357   3.847  13.514
69643W        W40243  37.241  21.372  10.069
69644W        W40244  26.919  12.833  14.843
69645W        W40245  25.480  42.977  11.138
69646W        W40246  31.093  26.964  10.422
69647W        W40247   5.948  35.199   4.588
69648W        W40248  13.245  44.686  13.074
69649W        W40249  43.228  35.698   2.674
69650W        W40250  17.246  42.437   0.794
69651W        W40251  36.075   3.934  11.276
69652W        W40252  29.827  24.145   2.898
69653W        W40253   3.938  36.823   3.675
69654W        W40254  31.554   1.037   3.321
69655W        W40255  18.789  12.339  12.060
69656W        W40256  32.068  38.322  10.949
69657W        W40257  15.313  31.721  12.879
69658W        W40258   5.436  41.736  11.629
69659W        W40259  25.055  27.067   0.896
69660W        W40260  26.464  42.453   1.559
69661W        W40261  32.442  22.740   4.122
69662W        W40262  27.693   0.947   0.520
69663W        W40263  23.500  42.094  12.092
69664W        W40264  30.515  29.644   2.755
69665W        W40265  18.307  24.090  11.068
69666W        W40266  30.291  28.108   5.050
69667W        W40267  32.107  23.139   4.142
69668W        W40268  20.772  43.396   4.133
69669W        W40269  21.244  19.869   0.201
69670W        W40270  36.496  38.809   5.072
69671W        W40271  30.877   8.345   4.557
69672W        W40272   0.014  40.404  10.719
69673W        W40273  14.832  26.444   1.748
69674W        W40274  15.332  35.272   3.349
69675W        W40275  40.976  17.843  11.204
69676W        W40276  29.090  43.827   2.919
69677W        W40277   2.442  28.210   2.219
69678W        W40278   0.904   5.087  10.947
69679W        W40279  19.600   4.234   3.792
69680W        W40280  12.178  29.446  11.975
69681W        W40281  29.357   1.408   0.265
69682W        W40282  23.188  23.504   2.037
69683W        W40283  17.590   4.202  14.631
69684W        W40284  26.118  11.530  12.609
69685W        W40285  42.567   7.897   4.778
69686W        W40286  17.590  43.435  13.322
69687W        W40287  25.683  34.989  13.302
69688W        W40288   2.783  17.999  11.149
69689W        W40289  37.280  33.713  12.012
69690W        W40290  35.476  15.536  10.740
69691W        W40291  24.106  19.662   0.547
69692W        W40292  43.338   4.502  12.447
69693W        W40293  19.550  33.270   0.229
69694W        W40294  28.221   1.739  14.745
69695W        W40295  29.900  16.308   2.752
69696W        W40296  30.085  26.297  12.622
69697W        W40297  29.260  30.878  14.562
69698W        W40298  27.915  13.868  11.592
69699W        W40299  42.822  23.592   2.807
69700W        W40300   9.457   0.360  11.283
69701W        W40301  24.571   7.918   1.796
69702W        W40302   8.400   9.628  13.129
69703W        W40303  42.581  25.041   4.044
69704W        W40304  34.064  34.820   1.235
69705W        W40305  37.835  21.612  14.889
69706W        W40306  19.506  14.732   2.267
69707W        W40307  19.675  27.417  13.408
69708W        W40308   4.333  24.047   2.941
69709W        W40309  15.356  15.468  10.318
69710W        W40310   8.978  21.175  10.466
69711W        W40311  25.702   0.249   4.090
69712W        W40312  11.239  40.945  11.412
69713W        W40313   0.471  15.600   2.345
69714W        W40314  32.378  41.202  14.252
69715W        W40315  15.136  21.526   0.951
69716W        W40316  32.047  42.583  13.026
69717W        W40317   9.902  20.620  13.878
69718W        W40318  24.486   2.248  12.548
69719W        W40319  42.852  39.034  11.666
69720W        W40320  26.672  15.331  13.456
69721W        W40321  13.347  37.138  14.833
69722W        W40322  18.175  10.185   4.288
69723W        W40323  33.544  35.013   2.616
69724W        W40324  27.838  12.198   4.078
69725W        W40325  39.352  18.637   2.310
69726W        W40326  15.128  41.547  12.490
69727W        W40327  30.931   0.434  10.732
69728W        W40328  19.009  22.836   2.223
69729W        W40329  31.345  16.748   4.193
69730W        W40330   0.757  25.930  12.565
69731W        W40331  11.326  37.909   4.765
69732W        W40332  32.305  33.143  14.937
69733W        W40333  28.405  38.874   0.374
69734W        W40334  21.504   5.671   4.074
69735W        W40335   1.539   6.798  10.667
69736W        W40336  41.532  41.910   3.664
69737W        W40337  18.299  43.238   3.496
69738W        W40338   6.243  29.559  10.408
69739W        W40339  33.589  11.293  12.811
69740W        W40340  39.419  29.037  13.663
69741W        W40341   2.240  26.698   1.418
69742W        W40342  20.678  21.214   3.132
69743W        W40343  35.885  42.783   0.892
69744W        W40344  39.737  10.701   0.395
69745W        W40345  22.544  26.772   2.370
69746W        W40346   1.356  35.928   3.662
69747W        W40347  40.746  36.481  13.369
69748W        W40348  21.625  26.981   4.727
69749W        W40349   3.683   8.947   1.227
69750W        W40350  30.634  27.956  12.124
69751W        W40351  12.525  31.897   0.806
69752W        W40352  25.711  41.090   3.589
69753W        W40353  38.440   9.121   2.350
69754W        W40354   1.431  18.503   1.311
69755W        W40355  41.194  39.351  13.395
69756W        W40356  22.330   7.404  10.329
69757W        W40357  12.285  14.140   3.394
69758W        W40358  31.888   1.141  12.963
69759W        W40359  23.159  41.595  14.780
69760W        W40360  19.468  31.854  10.745
69761W        W40361  15.620  29.385   1.432
69762W        W40362  39.445  17.972   5.009
69763W        W40363  37.095  27.606   0.938
69764W        W40364  11.306  42.036  11.359
69765W        W40365  15.162  14.326  11.923
69766W        W40366  14.309  11.058  12.952
69767W        W40367  24.592  23.897  12.072
69768W        W40368  14.225  36.417   4.455
69769W        W40369  16.503  31.365  13.864
69770W        W40370  24.656  15.559   1.298
69771W        W40371  42.456  35.568  11.968
69772W        W40372  30.356  14.151   2.494
69773W        W40373   6.441   4.729  10.654
69774W        W40374   3.471  40.914  14.910
69775W        W40375  25.040   8.750   0.400
69776W        W40376  33.625   3.538  10.658
69777W        W40377  41.841  28.691   0.699
69778W        W40378  29.767  14.733  13.264
69779W        W40379  23.586  13.360   1.120
69780W        W40380  43.929  11.622  10.695
69781W        W40381  26.542  32.397   1.179
69782W        W40382  10.144   7.557   1.248
69783W        W40383  33.635  36.346  11.689
69784W        W40384  33.053  23.565   2.156
69785W        W40385   9.017   8.357  14.456
69786W        W40386  41.735  11.844  13.390
69787W        W40387  20.988  34.036  13.424
69788W        W40388  15.186  20.012   0.923
69789W        W40389  34.926  19.196   4.791
69790W        W40390  39.428  30.105   1.916
69791W        W40391   5.827  41.997   1.009
69792W        W40392  12.231  39.136  13.548
69793W        W40393   8.628  41.371  12.523
69794W        W40394   2.717  37.562  10.699
69795W        W40395  24.893  21.776  12.521
69796W        W40396  34.817  44.433   3.207
69797W        W40397  35.795   5.388  14.962
69798W        W40398   4.912  11.218  14.542
69799W        W40399   6.566  38.317   4.810
69800W        W40400  33.760  31.989   3.392
69801W        W40401  23.738  10.216   3.362
69802W        W40402  11.018  36.142  11.224
69803W        W40403  36.680  14.300  14.995
69804W        W40404  15.219  16.290  13.408
69805W        W40405   5.694  43.971   1.524
69806W        W40406  15.856  22.137  12.323
69807W        W40407  33.827   3.900   1.478
69808W        W40408  44.984  21.309  14.253
69809W        W40409   1.537   3.295   2.853
69810W        W40410  37.292  28.716  11.551
69811W        W40411  27.556   3.502   1.287
69812W        W40412  38.767  32.009   5.022
69813W        W40413  12.736  39.459  11.371
69814W        W40414  15.082  39.544  12.528
69815W        W40415  25.252  14.800  11.015
69816W        W40416  33.050  33.081   3.573
69817W        W40417  23.980  24.731   1.176
69818W        W40418  43.369   8.174   3.278
69819W        W40419  33.004  19.722  10.402
69820W        W40420  26.000  44.252   2.328
69821W        W40421   0.264  44.602   4.608
69822W        W40422  16.160  19.119   2.261
69823W        W40423  34.912  42.316   2.763
69824W        W40424  30.811  33.361  12.314
69825W        W40425  21.758  35.400   2.703
69826W        W40426  42.586  31.560  11.510
69827W        W40427  27.029  40.798   2.382
69828W        W40428  42.379  40.916  11.581
69829W        W40429  13.758  12.728   4.946
69830W        W40430  12.117  14.829   1.647
69831W        W40431  31.283   9.844  13.252
69832W        W40432  25.557  42.297  11.687
69833W        W40433  40.603  17.358  12.053
69834W        W40434  20.689  11.095   2.353
69835W        W40435   8.059  22.822   0.869
69836W        W40436  11.758   0.224  12.384
69837W        W40437   4.225  36.546   4.205
69838W        W40438  31.180  17.129  11.108
69839W        W40439  25.656   8.390  11.042
69840W        W40440  39.463  15.217   2.592
69841W        W40441   2.220  18.083   2.293
69842W        W40442   9.448  14.819   0.906
69843W        W40443  28.764  40.818   0.529
69844W        W40444  21.579  36.339   3.796
69845W        W40445  14.926  23.933  14.481
69846W        W40446   3.449  22.029   1.484
69847W        W40447   1.948  10.231  11.270
69848W        W40448  22.465  17.667  13.607
69849W        W40449  25.551  16.304  10.658
69850W        W40450  23.717   8.434  10.903
69851W        W40451  28.394   1.246  14.583
69852W        W40452  10.793  24.670  13.989
69853W        W40453  34.700  42.512  11.629
69854W        W40454  36.919  11.378  11.365
69855W        W40455  31.168   9.854   0.498
69856W        W40456  31.473   9.264  13.489
69857W        W40457  11.313  29.622  10.602
69858W        W40458   3.218  19.506  14.941
69859W        W40459  24.690  35.473  10.527
69860W        W40460  41.633   5.761   2.379
69861W        W40461  10.130  35.028  12.784
69862W        W40462  25.152  18.195   0.751
69863W        W40463  20.141  16.611   3.382
69864W        W40464  12.395  29.837  12.852
69865W        W40465  42.949  42.098   2.828
69866W        W40466  11.717  20.243  11.168
69867W        W40467  43.996  38.775  12.965
69868W        W40468   2.589  11.995   3.388
69869W        W40469  32.970   7.766  11.232
69870W        W40470  21.419  21.992  13.848
69871W        W40471  27.551   9.644  13.961
69872W        W40472  25.682  42.074  11.039
69873W        W40473  28.045  36.600   1.008
69874W        W40474   4.377  24.403  12.627
69875W        W40475  31.399  32.127  11.473
69876W        W40476  14.778  36.691   4.504
69877W        W40477  19.465   1.957  10.427
69878W        W40478  10.067   6.325  12.997
69879W        W40479   1.743  32.097  11.768
69880W        W40480  14.859  41.325   3.257
69881W        W40481  22.688  37.201   5.124
69882W        W40482   8.906  41.385   0.312
69883W        W40483   9.218  43.961   2.897
69884W        W40484   4.144  16.585  12.102
69885W        W40485   1.228   7.507   4.672
69886W        W40486   0.558  25.614   1.313
69887W        W40487  29.697  22.610   2.347
69888W        W40488  21.468  35.521   5.057
69889W        W40489  36.888   5.784  12.330
69890W        W40490  29.164   7.075  13.976
69891W        W40491   2.146   5.481   4.802
69892W        W40492  38.734  33.553  13.929
69893W        W40493  15.869  27.580   2.521
69894W        W40494   2.609   3.668  11.778
69895W        W40495  34.434  14.531  13.951
69896W        W40496  27.195   5.211   4.625
69897W        W40497  11.787  19.389   4.517
69898W        W40498   3.265   6.842  12.880
69899W        W40499  36.314  10.106   1.558
69900W        W40500  23.302  16.123  13.416
69901W        W40501  12.135  34.832  10.453
69902W        W40502  35.000  36.238   5.074
69903W        W40503  29.409  33.460   2.400
69904W        W40504  34.412   3.712   4.639
69905W        W40505  25.112   2.894   3.124
69906W        W40506  12.238  44.431   0.471
69907W        W40507  26.101  15.640   1.922
69908W        W40508  35.943  15.631   2.773
69909W        W40509  34.015  15.712   9.658
69910W        W40510  25.057  18.807  12.620
69911W        W40511   0.003  44.073  12.519
69912W        W40512   3.424  27.026   0.708
69913W        W40513   0.563  41.349   3.603
69914W        W40514  25.737   4.949  14.429
69915W        W40515  32.139  20.565  12.401
69916W        W40516  26.129   2.133  12.019
69917W        W40517   8.687  26.725   0.078
69918W        W40518   4.353  22.384   3.272
69919W        W40519  41.976  13.456  12.883
69920W        W40520  34.759  14.837   0.860
69921W        W40521  30.358   3.783   0.992
69922W        W40522   9.849   4.584   2.650
69923W        W40523  40.393  27.557   0.724
69924W        W40524  14.586  29.978  13.332
69925W        W40525  16.225  29.488   4.850
69926W        W40526   4.323  41.891  10.591
69927W        W40527  43.842  13.545   4.464
69928W        W40528  41.630  43.191  11.188
69929W        W40529  10.864  11.184  11.137
69930W        W40530  42.273  10.070  13.383
69931W        W40531  21.875  40.536   3.423
69932W        W40532   3.654  36.032   4.494
69933W        W40533   1.943   8.345  10.679
69934W        W40534  18.350  33.002   2.859
69935W        W40535  35.472  29.421  13.232
69936W        W40536   1.974  13.257   3.676
69937W        W40537  23.097  16.728   3.391
69938W        W40538  34.515  35.888  13.745
69939W        W40539  35.573  29.603  13.717
69940W        W40540  37.323  20.074   4.188
69941W        W40541   5.016  26.504  14.286
69942W        W40542  31.580  17.330  14.832
69943W        W40543  30.453   7.359  12.853
69944W        W40544   3.943  21.571   0.970
69945W        W40545   1.201  44.728  12.056
69946W        W40546  40.115  34.391  12.041
69947W        W40547  17.582  41.075  14.470
69948W        W40548   2.692   0.753  14.443
69949W        W40549  26.475  29.406   3.107
69950W        W40550  36.995   8.894   0.753
69951W        W40551   0.992  27.084   1.925
69952W        W40552  39.435  27.905  14.749
69953W        W40553  13.616  18.266   4.600
69954W        W40554  20.123  35.615   4.802
69955W        W40555  41.563  22.473  12.417
69956W        W40556   6.616   7.139  14.563
69957W        W40557  28.307  21.733   1.808
69958W        W40558   3.949  32.519  10.934
69959W        W40559  24.310  30.766   2.255
69960W        W40560  26.431  30.309  14.803
69961W        W40561  11.751   1.176   2.799
69962W        W40562  27.145  25.155  11.583
69963W        W40563  43.019  23.127  10.658
69964W        W40564   1.473   1.222  13.038
69965W        W40565  30.633  35.963  13.783
69966W        W40566  30.450  21.169   0.658
69967W        W40567  13.584  39.454  13.883
69968W        W40568   2.824   0.384   2.860
69969W        W40569  44.894  37.834   2.707
69970W        W40570  35.401  16.109  12.060
69971W        W40571  17.217  13.323  14.330
69972W        W40572   9.844  42.340  13.363
69973W        W40573  22.217   5.466   1.959
69974W        W40574  41.707   2.004  11.182
69975W        W40575   1.553  42.317  13.458
69976W        W40576  19.325  26.283  14.913
69977W        W40577  18.900  44.669  14.809
69978W        W40578  22.149  40.890  11.592
69979W        W40579  27.241   7.418   1.590
69980W        W40580  32.032  23.027   0.338
69981W        W40581  11.668  23.216  12.150
69982W        W40582   8.662  23.637  12.556
69983W        W40583   2.152  34.888   1.451
69984W        W40584  14.440  18.452  11.230
69985W        W40585  29.020  19.514  13.815
69986W        W40586  35.976   9.676   2.466
69987W        W40587  32.677  44.377   1.906
69988W        W40588  40.118  39.349   0.579
69989W        W40589   7.471  43.855   4.800
69990W        W40590  41.987  41.391   1.759
69991W        W40591  41.035  13.042   1.261
69992W        W40592  41.882   7.431  10.011
69993W        W40593  14.604  13.762  11.618
69994W        W40594   9.645  22.580  14.720
69995W        W40595  19.755  40.889   2.684
69996W        W40596  24.969   1.123   0.798
69997W        W40597   5.140  15.120   0.706
69998W        W40598  11.038   7.125  14.124
69999W        W40599  19.923  31.207  12.725
70000W        W40600  41.566  28.717   3.397
70001W        W40601  29.065  10.423   1.214
70002W        W40602  17.063  18.798   2.794
70003W        W40603  41.955  11.770  14.886
70004W        W40604  38.926   5.837  10.755
70005W        W40605  23.137   6.582   2.144
70006W        W40606  41.618  24.739   1.488
70007W        W40607  11.943  11.605  13.408
70008W        W40608  42.728   2.608  12.986
70009W        W40609   8.750  39.796  12.312
70010W        W40610  28.953   4.958   1.689
70011W        W40611  26.547  31.489  11.033
70012W        W40612   3.661  10.816   1.199
70013W        W40613  14.704  16.735   3.778
70014W        W40614  15.741  10.753   1.302
70015W        W40615  13.328  20.702  14.884
70016W        W40616   7.785  19.797   1.683
70017W        W40617  15.200  11.958  14.258
70018W        W40618  44.886  38.029   4.144
70019W        W40619  38.802  33.469   1.285
70020W        W40620  37.195   1.382   5.031
70021W        W40621  11.846  26.325  14.720
70022W        W40622  17.226  42.888   4.810
70023W        W40623  14.148  24.534   2.908
70024W        W40624  31.511   5.204  12.404
70025W        W40625  41.224   9.245  14.885
70026W        W40626   1.336  41.830  11.196
70027W        W40627  44.392   3.614  10.834
70028W        W40628  17.224  26.371   2.705
70029W        W40629  23.264  25.004  14.524
70030W        W40630   7.811  41.564  10.790
70031W        W40631  41.975  40.640   4.100
70032W        W40632   9.592  30.352  10.597
70033W        W40633  20.143   9.859   0.834
70034W        W40634   3.862  43.378  12.209
70035W        W40635  20.495   2.814   2.278
70036W        W40636   2.327  31.008  12.004
70037W        W40637  19.714  34.815  10.638
70038W        W40638  32.164  25.996   1.900
70039W        W40639   0.556  33.436  11.762
70040W        W40640   6.837  22.290   3.926
70041W        W40641  12.289  25.487   2.366
70042W        W40642  25.112  31.140  11.606
70043W        W40643  40.730   7.037   4.578
70044W        W40644  37.910  15.801   0.838
70045W        W40645  37.435  35.504   4.398
70046W        W40646  24.409  35.410  12.855
70047W        W40647  44.406  17.226  14.983
70048W        W40648  41.094  20.736  10.295
70049W        W40649  11.269   3.987  11.152
70050W        W40650  14.296  31.628  13.080
70051W        W40651  23.123  39.108   1.400
70052W        W40652  36.663  19.437   4.231
70053W        W40653  20.544  31.017   4.818
70054W        W40654  37.661  26.845   3.361
70055W        W40655  35.053  17.636  12.895
70056W        W40656  35.489   0.412  13.818
70057W        W40657  20.514  39.454   4.197
70058W        W40658  14.466   8.903  13.854
70059W        W40659  41.104  17.792   2.663
70060W        W40660  32.611  41.247   2.127
70061W        W40661   9.384  29.022   3.752
70062W        W40662  29.361  27.581   2.873
70063W        W40663   9.404  28.017  13.979
70064W        W40664  22.638  30.113   4.313
70065W        W40665   5.813   2.966  11.100
70066W        W40666   0.911  24.596   1.952
70067W        W40667  14.086  11.050   3.761
70068W        W40668  16.156  39.558   2.727
70069W        W40669  31.097  30.580   4.049
70070W        W40670   0.582   4.119  14.963
70071W        W40671  32.834   4.998   0.988
70072W        W40672  19.585  20.090  11.943
70073W        W40673  42.519   2.743  11.231
70074W        W40674  11.856  27.984  14.837
70075W        W40675  13.409  29.177   0.846
70076W        W40676  22.580  36.638   0.366
70077W        W40677  35.342   7.092  14.252
70078W        W40678  19.690  19.409   3.096
70079W        W40679  20.108   5.823   2.131
70080W        W40680  27.654  30.663   3.184
70081W        W40681  19.809  14.758   2.694
70082W        W40682  37.514  27.033   0.414
70083W        W40683  11.128  34.516   2.937
70084W        W40684   3.259  44.307   2.326
70085W        W40685  41.779  31.587   1.185
70086W        W40686   2.692  41.955  11.437
70087W        W40687  40.526  36.914   2.318
70088W        W40688  34.581  43.413  12.544
70089W        W40689  27.051  40.269   2.320
70090W        W40690   9.840  35.839  13.533
70091W        W40691  13.655  21.993   2.084
70092W        W40692  40.267   0.571  11.592
70093W        W40693  27.415   1.892  10.396
70094W        W40694  17.633  33.353   4.085
70095W        W40695  16.451   9.594   4.039
70096W        W40696  15.362  43.732  14.816
70097W        W40697   1.944  44.200   3.196
70098W        W40698  16.439  28.048  14.461
70099W        W40699  10.618  37.156   4.465
70100W        W40700  12.388  32.567  14.976
70101W        W40701  30.157  25.158  14.839
70102W        W40702  32.035  30.820   0.823
70103W        W40703  33.081  10.412  11.140
70104W        W40704  28.921  28.600   0.975
70105W        W40705   4.529  32.238  13.351
70106W        W40706  29.299   4.094  11.031
70107W        W40707   8.223  43.454  11.587
70108W        W40708  28.914   0.696   3.218
70109W        W40709   3.274   4.518   0.851
70110W        W40710   9.165  13.801  12.405
70111W        W40711  24.599  34.024   3.734
70112W        W40712  29.340   8.916  14.955
70113W        W40713  35.965   9.205  11.313
70114W        W40714  13.603   6.289  13.619
70115W        W40715  38.098  11.237  12.067
70116W        W40716  40.021   1.915   0.924
70117W        W40717   2.914  30.298   1.932
70118W        W40718  35.948   1.203   1.148
70119W        W40719  10.584  28.314   1.307
70120W        W40720  30.956  35.916  12.969
70121W        W40721  27.658  20.892  10.565
70122W        W40722  40.519  37.840  13.410
70123W        W40723   3.600  30.947   5.169
70124W        W40724  11.557  10.683   4.389
70125W        W40725   9.781  42.941   5.065
70126W        W40726  37.796  14.531   4.165
70127W        W40727  39.276  42.272   0.944
70128W        W40728  44.862   1.933  13.308
70129W        W40729  44.066  10.725   4.622
70130W        W40730  24.298   9.875  14.669
70131W        W40731  15.737   6.854  14.393
70132W        W40732  16.565   1.015   3.421
70133W        W40733  40.929  26.922   3.270
70134W        W40734  18.722   8.354  10.757
70135W        W40735  12.757  43.432  11.478
70136W        W40736   7.277  33.143   4.105
70137W        W40737   7.925  25.144   1.453
70138W        W40738  29.493  18.560   1.318
70139W        W40739  24.113  20.799   2.390
70140W        W40740  15.016  19.949   4.926
70141W        W40741  26.451  36.472  12.732
70142W        W40742  40.801  19.199  10.788
70143W        W40743  43.444  25.664   2.546
70144W        W40744  38.486   4.901   1.792
70145W        W40745  35.534  13.095   3.659
70146W        W40746  17.864  21.707  12.084
70147W        W40747   5.841  18.625   3.327
70148W        W40748  29.278  43.819   3.384
70149W        W40749  21.527  24.007  12.548
70150W        W40750  21.696   7.875  11.697
70151W        W40751  44.775  31.437   3.550
70152W        W40752  11.128  12.359   1.358
70153W        W40753  20.011   6.354  14.963
70154W        W40754  13.373  22.085   4.446
70155W        W40755   4.459  40.200  13.878
70156W        W40756  20.580   8.288  12.964
70157W        W40757   9.831  32.202  10.086
70158W        W40758   4.761   9.700  14.943
70159W        W40759   8.825   0.974   2.841
70160W        W40760  15.621   4.207   2.397
70161W        W40761   0.681  38.093   3.554
70162W        W40762  21.987  11.402  11.169
70163W        W40763  15.639  31.163   1.509
70164W        W40764  15.313  21.954   4.720
70165W        W40765  23.841   4.836  12.508
70166W        W40766  16.799  34.421   0.980
70167W        W40767  25.846  34.426   1.156
70168W        W40768  22.652  22.595   4.864
70169W        W40769  32.180  33.520  10.511
70170W        W40770   7.709  39.735   0.090
70171W        W40771   4.750   7.170  11.569
70172W        W40772   1.726  36.900   1.194
70173W        W40773  16.740  25.148   3.610
70174W        W40774   8.713  29.577   1.781
70175W        W40775   6.936  27.290   4.924
70176W        W40776   7.871  29.011   0.478
70177W        W40777  19.381  25.785  12.053
70178W        W40778  33.431  31.498   2.684
70179W        W40779   5.175   9.408  13.481
70180W        W40780  17.273   4.297   0.449
70181W        W40781  28.222  44.851   4.442
70182W        W40782  28.967  30.826   1.034
70183W        W40783   4.374  22.059  13.412
70184W        W40784   1.181  24.492  10.927
70185W        W40785  13.259  27.728   3.323
70186W        W40786   7.172  44.004  12.470
70187W        W40787  24.791   2.747   2.291
70188W        W40788   6.926   6.379   0.883
70189W        W40789  29.400  16.023  11.680
70190W        W40790  34.357  40.972  13.533
70191W        W40791  30.268  34.016   3.582
70192W        W40792  40.266  35.772   5.011
70193W        W40793  29.847  42.469  14.082
70194W        W40794   7.676  18.738   2.295
70195W        W40795   0.243  43.733   2.720
70196W        W40796  29.941  35.414   0.894
70197W        W40797  16.158  24.632  13.101
70198W        W40798  26.918  13.325   2.971
70199W        W40799  36.359  25.481   0.306
70200W        W40800   3.353   8.400   1.851
70201W        W40801  20.056   2.287   4.585
70202W        W40802  40.634  44.158  11.060
70203W        W40803  20.962   1.283  14.504
70204W        W40804  17.735  37.573  11.729
70205W        W40805  40.821   0.763   0.550
70206W        W40806  11.881  15.014  11.128
70207W        W40807  25.167  20.715   3.555
70208W        W40808  42.429   4.182  13.400
70209W        W40809  40.084  17.374  11.990
70210W        W40810   7.918  38.691   0.884
70211W        W40811   0.389  37.985   1.912
70212W        W40812  13.070   6.590  12.084
70213W        W40813  37.230  43.020   1.454
70214W        W40814   2.735  22.511   2.039
70215W        W40815  20.959   0.528   4.540
70216W        W40816  13.629  32.614   4.547
70217W        W40817  21.494  22.273  10.464
70218W        W40818  40.805   0.766  14.004
70219W        W40819  25.807  22.028  13.147
70220W        W40820  32.805  13.322  13.590
70221W        W40821  44.523  32.440  14.367
70222W        W40822  26.419  13.865  10.630
70223W        W40823  34.639  37.400  13.426
70224W        W40824  11.800  19.016  13.995
70225W        W40825  12.816   3.687   3.234
70226W        W40826   3.496  23.793   2.962
70227W        W40827   2.357  31.153  10.463
70228W        W40828  24.614  11.242   2.375
70229W        W40829   2.321  13.736  14.070
70230W        W40830  42.350  31.904   1.918
70231W        W40831  32.457  34.517  11.680
70232W        W40832   1.533  25.524   3.493
70233W        W40833   2.833  32.191  12.458
70234W        W40834  29.045  35.628   4.537
70235W        W40835  13.409  17.202  14.338
70236W        W40836  11.432  19.541   2.855
70237W        W40837   1.966  14.200   3.813
70238W        W40838   3.414  12.058  11.917
70239W        W40839  11.115  18.194   1.494
70240W        W40840  24.654  40.977   4.386
70241W        W40841  23.084  12.893  10.799
70242W        W40842  18.735   1.287  13.385
70243W        W40843  14.153  23.672  10.538
70244W        W40844  44.320  44.370  14.066
70245W        W40845   3.943  31.444   1.262
70246W        W40846  16.086   1.081  13.759
70247W        W40847  41.931  44.195   2.663
70248W        W40848   8.221  32.152   4.677
70249W        W40849   9.662  11.117   2.731
70250W        W40850   6.339  18.175  14.821
70251W        W40851  18.300   4.842  14.251
70252W        W40852  17.907  20.659  13.507
70253W        W40853  43.485   9.220   4.213
70254W        W40854  20.808  33.508  14.481
70255W        W40855  19.666  24.070   1.889
70256W        W40856  24.781  30.405  12.064
70257W        W40857  42.343   3.568   3.388
70258W        W40858   1.595  28.282   5.062
70259W        W40859  24.653  24.285  13.673
70260W        W40860  12.128  25.183  13.818
70261W        W40861  16.165  40.739   3.337
70262W        W40862  35.974   8.565  11.985
70263W        W40863  15.619  18.817   5.083
70264W        W40864  38.642  21.069  12.003
70265W        W40865   1.027  14.687   1.688
70266W        W40866  26.167   9.826   0.964
70267W        W40867  33.578  18.252   1.140
70268W        W40868  25.342  15.837  11.106
70269W        W40869   1.747  35.412   2.308
70270W        W40870  41.482   6.739   1.806
70271W        W40871  27.185  25.975  13.822
70272W        W40872  29.043  32.103  10.543
70273W        W40873   2.156  35.537  12.494
70274W        W40874  16.570  15.281   4.169
70275W        W40875  42.315   1.937   2.410
70276W        W40876  10.849  27.270  12.490
70277W        W40877  27.487   1.193  13.528
70278W        W40878   3.223   2.679   5.027
70279W        W40879  21.471  29.551   4.478
70280W        W40880   3.947  37.945   3.322
70281W        W40881  28.589  36.398  14.855
70282W        W40882  26.010   2.631  11.968
70283W        W40883  27.644   3.689  11.408
70284W        W40884   8.868   1.544   1.316
70285W        W40885  23.038   3.929   1.691
70286W        W40886  44.846  39.090   9.956
70287W        W40887  33.387  42.495  12.187
70288W        W40888  35.885  44.846   1.724
70289W        W40889   3.459  18.628  10.432
70290W        W40890  32.493  27.466   4.214
70291W        W40891  12.731   2.847   4.774
70292W        W40892  10.736  34.430   3.293
70293W        W40893  42.327  24.497   4.805
70294W        W40894  37.425   0.396   3.089
70295W        W40895   6.531  29.653  10.835
70296W        W40896  40.182  33.036  13.588
70297W        W40897  20.054  30.254   1.944
70298W        W40898  25.288  12.083  11.675
70299W        W40899   9.176  42.570  10.765
70300W        W40900  25.211  35.332  14.310
70301W        W40901  16.423   5.167  13.157
70302W        W40902  19.718  36.932  12.053
70303W        W40903  25.185  16.114   3.833
70304W        W40904  13.181  26.193   1.730
70305W        W40905  18.520   0.557  11.467
70306W        W40906   2.429  10.519   0.834
70307W        W40907  34.349  13.061   1.023
70308W        W40908  35.857   7.884  14.859
70309W        W40909   2.396   4.666  10.327
70310W        W40910  41.606  33.562   2.087
70311W        W40911  40.508  30.858   4.639
70312W        W40912  17.208   4.454  11.757
70313W        W40913  25.180   8.433   4.470
70314W        W40914  20.368  40.590  11.045
70315W        W40915   5.502  33.154   3.054
70316W        W40916  11.710   1.511  11.936
70317W        W40917  28.227  22.913  13.206
70318W        W40918  42.959   4.865   1.760
70319W        W40919  15.561   1.672   1.833
70320W        W40920  42.842  13.225   0.451
70321W        W40921  42.464   0.757  11.340
70322W        W40922  30.414  23.467   1.776
70323W        W40923  37.896  13.132   4.176
70324W        W40924  12.709   2.865   3.809
70325W        W40925  14.692   7.971  14.066
70326W        W40926  34.976  39.289  11.583
70327W        W40927  15.776  27.873   0.780
70328W        W40928  29.057   3.833   2.188
70329W        W40929  44.861   3.366  12.870
70330W        W40930  15.732  41.384  13.944
70331W        W40931  16.324   5.671  13.282
70332W        W40932  32.069  35.712   0.345
70333W        W40933  18.342  11.099   2.542
70334W        W40934  34.343   3.280   0.834
70335W        W40935  26.948   3.585   3.350
70336W        W40936  24.712   3.661  12.103
70337W        W40937   3.001  35.780  13.771
70338W        W40938  15.580  17.226  10.250
70339W        W40939   5.741  14.340   2.356
70340W        W40940  33.450  35.588  14.047
70341W        W40941   0.801  43.044   0.276
70342W        W40942  17.976   8.431  14.278
70343W        W40943  35.639   8.346   1.402
70344W        W40944  23.397  18.218  11.857
70345W        W40945   6.368  31.626  14.374
70346W        W40946  25.457  11.163   0.932
70347W        W40947  39.435  24.212  11.037
70348W        W40948  41.392  40.913   3.808
70349W        W40949  26.925  40.786  11.086
70350W        W40950   6.224  36.260  11.592
70351W        W40951  30.145  15.730   1.701
70352W        W40952  36.973  37.287  13.635
70353W        W40953  29.884  26.389   0.748
70354W        W40954   5.918  22.775  12.877
70355W        W40955  29.034   7.898  10.472
70356W        W40956  22.625  23.488   1.703
70357W        W40957  27.115   6.601   1.264
70358W        W40958  16.221   2.810   0.136
70359W        W40959  40.814   9.057  12.247
70360W        W40960   6.699  14.366  14.029
70361W        W40961   2.318  17.839   3.248
70362W        W40962  44.776  29.341  14.009
70363W        W40963   9.261  10.799   2.825
70364W        W40964  10.610  28.667   2.592
70365W        W40965  36.024  15.794  14.710
70366W        W40966  29.002  12.578   3.170
70367W        W40967  11.810   1.768   4.649
70368W        W40968  37.600  11.222   1.488
70369W        W40969  14.091  15.655   2.680
70370W        W40970  42.863  23.725   3.518
70371W        W40971  14.688   7.416  11.325
70372W        W40972  13.861  37.369   3.139
70373W        W40973  31.404  32.130  10.538
70374W        W40974  41.095  17.269  12.144
70375W        W40975  43.570  34.904   4.620
70376W        W40976  38.557  26.377   4.786
70377W        W40977   7.165  15.296   0.990
70378W        W40978  24.662  43.775  11.535
70379W        W40979  43.604  11.746   1.035
70380W        W40980  29.109  43.378   4.076
70381W        W40981  15.901   4.414  11.582
70382W        W40982  24.021  13.644  11.614
70383W        W40983  43.251   8.956  11.151
70384W        W40984  26.523  23.105  11.907
70385W        W40985  38.324  34.515  11.593
70386W        W40986  31.883  35.114   0.826
70387W        W40987  17.146  33.164   0.304
70388W        W40988  27.957  29.435   2.508
70389W        W40989  27.861  25.166   3.699
70390W        W40990  31.950  26.620  13.428
70391W        W40991  25.637  37.062   4.245
70392W        W40992  28.404   6.714  13.067
70393W        W40993   4.962  15.624   2.029
70394W        W40994  21.128  28.556   2.361
70395W        W40995  44.025  29.893   2.262
70396W        W40996   0.212  13.683   2.797
70397W        W40997  14.912  29.096   2.758
70398W        W40998   0.818  28.565   1.320
70399W        W40999  34.836  41.846   4.309
70400W        W41000  28.918   2.897   0.910
70401W        W41001  15.637  28.388   0.896
70402W        W41002   8.326  38.120   3.212
70403W        W41003  24.865  41.569   2.881
70404W        W41004  37.518   1.972  13.049
70405W        W41005  41.795  12.994  13.047
70406W        W41006   7.676   6.134   1.853
70407W        W41007  15.410  27.797   4.320
70408W        W41008  37.605   9.455  13.849
70409W        W41009  33.524  10.660  12.011
70410W        W41010   1.753  33.851   2.250
70411W        W41011  44.846  30.604  14.404
70412W        W41012  30.640  17.256   1.901
70413W        W41013   0.410   1.500   0.837
70414W        W41014  13.218  15.533  14.059
70415W        W41015   8.624   3.448   0.500
70416W        W41016  36.468   2.219   4.042
70417W        W41017  39.346  29.089  14.939
70418W        W41018   9.110   5.720  14.018
70419W        W41019  24.092  24.904  11.734
70420W        W41020  41.009  39.254   1.595
70421W        W41021   7.323  18.568  14.052
70422W        W41022  24.262  23.522   3.779
70423W        W41023  40.354  10.323  10.031
70424W        W41024  17.709  44.179   2.387
70425W        W41025  24.812   8.877   4.650
70426W        W41026  25.927   6.354  14.730
70427W        W41027   7.267  28.002   2.729
70428W        W41028  16.025  40.916   1.241
70429W        W41029  28.528  34.424  11.631
70430W        W41030  29.680   2.922  12.506
70431W        W41031  17.265   4.375  14.134
70432W        W41032  44.735  17.049  10.669
70433W        W41033  17.756  30.646  11.975
70434W        W41034  24.206  15.875  10.760
70435W        W41035  29.825  26.521   3.519
70436W        W41036  24.767  42.999   4.575
70437W        W41037  36.422  41.699   2.194
70438W        W41038   5.308  18.628   0.534
70439W        W41039   7.372  12.201   3.776
70440W        W41040  28.030  31.609   2.231
70441W        W41041  19.589  30.256  13.976
70442W        W41042  17.145   4.997  11.142
70443W        W41043  20.226   4.994   2.330
70444W        W41044  36.978  43.503   0.058
70445W        W41045  20.623  25.415  14.935
70446W        W41046   6.861  14.164   2.394
70447W        W41047   0.466  11.859  11.936
70448W        W41048  30.126  44.536   2.574
70449W        W41049  30.947  25.502  10.825
70450W        W41050  26.977   3.169   3.625
70451W        W41051   7.603  23.161  11.778
70452W        W41052  21.815  44.120  13.034
70453W        W41053   8.210  10.331   4.696
70454W        W41054  30.011  18.603  11.237
70455W        W41055  32.229  40.170  12.129
70456W        W41056  23.089  27.484   1.259
70457W        W41057  28.387  30.911   0.867
70458W        W41058  26.430  33.749   1.631
70459W        W41059  20.049  29.937  14.612
70460W        W41060  23.281  27.969  14.791
70461W        W41061  23.078  44.041  14.632
70462W        W41062  14.734  30.393  12.554
70463W        W41063  20.681  36.582  14.103
70464W        W41064  18.944   5.378   4.448
70465W        W41065   0.078   4.441   4.857
70466W        W41066  24.987  21.226   2.101
70467W        W41067  34.416  37.877   0.929
70468W        W41068  13.992  26.357   3.026
70469W        W41069  44.350  26.653  13.287
70470W        W41070   0.389  37.406  12.934
70471W        W41071   1.866  11.803   2.794
70472W        W41072  16.428   9.089   0.396
70473W        W41073  22.971  23.944   2.224
70474W        W41074  15.584  17.156  13.413
70475W        W41075  23.650  29.583  13.428
70476W        W41076  18.642  43.850   4.652
70477W        W41077  39.393   3.939   0.630
70478W        W41078  12.598   7.945  11.112
70479W        W41079  25.920   7.268  13.862
70480W        W41080  28.389  12.657   1.457
70481W        W41081  22.484  26.964  11.527
70482W        W41082   3.312  23.332  11.630
70483W        W41083  11.146  26.039  11.616
70484W        W41084  41.410  38.220   2.774
70485W        W41085   3.170  36.922   1.380
70486W        W41086  34.980  29.383   4.367
70487W        W41087   4.818  30.965   3.171
70488W        W41088  10.097   5.349   1.894
70489W        W41089  28.126  20.808  10.293
70490W        W41090  29.187  36.037  10.641
70491W        W41091   1.349  15.231  11.128
70492W        W41092  37.551  21.146   0.739
70493W        W41093  29.162  27.497  13.432
70494W        W41094  33.692  13.789  13.570
70495W        W41095  27.384  35.446   3.193
70496W        W41096  22.560  40.071  12.939
70497W        W41097   0.779  37.952   1.128
70498W        W41098   8.797  37.037   1.896
70499W        W41099  24.929  29.851  11.127
70500W        W41100   9.811   3.752  11.892
70501W        W41101  31.442  22.131  14.333
70502W        W41102  31.187   0.970  11.140
70503W        W41103   8.164  23.782   2.265
70504W        W41104  42.168   3.547   3.985
70505W        W41105  41.375  26.100  14.212
70506W        W41106   7.156   9.275  11.378
70507W        W41107  16.083   7.782   4.246
70508W        W41108  26.025  20.116  14.581
70509W        W41109  15.801  32.361  12.112
70510W        W41110  42.471   0.862   4.966
70511W        W41111  16.782  32.171   4.137
70512W        W41112  22.466  38.704   0.796
70513W        W41113  29.253  39.523  12.561
70514W        W41114  42.908  40.975  14.297
70515W        W41115   3.732  37.934   1.493
70516W        W41116  41.407  22.802   2.130
70517W        W41117   1.212   9.839   2.172
70518W        W41118  25.957  23.259   3.131
70519W        W41119  18.667   6.963   1.437
70520W        W41120  15.977  40.085  12.363
70521W        W41121  32.633   7.852  11.615
70522W        W41122   9.309  24.875  13.983
70523W        W41123  30.004  44.346  10.516
70524W        W41124  41.822  10.409   4.344
70525W        W41125  24.076   7.445   3.561
70526W        W41126  34.594  25.010   3.655
70527W        W41127  37.438  38.518  14.831
70528W        W41128  31.425  30.510   3.244
70529W        W41129   8.163   8.453   1.904
70530W        W41130  17.169  33.444  14.801
70531W        W41131   6.710  32.056  10.950
70532W        W41132  24.423  12.902   2.233
70533W        W41133  40.437  25.695   1.314
70534W        W41134   4.235  23.771  11.427
70535W        W41135  10.224  10.184  12.640
70536W        W41136  33.043  21.231   3.709
70537W        W41137   6.405   2.424  12.978
70538W        W41138  37.035  20.295   1.843
70539W        W41139  32.654  39.469  10.187
70540W        W41140  21.592  16.132  12.376
70541W        W41141  24.627  26.540   1.483
70542W        W41142   8.797  10.680   4.200
70543W        W41143   2.293  18.471   4.429
70544W        W41144   0.426   2.981   3.337
70545W        W41145  34.731  29.719   2.361
70546W        W41146  24.674  23.200   1.284
70547W        W41147   6.878  24.629   4.049
70548W        W41148  43.298  29.204  11.408
70549W        W41149  42.141  31.040   2.722
70550W        W41150  24.185   6.470  11.998
70551W        W41151  29.605  12.184   3.535
70552W        W41152  25.459  38.618  14.393
70553W        W41153  10.492   6.104  10.890
70554W        W41154   5.439   1.378   0.375
70555W        W41155  31.705  40.250  12.179
70556W        W41156   0.447  26.773  13.070
70557W        W41157  25.228  26.150  10.736
70558W        W41158   0.263  36.535  12.103
70559W        W41159  34.546   3.493  11.071
70560W        W41160   7.305  42.545   4.050
70561W        W41161   0.188  13.675   3.811
70562W        W41162  28.962  26.664   4.232
70563W        W41163  20.729  44.922  11.044
70564W        W41164   1.249   0.416  11.443
70565W        W41165   0.021  32.347   0.355
70566W        W41166  16.123   2.389   1.437
70567W        W41167  28.887   9.662   3.653
70568W        W41168  28.155  22.050   3.716
70569W        W41169  40.981   0.240   4.133
70570W        W41170  16.022   7.319  12.658
70571W        W41171  30.565  33.691  13.996
70572W        W41172  10.677  36.726   2.733
70573W        W41173   4.675  12.092   4.594
70574W        W41174  14.311  35.411  11.131
70575W        W41175  30.230  31.837   0.822
70576W        W41176  26.248  11.892   4.879
70577W        W41177  11.374  32.995  11.886
70578W        W41178  14.008  27.495   4.956
70579W        W41179  43.020  41.252  10.757
70580W        W41180   6.303  35.401  11.369
70581W        W41181  37.858   8.702   0.785
70582W        W41182  25.414   0.731   2.640
70583W        W41183  33.990  34.422  12.904
70584W        W41184  37.547   4.839   1.330
70585W        W41185  34.688  41.243   4.110
70586W        W41186  24.734  26.317  10.540
70587W        W41187  23.772   7.645   0.038
70588W        W41188  26.160  18.708  11.886
70589W        W41189  28.916  43.385   3.084
70590W        W41190  37.623  21.203   3.211
70591W        W41191  15.758   5.004   2.087
70592W        W41192  29.914   9.722  12.146
70593W        W41193  26.188  22.028  12.741
70594W        W41194  20.178   2.287  14.595
70595W        W41195  21.645   7.918  14.179
70596W        W41196  35.497  34.891   3.222
70597W        W41197  33.574   3.490  12.893
70598W        W41198  29.749  35.077  14.055
70599W        W41199  18.265  23.838  12.995
70600W        W41200  25.002  19.543  11.624
70601W        W41201  30.731  20.693   1.832
70602W        W41202  24.927  18.020   3.716
70603W        W41203  44.550  44.379  10.054
70604W        W41204  28.620  30.178  14.395
70605W        W41205  32.949  17.148   2.931
70606W        W41206  37.329  21.585   2.821
70607W        W41207   7.925  21.016  11.336
70608W        W41208  21.138  26.632   2.285
70609W        W41209  22.500   1.325  13.899
70610W        W41210  25.652  41.068  11.147
70611W        W41211  25.847  19.675  13.675
70612W        W41212  32.025  18.772  10.483
70613W        W41213  43.038  39.855   4.279
70614W        W41214  15.210  33.780  12.477
70615W        W41215  20.862   1.065   2.656
70616W        W41216  14.720   5.663   4.724
70617W        W41217   6.325  30.573   3.191
70618W        W41218  30.363  21.788   3.724
70619W        W41219  37.372  34.943  14.278
70620W        W41220  22.324  41.334   3.875
70621W        W41221  41.955   4.847  14.759
70622W        W41222  19.722  28.209   0.561
70623W        W41223  20.745  25.557   3.065
70624W        W41224  40.468  35.069   3.764
70625W        W41225  24.265   5.198  11.616
70626W        W41226  37.682  17.640  14.044
70627W        W41227  12.211   4.381  14.723
70628W        W41228  40.646  28.935  11.009
70629W        W41229  14.521  16.750  14.563
70630W        W41230   2.904  31.177   3.285
70631W        W41231  39.074   4.867  12.156
70632W        W41232   4.798  10.711   4.836
70633W        W41233  44.346  35.507   1.394
70634W        W41234  38.006  28.218   0.822
70635W        W41235  40.630  10.745   2.708
70636W        W41236  40.538  11.072   0.298
70637W        W41237  41.321  30.998  12.501
70638W        W41238  37.901  10.361   2.855
70639W        W41239  43.291  43.452   1.846
70640W        W41240  22.679  18.802   1.013
70641W        W41241  30.880  40.786  13.325
70642W        W41242  28.767  32.523  12.468
70643W        W41243  19.341  44.843  13.705
70644W        W41244   9.237  22.245   4.213
70645W        W41245  12.846  27.273   3.760
70646W        W41246  36.655  44.250   1.892
70647W        W41247  25.805   2.917  13.248
70648W        W41248   9.754  10.647  12.050
70649W        W41249  44.196  14.741  13.406
70650W        W41250  31.321  21.946   1.751
70651W        W41251   0.916   9.132   4.637
70652W        W41252   1.401  27.229   2.194
70653W        W41253  21.531  10.323   3.102
70654W        W41254   4.051  20.996   4.442
70655W        W41255  11.883  35.381   4.480
70656W        W41256  30.121   0.045  11.506
70657W        W41257  19.154  33.357   3.792
70658W        W41258  33.070   0.356  12.024
70659W        W41259  19.510  15.107   1.381
70660W        W41260  34.361  10.943  13.509
70661W        W41261   2.257  14.692  13.510
70662W        W41262  23.131  19.979  10.768
70663W        W41263  43.233   1.551  14.307
70664W        W41264  16.451  36.052  13.318
70665W        W41265  27.060  22.062   1.464
70666W        W41266  35.196  15.127   4.038
70667W        W41267  13.272  12.982   2.791
70668W        W41268   8.766  10.929   2.825
70669W        W41269  35.267  41.753   1.693
70670W        W41270  29.118  14.316  14.195
70671W        W41271  31.176   0.412   3.125
70672W        W41272   2.656  12.552   0.387
70673W        W41273  36.783  37.115  10.438
70674W        W41274  35.322  22.208  14.125
70675W        W41275   5.357  13.161  12.712
70676W        W41276  34.823   3.358   3.755
70677W        W41277   6.915   2.836   4.644
70678W        W41278  16.696   7.651  13.378
70679W        W41279  13.047   0.082   4.131
70680W        W41280   8.336  43.198   3.601
70681W        W41281  37.100  29.434   2.195
70682W        W41282   2.433  35.540   4.795
70683W        W41283   1.886  41.824   0.520
70684W        W41284  19.787  44.432  12.086
70685W        W41285  33.662  35.791  14.464
70686W        W41286  12.102   6.163  14.847
70687W        W41287  33.998  10.327   1.671
70688W        W41288  22.143  42.041   4.110
70689W        W41289  18.536  35.610   4.083
70690W        W41290  31.599  17.338  13.550
70691W        W41291  35.788  40.811  13.211
70692W        W41292  25.434  37.223  12.873
70693W        W41293  15.740  14.641   2.137
70694W        W41294  22.671  16.364   2.252
70695W        W41295  42.933   5.433   3.063
70696W        W41296   0.034  36.548   1.292
70697W        W41297  29.740  11.577   0.394
70698W        W41298  26.050  31.555   4.762
70699W        W41299  22.984  14.232  14.036
70700W        W41300   7.855   8.770  12.440
70701W        W41301  25.130   1.053  14.897
70702W        W41302  10.665  39.899  12.278
70703W        W41303  33.443   7.814  13.947
70704W        W41304  34.995  41.999   0.393
70705W        W41305   8.783  28.092  12.631
70706W        W41306  43.958   6.410  14.741
70707W        W41307   4.048  10.413  13.443
70708W        W41308  27.554   1.912   4.353
70709W        W41309  25.564  30.010   1.231
70710W        W41310  19.448  20.057   3.653
70711W        W41311  15.568  22.261  11.468
70712W        W41312   1.684  25.976  13.920
70713W        W41313  33.227  43.296   0.628
70714W        W41314  39.763  25.034   1.267
70715W        W41315  14.165  11.857   0.658
70716W        W41316  35.432  38.048   4.227
70717W        W41317  28.053  24.097   0.811
70718W        W41318   0.992  32.181   2.477
70719W        W41319  32.462   0.924  10.746
70720W        W41320  20.990   4.882  12.832
70721W        W41321  10.618  15.318  11.463
70722W        W41322   6.238  32.219   0.018
70723W        W41323  25.627  13.107   1.279
70724W        W41324  36.598  31.885   0.877
70725W        W41325  16.316  12.792  12.641
70726W        W41326  15.867  13.349   2.761
70727W        W41327  20.711   3.698  14.307
70728W        W41328  15.533  12.194   2.471
70729W        W41329  29.065  25.211   1.841
70730W        W41330  14.748  41.814  14.084
70731W        W41331  21.609  13.902   0.043
70732W        W41332  21.966  25.145  14.822
70733W        W41333  33.596   3.260   0.417
70734W        W41334  31.190  44.181   1.923
70735W        W41335  37.366  41.128   2.441
70736W        W41336  18.049  18.527   2.371
70737W        W41337   5.957  29.412   4.145
70738W        W41338   9.395  11.861   3.560
70739W        W41339   6.698   1.274   4.738
70740W        W41340  42.258   0.406  13.176
70741W        W41341  12.249  35.390   1.400
70742W        W41342  19.657   8.216   3.324
70743W        W41343  24.131   0.388  13.089
70744W        W41344  14.805   3.170   5.037
70745W        W41345  40.889  36.318   1.719
70746W        W41346   2.786  37.862   1.984
70747W        W41347  28.718   1.312  11.538
70748W        W41348   3.420   6.774   4.682
70749W        W41349  29.178  18.549  14.104
70750W        W41350   3.834  31.002  11.559
70751W        W41351  11.629  25.772  12.690
70752W        W41352  23.494  17.460   0.629
70753W        W41353  44.995  15.591   3.208
70754W        W41354  19.450   1.092   0.849
70755W        W41355  41.302  15.413   4.499
70756W        W41356  37.448  23.149   1.043
70757W        W41357   2.976   5.124   0.201
70758W        W41358  35.581  22.585   4.408
70759W        W41359  38.639  44.482   3.385
70760W        W41360  31.134  35.649  14.488
70761W        W41361  21.485  43.367  11.488
70762W        W41362  12.513  16.098   3.158
70763W        W41363  37.067   6.392   0.687
70764W        W41364  11.778  14.717  10.272
70765ION    NA+41365   9.125  42.249  11.592
70766ION    NA+41366   0.944  31.146   0.960
70767ION    NA+41367  16.799  14.334   9.585
70768ION    NA+41368  30.098  36.315   1.411
70769ION    NA+41369  11.835  14.232   2.109
70770ION    NA+41370  20.897  21.260   9.701
70771ION    NA+41371  32.234   5.382   2.979
70772ION    NA+41372   6.375  15.528   5.292
70773ION    NA+41373  16.272  24.534   3.606
70774ION    NA+41374  25.574  35.976   0.944
70775ION    NA+41375   3.331  43.532  13.517
70776ION    NA+41376   4.217  27.477   2.339
70777ION    NA+41377  40.464  40.649   0.931
70778ION    NA+41378  28.574  17.319  11.263
70779ION    NA+41379   3.974  10.436  11.633
70780ION    NA+41380  23.402   5.311   0.249
70781ION    NA+41381  36.941  10.046  13.870
70782ION    NA+41382  38.659  39.269  13.076
70783ION    NA+41383   0.048  16.634  13.918
70784ION    NA+41384  31.564  27.934   3.236
70785ION    NA+41385   7.374  32.361  12.447
70786ION    NA+41386   6.868  39.953  13.055
70787ION    NA+41387   6.976  20.413  13.615
70788ION    NA+41388  44.203  30.746  10.718
70789ION    NA+41389  10.323  41.786  12.191
70790ION    NA+41390  31.873  36.554  13.968
70791ION    NA+41391  34.238   3.652  11.477
70792ION    NA+41392  18.667  16.204   4.077
70793ION    NA+41393  16.126   2.862  10.792
70794ION    NA+41394   7.777  32.557   1.175
70795ION    NA+41395  20.798   2.875   0.469
70796ION    NA+41396   9.522  27.647  14.721
70797ION    NA+41397   7.629   5.846  12.554
70798ION    NA+41398  27.032  21.839  13.325
70799ION    NA+41399  18.037  12.711   1.802
70800ION    NA+41400  39.192  36.028   5.137
70801ION    NA+41401  35.849  20.934  14.415
70802ION    NA+41402  27.812  34.324  14.761
70803ION    NA+41403  24.210  36.347  13.448
70804ION    NA+41404  30.096   5.018  13.156
70805ION    NA+41405   8.669  39.325  13.448
70806ION    NA+41406  35.217   1.848   0.206
70807ION    NA+41407   8.392  25.102  12.199
70808ION    NA+41408  22.026  32.724   2.742
70809ION    NA+41409  24.437  33.356   3.008
70810ION    NA+41410  41.334  11.897  12.508
70811ION    NA+41411  34.628  31.500  11.996
70812ION    NA+41412  27.468  39.586  11.512
70813ION    NA+41413   2.644  25.589  14.179
70814ION    NA+41414  14.674   1.242  11.620
70815ION    NA+41415  15.726  12.873   2.880
70816ION    NA+41416  40.033  28.005  14.041
70817ION    NA+41417  33.392  29.304   9.806
70818ION    NA+41418   9.229  25.437   1.456
70819ION    NA+41419  27.103   4.066   3.457
70820ION    NA+41420  14.302   1.316   4.634
70821ION    NA+41421  39.624  14.346  14.191
70822ION    NA+41422  11.188  43.793   2.098
70823ION    NA+41423  12.007   5.804   1.248
70824ION    NA+41424  22.743   6.225   2.163
70825ION    NA+41425   8.406  24.483  13.971
70826ION    NA+41426  18.121   6.392   0.366
70827ION    NA+41427  36.779  37.789  10.894
70828ION    NA+41428  23.526  29.994   3.798
70829ION    NA+41429  34.233  40.942   0.284
70830ION    NA+41430  41.746  20.677   1.644
70831ION    NA+41431   2.848  41.362  12.669
70832ION    NA+41432  37.006   9.862   1.167
70833ION    NA+41433  10.996  22.178  14.830
70834ION    NA+41434  15.848   1.924   0.972
70835ION    NA+41435  30.211  27.803  14.915
70836ION    NA+41436  12.337   2.852  14.550
70837ION    NA+41437  41.061  10.145  12.487
70838ION    NA+41438  26.057  11.779  11.253
70839ION    NA+41439  18.769  28.573   0.008
70840ION    NA+41440  25.681  32.179   3.638
70841ION    NA+41441   0.170  18.572  13.024
70842ION    NA+41442  21.340  41.645   3.627
70843ION    NA+41443  19.855  33.388   4.381
70844ION    NA+41444  32.596  36.430  10.542
70845ION    NA+41445  41.941   4.935   1.840
70846ION    NA+41446  38.458  39.732   2.577
70847ION    NA+41447   8.093  42.441   3.122
70848ION    NA+41448   3.568  40.555   3.294
70849ION    NA+41449  23.752   9.853   0.433
70850ION    NA+41450  43.090  25.991  10.740
70851ION    NA+41451  39.817  19.810   1.176
70852ION    NA+41452  31.505  19.477  11.630
70853ION    NA+41453  43.641  21.561   2.065
70854ION    NA+41454  30.450  40.598  13.552
70855ION    NA+41455  30.993  24.254   0.030
70856ION    NA+41456   2.222  21.666   4.405
70857ION    NA+41457  20.442  19.560   0.475
70858ION    NA+41458   4.966   5.451   0.235
70859ION    NA+41459  25.126  42.323  13.964
70860ION    NA+41460  36.684   4.412   0.027
70861ION    NA+41461  28.569   9.631  14.004
70862ION    NA+41462  40.316   8.691   3.637
70863ION    NA+41463  28.246   6.029   5.080
70864ION    NA+41464  28.426   2.822   2.440
70865ION    NA+41465  15.260  28.076  10.737
70866ION    NA+41466  31.007  36.446  12.937
70867ION    NA+41467  25.712  19.058  12.148
70868ION    NA+41468  38.873   7.510  11.615
70869ION    NA+41469  38.200  29.720   2.870
70870ION    NA+41470  33.842   8.622   1.360
70871ION    NA+41471  11.651  30.372   0.067
70872ION    NA+41472  38.526  27.954  14.906
70873ION    NA+41473  33.921  36.013   2.247
70874ION    NA+41474   4.000  30.095   4.950
70875ION    NA+41475  23.074  41.328  11.598
70876ION    NA+41476  11.313  17.999  12.389
70877ION    NA+41477  37.098   7.216  10.615
70878ION    NA+41478   1.830  19.081   0.377
70879ION    NA+41479  29.554  19.906   3.667
70880ION    NA+41480  39.818  30.291   3.576
70881ION    NA+41481  24.746  18.688   4.964
70882ION    NA+41482  42.561  18.444  13.917
70883ION    NA+41483  40.699  14.658   3.314
70884ION    NA+41484  10.024  35.953   3.264
70885ION    NA+41485  37.431  12.275   2.410
70886ION    NA+41486  34.738  21.436   0.405
70887ION    NA+41487   4.159   2.910  11.083
70888ION    NA+41488  29.137  20.478   1.631
70889ION    NA+41489  26.766  11.000   2.324
70890ION    NA+41490  21.672  26.505   0.361
70891ION    NA+41491  31.450  23.104  14.076
70892ION    NA+41492  28.473   2.233   4.609
70893ION    NA+41493  11.634  14.112  12.461
70894ION    NA+41494  12.784  24.887   3.092
70895ION    NA+41495  41.714   0.362   3.089
70896ION    NA+41496  13.473  37.613   4.734
70897ION    NA+41497  25.162   6.653   2.897
70898ION    NA+41498  33.332  19.316   3.262
70899ION    NA+41499  14.256  27.426   3.530
70900ION    NA+41500   6.347   7.441  12.295
70901ION    NA+41501   0.583  42.034  14.509
70902ION    NA+41502  34.983  29.309  13.022
70903ION    NA+41503  28.107   1.308   0.010
70904ION    NA+41504  39.113   4.362  12.593
70905ION    NA+41505   3.668  11.233  13.358
70906ION    NA+41506   7.598  22.244  12.851
70907ION    NA+41507   0.644  17.710  13.499
70908ION    NA+41508  44.493  16.446  11.213
70909ION    NA+41509  30.202  10.640  11.985
70910ION    NA+41510  16.628  37.156   4.396
70911ION    NA+41511   6.063   8.765   9.863
70912ION    NA+41512   5.891   9.530  11.825
70913ION    NA+41513  27.628  10.201   3.258
70914ION    NA+41514  12.351   3.308   0.727
70915ION    NA+41515   5.614  39.945   2.717
70916ION    NA+41516  37.100  42.340   0.369
70917ION    NA+41517   8.712  28.806   2.598
70918ION    NA+41518  23.117  19.141  14.280
70919ION    NA+41519  43.347  38.055   1.906
70920ION    NA+41520  16.002  22.800  12.631
70921ION    NA+41521  40.136  22.469   9.473
70922ION    NA+41522   7.123  38.668  14.369
70923ION    NA+41523   3.133  26.407  12.233
70924ION    NA+41524  28.895  16.253   4.084
70925ION    NA+41525   1.928  41.663  12.921
70926ION    NA+41526  34.442  17.405   4.341
70927ION    NA+41527  35.473  32.555   4.600
70928ION    NA+41528  32.148  30.876  13.467
70929ION    NA+41529   6.390   0.387  14.503
70930ION    NA+41530   8.377  40.571  14.313
70931ION    NA+41531   0.867  34.505   0.038
70932ION    NA+41532  24.595  36.111   1.393
70933ION    NA+41533  26.176  14.835   1.533
70934ION    NA+41534  25.258  27.486  10.871
70935ION    NA+41535  26.257  38.983  11.583
70936ION    NA+41536   3.484   8.770  11.461
70937ION    NA+41537  33.895  15.240  13.481
70938ION    NA+41538  42.757  15.307   2.771
70939ION    NA+41539   6.623   9.927  10.739
70940ION    NA+41540  11.940  40.426   1.670
70941ION    NA+41541  44.498   1.919  13.663
70942ION    NA+41542  20.319  27.609  14.034
70943ION    NA+41543  44.113   3.043  13.799
70944ION    NA+41544   8.966   1.988   2.777
70945ION    NA+41545   0.192  27.601  13.762
70946ION    NA+41546  35.696  15.093   4.145
70947ION    NA+41547   2.896  10.304  12.092
70948ION    NA+41548  10.301   4.068  14.057
70949ION    NA+41549  12.693  36.231  14.167
70950ION    NA+41550  16.857   0.176  12.338
70951ION    NA+41551  22.136  12.887   2.768
70952ION    NA+41552  25.369   0.778   3.291
70953ION    NA+41553  44.743  29.289  12.814
70954ION    NA+41554  27.222   0.055   2.268
70955ION    NA+41555  41.322   3.991   4.562
70956ION    NA+41556  42.911  31.846  13.991
70957ION    NA+41557  26.866  41.076  13.964
70958ION    NA+41558  41.823  40.853  14.212
70959ION    NA+41559  33.935  40.703   2.148
70960ION    NA+41560   1.498  10.355  12.947
70961ION    NA+41561  44.206  16.083   2.324
70962ION    NA+41562  14.216  14.844  14.985
70963ION    NA+41563   8.463  31.854   1.453
70964ION    NA+41564  29.219  25.262  12.057
70965ION    NA+41565  23.727   0.674   2.222
70966ION    NA+41566  31.862  13.468   1.127
70967ION    NA+41567  20.865  36.200  14.403
70968ION    NA+41568  37.736  27.090  13.750
70969ION    NA+41569  23.527  43.893  12.253
70970ION    NA+41570  42.309  25.565   1.830
70971ION    NA+41571  14.723  29.380   0.420
70972ION    NA+41572  30.983  16.778  14.359
70973ION    NA+41573   0.770  38.385  12.951
70974ION    NA+41574  18.222  43.615  11.514
70975ION    NA+41575  14.321  25.221   0.690
70976ION    NA+41576  30.773  26.034  11.452
70977ION    NA+41577  35.441   1.125   1.320
70978ION    NA+41578  41.356  15.874   1.873
70979ION    NA+41579  32.546  15.629  13.500
70980ION    NA+41580  20.832  42.073  11.850
70981ION    NA+41581  24.924  19.570   9.551
70982ION    NA+41582   6.240   3.177   3.983
70983ION    NA+41583  43.419  24.225   0.202
70984ION    NA+41584  42.979  21.311   1.155
70985ION    NA+41585  20.699  27.416  11.627
70986ION    NA+41586  41.144  33.264  13.703
70987ION    NA+41587   8.038  17.864   0.415
70988ION    NA+41588  18.601   8.384   3.888
70989ION    NA+41589  40.222  34.815   3.183
70990ION    NA+41590  32.470   6.774  12.301
70991ION    NA+41591   2.465  12.115  11.184
70992ION    NA+41592   0.096   3.502   3.349
70993ION    NA+41593  21.105  15.496   4.088
70994ION    NA+41594  34.351   6.908   2.846
70995ION    NA+41595  14.627  41.006   0.352
70996ION    NA+41596  44.010   3.916  10.954
70997ION    NA+41597   6.983  26.534  14.117
70998ION    NA+41598  44.179  35.454   2.794
70999ION    NA+41599  32.568  44.299  11.957
71000ION    NA+41600  20.033  26.274  11.873
71001ION    NA+41601  29.481  33.233   1.938
71002ION    NA+41602  17.062  35.541   2.222
71003ION    NA+41603  31.369   9.806   3.232
71004ION    NA+41604   7.327  14.850  10.798
71005ION    NA+41605  12.280  22.126   1.438
71006ION    NA+41606  30.276  33.206  10.809
71007ION    NA+41607   2.853  38.879  12.541
71008ION    NA+41608   8.712  43.562   1.517
71009ION    NA+41609  23.352  25.338   3.307
71010ION    NA+41610  19.629  11.489  11.554
71011ION    NA+41611   0.672  41.097  13.813
71012ION    NA+41612   6.427   2.259  12.048
71013ION    NA+41613  38.411  30.211   2.133
71014ION    NA+41614   3.213  38.609   3.242
71015ION    NA+41615   4.988  26.081  10.162
71016ION    NA+41616  25.850   7.745  14.844
71017ION    NA+41617  44.656  25.115   5.192
71018ION    NA+41618  26.130  29.103   2.742
71019ION    NA+41619  38.959  12.444  12.855
71020ION    NA+41620  19.115   7.191  13.841
71021ION    NA+41621  20.033  37.201  12.361
71022ION    NA+41622  12.430  20.189   2.328
71023ION    NA+41623  17.511  37.080  14.591
71024ION    NA+41624   1.743   5.906   4.248
71025ION    NA+41625  26.773  42.286  14.846
71026ION    NA+41626  44.999  32.866   2.666
71027ION    NA+41627   7.427   3.267   1.704
71028ION    NA+41628  13.466  36.937   1.024
71029ION    NA+41629   0.303  35.925  10.632
71030ION    NA+41630   0.926  11.971  11.720
71031ION    NA+41631  26.227  40.388   3.311
71032ION    NA+41632   2.734  32.578  10.724
71033ION    NA+41633  21.565  40.790   3.847
71034ION    NA+41634  27.187   0.074  14.375
71035ION    NA+41635  19.097  41.378   1.886
71036ION    NA+41636   8.679  14.811   2.834
71037ION    NA+41637  17.201   0.364   1.606
71038ION    NA+41638  21.437  30.156   1.592
71039ION    NA+41639   9.580   1.232   0.700
71040ION    NA+41640  35.543  11.459  12.710
71041ION    NA+41641  17.479  16.885  11.288
71042ION    NA+41642  16.667   4.845   2.099
71043ION    NA+41643  17.096   7.237   0.308
71044ION    NA+41644   2.649  19.229  12.488
71045ION    NA+41645   1.897   7.989   0.730
71046ION    NA+41646  21.432   4.682  13.072
71047ION    NA+41647  22.917  27.119   3.544
71048ION    NA+41648  24.895   1.590   3.631
71049ION    NA+41649  25.420  26.324  13.485
71050ION    NA+41650   6.245  26.494  14.885
71051ION    NA+41651  41.849  30.623   5.413
71052ION    NA+41652   6.509  27.818   2.121
71053ION    NA+41653  34.335  14.058   0.686
71054ION    NA+41654   2.805  39.259   0.334
71055ION    NA+41655  35.425  13.823  14.723
71056ION    NA+41656  17.265  30.552  12.705
71057ION    NA+41657  12.612   8.410   2.798
71058ION    NA+41658  34.138  21.206   1.781
71059ION    NA+41659  44.940  34.332   0.730
71060ION    NA+41660  39.895  31.381   0.031
71061ION    NA+41661  27.307  36.600   3.868
71062ION    NA+41662  23.990   8.721  14.168
71063ION    NA+41663   6.392   7.938  11.429
71064ION    NA+41664  37.136  43.132  14.251
71065ION    NA+41665  16.579  38.499  13.581
71066ION    NA+41666  38.582  41.025   2.849
71067ION    NA+41667   9.807   2.722  12.151
71068ION    NA+41668   0.363  20.774  14.991
71069ION    NA+41669  40.962  25.221  12.499
71070ION    NA+41670  39.254  15.406  14.918
71071ION    NA+41671  17.141  38.147   1.826
71072ION    NA+41672   6.765  38.268   3.121
71073ION    NA+41673  36.588  27.242   4.572
71074ION    NA+41674  12.693   9.506  12.056
71075ION    NA+41675   5.730  44.488  11.445
71076ION    NA+41676  42.134  23.390  14.975
71077ION    NA+41677  21.526  30.960  10.862
71078ION    NA+41678  19.775  30.058   0.372
71079ION    NA+41679  21.461  23.952  13.879
71080ION    NA+41680   2.263  15.090  12.494
71081ION    NA+41681  10.418   5.347   0.923
71082ION    NA+41682  44.293  42.605   4.291
71083ION    NA+41683  26.093  16.062   0.865
71084ION    NA+41684  29.010  20.165  12.677
71085ION    NA+41685  42.948  40.281   0.423
71086ION    NA+41686   2.314   5.692   1.404
71087ION    NA+41687  13.606  13.367   0.260
71088ION    NA+41688  37.100   7.478  13.475
71089ION    NA+41689   7.919   1.913  10.693
71090ION    NA+41690   3.789  38.674   9.736
71091ION    NA+41691  25.425  43.401   2.672
71092ION    NA+41692  21.541  38.877   2.576
71093ION    NA+41693  32.992  39.927   4.122
71094ION    NA+41694  28.996  15.233  10.433
71095ION    NA+41695  27.786   3.283   1.740
71096ION    NA+41696   5.063  24.680  11.912
71097ION    NA+41697  28.660   4.359  12.540
71098ION    NA+41698  18.315  37.938  14.938
71099ION    NA+41699  29.125  18.568  13.550
71100ION    NA+41700  33.543   5.398   0.165
71101ION    NA+41701  12.796  18.855   1.201
71102ION    NA+41702  20.096   8.784   1.901
71103ION    NA+41703  23.543  16.708   1.307
71104ION    NA+41704  28.347  17.320  12.543
71105ION    NA+41705   9.154  25.758  12.263
71106ION    NA+41706  20.569  42.926   4.126
71107ION    NA+41707   3.061  30.185  12.364
71108ION    NA+41708  25.211  30.426   2.452
71109ION    NA+41709  43.013  34.341  12.052
71110ION    NA+41710  40.276   4.000   3.201
71111ION    NA+41711   2.755  33.452  14.046
71112ION    NA+41712  17.905  14.172   4.971
71113ION    NA+41713   2.806  40.648   2.492
71114ION    NA+41714  30.076  10.216   4.195
71115ION    NA+41715  11.912  16.096  11.642
71116ION    NA+41716   4.263   3.477  12.093
71117ION    NA+41717  15.319  14.704   0.721
71118ION    NA+41718  23.789  12.248  14.286
71119ION    NA+41719   0.504  40.556  10.800
71120ION    NA+41720  38.551  19.064  12.538
71121ION    NA+41721  10.736  26.764  14.755
71122ION    NA+41722  24.994  44.110  11.782
71123ION    NA+41723  14.014   8.891   0.769
71124ION    NA+41724   9.035  35.752  14.607
71125ION    NA+41725  23.326  19.424   3.713
71126ION    NA+41726   3.559  24.677  14.125
71127ION    NA+41727  16.204  13.598  13.163
71128ION    NA+41728  32.264   1.145   9.737
71129ION    NA+41729  10.745   8.764   3.569
71130ION    NA+41730  11.255  30.186  10.553
71131ION    NA+41731   1.363   0.376  12.876
71132ION    NA+41732  41.136  22.718  14.165
71133ION    NA+41733   7.436  19.455  10.742
71134ION    NA+41734  23.888  36.715   0.439
71135ION    NA+41735  27.958  21.199   1.429
71136ION    NA+41736  31.015  40.644  14.244
71137ION    NA+41737  12.139  13.939   5.372
71138ION    NA+41738  20.705  39.906   0.676
71139ION    NA+41739  12.281  38.520  14.327
71140ION    NA+41740   8.945  22.267  12.935
71141ION    NA+41741   7.817  41.941   1.633
71142ION    NA+41742   4.599  40.210   2.852
71143ION    NA+41743  26.619   1.664  13.981
71144ION    NA+41744  11.672  13.036   3.649
71145ION    NA+41745  29.394  30.551  12.098
71146ION    NA+41746  25.156  33.525   2.018
71147ION    NA+41747  14.135  10.188   2.860
71148ION    NA+41748  10.718  43.617   3.509
71149ION    NA+41749   4.508  38.247   3.989
71150ION    NA+41750  13.961   3.302  12.169
71151ION    NA+41751  23.043  40.618   1.839
71152ION    NA+41752  33.530  40.114  11.370
71153ION    NA+41753  41.423  10.514   4.933
71154ION    NA+41754  41.393  35.225   1.282
71155ION    NA+41755  34.929  22.494  12.943
71156ION    NA+41756  25.341  23.774  14.038
71157ION    NA+41757  35.611  35.504  12.288
71158ION    NA+41758  12.278  28.056  14.533
71159ION    NA+41759  15.707   5.646  12.200
71160ION    NA+41760   1.075   7.849   0.356
71161ION    NA+41761  31.878  34.048  11.128
71162ION    NA+41762  34.266  23.903   2.676
71163ION    NA+41763   7.334  19.162   2.841
71164ION    NA+41764  17.488  19.363  14.514
71165ION    NA+41765  14.276   6.271   1.006
71166ION    NA+41766  17.326  37.411   0.886
71167ION    NA+41767   2.687  27.217   1.483
71168ION    NA+41768   7.894  28.276   4.064
71169ION    NA+41769  11.199  38.075   0.266
71170ION    NA+41770  36.439  11.785  12.409
71171ION    NA+41771  41.987  38.077   2.149
71172ION    NA+41772  38.141  40.656  13.095
71173ION    NA+41773   1.325   8.794   0.571
71174ION    NA+41774  41.744  26.653   1.683
71175ION    NA+41775  28.788  11.079  13.179
71176ION    NA+41776  21.026  16.522   2.664
71177ION    NA+41777   1.921  23.066   3.650
71178ION    NA+41778  42.176  43.309   2.809
71179ION    NA+41779  21.548  30.791   0.920
71180ION    NA+41780  15.315  30.528  10.680
71181ION    NA+41781  29.687   5.183   0.804
71182ION    NA+41782  43.081   9.412  10.606
71183ION    NA+41783  17.870  10.147  12.055
71184ION    NA+41784  27.239  44.410  13.748
71185ION    NA+41785  36.977  11.099  12.689
71186ION    NA+41786  31.578  25.862  10.884
71187ION    NA+41787  16.683  41.575  10.340
71188ION    NA+41788   7.744  35.880   4.679
71189ION    NA+41789  44.104  33.791  13.318
71190ION    NA+41790  13.593  23.896   3.081
71191ION    NA+41791  33.417  21.914   3.800
71192ION    NA+41792  35.359  35.846   0.164
71193ION    NA+41793  32.019  14.393   1.474
71194ION    NA+41794   4.202  19.647  12.947
71195ION    NA+41795   4.450  35.765  11.908
71196ION    NA+41796  36.935   4.992   2.738
71197ION    NA+41797  18.751  28.094   4.076
71198ION    NA+41798   5.278   6.274   1.670
71199ION    NA+41799   6.842  10.294   0.254
71200ION    NA+41800  19.153  39.523  10.680
71201ION    NA+41801  28.883  28.840  13.245
71202ION    NA+41802  44.522   2.919   4.061
71203ION    NA+41803   7.683   9.445   0.890
71204ION    NA+41804  32.142  30.917   2.643
71205ION    NA+41805   2.675  41.107   3.398
71206ION    NA+41806  43.759  10.398  11.919
71207ION    NA+41807  20.847  17.350   3.249
71208ION    NA+41808   8.462  28.268   4.737
71209ION    NA+41809  26.970  16.857   0.960
71210ION    NA+41810  14.130  43.270   3.086
71211ION    NA+41811  26.492  35.937  10.654
71212ION    NA+41812  11.285  25.616   2.643
71213ION    NA+41813  39.452  39.700   0.675
71214ION    NA+41814   1.190  16.322   1.179
71215ION    NA+41815  36.025  27.526  10.344
71216ION    NA+41816  32.381   6.449   5.062
71217ION    NA+41817  20.176  35.888  13.749
71218ION    NA+41818  15.845   4.488   1.965
71219ION    NA+41819  36.167   9.111  10.365
71220ION    NA+41820  18.720   8.125   2.929
71221ION    NA+41821  19.227  14.861  14.367
71222ION    NA+41822  15.298  36.121  10.713
71223ION    NA+41823   7.164  25.276  11.149
71224ION    NA+41824  31.298  30.744   1.423
71225ION    NA+41825  32.940   9.105  11.617
71226ION    NA+41826  12.160  34.130  14.594
71227ION    NA+41827  27.528   8.830   0.112
71228ION    NA+41828  40.591  26.374   2.758
71229ION    NA+41829  11.680  36.394  12.751
71230ION    NA+41830  43.059  29.232   0.767
71231ION    NA+41831  16.097  21.214  11.714
71232ION    NA+41832   5.492  30.471  11.269
71233ION    NA+41833  37.078  19.121   2.295
71234ION    NA+41834  21.228  10.620   4.225
71235ION    NA+41835   9.378  34.365   1.226
71236ION    NA+41836  26.923  24.983   0.445
71237ION    NA+41837  36.998   1.462   4.482
71238ION    NA+41838  22.748  11.617   2.841
71239ION    NA+41839  12.185  33.210  11.648
71240ION    NA+41840  26.087  20.596  10.320
71241ION    NA+41841   2.177  14.868   4.346
71242ION    NA+41842  17.910  42.640  10.586
71243ION    NA+41843  18.046  32.357  14.910
71244ION    NA+41844   1.406  26.511  14.247
71245ION    NA+41845  23.039  23.977   3.224
71246ION    NA+41846  20.149  32.127  14.626
71247ION    NA+41847  24.434   3.621   1.046
71248ION    NA+41848  26.878   2.278   4.742
71249ION    NA+41849  15.520  12.253  12.071
71250ION    NA+41850  34.304  34.418   0.509
71251ION    NA+41851  20.761  12.209  13.487
71252ION    NA+41852   9.916  23.211  11.967
71253ION    NA+41853   9.061  35.257   0.310
71254ION    NA+41854  11.492   8.937   4.650
71255ION    NA+41855  18.320  32.328  11.339
71256ION    NA+41856  43.010  33.153   1.178
71257ION    NA+41857  15.391  33.808  11.570
71258ION    NA+41858  17.310   6.857   1.208
71259ION    NA+41859  42.420  33.096  13.894
71260ION    NA+41860  43.042  24.633  12.782
71261ION    NA+41861   8.699  25.373  13.161
71262ION    NA+41862  33.148  12.165  12.895
71263ION    NA+41863  28.504  10.515  14.189
71264ION    NA+41864  29.913  15.578  10.638
71265ION    NA+41865  13.131   1.339   3.768
71266ION    NA+41866  13.343  39.330   5.093
71267ION    NA+41867  12.733  34.342   2.294
71268ION    NA+41868  32.522  26.179  10.790
71269ION    NA+41869   0.537  41.075  11.570
71270ION    NA+41870   6.275  42.799  10.493
71271ION    NA+41871   1.377  22.563  10.758
71272ION    NA+41872  24.656  29.955   3.384
71273ION    NA+41873  22.284  31.176   3.605
71274ION    NA+41874  13.526   0.736  11.224
71275ION    NA+41875  22.185  41.820  11.965
71276ION    NA+41876  44.770  36.780  12.288
71277ION    NA+41877  24.927  14.734   4.397
71278ION    NA+41878   9.320  17.360  11.997
71279ION    NA+41879   6.386  11.181  10.264
71280ION    NA+41880  38.802  34.651  12.660
71281ION    NA+41881  25.141  20.722  10.744
71282ION    NA+41882   6.689  15.316  11.588
71283ION    NA+41883  11.860   6.961  12.548
71284ION    NA+41884  30.470  42.620   5.473
71285ION    NA+41885   3.097   6.187   0.279
71286ION    NA+41886   2.758  41.936  13.210
71287ION    NA+41887   7.961  12.899  14.861
71288ION    NA+41888  43.147  10.188   2.267
71289ION    NA+41889  10.289  10.828  14.050
71290ION    NA+41890  11.317  20.778   3.762
71291ION    NA+41891   9.922  37.252  10.366
71292ION    NA+41892  32.648   4.814  14.812
71293ION    NA+41893   0.969   5.461   3.099
71294ION    NA+41894  17.493  14.457  11.494
71295ION    NA+41895  43.132   4.670   3.534
71296ION    NA+41896  34.398   2.765   0.849
71297ION    NA+41897  25.087  11.622  14.372
71298ION    NA+41898  21.988   8.393   1.771
71299ION    NA+41899   8.229  37.634   2.149
71300ION    NA+41900  41.541   1.440  11.182
71301ION    NA+41901  19.263  24.631   4.331
71302ION    NA+41902  13.269  23.037   2.632
71303ION    NA+41903  44.878  37.752  14.099
71304ION    NA+41904   6.182   0.803   0.388
71305ION    NA+41905   9.621  31.646   0.860
71306ION    NA+41906  41.876  19.543   2.217
71307ION    NA+41907  23.429  19.027   1.567
71308ION    NA+41908  26.089  30.200  12.017
71309ION    NA+41909  27.176  10.700  14.563
71310ION    NA+41910  40.956  23.307  13.310
71311ION    NA+41911  26.579  35.586   1.703
71312ION    NA+41912  11.566   6.499   1.050
71313ION    NA+41913  27.303  10.272  10.396
71314ION    NA+41914   1.946   6.406  13.384
71315ION    NA+41915  22.873   3.425  12.993
71316ION    NA+41916  18.669  32.172   2.294
71317ION    NA+41917  22.653  30.022  11.627
71318ION    NA+41918  41.136  39.538  11.196
71319ION    NA+41919  33.879   5.751  11.895
71320ION    NA+41920  28.376  25.207   2.349
71321ION    NA+41921   7.668  36.322  13.846
71322ION    NA+41922  36.577  26.197   2.513
71323ION    NA+41923  24.538  43.005   1.866
71324ION    NA+41924   9.073  25.391   2.626
71325ION    NA+41925   2.301  43.980  12.061
71326ION    NA+41926  44.104  27.454  11.977
71327ION    NA+41927   3.162  35.012   2.385
71328ION    NA+41928   9.119  20.614   2.727
71329ION    NA+41929   5.765   2.770   1.814
71330ION    NA+41930  19.465  19.647   0.280
71331ION    NA+41931  27.969  19.515   1.992
71332ION    NA+41932  13.062  23.993  13.957
71333ION    NA+41933  23.802  16.035   0.614
71334ION    NA+41934  27.371  35.250   0.597
71335ION    NA+41935  10.649  30.681  11.178
71336ION    NA+41936  33.507  25.030  14.261
71337ION    NA+41937  32.956   6.427   2.018
71338ION    NA+41938  28.387  31.611  12.597
71339ION    NA+41939   3.737  32.820   1.446
71340ION    NA+41940   8.115  21.285   3.651
71341ION    NA+41941   6.626  13.819   0.078
71342ION    NA+41942  20.980   8.978   3.491
71343ION    NA+41943  23.023  34.973  14.466
71344ION    NA+41944   0.156  22.276   1.810
71345ION    NA+41945   4.672  17.584  11.105
71346ION    NA+41946  32.966  22.983   4.158
71347ION    NA+41947  44.242   8.844  12.355
71348ION    NA+41948  38.495  42.821   3.285
71349ION    NA+41949  37.037   3.545   1.040
71350ION    NA+41950  21.059  37.942  11.397
71351ION    NA+41951   4.239  29.300  10.081
71352ION    NA+41952  17.472  30.024   4.501
71353ION    NA+41953  44.640  17.706   0.049
71354ION    NA+41954  22.256  37.150  11.427
71355ION    NA+41955   5.764  28.493  12.962
71356ION    NA+41956  34.856   9.770  13.130
71357ION    NA+41957  21.967   6.674   1.453
71358ION    NA+41958  19.161  12.565   2.560
71359ION    NA+41959   9.868  43.982  14.287
71360ION    NA+41960   9.304   7.607   4.487
71361ION    NA+41961  33.154   4.419  11.609
71362ION    NA+41962   4.241  15.319  14.543
71363ION    NA+41963  11.935  44.453  10.818
71364ION    NA+41964  41.335   0.223   1.974
71365ION    NA+41965   5.874  21.680  11.567
71366ION    NA+41966  42.367  21.321   3.276
71367ION    NA+41967  17.077  24.463   4.195
71368ION    NA+41968  40.005  33.967   0.080
71369ION    NA+41969  14.714  27.921  11.996
71370ION    NA+41970  24.011  27.188   3.207
71371ION    NA+41971  39.034  22.364   1.854
71372ION    NA+41972  40.758  44.021   3.859
71373ION    NA+41973  28.044  22.324   0.320
71374ION    NA+41974  18.064  18.141   1.754
71375ION    NA+41975  40.853  33.566   1.291
71376ION    NA+41976  33.298   5.073  13.392
71377ION    NA+41977  36.935   0.714   0.975
71378ION    NA+41978  34.928  42.816  10.826
71379ION    NA+41979  15.474  16.181  13.970
71380ION    NA+41980  13.661   1.748  12.346
71381ION    NA+41981  26.335  28.913   1.286
71382ION    NA+41982  19.499  36.864  13.452
71383ION    NA+41983  10.292   1.879   1.499
71384ION    NA+41984  14.014  35.184  13.509
71385ION    NA+41985  41.565  22.958  10.341
71386ION    NA+41986  30.112   2.270  14.804
71387ION    NA+41987   3.357  40.065   0.546
71388ION    NA+41988  31.341   5.293   3.116
71389ION    NA+41989  26.901   3.828  13.492
71390ION    NA+41990  21.569   4.857   9.684
71391ION    NA+41991  10.363  38.681   1.747
71392ION    NA+41992  17.169  10.111   3.644
71393ION    NA+41993  24.515  43.618  12.368
71394ION    NA+41994   4.705  39.224   3.908
71395ION    NA+41995  37.939  15.397   3.674
71396ION    NA+41996  30.397  32.680   2.652
71397ION    NA+41997  23.256  24.481   0.844
71398ION    NA+41998  10.806  39.771   1.446
71399ION    NA+41999  20.617  31.854  13.880
71400ION    NA+42000  23.001  43.073  13.376
71401ION    NA+42001   4.006  18.108  11.394
71402ION    NA+42002  10.877  23.466   4.504
71403ION    NA+42003  20.105  31.855  12.135
71404ION    NA+42004   2.157  29.755   1.382
71405ION    NA+42005  26.092  23.227  11.232
71406ION    NA+42006  25.546  44.627  10.050
71407ION    NA+42007   6.936   3.440  12.481
71408ION    NA+42008  33.672  25.723   0.482
71409ION    NA+42009  25.968   0.281   9.670
71410ION    NA+42010  43.759  22.607   3.844
71411ION    NA+42011  28.892  26.191  10.707
71412ION    NA+42012  32.858  42.871  11.526
71413ION    NA+42013  40.308   0.700  12.795
71414ION    NA+42014  20.486  13.599   4.400
71415ION    NA+42015  20.126   3.606   0.664
71416ION    NA+42016  27.262  33.180  11.674
71417ION    NA+42017  35.095   2.936   2.093
71418ION    NA+42018  36.452  42.117   4.682
71419ION    NA+42019  25.768  14.394   4.589
71420ION    NA+42020  24.782  37.645  12.515
71421ION    NA+42021  44.827  42.764  11.242
71422ION    NA+42022  35.504  35.756  11.442
71423ION    NA+42023   2.351   9.828   4.097
71424ION    NA+42024  19.682  13.652  13.582
71425ION    NA+42025   8.548  30.590   2.550
71426ION    NA+42026  32.942  13.315   2.527
71427ION    NA+42027  35.741  41.075  14.899
71428ION    NA+42028  29.483  15.669   3.510
71429ION    NA+42029  40.041  39.052  10.797
71430ION    NA+42030  44.338  26.599  13.810
71431ION    NA+42031  35.872   6.718   2.262
71432ION    NA+42032   1.482  21.517   0.869
71433ION    NA+42033  11.038  34.058   1.670
71434ION    NA+42034   3.660  44.929   2.808
71435ION    NA+42035   7.866  30.134  10.846
71436ION    NA+42036  15.027  17.017   0.315
71437ION    NA+42037  18.753  43.944   3.153
71438ION    NA+42038  36.895  37.572   4.580
71439ION    NA+42039  24.965  24.126   0.008
71440ION    NA+42040   4.371  16.096   0.512
71441ION    NA+42041  17.948  37.898  10.616
71442ION    NA+42042  43.583  19.976  14.066
71443ION    NA+42043  42.425  12.517  13.482
71444ION    NA+42044  26.946  11.718   3.189
71445ION    NA+42045   8.592  34.513   1.640
71446ION    NA+42046   1.833  27.571  12.034
71447ION    NA+42047  35.236  38.356   1.532
71448ION    NA+42048   0.454  34.886   2.669
71449ION    NA+42049  10.745  10.231   2.659
71450ION    NA+42050   9.751  16.733   0.486
71451ION    NA+42051  16.679  33.190  13.552
71452ION    NA+42052  18.748  39.114   4.495
71453ION    NA+42053  14.860   5.543  10.740
71454ION    NA+42054  38.813   5.926  13.999
71455ION    NA+42055  32.802  44.912  14.433
71456ION    NA+42056  34.224  41.642   1.615
71457ION    NA+42057  15.436  12.214   1.941
71458ION    NA+42058   8.116  29.465  14.299
71459ION    NA+42059  33.733  38.414   2.077
71460ION    NA+42060  36.554  40.275   4.400
71461ION    NA+42061  41.659  23.495   3.597
71462ION    NA+42062   7.150   2.752   4.089
71463ION    NA+42063  24.979  30.346  12.959
71464ION    NA+42064   5.537   1.876  14.681
71465ION    NA+42065  37.037  21.711   4.662
71466ION    NA+42066  42.777   0.488   2.389
71467ION    NA+42067  11.386  21.718   1.789
71468ION    NA+42068   7.430  36.005  11.440
71469ION    NA+42069   7.110  11.859  14.482
71470ION    NA+42070  39.363  26.143   0.981
71471ION    NA+42071  42.305  10.477  14.305
71472ION    NA+42072  34.815  40.349   4.222
71473ION    NA+42073  31.029  27.911   1.694
71474ION    NA+42074   5.294  22.327  13.928
71475ION    NA+42075  36.025  22.424  11.257
71476ION    NA+42076  25.978  30.851  14.375
71477ION    NA+42077   6.521  41.835   3.048
71478ION    NA+42078  27.582  25.042  10.623
71479ION    NA+42079  26.319   2.530   0.181
71480ION    NA+42080  23.933   0.497   1.242
71481ION    NA+42081  14.797  27.717   2.834
71482ION    NA+42082  17.792   3.960   3.637
71483ION    NA+42083  32.216  23.507  12.369
71484ION    NA+42084  33.241  38.965   1.557
71485ION    NA+42085  31.619  30.767  11.673
71486ION    NA+42086  22.112  23.521   3.937
71487ION    NA+42087  22.863  15.824   2.344
71488ION    NA+42088   4.840   2.345   1.757
71489ION    NA+42089   4.957  29.008  12.675
71490ION    NA+42090  13.329  21.477   1.347
71491ION    NA+42091  11.279  37.411   5.035
71492ION    NA+42092   9.945  14.115  13.968
71493ION    NA+42093  10.447  41.500  13.449
71494ION    NA+42094  40.926  23.444   0.329
71495ION    NA+42095  40.398  43.753   2.298
71496ION    NA+42096  14.038  32.409   3.702
71497ION    NA+42097  30.014  16.384  14.333
71498ION    NA+42098  13.288  12.414   2.185
71499ION    NA+42099  24.444  11.849   2.650
71500ION    NA+42100   2.358  42.959   0.647
71501ION    NA+42101  10.008  19.198   4.065
71502ION    NA+42102   9.625  28.469   2.827
71503ION    NA+42103  29.205  10.693   1.819
71504ION    NA+42104  44.472  28.160   3.476
71505ION    NA+42105  19.824  41.663  13.589
71506ION    NA+42106  33.425  38.540  13.961
71507ION    NA+42107  20.749  36.718   3.937
71508ION    NA+42108  17.559  38.758  13.330
71509ION    NA+42109  28.895  12.818   4.734
71510ION    NA+42110  39.556  20.279  14.718
71511ION    NA+42111  20.247   4.292   3.123
71512ION    NA+42112  39.520  28.227  13.330
71513ION    NA+42113  13.149  31.077   3.996
71514ION    NA+42114   8.349  23.877  13.830
71515ION    NA+42115   3.851   9.654   2.815
71516ION    NA+42116  41.459  26.644   0.484
71517ION    NA+42117  29.138  31.925   4.222
71518ION    NA+42118  20.798   0.562   2.659
71519ION    NA+42119   8.252  19.785   1.929
71520ION    NA+42120  11.996  22.842  12.361
71521ION    NA+42121  19.068  17.923   4.160
71522ION    NA+42122  10.747  12.401   2.520
71523ION    NA+42123  20.334   0.077  11.337
71524ION    NA+42124  38.437  14.161  11.443
71525ION    NA+42125  27.518  28.609  11.492
71526ION    NA+42126  19.799  30.544   1.275
71527ION    NA+42127   2.889  20.414   3.196
71528ION    NA+42128  13.094   2.967  13.908
71529ION    NA+42129  22.479  29.087  10.197
71530ION    NA+42130  44.248  38.795   4.184
71531ION    NA+42131  39.400  29.581   4.143
71532ION    NA+42132  13.323   2.312   1.409
71533ION    NA+42133  23.505   4.277   0.550
71534ION    NA+42134  41.406  23.954  12.092
71535ION    NA+42135  17.423  29.296   3.358
71536ION    NA+42136  43.476   1.527  14.786
71537ION    NA+42137  24.471  25.126  11.368
71538ION    NA+42138   7.413  42.802  12.325
71539ION    NA+42139  15.825  40.380   3.113
71540ION    NA+42140  20.106  12.268   2.421
71541ION    NA+42141  34.823  30.607   3.097
71542ION    NA+42142   7.946  12.604  12.062
71543ION    NA+42143  17.434   9.430  11.511
71544ION    NA+42144   7.469  33.719   5.168
71545ION    NA+42145  38.735   0.826  14.848
71546ION    NA+42146   9.505   6.070  12.023
71547ION    NA+42147  39.600   1.896   4.009
71548ION    NA+42148  24.948  37.144  14.323
71549ION    NA+42149  18.751   3.310  11.107
71550ION    NA+42150  32.892  15.362   2.540
71551ION    NA+42151  24.654  30.710  14.531
71552ION    NA+42152   6.438  40.966   2.384
71553ION    NA+42153  35.674  33.965  11.372
71554ION    NA+42154  17.234  23.373   3.350
71555ION    NA+42155  16.349  43.892  12.814
71556ION    NA+42156  32.366  26.295  12.079
71557ION    NA+42157  24.015  41.281  14.770
71558ION    NA+42158  24.955  28.396  11.189
71559ION    NA+42159  21.475   1.348  14.322
71560ION    NA+42160  28.171  18.397   1.723
71561ION    NA+42161  22.150  37.983  13.708
71562ION    NA+42162  15.684  33.037   1.082
71563ION    NA+42163  16.896   7.460   3.851
71564ION    NA+42164  41.947   9.989   2.586
71565ION    NA+42165  29.739  29.183  13.022
71566ION    NA+42166  35.646  23.122   3.078
71567ION    NA+42167  17.036  15.636   0.492
71568ION    NA+42168  38.690  44.945  11.108
71569ION    NA+42169  18.972  16.730  11.432
71570ION    NA+42170  37.646  28.438  14.388
71571ION    NA+42171  32.286  37.334   3.197
71572ION    NA+42172   8.909  36.300  13.459
71573ION    NA+42173   1.636  29.193   2.684
71574ION    NA+42174  22.450  28.506  10.877
71575ION    NA+42175  21.262  28.466  12.946
71576ION    NA+42176  39.909  16.593  10.675
71577ION    NA+42177  23.942  21.632  12.364
71578ION    NA+42178  17.387  42.754   3.608
71579ION    NA+42179  20.298  24.753   3.317
71580ION    NA+42180   6.148  20.095   1.312
71581ION    NA+42181  10.547  26.260   3.311
71582ION    NA+42182  32.368  11.100   3.948
71583ION    NA+42183  23.600  18.074   4.601
71584ION    NA+42184  13.962  32.783  13.827
71585ION    NA+42185  24.536  42.944  14.502
71586ION    NA+42186  26.930  27.225   0.909
71587ION    NA+42187  27.604   4.005   0.137
71588ION    NA+42188  34.546   8.768   0.235
71589ION    NA+42189  28.862  28.375   2.380
71590ION    NA+42190  39.135  44.109   1.476
71591ION    NA+42191  16.172  34.166  10.823
71592ION    NA+42192   0.429  36.282   4.790
71593ION    NA+42193  11.805  13.295   1.656
71594ION    NA+42194  38.785  27.992   2.521
71595ION    NA+42195  44.311   5.928  14.900
71596ION    NA+42196  39.837   4.171   4.711
71597ION    NA+42197  43.224  44.491   1.853
71598ION    NA+42198  31.984  12.634   2.812
71599ION    NA+42199   1.870  33.365   1.363
71600ION    NA+42200  24.937  19.916  13.449
71601ION    NA+42201  21.000  32.393  11.208
71602ION    NA+42202  43.886   9.470  11.570
71603ION    NA+42203  11.609  35.166  14.610
71604ION    NA+42204  34.903  40.694   2.801
71605ION    NA+42205   5.720  22.520   0.080
71606ION    NA+42206  19.339   3.961  13.620
71607ION    NA+42207  17.861  11.189  13.019
71608ION    NA+42208  36.296  44.165  12.277
71609ION    NA+42209  12.348  34.852  10.920
71610ION    NA+42210  36.139  12.481   3.652
71611ION    NA+42211  39.736  17.960   9.280
71612ION    NA+42212   5.236  25.665  11.896
71613ION    NA+42213  30.501  33.384  13.552
71614ION    NA+42214  20.879  20.160  14.216
71615ION    NA+42215  29.237  27.427   2.365
71616ION    NA+42216  18.753  36.935  14.114
71617ION    NA+42217  16.216  12.645  13.635
71618ION    NA+42218  40.542   4.228  14.917
71619ION    NA+42219  44.610  27.488  11.097
71620ION    NA+42220   0.429  17.811   3.042
71621ION    NA+42221  36.193  36.024  10.733
71622ION    NA+42222  33.512   7.131   4.634
71623ION    NA+42223  27.592  37.407   1.102
71624ION    NA+42224  28.477  10.398   2.768
71625ION    NA+42225  31.401  25.701   2.644
71626ION    NA+42226  16.509  26.423   5.716
71627ION    NA+42227  28.375   2.879  13.865
71628ION    NA+42228  12.720  26.671   2.509
71629ION    NA+42229  29.469  10.297  10.774
71630ION    NA+42230  39.081  10.764   4.202
71631ION    NA+42231   6.295  38.141  14.560
71632ION    NA+42232  34.403   1.266  10.731
71633ION    NA+42233  39.487   3.746  10.625
71634ION    NA+42234   5.916  24.798  14.379
71635ION    NA+42235   6.142   3.904  11.534
71636ION    NA+42236   5.811  15.762  10.859
71637ION    NA+42237  16.178  18.151   3.729
71638ION    NA+42238  31.511  12.810   1.813
71639ION    NA+42239  13.283  43.433  11.480
71640ION    NA+42240   1.800   3.241  13.583
71641ION    NA+42241  28.334  33.414  12.663
71642ION    NA+42242  35.855  35.889   3.644
71643ION    NA+42243  34.101  17.910  14.403
71644ION    NA+42244  21.145   5.837   0.030
71645ION    NA+42245   5.763  16.271  12.360
71646ION    NA+42246  27.605  17.306   4.334
71647ION    NA+42247  25.609   1.252  10.639
71648ION    NA+42248  11.027  39.606   2.838
71649ION    NA+42249  43.592   6.436  14.365
71650ION    NA+42250  39.083  13.963  14.950
71651ION    NA+42251   6.244   0.016   2.532
71652ION    NA+42252  33.214  18.511  13.418
71653ION    NA+42253  32.692  33.380  11.143
71654ION    NA+42254  16.052  20.923  14.149
71655ION    NA+42255   7.676  14.412   1.362
71656ION    NA+42256  35.857   7.544   2.825
71657ION    NA+42257   9.130  21.072   3.659
71658ION    NA+42258  22.155  15.743  10.716
71659ION    NA+42259  41.073   6.414  10.410
71660ION    NA+42260  13.221  16.313   0.646
71661ION    NA+42261  18.226  43.365   2.529
71662ION    NA+42262  28.558  13.442  14.797
71663ION    NA+42263  13.576  25.865  11.838
71664ION    NA+42264   3.675  36.398  13.692
71665ION    NA+42265   4.025  39.389  14.929
71666ION    NA+42266  31.151   8.478   0.783
71667ION    NA+42267  41.620  12.253   1.087
71668ION    NA+42268  27.014  17.560  10.763
71669ION    NA+42269  26.777  40.470  10.028
71670ION    NA+42270  28.703   8.443   0.648
71671ION    NA+42271  12.821  39.253  14.404
71672ION    NA+42272  10.486  16.057   0.527
71673ION    NA+42273  39.275  34.557   1.807
71674ION    NA+42274  33.480  31.201   0.449
71675ION    NA+42275  14.783  22.211  13.431
71676ION    NA+42276  37.333   2.716   1.822
71677ION    NA+42277   9.177  42.714   1.036
71678ION    NA+42278  29.109   0.980   0.981
71679ION    NA+42279   5.695  19.178  13.849
71680ION    NA+42280  44.500  32.967   1.474
71681ION    NA+42281  28.580  19.094  12.063
71682ION    NA+42282  37.337   1.162   0.137
71683ION    NA+42283   0.009  13.123  10.853
71684ION    NA+42284  20.587  28.484   2.187
71685ION    NA+42285   0.194  15.568  11.017
71686ION    NA+42286  38.318  38.466   4.991
71687ION    NA+42287  37.537  37.558   2.732
71688ION    NA+42288  10.702  12.357  10.867
71689ION    NA+42289  14.633  13.387  13.462
71690ION    NA+42290  33.506  41.440   5.002
71691ION    NA+42291  11.345  40.647  10.400
71692ION    NA+42292  24.176   2.020   0.625
71693ION    NA+42293  25.445  20.294   2.805
71694ION    NA+42294  20.425  42.040   3.539
71695ION    NA+42295  36.415  35.834   4.983
71696ION    NA+42296  32.705   0.516   1.201
71697ION    NA+42297   0.239  31.237  11.634
71698ION    NA+42298  17.967  31.422   0.275
71699ION    NA+42299  24.657  28.198  14.728
71700ION    NA+42300   4.537  16.058  11.125
71701ION    NA+42301  16.121  17.221   1.902
71702ION    NA+42302   6.193   0.253  13.010
71703ION    NA+42303  42.976  36.053   2.961
71704ION    NA+42304  20.260  43.717  11.940
71705ION    NA+42305   7.810   5.987  11.224
71706ION    NA+42306  14.263   9.893  14.385
71707ION    NA+42307   6.620  42.620  14.767
71708ION    NA+42308  25.394  27.669   3.141
71709ION    NA+42309  41.894  24.196   1.834
71710ION    NA+42310  41.282  42.538  12.106
71711ION    NA+42311  35.776  35.007  14.301
71712ION    NA+42312  40.469  34.067  13.881
71713ION    NA+42313   8.321  19.721  11.124
71714ION    NA+42314  29.654  27.434  10.730
71715ION    NA+42315  14.326  38.017  13.881
71716ION    NA+42316  30.319  29.815  13.485
71717ION    NA+42317  13.214  26.742  11.501
71718ION    NA+42318  13.015  23.879   0.714
71719ION    NA+42319  44.428  40.186   9.938
71720ION    NA+42320  27.878  15.934   0.007
71721ION    NA+42321  12.356   9.096  12.756
71722ION    NA+42322  16.744  28.922  13.820
71723ION    NA+42323   6.908   4.458   3.110
71724ION    NA+42324  21.672  39.816   0.914
71725ION    NA+42325   7.308  31.067  11.989
71726ION    NA+42326  20.708   8.458  13.913
71727ION    NA+42327  32.520   9.776   0.246
71728ION    NA+42328   8.593  18.099   3.817
71729ION    NA+42329  23.985  35.358  11.124
71730ION    NA+42330  15.537  43.295   2.619
71731ION    NA+42331  21.321  26.174  14.219
71732ION    NA+42332  31.275   8.716  10.540
71733ION    NA+42333  13.096  14.616  12.916
71734ION    NA+42334  12.266  34.970  13.468
71735ION    NA+42335  16.990   4.324   4.613
71736ION    NA+42336  18.593   1.784  11.971
71737ION    NA+42337  44.796  11.145   3.583
71738ION    NA+42338  23.771   2.713   4.425
71739ION    NA+42339  12.732   2.350   4.596
71740ION    NA+42340  21.665  37.532   1.511
71741ION    NA+42341  11.176  20.757   0.805
71742ION    NA+42342  27.719  43.350   3.597
71743ION    NA+42343  12.764  27.833  12.363
71744ION    NA+42344  26.543   5.319   0.967
71745ION    NA+42345   6.244  18.542  14.467
71746ION    NA+42346  35.510  39.003  13.205
71747ION    NA+42347  18.132  34.997   3.776
71748ION    NA+42348  41.214  29.475   0.716
71749ION    NA+42349  41.325  10.953   1.345
71750ION    NA+42350  36.780  16.966  12.172
71751ION    NA+42351   7.406  42.453  11.179
71752ION    NA+42352  16.590  36.364   2.786
71753ION    NA+42353  12.205  37.517   1.093
71754ION    NA+42354   8.094  25.587   2.678
71755ION    NA+42355  38.367  41.839  10.858
71756ION    NA+42356  32.943  20.303  13.965
71757ION    NA+42357   0.773  17.131   1.467
71758ION    NA+42358   6.090  15.287   0.933
71759ION    NA+42359  36.146  16.723  13.775
71760ION    NA+42360  17.710  26.216   3.423
71761ION    NA+42361  25.365  21.671  13.050
71762ION    NA+42362  24.411   3.153  10.478
71763ION    NA+42363  18.820  20.577  13.462
71764ION    NA+42364  16.799  23.988  11.487
71765ION    NA+42365  36.409  44.370   1.453
71766ION    NA+42366   8.204  28.219   2.161
71767ION    NA+42367  33.382  15.968   3.694
71768ION    NA+42368  26.009  42.833  13.836
71769ION    NA+42369  36.861  14.230  11.991
71770ION    NA+42370  14.328  28.480   4.582
71771ION    NA+42371   7.228   7.840   5.071
71772ION    NA+42372  13.422  37.753  14.217
71773ION    NA+42373  25.108   0.850   4.336
71774ION    NA+42374  26.756  22.479  11.481
71775ION    NA+42375  29.528  36.346  13.773
71776ION    NA+42376  44.730  44.708   0.895
71777ION    NA+42377   7.088  20.268  14.373
71778ION    NA+42378  27.933   7.411   0.084
71779ION    NA+42379  34.151  33.581   2.372
71780ION    NA+42380   3.958  39.049   4.039
71781ION    NA+42381   8.135  17.031  11.142
71782ION    NA+42382  16.047  34.131   2.404
71783ION    NA+42383  20.098   4.526   0.708
71784ION    NA+42384  28.617   1.779   2.611
71785ION    NA+42385  37.910   3.872  10.687
71786ION    NA+42386   6.265  23.109  11.559
71787ION    NA+42387   3.650  12.293  11.521
71788ION    NA+42388  25.272  35.467   1.751
71789ION    NA+42389  41.016  42.553   3.380
71790ION    NA+42390  32.566   7.286  13.765
71791ION    NA+42391  14.167  42.722  11.469
71792ION    NA+42392  30.517  32.260  10.589
71793ION    NA+42393  18.417  24.720  13.458
71794ION    NA+42394   2.933  38.953  14.008
71795ION    NA+42395  43.774  17.863   2.578
71796ION    NA+42396  22.277  17.655  14.602
71797ION    NA+42397   8.471  41.941   4.518
71798ION    NA+42398   5.315  11.259  13.118
71799ION    NA+42399  42.067  42.121   1.306
71800ION    NA+42400  18.510  38.517   3.168
71801ION    NA+42401  23.025  41.219  10.701
71802ION    NA+42402  35.804  29.564   3.744
71803ION    NA+42403  28.885  39.254  11.138
71804ION    NA+42404  20.755   2.436   4.062
71805ION    NA+42405  43.826  24.197  12.907
71806ION    NA+42406  42.596  37.436  12.729
71807ION    NA+42407  22.445   1.266  12.442
71808ION    NA+42408   4.384  40.523   1.326
71809ION    NA+42409  32.161   6.197   1.930
71810ION    NA+42410   1.645  37.143  14.228
71811ION    NA+42411  36.508  22.684   3.335
71812ION    NA+42412  29.537  24.140   4.191
71813ION    NA+42413  33.037  14.298  14.720
71814ION    NA+42414   2.182  18.609   3.953
71815ION    NA+42415  30.089  10.799   0.943
71816ION    NA+42416  16.101  11.601   1.513
71817ION    NA+42417  21.661  10.708   1.774
71818ION    NA+42418  29.846  11.416  12.507
71819ION    NA+42419   8.835  18.722   2.744
71820ION    NA+42420  18.330  14.680  14.244
71821ION    NA+42421   9.717   6.028   1.279
71822ION    NA+42422  26.465  35.299   0.705
71823ION    NA+42423  17.053   3.383   3.289
71824ION    NA+42424  39.868   2.713  11.267
71825ION    NA+42425  15.113  13.601  14.915
71826ION    NA+42426  25.605   9.173   1.643
71827ION    NA+42427  20.122   6.555   1.308
71828ION    NA+42428   6.314  39.339   4.038
71829ION    NA+42429   1.777   0.412  11.530
71830ION    NA+42430   1.724  15.729  12.577
71831ION    NA+42431   7.777  29.653  11.718
71832ION    NA+42432  39.062   4.243   3.072
71833ION    NA+42433   3.324  37.338   1.677
71834ION    NA+42434   8.433  26.857  11.479
71835ION    NA+42435  35.352  14.576   1.262
71836ION    NA+42436  18.130  28.974   1.663
71837ION    NA+42437  18.595  23.970   4.759
71838ION    NA+42438  14.341  10.346   0.924
71839ION    NA+42439  42.557   7.411   0.531
71840ION    NA+42440  11.473  27.193  14.432
71841ION    NA+42441  12.982   8.589   4.557
71842ION    NA+42442  33.376   9.779   1.417
71843ION    NA+42443  14.493  36.118  11.526
71844ION    NA+42444  10.367  44.248   4.678
71845ION    NA+42445  40.245   5.848  13.043
71846ION    NA+42446  15.724   2.429   2.775
71847ION    NA+42447  36.746  13.450  12.304
71848ION    NA+42448  16.565  29.235   4.515
71849ION    NA+42449  34.519  11.201  11.715
71850ION    NA+42450  29.481  23.700  14.195
71851ION    NA+42451  35.717   3.181  12.897
71852ION    NA+42452  28.489   4.734   2.445
71853ION    NA+42453  11.654  38.565  10.728
71854ION    NA+42454  39.961  40.734  13.574
71855ION    NA+42455  30.624  38.477   5.685
71856ION    NA+42456   9.542  32.348  14.604
71857ION    NA+42457  42.233  30.501   2.788
71858ION    NA+42458  21.376   3.599  13.460
71859ION    NA+42459  34.694  31.964  10.483
71860ION    NA+42460  39.798   3.834   2.533
71861ION    NA+42461  42.421  30.158   3.863
71862ION    NA+42462   3.520  23.461   0.196
71863ION    NA+42463  19.450  13.967   0.761
71864ION    NA+42464  25.188  24.961  10.689
71865ION    NA+42465  18.226   9.988  14.182
71866ION    NA+42466  28.214  33.454  11.316
71867ION    NA+42467  20.634  21.565  14.516
71868ION    NA+42468  20.345  36.667   4.663
71869ION    NA+42469  17.628  13.671   0.454
71870ION    NA+42470  43.618  28.486  10.711
71871ION    NA+42471  19.707  30.988  12.304
71872ION    NA+42472  12.882  20.877   9.824
71873ION    NA+42473  20.074  33.047  12.348
71874ION    NA+42474  42.601  37.350   1.837
71875ION    NA+42475  26.857  27.669   2.043
71876ION    NA+42476  37.446   6.547   4.216
71877ION    NA+42477  15.248  38.944  12.941
71878ION    NA+42478  28.172   3.721  14.365
71879ION    NA+42479   1.677  34.265   3.431
71880ION    NA+42480  22.065  10.622   0.018
71881ION    NA+42481  12.685  35.534  11.570
71882ION    NA+42482  11.646  42.957  11.123
71883ION    NA+42483  31.823  19.582   1.227
71884ION    NA+42484   0.742   1.518   2.348
71885ION    NA+42485  22.417  18.866   2.708
71886ION    NA+42486   2.400  36.567  13.339
71887ION    NA+42487  19.503   7.605  11.050
71888ION    NA+42488  21.711  27.406   1.290
71889ION    NA+42489  20.013  20.004  11.200
71890ION    NA+42490   6.736   2.256   2.341
71891ION    NA+42491  40.044  22.014   1.818
71892ION    NA+42492  35.381  10.285   0.880
71893ION    NA+42493  22.090   6.437   2.762
71894ION    NA+42494  11.880  20.703  13.370
71895ION    NA+42495  22.473  29.493  13.807
71896ION    NA+42496  41.807  25.075  11.984
71897ION    NA+42497  14.087  18.180   3.659
71898ION    NA+42498  36.148  23.857   1.881
71899ION    NA+42499  34.929  14.734  14.790
71900ION    NA+42500  41.633  32.154   4.460
71901ION    NA+42501  26.592  14.443   2.282
71902ION    NA+42502  36.407  15.726   3.110
71903ION    NA+42503  24.385  28.721   4.503
71904ION    NA+42504  37.383  24.479   4.509
71905ION    NA+42505  25.498   4.897  12.533
71906ION    NA+42506  41.386  42.740   2.577
71907ION    NA+42507   0.365  18.228   4.392
71908ION    NA+42508  19.320  38.663  10.190
71909ION    NA+42509  13.450  39.833   1.830
71910ION    NA+42510  43.251  13.262   3.415
71911ION    NA+42511   3.183  23.702   0.997
71912ION    NA+42512  41.351  34.094   3.438
71913ION    NA+42513   2.973  37.519  13.259
71914ION    NA+42514  32.667   2.540   1.166
71915ION    NA+42515  31.491  18.008  11.635
71916ION    NA+42516  30.913  24.479   3.526
71917ION    NA+42517  36.041  17.183   2.648
71918ION    NA+42518  31.447  15.033  14.378
71919ION    NA+42519  12.325  22.502  13.116
71920ION    NA+42520  18.722   2.318   4.210
71921ION    NA+42521  43.885  20.524  12.042
71922ION    NA+42522  28.968  11.810   1.394
71923ION    NA+42523   8.648  35.811   2.323
71924ION    NA+42524  38.127  28.508  10.730
71925ION    NA+42525  24.551  40.578   0.484
71926ION    NA+42526  31.683  36.976  11.681
71927ION    NA+42527  28.270  26.953   4.194
71928ION    NA+42528  35.478  39.715   3.824
71929ION    NA+42529  21.930  14.819   1.485
71930ION    NA+42530  35.635  11.324   2.796
71931ION    NA+42531  29.801   2.929   2.323
71932ION    NA+42532  18.836  37.427  12.935
71933ION    NA+42533  30.288  41.350  11.825
71934ION    NA+42534  18.892  39.981  12.777
71935ION    NA+42535  13.768   5.964  12.067
71936ION    NA+42536   7.026   9.243   1.483
71937ION    NA+42537  21.255  16.496  12.510
71938ION    NA+42538  29.369   5.485   2.902
71939ION    NA+42539  16.882   1.871   3.972
71940ION    NA+42540  42.126  39.511  11.058
71941ION    NA+42541  37.947  18.352   5.478
71942ION    NA+42542   8.241  24.279  13.095
71943ION    NA+42543  22.445  11.719  10.743
71944ION    NA+42544  28.029  11.269   3.736
71945ION    NA+42545  42.850  13.053  14.211
71946ION    NA+42546  42.746  43.777   0.728
71947ION    NA+42547  24.820  35.063  14.046
71948ION    NA+42548  14.998   9.512   1.097
71949ION    NA+42549   8.324  20.600   4.590
71950ION    NA+42550  18.658  17.695   2.424
71951ION    NA+42551   7.821  21.838  11.589
71952ION    NA+42552  22.811  26.834  14.024
71953ION    NA+42553  29.896   7.850   0.222
71954ION    NA+42554   9.030  17.484   4.326
71955ION    NA+42555  12.141  13.675   2.881
71956ION    NA+42556   4.496   7.710  12.498
71957ION    NA+42557  16.603  15.751   3.970
71958ION    NA+42558  35.282  25.603  13.751
71959ION    NA+42559  24.942  14.733  12.866
71960ION    NA+42560   0.515  31.530   4.081
71961ION    NA+42561  21.616  44.335  14.507
71962ION    NA+42562   9.628   7.408  14.967
71963ION    NA+42563  40.906  33.104   2.861
71964ION    NA+42564   6.668   0.614  10.686
71965ION    NA+42565   4.468  43.847  11.442
71966ION    NA+42566  23.696  40.963  13.972
71967ION    NA+42567  16.020  25.412   3.129
71968ION    NA+42568  30.162   1.043  12.997
71969ION    NA+42569  26.622   7.109  14.862
71970ION    NA+42570  33.519  24.797   0.137
71971ION    NA+42571   4.959  17.573  12.607
71972ION    NA+42572  13.773  37.344   2.608
71973ION    NA+42573  29.818  11.457  13.506
71974ION    NA+42574  23.270  16.379  14.090
71975ION    NA+42575  13.236   4.665  10.002
71976ION    NA+42576  38.499  14.005   3.319
71977ION    NA+42577  21.841  12.186   4.638
71978ION    NA+42578  36.812  24.717  10.054
71979ION    NA+42579   4.708   9.327  14.578
71980ION    NA+42580  32.734  36.338  14.916
71981ION    NA+42581   8.592  28.749   4.102
71982ION    NA+42582  19.075  29.701  13.469
71983ION    NA+42583  34.018   5.967  14.658
71984ION    NA+42584   1.243  31.556   4.796
71985ION    NA+42585   5.798   1.179   3.336
71986ION    NA+42586   6.871  34.964   0.834
71987ION    NA+42587  34.157  12.185   4.117
71988ION    NA+42588   7.234   1.372  11.180
71989ION    NA+42589  40.368  36.373  14.679
71990ION    NA+42590  38.264  15.290   0.010
71991ION    NA+42591  16.626  38.673  11.369
71992ION    NA+42592  20.663   9.171  13.416
71993ION    NA+42593   7.850   8.147   1.484
71994ION    NA+42594  13.906  22.058   0.577
71995ION    NA+42595  37.515  25.510   1.846
71996ION    NA+42596  16.271  14.898   3.292
71997ION    NA+42597  17.486  12.815   0.950
71998ION    NA+42598  41.245  18.260  12.020
71999ION    NA+42599  41.684  18.922  13.767
72000ION    NA+42600   3.946   5.613  11.352
72001ION    NA+42601   0.427  13.438  13.878
72002ION    NA+42602   2.014  31.030   4.101
72003ION    NA+42603   1.717  44.496   2.796
72004ION    NA+42604  35.386  41.373   2.422
72005ION    NA+42605  39.703  44.090  12.138
72006ION    NA+42606  44.951   0.936  12.060
72007ION    NA+42607  20.743  16.632  14.221
72008ION    NA+42608  43.764  37.410  13.254
72009ION    NA+42609   1.513  43.514   3.817
72010ION    NA+42610  14.330   8.212   0.086
72011ION    NA+42611  33.169  11.599   0.816
72012ION    NA+42612   0.583  38.546   5.170
72013ION    NA+42613  11.846  28.942  13.613
72014ION    NA+42614  15.496  34.975   1.999
72015ION    NA+42615  39.926   7.395   1.866
72016ION    NA+42616   1.364  19.505   1.221
72017ION    NA+42617  26.791  33.663  12.280
72018ION    NA+42618  10.616  29.513  14.151
72019ION    NA+42619  32.204  18.400  12.218
72020ION    NA+42620  37.085   9.645   3.895
72021ION    NA+42621  20.209  10.430  12.735
72022ION    NA+42622  30.590  37.191   3.766
72023ION    NA+42623  39.086   0.873  11.063
72024ION    NA+42624  24.505   8.661   0.497
72025ION    NA+42625   9.295  16.220   4.937
72026ION    NA+42626  39.255   6.710  10.791
72027ION    NA+42627  10.861  25.141  10.782
72028ION    NA+42628  44.331  30.029  14.850
72029ION    NA+42629  34.358  13.712  11.490
72030ION    NA+42630  14.440  31.629  13.646
72031ION    NA+42631   9.455  13.542   4.802
72032ION    NA+42632  32.409  35.635   1.459
72033ION    NA+42633  37.864  26.111   4.267
72034ION    NA+42634  20.759  30.997  12.400
72035ION    NA+42635  37.341  38.508   3.832
72036ION    NA+42636  28.673  43.819   3.230
72037ION    NA+42637  41.605  17.196   0.189
72038ION    NA+42638   3.199  30.880   2.956
72039ION    NA+42639  17.664  31.196   1.089
72040ION    NA+42640  41.295   9.413  11.288
72041ION    NA+42641  35.288  28.073  10.747
72042ION    NA+42642  36.532  40.213  13.462
72043ION    NA+42643  41.811  37.387   1.224
72044ION    NA+42644  11.900  24.672  11.172
72045ION    NA+42645  35.632  43.719  11.676
72046ION    NA+42646  44.252  39.198   0.056
72047ION    NA+42647  29.270  13.601   1.227
72048ION    NA+42648  27.630  42.495  12.763
72049ION    NA+42649  19.116  22.489   4.092
72050ION    NA+42650  22.993  18.551   3.335
72051ION    NA+42651   5.187  21.027  14.806
72052ION    NA+42652  44.324  19.189  14.310
72053ION    NA+42653  26.542  43.718  10.861
72054ION    NA+42654  25.352   3.210   0.534
72055ION    NA+42655  27.686  40.075   3.321
72056ION    NA+42656  12.301  10.851   3.769
72057ION    NA+42657   3.181  23.109  12.685
72058ION    NA+42658   0.993  31.009  12.249
72059ION    NA+42659  18.188  23.262   0.920
72060ION    NA+42660   3.906   2.260   4.449
72061ION    NA+42661   6.029  21.205   4.180
72062ION    NA+42662  38.150  30.931  14.060
72063ION    NA+42663  30.916  17.317   3.126
72064ION    NA+42664  11.693   1.278  14.024
72065ION    NA+42665  22.700  43.295   2.857
72066ION    NA+42666  32.491  35.741  13.804
72067ION    NA+42667  41.235  42.750   0.596
72068ION    NA+42668   3.744   9.827  11.682
72069ION    NA+42669  29.566   3.465   0.865
72070ION    NA+42670  11.175  31.674  12.953
72071ION    NA+42671  33.627  34.298  14.025
72072ION    NA+42672  19.295  35.244   9.604
72073ION    NA+42673   9.037  30.097   1.661
72074ION    NA+42674  38.323   7.744   0.040
72075ION    NA+42675  22.698  30.470  14.404
72076ION    NA+42676   5.695   0.842  13.841
72077ION    NA+42677  16.693  11.279  14.577
72078ION    NA+42678  25.329  28.667   3.152
72079ION    NA+42679  38.269   4.111   2.287
72080ION    NA+42680   3.783  38.518  11.440
72081ION    NA+42681   0.748  13.602  12.945
72082ION    NA+42682  39.030  18.069  11.704
72083ION    NA+42683  37.682  27.958   5.032
72084ION    NA+42684  19.994  42.325   4.680
72085ION    NA+42685  23.630  44.393   0.361
72086ION    NA+42686   1.444  29.090  11.664
72087ION    NA+42687  18.497  19.043   1.085
72088ION    NA+42688  12.914  28.484   4.701
72089ION    NA+42689  23.528  36.108   2.074
72090ION    NA+42690  18.800   4.277   2.478
72091ION    NA+42691  24.417  28.580   3.152
72092ION    NA+42692  34.641  15.780  11.147
72093ION    NA+42693  40.525  39.857  12.458
72094ION    NA+42694  41.562  32.701   3.916
72095ION    NA+42695   2.545  26.866  14.249
72096ION    NA+42696  21.105  29.429   2.992
72097ION    NA+42697  27.852  16.046   0.904
72098ION    NA+42698  27.135  25.759   1.040
72099ION    NA+42699  14.221  26.122  14.484
72100ION    NA+42700   5.163  33.200   2.177
72101ION    NA+42701  12.307  36.899   2.321
72102ION    NA+42702  33.364  16.825  11.469
72103ION    NA+42703  18.201  40.668   3.439
72104ION    NA+42704   9.462  22.286  11.031
72105ION    NA+42705  40.262  11.564   0.295
72106ION    NA+42706  36.343  24.228  11.652
72107ION    NA+42707  39.031  21.990   3.937
72108ION    NA+42708  16.320  38.988  14.860
72109ION    NA+42709   6.730   0.683   2.172
72110ION    NA+42710  23.144  37.108   2.409
72111ION    NA+42711  25.495   3.448  12.211
72112ION    NA+42712  35.350  18.867   1.467
72113ION    NA+42713  43.121  15.791   3.707
72114ION    NA+42714  40.409  28.708   2.444
72115ION    NA+42715  22.210  34.595  11.520
72116ION    NA+42716  25.460  41.879   4.617
72117ION    NA+42717  20.507  28.399  10.619
72118ION    NA+42718  21.079  44.892  13.561
72119ION    NA+42719   4.874  20.786   2.365
72120ION    NA+42720  39.823   6.150  12.218
72121ION    NA+42721   7.760  32.915   3.749
72122ION    NA+42722  28.522  39.479   4.136
72123ION    NA+42723   6.791  14.914   2.880
72124ION    NA+42724   9.863  23.801   4.576
72125ION    NA+42725  12.784   3.068  10.379
72126ION    NA+42726   2.965   5.501   3.086
72127ION    NA+42727  19.409  38.185   2.250
72128ION    NA+42728  32.566  32.134  14.115
72129ION    NA+42729  21.899  31.611  12.684
72130ION    NA+42730  41.481  13.710   2.100
72131ION    NA+42731  41.767  27.143  12.644
72132ION    NA+42732   4.122   1.391  12.473
72133ION    NA+42733  32.823   5.460  11.151
72134ION    NA+42734  21.533  23.796  14.665
72135ION    NA+42735  22.003  13.397  11.564
72136ION    NA+42736  11.702  17.519   3.507
72137ION    NA+42737   1.551   1.957  13.799
72138ION    NA+42738   9.001  12.310  12.032
72139ION    NA+42739  19.641   5.269  14.455
72140ION    NA+42740   2.369  40.370  14.033
72141ION    NA+42741  33.896   6.773  14.240
72142ION    NA+42742  10.769  17.014   0.399
72143ION    NA+42743  20.474  35.020   3.827
72144ION    NA+42744  34.532   7.523  13.425
72145ION    NA+42745  23.043  38.865  13.154
72146ION    NA+42746   5.745  18.734   1.412
72147ION    NA+42747  22.610  13.127  12.901
72148ION    NA+42748  37.547  30.683  14.994
72149ION    NA+42749   2.942   9.443  13.208
72150ION    NA+42750  25.979  34.830   1.442
72151ION    NA+42751  29.956  44.012   0.328
72152ION    NA+42752  38.866  38.049  10.636
72153ION    NA+42753  21.417  32.464   1.952
72154ION    NA+42754   1.217  42.723  11.577
72155ION    NA+42755  30.068  14.122  13.832
72156ION    NA+42756  18.423  13.042   0.678
72157ION    NA+42757   8.471   3.625  10.763
72158ION    NA+42758  20.238   7.087  11.201
72159ION    NA+42759  44.394  22.716  14.361
72160ION    NA+42760  18.522  14.320   0.887
72161ION    NA+42761   8.765  16.531  12.055
72162ION    NA+42762  19.150  41.049   3.296
72163ION    NA+42763  39.185  12.169  10.322
72164ION    NA+42764  18.050  39.069  14.164
72165ION    NA+42765  16.141  28.835   1.695
72166ION    NA+42766   6.441  19.684  14.093
72167ION    NA+42767  29.986  38.330   0.284
72168ION    NA+42768  37.628  13.788   1.845
72169ION    NA+42769  37.287  34.171   4.326
72170ION    NA+42770   7.669  30.450   4.635
72171ION    NA+42771  39.813  34.004   2.766
72172ION    NA+42772  21.081  36.998  12.590
72173ION    NA+42773  29.115  37.042  10.931
72174ION    NA+42774  25.942  20.396  12.521
72175ION    NA+42775  13.172  11.028  14.387
72176ION    NA+42776  34.986  22.732   0.711
72177ION    NA+42777   0.549  33.877   1.244
72178ION    NA+42778   8.831   3.996  11.619
72179ION    NA+42779  13.587  36.888   3.479
72180ION    NA+42780  35.628  31.894  14.641
72181ION    NA+42781  21.545  13.067   1.982
72182ION    NA+42782  15.837   0.874   3.788
72183ION    NA+42783  34.960  30.377  10.346
72184ION    NA+42784  32.410   3.452   1.488
72185ION    NA+42785  40.527  43.807  10.709
72186ION    NA+42786   7.829  34.521  14.434
72187ION    NA+42787  30.939   9.661   0.028
72188ION    NA+42788  22.926   9.120   2.550
72189ION    NA+42789  32.832  30.198   4.618
72190ION    NA+42790  33.776  39.582  12.033
72191ION    NA+42791   0.143  38.170   0.264
72192ION    NA+42792   0.463  28.870   1.713
72193ION    NA+42793  21.225   6.322  12.159
72194ION    NA+42794  44.292  37.106  10.623
72195ION    NA+42795  20.725  34.522   0.369
72196ION    NA+42796  40.985  35.579   3.227
72197ION    NA+42797  26.683  13.579   2.579
72198ION    NA+42798  40.576  38.962   4.636
72199ION    NA+42799   2.709  28.556  13.326
72200ION    NA+42800  41.851  14.109  11.808
72201ION    NA+42801  41.000  36.105  13.088
72202ION    NA+42802  23.560  26.984   0.769
72203ION    NA+42803  33.123  41.813   0.199
72204ION    NA+42804  41.136   5.351  13.012
72205ION    NA+42805  37.386   8.597   0.940
72206ION    NA+42806  12.571  43.504   2.715
72207ION    NA+42807  15.095   1.637   0.902
72208ION    NA+42808   5.049  24.493   2.712
72209ION    NA+42809  39.300  39.966   3.219
72210ION    NA+42810  21.920  28.422   2.020
72211ION    NA+42811  32.957   9.317  14.412
72212ION    NA+42812   5.013  17.967  13.525
72213ION    NA+42813  16.264  33.559  12.721
72214ION    NA+42814  20.210  33.429  11.434
72215ION    NA+42815  33.462   6.075  11.031
72216ION    NA+42816  42.123  33.807  13.056
72217ION    NA+42817  12.681  28.705   2.452
72218ION    NA+42818  30.558  43.092   0.158
72219ION    NA+42819  21.854   1.518   1.076
72220ION    NA+42820   7.216  30.524  13.914
72221ION    NA+42821  21.961  15.987   2.380
72222ION    NA+42822  25.425   9.754   2.338
72223ION    NA+42823  24.781  14.544   2.765
72224ION    NA+42824  19.915  38.195  10.843
72225ION    NA+42825  34.791   0.337  11.337
72226ION    NA+42826  25.443  31.074  12.021
72227ION    NA+42827  25.808  21.158   4.682
72228ION    NA+42828   2.281  43.934  11.062
72229ION    NA+42829  26.944  24.091   0.626
72230ION    NA+42830  20.799  23.869   3.466
72231ION    NA+42831  36.833  37.140  11.872
72232ION    NA+42832  28.234  32.889  13.383
72233ION    NA+42833  31.495  10.430   4.058
72234ION    NA+42834  28.412  28.813  14.629
72235ION    NA+42835  22.917   7.819  12.051
72236ION    NA+42836  27.923   4.234   2.911
72237ION    NA+42837  25.624  31.574  10.921
72238ION    NA+42838  23.494  11.729  13.452
72239ION    NA+42839  40.614  14.300   9.907
72240ION    NA+42840  18.672  29.515  14.689
72241ION    NA+42841  21.295  33.640  12.132
72242ION    NA+42842  16.665   6.761  13.044
72243ION    NA+42843  17.447  28.047  13.278
72244ION    NA+42844  38.783   5.126   1.059
72245ION    NA+42845  12.503  33.152  12.397
72246ION    NA+42846  24.223  32.484   3.832
72247ION    NA+42847  34.030  26.382  11.602
72248ION    NA+42848  40.738  41.129  13.084
72249ION    NA+42849  29.190  28.167  11.229
72250ION    NA+42850  22.988  36.263  14.129
72251ION    NA+42851  32.323  31.094   1.364
72252ION    NA+42852   2.982  16.177  13.464
72253ION    NA+42853  38.415  36.169  11.643
72254ION    NA+42854  41.458   6.630   0.830
72255ION    NA+42855  27.455  30.012  13.866
72256ION    NA+42856   2.950  21.261   3.504
72257ION    NA+42857   2.750  22.005  12.951
72258ION    NA+42858   0.389  39.488   0.555
72259ION    NA+42859  25.855   8.816   0.828
72260ION    NA+42860   3.890  11.214   0.444
72261ION    NA+42861  27.583   2.432   4.050
72262ION    NA+42862   0.809  32.137   3.192
72263ION    NA+42863   6.559  15.521   2.120
72264ION    NA+42864  25.224  35.683   4.622
72265ION    NA+42865  43.473  29.060   2.321
72266ION    NA+42866  28.271  32.015   4.033
72267ION    NA+42867   6.301  17.999  10.723
72268ION    NA+42868  31.969  28.471   1.774
72269ION    NA+42869  15.460   2.090   0.282
72270ION    NA+42870  17.469   3.152   0.854
72271ION    NA+42871  10.032  30.026  14.533
72272ION    NA+42872  33.951  11.876  12.187
72273ION    NA+42873   4.704  17.834   3.317
72274ION    NA+42874   9.139  38.550  11.139
72275ION    NA+42875   3.805   8.154  13.823
72276ION    NA+42876   3.129  27.032   3.364
72277ION    NA+42877  40.903  28.571   4.038
72278ION    NA+42878  35.147  32.037   5.272
72279ION    NA+42879  31.337  37.576   4.308
72280ION    NA+42880  14.136  41.249  11.092
72281ION    NA+42881  11.352  42.461   0.914
72282ION    NA+42882  26.490  27.714   0.019
72283ION    NA+42883  41.938  20.846  13.285
72284ION    NA+42884   0.888   2.895   0.958
72285ION    NA+42885   0.371   6.197  11.949
72286ION    NA+42886  37.346  41.370  13.309
72287ION    NA+42887  38.392  34.326   0.886
72288ION    NA+42888  21.728  20.082   0.241
72289ION    NA+42889  25.679  44.665  13.103
72290ION    NA+42890  11.868  33.659  12.240
72291ION    NA+42891  22.164  13.136   1.200
72292ION    NA+42892  12.132   1.513  10.779
72293ION    NA+42893  27.613  39.435   1.440
72294ION    NA+42894   6.395   6.724  10.350
72295ION    NA+42895   5.068  13.368  10.934
72296ION    NA+42896  11.556   4.846  14.065
72297ION    NA+42897  10.892  23.578  14.955
72298ION    NA+42898  36.531  17.676   1.853
72299ION    NA+42899  36.759  31.297  14.935
72300ION    NA+42900  42.285   4.348   3.112
72301ION    NA+42901  38.192  10.004  11.303
72302ION    NA+42902  16.835   1.685  11.736
72303ION    NA+42903  42.530   0.026   3.893
72304ION    NA+42904  36.146  12.324  11.727
72305ION    NA+42905  22.594  36.632  10.765
72306ION    NA+42906  10.417  42.351  11.021
72307ION    NA+42907  13.870  38.283   3.297
72308ION    NA+42908   5.788  14.431   1.010
72309ION    NA+42909  40.701   6.216  12.235
72310ION    NA+42910  44.034   2.173   0.378
72311ION    NA+42911   7.383  22.770   0.977
72312ION    NA+42912  22.749  30.137   2.826
72313ION    NA+42913  39.802  43.014  14.820
72314ION    NA+42914   1.662  38.808  13.109
72315ION    NA+42915  17.782  16.660  12.214
72316ION    NA+42916   7.339  24.828  14.570
72317ION    NA+42917  29.986  31.529   3.328
72318ION    NA+42918  10.690  38.833  11.500
72319ION    NA+42919  25.364   2.085  13.077
72320ION    NA+42920  10.084  35.978  11.872
72321ION    NA+42921   0.005  29.513   2.903
72322ION    NA+42922  24.988  26.984   1.912
72323ION    NA+42923  41.261  42.640   1.590
72324ION    NA+42924   0.273   6.693   2.880
72325ION    NA+42925  35.566   4.184  14.967
72326ION    NA+42926  16.195  18.887   4.288
72327ION    NA+42927  27.617  21.289  10.894
72328ION    NA+42928  26.999  14.314   0.091
72329ION    NA+42929  11.601  13.014  13.152
72330ION    NA+42930  35.927  20.461  12.155
72331ION    NA+42931  21.212  22.952   0.992
72332ION    NA+42932  43.986  43.133   0.205
72333ION    NA+42933  14.174  38.893  11.439
72334ION    NA+42934   2.057  39.253   2.834
72335ION    NA+42935  20.208  19.251   5.074
72336ION    NA+42936  12.722   3.837  13.468
72337ION    NA+42937  16.035  18.701  13.571
72338ION    NA+42938  39.248   6.835  13.644
72339ION    NA+42939  34.688  16.301  13.472
72340ION    NA+42940  36.127   5.187   0.326
72341ION    NA+42941  43.040  30.234   0.451
72342ION    NA+42942  13.634   0.385   0.289
72343ION    NA+42943  19.440  43.940   3.933
72344ION    NA+42944   7.075  40.548   1.129
72345ION    NA+42945  36.162   1.461   0.713
72346ION    NA+42946  13.135  32.500  10.719
72347ION    NA+42947   3.705  35.863   1.489
72348ION    NA+42948  26.700   6.726  13.941
72349ION    NA+42949  13.271   3.178  12.946
72350ION    NA+42950  16.976  29.671  13.105
72351ION    NA+42951  18.601  15.377  11.574
72352ION    NA+42952  40.440  37.059   0.402
72353ION    NA+42953  34.294  31.094  13.004
72354ION    NA+42954   1.896   4.942  12.884
72355ION    NA+42955  26.674  20.719  14.585
72356ION    NA+42956  14.811  36.125   1.399
72357ION    NA+42957  27.723  14.923  10.637
72358ION    NA+42958  10.136  14.221   2.852
72359ION    NA+42959  29.477  10.393   2.733
72360ION    NA+42960   4.600  29.973  11.057
72361ION    NA+42961  23.754   3.056   0.812
72362ION    NA+42962  19.427   1.332  14.569
72363ION    NA+42963  25.334   6.462  10.731
72364ION    NA+42964  30.923  21.215   3.992
72365ION    NA+42965  39.879  16.140  13.888
72366ION    NA+42966  43.636  43.147   3.993
72367ION    NA+42967  33.693  41.700  13.887
72368ION    NA+42968  33.331   1.837  14.087
72369ION    NA+42969  25.412  14.119   4.085
72370ION    NA+42970  26.432  10.331   1.798
72371ION    NA+42971  24.875  32.586   2.946
72372ION    NA+42972  34.186  15.131   3.925
72373ION    NA+42973  28.041  25.972  11.760
72374ION    NA+42974  14.952   6.421   1.848
72375ION    NA+42975  35.216  16.115   2.941
72376ION    NA+42976   9.214  28.908  13.842
72377ION    NA+42977  44.231  44.843  13.357
72378ION    NA+42978  11.566  25.207  13.149
72379ION    NA+42979  21.597  10.937  10.563
72380ION    NA+42980  26.339  44.849   1.844
72381ION    NA+42981  40.871  41.769   1.291
72382ION    NA+42982  42.045  37.051   3.254
72383ION    NA+42983   5.305  28.717   3.146
72384ION    NA+42984  25.743  40.253  11.558
72385ION    NA+42985  34.142   1.502   3.013
72386ION    NA+42986  21.224   2.329  12.208
72387ION    NA+42987   1.366  16.535   1.997
72388ION    NA+42988  33.362  21.217   2.412
72389ION    NA+42989   9.003  22.200   9.874
72390ION    NA+42990   4.582  38.611   4.688
72391ION    NA+42991  23.553  25.685   1.393
72392ION    NA+42992  32.128  31.138   3.657
72393ION    NA+42993   2.914  36.424  11.278
72394ION    NA+42994  35.741  23.129   2.193
72395ION    NA+42995  14.750  20.254  12.504
72396ION    NA+42996  30.727  14.343   0.119
72397ION    NA+42997  43.717  33.524  12.345
72398ION    NA+42998  35.974   5.693   3.396
72399ION    NA+42999  37.338  40.814  12.436
72400ION    NA+43000  26.001  13.102  10.629
72401ION    NA+43001   3.240  28.426   3.199
72402ION    NA+43002  30.136  19.809   2.782
72403ION    NA+43003  42.320   8.330   1.774
72404ION    NA+43004  43.404   1.880  13.167
72405ION    NA+43005  10.318  34.432  14.442
72406ION    NA+43006  18.532  20.851   4.080
72407ION    NA+43007  13.151   4.666   2.734
72408ION    NA+43008  35.319  33.993  13.515
72409ION    NA+43009  28.694  27.947  14.604
72410ION    NA+43010  32.204  34.473   3.753
72411ION    NA+43011  37.257  13.554  11.383
72412ION    NA+43012  21.418  18.558  14.217
72413ION    NA+43013  43.732  38.347  14.982
72414ION    NA+43014  16.553  40.810   2.994
72415ION    NA+43015   0.742   4.917  14.313
72416ION    NA+43016  21.270  39.217   0.222
72417ION    NA+43017  19.842  28.408  12.836
72418ION    NA+43018  21.552   4.399  10.870
72419ION    NA+43019  10.216  24.426  14.909
72420ION    NA+43020  35.779   7.699  12.027
72421ION    NA+43021  44.885  30.578   4.519
72422ION    NA+43022  28.007  40.887  10.613
72423ION    NA+43023  36.390  32.553   2.800
72424ION    NA+43024  32.939  42.798   3.614
72425ION    NA+43025   0.653  20.029  13.961
72426ION    NA+43026  30.904  17.443   1.454
72427ION    NA+43027  30.752  41.650  11.105
72428ION    NA+43028  17.286  12.305   3.810
72429ION    NA+43029   5.033  38.828   3.050
72430ION    NA+43030   4.690  28.937  10.971
72431ION    NA+43031  28.825  38.609  13.459
72432ION    NA+43032  17.617  44.686   2.587
72433ION    NA+43033  28.397  34.491   1.057
72434ION    NA+43034  33.866   1.221  13.005
72435ION    NA+43035  20.479  43.300   1.958
72436ION    NA+43036   7.059  38.078   4.893
72437ION    NA+43037  18.343  11.036   1.955
72438ION    NA+43038   9.624  24.682  11.216
72439ION    NA+43039  36.828  20.335  11.157
72440ION    NA+43040  40.491  30.216   2.603
72441ION    NA+43041  18.183  20.101   4.389
72442ION    NA+43042   6.216   6.230   0.341
72443ION    NA+43043  32.787   5.640   1.785
72444ION    NA+43044  18.302  25.637  13.839
72445ION    NA+43045   9.939  30.182   4.472
72446ION    NA+43046  21.138  40.899  12.431
72447ION    NA+43047  21.678   2.795   3.037
72448ION    NA+43048  34.354  18.768  14.412
72449ION    NA+43049  15.914  16.431  10.868
72450ION    NA+43050  32.977  11.617   1.797
72451ION    NA+43051  10.678  25.061  12.601
72452ION    NA+43052  13.344   6.219   3.832
72453ION    NA+43053  27.227   3.095   2.616
72454ION    NA+43054  34.544  41.413   9.773
72455ION    NA+43055   6.794   5.484   4.667
72456ION    NA+43056  15.055  23.534   2.725
72457ION    NA+43057  44.774  40.752   0.697
72458ION    NA+43058  30.242  42.908  14.227
72459ION    NA+43059  11.879  18.273  13.473
72460ION    NA+43060  22.457   2.244   4.088
72461ION    NA+43061  11.189  10.619   1.185
72462ION    NA+43062   7.401  41.019   1.833
72463ION    NA+43063   7.428  39.725   1.632
72464ION    NA+43064  38.877  42.019   2.825
72465ION    NA+43065  12.118  42.238  13.139
72466ION    NA+43066   4.982   2.806  11.754
72467ION    NA+43067  26.438   1.535   3.681
72468ION    NA+43068   7.274  21.590  14.655
72469ION    NA+43069  29.780  40.654  12.970
72470ION    NA+43070  16.716  20.545   1.720
72471ION    NA+43071  22.138  29.483   1.829
72472ION    NA+43072  35.806  15.086   0.672
72473ION    NA+43073  31.407   2.530   4.038
72474ION    NA+43074  39.873  27.949   2.075
72475ION    NA+43075  37.945   1.417   1.387
72476ION    NA+43076   3.831  31.865  13.070
72477ION    NA+43077  11.366  11.933   1.229
72478ION    NA+43078  20.052  13.530  12.029
72479ION    NA+43079  11.669  20.926  10.607
72480ION    NA+43080   6.819  34.080   0.368
72481ION    NA+43081  34.141  38.712   3.231
72482ION    NA+43082  36.356  40.094   3.532
72483ION    NA+43083  35.300  19.494   4.638
72484ION    NA+43084  34.594   6.600  12.834
72485ION    NA+43085   7.845  14.002  12.260
72486ION    NA+43086  40.517  20.331   1.664
72487ION    NA+43087  24.033  16.709  13.533
72488ION    NA+43088  35.213  14.349  13.094
72489ION    NA+43089  13.850   4.827  11.170
72490ION    NA+43090  23.367   2.188   3.675
72491ION    NA+43091  23.514   2.226  12.496
72492ION    NA+43092  41.698   9.071   2.895
72493ION    NA+43093  41.592   2.681  12.319
72494ION    NA+43094  11.221  18.955  11.550
72495ION    NA+43095   3.548  26.587   1.073
72496ION    NA+43096  36.496  23.575  12.406
72497ION    NA+43097  28.512  36.800  13.317
72498ION    NA+43098  30.035   1.924  11.351
72499ION    NA+43099   4.144   7.390   0.676
72500ION    NA+43100  40.027  21.457  13.699
72501ION    NA+43101  13.351  41.538   1.353
72502ION    NA+43102  40.828   7.061  10.795
72503ION    NA+43103   8.627   0.480  14.732
72504ION    NA+43104  14.901   8.435   0.694
72505ION    NA+43105  22.281  37.830  10.564
72506ION    NA+43106  36.344   1.900   5.152
72507ION    NA+43107   0.771  10.662   1.028
72508ION    NA+43108  14.355  44.961  10.409
72509ION    NA+43109  25.384  38.928   2.995
72510ION    NA+43110  22.271  43.332   0.546
72511ION    NA+43111   6.416   0.352   3.464
72512ION    NA+43112  21.568  22.422  10.957
72513ION    NA+43113  20.301  44.322   2.024
72514ION    NA+43114  33.460  19.361  10.839
72515ION    NA+43115  35.049  40.549  14.653
72516ION    NA+43116  39.555   5.469  14.490
72517ION    NA+43117  43.227   1.806   4.511
72518ION    NA+43118   6.650  26.076  11.979
72519ION    NA+43119  23.818   4.478  12.927
72520ION    NA+43120   4.720  12.692   2.851
72521ION    NA+43121  10.699  22.706  11.602
72522ION    NA+43122   6.529  26.952   5.015
72523ION    NA+43123  33.600  22.446   4.739
72524ION    NA+43124   5.875  38.744   1.529
72525ION    NA+43125  42.158  37.685   3.898
72526ION    NA+43126  15.556  24.617  11.515
72527ION    NA+43127  20.777  18.947   0.967
72528ION    NA+43128  12.267  25.577  12.053
72529ION    NA+43129   4.774  18.746  10.732
72530ION    NA+43130   0.971  35.496  11.706
72531ION    NA+43131  38.548  34.119  13.505
72532ION    NA+43132  38.450   0.822   3.119
72533ION    NA+43133  41.477  25.187   3.163
72534ION    NA+43134  20.164   1.120   1.424
72535ION    NA+43135  37.616  44.320   0.521
72536ION    NA+43136  39.375  10.244  14.276
72537ION    NA+43137  36.776  27.908   0.535
72538ION    NA+43138  30.926  24.728  12.430
72539ION    NA+43139  36.246  29.874   0.985
72540ION    NA+43140  22.169  17.524   1.044
72541ION    NA+43141  10.713  41.512   1.595
72542ION    NA+43142  10.804  25.630  13.880
72543ION    NA+43143  28.342  17.163   1.198
72544ION    NA+43144   7.597   6.995  11.410
72545ION    NA+43145   6.759  17.017  14.480
72546ION    NA+43146  29.168  32.627   4.987
72547ION    NA+43147  21.268  39.400   3.427
72548ION    NA+43148  18.625  40.969  13.375
72549ION    NA+43149  17.998  10.693   3.569
72550ION    NA+43150   4.608  39.302   0.620
72551ION    NA+43151  13.713  12.755   2.890
72552ION    NA+43152   2.372  15.625   3.628
72553ION    NA+43153  30.058  15.180   3.999
72554ION    NA+43154   2.915  23.183   1.648
72555ION    NA+43155  43.390  24.265   1.621
72556ION    NA+43156  18.398  13.556   4.356
72557ION    NA+43157   9.621  36.041   2.353
72558ION    NA+43158  22.374  11.502  12.430
72559ION    NA+43159  12.607  21.182   4.640
72560ION    NA+43160  19.793  34.844   3.116
72561ION    NA+43161  43.905   2.902  14.940
72562ION    NA+43162  13.157   5.546   4.630
72563ION    NA+43163   8.017   1.689   2.670
72564ION    NA+43164  11.004  35.760   2.838
72565ION    NA+43165   4.314   2.675   0.373
72566ION    NA+43166  17.141  16.384   3.414
72567ION    NA+43167  25.656  36.597   3.848
72568ION    NA+43168  16.591  14.984   1.876
72569ION    NA+43169  28.362  37.716   2.454
72570ION    NA+43170   5.228  32.062  14.775
72571ION    NA+43171  39.642  31.160   3.555
72572ION    NA+43172  23.414  38.705  12.238
72573ION    NA+43173  38.919  15.262  12.157
72574ION    NA+43174  26.618  35.059  14.344
72575ION    NA+43175  21.610   9.917  11.270
72576ION    NA+43176  30.193  19.526  13.300
72577ION    NA+43177   5.165  42.803  12.349
72578ION    NA+43178  40.527  21.657  12.856
72579ION    CL-43179  31.440  35.687   0.512
72580ION    CL-43180  41.381  38.250  14.386
72581ION    CL-43181  17.905  12.385   2.073
72582ION    CL-43182  23.355  41.280  11.952
72583ION    CL-43183  13.852  11.062  11.551
72584ION    CL-43184   9.781  31.969  14.580
72585ION    CL-43185   3.796  41.452   4.100
72586ION    CL-43186  32.079  38.530   3.262
72587ION    CL-43187  15.400  42.307  13.128
72588ION    CL-43188  10.294  20.575  13.115
72589ION    CL-43189  41.524  11.696   3.195
72590ION    CL-43190  37.791   4.676  13.858
72591ION    CL-43191  32.064   4.989  13.742
72592ION    CL-43192  43.945   0.184  13.319
72593ION    CL-43193  23.922  35.676   4.342
72594ION    CL-43194  42.427  12.071  13.478
72595ION    CL-43195  37.299  31.178  12.339
72596ION    CL-43196  31.167  43.594  11.927
72597ION    CL-43197  11.087  24.097  12.521
72598ION    CL-43198  27.191  41.513  11.705
72599ION    CL-43199  11.989  31.362   4.202
72600ION    CL-43200  10.768  30.358  12.407
72601ION    CL-43201  30.358   1.667  11.153
72602ION    CL-43202  33.836  37.797  12.550
72603ION    CL-43203  10.464  15.035  11.864
72604ION    CL-43204  29.159  29.766   5.043
72605ION    CL-43205  34.396  18.573  10.687
72606ION    CL-43206  15.354  38.670  10.713
72607ION    CL-43207  18.528   3.516  10.780
72608ION    CL-43208  20.616  26.663   3.095
72609ION    CL-43209  31.005  18.675  14.281
72610ION    CL-43210  30.929   3.512   2.763
72611ION    CL-43211  24.438  11.503   4.557
72612ION    CL-43212   9.459  13.087   4.732
72613ION    CL-43213  21.393  24.041  10.273
72614ION    CL-43214  25.676   1.512   1.237
72615ION    CL-43215   2.124  15.521  12.587
72616ION    CL-43216  38.211   9.769   4.938
72617ION    CL-43217   8.894  21.092  11.488
72618ION    CL-43218  40.350  32.494  12.544
72619ION    CL-43219  42.446  28.326  11.556
72620ION    CL-43220  18.006  13.538   4.593
72621ION    CL-43221  10.110  39.436   0.388
72622ION    CL-43222  13.505  32.375  10.930
72623ION    CL-43223  13.088  32.201   2.649
72624ION    CL-43224  24.440  43.921   3.270
72625ION    CL-43225  43.266   0.315  14.076
72626ION    CL-43226   0.001  27.202   5.115
72627ION    CL-43227  28.214  22.073   0.648
72628ION    CL-43228  19.240   6.207   4.936
72629ION    CL-43229  33.389  27.087   1.980
72630ION    CL-43230  17.033   7.766   4.147
72631ION    CL-43231  32.795  10.865  12.845
72632ION    CL-43232   8.320  24.264  13.560
72633ION    CL-43233  25.001   0.580   2.074
72634ION    CL-43234   1.468   7.998   0.554
72635ION    CL-43235   8.414  39.855   3.610
72636ION    CL-43236  35.895  10.790  14.406
72637ION    CL-43237  26.939   1.654  10.404
72638ION    CL-43238  30.055   7.845   3.599
72639ION    CL-43239   3.622  42.587   0.760
72640ION    CL-43240  42.445   3.436  13.877
72641ION    CL-43241  27.984  26.858   4.527
72642ION    CL-43242  30.862  36.052  14.280
72643ION    CL-43243  41.777  21.137  12.087
72644ION    CL-43244  44.628  13.250  10.659
72645ION    CL-43245   1.439  10.260   1.924
72646ION    CL-43246   2.968  20.966  11.261
72647ION    CL-43247  13.773  16.988  13.572
72648ION    CL-43248   8.551  42.028   4.970
72649ION    CL-43249  24.023  16.067   0.226
72650ION    CL-43250  20.800   1.343  13.321
72651ION    CL-43251  29.267  29.058  13.122
72652ION    CL-43252  31.721  11.125  13.671
72653ION    CL-43253  23.654  27.420  12.582
72654ION    CL-43254  35.170  44.952  14.536
72655ION    CL-43255   1.208   4.556   3.983
72656ION    CL-43256  44.101   2.705  12.024
72657ION    CL-43257  27.394  24.671   4.952
72658ION    CL-43258  33.512  27.646  14.713
72659ION    CL-43259  31.142  38.076  13.864
72660ION    CL-43260  23.627  39.460  10.847
72661ION    CL-43261  13.929  13.076   3.126
72662ION    CL-43262  13.653   1.941  11.946
72663ION    CL-43263  37.939  11.336   3.150
72664ION    CL-43264  42.491  37.432  12.295
72665ION    CL-43265  39.919   5.261  14.336
72666ION    CL-43266  39.902   4.030   2.935
72667ION    CL-43267  32.842  19.037   0.866
72668ION    CL-43268  11.683  36.871   0.503
72669ION    CL-43269  16.466  17.115   3.815
72670ION    CL-43270  13.162  30.100   3.441
72671ION    CL-43271   8.467  17.775   0.518
72672ION    CL-43272  38.041  36.412  11.643
72673ION    CL-43273  28.028  17.446   1.014
72674ION    CL-43274  25.683  21.485   5.016
72675ION    CL-43275  28.122  14.515  12.062
72676ION    CL-43276   6.872  33.142   2.127
72677ION    CL-43277  41.358   0.370   3.358
72678ION    CL-43278   0.700   9.588   1.962
72679ION    CL-43279  28.974   8.570   0.311
72680ION    CL-43280  24.266  37.201   0.414
72681ION    CL-43281   9.168  32.568   4.431
72682ION    CL-43282  32.491  36.947   0.764
72683ION    CL-43283  23.267  33.358   1.098
72684ION    CL-43284  42.792  13.024  14.654
72685ION    CL-43285  21.933  10.467   1.501
72686ION    CL-43286  21.717  37.151   1.287
72687ION    CL-43287   4.003  14.233   4.095
72688ION    CL-43288  14.692  29.550   0.833
72689ION    CL-43289  13.341   2.406   0.972
72690ION    CL-43290  30.491  41.504  11.448
72691ION    CL-43291  12.734  44.351  14.790
72692ION    CL-43292  19.820  20.219   2.767
72693ION    CL-43293  36.064  27.386  10.773
72694ION    CL-43294  34.840  24.772  10.710
72695ION    CL-43295   6.743  29.381  13.368
72696ION    CL-43296  20.249  20.319  12.566
72697ION    CL-43297  30.915  22.563  12.514
72698ION    CL-43298  11.280  27.500  12.657
72699ION    CL-43299  32.613  38.155   4.074
72700ION    CL-43300  17.082  11.302   5.071
72701ION    CL-43301  34.531   1.674   2.870
72702ION    CL-43302   7.122  34.052  13.444
72703ION    CL-43303  29.068  13.247   1.042
72704ION    CL-43304  26.481  40.354  10.374
72705ION    CL-43305  30.853   7.637  13.085
72706ION    CL-43306   1.941  44.361   0.860
72707ION    CL-43307  23.484   2.753   0.601
72708ION    CL-43308  29.768  16.960   4.252
72709ION    CL-43309  25.580  40.302  14.346
72710ION    CL-43310   1.454  16.491   2.445
72711ION    CL-43311  21.219  25.588   1.320
72712ION    CL-43312  26.912  44.379   4.253
72713ION    CL-43313   7.532  32.202   1.295
72714ION    CL-43314  12.554   8.870   1.719
72715ION    CL-43315  12.310   1.887  10.610
72716ION    CL-43316  15.063  38.441   2.395
72717ION    CL-43317  10.647  15.766  12.522
72718ION    CL-43318  26.838  40.698  14.206
72719ION    CL-43319  33.861   5.595  14.903
72720ION    CL-43320  25.081  36.310  12.604
72721ION    CL-43321  20.277  40.378  11.499
72722ION    CL-43322  38.123  36.965  12.956
72723ION    CL-43323  12.667  19.422  11.298
72724ION    CL-43324  31.027   8.122  13.974
72725ION    CL-43325   6.793  13.988   0.456
72726ION    CL-43326  10.871  35.470   2.524
72727ION    CL-43327  19.200  21.243  12.026
72728ION    CL-43328  13.150   5.222  12.957
72729ION    CL-43329   9.709  21.614  14.803
72730ION    CL-43330  44.873  29.212  12.391
72731ION    CL-43331   1.882   1.015   2.829
72732ION    CL-43332  42.770  16.704  12.988
72733ION    CL-43333   3.943  26.758   1.197
72734ION    CL-43334  27.272  13.332  13.531
72735ION    CL-43335  42.891  44.194   0.663
72736ION    CL-43336  19.276   4.688   4.202
72737ION    CL-43337  29.730  13.860   0.271
72738ION    CL-43338  40.480   4.509  12.998
72739ION    CL-43339  18.389  24.384  13.160
72740ION    CL-43340  14.019  22.672  11.219
72741ION    CL-43341   3.930  42.254  12.567
72742ION    CL-43342   2.787  22.756   1.565
72743ION    CL-43343  21.824  17.629  14.654
72744ION    CL-43344   4.251  28.272   1.445
72745ION    CL-43345  35.237  18.121  12.980
72746ION    CL-43346   3.413  28.163  11.274
72747ION    CL-43347  25.978  30.217   0.997
72748ION    CL-43348  29.737   7.206   1.534
72749ION    CL-43349  18.312   8.811  13.067
72750ION    CL-43350  44.775  22.057   1.890
72751ION    CL-43351   7.949   9.588  11.082
72752ION    CL-43352  26.383  11.737   1.234
72753ION    CL-43353   4.378  17.906  11.228
72754ION    CL-43354   9.960  17.782   2.790
72755ION    CL-43355  23.859   1.367  14.729
72756ION    CL-43356  36.839   3.705   1.418
72757ION    CL-43357  16.853   1.435   0.367
72758ION    CL-43358  23.093  43.497  13.244
72759ION    CL-43359  44.619   8.867  12.602
72760ION    CL-43360  44.120   2.550   0.136
72761ION    CL-43361  35.089   3.225   1.739
72762ION    CL-43362  18.802  42.440  11.979
72763ION    CL-43363   3.691  30.342   1.987
72764ION    CL-43364  10.799  34.093  11.402
72765ION    CL-43365  36.552   9.068   2.153
72766ION    CL-43366  37.863  16.165  10.663
72767ION    CL-43367  30.381  12.576   3.643
72768ION    CL-43368  23.401   9.873   0.721
72769ION    CL-43369   6.432  10.903  10.619
72770ION    CL-43370  12.532  40.566  13.438
72771ION    CL-43371  43.115  23.975   0.431
72772ION    CL-43372  11.564   3.753   2.742
72773ION    CL-43373   5.130   5.332   0.636
72774ION    CL-43374  26.863   8.789   2.600
72775ION    CL-43375  28.720  31.952   4.047
72776ION    CL-43376   1.244  13.349   1.342
72777ION    CL-43377  41.221  29.652   3.440
72778ION    CL-43378   9.283  12.623  11.881
72779ION    CL-43379  21.188  42.760   0.318
72780ION    CL-43380  39.095  44.179   1.022
72781ION    CL-43381  38.015  33.257   9.947
72782ION    CL-43382  27.861  16.082   0.438
72783ION    CL-43383  24.950  14.134   2.830
72784ION    CL-43384  29.966  38.298   4.153
72785ION    CL-43385   4.465  18.218   3.345
72786ION    CL-43386  28.392   5.859  12.970
72787ION    CL-43387  43.669  36.212   0.539
72788ION    CL-43388  27.180  44.201  13.346
72789ION    CL-43389  22.494   6.047  10.680
72790ION    CL-43390  16.393  36.914   4.105
72791ION    CL-43391   4.788  31.541  13.396
72792ION    CL-43392  22.551  26.603   1.287
72793ION    CL-43393  19.670  11.161  14.356
72794ION    CL-43394  16.204  18.512   4.007
72795ION    CL-43395  18.727  32.189  11.213
72796ION    CL-43396   6.248  44.894   9.962
72797ION    CL-43397  26.689  39.051   2.840
72798ION    CL-43398   4.298  18.660  14.579
72799ION    CL-43399  32.067  38.471   0.352
72800ION    CL-43400  25.483  23.457  13.756
72801ION    CL-43401  42.987   4.415  10.826
72802ION    CL-43402  44.537  12.006   4.901
72803ION    CL-43403   3.584  32.561   2.144
72804ION    CL-43404  41.005  30.057   4.968
72805ION    CL-43405  36.111  18.334  13.417
72806ION    CL-43406  11.759  32.966   2.423
72807ION    CL-43407  31.438  14.708   3.177
72808ION    CL-43408   8.932   2.704   3.814
72809ION    CL-43409   1.930  25.903   5.031
72810ION    CL-43410   6.298   8.297   0.409
72811ION    CL-43411  44.069  22.025  12.623
72812ION    CL-43412  18.046   3.996  14.766
72813ION    CL-43413  11.827  18.002  10.788
72814ION    CL-43414  18.147  35.259   4.139
72815ION    CL-43415  18.623   2.841   2.693
72816ION    CL-43416  43.493   5.340   1.319
72817ION    CL-43417  31.079  24.076   0.430
72818ION    CL-43418  25.617   3.522   4.151
72819ION    CL-43419  27.155  28.374  11.601
72820ION    CL-43420  15.793  27.898  12.351
72821ION    CL-43421  26.919  32.873   3.358
72822ION    CL-43422  38.958   9.169   5.226
72823ION    CL-43423  26.522  35.507   5.019
72824ION    CL-43424  26.918  35.268   0.657
72825ION    CL-43425  11.059  35.713   4.625
72826ION    CL-43426  30.172  40.674  13.194
72827ION    CL-43427   2.674   4.711  14.329
72828ION    CL-43428  20.216  10.578  13.156
72829ION    CL-43429   4.724  35.972   0.943
72830ION    CL-43430  35.899  38.803  13.093
72831ION    CL-43431   0.398   8.556  13.487
72832ION    CL-43432  31.050  20.089  10.734
72833ION    CL-43433   2.798  41.236   0.202
72834ION    CL-43434  15.123   4.881   5.068
72835ION    CL-43435  35.344  40.884  14.776
72836ION    CL-43436  25.100  21.219  14.310
72837ION    CL-43437  44.382  27.294  10.764
72838ION    CL-43438  34.509   7.725  14.762
72839ION    CL-43439  39.506  26.525   9.836
72840ION    CL-43440   1.963  31.690   1.390
72841ION    CL-43441   1.922  39.420   3.224
72842ION    CL-43442  27.774  42.987  11.209
72843ION    CL-43443  23.100  28.093   2.924
72844ION    CL-43444  15.819  23.099   1.278
72845ION    CL-43445   0.539  40.678  13.730
72846ION    CL-43446  22.539  26.466  14.043
72847ION    CL-43447  41.481  35.663  13.856
72848ION    CL-43448  36.569  37.853  10.491
72849ION    CL-43449  39.829  13.462  12.379
72850ION    CL-43450   4.132  13.666   0.386
72851ION    CL-43451  14.382  30.621   1.782
72852ION    CL-43452  41.981  25.899  13.457
72853ION    CL-43453  19.489  34.929  14.225
72854ION    CL-43454  29.279   5.284   0.629
72855ION    CL-43455   9.094  36.611   4.981
72856ION    CL-43456  35.977  24.825  12.654
72857ION    CL-43457  38.963  19.063   0.263
72858ION    CL-43458  22.723  17.719  14.529
72859ION    CL-43459   2.473  29.721   4.139
72860ION    CL-43460   3.577  26.522  12.212
72861ION    CL-43461  31.737  37.676   4.134
72862ION    CL-43462  10.085   9.319  13.873
72863ION    CL-43463  13.335  28.649   0.919
72864ION    CL-43464  10.419  29.838   0.448
72865ION    CL-43465  10.732   8.388   3.327
72866ION    CL-43466  15.461   1.870   0.708
72867ION    CL-43467  37.862  23.496   0.830
72868ION    CL-43468  16.293   6.263  11.141
72869ION    CL-43469  41.881   4.412  12.545
72870ION    CL-43470   3.678  10.183  11.399
72871ION    CL-43471   3.704  33.936  10.600
72872ION    CL-43472  24.921   6.700   3.271
72873ION    CL-43473  23.543   7.095   1.745
72874ION    CL-43474   0.520  39.886   1.925
72875ION    CL-43475   0.961  32.965  14.791
72876ION    CL-43476  40.004  24.317  13.738
72877ION    CL-43477  23.560  15.147   4.408
72878ION    CL-43478  10.095  19.608   4.997
72879ION    CL-43479  27.668  37.262  12.290
72880ION    CL-43480  28.708  18.679  13.434
72881ION    CL-43481  31.091  34.639  12.850
72882ION    CL-43482  26.723  36.644  13.699
72883ION    CL-43483  39.591  15.274  13.416
72884ION    CL-43484  12.572  42.807   3.568
72885ION    CL-43485  27.389  36.314   2.056
72886ION    CL-43486  41.840  38.736  13.574
72887ION    CL-43487   9.896   6.284  11.988
72888ION    CL-43488  43.995   9.340   1.003
72889ION    CL-43489   3.143  30.984   2.524
72890ION    CL-43490  31.085   0.325   3.951
72891ION    CL-43491  27.404  41.992   3.755
72892ION    CL-43492  17.847  31.237   0.674
72893ION    CL-43493  42.143  37.369   3.569
72894ION    CL-43494  13.298  40.639   5.288
72895ION    CL-43495  20.709  36.768   4.395
72896ION    CL-43496  41.978  19.166   1.998
72897ION    CL-43497  35.437  31.943   3.541
72898ION    CL-43498  11.107  28.768   4.970
72899ION    CL-43499  20.993   3.871   4.272
72900ION    CL-43500   7.185  27.958   0.942
72901ION    CL-43501  15.397   9.638   0.944
72902ION    CL-43502  22.934   1.379  14.349
72903ION    CL-43503  26.440   1.819   1.806
72904ION    CL-43504  27.334  13.323   4.378
72905ION    CL-43505  37.851  34.590   2.248
72906ION    CL-43506  20.489  11.245   1.506
72907ION    CL-43507  40.132  43.980  12.197
72908ION    CL-43508  27.244  26.943  13.418
72909ION    CL-43509   2.975  20.838   3.339
72910ION    CL-43510   6.975  15.571   1.960
72911ION    CL-43511  14.743  39.164   3.679
72912ION    CL-43512  10.901  32.124   4.244
72913ION    CL-43513  35.053  44.395  13.436
72914ION    CL-43514   4.061  41.183  11.255
72915ION    CL-43515  40.272  40.515  13.815
72916ION    CL-43516  23.972  34.620  13.000
72917ION    CL-43517  32.929  44.214   0.838
72918ION    CL-43518   1.925   8.096  11.462
72919ION    CL-43519  31.824   6.793  10.319
72920ION    CL-43520   7.809  13.615   2.221
72921ION    CL-43521   9.322  26.425  13.094
72922ION    CL-43522  19.606  13.722  11.138
72923ION    CL-43523  41.505  10.976  14.720
72924ION    CL-43524   8.865   1.982  13.738
72925ION    CL-43525  27.477  23.082  12.372
72926ION    CL-43526  24.027   7.239   4.041
72927ION    CL-43527  30.621  21.319   3.679
72928ION    CL-43528  34.665  42.959   0.541
72929ION    CL-43529  24.226  17.987  14.692
72930ION    CL-43530   7.416  42.845  12.770
72931ION    CL-43531  31.455  23.393   3.966
72932ION    CL-43532  31.709   6.199   1.876
72933ION    CL-43533  30.884  43.788   1.792
72934ION    CL-43534  44.322  42.020  13.801
72935ION    CL-43535   2.670   7.839   1.479
72936ION    CL-43536  32.427  29.611   0.530
72937ION    CL-43537   7.695   1.562   4.095
72938ION    CL-43538   2.869  35.134   0.983
72939ION    CL-43539  32.655   6.075   1.924
72940ION    CL-43540   3.339   3.152   3.337
72941ION    CL-43541  23.305  13.346   2.791
72942ION    CL-43542  36.294  16.007   1.484
72943ION    CL-43543   9.119  32.372  12.098
72944ION    CL-43544   3.786  34.023   4.095
72945ION    CL-43545  21.999  18.017   2.329
72946ION    CL-43546  27.614  18.696  10.910
72947ION    CL-43547  32.317   7.098  11.133
72948ION    CL-43548  33.505  11.196  11.032
72949ION    CL-43549  19.102  25.922   3.468
72950ION    CL-43550  39.367  17.780   0.492
72951ION    CL-43551  32.959   8.659  11.655
72952ION    CL-43552  30.715   4.709   2.163
72953ION    CL-43553  36.586  16.755  11.829
72954ION    CL-43554  12.108  20.178  14.932
72955ION    CL-43555  17.879  14.597  14.272
72956ION    CL-43556  31.138  25.732  13.794
72957ION    CL-43557  19.033   2.753  12.045
72958ION    CL-43558  18.192   7.742  10.691
72959ION    CL-43559  24.033  35.010   2.310
72960ION    CL-43560  33.939   9.894   2.278
72961ION    CL-43561  10.799  33.352  14.956
72962ION    CL-43562  14.735  24.181  10.795
72963ION    CL-43563   4.821  17.034   2.233
72964ION    CL-43564  20.060  31.973   0.048
72965ION    CL-43565  27.477  16.970   4.606
72966ION    CL-43566  36.567  28.157   0.844
72967ION    CL-43567   8.418  27.155   0.569
72968ION    CL-43568  11.002  41.503   3.256
72969ION    CL-43569  10.921   7.051  11.095
72970ION    CL-43570  44.430  17.630  14.652
72971ION    CL-43571  16.810   2.591  13.899
72972ION    CL-43572  43.185  28.372  10.708
72973ION    CL-43573  41.912  33.656  12.696
72974ION    CL-43574  14.327   4.368  12.267
72975ION    CL-43575  43.814  15.818  14.212
72976ION    CL-43576  18.286   1.446   1.800
72977ION    CL-43577  18.734  29.186  14.381
72978ION    CL-43578   2.415  39.048   0.386
72979ION    CL-43579   8.418  19.367   1.905
72980ION    CL-43580  43.717  43.409  14.978
72981ION    CL-43581   2.705  26.765  14.656
72982ION    CL-43582  34.590  37.911  11.887
72983ION    CL-43583   5.767  28.114   0.610
72984ION    CL-43584  11.611   6.033   1.138
72985ION    CL-43585  18.862  32.501   0.883
72986ION    CL-43586  30.135   5.128   0.833
72987ION    CL-43587   7.928   9.153   3.349
72988ION    CL-43588  25.185  41.687   0.859
72989ION    CL-43589  34.323  26.508  10.226
72990ION    CL-43590  20.662  17.488  11.057
72991ION    CL-43591  21.083  41.984   1.691
72992ION    CL-43592   8.462  37.613   0.364
72993ION    CL-43593  32.505   0.797  12.959
72994ION    CL-43594   8.758  23.622   1.947
72995ION    CL-43595  41.775  12.648  11.678
72996ION    CL-43596  17.547  40.743  14.901
72997ION    CL-43597  25.271  21.423  12.690
72998ION    CL-43598  44.343  12.737   1.949
72999ION    CL-43599  17.885   7.132  13.674
73000ION    CL-43600   8.585  35.141  11.400
73001ION    CL-43601  39.023   0.880  14.493
73002ION    CL-43602   3.292  23.646   0.546
73003ION    CL-43603  10.284  39.224  13.324
73004ION    CL-43604  35.401   0.731   1.110
73005ION    CL-43605  22.964  41.274  11.149
73006ION    CL-43606  15.942  19.260  14.830
73007ION    CL-43607  21.197  13.602  14.942
73008ION    CL-43608  19.001  12.621   2.975
73009ION    CL-43609  41.136  44.131   4.071
73010ION    CL-43610  40.495  37.749  10.512
73011ION    CL-43611  41.990  36.113   3.891
73012ION    CL-43612  30.097  22.581  10.816
73013ION    CL-43613  36.922  13.774  12.012
73014ION    CL-43614  40.390   1.982   0.500
73015ION    CL-43615  40.329  17.594   4.832
73016ION    CL-43616  10.677  18.248   0.497
73017ION    CL-43617  27.422  14.348   0.259
73018ION    CL-43618  32.999  16.508  13.773
73019ION    CL-43619   2.560  41.647  12.904
73020ION    CL-43620   1.233  15.010  13.483
73021ION    CL-43621  34.891  31.441  11.641
73022ION    CL-43622  25.933  15.295  11.650
73023ION    CL-43623  39.251  22.260   4.230
73024ION    CL-43624  17.806   3.275   5.066
73025ION    CL-43625  33.593   7.821  12.553
73026ION    CL-43626  34.171  42.904  14.636
73027ION    CL-43627  32.032  35.855   1.329
73028ION    CL-43628  16.023  25.691   2.781
73029ION    CL-43629  30.476  25.812  14.539
73030ION    CL-43630  38.633  22.002  14.758
73031ION    CL-43631  24.302   1.592   0.598
73032ION    CL-43632  23.304  15.738   2.406
73033ION    CL-43633   1.386  11.229   3.341
73034ION    CL-43634  27.492   5.255  12.912
73035ION    CL-43635  34.389  14.988   3.553
73036ION    CL-43636  15.724  31.432   2.824
73037ION    CL-43637  13.699  11.591  12.386
73038ION    CL-43638  32.961  21.056   1.248
73039ION    CL-43639  18.495   1.021   3.377
73040ION    CL-43640  21.115  33.545  14.029
73041ION    CL-43641   8.613  18.908   0.924
73042ION    CL-43642  14.374   5.732   4.339
73043ION    CL-43643  22.710   1.527   2.908
73044ION    CL-43644  21.141  22.433  11.091
73045ION    CL-43645  16.003   2.333   2.439
73046ION    CL-43646  43.468   7.922  12.777
73047ION    CL-43647  19.003  36.928   2.253
73048ION    CL-43648  18.355  19.315  13.507
73049ION    CL-43649  33.693  13.487   3.668
73050ION    CL-43650  14.270  10.847   4.223
73051ION    CL-43651  25.892   3.979   1.994
73052ION    CL-43652  27.644  23.745   2.844
73053ION    CL-43653  20.158  44.757   9.732
73054ION    CL-43654  37.476  36.814   1.280
73055ION    CL-43655  17.823  28.297  13.196
73056ION    CL-43656  16.685  29.940  11.772
73057ION    CL-43657  36.878  24.847  10.514
73058ION    CL-43658  42.061  24.230  12.965
73059ION    CL-43659  10.760  41.889  12.253
73060ION    CL-43660   3.931  13.844   2.347
73061ION    CL-43661  29.431  34.863   2.853
73062ION    CL-43662  12.461  36.646   1.984
73063ION    CL-43663  22.383  28.854  10.596
73064ION    CL-43664   4.244  14.296  11.422
73065ION    CL-43665  42.202  39.590   4.088
73066ION    CL-43666  11.061  12.158  12.995
73067ION    CL-43667  20.439   6.695  11.296
73068ION    CL-43668  37.697  17.727   2.513
73069ION    CL-43669   8.501  44.053   3.592
73070ION    CL-43670  17.827  39.812  11.444
73071ION    CL-43671  12.270   9.846   1.000
73072ION    CL-43672  28.304  13.638  14.486
73073ION    CL-43673  15.872  42.512   0.409
73074ION    CL-43674   8.812  17.796   4.077
73075ION    CL-43675   2.686  43.467  14.477
73076ION    CL-43676  36.289   6.144  14.936
73077ION    CL-43677  28.027  40.784  10.159
73078ION    CL-43678  29.173  37.501   3.566
73079ION    CL-43679  33.930  38.418   0.813
73080ION    CL-43680   4.451  21.776  12.445
73081ION    CL-43681   4.186  33.639  12.893
73082ION    CL-43682   7.248  39.921   1.993
73083ION    CL-43683  30.750  37.544   1.133
73084ION    CL-43684  33.834  28.711   3.252
73085ION    CL-43685  11.083  26.991  14.561
73086ION    CL-43686  37.235   3.432   0.643
73087ION    CL-43687   7.827  10.379   1.758
73088ION    CL-43688   9.774  27.200  11.453
73089ION    CL-43689  30.115  32.204  10.363
73090ION    CL-43690  43.940  31.899  14.267
73091ION    CL-43691  24.582   0.331  13.356
73092ION    CL-43692  23.768   1.987  13.949
73093ION    CL-43693   3.650   4.761  14.681
73094ION    CL-43694  27.454  39.393  13.807
73095ION    CL-43695  35.646  23.000   2.637
73096ION    CL-43696   7.352  23.949   2.604
73097ION    CL-43697  28.207   7.191  11.086
73098ION    CL-43698   5.925  14.869   1.021
73099ION    CL-43699  20.849  40.806  13.921
73100ION    CL-43700  26.679  44.300  12.464
73101ION    CL-43701  23.444  36.830   0.351
73102ION    CL-43702   3.608  24.621   5.035
73103ION    CL-43703  28.098  24.440   4.464
73104ION    CL-43704  20.512  29.999   5.072
73105ION    CL-43705  30.983  27.869  12.517
73106ION    CL-43706  21.589  36.253   0.298
73107ION    CL-43707  25.180  22.988   3.112
73108ION    CL-43708  14.506   3.980  14.793
73109ION    CL-43709  40.862   6.830  10.394
73110ION    CL-43710  20.632  28.084  10.326
73111ION    CL-43711  36.525  38.876   3.142
73112ION    CL-43712   3.120  23.542   1.433
73113ION    CL-43713  12.669  21.314   2.617
73114ION    CL-43714   9.287  41.320   0.699
73115ION    CL-43715  44.057  35.122   2.520
73116ION    CL-43716  44.819  33.010  10.533
73117ION    CL-43717   9.904   8.527   0.841
73118ION    CL-43718   2.943   9.010  13.327
73119ION    CL-43719  25.421  13.231  13.505
73120ION    CL-43720  10.689  38.414   1.593
73121ION    CL-43721  21.471  15.618   3.846
73122ION    CL-43722  16.155   1.895  12.942
73123ION    CL-43723  25.657  41.385  13.497
73124ION    CL-43724  20.581  22.186   3.262
73125ION    CL-43725   3.690  42.456  14.050
73126ION    CL-43726  30.566  19.289   0.671
73127ION    CL-43727  12.533   3.599   0.439
73128ION    CL-43728  23.501   5.482   0.670
73129ION    CL-43729  31.431  11.141  14.628
73130ION    CL-43730  34.267  18.329  14.354
73131ION    CL-43731  25.531  10.416  13.290
73132ION    CL-43732  37.988  37.156  10.933
73133ION    CL-43733  42.748  35.010  13.353
73134ION    CL-43734  44.058  35.422  12.793
73135ION    CL-43735  11.292  13.815   0.335
73136ION    CL-43736  10.899  31.850  13.272
73137ION    CL-43737  33.963  13.901   0.495
73138ION    CL-43738  21.391   1.550   1.023
73139ION    CL-43739   0.449  20.390   1.724
73140ION    CL-43740   2.986  28.435   1.444
73141ION    CL-43741   7.217  27.967  10.940
73142ION    CL-43742  40.751  38.090  13.042
73143ION    CL-43743  36.715  29.611   9.830
73144ION    CL-43744  36.377  41.449  11.618
73145ION    CL-43745  43.094  20.554  11.118
73146ION    CL-43746   8.308  11.367   1.245
73147ION    CL-43747  11.650   4.647   4.367
73148ION    CL-43748  18.444  15.631   0.933
73149ION    CL-43749  21.842  21.944   4.988
73150ION    CL-43750  24.168  18.412   2.408
73151ION    CL-43751  26.894  24.531   0.508
73152ION    CL-43752  16.567  26.946   0.497
73153ION    CL-43753   2.070   0.387  11.191
73154ION    CL-43754   5.503  37.136  14.447
73155ION    CL-43755  31.063   6.903  12.439
73156ION    CL-43756   6.869  28.188  11.852
73157ION    CL-43757  40.094  28.778  12.602
73158ION    CL-43758  41.414  37.881  12.322
73159ION    CL-43759  14.493  31.318  12.639
73160ION    CL-43760  13.069  36.361  14.370
73161ION    CL-43761   4.711  26.099   0.022
73162ION    CL-43762  13.503  27.353  10.324
73163ION    CL-43763  12.620  39.121   3.236
73164ION    CL-43764   3.541  25.086   1.402
73165ION    CL-43765  44.784  27.628  13.582
73166ION    CL-43766  36.520  29.957  13.485
73167ION    CL-43767  42.722  41.381  14.047
73168ION    CL-43768  18.711   1.040   9.853
73169ION    CL-43769   1.953   8.530   5.107
73170ION    CL-43770  17.200   2.979   1.164
73171ION    CL-43771   9.591  25.819  12.344
73172ION    CL-43772   7.810   3.204   1.482
73173ION    CL-43773  27.475  29.373   2.274
73174ION    CL-43774  32.378   9.826  10.360
73175ION    CL-43775  17.639  30.247  14.620
73176ION    CL-43776  18.083  18.777   4.069
73177ION    CL-43777  40.008   2.614  11.679
73178ION    CL-43778  42.016  35.560  14.807
73179ION    CL-43779   8.149   3.024   4.935
73180ION    CL-43780   5.127  28.313   3.067
73181ION    CL-43781  35.230   0.324  11.259
73182ION    CL-43782  29.211  27.607  12.477
73183ION    CL-43783  19.250   8.886   0.950
73184ION    CL-43784   9.515  10.067  11.927
73185ION    CL-43785   0.418  24.603   0.748
73186ION    CL-43786   9.897  41.720  12.340
73187ION    CL-43787  40.301  21.677   1.674
73188ION    CL-43788  25.962  14.973   1.152
73189ION    CL-43789  17.775  14.813  11.496
73190ION    CL-43790  14.756  16.868  14.993
73191ION    CL-43791  12.164   7.064  12.860
73192ION    CL-43792  22.727  18.652   2.969
73193ION    CL-43793   6.139  36.436   0.391
73194ION    CL-43794  31.999  43.712   0.900
73195ION    CL-43795  17.127  41.014   5.051
73196ION    CL-43796  35.342  34.191  11.168
73197ION    CL-43797  26.360  14.644   1.924
73198ION    CL-43798  25.428  10.591  11.177
73199ION    CL-43799   4.030  36.127   1.646
73200ION    CL-43800  12.316  44.497  12.583
73201ION    CL-43801   3.591  44.114   4.049
73202ION    CL-43802  19.467   3.742  13.989
73203ION    CL-43803  32.660   1.224   3.017
73204ION    CL-43804  28.469  22.979   0.986
73205ION    CL-43805  32.202  10.071   0.346
73206ION    CL-43806  12.691  25.012   2.670
73207ION    CL-43807  36.045  29.554   1.222
73208ION    CL-43808  29.918   6.460   0.562
73209ION    CL-43809  23.057  23.602  13.649
73210ION    CL-43810  13.397  17.733   0.236
73211ION    CL-43811  22.743  21.542  11.616
73212ION    CL-43812  25.686  38.978  14.075
73213ION    CL-43813  32.336   0.349   1.012
73214ION    CL-43814  37.084  25.918  13.933
73215ION    CL-43815  14.792  23.310  11.283
73216ION    CL-43816  37.194   7.040  13.473
73217ION    CL-43817   6.195  34.539   3.517
73218ION    CL-43818  10.871  31.844   1.247
73219ION    CL-43819  22.991  42.617  13.379
73220ION    CL-43820  32.926  23.628   0.505
73221ION    CL-43821  27.609  15.387   4.533
73222ION    CL-43822   8.533  24.098  14.187
73223ION    CL-43823   8.152  23.549   3.704
73224ION    CL-43824   1.498  33.875   3.580
73225ION    CL-43825  23.226   3.915   2.237
73226ION    CL-43826  22.029  17.610   4.740
73227ION    CL-43827  44.191  20.214  12.136
73228ION    CL-43828  37.576   6.395  14.381
73229ION    CL-43829  25.817  32.020  12.489
73230ION    CL-43830  14.156  43.723  12.389
73231ION    CL-43831  22.400   9.588   1.398
73232ION    CL-43832  25.235   9.053   3.640
73233ION    CL-43833  14.180  17.795  10.549
73234ION    CL-43834  30.057  18.523  12.252
73235ION    CL-43835  21.144   7.475   2.420
73236ION    CL-43836  38.224   4.555   2.317
73237ION    CL-43837  17.481   7.134   2.822
73238ION    CL-43838  20.336  13.199  12.128
73239ION    CL-43839   2.524   5.952  12.559
73240ION    CL-43840   4.341  39.322   0.250
73241ION    CL-43841  30.897   0.402   5.111
73242ION    CL-43842  36.319  12.602  11.411
73243ION    CL-43843   1.554  36.730  14.081
73244ION    CL-43844  24.665   3.217   3.056
73245ION    CL-43845  34.527  37.308   2.813
73246ION    CL-43846  30.407  29.559  11.474
73247ION    CL-43847  43.491  20.572   4.921
73248ION    CL-43848  22.942  27.567  14.806
73249ION    CL-43849   2.931   0.557  10.455
73250ION    CL-43850  17.196  32.740   2.219
73251ION    CL-43851  20.323  14.735  11.836
73252ION    CL-43852  20.377  32.040  14.223
73253ION    CL-43853  37.836   6.279   1.621
73254ION    CL-43854  13.607  14.974  10.693
73255ION    CL-43855  25.474  19.876   2.650
73256ION    CL-43856  34.422  34.627   3.284
73257ION    CL-43857   4.733   0.424   1.959
73258ION    CL-43858  21.798  18.498  12.964
73259ION    CL-43859  11.571   6.406   5.024
73260ION    CL-43860  41.683  32.266   4.022
73261ION    CL-43861  41.443  27.786  13.978
73262ION    CL-43862  30.787  13.462   3.866
73263ION    CL-43863  21.024  12.174  10.849
73264ION    CL-43864  22.685  12.366  14.751
73265ION    CL-43865   9.574  15.140  14.291
73266ION    CL-43866  20.072   5.237  14.340
73267ION    CL-43867   9.294  43.887   4.178
73268ION    CL-43868  12.905  10.213   0.321
73269ION    CL-43869  24.445  30.917   1.271
73270ION    CL-43870  12.248  38.193  14.008
73271ION    CL-43871  21.688   6.298  13.263
73272ION    CL-43872  41.796   1.259   1.947
73273ION    CL-43873  14.631   6.894  14.577
73274ION    CL-43874  16.166  19.310   4.451
73275ION    CL-43875  16.671   9.606   1.520
73276ION    CL-43876  33.504   0.339   4.341
73277ION    CL-43877  29.639  12.980  11.089
73278ION    CL-43878  34.939  30.470   9.903
73279ION    CL-43879  21.588  30.455   1.224
73280ION    CL-43880   7.365  40.010  14.772
73281ION    CL-43881   3.865   1.763   2.452
73282ION    CL-43882  16.248   3.308   4.665
73283ION    CL-43883  22.480  34.005   1.601
73284ION    CL-43884  20.351   6.172   1.347
73285ION    CL-43885  35.662  35.557  11.824
73286ION    CL-43886  44.728  33.580   4.007
73287ION    CL-43887  33.150  41.691   4.814
73288ION    CL-43888   1.662  17.704  11.593
73289ION    CL-43889  26.627   3.223  12.504
73290ION    CL-43890  38.478  39.170  12.679
73291ION    CL-43891  36.124  22.606  10.860
73292ION    CL-43892  42.878   7.262   0.808
73293ION    CL-43893  31.266  16.996  12.647
73294ION    CL-43894  34.340  36.164   2.253
73295ION    CL-43895  43.687  26.567   3.773
73296ION    CL-43896  22.344   0.640   1.414
73297ION    CL-43897  40.257   6.163  12.365
73298ION    CL-43898  22.945  27.029   3.983
73299ION    CL-43899   8.196  12.735   0.205
73300ION    CL-43900  12.481   9.206  12.328
73301ION    CL-43901  16.164  29.505   0.889
73302ION    CL-43902  17.971  15.776  10.807
73303ION    CL-43903   1.978  34.571  11.588
73304ION    CL-43904  28.468  13.879  13.285
73305ION    CL-43905  41.257  39.181  14.729
73306ION    CL-43906  38.959   0.445  12.225
73307ION    CL-43907   4.238  29.585  13.636
73308ION    CL-43908  26.150  14.209   4.425
73309ION    CL-43909  11.797  42.511   0.902
73310ION    CL-43910   6.436  35.860   3.310
73311ION    CL-43911  43.952  21.135   4.461
73312ION    CL-43912   5.005  34.249  11.624
73313ION    CL-43913  42.828  31.362  14.950
73314ION    CL-43914  13.420  37.327  14.355
73315ION    CL-43915  32.555  20.752  11.574
73316ION    CL-43916  22.420   6.256   3.929
73317ION    CL-43917  38.643   1.057   0.238
73318ION    CL-43918  18.950   7.323   1.932
73319ION    CL-43919   8.059   3.474  10.680
73320ION    CL-43920  31.313  24.796  12.641
73321ION    CL-43921  24.552  15.852  14.332
73322ION    CL-43922  11.550  13.003  12.698
73323ION    CL-43923  26.070  32.378   3.738
73324ION    CL-43924   1.642  16.121  14.777
73325ION    CL-43925  39.723  29.525   0.994
73326ION    CL-43926  37.253  43.556  14.337
73327ION    CL-43927  31.449  38.430  11.706
73328ION    CL-43928   7.642   1.772  13.058
73329ION    CL-43929  12.468   4.166  13.299
73330ION    CL-43930   9.683  27.915  14.401
73331ION    CL-43931   8.865  26.871   2.833
73332ION    CL-43932  15.665   8.907   2.837
73333ION    CL-43933  30.876  17.430   3.560
73334ION    CL-43934   4.649  24.673  11.735
73335ION    CL-43935  34.931   7.649   2.416
73336ION    CL-43936  21.766  29.736   1.775
73337ION    CL-43937  14.345  16.642   2.168
73338ION    CL-43938  18.160  11.406   2.143
73339ION    CL-43939  16.189  40.562   2.883
73340ION    CL-43940   3.995   3.144  13.823
73341ION    CL-43941  32.029  33.967  14.581
73342ION    CL-43942  17.316   5.701  10.714
73343ION    CL-43943  13.152  24.262   0.901
73344ION    CL-43944  27.025  24.219   2.163
73345ION    CL-43945  18.693  22.073  10.632
73346ION    CL-43946  32.385  15.213  13.498
73347ION    CL-43947  35.067   2.607   2.406
73348ION    CL-43948  17.580   0.409   1.375
73349ION    CL-43949  21.793  24.840   2.689
73350ION    CL-43950  28.395   5.593   0.126
73351ION    CL-43951  43.905  42.787   4.134
73352ION    CL-43952   6.069  19.433  13.930
73353ION    CL-43953   4.083  10.064  11.884
73354ION    CL-43954  33.870   4.318  14.953
73355ION    CL-43955  41.759   4.382  13.537
73356ION    CL-43956  39.171  30.887   9.978
73357ION    CL-43957  11.940  41.835  13.068
73358ION    CL-43958  17.340  21.025  10.491
73359ION    CL-43959  43.703  25.643  12.945
73360ION    CL-43960   6.537   6.614  11.567
73361ION    CL-43961  30.117   2.613   2.274
73362ION    CL-43962   5.462  13.245  10.760
73363ION    CL-43963  26.595  13.132   2.634
73364ION    CL-43964  40.455  26.694  10.760
73365ION    CL-43965  23.376   4.585   0.248
73366ION    CL-43966  41.985   9.804   1.180
73367ION    CL-43967  38.352   0.217  14.780
73368ION    CL-43968  11.798  37.609  12.150
73369ION    CL-43969   5.920  16.683  10.372
73370ION    CL-43970  16.994  14.175  14.618
73371ION    CL-43971  13.757  24.648  10.555
73372ION    CL-43972   0.990  12.159  11.312
73373ION    CL-43973  41.230  12.040   1.141
73374ION    CL-43974  40.945  38.429  11.275
73375ION    CL-43975   9.777  29.814   4.273
73376ION    CL-43976  33.639   5.938  12.222
73377ION    CL-43977  40.317  14.689   5.114
73378ION    CL-43978   0.943  43.566  10.698
73379ION    CL-43979  30.421  29.176  14.789
73380ION    CL-43980   0.073  32.573   2.338
73381ION    CL-43981  13.427  12.511   2.607
73382ION    CL-43982   1.846  34.653   3.263
73383ION    CL-43983  14.654  44.590  14.343
73384ION    CL-43984   3.217  32.903  12.445
73385ION    CL-43985  30.656  40.623  13.968
73386ION    CL-43986  14.431  16.714   4.244
73387ION    CL-43987  21.602  24.060  14.302
73388ION    CL-43988  21.495   4.432  11.312
73389ION    CL-43989  20.762  11.850  13.763
73390ION    CL-43990   2.885  13.825  10.770
73391ION    CL-43991  19.839  27.965  11.884
73392ION    CL-43992  16.586  20.605   3.118
73393ION    CL-43993  20.253  13.405  13.103
73394ION    CL-43994   4.662   9.063  14.219
73395ION    CL-43995  31.870  27.910   3.559
73396ION    CL-43996  34.768   7.685  10.557
73397ION    CL-43997  20.757  12.544  13.184
73398ION    CL-43998  21.161  17.454   3.551
73399ION    CL-43999  19.597  39.802  14.988
73400ION    CL-44000  31.450  10.447  12.987
73401ION    CL-44001  22.714  15.288   4.924
73402ION    CL-44002   6.059  18.237  11.019
73403ION    CL-44003  33.923  17.598  11.897
73404ION    CL-44004  12.592  10.237   2.716
73405ION    CL-44005  22.406  15.915   2.339
73406ION    CL-44006  20.553  14.362  14.864
73407ION    CL-44007  12.660  41.998  14.276
73408ION    CL-44008  22.745  15.179  12.015
73409ION    CL-44009  13.706  29.346  12.038
73410ION    CL-44010  10.738  30.020   3.295
73411ION    CL-44011  26.061  44.633  11.752
73412ION    CL-44012  24.481  22.511  12.111
73413ION    CL-44013  22.619  25.625   0.323
73414ION    CL-44014  36.494  27.057  13.356
73415ION    CL-44015  43.334  35.528  13.977
73416ION    CL-44016   7.221  40.784   1.488
73417ION    CL-44017  26.629   8.774  11.403
73418ION    CL-44018  42.777  18.048  12.374
73419ION    CL-44019  33.538  39.848  11.748
73420ION    CL-44020  44.858   9.547   2.738
73421ION    CL-44021  36.710   1.488   4.847
73422ION    CL-44022  17.345  14.135  11.779
73423ION    CL-44023  42.772  31.610   1.719
73424ION    CL-44024  13.184  30.994  12.055
73425ION    CL-44025  27.948  17.990  13.329
73426ION    CL-44026  21.924  32.295   2.836
73427ION    CL-44027  42.581   2.338   2.195
73428ION    CL-44028   2.705  26.426  12.078
73429ION    CL-44029   6.364  13.617   2.622
73430ION    CL-44030  13.562  44.637  14.308
73431ION    CL-44031   3.430   2.250   1.665
73432ION    CL-44032  43.285  28.845   0.768
73433ION    CL-44033   0.821  13.161   3.278
73434ION    CL-44034  39.917   0.526   2.596
73435ION    CL-44035   7.690  36.787  12.399
73436ION    CL-44036  44.957   9.839  13.964
73437ION    CL-44037   9.050  33.529  14.473
73438ION    CL-44038  29.718  38.088   9.757
73439ION    CL-44039  29.692  10.028   4.071
73440ION    CL-44040  10.969  38.171   0.639
73441ION    CL-44041  13.910   4.426  11.360
73442ION    CL-44042  36.074  11.103  11.430
73443ION    CL-44043  12.851  16.328   0.386
73444ION    CL-44044  14.276  19.071  11.878
73445ION    CL-44045  35.951  10.220  12.417
73446ION    CL-44046  34.893  17.829   0.597
73447ION    CL-44047  20.338  10.018   4.867
73448ION    CL-44048  14.771   8.378  10.453
73449ION    CL-44049   9.633  36.037  11.869
73450ION    CL-44050  44.331  34.175  13.349
73451ION    CL-44051  34.013  18.278   0.755
73452ION    CL-44052  36.042  33.657  14.738
73453ION    CL-44053  12.077  22.666  12.773
73454ION    CL-44054  33.357  24.322   3.576
73455ION    CL-44055  26.600   5.319   2.451
73456ION    CL-44056  25.512  14.221   3.655
73457ION    CL-44057  33.139  13.123   2.173
73458ION    CL-44058  37.134  20.072   2.791
73459ION    CL-44059  35.173  41.002   2.602
73460ION    CL-44060  31.791   5.302   3.053
73461ION    CL-44061  25.303  14.449   4.445
73462ION    CL-44062   8.645  10.566  12.161
73463ION    CL-44063  44.358  32.424  13.526
73464ION    CL-44064  20.545  22.277  12.359
73465ION    CL-44065  17.072  13.527  13.860
73466ION    CL-44066  24.713  30.957  14.898
73467ION    CL-44067  32.656   1.930   2.308
73468ION    CL-44068  35.241   9.813   4.735
73469ION    CL-44069  13.651  30.209  11.533
73470ION    CL-44070  33.398  26.446   9.959
73471ION    CL-44071  39.474  34.178   1.665
73472ION    CL-44072  39.295  39.875   0.286
73473ION    CL-44073   5.923  10.842  11.520
73474ION    CL-44074  43.221   7.609  13.694
73475ION    CL-44075  17.623   8.048  14.025
73476ION    CL-44076  22.289  39.309  12.023
73477ION    CL-44077   7.158  20.539  14.005
73478ION    CL-44078  20.957  16.322  13.980
73479ION    CL-44079  35.659  11.659  13.970
73480ION    CL-44080   7.653  44.287   9.930
73481ION    CL-44081  44.573  41.484   3.704
73482ION    CL-44082  19.894   7.400  11.159
73483ION    CL-44083   1.526  40.288   0.234
73484ION    CL-44084  39.877   8.621   3.665
73485ION    CL-44085   1.845  38.198   1.612
73486ION    CL-44086  27.424  35.384   2.421
73487ION    CL-44087  16.749  43.428  11.219
73488ION    CL-44088   8.955  41.311   1.642
73489ION    CL-44089  14.468  38.377   4.232
73490ION    CL-44090   2.552  41.502  10.899
73491ION    CL-44091  22.128  17.916   1.257
73492ION    CL-44092  28.058  15.910   1.288
73493ION    CL-44093  20.749  41.966  10.759
73494ION    CL-44094  34.020  35.202   4.503
73495ION    CL-44095  32.839  35.491   1.437
73496ION    CL-44096  30.320  36.701   1.455
73497ION    CL-44097   6.793  22.151  10.659
73498ION    CL-44098  35.987  15.419   0.424
73499ION    CL-44099  39.082   9.772   1.474
73500ION    CL-44100  16.638  27.616   1.252
73501ION    CL-44101  14.271  35.425  13.779
73502ION    CL-44102   8.472  41.127   4.654
73503ION    CL-44103  38.539  28.554  10.893
73504ION    CL-44104  27.481  17.090   3.333
73505ION    CL-44105  10.113  26.367   3.296
73506ION    CL-44106  33.884  30.970  11.029
73507ION    CL-44107   8.689   0.065  14.576
73508ION    CL-44108  37.516  19.476   0.490
73509ION    CL-44109  15.529  24.281   0.396
73510ION    CL-44110   5.174  14.285  13.353
73511ION    CL-44111   1.223   9.708   1.118
73512ION    CL-44112  15.841  35.130   3.318
73513ION    CL-44113  17.156  29.708  10.481
73514ION    CL-44114  16.520  32.616   5.005
73515ION    CL-44115  21.411  10.959   2.060
73516ION    CL-44116  21.045  39.373  14.869
73517ION    CL-44117  19.684  30.537  12.374
73518ION    CL-44118  38.024  30.490  13.958
73519ION    CL-44119  22.180  20.064   3.309
73520ION    CL-44120   5.414  24.258   2.815
73521ION    CL-44121  39.676  30.711   3.487
73522ION    CL-44122  12.063  10.864   2.144
73523ION    CL-44123   2.946  30.391  14.421
73524ION    CL-44124  33.751   8.228   3.593
73525ION    CL-44125  22.418   6.326   2.464
73526ION    CL-44126  23.379   0.021   3.358
73527ION    CL-44127   9.523  34.037   3.748
73528ION    CL-44128   6.107  36.036   4.879
73529ION    CL-44129  34.065  44.367  13.288
73530ION    CL-44130   1.633  20.961   3.605
73531ION    CL-44131  15.465  28.372  14.453
73532ION    CL-44132  12.712  34.595  10.890
73533ION    CL-44133  10.885  29.107   2.613
73534ION    CL-44134   9.590  25.704   1.427
73535ION    CL-44135  23.028  24.730  11.130
73536ION    CL-44136   9.946  19.855  10.378
73537ION    CL-44137  32.635  13.435   3.773
73538ION    CL-44138  31.677  13.885   3.695
73539ION    CL-44139  31.691  14.615   1.680
73540ION    CL-44140  39.660   0.251   3.522
73541ION    CL-44141   6.650  29.267   1.964
73542ION    CL-44142  32.962  43.383  12.531
73543ION    CL-44143   7.697  24.196  11.654
73544ION    CL-44144  30.957  30.533   3.575
73545ION    CL-44145  30.843  14.070   2.623
73546ION    CL-44146  32.137  11.810  14.393
73547ION    CL-44147  26.052  37.715  12.423
73548ION    CL-44148   6.008   2.995   3.648
73549ION    CL-44149  23.152  27.121  13.935
73550ION    CL-44150  18.189  37.377  11.523
73551ION    CL-44151  16.032  21.212  12.161
73552ION    CL-44152  23.084  14.302  11.099
73553ION    CL-44153  37.242  37.026  11.725
73554ION    CL-44154   2.712  36.571  11.650
73555ION    CL-44155  30.996  43.271  10.995
73556ION    CL-44156  40.439  30.220   0.930
73557ION    CL-44157  41.096  41.205  13.339
73558ION    CL-44158  37.202  28.449  14.433
73559ION    CL-44159  26.525  41.115  11.022
73560ION    CL-44160  15.722   6.516   1.782
73561ION    CL-44161  17.029   2.074  11.607
73562ION    CL-44162  11.619  13.081  13.604
73563ION    CL-44163  41.077  18.077   3.351
73564ION    CL-44164   9.703  22.059  13.851
73565ION    CL-44165  21.927  14.283   5.125
73566ION    CL-44166  22.461  36.906  11.102
73567ION    CL-44167  34.874  16.384   2.837
73568ION    CL-44168  39.869  18.129  13.600
73569ION    CL-44169  11.575   6.954   1.014
73570ION    CL-44170  31.472  12.859  10.366
73571ION    CL-44171   0.444  25.113  14.440
73572ION    CL-44172   2.036  14.873  12.170
73573ION    CL-44173  19.033  28.933   9.689
73574ION    CL-44174   4.550  38.153   4.560
73575ION    CL-44175  40.690  42.316   3.588
73576ION    CL-44176  37.415  23.454   2.086
73577ION    CL-44177  28.151  38.029  11.066
73578ION    CL-44178  10.327  15.873   0.150
73579ION    CL-44179  37.869  11.188  14.196
73580ION    CL-44180  19.916  18.150   2.159
73581ION    CL-44181  15.164  31.747  12.035
73582ION    CL-44182  24.019  36.271   0.504
73583ION    CL-44183  19.164  31.750  13.035
73584ION    CL-44184  12.704  36.769  11.644
73585ION    CL-44185  37.566   6.484   0.505
73586ION    CL-44186   7.910  37.387   4.146
73587ION    CL-44187  11.531  43.856   4.598
73588ION    CL-44188  36.407  40.197   3.976
73589ION    CL-44189  38.923  35.379  13.188
73590ION    CL-44190  16.361  19.240   1.271
73591ION    CL-44191  26.260  37.584   1.761
73592ION    CL-44192  40.976   0.335   0.283
73593ION    CL-44193  17.426  19.102  14.157
73594ION    CL-44194   6.882  11.612  11.995
73595ION    CL-44195  41.171   1.427   4.768
73596ION    CL-44196  21.794   0.206  12.074
73597ION    CL-44197  34.897  15.591  12.434
73598ION    CL-44198   9.061  15.777  11.181
73599ION    CL-44199  18.488  42.875  10.023
73600ION    CL-44200   8.950   0.042   3.621
73601ION    CL-44201  43.551  21.197  14.356
73602ION    CL-44202  15.656  40.183   3.485
73603ION    CL-44203  10.082   4.816   3.711
73604ION    CL-44204  19.452  11.712  11.203
73605ION    CL-44205  33.310   2.340  10.754
73606ION    CL-44206  26.948  38.334   1.972
73607ION    CL-44207   8.413  31.933   3.659
73608ION    CL-44208  22.515  19.427  12.043
73609ION    CL-44209  21.845   4.496  13.007
73610ION    CL-44210  19.704   8.722   2.100
73611ION    CL-44211  33.461  18.918  10.773
73612ION    CL-44212   3.941  10.120  14.759
73613ION    CL-44213  23.021  42.336   3.564
73614ION    CL-44214  34.456  44.297  14.232
73615ION    CL-44215   7.807  19.650   4.196
73616ION    CL-44216  17.729  10.661   4.558
73617ION    CL-44217  10.375   4.287  14.440
73618ION    CL-44218  40.182   2.448   2.779
73619ION    CL-44219  41.847  44.846   0.305
73620ION    CL-44220  23.680  29.623  12.522
73621ION    CL-44221  30.931  43.073  12.959
73622ION    CL-44222  40.125  30.386   2.411
73623ION    CL-44223  24.029  18.530   0.580
73624ION    CL-44224   1.273  21.194   1.098
73625ION    CL-44225  14.082  27.377   3.947
73626ION    CL-44226   7.101   8.665   3.771
73627ION    CL-44227  42.562  17.701  11.127
73628ION    CL-44228  27.673  15.280  10.372
73629ION    CL-44229  39.260  15.191   2.126
73630ION    CL-44230  43.518  43.468  12.613
73631ION    CL-44231  18.239  10.618   1.807
73632ION    CL-44232  38.568   5.962   4.637
73633ION    CL-44233  10.408  22.352   5.082
73634ION    CL-44234   6.665  17.754  10.605
73635ION    CL-44235  36.996  38.477  12.989
73636ION    CL-44236   8.241  13.765   3.284
73637ION    CL-44237  39.198  12.858   3.582
73638ION    CL-44238  18.632   4.509  12.368
73639ION    CL-44239   6.702  31.167  10.895
73640ION    CL-44240  32.918  42.064  13.103
73641ION    CL-44241  28.059  32.841  13.798
73642ION    CL-44242  13.300  40.402  14.073
73643ION    CL-44243  32.604  21.471  14.594
73644ION    CL-44244   4.344  27.066  11.746
73645ION    CL-44245  18.575  25.288  13.917
73646ION    CL-44246   2.234  19.065  12.486
73647ION    CL-44247  19.663  23.025  13.147
73648ION    CL-44248  19.824   1.294   1.656
73649ION    CL-44249   9.570  11.616   2.794
73650ION    CL-44250  30.965   5.909  12.289
73651ION    CL-44251  19.342   8.214  14.978
73652ION    CL-44252  43.640  37.571  13.653
73653ION    CL-44253  22.019   1.656   1.502
73654ION    CL-44254  24.705  32.991   3.065
73655ION    CL-44255  22.321  15.036   1.468
73656ION    CL-44256  23.406  26.105   1.437
73657ION    CL-44257  41.044  28.662  12.891
73658ION    CL-44258   7.595  10.702  14.446
73659ION    CL-44259  44.389  40.382  12.239
73660ION    CL-44260  23.664  25.224   3.608
73661ION    CL-44261  28.573  20.739  10.007
73662ION    CL-44262  18.755  31.602  14.285
73663ION    CL-44263  13.048  28.964  13.382
73664ION    CL-44264   6.805  24.157  10.753
73665ION    CL-44265   3.733  33.284   1.481
73666ION    CL-44266  33.570   8.398   1.635
73667ION    CL-44267  40.444  18.204   2.587
73668ION    CL-44268   6.508  10.037   0.407
73669ION    CL-44269  23.212  36.647  14.172
73670ION    CL-44270  43.358  21.405  10.664
73671ION    CL-44271  38.497  34.103   2.836
73672ION    CL-44272  18.880   8.406   5.046
73673ION    CL-44273   3.908  34.850   4.979
73674ION    CL-44274  11.374   8.120   2.608
73675ION    CL-44275  25.381   5.326  12.581
73676ION    CL-44276  24.063   3.366   0.993
73677ION    CL-44277  11.841   8.533  11.648
73678ION    CL-44278   6.965  14.587  12.421
73679ION    CL-44279  13.655  34.434  10.580
73680ION    CL-44280  44.302  13.846   4.102
73681ION    CL-44281  14.577  39.306   4.979
73682ION    CL-44282  15.614  15.094   4.034
73683ION    CL-44283   9.784  14.396  13.657
73684ION    CL-44284   3.838  39.738  12.394
73685ION    CL-44285  20.669  33.657   2.281
73686ION    CL-44286  15.020  32.983  13.977
73687ION    CL-44287   8.355  28.381   4.285
73688ION    CL-44288   6.522  28.184   1.860
73689ION    CL-44289  22.688  35.325   2.333
73690ION    CL-44290  28.920  12.786  12.610
73691ION    CL-44291  37.466   1.472   4.495
73692ION    CL-44292  38.352  36.213  10.337
73693ION    CL-44293  11.165  33.120   3.262
73694ION    CL-44294  10.431  29.859  14.382
73695ION    CL-44295  16.274  21.313  14.170
73696ION    CL-44296  37.367   9.912  13.871
73697ION    CL-44297  26.627  10.666   2.042
73698ION    CL-44298   3.997  12.622   1.249
73699ION    CL-44299  20.087   3.955   3.368
73700ION    CL-44300  23.541  12.997  11.124
73701ION    CL-44301  27.043   8.927   4.151
73702ION    CL-44302  41.070  19.819  12.038
73703ION    CL-44303  17.489  27.235  12.979
73704ION    CL-44304  16.356  27.164  10.988
73705ION    CL-44305  11.694  36.450  12.307
73706ION    CL-44306  43.175   1.850  14.709
73707ION    CL-44307  15.935  16.826  10.159
73708ION    CL-44308   6.673  10.426  13.353
73709ION    CL-44309  44.399  36.594  12.118
73710ION    CL-44310   2.375  11.821   1.213
73711ION    CL-44311  24.783  43.819  12.059
73712ION    CL-44312   7.668  10.133   3.461
73713ION    CL-44313  40.267  18.862   1.185
73714ION    CL-44314  19.101  30.954   4.957
73715ION    CL-44315  21.177   4.978  13.316
73716ION    CL-44316  18.784  30.170   0.868
73717ION    CL-44317  26.579  14.334  14.914
73718ION    CL-44318  16.960  33.314   5.498
73719ION    CL-44319  44.648  11.253   3.990
73720ION    CL-44320  25.116  25.326   3.802
73721ION    CL-44321   8.807  20.835   2.479
73722ION    CL-44322  44.061  28.294   3.361
73723ION    CL-44323  34.098  17.582   4.576
73724ION    CL-44324  15.266  27.205   1.442
73725ION    CL-44325   3.720  21.572   0.493
73726ION    CL-44326  10.524  35.931  11.977
73727ION    CL-44327   4.308  43.424   5.089
73728ION    CL-44328  12.383   6.941  10.883
73729ION    CL-44329   2.857  34.899   3.611
73730ION    CL-44330  43.258   6.363  12.489
73731ION    CL-44331  21.555  28.766   0.287
73732ION    CL-44332   9.424  20.372   2.957
73733ION    CL-44333  37.898  31.326  13.974
73734ION    CL-44334  21.113  36.587   2.745
73735ION    CL-44335   9.447   5.244  14.780
73736ION    CL-44336  33.444  13.095  12.038
73737ION    CL-44337  34.621   8.770   0.675
73738ION    CL-44338  25.390  11.722   1.455
73739ION    CL-44339  29.413   3.049   0.793
73740ION    CL-44340   5.486  16.926   4.370
73741ION    CL-44341   9.733  11.422  13.089
73742ION    CL-44342  35.575  26.425   1.671
73743ION    CL-44343  23.858  19.067   1.719
73744ION    CL-44344  30.955  32.395  10.558
73745ION    CL-44345  17.219  38.504   2.085
73746ION    CL-44346  18.399  20.496   4.332
73747ION    CL-44347  29.684   2.207  11.335
73748ION    CL-44348  13.201  13.585  11.177
73749ION    CL-44349   0.504  40.781  11.196
73750ION    CL-44350   6.219  38.560   1.750
73751ION    CL-44351  30.036  29.541  13.254
73752ION    CL-44352  36.274  34.162   1.303
73753ION    CL-44353  16.989   9.474  11.523
73754ION    CL-44354  17.144  25.746   0.362
73755ION    CL-44355  22.025  10.081  11.308
73756ION    CL-44356  21.137  29.874   3.000
73757ION    CL-44357  42.596  17.114  13.998
73758ION    CL-44358   6.124  21.222   3.744
73759ION    CL-44359   9.828  44.051   1.434
73760ION    CL-44360  42.157   1.733  14.851
73761ION    CL-44361   3.975   5.193  11.208
73762ION    CL-44362  29.046  33.940   2.865
73763ION    CL-44363   7.788  21.663   1.702
73764ION    CL-44364  36.214  12.080  12.125
73765ION    CL-44365  29.498  35.055   3.832
73766ION    CL-44366  37.973  42.961  12.576
73767ION    CL-44367  28.382   2.793  10.802
73768ION    CL-44368   0.514  41.500  11.724
73769ION    CL-44369  29.911  28.987  12.636
73770ION    CL-44370  14.928  37.501   3.177
73771ION    CL-44371  19.590   3.026  10.501
73772ION    CL-44372  15.151  44.967   2.199
73773ION    CL-44373  36.870  26.629  14.960
73774ION    CL-44374  22.260  11.923  12.534
73775ION    CL-44375  27.385  35.383   4.823
73776ION    CL-44376  28.998  32.544  10.813
73777ION    CL-44377  14.615  16.522  13.125
73778ION    CL-44378  13.906  36.129   4.732
73779ION    CL-44379  41.266  42.698   3.015
73780ION    CL-44380  14.872  31.667  13.763
73781ION    CL-44381  33.744  19.468   3.146
73782ION    CL-44382  43.656   3.662  11.049
73783ION    CL-44383  16.709  26.337  11.591
73784ION    CL-44384   8.542  28.458   2.349
73785ION    CL-44385  24.084  28.926   4.789
73786ION    CL-44386   8.175  11.677  10.866
73787ION    CL-44387  32.987  17.044   4.493
73788ION    CL-44388   0.217   7.701  11.077
73789ION    CL-44389  44.888  38.850   2.784
73790ION    CL-44390  40.079   9.383  10.724
73791ION    CL-44391   8.392  23.516  11.889
73792ION    CL-44392  10.773  33.869   2.031
73793ION    CL-44393  39.529  30.949  13.932
73794ION    CL-44394  17.870  34.897  12.889
73795ION    CL-44395  43.448  24.445  12.865
73796ION    CL-44396  16.468   8.587   4.067
73797ION    CL-44397  40.484  15.488  12.080
73798ION    CL-44398   4.399  35.336  11.788
73799ION    CL-44399  21.005  30.218   1.759
73800ION    CL-44400  42.918   0.204   3.759
73801ION    CL-44401  10.871   5.926   4.651
73802ION    CL-44402   2.385  34.012  12.665
73803ION    CL-44403  26.686  20.788  14.143
73804ION    CL-44404  38.961  34.890  12.317
73805ION    CL-44405  22.104   1.318   0.719
73806ION    CL-44406  32.843  37.467  11.601
73807ION    CL-44407  32.751   3.030  13.299
73808ION    CL-44408   9.437  31.860   0.513
73809ION    CL-44409  22.859   8.231  12.237
73810ION    CL-44410  34.011   4.765   3.243
73811ION    CL-44411   6.148  26.074   0.014
73812ION    CL-44412  28.278  27.000  13.193
73813ION    CL-44413  40.901  17.079  11.721
73814ION    CL-44414  12.208  34.251   0.022
73815ION    CL-44415  16.579  12.138  11.094
73816ION    CL-44416  20.140   0.175  11.727
73817ION    CL-44417   4.802   6.617   4.964
73818ION    CL-44418  17.058  42.757   1.294
73819ION    CL-44419  30.568  32.545   1.331
73820ION    CL-44420  43.568  21.550   2.507
73821ION    CL-44421  39.200  29.239  12.711
73822ION    CL-44422  37.331  18.669  11.722
73823ION    CL-44423  11.592   1.386   0.804
73824ION    CL-44424  41.117  12.898  14.310
73825ION    CL-44425  20.196  27.157   1.445
73826ION    CL-44426  41.350  34.777   1.261
73827ION    CL-44427  37.313  33.086   4.295
73828ION    CL-44428  33.516  24.429   0.408
73829ION    CL-44429  26.241  29.336   1.392
73830ION    CL-44430  27.655  37.373   0.662
73831ION    CL-44431  44.598  44.967   1.234
73832ION    CL-44432  31.935  41.048   0.922
73833ION    CL-44433   4.424  18.686   1.969
73834ION    CL-44434  29.626   7.663  11.488
73835ION    CL-44435  16.423  31.372  12.837
73836ION    CL-44436  12.529   8.644   3.170
73837ION    CL-44437  31.962  24.439   3.795
73838ION    CL-44438  32.587   7.440  13.344
73839ION    CL-44439   0.185  34.071   1.035
73840ION    CL-44440  35.966  23.438   1.914
73841ION    CL-44441  18.476  29.782  15.000
73842ION    CL-44442  37.946  24.675  11.833
73843ION    CL-44443  25.908   2.515  14.985
73844ION    CL-44444  31.578  29.505  12.919
73845ION    CL-44445  28.312   5.319  10.584
73846ION    CL-44446   0.849  21.416  12.231
73847ION    CL-44447  31.674  27.011  13.642
73848ION    CL-44448  38.606  38.644   0.298
73849ION    CL-44449  39.282  20.669   0.961
73850ION    CL-44450   8.960  35.613   0.043
73851ION    CL-44451   1.722  18.094   2.386
73852ION    CL-44452  11.166   2.262  11.670
73853ION    CL-44453  25.499   9.443   2.014
73854ION    CL-44454  13.294  34.474  12.134
73855ION    CL-44455   6.490   0.309   2.281
73856ION    CL-44456   3.206  44.845  13.894
73857ION    CL-44457  43.905   9.952   0.201
73858ION    CL-44458  32.533  38.829  12.995
73859ION    CL-44459  31.849   1.525   0.937
73860ION    CL-44460   1.182  37.070  11.024
73861ION    CL-44461  16.282  43.874   1.385
73862ION    CL-44462  28.494  10.062  14.129
73863ION    CL-44463  13.220  12.519  12.310
73864ION    CL-44464  30.245  34.774  11.594
73865ION    CL-44465  43.039  33.445  10.531
73866ION    CL-44466   2.065   9.375  11.413
73867ION    CL-44467  29.590   9.406  13.012
73868ION    CL-44468  38.363  29.929   2.488
73869ION    CL-44469  12.259  33.965   1.113
73870ION    CL-44470  39.747  16.627   3.667
73871ION    CL-44471  14.550  27.547   3.183
73872ION    CL-44472   6.469  43.027  14.879
73873ION    CL-44473  18.287  44.702   1.378
73874ION    CL-44474  19.145  40.960  11.159
73875ION    CL-44475  26.630  18.199   3.594
73876ION    CL-44476  10.570  36.994   0.751
73877ION    CL-44477  44.449  24.833  13.785
73878ION    CL-44478  15.292  22.252   2.342
73879ION    CL-44479   2.415   5.838  11.571
73880ION    CL-44480   5.514  39.606  11.099
73881ION    CL-44481  23.467  33.432  11.024
73882ION    CL-44482   4.840   4.246   2.839
73883ION    CL-44483  27.779   3.730   1.726
73884ION    CL-44484  33.095   3.458  10.252
73885ION    CL-44485  26.791  27.441  11.170
73886ION    CL-44486   1.003  39.895  12.869
73887ION    CL-44487  15.338  26.946   3.961
73888ION    CL-44488  17.916  30.017   4.559
73889ION    CL-44489  20.778  31.486   4.734
73890ION    CL-44490  25.201  36.781  14.395
73891ION    CL-44491  41.239  23.361   3.673
73892ION    CL-44492   5.130  36.662   0.343
73893ION    CL-44493   4.964  34.402   0.520
73894ION    CL-44494  27.001  33.445  11.939
73895ION    CL-44495   4.999   7.420  11.140
73896ION    CL-44496  19.969  39.288   3.427
73897ION    CL-44497  25.381  35.672   4.197
73898ION    CL-44498   2.366   8.627  12.185
73899ION    CL-44499  35.746  33.990  13.650
73900ION    CL-44500   0.462  10.371   1.161
73901ION    CL-44501   1.203  18.323   0.865
73902ION    CL-44502  34.041   6.400  14.462
73903ION    CL-44503  14.857  22.617   9.908
73904ION    CL-44504  44.137  16.767   4.039
73905ION    CL-44505  44.844  34.457   0.070
73906ION    CL-44506   5.352  21.297   0.136
73907ION    CL-44507  27.570  19.643   2.145
73908ION    CL-44508  44.563  14.648  10.920
73909ION    CL-44509  13.920   9.597  11.235
73910ION    CL-44510  23.611  40.259   2.723
73911ION    CL-44511  33.862   3.971   3.833
73912ION    CL-44512  35.643  29.951   3.910
73913ION    CL-44513  37.397  44.844  13.464
73914ION    CL-44514  27.668  33.207   2.771
73915ION    CL-44515  31.224   8.042   0.861
73916ION    CL-44516  25.853  44.805  12.715
73917ION    CL-44517  41.090   9.321  10.901
73918ION    CL-44518  31.471  16.429   5.178
73919ION    CL-44519   7.716  27.579   5.066
73920ION    CL-44520  28.239   4.533   2.771
73921ION    CL-44521  26.108  17.457  11.789
73922ION    CL-44522  43.928  19.041   2.070
73923ION    CL-44523  12.869  29.781  14.657
73924ION    CL-44524  22.228   9.175   3.517
73925ION    CL-44525  17.828  42.362  10.238
73926ION    CL-44526  20.267   4.948   0.691
73927ION    CL-44527  28.123  42.464  10.408
73928ION    CL-44528  35.834  22.647  14.353
73929ION    CL-44529  10.846   6.803  13.763
73930ION    CL-44530   9.631  34.626   0.949
73931ION    CL-44531  33.970  40.269   2.259
73932ION    CL-44532  23.467   4.164   4.544
73933ION    CL-44533  17.073  23.732  12.997
73934ION    CL-44534  35.508   6.394   1.257
73935ION    CL-44535  24.395   8.904  14.219
73936ION    CL-44536  29.082  20.844   3.146
73937ION    CL-44537   7.334   9.384   1.177
73938ION    CL-44538  42.012  13.951  11.414
73939ION    CL-44539  20.119   4.061   0.662
73940ION    CL-44540  34.454  37.625   0.467
73941ION    CL-44541  41.208  32.909   4.104
73942ION    CL-44542  33.513  38.665   1.766
73943ION    CL-44543  18.917  35.007  13.392
73944ION    CL-44544   3.869   7.082   5.120
73945ION    CL-44545   4.376   4.429  11.714
73946ION    CL-44546  21.131  16.286  12.137
73947ION    CL-44547  25.364  38.895   2.549
73948ION    CL-44548   1.646  17.114  14.897
73949ION    CL-44549   7.828  18.113  12.965
73950ION    CL-44550  18.324   5.249  14.567
73951ION    CL-44551  35.311  37.028  12.506
73952ION    CL-44552   3.485  30.638  10.704
73953ION    CL-44553  42.932  38.015  10.991
73954ION    CL-44554  12.317   9.186   0.162
73955ION    CL-44555  19.426  13.915  13.322
73956ION    CL-44556  15.531  30.632  11.057
73957ION    CL-44557  11.930  18.984   3.624
73958ION    CL-44558  13.824  38.130   0.528
73959ION    CL-44559   9.302  20.664  13.037
73960ION    CL-44560   4.932  20.671  14.668
73961ION    CL-44561  12.606  34.177   3.545
73962ION    CL-44562  41.295  16.894   3.158
73963ION    CL-44563  15.303   5.613   0.541
73964ION    CL-44564  43.833   6.834  11.598
73965ION    CL-44565  12.354  35.194   1.877
73966ION    CL-44566  28.418  12.213  11.962
73967ION    CL-44567  35.635  14.759   0.956
73968ION    CL-44568  10.922  16.286  14.319
73969ION    CL-44569  20.897  12.099  14.749
73970ION    CL-44570  33.954   2.511   2.866
73971ION    CL-44571  25.496  37.960  13.902
73972ION    CL-44572  19.832  40.634  12.357
73973ION    CL-44573  25.903  36.663   1.922
73974ION    CL-44574  30.377   5.219  13.439
73975ION    CL-44575  17.079  42.847   3.285
73976ION    CL-44576  14.994   5.118  10.785
73977ION    CL-44577  42.554  23.175   1.451
73978ION    CL-44578   3.287  17.715   2.664
73979ION    CL-44579   5.135  29.012   1.626
73980ION    CL-44580  41.422  17.159  14.785
73981ION    CL-44581  20.514  27.216   0.498
73982ION    CL-44582  21.715  23.352  11.867
73983ION    CL-44583  35.092  22.345  12.555
73984ION    CL-44584  44.205  36.883   2.575
73985ION    CL-44585  12.326  44.534   0.975
73986ION    CL-44586  24.745   9.871  11.803
73987ION    CL-44587  14.394  20.397   5.026
73988ION    CL-44588  12.680  18.691   0.802
73989ION    CL-44589  22.614  14.297   5.020
73990ION    CL-44590   9.804  40.030   4.955
73991ION    CL-44591  33.714   2.740  13.346
73992ION    CL-44592  36.256  37.094  14.166
73993ION    CL-44593   8.702  11.701   2.226
73994ION    CL-44594  23.239  38.908  11.879
73995ION    CL-44595  37.934  29.521   3.181
73996ION    CL-44596  16.083  31.395  11.857
73997ION    CL-44597  19.825  33.621  11.317
73998ION    CL-44598  37.055   8.547  11.971
73999ION    CL-44599  32.294  21.484   5.027
74000ION    CL-44600  21.724   4.243   3.277
74001ION    CL-44601   4.523  29.115  12.699
74002ION    CL-44602  31.628  31.111  11.962
74003ION    CL-44603  12.518  25.100   0.559
74004ION    CL-44604  14.559   8.377  12.436
74005ION    CL-44605  25.660   6.562  10.434
74006ION    CL-44606  20.363  42.977   2.273
74007ION    CL-44607  12.114  19.192  14.413
74008ION    CL-44608  36.960  27.149   4.341
74009ION    CL-44609  17.358  37.210  14.188
74010ION    CL-44610  19.900  37.900  10.498
74011ION    CL-44611  12.192  22.483   3.296
74012ION    CL-44612  15.204  30.220  13.854
74013ION    CL-44613  17.170   2.201   3.886
74014ION    CL-44614  42.543  21.536  13.851
74015ION    CL-44615  15.290  30.404   0.785
74016ION    CL-44616  43.355  43.053  11.487
74017ION    CL-44617  23.331  32.505   2.700
74018ION    CL-44618  24.778  35.078   0.733
74019ION    CL-44619  25.660  15.462   3.207
74020ION    CL-44620  37.169  16.697   1.090
74021ION    CL-44621  14.579  26.482  11.855
74022ION    CL-44622  21.627   5.346   3.284
74023ION    CL-44623   5.620  32.306   3.603
74024ION    CL-44624  43.717  28.465  14.374
74025ION    CL-44625  15.292  36.547  14.484
74026ION    CL-44626  10.975  29.330  11.536
74027ION    CL-44627  28.698  17.524  12.726
74028ION    CL-44628  23.300   5.495  14.841
74029ION    CL-44629  36.560  16.182   4.193
74030ION    CL-44630  16.434  24.684   0.264
74031ION    CL-44631   7.068  32.082   0.385
74032ION    CL-44632  36.717   0.593   5.109
74033ION    CL-44633  21.197  36.502  14.404
74034ION    CL-44634  43.351  17.973   2.468
74035ION    CL-44635  20.836   1.317  11.172
74036ION    CL-44636   7.014  30.130  13.973
74037ION    CL-44637  38.538  30.964  14.328
74038ION    CL-44638  43.986  23.111   1.610
74039ION    CL-44639  16.203  33.715   2.375
74040ION    CL-44640  12.254  17.611  11.651
74041ION    CL-44641  21.328  23.532  13.775
74042ION    CL-44642  23.690  34.394   3.309
74043ION    CL-44643   4.405  38.911   4.070
74044ION    CL-44644  17.357  36.903  11.947
74045ION    CL-44645  22.254  25.028  11.722
74046ION    CL-44646  36.834  42.117   0.088
74047ION    CL-44647  38.666  13.559   0.914
74048ION    CL-44648  35.326  28.395   2.396
74049ION    CL-44649  19.797   7.909  12.411
74050ION    CL-44650  20.524  25.135   3.271
74051ION    CL-44651   7.553  34.454   1.886
74052ION    CL-44652  24.430   9.554  10.908
74053ION    CL-44653  21.214  12.739   0.449
74054ION    CL-44654   2.537  15.749   1.314
74055ION    CL-44655  13.542  14.594  12.884
74056ION    CL-44656  21.614   8.581   1.929
74057ION    CL-44657  27.829  42.605  12.376
74058ION    CL-44658  16.890  16.022   0.314
74059ION    CL-44659  43.683  22.245   3.593
74060ION    CL-44660  28.292  33.072  12.960
74061ION    CL-44661  29.997  30.353   1.218
74062ION    CL-44662  19.829  31.439  12.198
74063ION    CL-44663  40.382  43.404  10.828
74064ION    CL-44664   4.982  31.613   1.411
74065ION    CL-44665  17.644  42.763   3.986
74066ION    CL-44666  18.652   0.900   4.396
74067ION    CL-44667  36.686  11.423  12.567
74068ION    CL-44668   4.204   3.847   4.172
74069ION    CL-44669  10.918  16.491  11.889
74070ION    CL-44670  15.490   1.005   4.033
74071ION    CL-44671  26.364  42.149  14.729
74072ION    CL-44672  37.123  33.658   1.872
74073ION    CL-44673  41.554  22.557  14.162
74074ION    CL-44674  36.886  22.085   4.886
74075ION    CL-44675  42.241  10.039  14.233
74076ION    CL-44676  39.103  44.178   1.927
74077ION    CL-44677  28.038   7.639   4.538
74078ION    CL-44678  41.571  13.300   4.565
74079ION    CL-44679  23.836  11.085  10.782
74080ION    CL-44680   0.019  10.846  13.966
74081ION    CL-44681  37.866  10.735   0.513
74082ION    CL-44682  12.818  26.743   2.070
74083ION    CL-44683   6.628  20.855   9.805
74084ION    CL-44684   2.143   1.613   1.246
74085ION    CL-44685  36.702  44.021  12.156
74086ION    CL-44686  13.314  37.658  12.536
74087ION    CL-44687  20.776  15.412   4.391
74088ION    CL-44688  18.072  17.598   0.881
74089ION    CL-44689  33.322  42.033  14.863
74090ION    CL-44690  37.209  34.145   4.776
74091ION    CL-44691   4.100  29.162  14.531
74092ION    CL-44692  18.991  17.206   0.838
74093ION    CL-44693  14.239   0.819  12.793
74094ION    CL-44694  12.451   5.903   1.241
74095ION    CL-44695  37.543  26.730  13.572
74096ION    CL-44696  38.086  44.971   1.396
74097ION    CL-44697  20.488  21.169   2.650
74098ION    CL-44698  15.262   3.451  11.570
74099ION    CL-44699  22.785  40.908   1.617
74100ION    CL-44700  23.980   1.773   1.830
74101ION    CL-44701  44.610  25.121   1.960
74102ION    CL-44702  22.996   7.392  11.916
74103ION    CL-44703  24.643   7.026  14.829
74104ION    CL-44704  20.804   8.866  13.724
74105ION    CL-44705  15.369  10.560  10.438
74106ION    CL-44706  39.838  25.296  13.526
74107ION    CL-44707  26.556  16.363  10.707
74108ION    CL-44708  16.591  38.803  11.797
74109ION    CL-44709  10.867  34.150   1.235
74110ION    CL-44710  18.454  10.266  13.922
74111ION    CL-44711  38.272  30.818  10.683
74112ION    CL-44712   5.607  10.897   4.529
74113ION    CL-44713  20.028  11.918   2.153
74114ION    CL-44714  14.837  27.877  13.853
74115ION    CL-44715   3.780  32.455   1.169
74116ION    CL-44716  13.666  31.413  11.151
74117ION    CL-44717  25.730  36.779  12.004
74118ION    CL-44718  11.404   3.667  14.973
74119ION    CL-44719  33.516  16.375   3.825
74120ION    CL-44720  12.169  33.324  12.107
74121ION    CL-44721  35.483  35.547  12.724
74122ION    CL-44722  28.543  19.701  13.894
74123ION    CL-44723  21.016   6.989  10.534
74124ION    CL-44724  22.053  20.997  14.464
74125ION    CL-44725  25.722   8.994   1.226
74126ION    CL-44726  31.542  25.735   0.513
74127ION    CL-44727  15.471   8.498   4.104
74128ION    CL-44728   2.959  17.278   4.255
74129ION    CL-44729  24.084  23.002   0.028
74130ION    CL-44730  22.879  39.074  12.797
74131ION    CL-44731  16.514  38.064  13.518
74132ION    CL-44732  43.712  24.468  14.948
74133ION    CL-44733  31.581  11.588   4.942
74134ION    CL-44734   8.787  10.178  11.250
74135ION    CL-44735  37.812  12.608   4.195
74136ION    CL-44736  43.447  43.513   3.800
74137ION    CL-44737  12.853  27.296   0.821
74138ION    CL-44738  33.913   3.082   4.288
74139ION    CL-44739   2.968  23.998   3.654
74140ION    CL-44740  36.873  24.133   1.202
74141ION    CL-44741  34.851   9.827   3.342
74142ION    CL-44742  30.090   8.436  13.404
74143ION    CL-44743   6.435  16.399   4.638
74144ION    CL-44744  18.645  23.983   1.773
74145ION    CL-44745  16.772  14.874  13.842
74146ION    CL-44746  33.206   5.700  11.087
74147ION    CL-44747  16.021  16.016  10.738
74148ION    CL-44748  20.755  43.236   1.586
74149ION    CL-44749  15.177  39.615  14.328
74150ION    CL-44750   0.561  20.746   0.391
74151ION    CL-44751   3.099   0.543  11.631
74152ION    CL-44752  18.793  14.745  14.282
74153ION    CL-44753  18.975  27.188   3.670
74154ION    CL-44754  25.043  17.272  11.973
74155ION    CL-44755  24.753  12.389  10.676
74156ION    CL-44756  17.579  28.742  10.584
74157ION    CL-44757  41.080  33.134  13.279
74158ION    CL-44758  23.841  41.129  14.372
74159ION    CL-44759   6.800  19.904  14.317
74160ION    CL-44760  44.738  27.474   0.480
74161ION    CL-44761  38.033   2.262   3.351
74162ION    CL-44762  33.513  25.007  14.717
74163ION    CL-44763  15.076  44.077   4.987
74164ION    CL-44764  23.591  14.754  13.448
74165ION    CL-44765   2.149  33.043   1.232
74166ION    CL-44766  24.878  28.609   3.137
74167ION    CL-44767  19.661  16.620  12.860
74168ION    CL-44768   5.369  33.832   3.609
74169ION    CL-44769  29.785  17.435   0.505
74170ION    CL-44770   3.396  40.203   0.969
74171ION    CL-44771  30.207   0.681   4.269
74172ION    CL-44772  39.003   8.202  13.949
74173ION    CL-44773  20.213  12.732  11.022
74174ION    CL-44774  31.031  40.582   4.075
74175ION    CL-44775   5.013  10.684   3.715
74176ION    CL-44776  28.244  29.945   0.802
74177ION    CL-44777  22.695   9.489   2.653
74178ION    CL-44778   1.883  29.439  13.822
74179ION    CL-44779  27.654  24.631  10.779
74180ION    CL-44780  18.101   1.986   3.446
74181ION    CL-44781   5.710  36.444   3.871
74182ION    CL-44782  39.769  28.162  13.706
74183ION    CL-44783   3.146  10.127   0.431
74184ION    CL-44784  27.561  43.209   0.217
74185ION    CL-44785  30.648  42.888  14.041
74186ION    CL-44786   5.698   1.437   3.687
74187ION    CL-44787  41.684  14.240  12.205
74188ION    CL-44788  20.272  43.888   2.138
74189ION    CL-44789  36.424  30.008  14.480
74190ION    CL-44790  44.059  11.539   5.125
74191ION    CL-44791  12.095  12.163   0.202
74192ION    CL-44792  23.123  28.030   1.290
74193ION    CL-44793  24.182   5.872  11.170
74194ION    CL-44794  39.286  10.793   3.807
74195ION    CL-44795  17.101  16.290   1.846
74196ION    CL-44796  23.729  23.486   0.845
74197ION    CL-44797  15.756  26.995  14.482
74198ION    CL-44798  21.880   2.471   3.270
74199ION    CL-44799  41.309   6.449   3.510
74200ION    CL-44800  43.932  16.532  12.852
74201ION    CL-44801   7.758  43.781   0.730
74202ION    CL-44802  42.247  42.398  14.932
74203ION    CL-44803  29.518  24.219   1.226
74204ION    CL-44804  42.032  21.415   3.560
74205ION    CL-44805  18.085  16.399  12.412
74206ION    CL-44806   1.489  21.808   3.092
74207ION    CL-44807  15.389  19.195  12.003
74208ION    CL-44808   4.969  24.517   0.345
74209ION    CL-44809  40.188  12.629  14.563
74210ION    CL-44810   4.782  17.775   1.562
74211ION    CL-44811  30.118  27.379  14.802
74212ION    CL-44812  14.419   6.725   4.233
74213ION    CL-44813  26.716   0.708   5.014
74214ION    CL-44814  35.052   9.833  12.074
74215ION    CL-44815  25.908  18.761  12.418
74216ION    CL-44816  13.179  36.720   3.553
74217ION    CL-44817  28.445   6.153  11.149
74218ION    CL-44818  12.862  31.577   1.885
74219ION    CL-44819   2.371   3.654  14.964
74220ION    CL-44820  25.071  36.939  10.758
74221ION    CL-44821  43.744  12.630   4.133
74222ION    CL-44822  31.029   7.291   4.616
74223ION    CL-44823  38.739  24.430   3.265
74224ION    CL-44824   4.150   9.334   0.990
74225ION    CL-44825  36.503   2.693  11.188
74226ION    CL-44826  41.482  16.061   3.927
74227ION    CL-44827  27.055  28.024   2.226
74228ION    CL-44828  32.268  13.892  13.725
74229ION    CL-44829  16.504  19.213  11.866
74230ION    CL-44830  12.642  40.498  11.370
74231ION    CL-44831  12.495  38.931  14.409
74232ION    CL-44832  37.123  16.365   2.032
74233ION    CL-44833  31.617  19.236   1.422
74234ION    CL-44834  20.840   9.036   9.837
74235ION    CL-44835  32.957  19.223   3.502
74236ION    CL-44836  23.934  11.461  12.585
74237ION    CL-44837   3.302  25.959  10.786
74238ION    CL-44838  26.232  17.226  13.269
74239ION    CL-44839  36.459  13.177  12.531
74240ION    CL-44840  31.330  20.023   3.624
74241ION    CL-44841  36.254  24.546  14.430
74242ION    CL-44842  34.573  16.763   4.802
74243ION    CL-44843  17.047  27.976  13.486
74244ION    CL-44844  44.803  30.383  13.916
74245ION    CL-44845  41.411  19.242  13.915
74246ION    CL-44846  41.794   2.258   1.236
74247ION    CL-44847  21.482   5.840   1.786
74248ION    CL-44848  23.106  18.913   1.269
74249ION    CL-44849   4.701  23.662  14.116
74250ION    CL-44850  26.265   7.845  12.669
74251ION    CL-44851  12.504  12.258   1.109
74252ION    CL-44852  35.519  25.968  13.852
74253ION    CL-44853  29.591  24.477   2.210
74254ION    CL-44854  20.756  19.298   0.679
74255ION    CL-44855  11.131  12.234  10.880
74256ION    CL-44856  19.284   7.512   4.855
74257ION    CL-44857  39.554  39.644   1.117
74258ION    CL-44858  32.277  15.218   4.714
74259ION    CL-44859  24.726  29.432   5.136
74260ION    CL-44860  15.315  43.461  13.905
74261ION    CL-44861  44.009   5.338   2.205
74262ION    CL-44862  18.455  39.245  14.099
74263ION    CL-44863  26.587   2.293   0.462
74264ION    CL-44864  42.788   7.930   4.102
74265ION    CL-44865   1.180  16.603   1.547
74266ION    CL-44866  26.335  43.396   0.638
74267ION    CL-44867  39.330  20.639  14.576
74268ION    CL-44868  28.691  16.869   1.215
74269ION    CL-44869  24.102  34.468   1.145
74270ION    CL-44870  27.483  43.222  10.277
74271ION    CL-44871   4.615  19.311   1.056
74272ION    CL-44872  31.126   1.688   5.139
74273ION    CL-44873  40.276  23.062   3.747
74274ION    CL-44874  40.186  17.590  10.551
74275ION    CL-44875   5.290  22.335   1.441
74276ION    CL-44876  39.994  38.749   2.093
74277ION    CL-44877   0.081  43.046  11.007
74278ION    CL-44878  39.867  35.449  13.509
74279ION    CL-44879   7.515  28.347   3.824
74280ION    CL-44880  26.962  13.593  12.617
74281ION    CL-44881   1.948  20.214   4.563
74282ION    CL-44882  17.001  41.815  10.104
74283ION    CL-44883  39.230  40.076   3.647
74284ION    CL-44884  28.588  28.391  14.614
74285ION    CL-44885  17.731   5.563   4.147
74286ION    CL-44886  27.211  44.716  14.100
74287ION    CL-44887  21.049  24.796   2.018
74288ION    CL-44888  43.035  19.367   4.067
74289ION    CL-44889  14.521  29.472  13.513
74290ION    CL-44890  14.647   1.397  14.480
74291ION    CL-44891  11.053  22.545  14.581
74292ION    CL-44892   9.909  32.456   5.092
74293ION    CL-44893  42.700  15.466   9.920
74294ION    CL-44894  29.748  15.354   3.716
74295ION    CL-44895  10.753   1.884  12.521
74296ION    CL-44896  14.692  41.200   0.750
74297ION    CL-44897   3.936  32.380  11.435
74298ION    CL-44898  24.083   0.563   2.471
74299ION    CL-44899  12.659  26.555   2.946
74300ION    CL-44900  26.692  14.045   2.510
74301ION    CL-44901  19.619  28.023  12.858
74302ION    CL-44902  32.256  35.231   0.154
74303ION    CL-44903  42.570  23.297  14.921
74304ION    CL-44904  15.287  10.858   1.660
74305ION    CL-44905   2.371   3.815   2.727
74306ION    CL-44906  37.075  14.498   0.320
74307ION    CL-44907  27.504   8.783  14.075
74308ION    CL-44908  24.325  42.662   2.061
74309ION    CL-44909  21.861  10.490  14.641
74310ION    CL-44910  28.480  31.148   1.330
74311ION    CL-44911  16.803  11.362  14.152
74312ION    CL-44912  26.265   5.517  13.459
74313ION    CL-44913  23.517  13.688   0.715
74314ION    CL-44914  24.157   8.751   0.763
74315ION    CL-44915   1.859  12.013   3.745
74316ION    CL-44916  32.877  36.825   4.995
74317ION    CL-44917  15.631  34.391   0.658
74318ION    CL-44918  18.948  31.936   4.974
74319ION    CL-44919  24.597  20.493   1.700
74320ION    CL-44920   5.873   9.563  11.378
74321ION    CL-44921  39.924  28.621   0.324
74322ION    CL-44922  32.787  15.156   2.925
74323ION    CL-44923  42.971  24.740  14.061
74324ION    CL-44924  38.763  21.663   3.764
74325ION    CL-44925  11.514  31.572  12.664
74326ION    CL-44926  10.682   5.837   2.284
74327ION    CL-44927   6.826   7.103   0.478
74328ION    CL-44928   3.411  34.335   1.245
74329ION    CL-44929   5.383  13.140   0.428
74330ION    CL-44930  17.704  16.950   4.794
74331ION    CL-44931  39.616  31.432  12.967
74332ION    CL-44932  42.816  41.769   0.464
74333ION    CL-44933  24.649   7.630  11.637
74334ION    CL-44934  44.751  37.831  11.599
74335ION    CL-44935  43.076  24.441   1.881
74336ION    CL-44936  19.498  22.316   4.247
74337ION    CL-44937  23.922   9.802   0.017
74338ION    CL-44938  18.326  28.565   0.050
74339ION    CL-44939  13.750  41.021  11.110
74340ION    CL-44940  34.382  24.291   2.484
74341ION    CL-44941  13.439  38.310   3.186
74342ION    CL-44942  13.213  17.166  11.675
74343ION    CL-44943  40.319  27.136  13.496
74344ION    CL-44944  44.818  40.444   5.155
74345ION    CL-44945   4.652  27.497  14.413
74346ION    CL-44946   6.140   7.197  13.990
74347ION    CL-44947  37.940  19.285   4.131
74348ION    CL-44948  33.041  14.727  14.594
74349ION    CL-44949  10.339  35.162   1.683
74350ION    CL-44950  26.238  13.135   3.660
74351ION    CL-44951  25.531  12.543  14.386
74352ION    CL-44952   9.153  44.023  12.482
74353ION    CL-44953   8.982  34.337   1.480
74354ION    CL-44954  26.586   5.303  14.570
74355ION    CL-44955   4.960  17.470   3.228
74356ION    CL-44956   4.360   6.994   4.025
74357ION    CL-44957  23.483  40.420  11.158
74358ION    CL-44958  14.133  36.625  10.683
74359ION    CL-44959  43.582  17.975  13.090
74360ION    CL-44960  11.489  34.181   1.728
74361ION    CL-44961  39.934  34.378   0.242
74362ION    CL-44962  44.704  17.955   0.425
74363ION    CL-44963  18.562  44.978  12.829
74364ION    CL-44964   0.843  28.467   4.535
74365ION    CL-44965  25.121  18.519   2.692
74366ION    CL-44966  11.371  40.209  10.295
74367ION    CL-44967  35.339  18.434   1.355
74368ION    CL-44968  11.921  30.155   3.885
74369ION    CL-44969  24.853  19.475  13.463
74370ION    CL-44970  18.642  25.759   2.032
74371ION    CL-44971  21.449  41.207   3.702
74372ION    CL-44972  14.516  20.456  13.853
74373ION    CL-44973  14.717   8.337   0.289
74374ION    CL-44974  36.350  12.621   4.017
74375ION    CL-44975  14.314  16.904  12.061
74376ION    CL-44976   6.848  41.987   2.788
74377ION    CL-44977  16.260   4.637   2.081
74378ION    CL-44978  33.980  34.670   0.339
74379ION    CL-44979   6.412  29.615   3.235
74380ION    CL-44980  39.563  21.156   2.851
74381ION    CL-44981  22.461  25.281   1.809
74382ION    CL-44982  12.581  24.943  13.630
74383ION    CL-44983  24.126   4.416   4.971
74384ION    CL-44984  13.665  20.717  12.070
74385ION    CL-44985   2.442   2.521   1.539
74386ION    CL-44986  24.188  14.496  11.596
74387ION    CL-44987  14.586  15.088   0.044
74388ION    CL-44988  30.059  14.542  13.678
74389ION    CL-44989  38.852  43.112  13.825
74390ION    CL-44990   3.599  22.169  11.088
74391ION    CL-44991  40.816  10.475  12.309
74392ION    CL-44992  10.831  10.518   0.932
  45.00000  45.00000  15.00000
